FOO
138240
    1MOL0     O    1   4.028   5.047   7.837  0.3217 -0.6390 -0.1903
    1MOL0     C    2   4.086   4.941   7.832  0.3797 -0.3328 -0.2641
    1MOL0     O    3   4.196   4.905   7.898  0.0199  0.3986  0.1905
    1MOL0     C    4   4.231   4.996   7.998 -0.4692  0.2736 -0.4219
    1MOL0     C    5   4.232   4.941   8.127 -0.0028  0.3303  1.3197
    1MOL0     C    6   4.259   5.015   8.235  0.1720 -0.0539  0.0910
    1MOL0     C    7   4.296   5.148   8.215 -0.1849  0.2291 -0.4438
    1MOL0     O    8   4.319   5.235   8.316  0.3226  0.8963  0.5641
    1MOL0     C    9   4.338   5.183   8.455 -0.2487  0.3826  0.3283
    1MOL0     C   10   4.383   5.298   8.539  0.1444  0.4575 -0.9174
    1MOL0     C   11   4.297   5.428   8.536  1.1652 -0.6120  0.0559
    1MOL0     C   12   4.147   5.432   8.566 -0.5876  0.1757 -0.1411
    1MOL0     C   13   4.092   5.566   8.521  0.0034 -0.2636  0.4939
    1MOL0     C   14   3.948   5.590   8.559  0.3091 -0.8231  0.2169
    1MOL0     C   15   3.863   5.671   8.460 -0.7079 -0.4012 -0.3475
    1MOL0     C   16   3.722   5.667   8.520  0.2557  0.7193  0.0404
    1MOL0     N   17   3.617   5.724   8.438  0.1810 -0.2493  0.9400
    1MOL0     C   18   3.593   5.688   8.306  0.3098  0.3795  0.5507
    1MOL0     C   19   3.487   5.770   8.271 -0.2866  0.1639  0.7716
    1MOL0     C   20   3.429   5.767   8.131  0.5952  0.2590  0.1058
    1MOL0     C   21   3.379   5.905   8.085 -0.1806 -0.6816  0.2817
    1MOL0     C   22   3.483   6.020   8.094  1.3617  0.3578 -0.1023
    1MOL0     C   23   3.430   6.136   8.007 -0.5444 -0.2250 -0.1144
    1MOL0     O   24   3.445   6.117   7.867 -0.5727 -0.3803 -0.5210
    1MOL0     C   25   3.571   6.083   7.825  0.0569  0.8430 -0.0670
    1MOL0     C   26   3.686   6.146   7.864 -0.4058  0.6017 -0.5503
    1MOL0     C   27   3.814   6.113   7.819 -0.0558 -0.2475  0.4795
    1MOL0     C   28   3.930   6.197   7.858  0.0609  0.2224  0.3888
    1MOL0     C   29   3.826   6.004   7.728 -1.1585  0.2542  1.2145
    1MOL0     C   30   3.954   5.954   7.668 -0.2627 -0.7689  0.0877
    1MOL0     O   31   3.936   5.851   7.567  0.4036  0.0973  0.3177
    1MOL0     C   32   4.030   5.814   7.472 -0.7577  0.6524  0.6207
    1MOL0     C   33   4.166   5.870   7.460  0.0559  0.8692 -0.3273
    1MOL0     C   34   4.255   5.811   7.373 -0.9095 -0.1560  0.1088
    1MOL0     C   35   4.220   5.692   7.294  0.0408  0.2082  0.2380
    1MOL0     O   36   4.304   5.652   7.186 -0.1760  0.0031 -0.1337
    1MOL0     C   37   4.431   5.604   7.221  0.9528 -0.0917 -0.3495
    1MOL0     C   38   4.433   5.474   7.317  0.9733 -0.3933 -0.3808
    1MOL0     C   39   4.573   5.444   7.379  0.1102  0.1580  0.6194
    1MOL0     C   40   4.666   5.394   7.275 -0.9964  0.5669  0.2291
    1MOL0     C   41   4.802   5.371   7.335  0.2446 -0.2995 -0.2008
    1MOL0     C   42   4.822   5.258   7.441  1.0292 -0.3075  0.6171
    1MOL0     C   43   4.970   5.218   7.467 -0.5183  0.4929 -0.3053
    1MOL0     C   44   4.958   5.099   7.565 -0.4657 -0.0794 -0.7185
    1MOL0    Cl   45   5.125   5.049   7.602 -0.0793 -0.5586  0.2521
    1MOL0     C   46   4.097   5.638   7.320  0.6614  0.4493  0.2488
    1MOL0     C   47   3.998   5.702   7.388  1.3954  1.0073  0.2127
    1MOL0     O   48   4.063   5.999   7.704 -0.7957  0.1899  0.5276
    1MOL0     C   49   3.707   5.947   7.675  0.3057  0.3727 -0.5329
    1MOL0     C   50   3.580   5.984   7.728 -0.2387  0.4891  0.5294
    1MOL0     N   51   3.451   5.833   8.387 -0.5618  0.1773  0.5413
    1MOL0     N   52   3.525   5.803   8.481 -1.0301 -0.2421  0.5512
    1MOL0     C   53   4.304   5.202   8.089 -0.9497  0.7001 -0.2887
    1MOL0     C   54   4.271   5.127   7.979 -0.2741  0.1960 -0.0413
    1MOL0     C   55   4.039   4.849   7.738 -0.0570  0.3679  0.5390
    1MOL0     C   56   4.118   4.741   7.712  0.0991 -0.3311  0.2463
    1MOL0     C   57   4.082   4.637   7.623 -0.8352 -0.4199 -0.9541
    1MOL0     C   58   3.959   4.644   7.568 -0.5321 -0.7658  0.3918
    1MOL0     O   59   3.900   4.543   7.487  0.0659  0.3081 -0.6514
    1MOL0     C   60   3.969   4.421   7.456  0.5469  0.2699 -0.6928
    1MOL0     C   61   3.924   4.364   7.325  0.8838  0.0236 -0.2952
    1MOL0     C   62   3.766   4.325   7.341 -0.5517 -0.0442 -0.3852
    1MOL0     C   63   3.739   4.233   7.219 -0.0602 -0.2167 -0.8097
    1MOL0     C   64   3.807   4.103   7.224 -0.1675  0.3394 -0.3792
    1MOL0     C   65   3.866   3.994   7.203  0.6952  0.9728  0.1200
    1MOL0     C   66   3.885   4.753   7.589  0.2554  0.2564 -0.1490
    1MOL0     C   67   3.916   4.856   7.673 -0.9248  0.0068 -0.2325
    1MOL0     H   68   4.205   4.837   8.140 -1.7164  0.5727 -0.0127
    1MOL0     H   69   4.250   4.963   8.330  1.3679  0.5412  0.5504
    1MOL0     H   70   4.244   5.147   8.498  0.5035  0.3618  2.0651
    1MOL0     H   71   4.411   5.101   8.458 -2.0621 -1.3034  1.1680
    1MOL0     H   72   4.394   5.261   8.641  2.4057 -1.0356 -1.6196
    1MOL0     H   73   4.482   5.321   8.500  0.7004 -1.9070 -1.0274
    1MOL0     H   74   4.336   5.499   8.611 -0.4606  0.9167 -0.4718
    1MOL0     H   75   4.311   5.475   8.438  0.2048  3.4356  1.6256
    1MOL0     H   76   4.100   5.359   8.500 -0.7855 -0.3937  0.6145
    1MOL0     H   77   4.115   5.397   8.664 -0.2262  0.5274  0.1087
    1MOL0     H   78   4.153   5.650   8.556  0.9769 -0.3365 -0.9306
    1MOL0     H   79   4.098   5.562   8.412 -0.6822  2.4313  0.2834
    1MOL0     H   80   3.901   5.493   8.575 -2.4079  0.1415 -1.3612
    1MOL0     H   81   3.953   5.644   8.654  0.1003 -0.1697 -0.1394
    1MOL0     H   82   3.890   5.777   8.463 -2.3768  0.0711  2.4774
    1MOL0     H   83   3.872   5.631   8.359 -1.8656 -2.3860  0.2779
    1MOL0     H   84   3.715   5.721   8.615 -0.3893 -0.9657  0.9765
    1MOL0     H   85   3.700   5.562   8.539 -1.8106  0.9141 -1.0024
    1MOL0     H   86   3.661   5.625   8.248  1.1974  1.1589  0.7159
    1MOL0     H   87   3.492   5.721   8.054  0.4038 -2.6640  1.5495
    1MOL0     H   88   3.341   5.701   8.128 -1.1208  2.4508  0.1116
    1MOL0     H   89   3.292   5.927   8.147  0.6240 -0.2834  1.2986
    1MOL0     H   90   3.358   5.894   7.978 -1.0886  0.6638  0.3065
    1MOL0     H   91   3.577   5.984   8.051  0.6022 -2.1360  0.1740
    1MOL0     H   92   3.494   6.049   8.199 -2.4934  2.3230 -0.0619
    1MOL0     H   93   3.497   6.221   8.024  1.5898 -1.6107 -1.2099
    1MOL0     H   94   3.326   6.167   8.023 -1.2973 -2.7936  0.3990
    1MOL0     H   95   3.679   6.222   7.940 -1.2534  0.1075 -0.1136
    1MOL0     H   96   3.893   6.285   7.912  0.0802  1.6047 -1.7050
    1MOL0     H   97   3.988   6.140   7.931 -2.4557 -3.5034 -0.2469
    1MOL0     H   98   3.987   6.241   7.776 -2.1795  1.1577 -0.7524
    1MOL0     H   99   4.187   5.964   7.509  0.1929  0.8849 -0.4180
    1MOL0     H  100   4.349   5.860   7.349 -0.4490 -0.9143  0.3488
    1MOL0     H  101   4.485   5.575   7.131 -1.7073  0.8683 -2.3561
    1MOL0     H  102   4.484   5.685   7.274 -0.2028 -0.4084  1.3751
    1MOL0     H  103   4.361   5.493   7.398  1.5093 -1.5151  0.3824
    1MOL0     H  104   4.385   5.393   7.261 -3.3025  1.8871 -0.4475
    1MOL0     H  105   4.563   5.363   7.452 -0.2192  0.0009  0.4040
    1MOL0     H  106   4.606   5.531   7.435 -2.2562  1.0067  0.7894
    1MOL0     H  107   4.625   5.297   7.244 -0.7826  0.5705 -0.0721
    1MOL0     H  108   4.668   5.465   7.192 -0.0906  0.3141  0.0205
    1MOL0     H  109   4.838   5.468   7.371  1.0202 -0.3253 -0.8845
    1MOL0     H  110   4.881   5.344   7.265  0.3583 -3.5831  1.0386
    1MOL0     H  111   4.779   5.298   7.533  0.6099  2.8951 -0.8499
    1MOL0     H  112   4.769   5.164   7.423  1.0480  0.0272 -1.4163
    1MOL0     H  113   5.036   5.290   7.517 -3.6670  1.9729  2.0991
    1MOL0     H  114   5.015   5.193   7.370  0.8285  0.4105  0.3142
    1MOL0     H  115   4.888   5.019   7.536 -1.5782  1.1973 -1.7015
    1MOL0     H  116   4.911   5.136   7.657 -0.7566  0.6381 -1.1506
    1MOL0     H  117   4.066   5.552   7.262 -1.6828  0.6407  1.1157
    1MOL0     H  118   3.903   5.648   7.382  2.0682 -0.1288 -0.5730
    1MOL0     H  119   3.692   5.870   7.599  0.9044 -0.1556 -0.1292
    1MOL0     H  120   3.497   5.922   7.695  0.9252 -0.2529 -1.1022
    1MOL0     H  121   4.330   5.302   8.056  2.0145  0.3201  0.5783
    1MOL0     H  122   4.256   5.181   7.886  1.9570 -0.1835 -0.6829
    1MOL0     H  123   4.221   4.730   7.746 -0.3424 -2.5161  1.0012
    1MOL0     H  124   4.153   4.555   7.620 -1.1044 -0.7617  0.9602
    1MOL0     H  125   4.074   4.447   7.439 -0.3641  2.3728 -4.3356
    1MOL0     H  126   3.963   4.347   7.536  1.1303  0.4895 -0.4408
    1MOL0     H  127   3.982   4.278   7.293 -0.2066 -1.1610  0.7734
    1MOL0     H  128   3.945   4.443   7.252 -1.3485  2.7382  1.7312
    1MOL0     H  129   3.694   4.408   7.335 -0.5636 -0.0375 -0.1565
    1MOL0     H  130   3.744   4.269   7.432 -2.8807  2.3281  0.6607
    1MOL0     H  131   3.753   4.279   7.121 -4.2908 -0.1503 -1.5816
    1MOL0     H  132   3.632   4.212   7.216 -0.3638  1.1258 -4.9737
    1MOL0     H  133   3.909   3.897   7.185 -3.7726 -1.6392  1.9037
    1MOL0     H  134   3.790   4.768   7.540 -0.2649  0.5853  0.9229
    1MOL0     H  135   3.855   4.944   7.692  0.6569  0.5141  3.2070
    2MOL0     O  136   1.166   1.373   7.362 -0.6247  0.1886 -0.9652
    2MOL0     C  137   1.228   1.319   7.267  1.0634  0.2344 -0.2034
    2MOL0     O  138   1.366   1.337   7.242  0.6541 -0.3324 -0.1558
    2MOL0     C  139   1.438   1.439   7.310 -0.5366 -0.1874  0.5698
    2MOL0     C  140   1.539   1.412   7.404  0.0090  0.1637  0.5197
    2MOL0     C  141   1.606   1.513   7.479  0.4840  1.1091  0.2329
    2MOL0     C  142   1.566   1.646   7.459 -0.4466  0.0516  0.1489
    2MOL0     O  143   1.622   1.738   7.542  0.8372 -0.7792 -0.0746
    2MOL0     C  144   1.744   1.710   7.623  0.9027 -0.1636  0.6308
    2MOL0     C  145   1.807   1.836   7.688  0.6219  0.4334  0.3821
    2MOL0     C  146   1.872   1.937   7.582  1.0687  0.7827  0.8419
    2MOL0     C  147   1.868   2.080   7.647 -0.2306 -0.2364  0.3198
    2MOL0     C  148   1.967   2.172   7.566  1.0256  1.0325  0.1512
    2MOL0     C  149   2.103   2.191   7.642 -1.2924 -0.4714  0.3973
    2MOL0     C  150   2.189   2.318   7.592  0.5341 -0.1410  0.8561
    2MOL0     C  151   2.301   2.357   7.688  0.5745  0.8083 -0.7612
    2MOL0     N  152   2.391   2.241   7.709  0.2942  0.2139  0.1970
    2MOL0     C  153   2.417   2.177   7.828 -0.1791 -0.5465 -0.9829
    2MOL0     C  154   2.488   2.066   7.797  0.5522  0.7783  0.0203
    2MOL0     C  155   2.554   1.955   7.876 -0.0177  0.0300 -0.1507
    2MOL0     C  156   2.690   1.908   7.813 -0.3296 -0.4529 -0.5573
    2MOL0     C  157   2.792   1.816   7.889 -0.0088  0.6250  0.5975
    2MOL0     C  158   2.843   1.873   8.022  0.4618  0.6581  0.4247
    2MOL0     O  159   2.951   1.787   8.051 -0.8026  0.7872  0.4313
    2MOL0     C  160   3.021   1.808   8.165 -0.9563  0.8684 -0.3655
    2MOL0     C  161   3.150   1.748   8.170  0.4240  0.2869  0.7541
    2MOL0     C  162   3.241   1.759   8.274 -0.3542  0.7144 -0.0557
    2MOL0     C  163   3.380   1.702   8.258 -0.1854  0.8099  0.0330
    2MOL0     C  164   3.206   1.843   8.386  1.1641  0.9688 -0.2446
    2MOL0     C  165   3.291   1.856   8.507  0.8509 -0.8769 -0.1092
    2MOL0     O  166   3.233   1.882   8.626 -0.1780 -0.6111  0.0744
    2MOL0     C  167   3.308   1.950   8.719 -0.1300 -0.2581 -0.4053
    2MOL0     C  168   3.339   2.089   8.722  0.4317 -0.0342  0.4138
    2MOL0     C  169   3.421   2.147   8.818  0.1563  0.1513 -0.6567
    2MOL0     C  170   3.473   2.065   8.923 -0.6268 -0.1173 -0.0950
    2MOL0     O  171   3.556   2.108   9.024 -0.3823  0.3609  0.5940
    2MOL0     C  172   3.600   2.250   9.031 -0.2570  0.7305  0.4750
    2MOL0     C  173   3.751   2.267   8.990  0.3479  0.4693 -0.5413
    2MOL0     C  174   3.839   2.173   9.085  0.5622 -0.3404  0.0335
    2MOL0     C  175   3.983   2.224   9.084 -1.4043 -0.1303 -1.1921
    2MOL0     C  176   4.073   2.146   9.190  0.0177 -0.3569  0.3654
    2MOL0     C  177   4.101   2.001   9.154 -0.2858  0.4225  0.5831
    2MOL0     C  178   4.182   1.938   9.256 -0.0513  0.8997 -0.2555
    2MOL0     C  179   4.227   1.794   9.211 -0.0557  0.1721  0.3717
    2MOL0    Cl  180   4.370   1.770   9.098  0.1363 -0.0877  0.4586
    2MOL0     C  181   3.441   1.928   8.925 -0.0454  1.3031  0.7226
    2MOL0     C  182   3.359   1.872   8.820 -0.3844  0.7129  0.2762
    2MOL0     O  183   3.409   1.875   8.485 -0.3113  0.5712  0.1642
    2MOL0     C  184   3.067   1.890   8.389 -0.3734  1.0164 -0.2789
    2MOL0     C  185   2.975   1.873   8.284 -1.3371  0.2949  0.1945
    2MOL0     N  186   2.503   2.065   7.657  0.0589 -0.1088 -0.0330
    2MOL0     N  187   2.444   2.170   7.608 -0.6633 -0.3270  0.3726
    2MOL0     C  188   1.475   1.671   7.354  0.3987 -0.6573 -0.8146
    2MOL0     C  189   1.406   1.568   7.288  0.7066 -0.3209 -0.1390
    2MOL0     C  190   1.159   1.232   7.167  0.0687 -0.1831 -0.1568
    2MOL0     C  191   1.238   1.167   7.059  0.6996 -0.7028 -0.5088
    2MOL0     C  192   1.181   1.095   6.966 -0.0151  0.5004 -0.1962
    2MOL0     C  193   1.044   1.080   6.953 -0.7182  0.2384  0.4661
    2MOL0     O  194   0.999   1.022   6.842 -0.3025  0.5097 -0.5012
    2MOL0     C  195   0.863   0.972   6.832  0.4459 -0.3756 -1.0836
    2MOL0     C  196   0.840   0.865   6.728  0.5631 -0.3927  0.4782
    2MOL0     C  197   0.691   0.859   6.705 -0.9322 -0.3243 -0.1261
    2MOL0     C  198   0.651   0.779   6.578 -0.4657 -0.7355 -0.3831
    2MOL0     C  199   0.658   0.856   6.457 -0.2331 -0.0338 -0.0277
    2MOL0     C  200   0.661   0.928   6.357  0.2711 -0.2835  0.4291
    2MOL0     C  201   0.962   1.129   7.056  0.1049  0.0901  0.4608
    2MOL0     C  202   1.021   1.201   7.158 -0.4855 -0.5044 -0.2342
    2MOL0     H  203   1.580   1.312   7.419 -1.3607 -0.1945  2.2425
    2MOL0     H  204   1.685   1.470   7.540  1.8728  1.3182 -1.3423
    2MOL0     H  205   1.720   1.634   7.698  0.6409 -1.2714 -0.5244
    2MOL0     H  206   1.823   1.677   7.555  1.2630  0.4963  0.7247
    2MOL0     H  207   1.730   1.893   7.741  1.2488  1.9237 -0.2655
    2MOL0     H  208   1.884   1.792   7.753  0.9022 -0.6169 -0.6204
    2MOL0     H  209   1.977   1.912   7.565  1.4004  1.4225  1.8786
    2MOL0     H  210   1.816   1.948   7.488 -0.9240  5.4925  2.2694
    2MOL0     H  211   1.771   2.128   7.637 -0.6238 -0.8514  1.0667
    2MOL0     H  212   1.889   2.067   7.754 -3.7664 -1.1886  1.0339
    2MOL0     H  213   1.994   2.129   7.469  5.4800 -0.8520  1.9659
    2MOL0     H  214   1.903   2.261   7.558 -1.0848 -0.3995  0.0637
    2MOL0     H  215   2.074   2.221   7.743 -1.4334  2.5657 -0.4634
    2MOL0     H  216   2.169   2.104   7.645  3.0724  2.2771 -3.2385
    2MOL0     H  217   2.224   2.317   7.488  1.4659  1.6681  1.1203
    2MOL0     H  218   2.124   2.405   7.595  0.4107  0.0466 -2.7449
    2MOL0     H  219   2.247   2.373   7.782  0.5337  0.4123 -0.7142
    2MOL0     H  220   2.346   2.454   7.663 -0.5042  1.2492 -1.0609
    2MOL0     H  221   2.396   2.227   7.922 -0.6917 -1.2056 -0.7371
    2MOL0     H  222   2.563   1.998   7.977 -0.6444  3.4475 -1.4224
    2MOL0     H  223   2.486   1.869   7.881  0.1769 -0.3829 -2.9888
    2MOL0     H  224   2.747   1.997   7.783 -1.4937  0.6766  0.4567
    2MOL0     H  225   2.669   1.856   7.719 -1.5080 -1.0382  0.0134
    2MOL0     H  226   2.872   1.800   7.816 -1.3003  2.2891 -1.3127
    2MOL0     H  227   2.742   1.721   7.913 -3.1840  2.1057  0.3902
    2MOL0     H  228   2.767   1.876   8.101  2.1615 -0.8322  2.2387
    2MOL0     H  229   2.888   1.972   8.020  2.4051 -0.1938 -1.5694
    2MOL0     H  230   3.159   1.700   8.072 -1.1177 -0.6349  1.0293
    2MOL0     H  231   3.452   1.783   8.248  0.3451  0.3071 -0.3175
    2MOL0     H  232   3.409   1.659   8.354  0.6619  2.8108  0.7177
    2MOL0     H  233   3.396   1.638   8.170 -1.2755  1.7662 -0.8979
    2MOL0     H  234   3.305   2.153   8.642  2.0529  0.0882 -0.2322
    2MOL0     H  235   3.442   2.253   8.805  1.7908 -0.2218 -1.3506
    2MOL0     H  236   3.531   2.307   8.969 -4.0378 -3.2360  0.6133
    2MOL0     H  237   3.600   2.286   9.134 -0.6270  1.6714  0.1555
    2MOL0     H  238   3.772   2.240   8.886 -0.0402  0.1692 -0.5422
    2MOL0     H  239   3.784   2.371   9.004  0.3411  0.3951  0.0659
    2MOL0     H  240   3.835   2.066   9.062 -0.8302  0.0353 -1.6651
    2MOL0     H  241   3.785   2.172   9.180 -1.1663 -0.6326 -0.9268
    2MOL0     H  242   4.027   2.202   8.986 -0.8769 -2.3861 -0.5097
    2MOL0     H  243   3.979   2.333   9.094  0.5398  0.1470 -2.7466
    2MOL0     H  244   4.019   2.151   9.286 -2.4659 -0.0128 -0.9534
    2MOL0     H  245   4.163   2.208   9.196  0.6572 -1.3589  1.6623
    2MOL0     H  246   4.007   1.947   9.142  0.7797 -1.2285 -0.7517
    2MOL0     H  247   4.152   1.997   9.058 -0.8629  2.0935  0.1671
    2MOL0     H  248   4.130   1.950   9.351 -1.1155  0.5273 -0.7694
    2MOL0     H  249   4.277   1.990   9.268  0.8254 -0.1526 -2.2128
    2MOL0     H  250   4.141   1.742   9.169 -0.9529  2.6173 -1.0170
    2MOL0     H  251   4.257   1.742   9.302  1.5341  1.4947  0.6578
    2MOL0     H  252   3.486   1.867   9.003 -0.3461  2.0317  1.4796
    2MOL0     H  253   3.367   1.764   8.818  1.1099  0.8130 -0.3644
    2MOL0     H  254   3.028   1.937   8.479  0.3049 -0.1236  0.6502
    2MOL0     H  255   2.878   1.921   8.289 -2.1314 -1.1171 -0.7894
    2MOL0     H  256   1.448   1.776   7.345  4.4319  0.8941  2.3150
    2MOL0     H  257   1.335   1.601   7.214 -0.8804 -3.4261 -0.1440
    2MOL0     H  258   1.344   1.185   7.046  0.6599  1.3116  1.2866
    2MOL0     H  259   1.244   1.046   6.892  0.9747 -2.2967  2.2884
    2MOL0     H  260   0.842   0.932   6.932 -2.2862 -0.5942 -1.6594
    2MOL0     H  261   0.796   1.053   6.802 -2.3694 -1.9642  0.4514
    2MOL0     H  262   0.886   0.769   6.754  4.1336  0.2646 -2.4858
    2MOL0     H  263   0.895   0.887   6.636  3.5649 -0.9089  2.0232
    2MOL0     H  264   0.644   0.958   6.704  0.6516  0.4623 -0.5370
    2MOL0     H  265   0.643   0.812   6.792 -0.5863 -0.8098 -0.1937
    2MOL0     H  266   0.547   0.745   6.588 -0.0883 -2.2328 -1.2824
    2MOL0     H  267   0.716   0.691   6.582  2.4036  1.2563 -0.4432
    2MOL0     H  268   0.653   0.998   6.276  1.4674  2.0548  2.1870
    2MOL0     H  269   0.860   1.092   7.054  1.9070 -6.1115  1.0805
    2MOL0     H  270   0.961   1.243   7.238  0.5513 -2.1162  1.4741
    3MOL0     O  271   2.917   3.955   7.150  0.7550  0.7074 -0.2952
    3MOL0     C  272   2.990   3.917   7.061  0.5647 -0.9531  0.3067
    3MOL0     O  273   3.079   3.803   7.068 -0.1279  0.4557  0.1143
    3MOL0     C  274   3.079   3.712   7.175  0.0675 -0.0672 -0.2890
    3MOL0     C  275   3.205   3.648   7.179  0.1431 -0.6602  1.1442
    3MOL0     C  276   3.220   3.533   7.273  0.3601 -0.4035  0.9967
    3MOL0     C  277   3.126   3.517   7.373  0.2322  0.9175 -0.4027
    3MOL0     O  278   3.142   3.418   7.468 -0.2570 -0.0858 -1.0169
    3MOL0     C  279   3.177   3.460   7.603 -1.1652 -0.3944  0.6762
    3MOL0     C  280   3.312   3.547   7.622  0.2065  0.5783  0.0338
    3MOL0     C  281   3.333   3.590   7.777  0.2610 -0.3861  1.4541
    3MOL0     C  282   3.451   3.690   7.792  0.8665  0.1363  0.1663
    3MOL0     C  283   3.581   3.612   7.782  0.4603  0.5128 -0.4169
    3MOL0     C  284   3.690   3.712   7.819  0.3096  0.7090 -0.1757
    3MOL0     C  285   3.824   3.641   7.805  0.9546 -0.4154  0.7075
    3MOL0     C  286   3.955   3.739   7.832  0.0574  1.0450  0.1790
    3MOL0     N  287   3.939   3.882   7.817 -1.2813 -0.6699  0.1280
    3MOL0     C  288   3.875   3.970   7.900  0.4306 -0.7046 -0.0122
    3MOL0     C  289   3.901   4.096   7.850 -1.0136  0.3331  0.8495
    3MOL0     C  290   3.871   4.231   7.904  0.4342 -0.5964 -0.2551
    3MOL0     C  291   4.000   4.316   7.909 -0.0908 -0.9605  0.6668
    3MOL0     C  292   3.996   4.440   7.992 -0.3198  0.2017 -0.4116
    3MOL0     C  293   4.131   4.523   7.979  0.1458 -0.0228 -0.5152
    3MOL0     O  294   4.243   4.445   8.001 -0.5727 -0.3948 -0.3905
    3MOL0     C  295   4.332   4.494   8.099  0.7377  0.0214 -0.3393
    3MOL0     C  296   4.346   4.442   8.228 -0.4186  0.7703 -0.0336
    3MOL0     C  297   4.453   4.472   8.322  0.1142 -0.5034  0.6372
    3MOL0     C  298   4.441   4.405   8.457  0.4980  0.2501 -0.0531
    3MOL0     C  299   4.553   4.560   8.280  0.4942 -0.1746 -0.2088
    3MOL0     C  300   4.677   4.592   8.362  0.0738 -0.0028  0.3699
    3MOL0     O  301   4.746   4.703   8.323 -0.0034 -0.8015 -0.1361
    3MOL0     C  302   4.854   4.753   8.391  0.9128 -0.6910 -0.8459
    3MOL0     C  303   4.874   4.894   8.398  0.0040 -0.4754 -0.5464
    3MOL0     C  304   4.981   4.954   8.482  0.3210 -0.0713  0.6618
    3MOL0     C  305   5.076   4.859   8.545 -0.0486 -0.4539  0.5250
    3MOL0     O  306   5.185   4.888   8.627 -0.5961 -0.2727  0.3073
    3MOL0     C  307   5.211   5.031   8.648 -0.2166  0.3637  0.9219
    3MOL0     C  308   5.328   5.039   8.744  0.3161 -0.5013  0.4473
    3MOL0     C  309   5.278   4.963   8.866 -0.6601 -0.0800  0.6246
    3MOL0     C  310   5.163   5.029   8.943  0.0937 -1.1204  0.0208
    3MOL0     C  311   5.111   4.968   9.075 -0.9103 -0.5071  0.7784
    3MOL0     C  312   4.983   5.031   9.116  0.4088 -0.4619  0.0637
    3MOL0     C  313   4.938   5.008   9.262  0.5612 -0.4817  0.4789
    3MOL0     C  314   5.046   5.059   9.362  0.0252  0.7305  0.2812
    3MOL0    Cl  315   4.989   5.057   9.531  0.0452  0.9751 -0.0007
    3MOL0     C  316   5.048   4.726   8.534 -0.5273 -0.8320 -0.9671
    3MOL0     C  317   4.938   4.677   8.464 -0.0384 -0.3138 -0.4669
    3MOL0     O  318   4.699   4.516   8.458  0.6682 -0.3764  0.2432
    3MOL0     C  319   4.536   4.620   8.160  0.3166 -0.4634  0.8683
    3MOL0     C  320   4.422   4.593   8.066 -0.3235 -0.1140  0.1760
    3MOL0     N  321   3.963   4.072   7.724  0.1959 -0.6915  0.0233
    3MOL0     N  322   3.981   3.947   7.706  0.4549 -0.6617 -0.5417
    3MOL0     C  323   3.011   3.592   7.367  0.3632  0.1175 -0.3810
    3MOL0     C  324   2.975   3.684   7.272 -0.0008 -0.8345  0.2881
    3MOL0     C  325   2.987   4.001   6.939 -0.0711 -0.9074 -0.9743
    3MOL0     C  326   2.910   4.119   6.913  0.4082 -0.0392 -0.0083
    3MOL0     C  327   2.918   4.181   6.785  0.0575 -0.1749 -0.3846
    3MOL0     C  328   3.006   4.134   6.689 -0.0624  0.4164  0.2627
    3MOL0     O  329   3.014   4.216   6.574  0.1129 -0.3598  0.7534
    3MOL0     C  330   3.080   4.150   6.462  0.6753  0.4216  0.1013
    3MOL0     C  331   3.224   4.190   6.457  0.2333 -0.4829 -0.6408
    3MOL0     C  332   3.227   4.339   6.420  0.4419 -0.6668  0.7228
    3MOL0     C  333   3.369   4.404   6.419  0.2467 -0.0126  0.0358
    3MOL0     C  334   3.426   4.444   6.290  0.1390 -1.0932  0.2727
    3MOL0     C  335   3.448   4.485   6.178  0.7770  0.1624  0.1275
    3MOL0     C  336   3.081   4.020   6.713 -0.4649  0.1986 -0.9964
    3MOL0     C  337   3.070   3.961   6.837  0.6722  0.3015  0.4931
    3MOL0     H  338   3.278   3.663   7.100 -0.8363 -1.9456 -0.0705
    3MOL0     H  339   3.296   3.457   7.284 -1.5201 -2.2191  2.3762
    3MOL0     H  340   3.089   3.517   7.633 -2.7838 -0.4237 -3.3770
    3MOL0     H  341   3.186   3.365   7.656  0.1945 -1.1602 -0.8134
    3MOL0     H  342   3.395   3.482   7.592  0.0493  1.0561 -1.5046
    3MOL0     H  343   3.315   3.632   7.553  0.8877  0.2723 -0.3207
    3MOL0     H  344   3.233   3.627   7.800 -1.9665 -1.5628 -4.4134
    3MOL0     H  345   3.354   3.509   7.849  1.6865  0.1963  1.7342
    3MOL0     H  346   3.446   3.766   7.714 -0.7920 -0.1211 -0.0119
    3MOL0     H  347   3.443   3.741   7.888  0.6992 -0.9808  0.7710
    3MOL0     H  348   3.579   3.538   7.863  2.2403  1.0266  0.1477
    3MOL0     H  349   3.597   3.563   7.686  1.3749 -1.2174  0.5730
    3MOL0     H  350   3.699   3.787   7.740  3.8685 -1.6927 -2.3616
    3MOL0     H  351   3.654   3.756   7.913 -1.7967  0.8922 -1.0245
    3MOL0     H  352   3.834   3.546   7.858  2.7411 -0.5084  0.2528
    3MOL0     H  353   3.815   3.602   7.703 -3.1281  0.6917  0.4397
    3MOL0     H  354   4.022   3.691   7.760 -1.1723 -0.9813  0.2920
    3MOL0     H  355   3.982   3.730   7.937  1.1236 -1.6531 -0.2523
    3MOL0     H  356   3.812   3.951   7.986 -1.5621  2.3086 -0.6324
    3MOL0     H  357   3.791   4.280   7.847  0.6517 -1.0782 -0.9922
    3MOL0     H  358   3.839   4.219   8.008  1.0423  1.5016  0.2205
    3MOL0     H  359   4.028   4.336   7.805  3.0976 -3.0587  0.9950
    3MOL0     H  360   4.084   4.255   7.944  0.9996  1.0550  1.7534
    3MOL0     H  361   3.973   4.425   8.098 -0.4844  0.7287 -0.3672
    3MOL0     H  362   3.925   4.507   7.943 -1.3369  0.7048  1.6671
    3MOL0     H  363   4.125   4.613   8.042  0.0268  1.3364 -2.3825
    3MOL0     H  364   4.148   4.563   7.879  2.0528  2.4484  0.6907
    3MOL0     H  365   4.282   4.360   8.259  4.0556 -2.2206  2.3473
    3MOL0     H  366   4.523   4.334   8.467 -1.9150 -2.8337 -0.6468
    3MOL0     H  367   4.433   4.478   8.538  1.4112 -0.8512  1.0506
    3MOL0     H  368   4.349   4.346   8.464  1.3901 -1.1645  0.0463
    3MOL0     H  369   4.814   4.968   8.346  0.6635  1.6017  1.4885
    3MOL0     H  370   4.994   5.061   8.495 -2.3750  0.4493 -0.0933
    3MOL0     H  371   5.243   5.075   8.553  2.3481 -0.9789  1.0826
    3MOL0     H  372   5.125   5.093   8.674 -0.7655  0.6830 -1.4390
    3MOL0     H  373   5.410   4.988   8.692 -0.8685 -2.9152  0.7701
    3MOL0     H  374   5.350   5.143   8.769 -0.7112 -0.6920  2.2775
    3MOL0     H  375   5.359   4.964   8.939 -0.2357  0.2773  0.1644
    3MOL0     H  376   5.253   4.860   8.839  1.1110 -0.6268  0.9255
    3MOL0     H  377   5.194   5.133   8.952  0.9649 -1.0077 -3.1259
    3MOL0     H  378   5.075   5.032   8.878  0.0114 -0.9284  0.1389
    3MOL0     H  379   5.183   4.964   9.156 -1.3274 -0.4577  1.1552
    3MOL0     H  380   5.088   4.863   9.050 -3.3808  0.0561  0.4367
    3MOL0     H  381   4.997   5.137   9.091  0.0891 -0.6039 -0.7278
    3MOL0     H  382   4.913   4.993   9.041 -0.0500  0.0669  0.2195
    3MOL0     H  383   4.910   4.907   9.293 -0.9403 -0.3219 -0.2711
    3MOL0     H  384   4.853   5.076   9.271 -0.8613 -1.7865 -1.9506
    3MOL0     H  385   5.071   5.161   9.332 -1.0799  0.7191 -0.7552
    3MOL0     H  386   5.131   4.991   9.354 -1.5300 -1.2085 -0.6996
    3MOL0     H  387   5.122   4.673   8.594 -0.9979  2.5255  2.9993
    3MOL0     H  388   4.922   4.570   8.451  1.1532 -0.2405 -3.1790
    3MOL0     H  389   4.603   4.696   8.117 -2.0138  0.4041 -1.5165
    3MOL0     H  390   4.443   4.641   7.971 -2.4213  0.9705  0.2056
    3MOL0     H  391   2.930   3.559   7.432  2.8005 -1.9660  1.8173
    3MOL0     H  392   2.890   3.750   7.284  0.4433 -0.2034 -0.0182
    3MOL0     H  393   2.845   4.143   6.997 -1.8283  1.7573 -2.1361
    3MOL0     H  394   2.865   4.274   6.767  1.0815  0.4222 -0.3477
    3MOL0     H  395   3.076   4.041   6.466  0.9346  0.4369  1.0507
    3MOL0     H  396   3.030   4.175   6.368  2.5518 -1.0473 -1.3694
    3MOL0     H  397   3.252   4.127   6.373 -0.3092  1.2778 -2.2003
    3MOL0     H  398   3.271   4.154   6.550  2.1189  0.5105 -1.1462
    3MOL0     H  399   3.174   4.393   6.498  0.3074 -0.9593  0.8332
    3MOL0     H  400   3.176   4.367   6.327  1.5272  1.5055  0.7195
    3MOL0     H  401   3.446   4.341   6.464  2.1714 -0.0290 -2.9863
    3MOL0     H  402   3.364   4.497   6.477 -1.5305  0.6939 -1.1701
    3MOL0     H  403   3.476   4.511   6.078 -0.2647 -1.1348 -0.5428
    3MOL0     H  404   3.163   3.987   6.650  0.5985 -2.4667  1.4949
    3MOL0     H  405   3.136   3.877   6.855 -2.4272 -2.3656  0.1331
    4MOL0     O  406   2.121   2.795   0.379 -0.1400 -0.3971  0.0156
    4MOL0     C  407   2.050   2.702   0.334 -0.2538  0.2226  0.0686
    4MOL0     O  408   2.095   2.579   0.292  0.0921  0.4870 -0.1365
    4MOL0     C  409   2.234   2.558   0.267 -0.6039  0.7936  0.8384
    4MOL0     C  410   2.270   2.472   0.160  0.0649 -0.4169 -0.2000
    4MOL0     C  411   2.408   2.443   0.145 -0.3266  0.4150 -0.4657
    4MOL0     C  412   2.505   2.484   0.231 -0.0725  0.6121 -0.2866
    4MOL0     O  413   2.632   2.451   0.236  0.0231 -0.6487 -0.5884
    4MOL0     C  414   2.686   2.391   0.113  0.5220 -0.1386 -0.2278
    4MOL0     C  415   2.833   2.399   0.116  0.5008  0.2068 -0.3199
    4MOL0     C  416   2.879   2.545   0.120 -0.3145  0.6037  0.3403
    4MOL0     C  417   3.033   2.563   0.096  0.0053  0.3579 -0.0199
    4MOL0     C  418   3.075   2.717   0.086  0.4778  0.1307 -0.4023
    4MOL0     C  419   3.053   2.791  -0.047  0.2049 -0.5953  0.5777
    4MOL0     C  420   3.177   2.801  -0.147 -0.5578 -0.0828 -0.4142
    4MOL0     C  421   3.237   2.660  -0.168  0.6009 -0.5003 -0.6447
    4MOL0     N  422   3.346   2.665  -0.260 -0.7442  0.1413  0.2489
    4MOL0     C  423   3.465   2.717  -0.228 -1.1503 -0.0933  0.5345
    4MOL0     C  424   3.534   2.704  -0.346 -0.8677 -0.1355 -0.4963
    4MOL0     C  425   3.683   2.748  -0.364 -0.0991  0.9218  0.2484
    4MOL0     C  426   3.699   2.788  -0.515  0.3127 -0.1326 -0.5171
    4MOL0     C  427   3.837   2.828  -0.559 -0.9014 -1.1228  0.0437
    4MOL0     C  428   3.913   2.905  -0.462 -0.0905  0.4825 -1.1069
    4MOL0     O  429   3.860   3.033  -0.438 -0.1774 -0.0848 -0.8720
    4MOL0     C  430   3.911   3.122  -0.348  0.5941 -0.7584 -1.3467
    4MOL0     C  431   3.828   3.234  -0.329 -0.6154  1.0527  0.3055
    4MOL0     C  432   3.867   3.335  -0.235  0.3976 -0.2508  1.0630
    4MOL0     C  433   3.764   3.433  -0.195 -0.3180  0.0542 -0.6222
    4MOL0     C  434   3.988   3.322  -0.160 -0.6683 -0.1938  0.0121
    4MOL0     C  435   4.051   3.422  -0.064 -0.3014  0.0512  0.0405
    4MOL0     O  436   4.149   3.369   0.017  0.5219 -0.6259  0.4623
    4MOL0     C  437   4.209   3.465   0.099 -0.9382  0.1918 -0.6345
    4MOL0     C  438   4.315   3.544   0.062 -0.2465 -0.8339  1.0812
    4MOL0     C  439   4.373   3.641   0.146  0.6903  0.4003  0.0846
    4MOL0     C  440   4.308   3.674   0.266  0.4280  0.5891 -0.3751
    4MOL0     O  441   4.368   3.778   0.338 -0.5275  0.1233 -0.0829
    4MOL0     C  442   4.356   3.804   0.479 -0.3517 -0.9412  0.0258
    4MOL0     C  443   4.439   3.935   0.500  0.0969  0.7613  0.0767
    4MOL0     C  444   4.383   4.057   0.424 -0.9204 -0.8179 -0.3889
    4MOL0     C  445   4.445   4.089   0.280  0.4992  0.6826 -0.3990
    4MOL0     C  446   4.389   4.221   0.226 -0.5037  0.6970  0.2329
    4MOL0     C  447   4.457   4.250   0.092  0.0453  0.3860  0.0224
    4MOL0     C  448   4.392   4.163  -0.017 -0.2151  0.4171  1.1984
    4MOL0     C  449   4.390   4.208  -0.164 -0.6344 -0.9851 -0.2155
    4MOL0    Cl  450   4.274   4.360  -0.180 -0.3442  0.0830 -0.1891
    4MOL0     C  451   4.205   3.588   0.310  0.6836 -0.3084 -0.5034
    4MOL0     C  452   4.157   3.472   0.228 -1.3673  0.7171 -0.1419
    4MOL0     O  453   4.023   3.540  -0.083  0.7511  0.6860 -0.0572
    4MOL0     C  454   4.061   3.202  -0.175 -0.9843 -0.6693  0.0867
    4MOL0     C  455   4.021   3.112  -0.272 -0.5157 -0.2148 -0.1391
    4MOL0     N  456   3.455   2.638  -0.431 -0.4386  0.4427  0.1730
    4MOL0     N  457   3.343   2.616  -0.385 -0.7839  0.7370 -0.9326
    4MOL0     C  458   2.466   2.575   0.335  0.1455  0.7781 -0.8671
    4MOL0     C  459   2.336   2.598   0.360 -0.7490 -0.0755 -1.3698
    4MOL0     C  460   1.905   2.726   0.348  0.1220 -0.7033  0.0184
    4MOL0     C  461   1.809   2.651   0.281 -0.0552 -0.0249  0.0301
    4MOL0     C  462   1.673   2.679   0.277  0.1712  0.0153 -0.4719
    4MOL0     C  463   1.630   2.801   0.345  0.2624  0.2177  0.1225
    4MOL0     O  464   1.497   2.832   0.328  0.1786  0.4990 -0.0077
    4MOL0     C  465   1.422   2.832   0.457 -0.0272 -0.3240  0.7173
    4MOL0     C  466   1.414   2.975   0.517 -0.2573  0.0232 -0.0726
    4MOL0     C  467   1.349   3.074   0.425  0.2419 -0.0722 -0.2267
    4MOL0     C  468   1.195   3.084   0.429 -0.5187  0.5990 -0.6421
    4MOL0     C  469   1.153   3.222   0.449 -0.0305 -0.2157 -0.8784
    4MOL0     C  470   1.104   3.334   0.466  0.8795 -0.4758 -0.1712
    4MOL0     C  471   1.724   2.881   0.402 -0.5546 -0.9139  0.0386
    4MOL0     C  472   1.862   2.849   0.400 -0.1551 -0.1704 -0.0236
    4MOL0     H  473   2.186   2.453   0.093  0.8990  2.8790 -2.4124
    4MOL0     H  474   2.424   2.381   0.058  1.2051  0.5911 -0.3272
    4MOL0     H  475   2.653   2.288   0.125  0.1015  0.1701  1.5388
    4MOL0     H  476   2.657   2.435   0.017 -0.9375  0.4769  0.4613
    4MOL0     H  477   2.879   2.350   0.203  2.0115  1.4551 -0.3520
    4MOL0     H  478   2.866   2.356   0.021 -1.7358 -4.5300  0.7597
    4MOL0     H  479   2.825   2.607   0.049  0.4237  0.9371  0.0549
    4MOL0     H  480   2.854   2.584   0.219  0.7901  0.3350  0.7457
    4MOL0     H  481   3.085   2.528   0.186  0.4086  1.6610  0.2757
    4MOL0     H  482   3.066   2.507   0.009  2.7295 -1.1012  1.8141
    4MOL0     H  483   3.018   2.758   0.170 -1.6631 -1.8864 -0.7878
    4MOL0     H  484   3.180   2.740   0.104  0.4965 -0.6540  0.5083
    4MOL0     H  485   2.963   2.758  -0.101  1.4760 -0.2858 -1.8612
    4MOL0     H  486   3.032   2.896  -0.029  2.0916 -0.1272  0.2521
    4MOL0     H  487   3.157   2.853  -0.241  0.5789 -0.0968 -0.6791
    4MOL0     H  488   3.244   2.864  -0.088  0.9886 -0.9659 -1.1788
    4MOL0     H  489   3.164   2.589  -0.209  0.7046  0.1005 -1.9255
    4MOL0     H  490   3.269   2.629  -0.068  0.5476  1.8591  0.1734
    4MOL0     H  491   3.499   2.763  -0.136 -2.7603 -0.6910  1.4748
    4MOL0     H  492   3.694   2.843  -0.310 -0.1136  0.4858  1.0261
    4MOL0     H  493   3.754   2.670  -0.334  1.5339  1.6332 -1.5155
    4MOL0     H  494   3.628   2.869  -0.532  0.2977  0.3051  1.4190
    4MOL0     H  495   3.666   2.705  -0.579 -0.2413  1.7945 -2.8626
    4MOL0     H  496   3.827   2.894  -0.646  0.9400 -1.4193 -0.4385
    4MOL0     H  497   3.889   2.737  -0.589  1.9287  0.6325 -0.7822
    4MOL0     H  498   4.017   2.909  -0.495  0.7837 -1.4230  1.1413
    4MOL0     H  499   3.927   2.864  -0.362 -1.5113  0.9315 -0.6958
    4MOL0     H  500   3.731   3.222  -0.375  0.3425  0.5267 -1.6792
    4MOL0     H  501   3.705   3.383  -0.119 -1.1749 -0.3799 -1.5629
    4MOL0     H  502   3.805   3.533  -0.174  2.2630 -1.4379  2.3116
    4MOL0     H  503   3.696   3.446  -0.280 -1.2536 -0.4785  0.0382
    4MOL0     H  504   4.363   3.507  -0.028 -1.3512  1.1900 -0.4157
    4MOL0     H  505   4.457   3.701   0.115 -1.2601  3.6524  0.5916
    4MOL0     H  506   4.250   3.820   0.498 -1.4693 -4.4553 -2.3400
    4MOL0     H  507   4.395   3.729   0.549  1.3819  0.1792  0.3438
    4MOL0     H  508   4.443   3.956   0.607  2.7038  1.0446 -0.0119
    4MOL0     H  509   4.545   3.927   0.473  0.1396 -0.1374  0.5065
    4MOL0     H  510   4.413   4.143   0.484 -0.1374  1.8436 -4.2710
    4MOL0     H  511   4.275   4.054   0.405 -0.7498 -0.7979 -1.4053
    4MOL0     H  512   4.551   4.115   0.289  0.6174  0.7151 -1.7214
    4MOL0     H  513   4.429   4.009   0.207 -0.3299  0.3516  0.1381
    4MOL0     H  514   4.421   4.293   0.302 -2.7339  1.2509  0.7223
    4MOL0     H  515   4.280   4.217   0.222 -0.6414 -5.3258  0.4764
    4MOL0     H  516   4.448   4.357   0.074 -1.3480  0.6220  1.7434
    4MOL0     H  517   4.563   4.226   0.100 -0.0219 -0.3969 -1.2681
    4MOL0     H  518   4.289   4.142   0.011 -0.2904 -2.1181 -0.6342
    4MOL0     H  519   4.444   4.067  -0.010 -1.9256 -0.6354  0.2425
    4MOL0     H  520   4.358   4.131  -0.234 -0.2846 -0.1170 -1.3584
    4MOL0     H  521   4.494   4.232  -0.188 -0.4861  3.2108  3.2825
    4MOL0     H  522   4.160   3.613   0.405  0.6381  0.0317 -0.6135
    4MOL0     H  523   4.078   3.406   0.264 -0.4224 -1.2050 -1.4444
    4MOL0     H  524   4.153   3.177  -0.122 -0.4659  1.0850  0.0647
    4MOL0     H  525   4.086   3.034  -0.310  1.9736  1.7256 -0.0439
    4MOL0     H  526   2.539   2.619   0.403  0.1144  0.7495 -0.8149
    4MOL0     H  527   2.320   2.652   0.453  1.2583 -0.8077 -0.5634
    4MOL0     H  528   1.846   2.568   0.223  0.5550  0.7732 -0.7536
    4MOL0     H  529   1.607   2.618   0.216  0.0464 -1.1286  0.7402
    4MOL0     H  530   1.330   2.774   0.448 -0.3830  0.3341 -0.1629
    4MOL0     H  531   1.465   2.766   0.531 -0.1786  0.2704  1.3478
    4MOL0     H  532   1.512   3.019   0.541  0.2188 -0.0489 -1.7405
    4MOL0     H  533   1.352   2.964   0.606 -0.1391 -1.9898 -0.1833
    4MOL0     H  534   1.387   3.071   0.322 -0.9792  3.3994 -0.9324
    4MOL0     H  535   1.386   3.172   0.456 -1.7034  0.6532 -0.0385
    4MOL0     H  536   1.153   3.022   0.509  2.4311  0.3118  0.8121
    4MOL0     H  537   1.153   3.042   0.338 -2.5206  0.3937  0.3246
    4MOL0     H  538   1.043   3.422   0.480  1.2147 -0.2873  0.1150
    4MOL0     H  539   1.694   2.965   0.465 -0.2718 -2.5184  2.4534
    4MOL0     H  540   1.932   2.921   0.441  1.5712 -0.7719 -1.7769
    5MOL0     O  541   0.760   7.213   1.238 -0.6253  0.1355 -0.3013
    5MOL0     C  542   0.758   7.181   1.357 -0.4123  0.7932 -0.2848
    5MOL0     O  543   0.834   7.233   1.458  0.2193  0.1605  0.0398
    5MOL0     C  544   0.921   7.340   1.431 -0.1933 -0.0037 -0.0797
    5MOL0     C  545   1.058   7.329   1.467  0.5291  0.3181  0.1582
    5MOL0     C  546   1.147   7.432   1.441 -0.4287 -0.4525 -0.0187
    5MOL0     C  547   1.100   7.552   1.391 -0.4138 -0.3031 -0.2332
    5MOL0     O  548   1.181   7.659   1.378  0.1183  0.3814 -0.1831
    5MOL0     C  549   1.294   7.631   1.293  0.7512  0.3061  0.1288
    5MOL0     C  550   1.362   7.770   1.284 -0.2836  0.7603  0.7712
    5MOL0     C  551   1.282   7.881   1.205  0.6036  0.6128  0.6241
    5MOL0     C  552   1.338   7.920   1.071 -0.0162  0.0990  0.4950
    5MOL0     C  553   1.274   8.050   1.008  0.1645  0.6521  1.1727
    5MOL0     C  554   1.122   8.064   1.016 -1.7658 -0.3334 -0.1128
    5MOL0     C  555   1.068   8.161   0.906  0.0569 -0.7928 -0.2560
    5MOL0     C  556   1.100   8.308   0.953  0.8283  0.3356 -0.7925
    5MOL0     N  557   1.019   8.419   0.892  0.5744 -0.4201  0.1362
    5MOL0     C  558   1.037   8.482   0.771 -0.4174  0.9888  0.9192
    5MOL0     C  559   0.975   8.605   0.776 -0.7275  1.1877 -0.9559
    5MOL0     C  560   0.964   8.697   0.658 -0.3532 -0.7267  0.2552
    5MOL0     C  561   0.827   8.675   0.603 -0.0077  0.3715  0.2586
    5MOL0     C  562   0.806   8.737   0.467  0.5014  0.0382 -0.1341
    5MOL0     C  563   0.852   8.884   0.465  0.4203 -0.1376  0.5373
    5MOL0     O  564   0.767   8.984   0.528 -0.3526 -0.4154 -0.1439
    5MOL0     C  565   0.817   9.037   0.639  0.9918  0.2053 -0.5565
    5MOL0     C  566   0.950   9.078   0.668 -0.9856  0.7154  0.0061
    5MOL0     C  567   0.985   9.131   0.795  0.2339  0.3189 -0.6041
    5MOL0     C  568   1.130   9.169   0.813 -0.0975 -0.0936 -0.7015
    5MOL0     C  569   0.889   9.161   0.891  0.1092 -0.2822 -0.5809
    5MOL0     C  570   0.918   9.208   1.035  0.6559  0.6567 -0.7631
    5MOL0     O  571   0.807   9.258   1.098  0.1209  0.0776  0.1987
    5MOL0     C  572   0.827   9.302   1.235 -0.0306 -0.3957  0.2461
    5MOL0     C  573   0.728   9.256   1.314 -0.0348  0.2204 -0.1927
    5MOL0     C  574   0.712   9.290   1.451 -0.7412 -0.5148  0.0288
    5MOL0     C  575   0.814   9.370   1.503 -0.1258 -0.3769 -1.0394
    5MOL0     O  576   0.824   9.414   1.641 -0.7408 -0.6347  0.3569
    5MOL0     C  577   0.770   9.320   1.738  0.3917  0.5139  0.0537
    5MOL0     C  578   0.800   9.369   1.882  0.6003  0.2031 -0.5684
    5MOL0     C  579   0.752   9.509   1.919 -0.6443  0.3332  0.9029
    5MOL0     C  580   0.792   9.562   2.060 -0.9173  0.0814  0.6114
    5MOL0     C  581   0.696   9.669   2.103 -0.7802  0.3025  0.3332
    5MOL0     C  582   0.739   9.725   2.246  0.3564 -0.0384  0.3144
    5MOL0     C  583   0.654   9.858   2.263  1.1270 -0.0076  0.4715
    5MOL0     C  584   0.685   9.938   2.398  1.1287 -0.2413  0.1286
    5MOL0    Cl  585   0.599  10.094   2.392  0.3538 -0.0142 -0.5802
    5MOL0     C  586   0.920   9.417   1.419  0.7560 -0.2102 -0.0521
    5MOL0     C  587   0.922   9.383   1.282 -0.2824  0.2993 -0.7231
    5MOL0     O  588   1.034   9.203   1.081  0.4550 -0.1668  0.6993
    5MOL0     C  589   0.751   9.125   0.861  0.5167 -0.1144 -0.3854
    5MOL0     C  590   0.719   9.058   0.736  0.0781  0.1902 -0.3176
    5MOL0     N  591   0.914   8.611   0.905  0.0482 -0.3002  0.6170
    5MOL0     N  592   0.941   8.504   0.973  0.5445 -0.0798 -0.3392
    5MOL0     C  593   0.967   7.562   1.349  1.1662 -0.7765 -0.0969
    5MOL0     C  594   0.872   7.467   1.382  0.1062  0.5237  0.4316
    5MOL0     C  595   0.659   7.072   1.400 -0.1412  0.3256 -1.3382
    5MOL0     C  596   0.636   7.060   1.542  0.2428 -0.3843  0.8700
    5MOL0     C  597   0.532   6.975   1.587 -0.5173 -1.2137  0.1823
    5MOL0     C  598   0.468   6.887   1.493  0.7895  0.0254  0.7032
    5MOL0     O  599   0.375   6.793   1.533 -0.4954 -0.1646  0.3546
    5MOL0     C  600   0.332   6.784   1.669 -0.1296 -0.1131 -0.0972
    5MOL0     C  601   0.250   6.662   1.705  0.2738 -1.1824  1.1550
    5MOL0     C  602   0.198   6.665   1.857 -0.7376 -0.1745 -0.1565
    5MOL0     C  603   0.076   6.571   1.882  0.5275 -0.4986  0.5851
    5MOL0     C  604   0.047   6.553   2.026  1.1308 -0.4781 -0.8400
    5MOL0     C  605  -0.001   6.542   2.133 -1.1300  0.2945  0.1978
    5MOL0     C  606   0.511   6.880   1.360 -0.0272  0.1779 -0.0370
    5MOL0     C  607   0.593   6.980   1.309 -0.2188  0.9793  0.0811
    5MOL0     H  608   1.084   7.244   1.530 -1.8090  0.9783  2.1594
    5MOL0     H  609   1.253   7.427   1.465 -0.0846  2.9636 -0.3244
    5MOL0     H  610   1.361   7.560   1.343  2.1313  0.4213 -1.4560
    5MOL0     H  611   1.262   7.601   1.192  0.6170  1.0605 -0.0624
    5MOL0     H  612   1.400   7.804   1.381  1.3502  1.4080 -0.0531
    5MOL0     H  613   1.445   7.744   1.218 -0.5938 -2.0743  1.3599
    5MOL0     H  614   1.178   7.848   1.196  0.6914  0.3734  0.4756
    5MOL0     H  615   1.274   7.975   1.260  3.2015  1.3417 -0.0966
    5MOL0     H  616   1.444   7.943   1.082  0.3561  0.3557 -2.7186
    5MOL0     H  617   1.340   7.832   1.006  0.3848  0.2584  0.2894
    5MOL0     H  618   1.309   8.140   1.059 -0.1095  1.2426  0.3365
    5MOL0     H  619   1.304   8.053   0.903 -1.4831  0.2751  0.6728
    5MOL0     H  620   1.087   7.961   1.001 -0.7528 -1.3557  3.4218
    5MOL0     H  621   1.107   8.099   1.119 -0.2091 -0.3957  0.1694
    5MOL0     H  622   1.125   8.144   0.814  2.0110  1.8317  0.3278
    5MOL0     H  623   0.962   8.141   0.894 -0.3415  1.0568 -0.1182
    5MOL0     H  624   1.205   8.339   0.951  0.9535 -0.1046 -0.9657
    5MOL0     H  625   1.076   8.307   1.059 -1.1294 -0.0541 -1.2108
    5MOL0     H  626   1.099   8.459   0.685 -0.7965  0.7797  0.7002
    5MOL0     H  627   0.972   8.798   0.698  2.5238 -0.1207 -1.5900
    5MOL0     H  628   1.038   8.674   0.581  0.0723 -1.8784  0.9674
    5MOL0     H  629   0.763   8.730   0.673 -0.4020 -1.5151  1.4464
    5MOL0     H  630   0.796   8.570   0.607  0.5597  0.1923  0.0984
    5MOL0     H  631   0.700   8.744   0.440  0.7778 -3.2756 -2.7169
    5MOL0     H  632   0.844   8.677   0.383 -1.2375 -3.2138  1.2146
    5MOL0     H  633   0.851   8.917   0.361  0.5093  0.6890  0.7949
    5MOL0     H  634   0.957   8.887   0.498  0.2751  0.5496  0.9390
    5MOL0     H  635   1.021   9.067   0.586 -1.3677 -0.0092 -0.2396
    5MOL0     H  636   1.178   9.164   0.715 -0.7420 -3.0934 -0.9489
    5MOL0     H  637   1.133   9.266   0.864 -2.6279 -0.5431  0.4463
    5MOL0     H  638   1.176   9.092   0.876  0.0002 -1.2466 -2.1311
    5MOL0     H  639   0.660   9.181   1.277  0.4614 -0.0986 -0.4673
    5MOL0     H  640   0.632   9.263   1.518 -2.2497  2.9097 -0.1672
    5MOL0     H  641   0.661   9.317   1.725  0.5879  1.1182 -2.0652
    5MOL0     H  642   0.797   9.217   1.712  1.0126  1.1139 -1.8317
    5MOL0     H  643   0.738   9.307   1.947 -1.8155  0.3251 -2.6244
    5MOL0     H  644   0.902   9.340   1.910 -0.6800 -3.6512  0.7374
    5MOL0     H  645   0.644   9.517   1.908 -0.3248  2.0530 -4.7050
    5MOL0     H  646   0.790   9.577   1.841  0.6339 -0.7981  0.4887
    5MOL0     H  647   0.787   9.479   2.132 -0.4735 -0.8426 -0.4006
    5MOL0     H  648   0.897   9.592   2.062 -0.2887 -1.9488  0.5515
    5MOL0     H  649   0.594   9.629   2.113  0.1574 -1.8585  1.9942
    5MOL0     H  650   0.705   9.739   2.019  1.5157  0.2811  0.5225
    5MOL0     H  651   0.721   9.654   2.327  0.0442 -0.5842 -0.2305
    5MOL0     H  652   0.847   9.741   2.246  0.2954  0.7674 -1.7861
    5MOL0     H  653   0.547   9.836   2.255  0.8435  1.8336 -1.6791
    5MOL0     H  654   0.667   9.919   2.173  3.6169 -1.3593 -0.1822
    5MOL0     H  655   0.794   9.948   2.402  1.1607 -0.8448  3.2908
    5MOL0     H  656   0.642   9.889   2.486  1.2983 -0.1037  0.2889
    5MOL0     H  657   1.010   9.462   1.460  1.6258 -0.8450 -1.2249
    5MOL0     H  658   1.002   9.422   1.220  1.3345  1.3546  1.8712
    5MOL0     H  659   0.665   9.144   0.924  0.4952 -0.2731 -0.3691
    5MOL0     H  660   0.619   9.020   0.716  0.3873 -0.1876 -1.2339
    5MOL0     H  661   0.935   7.652   1.298 -0.2741 -2.9203 -3.2498
    5MOL0     H  662   0.766   7.483   1.366 -0.3130 -0.7528  1.6524
    5MOL0     H  663   0.686   7.127   1.611  1.1871  0.8061 -0.9074
    5MOL0     H  664   0.508   6.968   1.693  0.2074 -2.2621  0.2903
    5MOL0     H  665   0.425   6.777   1.726  0.6621  1.1552 -1.1670
    5MOL0     H  666   0.260   6.859   1.702 -0.6484 -0.6005 -0.1088
    5MOL0     H  667   0.299   6.568   1.679  0.0589 -0.5599 -1.8174
    5MOL0     H  668   0.162   6.660   1.640 -0.3139  2.3319  1.6005
    5MOL0     H  669   0.162   6.765   1.883 -2.1402 -0.0570 -2.3327
    5MOL0     H  670   0.277   6.629   1.923  0.3557  2.3681  0.0160
    5MOL0     H  671   0.099   6.465   1.873  1.3009 -0.2627 -0.3625
    5MOL0     H  672  -0.018   6.597   1.832 -0.5733  1.0587  3.2718
    5MOL0     H  673  -0.044   6.525   2.230 -0.8118  0.3375  0.3446
    5MOL0     H  674   0.488   6.788   1.309  1.0879 -0.2162  0.1265
    5MOL0     H  675   0.626   6.974   1.206  0.5808 -2.2991  0.4029
    6MOL0     O  676   3.502   6.837  10.152 -0.6352  0.2169  0.6502
    6MOL0     C  677   3.584   6.925  10.162  0.5132  0.0665  0.1938
    6MOL0     O  678   3.648   6.961  10.276 -0.9674 -0.1589  0.8624
    6MOL0     C  679   3.660   6.892  10.391  0.3102  0.1290 -0.1255
    6MOL0     C  680   3.587   6.776  10.427  0.4329 -0.1546 -0.5039
    6MOL0     C  681   3.626   6.707  10.540 -0.6288  0.5792  1.3353
    6MOL0     C  682   3.712   6.769  10.636  0.7019 -0.2331 -0.1489
    6MOL0     O  683   3.714   6.706  10.763  0.0921  0.6751  1.0480
    6MOL0     C  684   3.828   6.730  10.843 -0.2063  0.1241 -0.3784
    6MOL0     C  685   3.946   6.652  10.783 -0.1499 -0.4668 -0.1448
    6MOL0     C  686   4.071   6.688  10.857  0.8715  0.7565 -0.8556
    6MOL0     C  687   4.185   6.712  10.753 -0.7292 -0.8176  0.3706
    6MOL0     C  688   4.238   6.584  10.687  0.6406  0.1396  0.0947
    6MOL0     C  689   4.320   6.505  10.788 -0.0226 -0.0158  0.5519
    6MOL0     C  690   4.353   6.361  10.738  0.2145 -0.8435  0.2504
    6MOL0     C  691   4.233   6.262  10.728 -0.2682 -0.6990 -0.2763
    6MOL0     N  692   4.261   6.148  10.643  0.6838  0.1098  0.9520
    6MOL0     C  693   4.173   6.099  10.547  0.5301  0.1492  0.6208
    6MOL0     C  694   4.222   5.977  10.511 -0.0493  0.2320 -0.6847
    6MOL0     C  695   4.160   5.866  10.433 -0.5949 -0.3604  0.3014
    6MOL0     C  696   4.246   5.807  10.318 -0.2368 -0.5933 -1.7710
    6MOL0     C  697   4.154   5.785  10.194 -0.5718 -0.5715 -0.2451
    6MOL0     C  698   4.254   5.753  10.078 -0.8519 -0.2569 -0.0200
    6MOL0     O  699   4.251   5.873   9.992 -0.1494  0.2366 -0.2281
    6MOL0     C  700   4.163   5.879   9.894  0.2902 -0.2651  0.5690
    6MOL0     C  701   4.171   5.988   9.812 -0.3450  0.3218 -0.3397
    6MOL0     C  702   4.083   6.012   9.695  0.5447  0.3366 -1.0866
    6MOL0     C  703   4.098   6.140   9.624 -0.3014 -0.6188  0.1569
    6MOL0     C  704   3.995   5.918   9.662  0.0896  0.8063  0.2004
    6MOL0     C  705   3.922   5.922   9.530  0.2212  0.0756 -0.5203
    6MOL0     O  706   3.967   6.005   9.427 -0.4181 -0.1287  0.2243
    6MOL0     C  707   3.895   6.022   9.317 -0.5428 -0.5156 -1.0076
    6MOL0     C  708   3.758   6.027   9.320 -0.0141 -0.5723 -0.1362
    6MOL0     C  709   3.688   6.063   9.201  0.5475 -0.0831  0.5065
    6MOL0     C  710   3.756   6.091   9.081  0.1085 -0.5710  0.8194
    6MOL0     O  711   3.690   6.136   8.968  0.5410 -0.1016  0.5008
    6MOL0     C  712   3.554   6.184   8.993 -0.6252  0.6012  0.2596
    6MOL0     C  713   3.507   6.294   8.889 -0.9189 -0.7033 -0.4409
    6MOL0     C  714   3.574   6.276   8.750  0.2867  0.3317 -0.6773
    6MOL0     C  715   3.666   6.386   8.705  0.5723  0.5290 -0.0714
    6MOL0     C  716   3.713   6.387   8.556  0.1788  0.0272  0.3311
    6MOL0     C  717   3.817   6.282   8.526 -0.9463  0.3198  0.4199
    6MOL0     C  718   3.752   6.137   8.498 -0.3337 -0.2929  0.7331
    6MOL0     C  719   3.817   6.061   8.380 -0.6640 -0.1624  0.6097
    6MOL0    Cl  720   3.805   6.167   8.225 -0.5512 -0.0666  0.3764
    6MOL0     C  721   3.890   6.093   9.083 -0.4697  0.1660 -0.2532
    6MOL0     C  722   3.959   6.064   9.206  0.2378  0.8470  1.4525
    6MOL0     O  723   3.826   5.848   9.525  0.6699 -0.1232 -0.1474
    6MOL0     C  724   3.980   5.804   9.752 -0.5533  0.4498 -0.2495
    6MOL0     C  725   4.057   5.787   9.869 -0.1109  0.0661  0.4803
    6MOL0     N  726   4.333   5.954  10.587  0.3266  0.5496 -0.1549
    6MOL0     N  727   4.352   6.055  10.666 -0.7797 -0.1822  0.0559
    6MOL0     C  728   3.764   6.891  10.608  0.1315  0.4235 -0.5652
    6MOL0     C  729   3.742   6.951  10.483  0.0042 -0.4725  0.4706
    6MOL0     C  730   3.582   7.016  10.048 -0.2700  0.3026 -1.1241
    6MOL0     C  731   3.641   7.142  10.057  0.3537 -0.0982 -0.6296
    6MOL0     C  732   3.638   7.225   9.944 -0.9770  0.7912 -0.0075
    6MOL0     C  733   3.571   7.189   9.822  0.3389  0.6315  0.3087
    6MOL0     O  734   3.569   7.245   9.699 -0.3849  0.3076  0.0395
    6MOL0     C  735   3.666   7.353   9.666 -0.2465  1.3348 -0.5361
    6MOL0     C  736   3.812   7.298   9.670  0.3439  0.6441  0.6417
    6MOL0     C  737   3.893   7.418   9.622 -0.4879  0.2728  0.2797
    6MOL0     C  738   4.046   7.419   9.654  0.0503 -0.1543 -0.0875
    6MOL0     C  739   4.116   7.336   9.556 -0.5450 -0.9656 -0.7645
    6MOL0     C  740   4.176   7.268   9.476 -0.3802 -0.7206  0.5791
    6MOL0     C  741   3.512   7.065   9.820  0.5924  0.7270  0.2536
    6MOL0     C  742   3.507   6.980   9.929  0.3098 -0.3607  1.0686
    6MOL0     H  743   3.513   6.726  10.366  0.6838  0.6094 -1.4597
    6MOL0     H  744   3.588   6.609  10.566 -1.1846  0.6118  0.6456
    6MOL0     H  745   3.836   6.838  10.859 -2.3530  0.6664 -2.4684
    6MOL0     H  746   3.819   6.682  10.941 -0.5842 -0.4032 -0.6653
    6MOL0     H  747   3.943   6.543  10.786  0.0228 -0.5557 -1.9428
    6MOL0     H  748   3.959   6.694  10.683  3.0223 -2.8696 -0.9275
    6MOL0     H  749   4.059   6.774  10.924 -0.7783  1.5968 -2.1606
    6MOL0     H  750   4.078   6.605  10.929 -1.0458  0.2436 -1.2151
    6MOL0     H  751   4.145   6.787  10.683  0.3174  1.4052  2.0157
    6MOL0     H  752   4.263   6.770  10.804 -0.2402 -1.3770  0.2697
    6MOL0     H  753   4.155   6.525  10.647 -3.1286  4.7455  0.1781
    6MOL0     H  754   4.306   6.610  10.605  2.7606  0.9587  1.9838
    6MOL0     H  755   4.416   6.552  10.809  1.2676 -1.8594 -0.9040
    6MOL0     H  756   4.268   6.486  10.882  0.7507  0.4851  1.0937
    6MOL0     H  757   4.397   6.362  10.638 -0.2465 -0.5003  0.0475
    6MOL0     H  758   4.427   6.319  10.806  2.6857  0.1027 -1.6848
    6MOL0     H  759   4.143   6.305  10.682  1.4926 -0.6089 -3.9785
    6MOL0     H  760   4.209   6.249  10.834  0.5065 -0.0791 -0.0183
    6MOL0     H  761   4.078   6.141  10.516 -0.3644 -0.9746  1.7530
    6MOL0     H  762   4.110   5.792  10.496 -1.1641  1.6086  2.3130
    6MOL0     H  763   4.075   5.923  10.395  0.0084 -0.7636 -1.7676
    6MOL0     H  764   4.276   5.704  10.339 -0.7960 -0.2933  0.8265
    6MOL0     H  765   4.332   5.874  10.309  0.5186 -1.3912 -0.7316
    6MOL0     H  766   4.084   5.862  10.162 -0.0656 -0.0801 -0.1900
    6MOL0     H  767   4.085   5.701  10.210 -0.0523 -0.6544  1.9146
    6MOL0     H  768   4.220   5.670  10.015  1.3740 -1.3997  0.1862
    6MOL0     H  769   4.351   5.723  10.119 -1.1518  0.2033  1.0472
    6MOL0     H  770   4.258   6.053   9.816 -0.3929  0.3189  1.9937
    6MOL0     H  771   4.159   6.121   9.536  2.3143 -3.4775  2.3651
    6MOL0     H  772   3.997   6.167   9.591 -0.9966 -1.7270  1.2813
    6MOL0     H  773   4.140   6.228   9.674  1.4688 -1.0664 -0.4605
    6MOL0     H  774   3.710   6.016   9.417  1.6765 -0.6590  0.7361
    6MOL0     H  775   3.581   6.066   9.218  0.6339 -1.1916  1.4776
    6MOL0     H  776   3.489   6.096   8.995  0.5904 -0.3465 -0.1675
    6MOL0     H  777   3.551   6.231   9.092 -0.5498  0.7526  0.1894
    6MOL0     H  778   3.397   6.293   8.894 -0.9021  0.4982  1.0781
    6MOL0     H  779   3.532   6.392   8.931 -1.5098 -0.7459  0.0206
    6MOL0     H  780   3.483   6.267   8.690 -0.0989  1.1921 -0.2404
    6MOL0     H  781   3.622   6.178   8.740 -1.5481 -0.6315 -0.4785
    6MOL0     H  782   3.621   6.484   8.722 -2.3293 -0.8525  0.9483
    6MOL0     H  783   3.748   6.385   8.777 -0.3795 -0.8388  1.0528
    6MOL0     H  784   3.773   6.478   8.548 -0.7374  0.8184  1.9368
    6MOL0     H  785   3.623   6.377   8.494  0.1993  0.1481  0.2836
    6MOL0     H  786   3.892   6.297   8.447 -0.2435  0.1851  1.0478
    6MOL0     H  787   3.881   6.264   8.613 -1.5975 -2.4173  0.4437
    6MOL0     H  788   3.648   6.151   8.468  0.3408  1.8292 -0.8337
    6MOL0     H  789   3.764   6.077   8.589  1.3952  0.1248  0.8189
    6MOL0     H  790   3.757   5.971   8.364 -3.4248  2.0108 -2.6328
    6MOL0     H  791   3.925   6.042   8.382 -0.5451 -0.0667 -2.0011
    6MOL0     H  792   3.941   6.115   8.989 -1.4618  3.0233 -0.2008
    6MOL0     H  793   4.067   6.062   9.200  0.1862 -0.3641 -2.9022
    6MOL0     H  794   3.908   5.730   9.720  0.8004 -0.4866 -1.2311
    6MOL0     H  795   4.035   5.702   9.933  0.1697 -1.2660 -1.1286
    6MOL0     H  796   3.828   6.942  10.679  0.0037 -1.1989  0.7499
    6MOL0     H  797   3.788   7.044  10.451 -3.3039  1.6645  1.2963
    6MOL0     H  798   3.708   7.177  10.135  0.7609 -1.9266 -0.1275
    6MOL0     H  799   3.688   7.321   9.948  1.0495 -0.1235 -1.3811
    6MOL0     H  800   3.642   7.403   9.572 -0.9746  0.8168 -0.6327
    6MOL0     H  801   3.657   7.433   9.740  1.8356  2.1078 -1.0503
    6MOL0     H  802   3.819   7.206   9.610 -0.4751  0.1466  1.2882
    6MOL0     H  803   3.839   7.273   9.773 -1.0085  1.9438  1.3480
    6MOL0     H  804   3.859   7.509   9.671 -2.6050  1.9134 -3.7917
    6MOL0     H  805   3.867   7.434   9.517  0.6826  3.0567  0.3286
    6MOL0     H  806   4.058   7.373   9.753 -2.1078 -0.8724 -0.1128
    6MOL0     H  807   4.083   7.522   9.651 -2.3253  0.8305  1.3909
    6MOL0     H  808   4.226   7.224   9.392  1.2866  1.5677  0.2663
    6MOL0     H  809   3.456   7.029   9.734 -0.1013 -4.6867  2.5679
    6MOL0     H  810   3.462   6.883   9.909  1.0055 -0.3196 -0.9463
    7MOL0     O  811   7.915   5.070   5.239 -0.2034 -0.6352 -0.0465
    7MOL0     C  812   7.836   4.978   5.237  0.0664 -1.1302 -0.6574
    7MOL0     O  813   7.795   4.910   5.351 -0.2539 -0.6789 -0.0978
    7MOL0     C  814   7.858   4.927   5.470 -0.2710 -0.1490 -0.2632
    7MOL0     C  815   7.893   5.051   5.534 -0.5801  1.0740  0.5154
    7MOL0     C  816   7.975   5.046   5.646 -0.1551 -0.1396 -0.4824
    7MOL0     C  817   8.026   4.929   5.701  0.5670 -0.3661 -0.2936
    7MOL0     O  818   8.103   4.935   5.819 -0.4011  0.3194 -0.1183
    7MOL0     C  819   8.237   4.987   5.816 -0.8443  0.7653  0.4990
    7MOL0     C  820   8.326   4.865   5.822  0.3398  0.4921 -0.0544
    7MOL0     C  821   8.305   4.779   5.951  0.5950 -0.7737 -0.0786
    7MOL0     C  822   8.392   4.654   5.958  0.1023  0.1659 -1.0717
    7MOL0     C  823   8.421   4.602   6.098  0.2087 -0.1044 -0.1236
    7MOL0     C  824   8.281   4.575   6.165 -0.0582 -0.4590 -1.3341
    7MOL0     C  825   8.286   4.522   6.310  0.2592  0.0176 -0.3780
    7MOL0     C  826   8.152   4.524   6.387 -1.4097  0.6786  0.7092
    7MOL0     N  827   8.046   4.486   6.296 -0.1367  0.1658 -0.6935
    7MOL0     C  828   7.981   4.577   6.218 -0.1325  0.1659  0.0949
    7MOL0     C  829   7.916   4.500   6.127  0.2023 -0.3810 -0.4925
    7MOL0     C  830   7.830   4.547   6.023  0.5889  0.7793 -1.1157
    7MOL0     C  831   7.800   4.457   5.901  0.2867 -0.4507  0.1703
    7MOL0     C  832   7.915   4.459   5.800  0.1270  0.0818 -0.1544
    7MOL0     C  833   7.861   4.400   5.670 -1.1572 -0.5237  0.1237
    7MOL0     O  834   7.775   4.495   5.595 -0.8796  0.7427 -0.0907
    7MOL0     C  835   7.774   4.476   5.459 -0.8696 -0.6433 -0.2033
    7MOL0     C  836   7.650   4.465   5.406 -1.3662 -0.6360  0.4324
    7MOL0     C  837   7.635   4.453   5.268  0.3976  0.6145 -0.2433
    7MOL0     C  838   7.487   4.445   5.232  0.1025 -0.0321  0.9095
    7MOL0     C  839   7.750   4.442   5.187  0.0060 -0.0618 -0.9159
    7MOL0     C  840   7.752   4.435   5.038 -1.3173 -0.0645  0.1254
    7MOL0     O  841   7.869   4.420   4.980  0.0861  0.2604 -0.0840
    7MOL0     C  842   7.875   4.373   4.848 -0.8423 -0.3073  0.2655
    7MOL0     C  843   7.968   4.416   4.750  0.1715  0.2488  0.1122
    7MOL0     C  844   7.968   4.355   4.622 -0.1056  0.9001 -0.4326
    7MOL0     C  845   7.876   4.250   4.583 -0.4961 -0.2621  0.4702
    7MOL0     O  846   7.868   4.217   4.450  0.2089  0.2334  1.1547
    7MOL0     C  847   7.744   4.227   4.368  0.0612  0.2688  0.1056
    7MOL0     C  848   7.779   4.203   4.219 -0.6333  0.1459  0.0793
    7MOL0     C  849   7.860   4.309   4.143 -0.0701 -0.2593  0.6855
    7MOL0     C  850   7.807   4.455   4.132  0.4047 -0.4715  1.0931
    7MOL0     C  851   7.865   4.531   4.016 -0.4691  0.9525  0.5234
    7MOL0     C  852   7.787   4.657   4.014 -0.2362  0.0991  0.6588
    7MOL0     C  853   7.830   4.730   3.881  0.6008  0.1584  0.5333
    7MOL0     C  854   7.742   4.706   3.758 -0.1654 -0.4968 -0.0548
    7MOL0    Cl  855   7.742   4.531   3.695  0.0104 -0.5592  0.6812
    7MOL0     C  856   7.791   4.205   4.679  0.2542  0.5993  0.0164
    7MOL0     C  857   7.793   4.268   4.813  0.6036  0.6886  1.3460
    7MOL0     O  858   7.648   4.452   4.976 -0.3613 -0.2862 -0.3339
    7MOL0     C  859   7.877   4.451   5.250 -0.3275 -0.6943  0.7959
    7MOL0     C  860   7.889   4.468   5.378 -0.2527 -0.6453 -0.5933
    7MOL0     N  861   7.952   4.364   6.133 -0.0300 -0.2117 -0.5932
    7MOL0     N  862   8.012   4.361   6.245 -0.4608  0.6649  0.0003
    7MOL0     C  863   7.984   4.813   5.646  0.2994 -0.1911 -0.2134
    7MOL0     C  864   7.902   4.813   5.534 -0.4460  0.0651 -0.5072
    7MOL0     C  865   7.757   4.946   5.105 -0.6546 -0.5168  0.0084
    7MOL0     C  866   7.664   4.844   5.093 -0.5901 -0.1893 -0.3717
    7MOL0     C  867   7.626   4.799   4.968  0.3808 -0.9492 -0.0827
    7MOL0     C  868   7.662   4.866   4.848 -0.2053 -0.1171 -1.0585
    7MOL0     O  869   7.621   4.824   4.727 -0.3371  0.2820 -0.1520
    7MOL0     C  870   7.671   4.692   4.692  0.5423 -0.3482 -0.8296
    7MOL0     C  871   7.675   4.679   4.541 -0.3083  0.2079  0.1205
    7MOL0     C  872   7.767   4.781   4.473 -0.2625 -0.0878  0.4516
    7MOL0     C  873   7.713   4.923   4.463  0.5572  0.3766 -0.5556
    7MOL0     C  874   7.666   4.952   4.323 -0.6004  0.2683  0.0511
    7MOL0     C  875   7.626   4.964   4.206  0.0952 -0.1043 -0.5013
    7MOL0     C  876   7.725   4.990   4.862  0.1031  0.2825 -0.3291
    7MOL0     C  877   7.780   5.026   4.986 -0.4568  0.3391  1.3471
    7MOL0     H  878   7.863   5.140   5.481  1.8812  1.5272 -0.2614
    7MOL0     H  879   7.992   5.142   5.693 -2.9651 -0.5566  1.6141
    7MOL0     H  880   8.244   5.048   5.726  0.1220 -0.6861 -0.4616
    7MOL0     H  881   8.255   5.051   5.903 -0.3146 -2.6868  3.1813
    7MOL0     H  882   8.312   4.807   5.731  1.0793  1.5398 -0.8633
    7MOL0     H  883   8.430   4.898   5.829  0.9172 -1.3327  0.3842
    7MOL0     H  884   8.326   4.833   6.044 -1.2914 -1.4862  0.8187
    7MOL0     H  885   8.205   4.734   5.947  1.2041 -2.1186 -1.1501
    7MOL0     H  886   8.344   4.574   5.903 -1.9994  0.0670  0.7444
    7MOL0     H  887   8.488   4.682   5.913 -0.6000  3.3025 -0.8407
    7MOL0     H  888   8.491   4.519   6.110  0.1157 -0.0518  0.8821
    7MOL0     H  889   8.464   4.673   6.169 -0.1680 -0.3510  0.3555
    7MOL0     H  890   8.233   4.674   6.168 -0.4529 -0.5721 -2.9770
    7MOL0     H  891   8.221   4.511   6.100 -1.1881  2.0638 -2.9207
    7MOL0     H  892   8.340   4.427   6.297 -0.0893 -0.6961  2.7201
    7MOL0     H  893   8.352   4.586   6.368 -0.6330 -0.2895  1.0124
    7MOL0     H  894   8.121   4.624   6.415 -0.8856  0.8046  0.8556
    7MOL0     H  895   8.171   4.467   6.478  1.6747 -1.6206 -1.1538
    7MOL0     H  896   7.990   4.684   6.235 -0.1570  0.0411  0.9396
    7MOL0     H  897   7.729   4.546   6.066  0.7069 -2.7224 -0.6718
    7MOL0     H  898   7.854   4.650   5.995 -0.7172  1.5605  0.5071
    7MOL0     H  899   7.708   4.493   5.853  1.2372  0.5543 -0.9522
    7MOL0     H  900   7.779   4.352   5.920  2.0213 -0.7611  0.5113
    7MOL0     H  901   7.996   4.397   5.840  0.5376  2.9012  4.0120
    7MOL0     H  902   7.960   4.558   5.794 -0.2743  0.2303 -0.8185
    7MOL0     H  903   7.819   4.299   5.682 -0.4525 -0.7532  0.7141
    7MOL0     H  904   7.942   4.395   5.597 -1.5913  1.1464 -0.5220
    7MOL0     H  905   7.555   4.457   5.459 -0.5522  2.1637  2.5227
    7MOL0     H  906   7.463   4.340   5.249  1.4002 -1.2746 -3.6248
    7MOL0     H  907   7.429   4.516   5.292 -1.3284  0.1975 -0.6512
    7MOL0     H  908   7.468   4.466   5.126  0.0863  1.6670  1.2117
    7MOL0     H  909   8.034   4.502   4.763  0.2559  0.5677 -2.0632
    7MOL0     H  910   8.038   4.403   4.554  2.3949 -0.1595  1.2795
    7MOL0     H  911   7.689   4.139   4.403 -0.6732  0.2491 -1.0515
    7MOL0     H  912   7.692   4.322   4.382 -2.0768 -0.1277 -3.7620
    7MOL0     H  913   7.834   4.108   4.212  1.3645  0.9334  3.0505
    7MOL0     H  914   7.685   4.191   4.163 -1.8285  3.6839  1.0690
    7MOL0     H  915   7.872   4.268   4.042  3.2780  1.6838  0.1231
    7MOL0     H  916   7.959   4.309   4.190  1.7000  1.0538 -2.7396
    7MOL0     H  917   7.699   4.454   4.112  0.6238  0.7018 -0.2537
    7MOL0     H  918   7.813   4.516   4.223  3.6509  1.8332 -0.4702
    7MOL0     H  919   7.858   4.470   3.926 -2.9282  0.6308  0.8560
    7MOL0     H  920   7.974   4.545   4.022 -0.2055 -0.1957 -0.9128
    7MOL0     H  921   7.678   4.644   4.010 -0.1330 -0.6317 -0.4218
    7MOL0     H  922   7.814   4.720   4.099 -0.2155  1.9124 -0.6425
    7MOL0     H  923   7.936   4.714   3.859  0.0686  1.1304 -3.6249
    7MOL0     H  924   7.831   4.838   3.903  0.4237  0.4790 -0.9508
    7MOL0     H  925   7.785   4.763   3.676  0.6065 -0.4126  0.3912
    7MOL0     H  926   7.644   4.745   3.788  1.8046  2.6712  3.1285
    7MOL0     H  927   7.711   4.137   4.650  0.5119  2.0175 -5.0050
    7MOL0     H  928   7.717   4.233   4.883 -1.5575  2.2419 -0.1352
    7MOL0     H  929   7.974   4.455   5.200  1.4069 -2.0845  3.7796
    7MOL0     H  930   7.983   4.488   5.428  0.1494 -2.1013 -0.7121
    7MOL0     H  931   8.026   4.724   5.692  0.6018 -0.2708 -0.6355
    7MOL0     H  932   7.877   4.713   5.499 -1.5237 -0.4853  1.6708
    7MOL0     H  933   7.637   4.802   5.190 -0.8441  2.1512  0.6494
    7MOL0     H  934   7.564   4.709   4.962 -2.5540  0.6095  3.2490
    7MOL0     H  935   7.769   4.678   4.738  1.3108  1.2570 -1.8783
    7MOL0     H  936   7.610   4.608   4.727 -0.5897  1.2165  1.1606
    7MOL0     H  937   7.577   4.692   4.493 -0.5598 -0.4105  0.4457
    7MOL0     H  938   7.707   4.576   4.523 -1.2258 -0.2374  0.9450
    7MOL0     H  939   7.769   4.748   4.368 -2.3387  3.2263 -0.7843
    7MOL0     H  940   7.867   4.769   4.515  0.4424  1.0944 -0.8139
    7MOL0     H  941   7.784   5.000   4.495  1.8892 -1.2948  0.6776
    7MOL0     H  942   7.618   4.939   4.514 -0.2949 -0.3581 -1.8392
    7MOL0     H  943   7.593   4.974   4.104 -0.9399 -2.3316 -0.4355
    7MOL0     H  944   7.739   5.049   4.772 -2.0711 -1.5672 -2.0214
    7MOL0     H  945   7.851   5.108   4.984 -1.2688  1.1434  2.8129
    8MOL0     O  946   6.614   8.509  11.122 -0.8393  0.1240 -0.1422
    8MOL0     C  947   6.553   8.594  11.074 -0.0953 -0.1600  0.2266
    8MOL0     O  948   6.429   8.652  11.121  0.6475  0.1974 -0.8052
    8MOL0     C  949   6.360   8.613  11.233 -0.3439 -0.2177 -0.2214
    8MOL0     C  950   6.421   8.542  11.348  0.7623 -0.2290  0.0547
    8MOL0     C  951   6.341   8.515  11.462 -0.4365  0.0164  0.3350
    8MOL0     C  952   6.199   8.541  11.463  0.6141 -0.6037 -0.1777
    8MOL0     O  953   6.143   8.505  11.575 -0.2933 -0.4328  0.3196
    8MOL0     C  954   6.024   8.422  11.569 -0.0445  0.6385 -0.1764
    8MOL0     C  955   6.057   8.283  11.521 -0.6808  0.1424 -0.5895
    8MOL0     C  956   6.173   8.220  11.610  0.0122 -0.7422 -0.2257
    8MOL0     C  957   6.236   8.109  11.520  0.7524 -0.5904  0.4304
    8MOL0     C  958   6.346   8.019  11.577  0.2978  0.4597  0.0722
    8MOL0     C  959   6.417   7.938  11.468  0.4115 -0.1460  0.3927
    8MOL0     C  960   6.550   7.867  11.516  0.0022 -0.4694 -0.4039
    8MOL0     C  961   6.664   7.953  11.486 -0.3082 -0.4495 -0.3216
    8MOL0     N  962   6.700   7.930  11.347  0.2584  0.1627  0.4318
    8MOL0     C  963   6.767   7.823  11.292 -0.2982 -0.8788 -1.2079
    8MOL0     C  964   6.797   7.867  11.168 -0.1041  0.5121  0.5476
    8MOL0     C  965   6.869   7.791  11.058 -0.8407  0.2749  0.2275
    8MOL0     C  966   6.800   7.662  11.012 -0.8098 -0.5092  1.5342
    8MOL0     C  967   6.670   7.687  10.933 -0.1656 -0.2708 -0.7896
    8MOL0     C  968   6.594   7.555  10.898 -0.4918 -0.2084  0.0563
    8MOL0     O  969   6.457   7.585  10.858  0.4102 -0.0531  0.6469
    8MOL0     C  970   6.352   7.500  10.866 -0.1017 -0.0865  0.1719
    8MOL0     C  971   6.362   7.365  10.914  0.6759 -1.2141  0.2137
    8MOL0     C  972   6.241   7.286  10.939  0.1819  0.2654 -0.3208
    8MOL0     C  973   6.267   7.152  11.002 -0.5459 -0.4188 -1.0688
    8MOL0     C  974   6.116   7.324  10.883 -0.1264 -0.1467  0.1064
    8MOL0     C  975   6.008   7.233  10.875  0.5570 -1.0254 -0.4060
    8MOL0     O  976   5.896   7.297  10.928 -0.5081  0.4631 -0.0400
    8MOL0     C  977   5.774   7.237  10.905  0.6480 -0.0137 -0.1812
    8MOL0     C  978   5.700   7.248  10.787 -0.3930 -0.4395  0.2080
    8MOL0     C  979   5.568   7.201  10.779  0.5720  0.0517  0.7572
    8MOL0     C  980   5.510   7.141  10.887 -0.6040  0.1692 -0.1392
    8MOL0     O  981   5.381   7.090  10.892 -0.5926 -0.5526  0.9268
    8MOL0     C  982   5.349   7.002  10.777  0.8485 -0.0912 -0.2471
    8MOL0     C  983   5.211   6.942  10.796 -0.2830 -0.4811  0.0331
    8MOL0     C  984   5.168   6.853  10.678 -1.1541 -0.1678 -0.4503
    8MOL0     C  985   5.048   6.773  10.730  0.1213  0.1045  0.5293
    8MOL0     C  986   4.972   6.716  10.619  0.4837 -1.1057  0.1122
    8MOL0     C  987   4.866   6.615  10.662  0.7479  0.0733  0.3599
    8MOL0     C  988   4.764   6.585  10.542 -0.7101  0.4911  0.0091
    8MOL0     C  989   4.672   6.472  10.581  0.1274  0.1475 -0.4703
    8MOL0    Cl  990   4.560   6.423  10.453 -0.3721 -0.6810  0.8882
    8MOL0     C  991   5.584   7.120  11.002 -0.1002 -0.2486 -0.4694
    8MOL0     C  992   5.707   7.169  11.012 -0.1256 -0.1841 -0.1934
    8MOL0     O  993   6.014   7.124  10.832 -0.2047  0.1005  0.1413
    8MOL0     C  994   6.113   7.452  10.824  0.1955  0.5797  0.3569
    8MOL0     C  995   6.223   7.537  10.817  0.5435  0.4530 -0.0375
    8MOL0     N  996   6.773   8.000  11.157  0.7910  0.0852 -0.1842
    8MOL0     N  997   6.712   8.040  11.261  0.3744 -0.2189 -0.3331
    8MOL0     C  998   6.149   8.603  11.347  0.3575  0.4927 -0.5014
    8MOL0     C  999   6.222   8.633  11.237 -0.1569  0.6137 -0.3474
    8MOL0     C 1000   6.615   8.664  10.966 -0.4475 -0.1232  1.0935
    8MOL0     C 1001   6.593   8.803  10.953  1.2802  1.1358 -0.0327
    8MOL0     C 1002   6.639   8.874  10.833 -0.4872 -0.3177 -1.0797
    8MOL0     C 1003   6.728   8.806  10.742 -0.3719 -0.6973  0.4401
    8MOL0     O 1004   6.758   8.880  10.631  0.0254  0.0240  0.2439
    8MOL0     C 1005   6.815   8.811  10.523  0.6065 -0.7764 -0.5747
    8MOL0     C 1006   6.814   8.927  10.418 -0.1196  0.1620  0.6579
    8MOL0     C 1007   6.941   9.016  10.428  0.9846 -0.7339  0.2284
    8MOL0     C 1008   6.910   9.158  10.379  0.3631  0.2353  1.3251
    8MOL0     C 1009   6.936   9.192  10.237  0.0559 -0.5491 -0.5995
    8MOL0     C 1010   6.957   9.238  10.131  0.4371 -0.7897 -1.4221
    8MOL0     C 1011   6.757   8.676  10.770  0.5611 -1.3486  0.3377
    8MOL0     C 1012   6.698   8.609  10.876  0.2067 -0.0308 -0.4128
    8MOL0     H 1013   6.519   8.499  11.364 -0.4185 -2.6315  1.3109
    8MOL0     H 1014   6.384   8.458  11.543  1.2943 -0.7246 -1.0414
    8MOL0     H 1015   5.980   8.408  11.668 -2.2687  0.1594 -1.1735
    8MOL0     H 1016   5.947   8.451  11.497 -1.6793  0.4924  1.4512
    8MOL0     H 1017   5.973   8.216  11.541  0.4708 -0.3992  2.9711
    8MOL0     H 1018   6.087   8.280  11.416  2.7138 -2.2084  0.3033
    8MOL0     H 1019   6.259   8.284  11.632 -1.3943  0.8990  0.7051
    8MOL0     H 1020   6.126   8.170  11.695 -3.0480 -0.1309 -1.4202
    8MOL0     H 1021   6.151   8.043  11.500  0.5153 -0.7479  1.8494
    8MOL0     H 1022   6.273   8.160  11.431 -0.7732 -1.9323 -1.0444
    8MOL0     H 1023   6.422   8.090  11.613 -2.7388  4.1228 -0.0801
    8MOL0     H 1024   6.311   7.957  11.660 -0.6050  0.9681  0.0832
    8MOL0     H 1025   6.345   7.858  11.445  0.4782  0.3168 -1.5357
    8MOL0     H 1026   6.422   8.004  11.381 -4.2041  2.7086  1.9209
    8MOL0     H 1027   6.557   7.854  11.624  1.2044 -0.8898 -0.5227
    8MOL0     H 1028   6.566   7.769  11.469  1.4798 -0.9972  1.1228
    8MOL0     H 1029   6.752   7.929  11.546  0.3620 -0.1930 -1.1815
    8MOL0     H 1030   6.633   8.058  11.489 -2.3733 -0.8135 -3.5274
    8MOL0     H 1031   6.805   7.740  11.351 -0.0030  0.4911  0.6151
    8MOL0     H 1032   6.878   7.860  10.974 -3.1756 -0.5599 -0.7941
    8MOL0     H 1033   6.971   7.770  11.090 -0.2477 -0.5533 -2.0435
    8MOL0     H 1034   6.785   7.604  11.103  0.1890 -0.2611  1.8730
    8MOL0     H 1035   6.866   7.599  10.951 -3.5554 -3.1382  1.0412
    8MOL0     H 1036   6.693   7.756  10.851  2.5522 -1.7492 -1.4027
    8MOL0     H 1037   6.602   7.746  10.995  2.5979  1.0471  1.1660
    8MOL0     H 1038   6.580   7.496  10.989 -2.8399  0.3634  0.1278
    8MOL0     H 1039   6.639   7.489  10.823 -0.5314 -0.2227  0.0447
    8MOL0     H 1040   6.463   7.326  10.928  0.0116 -3.0171  0.2614
    8MOL0     H 1041   6.349   7.168  11.073 -0.4415  1.1779 -1.5231
    8MOL0     H 1042   6.183   7.109  11.059  1.0242 -1.9890  0.1856
    8MOL0     H 1043   6.314   7.080  10.935  1.9728 -0.3291  0.4926
    8MOL0     H 1044   5.746   7.306  10.708  0.9962 -1.3602  0.2939
    8MOL0     H 1045   5.523   7.230  10.685  1.3134 -0.5535  0.2042
    8MOL0     H 1046   5.346   7.062  10.686  0.9631 -0.4013 -0.4552
    8MOL0     H 1047   5.431   6.931  10.768  2.1913  1.1059  1.6786
    8MOL0     H 1048   5.219   6.878  10.884 -2.1869 -0.6098  0.1599
    8MOL0     H 1049   5.140   7.021  10.824  2.6128  1.6435  1.9276
    8MOL0     H 1050   5.246   6.782  10.649  0.3969 -0.0740  2.9767
    8MOL0     H 1051   5.144   6.907  10.586 -0.5118 -0.4235 -0.7695
    8MOL0     H 1052   5.088   6.687  10.783 -2.2310 -1.0228  0.6274
    8MOL0     H 1053   4.979   6.834  10.789 -2.3312  0.4788 -2.4816
    8MOL0     H 1054   5.037   6.661  10.550 -3.0428 -2.2617 -2.5967
    8MOL0     H 1055   4.941   6.800  10.555  4.4720  1.2225  0.9245
    8MOL0     H 1056   4.912   6.518  10.683  0.8477 -1.0374 -4.0117
    8MOL0     H 1057   4.805   6.654  10.744 -1.7407 -0.5346 -1.0738
    8MOL0     H 1058   4.814   6.551  10.451  0.0791 -1.4850  1.1087
    8MOL0     H 1059   4.704   6.674  10.521 -1.3341  0.8008  2.7193
    8MOL0     H 1060   4.619   6.504  10.671  0.2624  0.0624 -0.3576
    8MOL0     H 1061   4.726   6.377  10.598 -0.1094  0.1540  0.3950
    8MOL0     H 1062   5.548   7.074  11.094  4.9452  0.9583  2.5291
    8MOL0     H 1063   5.759   7.161  11.106 -3.5310 -2.4791  1.7043
    8MOL0     H 1064   6.025   7.467  10.762  1.6003 -1.9494 -2.5077
    8MOL0     H 1065   6.208   7.637  10.778  0.3192  1.1232  1.6489
    8MOL0     H 1066   6.042   8.624  11.343 -0.7503 -4.2229 -1.1848
    8MOL0     H 1067   6.183   8.675  11.145  3.6380 -1.4260 -3.1529
    8MOL0     H 1068   6.525   8.854  11.021 -0.2018 -0.5138 -0.2035
    8MOL0     H 1069   6.599   8.974  10.821 -1.2496 -0.8881 -4.0248
    8MOL0     H 1070   6.919   8.785  10.547  0.5617  0.4423  1.1216
    8MOL0     H 1071   6.748   8.732  10.488 -1.7286  1.7249 -2.1408
    8MOL0     H 1072   6.718   8.980  10.420  0.7878  1.8862  0.5549
    8MOL0     H 1073   6.825   8.887  10.317 -2.5888  1.2251 -0.0960
    8MOL0     H 1074   7.020   8.968  10.371 -0.0207 -1.7161 -0.3713
    8MOL0     H 1075   6.975   9.021  10.532 -3.1396 -0.8719  1.7815
    8MOL0     H 1076   6.979   9.222  10.435  2.1858  1.4632 -2.0650
    8MOL0     H 1077   6.811   9.192  10.412  0.9919  1.6629  1.8207
    8MOL0     H 1078   6.982   9.272  10.033  1.9754  1.9317 -0.2047
    8MOL0     H 1079   6.812   8.617  10.699 -0.3196  0.7564 -2.2706
    8MOL0     H 1080   6.728   8.507  10.896  1.5335  0.5809  0.9769
    9MOL0     O 1081   0.112   1.355   6.735 -0.5623  0.5870  0.4842
    9MOL0     C 1082   0.050   1.254   6.775  0.3560 -0.1356 -0.4272
    9MOL0     O 1083   0.013   1.226   6.902 -0.4458 -0.5106 -0.5740
    9MOL0     C 1084   0.046   1.311   7.008  0.5203 -0.7386 -0.8302
    9MOL0     C 1085   0.064   1.240   7.128  0.4398 -0.6647  0.2094
    9MOL0     C 1086   0.098   1.323   7.245  0.2454  0.5443  0.1946
    9MOL0     C 1087   0.108   1.459   7.245 -0.9169 -0.5835  0.1801
    9MOL0     O 1088   0.131   1.539   7.363 -0.7140  0.2085 -0.0795
    9MOL0     C 1089   0.236   1.499   7.453 -0.1121  0.5344 -1.3897
    9MOL0     C 1090   0.373   1.536   7.384 -0.7001  0.1531  0.4860
    9MOL0     C 1091   0.387   1.690   7.362  0.0631 -0.3610  0.4280
    9MOL0     C 1092   0.472   1.709   7.232  0.6806  0.0949 -0.1124
    9MOL0     C 1093   0.380   1.704   7.114  0.2116  0.3219  0.7876
    9MOL0     C 1094   0.444   1.713   6.973 -1.2624 -0.0107  0.2752
    9MOL0     C 1095   0.346   1.670   6.862 -0.3180  0.2547  0.0946
    9MOL0     C 1096   0.410   1.689   6.726  0.4157 -0.4346 -0.2471
    9MOL0     N 1097   0.315   1.659   6.621  0.2496 -0.2378  0.5429
    9MOL0     C 1098   0.284   1.544   6.566 -0.1327  1.1166 -0.0411
    9MOL0     C 1099   0.214   1.582   6.461  1.0270  0.5640 -0.5218
    9MOL0     C 1100   0.161   1.497   6.352  0.3044  0.3918 -0.9707
    9MOL0     C 1101   0.218   1.496   6.212  0.8076  0.1564  0.2903
    9MOL0     C 1102   0.135   1.402   6.124 -0.2971 -0.2290 -0.8405
    9MOL0     C 1103   0.185   1.408   5.975  0.1561 -0.5527  0.2773
    9MOL0     O 1104   0.100   1.335   5.886  0.2231  0.0048  0.4094
    9MOL0     C 1105   0.143   1.333   5.757  0.4366 -0.9571  0.0426
    9MOL0     C 1106   0.251   1.406   5.706 -0.2324  1.1056 -0.2151
    9MOL0     C 1107   0.281   1.405   5.568  0.7916  0.9567 -0.2761
    9MOL0     C 1108   0.387   1.492   5.524 -0.5243 -0.3412  0.5427
    9MOL0     C 1109   0.185   1.346   5.477  0.2774  0.6058 -0.7831
    9MOL0     C 1110   0.194   1.341   5.330 -0.3404  0.3291 -0.8336
    9MOL0     O 1111   0.129   1.239   5.268  0.8731 -0.2736 -0.5110
    9MOL0     C 1112   0.117   1.229   5.131 -0.0597  0.9135 -0.1946
    9MOL0     C 1113   0.082   1.340   5.048  0.0665 -0.0178  0.2207
    9MOL0     C 1114   0.071   1.321   4.919  0.4101 -0.3188 -0.1432
    9MOL0     C 1115   0.090   1.201   4.858  0.0088 -0.2364  0.1332
    9MOL0     O 1116   0.082   1.183   4.723 -0.3322 -0.1518  0.5080
    9MOL0     C 1117   0.091   1.297   4.630 -0.6683  0.2061 -0.0159
    9MOL0     C 1118   0.234   1.303   4.562 -0.7153  0.1885  0.1267
    9MOL0     C 1119   0.246   1.425   4.475  0.2839 -0.7493 -0.4242
    9MOL0     C 1120   0.313   1.404   4.337 -0.1630  1.0575  0.0269
    9MOL0     C 1121   0.234   1.474   4.233  0.0849  0.4771  0.2893
    9MOL0     C 1122   0.289   1.480   4.088 -0.7490  0.3537  0.4853
    9MOL0     C 1123   0.424   1.551   4.074  0.0645 -0.4155 -0.2772
    9MOL0     C 1124   0.441   1.594   3.928  0.2520  0.2162  0.0294
    9MOL0    Cl 1125   0.630   1.627   3.908  0.3241 -0.1734  0.2267
    9MOL0     C 1126   0.128   1.091   4.943 -0.3114  0.0672  0.8283
    9MOL0     C 1127   0.128   1.094   5.081  0.1709 -1.3390 -0.3318
    9MOL0     O 1128   0.256   1.434   5.273  0.2133  0.2703  0.1783
    9MOL0     C 1129   0.084   1.264   5.542 -0.1875  0.3566 -0.2292
    9MOL0     C 1130   0.060   1.259   5.679 -0.6460  0.7340  0.1547
    9MOL0     N 1131   0.189   1.719   6.471  0.0229 -0.2749  0.0820
    9MOL0     N 1132   0.244   1.764   6.579  0.7631 -0.1303 -0.1834
    9MOL0     C 1133   0.093   1.520   7.122 -0.9973 -0.5568  0.4636
    9MOL0     C 1134   0.069   1.449   7.009  0.0073 -0.0063  0.7615
    9MOL0     C 1135   0.001   1.160   6.675 -0.5307 -0.5183 -0.0580
    9MOL0     C 1136  -0.017   1.023   6.700  1.0505 -0.0182 -0.0069
    9MOL0     C 1137  -0.078   0.934   6.601 -0.1762 -0.6640  0.0613
    9MOL0     C 1138  -0.117   0.990   6.474  0.6517 -0.2476  0.4274
    9MOL0     O 1139  -0.180   0.906   6.382  0.5457 -0.6965 -0.2932
    9MOL0     C 1140  -0.142   0.909   6.245  0.5806  0.0118  0.0874
    9MOL0     C 1141  -0.262   0.955   6.161 -0.0936  0.4984  0.8787
    9MOL0     C 1142  -0.222   0.949   6.014  0.7851  0.3941  0.3153
    9MOL0     C 1143  -0.314   1.016   5.903  0.0827 -0.1233 -0.5498
    9MOL0     C 1144  -0.294   1.161   5.909  0.6750  0.4932 -0.0796
    9MOL0     C 1145  -0.293   1.284   5.920 -1.0871  0.1412 -0.2126
    9MOL0     C 1146  -0.103   1.123   6.448 -0.7351  0.3501 -0.0118
    9MOL0     C 1147  -0.036   1.203   6.546  0.6431 -0.2301  0.1832
    9MOL0     H 1148   0.058   1.132   7.120 -2.1759 -0.7534  2.1727
    9MOL0     H 1149   0.116   1.282   7.344  1.6251  0.5722 -0.0275
    9MOL0     H 1150   0.219   1.550   7.548  1.5146 -0.4526 -0.5155
    9MOL0     H 1151   0.239   1.391   7.470  0.2565  0.7738  0.1939
    9MOL0     H 1152   0.456   1.498   7.445  1.3397 -1.4094 -2.9729
    9MOL0     H 1153   0.386   1.479   7.292  0.7590 -1.2740  1.5145
    9MOL0     H 1154   0.287   1.726   7.339  0.8994  1.0303 -1.2469
    9MOL0     H 1155   0.439   1.725   7.452 -0.1225 -0.2644  0.4962
    9MOL0     H 1156   0.514   1.810   7.233 -1.6820  1.1893 -1.5940
    9MOL0     H 1157   0.561   1.646   7.219  1.1281  1.1952 -3.3155
    9MOL0     H 1158   0.335   1.605   7.126 -0.5391  0.6691  0.9389
    9MOL0     H 1159   0.301   1.781   7.110 -0.3417 -0.2976 -0.9515
    9MOL0     H 1160   0.473   1.816   6.950 -0.1192 -0.2603  0.5350
    9MOL0     H 1161   0.524   1.639   6.965  1.7280  2.8715  1.5687
    9MOL0     H 1162   0.327   1.564   6.882 -1.5392  0.0222 -1.9843
    9MOL0     H 1163   0.251   1.722   6.877 -0.4475  0.2078 -0.5249
    9MOL0     H 1164   0.494   1.620   6.712  1.1842 -0.0050  1.8229
    9MOL0     H 1165   0.447   1.790   6.708  0.4823 -0.9543 -3.7715
    9MOL0     H 1166   0.312   1.442   6.589 -0.4059  1.0249 -0.1095
    9MOL0     H 1167   0.157   1.395   6.389  0.2761  0.7043 -0.0823
    9MOL0     H 1168   0.056   1.527   6.345  0.0159 -0.8631 -2.4637
    9MOL0     H 1169   0.318   1.454   6.216 -0.1379 -2.1682  4.3541
    9MOL0     H 1170   0.218   1.601   6.179  0.5745  0.8561  2.3508
    9MOL0     H 1171   0.029   1.424   6.114 -0.8196 -2.5026 -0.7801
    9MOL0     H 1172   0.148   1.301   6.163 -1.1936  0.9947  3.0279
    9MOL0     H 1173   0.291   1.380   5.966  0.2002 -0.0126 -1.1480
    9MOL0     H 1174   0.160   1.509   5.943  1.1224 -0.2102  0.5644
    9MOL0     H 1175   0.323   1.464   5.763 -2.0638  3.2272  0.0751
    9MOL0     H 1176   0.431   1.552   5.604  0.4141  2.3654 -1.8014
    9MOL0     H 1177   0.468   1.428   5.488 -0.9619  0.8246 -2.9756
    9MOL0     H 1178   0.350   1.568   5.454  0.7971  0.7970  1.0164
    9MOL0     H 1179   0.077   1.439   5.092 -0.3904 -0.1944  0.5774
    9MOL0     H 1180   0.040   1.407   4.861 -0.1752 -0.9847 -0.8310
    9MOL0     H 1181   0.011   1.301   4.556 -0.2728  2.5990 -0.3994
    9MOL0     H 1182   0.082   1.396   4.676  1.7361  0.5509 -0.1398
    9MOL0     H 1183   0.311   1.289   4.639  0.3627 -1.0782 -1.1364
    9MOL0     H 1184   0.244   1.210   4.505 -1.8722 -0.5506  1.0716
    9MOL0     H 1185   0.307   1.496   4.532  0.5012 -1.0766 -0.2484
    9MOL0     H 1186   0.143   1.455   4.453 -1.0050 -2.3752  2.7357
    9MOL0     H 1187   0.416   1.441   4.339 -0.1461  0.9737  1.6981
    9MOL0     H 1188   0.329   1.306   4.292 -1.0906  1.0986 -0.4123
    9MOL0     H 1189   0.208   1.575   4.267  1.4966  0.6009  1.1019
    9MOL0     H 1190   0.144   1.413   4.230  1.7305 -2.1432  1.1580
    9MOL0     H 1191   0.314   1.382   4.046  0.3040  0.9335 -0.3028
    9MOL0     H 1192   0.210   1.529   4.031 -1.1027 -0.1385  0.5459
    9MOL0     H 1193   0.506   1.480   4.087  0.2074 -0.1123  0.5474
    9MOL0     H 1194   0.427   1.635   4.144  0.1934 -2.2488  2.0769
    9MOL0     H 1195   0.382   1.684   3.910  1.7386  1.6960  2.1437
    9MOL0     H 1196   0.413   1.514   3.859  1.1997  1.8766 -2.4276
    9MOL0     H 1197   0.162   1.003   4.890  2.9504  0.4827  2.0345
    9MOL0     H 1198   0.155   1.017   5.153  1.3399 -1.0335 -0.4210
    9MOL0     H 1199   0.007   1.205   5.493 -0.8154  1.5558 -0.7282
    9MOL0     H 1200  -0.018   1.203   5.729  0.3879  0.3114  1.3409
    9MOL0     H 1201   0.088   1.628   7.114  1.1283 -0.4837 -0.3352
    9MOL0     H 1202   0.050   1.501   6.915 -2.0256  0.0305  1.1419
    9MOL0     H 1203   0.016   0.978   6.793  2.3042 -1.4232 -1.0722
    9MOL0     H 1204  -0.100   0.832   6.632 -2.3199  0.8246  4.2268
    9MOL0     H 1205  -0.052   0.968   6.225 -0.1222  1.6458  1.4984
    9MOL0     H 1206  -0.108   0.809   6.215  0.9651  0.9379 -2.8856
    9MOL0     H 1207  -0.296   1.057   6.184  0.8304  1.0310 -0.0718
    9MOL0     H 1208  -0.339   0.881   6.186  1.5839 -0.6619  2.9084
    9MOL0     H 1209  -0.216   0.841   5.998  0.8612  0.2071  1.5140
    9MOL0     H 1210  -0.122   0.989   5.995  1.1585 -0.5980  0.0940
    9MOL0     H 1211  -0.419   0.994   5.919 -0.4671  0.8054 -2.5529
    9MOL0     H 1212  -0.285   0.984   5.802  1.7102 -0.2825 -0.0602
    9MOL0     H 1213  -0.283   1.390   5.931  1.5124 -0.0281 -0.5008
    9MOL0     H 1214  -0.141   1.176   6.361  1.4166 -0.7382 -1.7113
    9MOL0     H 1215  -0.035   1.312   6.537  0.5380 -0.2253  0.2262
   10MOL0     O 1216   5.781   7.855   2.532  0.4394  0.2076  0.2436
   10MOL0     C 1217   5.781   7.784   2.437  0.7382 -0.0460 -0.2448
   10MOL0     O 1218   5.816   7.647   2.438 -0.5956 -0.3650  0.1530
   10MOL0     C 1219   5.774   7.586   2.553 -0.0752 -0.1480 -0.1981
   10MOL0     C 1220   5.649   7.614   2.617  0.4260  0.4493  0.1298
   10MOL0     C 1221   5.613   7.542   2.726  0.7965 -0.2094 -0.0750
   10MOL0     C 1222   5.689   7.435   2.773  0.7510 -0.4060  0.5704
   10MOL0     O 1223   5.657   7.368   2.890  0.2168  0.2108 -0.4134
   10MOL0     C 1224   5.613   7.241   2.850 -0.1333  0.2928  0.4892
   10MOL0     C 1225   5.681   7.143   2.944  0.0357 -0.5783  0.5195
   10MOL0     C 1226   5.694   7.182   3.085 -0.0264  1.4584 -0.5237
   10MOL0     C 1227   5.731   7.068   3.179 -1.4826  0.3163 -0.3732
   10MOL0     C 1228   5.734   7.102   3.332 -0.2606  0.1428  0.7895
   10MOL0     C 1229   5.769   6.976   3.411  0.1408 -0.0890 -0.2709
   10MOL0     C 1230   5.916   6.948   3.406  0.9884 -0.4084  0.6235
   10MOL0     C 1231   5.967   6.845   3.523 -0.3102  0.0747  0.3241
   10MOL0     N 1232   6.116   6.829   3.504  0.7608 -0.8941 -0.6328
   10MOL0     C 1233   6.168   6.748   3.409  0.0930 -0.1235 -0.3417
   10MOL0     C 1234   6.302   6.768   3.422 -0.5712 -0.8486 -0.0321
   10MOL0     C 1235   6.397   6.701   3.316  0.3238 -0.5589 -0.0470
   10MOL0     C 1236   6.550   6.711   3.359 -0.0385 -0.5004 -0.2332
   10MOL0     C 1237   6.647   6.623   3.273  1.0034  0.0078  0.6686
   10MOL0     C 1238   6.715   6.700   3.159  1.0040 -0.8163 -0.3552
   10MOL0     O 1239   6.831   6.629   3.105 -0.3445 -0.3502  0.7063
   10MOL0     C 1240   6.923   6.707   3.036 -0.7410  0.7904  1.3022
   10MOL0     C 1241   6.920   6.844   3.032 -0.2069  1.2048 -0.5950
   10MOL0     C 1242   7.030   6.911   2.970 -0.0253 -0.4902 -0.0107
   10MOL0     C 1243   7.023   7.067   2.978  0.7189 -0.6934 -0.8300
   10MOL0     C 1244   7.125   6.841   2.898  0.3806  0.3024  0.0648
   10MOL0     C 1245   7.223   6.901   2.805 -0.5216  0.7048  0.5245
   10MOL0     O 1246   7.335   6.836   2.777 -0.1840  0.3331 -0.1534
   10MOL0     C 1247   7.428   6.899   2.697  0.5988 -0.2922  0.4003
   10MOL0     C 1248   7.490   7.024   2.723  0.4803 -0.5894  0.1481
   10MOL0     C 1249   7.595   7.068   2.651 -1.0536  0.4448 -0.2867
   10MOL0     C 1250   7.656   6.989   2.551  0.4100  0.0023 -0.5348
   10MOL0     O 1251   7.777   7.046   2.511  0.1946 -0.3784 -0.2353
   10MOL0     C 1252   7.859   6.974   2.418  0.0336 -0.4625  0.9696
   10MOL0     C 1253   7.943   6.855   2.479 -0.9766  0.3984 -0.5705
   10MOL0     C 1254   8.036   6.797   2.377 -0.7303  0.1841 -0.0236
   10MOL0     C 1255   8.137   6.701   2.452  0.2324  0.4980  0.5251
   10MOL0     C 1256   8.214   6.627   2.334  0.3098 -0.0930 -0.4607
   10MOL0     C 1257   8.140   6.542   2.226  0.0343 -0.3544 -0.4728
   10MOL0     C 1258   8.053   6.425   2.275 -0.2141 -0.8442  1.1822
   10MOL0     C 1259   7.995   6.337   2.153 -0.1537 -0.0286  0.2771
   10MOL0    Cl 1260   7.885   6.236   2.246 -0.0855  0.0195  0.1108
   10MOL0     C 1261   7.605   6.867   2.527  0.0313 -0.1093  0.5938
   10MOL0     C 1262   7.485   6.822   2.595  0.6762 -0.5702 -0.1544
   10MOL0     O 1263   7.194   7.001   2.745  0.6474 -0.4098  0.9803
   10MOL0     C 1264   7.141   6.704   2.923  0.0211 -0.4731 -0.8156
   10MOL0     C 1265   7.035   6.642   2.983  0.2517  0.8468 -0.3905
   10MOL0     N 1266   6.327   6.855   3.528 -0.2332 -0.1121  0.3775
   10MOL0     N 1267   6.217   6.898   3.568  0.4563  0.3853  0.7656
   10MOL0     C 1268   5.804   7.399   2.699 -0.0509 -0.1495 -0.3346
   10MOL0     C 1269   5.846   7.479   2.589 -0.2174 -0.8802  0.6355
   10MOL0     C 1270   5.737   7.834   2.309  0.7813  0.0200 -0.5036
   10MOL0     C 1271   5.694   7.970   2.290  0.5191  0.6246 -0.2432
   10MOL0     C 1272   5.643   8.004   2.168  0.6327  0.3225 -0.1906
   10MOL0     C 1273   5.614   7.907   2.070  1.1539 -0.2264 -0.9393
   10MOL0     O 1274   5.560   7.938   1.952  0.3066  0.3181  0.1391
   10MOL0     C 1275   5.437   8.016   1.941 -0.1288 -1.0290  0.7609
   10MOL0     C 1276   5.489   8.148   1.867 -0.2172 -0.4955  0.6736
   10MOL0     C 1277   5.378   8.222   1.820  0.1867 -0.7091  0.5411
   10MOL0     C 1278   5.425   8.327   1.712  0.3356 -0.3799  0.5602
   10MOL0     C 1279   5.334   8.441   1.731 -0.0777  0.2056  0.8785
   10MOL0     C 1280   5.249   8.523   1.752  0.7276 -0.8401 -0.0474
   10MOL0     C 1281   5.647   7.777   2.103  1.1735  0.7842 -0.2134
   10MOL0     C 1282   5.717   7.740   2.218  0.0086 -0.2078  0.4292
   10MOL0     H 1283   5.582   7.691   2.579 -1.8941 -0.0432  2.8319
   10MOL0     H 1284   5.522   7.567   2.780  1.0161  0.4045  0.0240
   10MOL0     H 1285   5.508   7.220   2.871 -0.2107 -0.3380 -0.4902
   10MOL0     H 1286   5.637   7.222   2.745  1.8986  6.3356 -0.5653
   10MOL0     H 1287   5.633   7.046   2.935  0.8311 -1.0407  1.0465
   10MOL0     H 1288   5.781   7.131   2.900 -1.1334  1.7224 -3.2102
   10MOL0     H 1289   5.755   7.269   3.107 -1.0828  2.6101 -2.0049
   10MOL0     H 1290   5.590   7.186   3.121 -0.4053 -3.9049 -0.0804
   10MOL0     H 1291   5.644   7.004   3.162 -0.6316 -0.2133 -3.1697
   10MOL0     H 1292   5.828   7.031   3.146 -1.1263  2.3689 -1.8062
   10MOL0     H 1293   5.803   7.185   3.349  3.6584 -0.7972 -6.3678
   10MOL0     H 1294   5.636   7.143   3.357 -0.9248  0.7376 -2.3361
   10MOL0     H 1295   5.743   6.970   3.518 -2.1118 -1.4120 -0.8340
   10MOL0     H 1296   5.729   6.887   3.362 -1.2848 -0.3563  1.2911
   10MOL0     H 1297   5.949   6.919   3.306 -2.5635  1.5197 -1.2931
   10MOL0     H 1298   5.967   7.045   3.412 -1.3017  1.0862 -1.7924
   10MOL0     H 1299   5.911   6.751   3.514 -5.0552  2.5425  0.7238
   10MOL0     H 1300   5.947   6.883   3.623 -0.4094 -1.8445  1.0699
   10MOL0     H 1301   6.113   6.689   3.337  0.1787  2.3122 -2.5694
   10MOL0     H 1302   6.361   6.598   3.303 -0.4360 -0.0381 -2.4564
   10MOL0     H 1303   6.378   6.755   3.223 -0.1982 -0.0631  0.3458
   10MOL0     H 1304   6.552   6.671   3.461  1.7094 -0.7388 -0.3397
   10MOL0     H 1305   6.572   6.817   3.372  1.0610 -0.4627 -2.1303
   10MOL0     H 1306   6.585   6.543   3.230  0.0461  1.8071 -1.5101
   10MOL0     H 1307   6.721   6.578   3.339 -0.0359 -0.4422  1.5616
   10MOL0     H 1308   6.760   6.776   3.224 -2.4409 -0.3121  1.6804
   10MOL0     H 1309   6.650   6.753   3.089  0.9945  2.0538  1.6608
   10MOL0     H 1310   6.851   6.904   3.090 -0.7168 -0.8833  1.0724
   10MOL0     H 1311   6.974   7.087   3.073  2.5094 -0.3246  0.0591
   10MOL0     H 1312   7.122   7.112   2.965  0.5611  0.2779  1.0749
   10MOL0     H 1313   6.961   7.103   2.895 -0.5686 -0.3064  0.2674
   10MOL0     H 1314   7.462   7.085   2.808 -0.5242  1.0716 -1.2923
   10MOL0     H 1315   7.638   7.164   2.677 -0.1385 -0.4633  1.8418
   10MOL0     H 1316   7.812   6.949   2.322  2.0931 -2.4864  0.4007
   10MOL0     H 1317   7.936   7.044   2.385  0.4976 -2.2397 -2.1330
   10MOL0     H 1318   7.994   6.875   2.573 -0.4541 -1.2511 -0.4777
   10MOL0     H 1319   7.882   6.770   2.510 -0.4249 -1.5184 -4.1797
   10MOL0     H 1320   8.094   6.878   2.332  0.6292  0.4544  2.0543
   10MOL0     H 1321   7.970   6.756   2.301 -0.9140 -0.3721  0.4304
   10MOL0     H 1322   8.202   6.758   2.520 -0.7483  1.6739  0.5199
   10MOL0     H 1323   8.088   6.630   2.519  2.1254  0.2653  1.7561
   10MOL0     H 1324   8.268   6.553   2.394 -1.1665  0.2578  1.3849
   10MOL0     H 1325   8.285   6.697   2.289  1.3019 -0.2315  0.8232
   10MOL0     H 1326   8.083   6.618   2.173  1.0616  0.0655 -1.0060
   10MOL0     H 1327   8.213   6.500   2.156 -1.1254 -2.7861 -0.3267
   10MOL0     H 1328   7.961   6.465   2.320 -1.2393 -1.8466  0.0431
   10MOL0     H 1329   8.112   6.377   2.354  0.5957  2.8722  3.0854
   10MOL0     H 1330   8.074   6.281   2.101 -1.9639 -1.3129 -1.1926
   10MOL0     H 1331   7.943   6.403   2.083 -1.3801  1.3451  2.3799
   10MOL0     H 1332   7.645   6.798   2.454 -1.8963  0.5996 -1.2174
   10MOL0     H 1333   7.439   6.727   2.570 -3.3547  1.8167 -2.9793
   10MOL0     H 1334   7.225   6.654   2.876  0.6444  0.3255 -0.5651
   10MOL0     H 1335   7.033   6.534   2.981 -0.4716  0.8710 -1.8269
   10MOL0     H 1336   5.861   7.310   2.725 -1.8892 -0.5396  2.9262
   10MOL0     H 1337   5.939   7.462   2.536 -0.9646 -0.2486 -0.9304
   10MOL0     H 1338   5.718   8.042   2.368  0.6311  1.8537 -1.3754
   10MOL0     H 1339   5.633   8.111   2.149  0.0180  0.1844 -0.6801
   10MOL0     H 1340   5.364   7.961   1.881  0.9986  0.0139 -1.6566
   10MOL0     H 1341   5.393   8.038   2.039 -0.5810  1.3514  0.0759
   10MOL0     H 1342   5.537   8.126   1.771  0.0582  0.4710  0.5816
   10MOL0     H 1343   5.566   8.202   1.921  0.0164  2.1023 -2.0071
   10MOL0     H 1344   5.324   8.260   1.907  2.2453  1.0322  1.1610
   10MOL0     H 1345   5.305   8.164   1.763  0.6488 -0.0645 -0.7553
   10MOL0     H 1346   5.418   8.301   1.606 -1.8274  0.3915  0.4576
   10MOL0     H 1347   5.527   8.354   1.740 -0.0190  0.7626  0.7928
   10MOL0     H 1348   5.169   8.593   1.756  1.6917  0.3209 -0.6386
   10MOL0     H 1349   5.626   7.702   2.026  0.9302  1.5676 -0.9266
   10MOL0     H 1350   5.726   7.633   2.227 -1.2622 -0.3223  0.5893
   11MOL0     O 1351   1.818   5.993   2.130 -0.5383  0.3588  1.0636
   11MOL0     C 1352   1.827   6.061   2.229 -0.5342 -0.0698 -0.3749
   11MOL0     O 1353   1.728   6.070   2.325  0.3001 -0.4942 -0.4738
   11MOL0     C 1354   1.617   6.008   2.307  0.5205 -0.3754  0.0614
   11MOL0     C 1355   1.614   5.869   2.310  0.6690  0.5798  0.1880
   11MOL0     C 1356   1.489   5.804   2.304 -0.1817 -0.0308 -0.4531
   11MOL0     C 1357   1.367   5.880   2.290 -0.8395 -0.0039  0.2316
   11MOL0     O 1358   1.245   5.816   2.263 -0.3949 -0.0365 -0.4284
   11MOL0     C 1359   1.234   5.672   2.290 -0.1094 -0.9951 -0.1942
   11MOL0     C 1360   1.094   5.633   2.305  0.7985 -0.7880 -0.1293
   11MOL0     C 1361   1.083   5.486   2.352 -0.5005 -0.4620  0.5675
   11MOL0     C 1362   0.957   5.461   2.436 -0.1639  0.0229  0.5124
   11MOL0     C 1363   0.829   5.470   2.357 -0.0808 -0.1064 -0.2098
   11MOL0     C 1364   0.709   5.462   2.448 -1.4458 -0.7148  0.5951
   11MOL0     C 1365   0.576   5.498   2.385  1.6615  0.2431  0.1695
   11MOL0     C 1366   0.536   5.379   2.271  0.8445 -0.2959  0.1820
   11MOL0     N 1367   0.407   5.417   2.202 -0.0550 -0.7238  0.0923
   11MOL0     C 1368   0.390   5.417   2.068  0.2813  0.7494  0.1466
   11MOL0     C 1369   0.253   5.408   2.050 -0.8601  0.6107  0.2330
   11MOL0     C 1370   0.177   5.382   1.930  0.6863 -0.3133 -0.0415
   11MOL0     C 1371   0.125   5.234   1.924 -0.1310  0.0603  0.2019
   11MOL0     C 1372   0.240   5.141   1.947 -0.7120 -0.1041 -1.0311
   11MOL0     C 1373   0.209   5.000   1.909  0.1679 -0.0016 -0.2702
   11MOL0     O 1374   0.200   4.981   1.772 -0.0566 -0.3451 -0.0668
   11MOL0     C 1375   0.307   4.943   1.696  0.8981  0.0525 -1.1477
   11MOL0     C 1376   0.272   4.897   1.572 -0.4423 -0.4223 -0.2638
   11MOL0     C 1377   0.376   4.855   1.480 -0.1721 -0.5446  0.0955
   11MOL0     C 1378   0.324   4.808   1.344  0.1629  0.1743 -0.2196
   11MOL0     C 1379   0.510   4.893   1.512  0.2325 -0.3276  0.0388
   11MOL0     C 1380   0.618   4.851   1.411 -0.4040 -0.4866 -1.0068
   11MOL0     O 1381   0.601   4.738   1.332  0.8407  0.4089 -0.2062
   11MOL0     C 1382   0.687   4.685   1.249  0.0412 -0.1436 -0.1756
   11MOL0     C 1383   0.811   4.638   1.283 -0.4519  0.7497 -0.9299
   11MOL0     C 1384   0.891   4.575   1.185  1.2971 -0.0354  0.6093
   11MOL0     C 1385   0.844   4.579   1.052  0.4807  0.3188 -0.0251
   11MOL0     O 1386   0.925   4.511   0.955  0.2923 -0.1551  0.1554
   11MOL0     C 1387   1.069   4.502   0.950  0.0838  0.7463 -0.8770
   11MOL0     C 1388   1.102   4.508   0.799  0.3148 -0.2048 -0.5542
   11MOL0     C 1389   1.249   4.552   0.776 -0.3939 -0.2781  0.2314
   11MOL0     C 1390   1.345   4.441   0.825  0.8964 -0.1710  0.0300
   11MOL0     C 1391   1.421   4.464   0.960  0.1035 -0.5723  0.3694
   11MOL0     C 1392   1.523   4.351   0.973  0.0384 -0.4419  0.3886
   11MOL0     C 1393   1.579   4.342   1.116 -0.2629 -0.3010 -0.2777
   11MOL0     C 1394   1.723   4.409   1.122 -0.9889  0.4466  0.5508
   11MOL0    Cl 1395   1.850   4.314   1.021 -0.4462 -0.4135 -0.6898
   11MOL0     C 1396   0.719   4.622   1.016  0.0160 -0.2510 -0.5890
   11MOL0     C 1397   0.641   4.676   1.119  0.3470  1.0996  0.8473
   11MOL0     O 1398   0.715   4.918   1.415 -0.3200  0.3478 -0.0124
   11MOL0     C 1399   0.534   4.961   1.633  0.3760  0.7647 -0.6254
   11MOL0     C 1400   0.431   4.987   1.727 -0.6856 -0.0403  0.4514
   11MOL0     N 1401   0.197   5.417   2.183 -0.2739  0.8427  0.6194
   11MOL0     N 1402   0.289   5.432   2.264 -0.0998  0.1403  0.1916
   11MOL0     C 1403   1.375   6.016   2.287  0.5247  0.5995  0.0408
   11MOL0     C 1404   1.491   6.085   2.308  0.5642  0.3124 -0.1603
   11MOL0     C 1405   1.954   6.129   2.255 -0.4335 -0.2999 -0.1292
   11MOL0     C 1406   2.077   6.078   2.204 -0.1478 -0.0105 -0.1059
   11MOL0     C 1407   2.198   6.151   2.221 -0.2370  0.4797  1.7766
   11MOL0     C 1408   2.198   6.271   2.295  0.8602  0.0256  0.1200
   11MOL0     O 1409   2.311   6.346   2.298 -0.6026  0.6741  0.5626
   11MOL0     C 1410   2.349   6.344   2.441 -0.0767  1.3930 -0.9121
   11MOL0     C 1411   2.474   6.431   2.467  0.0262 -0.0942 -0.2922
   11MOL0     C 1412   2.615   6.356   2.456  0.2423 -0.5799 -0.5182
   11MOL0     C 1413   2.646   6.349   2.306  0.8470  0.2661 -0.0261
   11MOL0     C 1414   2.770   6.289   2.261 -0.3483 -0.5841 -0.8005
   11MOL0     C 1415   2.870   6.247   2.212  0.6866  0.5764  0.4805
   11MOL0     C 1416   2.075   6.327   2.338  0.2345  0.4384 -0.0531
   11MOL0     C 1417   1.956   6.254   2.327 -0.2901 -0.0095  0.1989
   11MOL0     H 1418   1.706   5.812   2.296  0.3629  0.3252 -0.9111
   11MOL0     H 1419   1.483   5.697   2.288 -2.5572  0.1453 -1.1393
   11MOL0     H 1420   1.276   5.605   2.214 -0.2966 -1.0612 -0.2412
   11MOL0     H 1421   1.295   5.644   2.377 -0.8475 -0.3254  0.5558
   11MOL0     H 1422   1.052   5.710   2.370  3.7417  1.3992 -0.6506
   11MOL0     H 1423   1.050   5.647   2.206 -2.5184  1.1793  1.4609
   11MOL0     H 1424   1.094   5.417   2.268  2.7081  0.1467  0.3631
   11MOL0     H 1425   1.160   5.466   2.427  1.7491 -0.1321 -1.5275
   11MOL0     H 1426   0.963   5.358   2.470 -0.8784 -0.8827 -1.8851
   11MOL0     H 1427   0.949   5.523   2.526  2.5383  0.1785  0.7248
   11MOL0     H 1428   0.829   5.561   2.297  0.2785  0.5993  0.8473
   11MOL0     H 1429   0.826   5.381   2.292 -0.0201 -1.0103  0.9832
   11MOL0     H 1430   0.716   5.361   2.491 -1.2586 -1.0698 -0.2478
   11MOL0     H 1431   0.726   5.532   2.530 -0.6474 -0.2105  0.0067
   11MOL0     H 1432   0.500   5.514   2.462  0.7109 -0.1625 -0.6539
   11MOL0     H 1433   0.577   5.595   2.335 -1.6826  0.1707 -0.2675
   11MOL0     H 1434   0.506   5.283   2.313 -0.3838 -0.2359 -0.5166
   11MOL0     H 1435   0.618   5.360   2.202  0.4420 -2.4398  0.2241
   11MOL0     H 1436   0.471   5.408   1.995  1.6433 -0.9419  1.7607
   11MOL0     H 1437   0.095   5.454   1.934 -0.9904 -2.1178 -0.5373
   11MOL0     H 1438   0.237   5.411   1.844 -0.7001  3.3955  0.0789
   11MOL0     H 1439   0.092   5.224   1.820 -0.1442  2.7183 -0.1244
   11MOL0     H 1440   0.037   5.217   1.987 -0.3990  1.7129  0.3068
   11MOL0     H 1441   0.261   5.137   2.054 -2.7298  2.5456 -0.4291
   11MOL0     H 1442   0.330   5.173   1.892 -0.1022 -1.3667 -0.8166
   11MOL0     H 1443   0.122   4.955   1.957  0.3538  1.8417  1.9572
   11MOL0     H 1444   0.298   4.950   1.947  1.6904  3.0096  0.4534
   11MOL0     H 1445   0.172   4.904   1.529  0.2019 -4.6667 -3.0242
   11MOL0     H 1446   0.385   4.844   1.260 -0.1578 -0.0164 -0.5383
   11MOL0     H 1447   0.310   4.699   1.345 -0.4428  0.2522  0.4548
   11MOL0     H 1448   0.221   4.843   1.331 -0.6183 -2.3308 -1.4709
   11MOL0     H 1449   0.857   4.659   1.378  0.4632  0.2302 -1.2443
   11MOL0     H 1450   0.983   4.524   1.211 -0.3838 -3.6496  0.0844
   11MOL0     H 1451   1.110   4.592   0.997 -1.6718  1.0803  0.1030
   11MOL0     H 1452   1.116   4.422   1.008 -0.1721  2.1192  1.3411
   11MOL0     H 1453   1.081   4.409   0.759 -1.9044 -0.4282  1.0202
   11MOL0     H 1454   1.032   4.577   0.752 -1.3522 -1.7995 -0.5252
   11MOL0     H 1455   1.258   4.647   0.830 -1.9624  1.2417 -2.0214
   11MOL0     H 1456   1.272   4.576   0.672  2.0420 -1.4264  0.4349
   11MOL0     H 1457   1.297   4.343   0.827  0.5229 -0.0750 -2.0070
   11MOL0     H 1458   1.418   4.427   0.744  0.2611 -0.9352 -0.4240
   11MOL0     H 1459   1.349   4.454   1.042  0.5187  0.6544  0.9100
   11MOL0     H 1460   1.469   4.562   0.961 -1.2724  0.2370 -1.9910
   11MOL0     H 1461   1.481   4.254   0.944  0.0706 -1.3055  2.9507
   11MOL0     H 1462   1.603   4.368   0.901 -1.9216  0.9876 -1.6065
   11MOL0     H 1463   1.576   4.238   1.152  1.1486 -0.3557 -0.2412
   11MOL0     H 1464   1.515   4.385   1.194  0.2048 -1.1402  0.5928
   11MOL0     H 1465   1.749   4.396   1.228 -0.9293 -3.6416  0.1860
   11MOL0     H 1466   1.734   4.508   1.078 -0.7266 -0.0103 -0.4311
   11MOL0     H 1467   0.692   4.642   0.913  2.2904 -0.8313 -1.3633
   11MOL0     H 1468   0.551   4.729   1.089  0.9043  2.0129  0.7363
   11MOL0     H 1469   0.639   4.978   1.656  1.1334 -3.1100 -0.5876
   11MOL0     H 1470   0.464   5.031   1.821 -3.1550 -1.1095  1.9141
   11MOL0     H 1471   1.278   6.063   2.272 -0.8208 -1.8025  0.6097
   11MOL0     H 1472   1.497   6.193   2.316  0.1480  0.4933 -1.8667
   11MOL0     H 1473   2.086   5.990   2.141  2.0428  1.4189 -1.9613
   11MOL0     H 1474   2.291   6.110   2.183 -2.3909 -0.8558 -2.5974
   11MOL0     H 1475   2.269   6.394   2.496 -0.9429 -0.2585 -0.6188
   11MOL0     H 1476   2.370   6.248   2.489  0.6776  1.6797 -0.6446
   11MOL0     H 1477   2.471   6.446   2.576  2.3907 -1.1891  0.0048
   11MOL0     H 1478   2.469   6.530   2.421 -1.7148  0.8810  1.7948
   11MOL0     H 1479   2.613   6.258   2.506  0.6225 -0.8367 -1.0060
   11MOL0     H 1480   2.690   6.419   2.505  1.2157 -1.3199 -1.0231
   11MOL0     H 1481   2.639   6.446   2.256  0.8407 -0.1560 -0.8708
   11MOL0     H 1482   2.570   6.277   2.273  2.2631 -2.3568  2.0446
   11MOL0     H 1483   2.965   6.207   2.184  0.1075 -1.6741  1.5021
   11MOL0     H 1484   2.069   6.427   2.380 -0.4854  0.1705  0.4984
   11MOL0     H 1485   1.868   6.307   2.363  1.5960  2.9576  0.8155
   12MOL0     O 1486   9.877   8.550   3.020  0.8930 -0.0248  0.1930
   12MOL0     C 1487   9.982   8.550   3.085  0.2481 -0.3572 -0.2948
   12MOL0     O 1488  10.108   8.593   3.037  0.5112 -0.3784 -0.6065
   12MOL0     C 1489  10.114   8.600   2.897  0.0119  0.1618 -0.4164
   12MOL0     C 1490  10.075   8.482   2.822 -0.7955  0.7086  0.3594
   12MOL0     C 1491  10.076   8.486   2.676 -0.1839  0.0122 -0.3293
   12MOL0     C 1492  10.157   8.589   2.616  1.4370 -0.5869 -0.5581
   12MOL0     O 1493  10.199   8.592   2.489  0.9504 -0.1350 -0.0915
   12MOL0     C 1494  10.224   8.469   2.427 -0.0509  0.5157 -0.4725
   12MOL0     C 1495  10.297   8.487   2.292  0.3369 -0.3836  0.9732
   12MOL0     C 1496  10.208   8.544   2.175  0.1530 -0.1958 -0.9910
   12MOL0     C 1497  10.291   8.569   2.045  0.0139 -0.4093 -0.2228
   12MOL0     C 1498  10.207   8.604   1.925 -0.0791  0.2619  0.0126
   12MOL0     C 1499  10.298   8.644   1.799  0.5894  0.0555 -0.1087
   12MOL0     C 1500  10.216   8.699   1.674 -0.7229  0.4643  0.0978
   12MOL0     C 1501  10.181   8.849   1.679 -0.2116  0.3360 -0.4590
   12MOL0     N 1502  10.133   8.888   1.548  0.1452  0.1808  0.0998
   12MOL0     C 1503  10.012   8.847   1.495 -0.1914  0.5171  0.4318
   12MOL0     C 1504  10.001   8.914   1.374  0.0165  0.4142 -1.0401
   12MOL0     C 1505   9.885   8.905   1.288 -0.0313  0.2736 -0.1314
   12MOL0     C 1506   9.895   8.801   1.174  0.1227  0.0708 -0.0896
   12MOL0     C 1507   9.768   8.736   1.126 -0.4648  0.5493  0.3568
   12MOL0     C 1508   9.703   8.643   1.240 -0.0076 -0.3364 -0.2630
   12MOL0     O 1509   9.644   8.519   1.184 -0.3352 -0.5705 -0.1454
   12MOL0     C 1510   9.534   8.463   1.257 -0.4334 -0.1468 -0.0421
   12MOL0     C 1511   9.573   8.402   1.369  0.5205  0.4140 -0.1525
   12MOL0     C 1512   9.479   8.338   1.456 -0.2843  0.4945 -0.1424
   12MOL0     C 1513   9.532   8.251   1.574 -0.3354 -1.0879  0.2418
   12MOL0     C 1514   9.337   8.348   1.426 -0.8044 -0.0495  0.0891
   12MOL0     C 1515   9.230   8.282   1.509 -0.2424  0.1909  0.4576
   12MOL0     O 1516   9.097   8.318   1.473  0.4629  0.1658  1.0743
   12MOL0     C 1517   8.990   8.257   1.539 -0.8856 -0.0963  0.0384
   12MOL0     C 1518   9.000   8.125   1.586  0.2851  0.3295  1.5719
   12MOL0     C 1519   8.881   8.063   1.628 -0.3318  0.0047  0.3684
   12MOL0     C 1520   8.749   8.123   1.616  0.2045  0.0801  0.5958
   12MOL0     O 1521   8.627   8.070   1.655 -0.0718 -0.4472  0.9571
   12MOL0     C 1522   8.620   7.952   1.731  0.3933  0.2958 -0.5445
   12MOL0     C 1523   8.478   7.919   1.767 -0.0995  0.4472 -0.0422
   12MOL0     C 1524   8.419   7.841   1.651  1.3521  0.1914  0.3703
   12MOL0     C 1525   8.280   7.791   1.690 -0.9376  0.8628 -1.2991
   12MOL0     C 1526   8.233   7.679   1.596  0.4009  0.9496 -0.7116
   12MOL0     C 1527   8.215   7.723   1.454  0.3828  0.6704 -0.5583
   12MOL0     C 1528   8.179   7.593   1.371  0.0449  0.6933 -0.6095
   12MOL0     C 1529   8.048   7.529   1.396  0.2504 -0.1199  0.6818
   12MOL0    Cl 1530   8.017   7.412   1.275 -0.1601  0.1627 -0.2537
   12MOL0     C 1531   8.749   8.253   1.565  0.5959  0.9428  0.0220
   12MOL0     C 1532   8.865   8.318   1.526  0.7647 -1.2403 -0.3549
   12MOL0     O 1533   9.257   8.211   1.604 -0.1597 -1.2809 -0.2800
   12MOL0     C 1534   9.307   8.414   1.311  0.1980 -0.1412  0.5029
   12MOL0     C 1535   9.400   8.477   1.232 -0.1701 -0.3788  0.8086
   12MOL0     N 1536  10.108   8.995   1.361  0.1372  0.0989 -0.7757
   12MOL0     N 1537  10.188   8.967   1.456 -0.6961  0.0073 -0.3169
   12MOL0     C 1538  10.197   8.694   2.697 -0.3666 -0.7415  0.3821
   12MOL0     C 1539  10.169   8.709   2.827 -0.0177 -0.6857 -0.8088
   12MOL0     C 1540   9.964   8.501   3.216  0.3438 -0.2988  0.4323
   12MOL0     C 1541   9.839   8.481   3.280 -0.7913 -0.1356 -0.6607
   12MOL0     C 1542   9.821   8.414   3.407 -0.0128  0.0251  0.4918
   12MOL0     C 1543   9.932   8.377   3.484 -0.7067 -0.2828  1.1328
   12MOL0     O 1544   9.939   8.305   3.602 -0.0056 -0.1395 -0.7540
   12MOL0     C 1545   9.819   8.282   3.675  0.2853  0.4333 -0.3445
   12MOL0     C 1546   9.774   8.405   3.751  0.6560 -0.1361  0.4927
   12MOL0     C 1547   9.622   8.436   3.749 -0.0038  0.2181 -0.4913
   12MOL0     C 1548   9.530   8.392   3.866  0.1670 -0.1543  0.4705
   12MOL0     C 1549   9.510   8.245   3.883 -0.4644  0.3630  0.6613
   12MOL0     C 1550   9.493   8.127   3.926  0.1767 -0.1762  0.6616
   12MOL0     C 1551  10.054   8.427   3.431  0.2917  0.3264 -0.5142
   12MOL0     C 1552  10.072   8.479   3.304 -0.0421  0.7237 -0.0990
   12MOL0     H 1553  10.023   8.401   2.872 -0.9684  0.6700  0.1209
   12MOL0     H 1554  10.037   8.403   2.617 -0.9421  1.1272 -1.4320
   12MOL0     H 1555  10.283   8.393   2.479  0.5190  1.4271  0.2248
   12MOL0     H 1556  10.131   8.417   2.401  1.0043 -0.3452 -2.7811
   12MOL0     H 1557  10.378   8.558   2.314  0.0956 -0.0933  0.9259
   12MOL0     H 1558  10.329   8.388   2.258  0.4476  0.7580 -2.6937
   12MOL0     H 1559  10.127   8.471   2.160  2.1313 -2.3918 -1.5949
   12MOL0     H 1560  10.170   8.640   2.212  3.6874  2.0860 -2.7437
   12MOL0     H 1561  10.360   8.651   2.069 -0.6510 -0.5700  2.6509
   12MOL0     H 1562  10.354   8.482   2.026 -0.0120 -1.0724  2.3535
   12MOL0     H 1563  10.149   8.516   1.897  0.9811 -0.7444  0.8426
   12MOL0     H 1564  10.144   8.690   1.949 -1.0369 -0.7154  1.0996
   12MOL0     H 1565  10.354   8.731   1.834 -0.7855  1.6084 -1.6243
   12MOL0     H 1566  10.358   8.556   1.773 -4.8196 -3.6398 -1.8845
   12MOL0     H 1567  10.277   8.677   1.586 -1.6600  0.1670 -0.4923
   12MOL0     H 1568  10.125   8.639   1.663 -1.3280  1.0690  1.5177
   12MOL0     H 1569  10.263   8.912   1.715  0.9102 -1.8973  1.1078
   12MOL0     H 1570  10.100   8.867   1.751  0.7579 -0.0536  0.7690
   12MOL0     H 1571   9.946   8.768   1.529  0.4787 -0.4787 -0.4964
   12MOL0     H 1572   9.799   8.879   1.350  0.4857 -0.6789  0.2274
   12MOL0     H 1573   9.847   8.999   1.248  1.6732  1.7643  1.5640
   12MOL0     H 1574   9.963   8.718   1.198 -0.3324 -0.7226 -1.4179
   12MOL0     H 1575   9.949   8.846   1.090  2.4733 -2.2004  0.0405
   12MOL0     H 1576   9.788   8.673   1.040 -3.0233 -2.8212  1.9992
   12MOL0     H 1577   9.696   8.816   1.103  0.1636  0.8974 -0.4247
   12MOL0     H 1578   9.625   8.700   1.291  0.2042  1.3300 -1.7031
   12MOL0     H 1579   9.778   8.615   1.315 -0.0106 -1.9941 -0.8339
   12MOL0     H 1580   9.677   8.378   1.391 -0.0844 -0.5226  1.9184
   12MOL0     H 1581   9.641   8.255   1.590 -0.5507 -0.7694  1.7559
   12MOL0     H 1582   9.495   8.283   1.671 -0.6570 -1.4625  0.2443
   12MOL0     H 1583   9.514   8.143   1.569  0.0798 -1.1119 -1.2259
   12MOL0     H 1584   9.085   8.057   1.585 -1.4630 -1.9991 -0.5599
   12MOL0     H 1585   8.894   7.962   1.667 -0.9799  0.1197  0.8943
   12MOL0     H 1586   8.657   7.866   1.674 -1.3131 -0.9788  0.2111
   12MOL0     H 1587   8.682   7.964   1.820 -0.4880  1.8702 -0.1135
   12MOL0     H 1588   8.488   7.852   1.853  1.0703  0.3956 -0.2167
   12MOL0     H 1589   8.409   8.001   1.792 -2.5443 -0.7692 -2.2364
   12MOL0     H 1590   8.477   7.756   1.614 -0.8377  0.3815 -4.1435
   12MOL0     H 1591   8.420   7.910   1.566  1.6330 -0.8150 -0.4655
   12MOL0     H 1592   8.282   7.751   1.792 -2.4880  2.7834 -0.4305
   12MOL0     H 1593   8.217   7.880   1.694 -0.1382  1.4390 -1.3058
   12MOL0     H 1594   8.138   7.651   1.643  1.3739 -0.2931  0.5893
   12MOL0     H 1595   8.298   7.592   1.603  0.7019  1.2100 -0.2222
   12MOL0     H 1596   8.137   7.800   1.452  0.5908  1.1202  2.9543
   12MOL0     H 1597   8.308   7.775   1.428  1.6834 -0.2278  2.0334
   12MOL0     H 1598   8.260   7.523   1.394 -0.5279  0.5478  1.0874
   12MOL0     H 1599   8.185   7.608   1.263  2.8859 -1.4907 -0.8739
   12MOL0     H 1600   7.972   7.609   1.392  1.0878  0.6540 -1.1128
   12MOL0     H 1601   8.054   7.494   1.499  0.0696 -1.1929  0.3418
   12MOL0     H 1602   8.651   8.294   1.546 -0.4287 -1.8123 -1.2016
   12MOL0     H 1603   8.863   8.417   1.482 -3.1344 -1.9104 -2.1033
   12MOL0     H 1604   9.209   8.397   1.268  0.5826 -1.2983  0.0456
   12MOL0     H 1605   9.377   8.518   1.134 -0.8182  0.5271  1.3239
   12MOL0     H 1606  10.255   8.769   2.645 -1.2391  0.5341  1.1858
   12MOL0     H 1607  10.212   8.785   2.891  0.5723  0.4735 -2.5181
   12MOL0     H 1608   9.756   8.494   3.210 -0.2380 -2.8435 -1.9672
   12MOL0     H 1609   9.718   8.397   3.438 -1.2841  1.3408 -2.4967
   12MOL0     H 1610   9.736   8.248   3.613 -0.9537 -0.2920  1.6186
   12MOL0     H 1611   9.830   8.204   3.751 -0.7014  1.5986  1.0311
   12MOL0     H 1612   9.822   8.493   3.707  0.0549  2.1857  4.0648
   12MOL0     H 1613   9.822   8.399   3.849  3.6983  0.3810 -0.8440
   12MOL0     H 1614   9.566   8.406   3.660 -0.8472 -1.2913  0.5049
   12MOL0     H 1615   9.621   8.546   3.751 -2.6116  0.4312 -4.2575
   12MOL0     H 1616   9.435   8.442   3.843  1.4946  3.4422  1.9782
   12MOL0     H 1617   9.563   8.432   3.963  1.7901  0.3756 -0.2735
   12MOL0     H 1618   9.478   8.029   3.965 -0.4287 -0.0998  0.6221
   12MOL0     H 1619  10.142   8.407   3.493 -0.4274  2.5324  1.3581
   12MOL0     H 1620  10.175   8.502   3.279  0.8348 -2.2824  0.4433
   13MOL0     O 1621   0.389   4.531   4.506  0.0998  0.5309 -0.6471
   13MOL0     C 1622   0.421   4.413   4.537  0.9457  0.6337 -0.6469
   13MOL0     O 1623   0.385   4.298   4.471  0.3593  0.3290 -0.8493
   13MOL0     C 1624   0.268   4.300   4.388 -1.1370 -0.6052  0.2456
   13MOL0     C 1625   0.266   4.213   4.284 -0.2854  0.8726  0.6651
   13MOL0     C 1626   0.157   4.221   4.192  0.0011 -0.4686  0.2546
   13MOL0     C 1627   0.048   4.308   4.214  0.1263  0.3389  0.0805
   13MOL0     O 1628  -0.064   4.281   4.142  0.7249  0.3072 -0.1831
   13MOL0     C 1629  -0.147   4.396   4.102 -0.5296 -0.3254  0.7177
   13MOL0     C 1630  -0.061   4.484   4.011 -0.4170 -0.5695 -0.1321
   13MOL0     C 1631  -0.011   4.417   3.877 -0.1099 -0.2140  0.4125
   13MOL0     C 1632  -0.117   4.428   3.765 -0.0488 -0.5869  0.3497
   13MOL0     C 1633  -0.059   4.410   3.624  0.1095 -0.3443  0.8431
   13MOL0     C 1634   0.010   4.272   3.597  0.2295  0.2649 -0.8195
   13MOL0     C 1635   0.055   4.261   3.450  0.4062  0.1202  1.4493
   13MOL0     C 1636   0.164   4.149   3.417  0.3893  0.3468 -0.5983
   13MOL0     N 1637   0.112   4.054   3.313  0.2157 -0.7108 -0.2067
   13MOL0     C 1638  -0.002   3.980   3.318 -0.1267  0.1912  0.5855
   13MOL0     C 1639  -0.003   3.905   3.212 -0.7556  0.0192  0.0643
   13MOL0     C 1640  -0.083   3.784   3.173  0.3660 -1.6377 -0.2284
   13MOL0     C 1641  -0.056   3.670   3.277  0.1918 -0.0319 -0.2322
   13MOL0     C 1642   0.072   3.598   3.251 -0.3212  0.7759 -0.6348
   13MOL0     C 1643   0.069   3.463   3.331 -0.5631  0.4159 -0.9926
   13MOL0     O 1644   0.196   3.399   3.338  0.0292 -0.4985  0.2858
   13MOL0     C 1645   0.207   3.296   3.433 -0.0811 -1.2873 -0.1747
   13MOL0     C 1646   0.111   3.243   3.522 -0.0248 -0.9626 -0.1748
   13MOL0     C 1647   0.147   3.128   3.597 -0.3257 -0.0533 -0.8733
   13MOL0     C 1648   0.038   3.061   3.684 -0.1541  0.5733  1.2841
   13MOL0     C 1649   0.281   3.073   3.590  0.0778  0.1535 -0.1213
   13MOL0     C 1650   0.333   2.963   3.680 -0.1244 -0.2363  0.6407
   13MOL0     O 1651   0.273   2.922   3.797  0.5879 -0.0931 -0.2825
   13MOL0     C 1652   0.296   2.804   3.866 -0.3153 -0.5631  0.0294
   13MOL0     C 1653   0.380   2.703   3.822  0.3308 -0.4352  0.1382
   13MOL0     C 1654   0.404   2.588   3.907 -0.2887  0.0262  0.6706
   13MOL0     C 1655   0.358   2.586   4.042 -0.8936  0.4526  0.6454
   13MOL0     O 1656   0.384   2.480   4.121 -0.8065 -0.2124  0.1921
   13MOL0     C 1657   0.440   2.506   4.246  0.9825 -0.3503 -0.4926
   13MOL0     C 1658   0.522   2.384   4.306 -0.1432  0.1120  0.9115
   13MOL0     C 1659   0.616   2.413   4.423 -0.1996  2.1324 -0.1268
   13MOL0     C 1660   0.698   2.284   4.455  0.1018 -0.3928  1.3517
   13MOL0     C 1661   0.787   2.313   4.574  0.1041 -0.1232 -0.0007
   13MOL0     C 1662   0.882   2.194   4.607  0.0658 -0.2300 -0.5332
   13MOL0     C 1663   0.830   2.049   4.616 -0.9787 -0.2940 -0.6268
   13MOL0     C 1664   0.943   1.939   4.600 -0.1521 -0.0449 -0.4421
   13MOL0    Cl 1665   0.864   1.782   4.584 -0.2326 -0.1852  0.1512
   13MOL0     C 1666   0.273   2.688   4.079 -0.6419  0.0828 -0.0301
   13MOL0     C 1667   0.238   2.795   3.993 -0.7069 -0.2851 -0.1773
   13MOL0     O 1668   0.447   2.924   3.646  0.0746  0.0833  0.5077
   13MOL0     C 1669   0.377   3.142   3.503  1.1898  0.0435 -0.2152
   13MOL0     C 1670   0.330   3.249   3.432  0.4427 -0.4372 -1.1711
   13MOL0     N 1671   0.095   3.953   3.134 -0.0336 -0.0999  0.2575
   13MOL0     N 1672   0.167   4.042   3.191  0.0409  0.8526  0.9894
   13MOL0     C 1673   0.054   4.398   4.321 -0.3771  0.1736  0.1747
   13MOL0     C 1674   0.165   4.394   4.407 -1.0608 -0.7264  0.7356
   13MOL0     C 1675   0.518   4.393   4.644 -0.2459  0.1835  0.2122
   13MOL0     C 1676   0.535   4.272   4.716 -0.0656  1.0438 -0.8749
   13MOL0     C 1677   0.626   4.262   4.825 -0.3326 -0.4847 -0.3314
   13MOL0     C 1678   0.702   4.372   4.860 -0.3727 -0.0729  0.6750
   13MOL0     O 1679   0.793   4.358   4.957 -0.5179 -0.2290 -0.4652
   13MOL0     C 1680   0.768   4.437   5.074 -0.2050 -0.1849 -0.3401
   13MOL0     C 1681   0.664   4.368   5.160  0.0564 -0.2964  0.6965
   13MOL0     C 1682   0.627   4.449   5.282 -0.6948  0.5298 -0.7281
   13MOL0     C 1683   0.684   4.357   5.397 -0.0803 -0.3953  0.1526
   13MOL0     C 1684   0.828   4.352   5.390 -0.5953 -0.5319  0.7986
   13MOL0     C 1685   0.953   4.344   5.390 -0.7009  0.6573  0.3077
   13MOL0     C 1686   0.698   4.485   4.783 -0.2656 -0.1316  0.1134
   13MOL0     C 1687   0.606   4.502   4.677  1.0050  0.5924  0.1031
   13MOL0     H 1688   0.351   4.147   4.265 -0.8698  0.1522  0.4926
   13MOL0     H 1689   0.152   4.158   4.104 -3.3698  0.4411 -0.3288
   13MOL0     H 1690  -0.230   4.355   4.045 -0.7752  0.3635  0.5675
   13MOL0     H 1691  -0.182   4.466   4.178 -0.5501  1.7891 -1.1202
   13MOL0     H 1692  -0.111   4.577   3.982  0.3941 -0.6113 -1.7621
   13MOL0     H 1693   0.021   4.521   4.073 -0.2330  0.3164 -0.8845
   13MOL0     H 1694   0.082   4.472   3.861  0.5326 -1.9754 -2.8651
   13MOL0     H 1695   0.030   4.315   3.875  7.6509  2.2311  0.4747
   13MOL0     H 1696  -0.206   4.366   3.777 -0.5936 -1.0605 -4.3038
   13MOL0     H 1697  -0.154   4.530   3.755 -0.4799 -0.8735 -1.2126
   13MOL0     H 1698  -0.139   4.434   3.553 -1.9778 -3.9962  1.6873
   13MOL0     H 1699   0.023   4.480   3.604  1.5904 -2.9801 -4.2607
   13MOL0     H 1700   0.099   4.269   3.661 -1.2217 -0.2395  1.2970
   13MOL0     H 1701  -0.055   4.188   3.625  2.7040 -0.5830  3.2169
   13MOL0     H 1702  -0.033   4.230   3.394  2.0233 -0.2528 -1.0668
   13MOL0     H 1703   0.085   4.358   3.408 -0.4564 -0.2987 -0.2376
   13MOL0     H 1704   0.177   4.088   3.507 -1.6121  0.0082 -0.4789
   13MOL0     H 1705   0.252   4.204   3.384  0.1579 -0.3623 -2.5232
   13MOL0     H 1706  -0.083   3.966   3.388 -2.4879  0.6778 -1.8946
   13MOL0     H 1707  -0.188   3.813   3.177  1.2513  1.8781  1.8372
   13MOL0     H 1708  -0.055   3.761   3.070  1.1420 -3.6088  0.3669
   13MOL0     H 1709  -0.142   3.602   3.272 -0.4620  0.7926 -0.3401
   13MOL0     H 1710  -0.066   3.709   3.378 -1.2513 -0.0684 -0.3449
   13MOL0     H 1711   0.146   3.664   3.298 -1.1914  3.3185 -2.5503
   13MOL0     H 1712   0.085   3.579   3.144 -0.3373 -0.5800 -0.4037
   13MOL0     H 1713  -0.008   3.401   3.286 -0.5754  0.9745 -1.7549
   13MOL0     H 1714   0.028   3.479   3.431 -2.1084  2.9960 -1.9469
   13MOL0     H 1715   0.007   3.271   3.510  0.5046 -0.3625 -6.3278
   13MOL0     H 1716   0.019   2.955   3.662  1.5097  0.5849 -0.5405
   13MOL0     H 1717   0.075   3.080   3.785 -0.7352  0.6839  1.4781
   13MOL0     H 1718  -0.062   3.104   3.674 -0.1725  0.4012  0.6740
   13MOL0     H 1719   0.430   2.706   3.726 -1.9308 -0.1293 -1.1064
   13MOL0     H 1720   0.453   2.502   3.862  1.6124  0.8677  1.0456
   13MOL0     H 1721   0.501   2.597   4.247  0.3836  0.1605  2.8839
   13MOL0     H 1722   0.368   2.544   4.318  0.3542 -3.4112  0.6662
   13MOL0     H 1723   0.461   2.301   4.342 -1.2952  1.5553  2.4847
   13MOL0     H 1724   0.589   2.342   4.231  2.9280 -3.2100  5.0320
   13MOL0     H 1725   0.544   2.426   4.505 -3.1722  0.9163 -2.3703
   13MOL0     H 1726   0.680   2.500   4.404 -0.0732  1.6837 -1.9549
   13MOL0     H 1727   0.629   2.200   4.469  0.9685 -0.8504  3.1237
   13MOL0     H 1728   0.763   2.260   4.370  0.1115 -0.9786  1.5159
   13MOL0     H 1729   0.737   2.333   4.669  0.1216 -0.2074  0.0265
   13MOL0     H 1730   0.860   2.387   4.542  2.3381 -2.4328 -0.6348
   13MOL0     H 1731   0.957   2.192   4.528  0.2456  0.4691 -0.3802
   13MOL0     H 1732   0.929   2.214   4.703 -2.5957  0.0389  0.8048
   13MOL0     H 1733   0.761   2.035   4.533  2.2400 -1.2848 -3.3495
   13MOL0     H 1734   0.777   2.023   4.709  1.5790 -0.6138  0.8312
   13MOL0     H 1735   1.013   1.930   4.683  1.7599 -2.4788 -2.1634
   13MOL0     H 1736   0.996   1.960   4.506 -1.2582 -2.2190 -1.6376
   13MOL0     H 1737   0.230   2.680   4.178  1.0707  2.3009  0.9885
   13MOL0     H 1738   0.178   2.883   4.012 -1.1678 -0.5775 -0.2705
   13MOL0     H 1739   0.484   3.126   3.493  1.2337 -0.0020  0.2842
   13MOL0     H 1740   0.405   3.291   3.366 -0.3156 -0.0059 -1.7722
   13MOL0     H 1741  -0.034   4.448   4.361  1.4198  2.9885  0.9286
   13MOL0     H 1742   0.173   4.455   4.496  0.4404 -0.1006  0.2053
   13MOL0     H 1743   0.481   4.180   4.696  1.7205 -0.2711  0.0353
   13MOL0     H 1744   0.649   4.180   4.892 -1.5438  1.1056  2.2140
   13MOL0     H 1745   0.861   4.456   5.127  0.6049 -0.0214 -1.7618
   13MOL0     H 1746   0.724   4.534   5.048 -1.1782 -0.9556 -1.7367
   13MOL0     H 1747   0.700   4.266   5.175  0.2427 -0.7260 -2.1231
   13MOL0     H 1748   0.566   4.359   5.112  1.3061  2.5033 -2.8385
   13MOL0     H 1749   0.522   4.447   5.312  0.0305 -0.5233  2.1134
   13MOL0     H 1750   0.672   4.549   5.286 -1.4502  0.8703 -0.5145
   13MOL0     H 1751   0.650   4.253   5.396  0.7657 -0.6835  0.5161
   13MOL0     H 1752   0.644   4.395   5.491  3.1175 -1.7215  2.1877
   13MOL0     H 1753   1.060   4.332   5.387 -0.6791 -0.1169  2.3272
   13MOL0     H 1754   0.780   4.555   4.797  1.8560 -2.6048  0.9618
   13MOL0     H 1755   0.609   4.595   4.621  0.0661 -0.0755 -1.1084
   14MOL0     O 1756   9.620   9.290   1.939  0.0712 -0.1849 -0.4563
   14MOL0     C 1757   9.672   9.262   2.049 -1.4422  0.7264  0.4018
   14MOL0     O 1758   9.614   9.199   2.150  0.1731 -0.0219 -0.2778
   14MOL0     C 1759   9.482   9.154   2.123 -0.7395  0.1754  0.2720
   14MOL0     C 1760   9.374   9.239   2.167 -0.6639  0.2345  0.5482
   14MOL0     C 1761   9.243   9.192   2.165  0.6232  0.4571  0.0925
   14MOL0     C 1762   9.216   9.069   2.107 -0.9242 -0.2406  0.8958
   14MOL0     O 1763   9.091   9.013   2.118  0.0511 -0.4348 -0.9162
   14MOL0     C 1764   9.036   8.999   2.250 -0.4012  0.8172 -0.4132
   14MOL0     C 1765   9.133   8.929   2.359  0.1222  0.7945 -0.3876
   14MOL0     C 1766   9.148   8.782   2.320 -0.4077 -0.0455  1.3458
   14MOL0     C 1767   9.231   8.696   2.422 -0.7059  0.9205  0.4966
   14MOL0     C 1768   9.228   8.550   2.388 -0.5112 -0.5220  0.3891
   14MOL0     C 1769   9.279   8.463   2.511  1.5206  0.5020  0.8397
   14MOL0     C 1770   9.306   8.318   2.479 -0.2745  0.2284 -0.2831
   14MOL0     C 1771   9.185   8.239   2.431 -0.1568  0.7701  0.5536
   14MOL0     N 1772   9.065   8.244   2.523  0.7680  0.4086 -0.7963
   14MOL0     C 1773   8.941   8.301   2.510  0.6501  0.6422  0.8814
   14MOL0     C 1774   8.863   8.229   2.592  0.0795  0.6051  0.3613
   14MOL0     C 1775   8.716   8.230   2.609  0.0877  0.5329  0.7127
   14MOL0     C 1776   8.670   8.354   2.677 -0.4647 -0.1617 -0.2044
   14MOL0     C 1777   8.528   8.322   2.741 -0.8851 -0.4038 -0.1806
   14MOL0     C 1778   8.413   8.276   2.657 -0.1994  0.0038 -0.2256
   14MOL0     O 1779   8.296   8.249   2.737 -0.5099 -0.2165  0.4852
   14MOL0     C 1780   8.218   8.149   2.701  0.7673 -0.1500  0.3713
   14MOL0     C 1781   8.155   8.128   2.577 -0.1762  0.3511 -0.4683
   14MOL0     C 1782   8.065   8.025   2.563 -0.4551  0.6538  0.9176
   14MOL0     C 1783   8.011   8.008   2.422  0.3086  0.9330  0.1137
   14MOL0     C 1784   8.025   7.942   2.677 -0.9264  0.0614 -0.4931
   14MOL0     C 1785   7.906   7.851   2.684 -0.2913 -0.0158  0.3148
   14MOL0     O 1786   7.876   7.805   2.814  0.0086 -0.1556 -0.1757
   14MOL0     C 1787   7.763   7.719   2.830  0.1017 -0.6113  0.3059
   14MOL0     C 1788   7.756   7.595   2.774  0.5511  0.5070 -0.4994
   14MOL0     C 1789   7.641   7.516   2.790 -0.2350 -0.7038 -0.3462
   14MOL0     C 1790   7.535   7.553   2.876 -0.4282 -0.8883  1.1776
   14MOL0     O 1791   7.442   7.450   2.905  0.2057  0.2222  0.0500
   14MOL0     C 1792   7.336   7.473   2.999 -0.1380 -0.2971 -0.3180
   14MOL0     C 1793   7.211   7.395   2.950 -0.6438 -0.5276 -0.0173
   14MOL0     C 1794   7.102   7.503   2.932  0.5609  0.5916  0.3318
   14MOL0     C 1795   7.130   7.600   2.816 -0.3570  0.8658  0.7126
   14MOL0     C 1796   7.029   7.704   2.787 -0.1385 -0.3921  0.2317
   14MOL0     C 1797   6.967   7.787   2.905  0.2227 -0.1922  0.0316
   14MOL0     C 1798   7.066   7.892   2.962  0.5204 -0.0890 -0.1931
   14MOL0     C 1799   6.999   7.967   3.080  0.5442  0.0429 -0.7808
   14MOL0    Cl 1800   6.896   8.098   3.010  0.2277 -0.0042 -0.1810
   14MOL0     C 1801   7.539   7.688   2.927 -0.3338  0.3849 -0.2447
   14MOL0     C 1802   7.655   7.769   2.904  0.1203 -0.1235 -0.2527
   14MOL0     O 1803   7.854   7.813   2.583  0.7298 -0.1676  0.1539
   14MOL0     C 1804   8.105   7.961   2.793 -0.3275 -0.8304 -0.5117
   14MOL0     C 1805   8.194   8.063   2.804  0.2825  0.6810 -0.1986
   14MOL0     N 1806   8.939   8.150   2.669 -0.1752 -0.0763 -0.3625
   14MOL0     N 1807   9.062   8.157   2.634  0.3907 -0.3373  0.2719
   14MOL0     C 1808   9.320   8.996   2.049 -0.5068 -0.0301 -0.6880
   14MOL0     C 1809   9.452   9.030   2.067 -0.3877  0.2611  1.2796
   14MOL0     C 1810   9.814   9.315   2.066  0.3005 -0.4051 -1.2035
   14MOL0     C 1811   9.877   9.302   2.190  0.2192 -0.4782 -0.3048
   14MOL0     C 1812  10.009   9.345   2.207  0.2390  0.7565  0.5693
   14MOL0     C 1813  10.072   9.412   2.102 -0.1795  1.0207  0.8385
   14MOL0     O 1814  10.197   9.475   2.114 -0.6036  0.1886 -0.2599
   14MOL0     C 1815  10.261   9.470   2.243  0.4601  0.0850 -0.0212
   14MOL0     C 1816  10.351   9.587   2.242 -1.0787 -0.4690  0.1046
   14MOL0     C 1817  10.390   9.604   2.394  0.8082 -0.6346 -0.8580
   14MOL0     C 1818  10.462   9.739   2.430 -0.4385  0.4343 -0.5826
   14MOL0     C 1819  10.493   9.731   2.571  0.8500  0.7948  0.9069
   14MOL0     C 1820  10.515   9.710   2.688 -1.8016  0.1167  0.1566
   14MOL0     C 1821  10.011   9.421   1.978  0.5071 -0.2508 -0.5515
   14MOL0     C 1822   9.884   9.369   1.958 -0.2735 -0.6997  0.4753
   14MOL0     H 1823   9.400   9.339   2.200 -0.0026  0.1159  0.3968
   14MOL0     H 1824   9.166   9.260   2.200  1.2223 -0.4404  3.5203
   14MOL0     H 1825   9.002   9.097   2.284 -0.7570 -0.6430  3.9675
   14MOL0     H 1826   8.947   8.935   2.248 -1.3985  2.0794  1.3726
   14MOL0     H 1827   9.228   8.981   2.375  1.3390 -1.1318 -1.0752
   14MOL0     H 1828   9.080   8.927   2.455 -0.7129 -0.4609 -0.8459
   14MOL0     H 1829   9.053   8.731   2.302  0.1499 -0.3338 -1.2510
   14MOL0     H 1830   9.202   8.788   2.225 -1.7795  0.7620  0.5962
   14MOL0     H 1831   9.334   8.733   2.433 -1.2562  1.8162  3.6484
   14MOL0     H 1832   9.189   8.699   2.523  1.7624 -1.0727  1.6959
   14MOL0     H 1833   9.127   8.519   2.359 -0.8945  1.6029 -0.7561
   14MOL0     H 1834   9.295   8.533   2.303 -1.2928 -0.1676 -0.3206
   14MOL0     H 1835   9.363   8.504   2.566 -0.1482  1.9720  2.4396
   14MOL0     H 1836   9.202   8.472   2.588  1.3364  2.1134  0.5162
   14MOL0     H 1837   9.383   8.318   2.402  1.2945  1.4725  1.2040
   14MOL0     H 1838   9.357   8.278   2.567  0.2686 -0.8879 -1.0753
   14MOL0     H 1839   9.195   8.131   2.416 -2.7913  0.4540  0.5527
   14MOL0     H 1840   9.150   8.286   2.339  1.1842 -0.4284 -0.6264
   14MOL0     H 1841   8.916   8.379   2.438 -0.2650 -3.0473 -3.2708
   14MOL0     H 1842   8.670   8.223   2.510  2.1953 -3.7347 -0.2224
   14MOL0     H 1843   8.679   8.143   2.665  0.6633 -0.3070 -0.1779
   14MOL0     H 1844   8.658   8.443   2.614 -0.7133 -1.5479 -2.2109
   14MOL0     H 1845   8.741   8.383   2.754 -0.0271 -1.0108 -0.2782
   14MOL0     H 1846   8.508   8.416   2.792 -0.4619 -0.1798 -0.4202
   14MOL0     H 1847   8.543   8.241   2.813  3.3879  0.8050  0.6011
   14MOL0     H 1848   8.443   8.200   2.584  3.0478  0.8383  0.1038
   14MOL0     H 1849   8.385   8.367   2.604 -0.2225  0.0564 -0.1246
   14MOL0     H 1850   8.185   8.191   2.494 -1.5385 -1.6330 -2.6186
   14MOL0     H 1851   8.001   8.111   2.387 -3.9553  0.2571 -1.2398
   14MOL0     H 1852   8.082   7.953   2.360 -0.6217  0.4049 -0.5093
   14MOL0     H 1853   7.914   7.959   2.410  1.2540 -0.7936 -0.8416
   14MOL0     H 1854   7.829   7.563   2.700  0.6608  1.4431 -0.8025
   14MOL0     H 1855   7.630   7.416   2.748 -4.5016 -1.4544  1.8855
   14MOL0     H 1856   7.352   7.440   3.101  0.0084 -1.5387 -0.7309
   14MOL0     H 1857   7.310   7.579   3.012 -0.8462 -0.6216  1.0761
   14MOL0     H 1858   7.234   7.351   2.853 -0.9360  0.5859 -0.6037
   14MOL0     H 1859   7.195   7.316   3.024  1.2965  0.6464  1.7796
   14MOL0     H 1860   7.090   7.568   3.019  2.8218  2.2292 -0.4685
   14MOL0     H 1861   7.007   7.452   2.913  0.6350  0.7992 -0.6777
   14MOL0     H 1862   7.226   7.651   2.824  0.3823 -0.3238 -0.3253
   14MOL0     H 1863   7.134   7.535   2.728 -1.3094  2.0266 -0.2213
   14MOL0     H 1864   6.945   7.660   2.732 -1.2726  1.0957  0.7154
   14MOL0     H 1865   7.076   7.765   2.709 -4.4970  1.0143 -1.6260
   14MOL0     H 1866   6.885   7.851   2.872  1.6732  3.5584  3.0319
   14MOL0     H 1867   6.939   7.715   2.983  4.3381 -2.0788  0.0150
   14MOL0     H 1868   7.086   7.962   2.880  0.9836  1.4021  1.1308
   14MOL0     H 1869   7.154   7.832   2.987 -0.1587 -1.3304 -0.7198
   14MOL0     H 1870   7.075   8.015   3.143  1.0184  1.2525 -2.2134
   14MOL0     H 1871   6.938   7.898   3.140  2.6983 -0.4322  1.0089
   14MOL0     H 1872   7.450   7.726   2.976 -0.6621 -0.5983 -0.0637
   14MOL0     H 1873   7.655   7.873   2.936  1.5348  0.7147 -2.6846
   14MOL0     H 1874   8.097   7.909   2.888  0.9236 -1.0534 -0.5176
   14MOL0     H 1875   8.251   8.096   2.890 -1.2812  1.8068  0.4442
   14MOL0     H 1876   9.280   8.905   2.007 -2.3453  0.6953 -0.6332
   14MOL0     H 1877   9.529   8.968   2.023  1.3949  3.1413  0.0425
   14MOL0     H 1878   9.823   9.262   2.275 -0.4689 -0.9679 -0.9571
   14MOL0     H 1879  10.054   9.333   2.305  2.9185 -0.3438 -0.6928
   14MOL0     H 1880  10.182   9.486   2.317 -2.8499  2.4658 -3.6668
   14MOL0     H 1881  10.323   9.383   2.267  0.3848 -0.0462 -0.2957
   14MOL0     H 1882  10.301   9.679   2.210 -1.0664 -0.5021 -0.0104
   14MOL0     H 1883  10.434   9.559   2.177 -1.3469 -0.2366 -0.3408
   14MOL0     H 1884  10.454   9.519   2.420 -1.5039 -2.3189 -0.3227
   14MOL0     H 1885  10.298   9.599   2.453  0.5523  0.2991 -1.1616
   14MOL0     H 1886  10.412   9.835   2.411  0.2369  1.1052  0.8841
   14MOL0     H 1887  10.561   9.737   2.384  1.0075 -0.8096  2.3279
   14MOL0     H 1888  10.536   9.688   2.791  3.2136  1.2817 -0.3327
   14MOL0     H 1889  10.070   9.465   1.898  1.7913 -0.8351  0.0342
   14MOL0     H 1890   9.846   9.374   1.857 -3.1161 -1.1355  1.4335
   15MOL0     O 1891  10.021  10.707   4.214 -0.5416  0.6500 -0.6603
   15MOL0     C 1892  10.066  10.683   4.321 -1.0881  0.5546 -0.5471
   15MOL0     O 1893   9.997  10.700   4.442 -0.1682  0.2209  0.6004
   15MOL0     C 1894   9.876  10.760   4.440 -0.3405 -0.0396  0.7892
   15MOL0     C 1895   9.849  10.865   4.517  0.1708 -0.2574 -0.3185
   15MOL0     C 1896   9.723  10.929   4.527  0.4835 -1.3244  0.2618
   15MOL0     C 1897   9.620  10.867   4.451  0.2174 -0.1256 -0.1699
   15MOL0     O 1898   9.488  10.930   4.443 -0.2188  0.3012 -0.2906
   15MOL0     C 1899   9.480  11.062   4.398  0.3874 -0.0741  1.3719
   15MOL0     C 1900   9.373  11.135   4.482  0.4527  0.2939  0.4492
   15MOL0     C 1901   9.374  11.131   4.631 -0.8022  0.7437  0.1064
   15MOL0     C 1902   9.489  11.206   4.697  0.5007  0.0477 -1.1468
   15MOL0     C 1903   9.505  11.154   4.842  0.1869 -0.3563  0.2718
   15MOL0     C 1904   9.374  11.159   4.921  1.1368  0.8775  0.0078
   15MOL0     C 1905   9.402  11.148   5.071 -0.2624  0.4504 -0.3007
   15MOL0     C 1906   9.269  11.122   5.147  0.6040 -0.5285  0.0529
   15MOL0     N 1907   9.268  11.139   5.297  0.5333  1.0010  0.4521
   15MOL0     C 1908   9.144  11.128   5.359 -0.0273 -0.1876  0.1416
   15MOL0     C 1909   9.179  11.107   5.488  0.2248  0.1636 -0.4108
   15MOL0     C 1910   9.081  11.099   5.601  0.1634  1.1334  0.1506
   15MOL0     C 1911   9.116  11.221   5.691  0.4220  0.0014  0.0781
   15MOL0     C 1912   9.084  11.367   5.629 -0.1765 -0.2387  0.6977
   15MOL0     C 1913   8.937  11.387   5.591 -0.2347 -0.0745  0.4125
   15MOL0     O 1914   8.954  11.471   5.470 -0.0253  0.3650 -1.0822
   15MOL0     C 1915   8.848  11.480   5.391  0.2001 -0.7657 -0.0384
   15MOL0     C 1916   8.875  11.523   5.269 -0.7495  0.0271 -1.3556
   15MOL0     C 1917   8.768  11.543   5.177 -0.2314  0.4469 -0.5582
   15MOL0     C 1918   8.803  11.578   5.041 -0.7993 -0.5861  0.4664
   15MOL0     C 1919   8.632  11.537   5.224 -0.6846 -1.1146  0.6422
   15MOL0     C 1920   8.513  11.561   5.136  0.1051  0.1616 -0.1940
   15MOL0     O 1921   8.528  11.610   5.009  0.3249 -0.5510 -0.1197
   15MOL0     C 1922   8.451  11.714   4.962  0.1085  0.5165 -0.6124
   15MOL0     C 1923   8.364  11.789   5.040 -0.3648 -0.1751  0.5866
   15MOL0     C 1924   8.285  11.882   4.975  0.1546  0.7361  0.5660
   15MOL0     C 1925   8.303  11.906   4.839 -0.3478 -0.7255 -0.7082
   15MOL0     O 1926   8.235  12.004   4.775 -0.2969  0.5886  0.3769
   15MOL0     C 1927   8.137  12.093   4.845  0.5530 -0.5210  0.0704
   15MOL0     C 1928   8.208  12.206   4.923  0.0899  0.5202  0.1773
   15MOL0     C 1929   8.106  12.301   4.999 -0.1705 -0.4669  0.1938
   15MOL0     C 1930   8.177  12.430   5.039  0.3772 -0.4457 -0.3957
   15MOL0     C 1931   8.234  12.537   4.940  0.7558 -0.4390  0.9194
   15MOL0     C 1932   8.118  12.599   4.856  0.6344  0.1961  0.1111
   15MOL0     C 1933   8.174  12.694   4.745 -0.8843  0.6119 -0.1521
   15MOL0     C 1934   8.064  12.748   4.647 -1.2513 -0.0228  0.4762
   15MOL0    Cl 1935   7.960  12.616   4.573  0.7331  0.4213 -0.3233
   15MOL0     C 1936   8.379  11.819   4.761  1.2711 -0.9731 -0.0517
   15MOL0     C 1937   8.459  11.725   4.821 -0.1921  0.6071  0.2954
   15MOL0     O 1938   8.411  11.524   5.195 -0.1879 -0.1736 -0.4864
   15MOL0     C 1939   8.613  11.499   5.355 -0.3825  0.2371 -0.3129
   15MOL0     C 1940   8.720  11.467   5.442  0.6834 -0.7961  0.0969
   15MOL0     N 1941   9.319  11.091   5.500  0.0055 -0.6636 -0.3363
   15MOL0     N 1942   9.370  11.114   5.385  0.0797 -0.0093  0.3490
   15MOL0     C 1943   9.645  10.763   4.374 -0.1611  0.3716  1.0061
   15MOL0     C 1944   9.773  10.710   4.362 -0.7807  0.1156  0.1261
   15MOL0     C 1945  10.206  10.644   4.334 -0.5039 -0.2160  1.2319
   15MOL0     C 1946  10.271  10.659   4.454  0.6804  0.1040 -0.2453
   15MOL0     C 1947  10.408  10.632   4.467 -0.0228  0.5641 -0.0157
   15MOL0     C 1948  10.485  10.591   4.352 -0.4459  0.6681  1.0364
   15MOL0     O 1949  10.616  10.560   4.352 -0.9496 -0.7923 -0.0176
   15MOL0     C 1950  10.697  10.613   4.463  0.5876  0.2936 -0.6562
   15MOL0     C 1951  10.841  10.560   4.472  0.0520 -0.0344  0.3140
   15MOL0     C 1952  10.888  10.548   4.616 -0.0442  0.5714 -0.8920
   15MOL0     C 1953  11.035  10.513   4.648  0.8489  0.3006 -0.1234
   15MOL0     C 1954  11.071  10.388   4.581 -0.5535 -0.1839 -0.1877
   15MOL0     C 1955  11.082  10.268   4.541  0.0882 -0.4630 -0.8150
   15MOL0     C 1956  10.423  10.570   4.223  0.1936 -0.3439 -0.5006
   15MOL0     C 1957  10.283  10.591   4.219 -0.1355 -0.1549  0.2236
   15MOL0     H 1958   9.936  10.909   4.564 -0.3101  2.3683 -1.6585
   15MOL0     H 1959   9.711  11.027   4.572 -1.6582 -1.0894 -0.6970
   15MOL0     H 1960   9.573  11.117   4.421  1.5055 -0.8904 -0.8652
   15MOL0     H 1961   9.466  11.057   4.289 -0.1938 -3.7249  1.4885
   15MOL0     H 1962   9.375  11.243   4.461 -0.0409  0.2799  0.3186
   15MOL0     H 1963   9.275  11.093   4.458 -0.2964  2.4339 -0.4940
   15MOL0     H 1964   9.279  11.164   4.675 -1.8718 -0.2024 -1.3805
   15MOL0     H 1965   9.380  11.024   4.657 -1.6165  0.8698  0.9044
   15MOL0     H 1966   9.583  11.206   4.642 -0.6585  4.4708 -3.6289
   15MOL0     H 1967   9.461  11.312   4.699  1.5814  0.3567 -1.7693
   15MOL0     H 1968   9.539  11.050   4.836 -0.1722 -0.4733  0.2545
   15MOL0     H 1969   9.594  11.204   4.882 -0.0262  1.0796 -0.9422
   15MOL0     H 1970   9.323  11.253   4.897 -1.3565 -0.7152 -1.4663
   15MOL0     H 1971   9.310  11.072   4.903 -1.0038  1.5653  3.3845
   15MOL0     H 1972   9.462  11.059   5.090 -2.3077 -0.8599  0.3543
   15MOL0     H 1973   9.447  11.238   5.114 -0.7349  0.0395  1.0929
   15MOL0     H 1974   9.239  11.018   5.133 -2.4199 -0.3488  3.5951
   15MOL0     H 1975   9.189  11.173   5.092 -1.3215  0.1367  3.2227
   15MOL0     H 1976   9.040  11.128   5.329  0.6592 -0.6468 -2.4750
   15MOL0     H 1977   8.975  11.097   5.573 -0.9849  0.4483  3.9242
   15MOL0     H 1978   9.093  11.002   5.650 -0.3999 -0.1798 -2.1641
   15MOL0     H 1979   9.223  11.221   5.715 -0.0049  0.7721  2.2085
   15MOL0     H 1980   9.071  11.221   5.790  1.5321  1.0548  0.6153
   15MOL0     H 1981   9.161  11.378   5.551 -1.5570  0.7307 -0.5800
   15MOL0     H 1982   9.104  11.452   5.695  0.1870  1.1948 -1.1514
   15MOL0     H 1983   8.886  11.446   5.667  0.4020  1.6634 -0.4376
   15MOL0     H 1984   8.884  11.294   5.567  1.3889 -0.6483 -1.1687
   15MOL0     H 1985   8.980  11.521   5.242 -1.1615 -0.8383 -2.9887
   15MOL0     H 1986   8.910  11.587   5.019 -0.9890 -0.7876 -0.5710
   15MOL0     H 1987   8.759  11.514   4.965  1.1989 -0.9648 -0.4408
   15MOL0     H 1988   8.766  11.677   5.013 -1.9163 -1.0196  0.3757
   15MOL0     H 1989   8.354  11.784   5.147  1.8533 -1.3197  0.7948
   15MOL0     H 1990   8.219  11.949   5.029 -0.6892  0.0191  0.4378
   15MOL0     H 1991   8.079  12.145   4.769 -0.9806 -0.7897  1.0004
   15MOL0     H 1992   8.053  12.048   4.899  1.6675 -1.2379  1.2913
   15MOL0     H 1993   8.280  12.165   4.994  2.0414  1.3467 -1.2046
   15MOL0     H 1994   8.267  12.261   4.848 -0.8981  2.6650  0.9018
   15MOL0     H 1995   8.056  12.259   5.087 -1.2753  0.1886 -0.1055
   15MOL0     H 1996   8.028  12.329   4.929 -2.3631  0.7416  2.9495
   15MOL0     H 1997   8.106  12.484   5.102 -0.3441  0.9875 -2.3382
   15MOL0     H 1998   8.266  12.415   5.101  0.9611  0.9866 -0.8487
   15MOL0     H 1999   8.306  12.493   4.871  2.6708  2.9971  0.4897
   15MOL0     H 2000   8.274  12.629   4.983 -1.3226  1.5182 -1.0856
   15MOL0     H 2001   8.073  12.517   4.798  1.7079 -0.4059  0.1027
   15MOL0     H 2002   8.039  12.644   4.916  0.6832  0.5938 -0.1214
   15MOL0     H 2003   8.260  12.647   4.697 -0.2629  2.3387 -0.7942
   15MOL0     H 2004   8.224  12.776   4.797  3.7387 -3.0980  2.0433
   15MOL0     H 2005   8.101  12.792   4.553 -1.0904 -1.9787 -0.4261
   15MOL0     H 2006   8.002  12.826   4.691 -1.1838  0.9522 -1.0773
   15MOL0     H 2007   8.388  11.860   4.661  0.3199  2.0184  0.9914
   15MOL0     H 2008   8.522  11.669   4.754 -0.4541  2.2719 -1.4382
   15MOL0     H 2009   8.511  11.488   5.391 -0.1836 -0.8801 -0.0717
   15MOL0     H 2010   8.693  11.430   5.541 -0.1186 -2.4120 -0.6850
   15MOL0     H 2011   9.557  10.721   4.325  0.5814  1.2077 -1.1476
   15MOL0     H 2012   9.800  10.632   4.292  0.3460 -0.6974  1.3996
   15MOL0     H 2013  10.210  10.690   4.538  0.9919 -1.6199  0.6749
   15MOL0     H 2014  10.449  10.633   4.568  2.3687 -1.7138 -0.8677
   15MOL0     H 2015  10.707  10.720   4.447 -0.5971  0.4877 -0.1754
   15MOL0     H 2016  10.653  10.589   4.560 -0.2287  0.8391 -0.8855
   15MOL0     H 2017  10.897  10.641   4.425 -0.4502 -0.6697 -1.4497
   15MOL0     H 2018  10.857  10.469   4.414  0.9051 -0.6313  1.4440
   15MOL0     H 2019  10.827  10.477   4.671  0.0942  1.7734  0.8855
   15MOL0     H 2020  10.864  10.643   4.664 -4.2719 -0.4541 -0.6356
   15MOL0     H 2021  11.050  10.491   4.754  0.7451 -2.6942 -0.6397
   15MOL0     H 2022  11.106  10.590   4.616  1.3698  1.0683  2.5712
   15MOL0     H 2023  11.074  10.164   4.516 -1.1207 -0.8930  1.1423
   15MOL0     H 2024  10.480  10.550   4.134 -1.1456 -0.4570 -1.3497
   15MOL0     H 2025  10.223  10.572   4.131 -2.7409  0.6753  1.7220
   16MOL0     O 2026   9.837   1.781   5.421 -0.0803 -0.4792 -0.4530
   16MOL0     C 2027   9.792   1.667   5.392 -0.3461 -0.4005 -1.0517
   16MOL0     O 2028   9.831   1.586   5.289 -0.0478  1.0709  0.4051
   16MOL0     C 2029   9.937   1.609   5.208 -0.0054 -0.2175  0.3216
   16MOL0     C 2030  10.038   1.707   5.220 -0.6189  0.7611  0.0460
   16MOL0     C 2031  10.142   1.714   5.133 -0.1284  0.1191 -0.7799
   16MOL0     C 2032  10.134   1.630   5.015  1.7433 -0.2266 -0.7288
   16MOL0     O 2033  10.223   1.671   4.924 -0.1167 -0.0645 -0.4105
   16MOL0     C 2034  10.225   1.608   4.798  0.5169 -0.0865  0.2904
   16MOL0     C 2035  10.329   1.680   4.718  0.1349  0.0837  0.0562
   16MOL0     C 2036  10.338   1.624   4.575  0.2179  0.8975 -0.3590
   16MOL0     C 2037  10.428   1.711   4.481  0.1384 -0.3018  1.2586
   16MOL0     C 2038  10.402   1.669   4.334  0.2505 -0.0271 -0.5616
   16MOL0     C 2039  10.429   1.509   4.309 -0.4781 -0.6949 -0.1871
   16MOL0     C 2040  10.414   1.459   4.165 -1.4908 -0.1005 -0.3076
   16MOL0     C 2041  10.278   1.487   4.100  0.1290  0.2717 -0.1152
   16MOL0     N 2042  10.282   1.419   3.966  0.1188 -0.2685 -0.6238
   16MOL0     C 2043  10.305   1.480   3.848 -0.6812 -1.0514  0.3789
   16MOL0     C 2044  10.259   1.383   3.759  0.1697  1.0470 -1.1242
   16MOL0     C 2045  10.256   1.395   3.615  1.1361  0.9312  0.5764
   16MOL0     C 2046  10.363   1.483   3.553  0.3157 -0.7943 -0.4140
   16MOL0     C 2047  10.499   1.416   3.555  0.5256  0.7076 -0.2380
   16MOL0     C 2048  10.610   1.493   3.491 -1.1800 -0.9779  0.7976
   16MOL0     O 2049  10.591   1.506   3.346  0.4273 -0.6176  0.8953
   16MOL0     C 2050  10.689   1.565   3.270  0.5515 -0.7660  0.1392
   16MOL0     C 2051  10.793   1.624   3.332 -0.0255 -1.0293 -0.2406
   16MOL0     C 2052  10.900   1.678   3.263  0.3128 -0.1348 -0.0145
   16MOL0     C 2053  11.015   1.727   3.353 -0.5447 -0.0071  0.7223
   16MOL0     C 2054  10.907   1.676   3.126 -0.8191  0.4462  0.5739
   16MOL0     C 2055  11.022   1.720   3.045 -0.3962  0.1690 -1.0218
   16MOL0     O 2056  10.991   1.739   2.912 -0.1854 -0.5396 -0.4304
   16MOL0     C 2057  11.079   1.739   2.803 -0.4915  0.3769  1.0220
   16MOL0     C 2058  11.057   1.816   2.689 -0.9928 -0.5432  0.5987
   16MOL0     C 2059  11.135   1.811   2.574  0.6954  0.7176  0.2443
   16MOL0     C 2060  11.247   1.738   2.571 -1.4621 -0.4175 -0.4329
   16MOL0     O 2061  11.327   1.721   2.455  0.8074 -0.6085  0.3714
   16MOL0     C 2062  11.401   1.599   2.441  0.3787  1.1651  0.1872
   16MOL0     C 2063  11.442   1.579   2.296 -0.2808 -0.1695 -0.2787
   16MOL0     C 2064  11.551   1.680   2.264 -0.0237 -0.2730  0.0192
   16MOL0     C 2065  11.627   1.638   2.143 -0.3560  0.7324 -0.2394
   16MOL0     C 2066  11.724   1.749   2.097 -0.5538  0.0167 -0.5073
   16MOL0     C 2067  11.662   1.839   1.988  0.6870 -0.8401 -0.6665
   16MOL0     C 2068  11.549   1.933   2.031  0.4780  0.8525  0.7060
   16MOL0     C 2069  11.501   2.015   1.909  0.2108 -0.3357 -0.8551
   16MOL0    Cl 2070  11.433   1.898   1.781  0.2709 -0.1708  0.5787
   16MOL0     C 2071  11.285   1.665   2.683  0.3690  0.8143 -0.8248
   16MOL0     C 2072  11.209   1.677   2.805  0.1494  0.1751  1.2618
   16MOL0     O 2073  11.132   1.698   3.090  0.0011 -0.3931 -0.2488
   16MOL0     C 2074  10.795   1.617   3.057  0.6943  0.4382  0.4741
   16MOL0     C 2075  10.683   1.561   3.125 -0.9295  0.1912  0.2244
   16MOL0     N 2076  10.208   1.269   3.830  0.4160  0.2087  0.3773
   16MOL0     N 2077  10.213   1.300   3.954 -0.5688 -0.0275 -1.4204
   16MOL0     C 2078  10.027   1.532   4.998 -0.1306  0.5161 -0.5249
   16MOL0     C 2079   9.941   1.521   5.102 -0.8013 -0.4067 -0.4580
   16MOL0     C 2080   9.687   1.624   5.482  0.7353  0.1591  1.1427
   16MOL0     C 2081   9.663   1.684   5.598 -0.6431  0.2067 -0.0741
   16MOL0     C 2082   9.564   1.646   5.688 -0.2128  0.1566  0.3890
   16MOL0     C 2083   9.474   1.545   5.645  0.0351 -0.0874 -0.7752
   16MOL0     O 2084   9.368   1.510   5.728  0.4765 -0.6367  0.1822
   16MOL0     C 2085   9.281   1.611   5.776 -0.0143  0.1365 -0.0110
   16MOL0     C 2086   9.163   1.551   5.856 -0.5093  0.1000  0.0853
   16MOL0     C 2087   9.210   1.467   5.972 -0.3284  0.2192  0.5555
   16MOL0     C 2088   9.111   1.451   6.084  1.0428 -0.6308  0.2231
   16MOL0     C 2089   8.997   1.364   6.042  0.4636  0.2705  0.4110
   16MOL0     C 2090   8.905   1.290   6.016 -0.6067  0.7004  0.1840
   16MOL0     C 2091   9.490   1.477   5.526 -0.4328  0.5647  0.4027
   16MOL0     C 2092   9.597   1.516   5.449  0.3257 -0.3894 -0.6610
   16MOL0     H 2093  10.044   1.757   5.316 -0.3794 -0.9451  0.9754
   16MOL0     H 2094  10.224   1.777   5.167  0.5414 -1.2448  0.2887
   16MOL0     H 2095  10.241   1.500   4.801 -0.1856 -0.3256 -2.1848
   16MOL0     H 2096  10.131   1.633   4.747 -0.4805  1.2625  2.6365
   16MOL0     H 2097  10.324   1.789   4.723 -0.1300  0.0493  0.7242
   16MOL0     H 2098  10.426   1.652   4.761  1.1890  1.2825 -1.4198
   16MOL0     H 2099  10.377   1.523   4.588  1.3520  1.5021  1.2928
   16MOL0     H 2100  10.236   1.635   4.536  0.5320  2.4344 -0.8317
   16MOL0     H 2101  10.399   1.816   4.484 -0.4781 -0.4472  0.7536
   16MOL0     H 2102  10.536   1.707   4.497  0.6395  2.4558 -0.8123
   16MOL0     H 2103  10.299   1.690   4.303  0.2605  1.1450  0.1287
   16MOL0     H 2104  10.458   1.738   4.270 -2.0614  2.8788  0.3291
   16MOL0     H 2105  10.532   1.482   4.333 -0.5091 -1.4833 -0.8838
   16MOL0     H 2106  10.362   1.451   4.373  0.7336 -1.1843  0.6725
   16MOL0     H 2107  10.492   1.492   4.095 -1.7381  2.3306  0.5070
   16MOL0     H 2108  10.437   1.353   4.178  1.6683  0.5264 -0.0535
   16MOL0     H 2109  10.253   1.593   4.099 -2.2081 -0.1734  1.7220
   16MOL0     H 2110  10.191   1.449   4.155 -0.3063  1.0878 -0.2186
   16MOL0     H 2111  10.351   1.578   3.836 -4.7878  1.5076  3.2432
   16MOL0     H 2112  10.279   1.294   3.581  0.2666  1.0523 -0.4351
   16MOL0     H 2113  10.158   1.426   3.577 -1.0504 -3.0006  2.4190
   16MOL0     H 2114  10.371   1.582   3.601 -1.0709 -0.7153 -0.3022
   16MOL0     H 2115  10.334   1.493   3.448  2.4528 -1.6841 -1.1382
   16MOL0     H 2116  10.482   1.315   3.517  1.0439 -0.2474  1.8844
   16MOL0     H 2117  10.517   1.403   3.662 -1.4201  0.7010  0.1228
   16MOL0     H 2118  10.705   1.446   3.519 -0.5627 -0.5664 -0.4893
   16MOL0     H 2119  10.603   1.592   3.536  2.6443  0.1090 -0.5338
   16MOL0     H 2120  10.811   1.626   3.439  2.3803  0.7709 -0.6009
   16MOL0     H 2121  11.075   1.804   3.305 -2.5413  0.6494 -0.8432
   16MOL0     H 2122  10.978   1.774   3.445  0.6905  3.4245 -0.3764
   16MOL0     H 2123  11.081   1.645   3.383 -0.4920  0.3527  1.6528
   16MOL0     H 2124  10.963   1.866   2.670 -0.3759  0.6116  0.5277
   16MOL0     H 2125  11.104   1.867   2.486 -0.1780  1.1551  0.8112
   16MOL0     H 2126  11.484   1.593   2.512  0.0523  1.6974  0.6230
   16MOL0     H 2127  11.337   1.514   2.469  0.3364  2.1241  3.4755
   16MOL0     H 2128  11.480   1.478   2.279 -1.2341 -0.1647 -2.8705
   16MOL0     H 2129  11.359   1.604   2.228  1.0224  0.6711 -1.6286
   16MOL0     H 2130  11.626   1.685   2.343 -1.7801  1.6420  1.7034
   16MOL0     H 2131  11.505   1.780   2.255 -0.5864 -0.4847  0.4878
   16MOL0     H 2132  11.693   1.555   2.171 -1.7001 -1.2472 -2.6221
   16MOL0     H 2133  11.569   1.604   2.057 -1.8363  1.3007  0.4943
   16MOL0     H 2134  11.801   1.705   2.034 -0.4108 -0.4191 -0.0372
   16MOL0     H 2135  11.774   1.805   2.176  1.7845  0.1758 -2.0244
   16MOL0     H 2136  11.742   1.904   1.950 -2.2029  3.8986  0.5124
   16MOL0     H 2137  11.631   1.784   1.899 -1.2064 -3.2373  1.3533
   16MOL0     H 2138  11.583   2.004   2.107 -1.9113  0.7983  1.8966
   16MOL0     H 2139  11.467   1.875   2.073  1.8614  0.6155  3.2833
   16MOL0     H 2140  11.570   2.090   1.869 -1.2383  2.9756  2.2634
   16MOL0     H 2141  11.421   2.084   1.936 -1.5662 -3.2358  1.9253
   16MOL0     H 2142  11.381   1.616   2.691 -0.5967 -1.6597 -3.0968
   16MOL0     H 2143  11.245   1.637   2.899 -1.0240  1.8914  2.5019
   16MOL0     H 2144  10.790   1.604   2.950  0.0141  0.2896  0.5196
   16MOL0     H 2145  10.606   1.525   3.058  1.0905  0.6462 -2.5261
   16MOL0     H 2146  10.010   1.474   4.908  1.4853  1.4872 -1.5023
   16MOL0     H 2147   9.871   1.439   5.089  1.6941 -2.4906 -1.4783
   16MOL0     H 2148   9.729   1.762   5.636  1.8328 -0.6513 -2.3395
   16MOL0     H 2149   9.542   1.694   5.783  1.0634 -0.3628  0.9726
   16MOL0     H 2150   9.338   1.680   5.839  3.1001 -0.6632 -1.7760
   16MOL0     H 2151   9.249   1.667   5.688 -0.5055 -3.4589 -2.3586
   16MOL0     H 2152   9.098   1.492   5.790  2.6321 -2.1041 -1.2706
   16MOL0     H 2153   9.107   1.639   5.890 -3.9052 -1.7079 -0.4092
   16MOL0     H 2154   9.301   1.514   6.010 -0.7371  0.0755  1.7350
   16MOL0     H 2155   9.235   1.366   5.936  0.8004  0.9127 -0.7296
   16MOL0     H 2156   9.072   1.549   6.111 -0.6538 -0.9697 -0.8738
   16MOL0     H 2157   9.164   1.421   6.175 -1.1095 -1.6415  1.2009
   16MOL0     H 2158   8.823   1.223   6.003 -0.0307 -0.7876  3.2690
   16MOL0     H 2159   9.437   1.390   5.487  1.3491  0.1392 -1.2341
   16MOL0     H 2160   9.615   1.467   5.354 -2.1436  0.2475 -1.5116
   17MOL0     O 2161   1.425  10.650   1.957 -0.2764  0.1270 -0.8296
   17MOL0     C 2162   1.418  10.546   1.893  0.3231 -0.4917 -0.1995
   17MOL0     O 2163   1.325  10.450   1.907  0.2092 -0.6063  0.8709
   17MOL0     C 2164   1.248  10.447   2.016 -0.4510 -0.6340 -0.9828
   17MOL0     C 2165   1.124  10.513   2.012 -1.0002 -0.9140 -0.6887
   17MOL0     C 2166   1.035  10.511   2.126 -0.3638 -0.3256 -0.5867
   17MOL0     C 2167   1.075  10.443   2.251 -0.9618 -0.6294 -0.2561
   17MOL0     O 2168   0.973  10.432   2.348 -0.5901  0.2333 -0.0636
   17MOL0     C 2169   0.976  10.322   2.441 -0.4631  0.1972  0.1551
   17MOL0     C 2170   0.852  10.342   2.540 -1.0128 -0.4630  0.5033
   17MOL0     C 2171   0.859  10.480   2.609 -0.5634  0.0553  1.1107
   17MOL0     C 2172   0.714  10.506   2.660  0.0509 -0.0323  0.0563
   17MOL0     C 2173   0.700  10.457   2.808  0.1600  0.6180 -1.1285
   17MOL0     C 2174   0.566  10.419   2.861 -0.2395 -0.1062  0.0271
   17MOL0     C 2175   0.461  10.533   2.859 -0.4293  1.0169  0.0124
   17MOL0     C 2176   0.495  10.653   2.941 -0.8344  0.1740  0.6244
   17MOL0     N 2177   0.389  10.751   2.944  0.2564 -0.6641 -0.0431
   17MOL0     C 2178   0.355  10.837   3.047 -0.0369 -0.0936 -0.3074
   17MOL0     C 2179   0.263  10.921   3.009  0.3182 -0.8125 -0.2729
   17MOL0     C 2180   0.209  11.032   3.085  0.2619 -1.4553  1.0527
   17MOL0     C 2181   0.289  11.169   3.042  0.5762 -0.2662  0.4156
   17MOL0     C 2182   0.270  11.213   2.893 -0.8092  0.1337  0.8826
   17MOL0     C 2183   0.329  11.345   2.858  0.4918  1.2851 -0.5782
   17MOL0     O 2184   0.285  11.444   2.953 -0.1566  0.5292 -0.6409
   17MOL0     C 2185   0.258  11.562   2.896  0.1416 -0.7380  0.1971
   17MOL0     C 2186   0.128  11.601   2.897  0.0061  0.3388 -1.0579
   17MOL0     C 2187   0.090  11.735   2.866 -0.2380  0.6488  0.0022
   17MOL0     C 2188  -0.054  11.773   2.903  0.3854 -0.0048 -0.0259
   17MOL0     C 2189   0.188  11.818   2.811  0.7027 -0.1538  1.4153
   17MOL0     C 2190   0.147  11.955   2.760 -0.0159  0.1372  1.3428
   17MOL0     O 2191   0.244  12.042   2.753  0.4934 -0.3250  0.0959
   17MOL0     C 2192   0.211  12.177   2.737 -0.7142 -0.6349  0.2052
   17MOL0     C 2193   0.242  12.272   2.847 -0.1731 -1.0352  1.6165
   17MOL0     C 2194   0.245  12.407   2.828 -0.8761 -0.2638  0.7831
   17MOL0     C 2195   0.211  12.447   2.695  0.2842 -1.4182 -0.0904
   17MOL0     O 2196   0.208  12.571   2.649 -0.8849 -0.9217 -0.2394
   17MOL0     C 2197   0.244  12.676   2.747  0.5470  0.7063  0.4864
   17MOL0     C 2198   0.330  12.779   2.678  0.0199  0.2044 -1.0124
   17MOL0     C 2199   0.252  12.866   2.572 -0.1575  0.5663 -0.5497
   17MOL0     C 2200   0.354  12.973   2.523  0.1167 -0.5058  0.3285
   17MOL0     C 2201   0.428  12.926   2.395 -0.8530 -1.0052 -0.6410
   17MOL0     C 2202   0.515  13.038   2.348  0.3272 -0.7230  0.2202
   17MOL0     C 2203   0.609  13.000   2.232  0.1885  0.5579  0.3570
   17MOL0     C 2204   0.641  13.123   2.138  0.1423 -0.7318  0.3534
   17MOL0    Cl 2205   0.714  13.263   2.232 -0.4338  0.0483  0.4833
   17MOL0     C 2206   0.205  12.360   2.591  0.1761 -0.0990 -0.7546
   17MOL0     C 2207   0.196  12.226   2.603 -0.2136  0.2928 -0.3035
   17MOL0     O 2208   0.037  11.978   2.712 -0.4237 -0.7071 -0.0896
   17MOL0     C 2209   0.312  11.770   2.787  0.3790  0.7836 -0.2092
   17MOL0     C 2210   0.351  11.641   2.835  0.7978  0.0450  0.5331
   17MOL0     N 2211   0.242  10.891   2.875 -0.3140  0.5712  0.3619
   17MOL0     N 2212   0.318  10.792   2.836  0.1843  0.5491 -0.7297
   17MOL0     C 2213   1.202  10.394   2.259 -0.8339  1.0597 -0.0969
   17MOL0     C 2214   1.293  10.404   2.148 -0.8894 -0.4318  0.4024
   17MOL0     C 2215   1.501  10.522   1.773  0.1710 -0.9445 -0.5403
   17MOL0     C 2216   1.534  10.393   1.731  0.8872  0.0828  0.0805
   17MOL0     C 2217   1.631  10.367   1.638  0.4475  0.9300  1.0881
   17MOL0     C 2218   1.709  10.475   1.586  0.1018  0.2095 -0.6826
   17MOL0     O 2219   1.816  10.464   1.500 -0.3931 -0.1717 -0.6187
   17MOL0     C 2220   1.846  10.344   1.429  0.2912 -0.5303 -0.2431
   17MOL0     C 2221   1.984  10.357   1.364  1.5762 -0.1526  0.3771
   17MOL0     C 2222   2.097  10.361   1.464 -0.2302  0.0476  0.2376
   17MOL0     C 2223   2.238  10.368   1.395 -0.9135 -0.7364  0.5855
   17MOL0     C 2224   2.277  10.248   1.343 -0.2261  0.5899  0.7924
   17MOL0     C 2225   2.311  10.145   1.286  0.5452  0.5243 -0.9364
   17MOL0     C 2226   1.670  10.600   1.620 -0.1131 -1.0547  0.2073
   17MOL0     C 2227   1.567  10.630   1.713 -0.0350 -0.5459 -0.4635
   17MOL0     H 2228   1.089  10.562   1.922 -1.5287  5.5694  2.4034
   17MOL0     H 2229   0.936  10.554   2.109 -0.7461 -1.2993 -0.9153
   17MOL0     H 2230   0.970  10.233   2.377 -0.6550 -0.8570  1.6027
   17MOL0     H 2231   1.064  10.319   2.505 -0.7111 -2.1738  0.4571
   17MOL0     H 2232   0.759  10.339   2.484  0.8995  3.0751 -3.4342
   17MOL0     H 2233   0.857  10.256   2.607 -1.8013 -2.4924 -1.9054
   17MOL0     H 2234   0.942  10.493   2.679  0.0495 -3.3560  1.1853
   17MOL0     H 2235   0.884  10.561   2.541  0.5307  0.0217  1.4477
   17MOL0     H 2236   0.695  10.613   2.654  0.6387  0.0725  0.0267
   17MOL0     H 2237   0.635  10.456   2.603  0.8563 -0.5663 -0.6330
   17MOL0     H 2238   0.754  10.362   2.814  2.6036  1.9032 -1.6347
   17MOL0     H 2239   0.752  10.528   2.873 -1.0271 -1.9475  3.0922
   17MOL0     H 2240   0.538  10.335   2.798  3.8060 -1.4390 -0.2751
   17MOL0     H 2241   0.592  10.374   2.957  2.0967  0.1981 -0.4022
   17MOL0     H 2242   0.428  10.557   2.758  0.0263  3.6387  0.4082
   17MOL0     H 2243   0.373  10.493   2.910 -1.5187  2.1083 -0.9354
   17MOL0     H 2244   0.587  10.704   2.913  1.4117 -3.8098  0.0221
   17MOL0     H 2245   0.512  10.620   3.044 -1.2805 -1.4188  0.2191
   17MOL0     H 2246   0.403  10.829   3.144 -1.6694 -1.2839  0.4555
   17MOL0     H 2247   0.101  11.048   3.077  0.5167  3.2695  3.6929
   17MOL0     H 2248   0.226  11.004   3.190 -1.0283 -1.4979  1.2697
   17MOL0     H 2249   0.394  11.156   3.070  0.9036 -0.7206 -0.9356
   17MOL0     H 2250   0.250  11.255   3.097 -2.3525 -0.3584 -1.3510
   17MOL0     H 2251   0.163  11.223   2.870 -0.3419 -0.3338 -1.8467
   17MOL0     H 2252   0.332  11.142   2.837  1.0031  2.3764 -0.1399
   17MOL0     H 2253   0.298  11.362   2.754 -1.2372  2.3029  0.0695
   17MOL0     H 2254   0.437  11.355   2.870  0.3621  2.7133 -0.4033
   17MOL0     H 2255   0.051  11.539   2.944  0.1294  2.4241  2.2650
   17MOL0     H 2256  -0.108  11.688   2.948  0.4314  0.1438  0.3154
   17MOL0     H 2257  -0.054  11.861   2.967 -2.9785 -0.1365  0.3469
   17MOL0     H 2258  -0.097  11.790   2.804  1.2576 -1.9449 -0.7902
   17MOL0     H 2259   0.266  12.233   2.945 -1.1955 -1.6168  1.6525
   17MOL0     H 2260   0.274  12.471   2.910  0.2403  0.7184 -0.3462
   17MOL0     H 2261   0.167  12.729   2.804  0.4340 -0.4677  1.4604
   17MOL0     H 2262   0.312  12.635   2.822  0.6989 -3.3169 -1.5334
   17MOL0     H 2263   0.367  12.847   2.755 -0.5192  1.6369 -1.9710
   17MOL0     H 2264   0.414  12.731   2.626  0.0092 -0.3337 -0.5421
   17MOL0     H 2265   0.173  12.920   2.625  1.1236  2.5811 -0.5524
   17MOL0     H 2266   0.212  12.803   2.493 -0.0553 -0.3701  0.1277
   17MOL0     H 2267   0.288  13.056   2.499 -0.2083 -1.0474 -0.6973
   17MOL0     H 2268   0.412  13.023   2.601 -0.9077 -0.8402  1.3368
   17MOL0     H 2269   0.364  12.895   2.313  3.6397  0.2061 -5.0929
   17MOL0     H 2270   0.496  12.842   2.415 -1.3688 -1.3057 -0.1262
   17MOL0     H 2271   0.449  13.117   2.311  0.4296 -0.8905 -0.3171
   17MOL0     H 2272   0.576  13.069   2.434 -0.9343 -1.6281  1.5000
   17MOL0     H 2273   0.544  12.934   2.174 -0.2130  2.4595 -1.5246
   17MOL0     H 2274   0.693  12.945   2.274  0.2766  0.5163  0.1287
   17MOL0     H 2275   0.557  13.167   2.083  0.2727 -0.5211  0.3206
   17MOL0     H 2276   0.712  13.089   2.062  0.5643 -1.3120  0.9951
   17MOL0     H 2277   0.196  12.411   2.495  1.6125  2.1479  0.2321
   17MOL0     H 2278   0.171  12.165   2.516 -2.5471 -1.0637  1.2106
   17MOL0     H 2279   0.388  11.829   2.737  0.4653  0.8603  0.0116
   17MOL0     H 2280   0.453  11.602   2.835  1.1248  0.7250 -1.6829
   17MOL0     H 2281   1.241  10.331   2.338 -0.9015 -0.3464 -1.1463
   17MOL0     H 2282   1.391  10.365   2.173  0.0906  2.3395  1.2567
   17MOL0     H 2283   1.477  10.313   1.777 -1.6211  0.4432 -2.0978
   17MOL0     H 2284   1.657  10.263   1.623  2.6477  1.4764  0.7079
   17MOL0     H 2285   1.848  10.254   1.491  0.8171 -0.9233 -0.8211
   17MOL0     H 2286   1.776  10.322   1.348  1.2672 -0.6620 -1.0687
   17MOL0     H 2287   1.988  10.447   1.302 -0.3178 -0.8233 -0.7879
   17MOL0     H 2288   1.988  10.276   1.291 -5.2667  1.8684 -3.0825
   17MOL0     H 2289   2.082  10.275   1.530  0.3380 -1.9886 -2.1721
   17MOL0     H 2290   2.095  10.447   1.531  0.3116  0.8004 -0.6916
   17MOL0     H 2291   2.303  10.398   1.477 -0.5113 -0.0014  0.0079
   17MOL0     H 2292   2.224  10.447   1.320 -1.8126 -2.9714 -1.7750
   17MOL0     H 2293   2.344  10.057   1.235  0.2942 -0.9233  1.2625
   17MOL0     H 2294   1.743  10.676   1.595  0.1682 -0.6620  2.0428
   17MOL0     H 2295   1.559  10.733   1.744  0.7880 -0.1217 -1.5788
   18MOL0     O 2296   0.883   9.226   8.390  0.5764  0.2226 -0.4674
   18MOL0     C 2297   0.760   9.198   8.386  0.0508 -0.0392 -0.2255
   18MOL0     O 2298   0.678   9.250   8.291  0.2375  0.6133  0.6824
   18MOL0     C 2299   0.716   9.332   8.184 -0.7103  0.0449  0.6104
   18MOL0     C 2300   0.613   9.409   8.123 -0.0455 -0.0167 -0.0171
   18MOL0     C 2301   0.643   9.488   8.007  0.1713  0.7528  0.9484
   18MOL0     C 2302   0.774   9.497   7.953 -0.5010  1.1182  0.6183
   18MOL0     O 2303   0.802   9.568   7.840  0.1616 -0.3015 -0.2686
   18MOL0     C 2304   0.846   9.489   7.719 -0.5920 -0.5133 -0.7114
   18MOL0     C 2305   0.709   9.432   7.661 -0.9195  0.0413  0.3433
   18MOL0     C 2306   0.634   9.527   7.564 -0.3943  0.8116  0.4374
   18MOL0     C 2307   0.626   9.673   7.608 -0.5853 -0.7555 -0.2874
   18MOL0     C 2308   0.542   9.763   7.513  0.3143  1.0915 -0.0994
   18MOL0     C 2309   0.515   9.908   7.570  0.0297 -0.0873 -0.1307
   18MOL0     C 2310   0.477  10.019   7.468  0.4336  0.5093 -0.9607
   18MOL0     C 2311   0.486  10.156   7.515 -0.0237 -0.1034  0.1806
   18MOL0     N 2312   0.444  10.244   7.407 -0.1801 -0.5859 -0.1057
   18MOL0     C 2313   0.520  10.307   7.306 -0.3112  0.2246 -0.4181
   18MOL0     C 2314   0.423  10.387   7.244  0.4909  0.8620  0.0692
   18MOL0     C 2315   0.454  10.473   7.125 -0.3835  0.2556  0.4552
   18MOL0     C 2316   0.417  10.405   6.992 -0.1019 -0.5309 -0.6999
   18MOL0     C 2317   0.544  10.345   6.923  0.5343  0.0338  0.9099
   18MOL0     C 2318   0.614  10.230   6.995  0.2946  0.4649 -0.8585
   18MOL0     O 2319   0.689  10.161   6.895 -0.3600  1.0228 -0.3887
   18MOL0     C 2320   0.735  10.035   6.931  0.3155  0.2570 -0.4225
   18MOL0     C 2321   0.689   9.950   7.036 -0.2303 -0.8098 -0.3392
   18MOL0     C 2322   0.736   9.820   7.044 -0.8802  0.3172 -0.0902
   18MOL0     C 2323   0.661   9.748   7.164  0.0205  0.3487  0.3118
   18MOL0     C 2324   0.838   9.768   6.957 -0.1047 -0.4119 -0.3096
   18MOL0     C 2325   0.892   9.632   6.965  0.0791 -0.4022  0.5113
   18MOL0     O 2326   0.972   9.610   6.854  0.7592 -0.3816 -0.8421
   18MOL0     C 2327   1.076   9.522   6.854 -0.1954  0.5674 -0.3898
   18MOL0     C 2328   1.208   9.564   6.820 -1.1000 -0.5498 -0.7965
   18MOL0     C 2329   1.326   9.480   6.847  0.7726  0.3561  0.8106
   18MOL0     C 2330   1.306   9.345   6.888  0.1889 -1.0777  0.5639
   18MOL0     O 2331   1.411   9.260   6.897 -0.5618  0.2170  0.1893
   18MOL0     C 2332   1.528   9.279   6.819  0.1172  0.2740  0.6632
   18MOL0     C 2333   1.638   9.187   6.865  0.2953  0.1441  0.7488
   18MOL0     C 2334   1.593   9.039   6.896  0.4027  0.0966  1.1292
   18MOL0     C 2335   1.573   9.012   7.048 -0.5483 -0.0471 -0.6919
   18MOL0     C 2336   1.510   8.880   7.091 -0.3943 -0.4720  0.1641
   18MOL0     C 2337   1.579   8.755   7.040  0.0271 -0.2303 -0.0225
   18MOL0     C 2338   1.578   8.646   7.148 -0.3132  0.5379 -0.2990
   18MOL0     C 2339   1.700   8.651   7.237  0.0261  0.1231 -0.3990
   18MOL0    Cl 2340   1.855   8.649   7.132  0.5256 -0.3380 -0.3087
   18MOL0     C 2341   1.184   9.302   6.901  0.2376  0.2123  0.4523
   18MOL0     C 2342   1.070   9.381   6.884  0.1963  0.0081  0.0328
   18MOL0     O 2343   0.879   9.559   7.065 -0.1515 -0.8029  0.2726
   18MOL0     C 2344   0.865   9.848   6.848 -0.5648 -0.0679  0.5592
   18MOL0     C 2345   0.826   9.979   6.842  0.8246  0.0173  0.5532
   18MOL0     N 2346   0.304  10.374   7.310 -0.0420 -0.1489 -0.0792
   18MOL0     N 2347   0.309  10.282   7.397 -0.7834 -0.0831  0.3730
   18MOL0     C 2348   0.881   9.426   8.020  0.0749 -1.0139  0.1370
   18MOL0     C 2349   0.847   9.338   8.121 -0.1497 -0.0735 -0.9460
   18MOL0     C 2350   0.703   9.122   8.498 -0.0102 -0.0544 -0.4509
   18MOL0     C 2351   0.566   9.122   8.513  0.2399 -0.5426  0.3709
   18MOL0     C 2352   0.512   9.049   8.621 -0.3021  0.0351  0.1830
   18MOL0     C 2353   0.591   8.985   8.718  0.5600 -0.5459  0.0269
   18MOL0     O 2354   0.538   8.917   8.825 -0.4384 -0.0320  0.2243
   18MOL0     C 2355   0.537   9.006   8.935 -0.4205 -0.7658 -0.6345
   18MOL0     C 2356   0.481   8.934   9.055 -0.6022  0.0229 -0.6063
   18MOL0     C 2357   0.577   8.816   9.106  0.4420  1.5002 -0.5856
   18MOL0     C 2358   0.493   8.748   9.220  0.2439  0.6374  0.3667
   18MOL0     C 2359   0.581   8.664   9.297  0.3751  0.2239  0.1887
   18MOL0     C 2360   0.657   8.579   9.328  0.5129  0.1329  0.1024
   18MOL0     C 2361   0.731   8.991   8.703 -0.2391 -0.3743 -0.1137
   18MOL0     C 2362   0.786   9.051   8.587 -0.5906 -0.1057 -0.3496
   18MOL0     H 2363   0.511   9.412   8.160 -0.9974  1.4625 -2.4751
   18MOL0     H 2364   0.569   9.537   7.945  4.4545  2.6514 -3.2714
   18MOL0     H 2365   0.897   9.556   7.649 -2.6383  0.5199 -1.2933
   18MOL0     H 2366   0.907   9.401   7.743 -1.5141 -0.9432  0.1363
   18MOL0     H 2367   0.730   9.338   7.609 -0.2692 -1.5139  3.2198
   18MOL0     H 2368   0.647   9.408   7.748  0.5264 -0.0234  1.3908
   18MOL0     H 2369   0.680   9.516   7.465 -0.4921 -2.8704  0.6617
   18MOL0     H 2370   0.532   9.490   7.567  0.3924 -1.6293 -0.3877
   18MOL0     H 2371   0.588   9.687   7.710  2.7963 -0.2078  1.0116
   18MOL0     H 2372   0.727   9.715   7.605 -0.8715 -0.0700 -0.5755
   18MOL0     H 2373   0.605   9.774   7.424  1.9989  1.5324  1.1009
   18MOL0     H 2374   0.455   9.706   7.481  2.0486 -1.7395 -0.1066
   18MOL0     H 2375   0.455   9.893   7.660 -0.5398  1.9338 -0.1313
   18MOL0     H 2376   0.610   9.937   7.615 -0.8526 -0.8917  2.4020
   18MOL0     H 2377   0.543  10.005   7.382  1.1919 -2.9658  0.0142
   18MOL0     H 2378   0.375   9.998   7.433  0.7857 -1.9434 -0.7003
   18MOL0     H 2379   0.591  10.170   7.544 -0.4513  1.1889  1.2062
   18MOL0     H 2380   0.428  10.160   7.608  0.8659 -4.1442  1.1103
   18MOL0     H 2381   0.621  10.282   7.275  0.7641  3.0607  0.4657
   18MOL0     H 2382   0.392  10.563   7.137 -3.3831 -1.4015 -1.1683
   18MOL0     H 2383   0.556  10.512   7.128 -0.6927  1.1065  0.3856
   18MOL0     H 2384   0.382  10.481   6.922  3.2319  0.9327 -0.9481
   18MOL0     H 2385   0.335  10.335   7.012  0.3558 -1.1933 -1.0946
   18MOL0     H 2386   0.618  10.425   6.910 -3.5293  3.7201 -2.6997
   18MOL0     H 2387   0.508  10.313   6.825 -1.1721 -2.2119  2.1616
   18MOL0     H 2388   0.533  10.162   7.023 -1.2140  2.7701  0.8303
   18MOL0     H 2389   0.671  10.282   7.073  1.6523 -0.2221 -1.3794
   18MOL0     H 2390   0.618   9.989   7.108  0.8123 -0.6254  0.6055
   18MOL0     H 2391   0.580   9.814   7.196  0.6118  1.3675 -0.2088
   18MOL0     H 2392   0.628   9.652   7.124  3.3966 -0.4886 -0.7970
   18MOL0     H 2393   0.727   9.736   7.251  0.5862  2.4150  0.2282
   18MOL0     H 2394   1.220   9.661   6.772 -0.1189 -0.7821 -1.0292
   18MOL0     H 2395   1.423   9.520   6.818  1.3916 -0.6728  1.4171
   18MOL0     H 2396   1.514   9.260   6.712  2.9901 -1.2381  0.4522
   18MOL0     H 2397   1.560   9.383   6.822 -0.9901  0.6417  0.2197
   18MOL0     H 2398   1.722   9.189   6.795  0.6776  3.8513  1.1540
   18MOL0     H 2399   1.678   9.233   6.955 -0.9133 -0.5699  1.6891
   18MOL0     H 2400   1.670   8.977   6.849  1.4774  1.4182  1.0851
   18MOL0     H 2401   1.497   9.020   6.847  0.2692  2.1243  0.5336
   18MOL0     H 2402   1.668   9.025   7.102 -0.8698  1.1889 -0.3918
   18MOL0     H 2403   1.506   9.088   7.089  0.9740  2.0005 -1.8053
   18MOL0     H 2404   1.406   8.882   7.058  0.1284  0.3751 -1.5606
   18MOL0     H 2405   1.507   8.888   7.200  5.3082  2.8546  0.4764
   18MOL0     H 2406   1.526   8.721   6.950  1.4873 -3.7177  0.2596
   18MOL0     H 2407   1.681   8.771   7.005 -0.5398 -0.2845 -1.8186
   18MOL0     H 2408   1.574   8.550   7.097 -1.2157  0.3723  0.0751
   18MOL0     H 2409   1.492   8.653   7.215  1.2634 -0.6643  1.9863
   18MOL0     H 2410   1.697   8.568   7.309  1.7685  1.1734  0.9562
   18MOL0     H 2411   1.704   8.744   7.296 -0.2833 -1.1670  1.7770
   18MOL0     H 2412   1.184   9.197   6.931  1.0879  0.4400  1.3024
   18MOL0     H 2413   0.980   9.339   6.928  0.6014 -0.8142  0.1052
   18MOL0     H 2414   0.946   9.814   6.783  3.1457  0.5384  4.3864
   18MOL0     H 2415   0.862  10.038   6.759 -1.7425  0.0298 -0.6416
   18MOL0     H 2416   0.979   9.419   7.974 -0.0314 -3.8281  0.1398
   18MOL0     H 2417   0.924   9.273   8.163 -0.2703  0.3490 -0.0414
   18MOL0     H 2418   0.498   9.164   8.440  0.1232 -1.9885 -0.4032
   18MOL0     H 2419   0.404   9.057   8.617 -0.5093 -0.3757  2.9663
   18MOL0     H 2420   0.642   9.028   8.953 -0.5741 -1.9252  2.0745
   18MOL0     H 2421   0.473   9.092   8.910  0.7627  1.4777  3.2301
   18MOL0     H 2422   0.376   8.910   9.033 -0.3923 -0.2446 -1.3399
   18MOL0     H 2423   0.477   9.012   9.131 -0.2674  2.4841 -2.9557
   18MOL0     H 2424   0.672   8.859   9.139  0.0326  2.7697 -1.0380
   18MOL0     H 2425   0.584   8.754   9.016 -5.2246  1.7614 -1.5497
   18MOL0     H 2426   0.404   8.692   9.191  2.1971 -3.7520  1.9889
   18MOL0     H 2427   0.463   8.829   9.286 -0.2130  2.0690 -1.5009
   18MOL0     H 2428   0.724   8.500   9.356  1.2061 -0.1354 -2.1651
   18MOL0     H 2429   0.811   8.931   8.745  1.9524  1.0712 -1.9243
   18MOL0     H 2430   0.892   9.050   8.563 -1.2041 -0.9303 -3.3902
   19MOL0     O 2431   1.077  11.406   1.717  0.2559 -0.3227 -0.1930
   19MOL0     C 2432   1.097  11.289   1.731  0.1161 -0.7768 -1.5821
   19MOL0     O 2433   1.036  11.191   1.660 -0.7996 -0.0935 -0.3605
   19MOL0     C 2434   0.981  11.221   1.540  0.0419  0.8206  0.3380
   19MOL0     C 2435   0.848  11.247   1.546  0.9599  0.5775  0.1201
   19MOL0     C 2436   0.779  11.284   1.431  0.2065  0.3212  0.2394
   19MOL0     C 2437   0.849  11.300   1.306  0.9068  0.2872 -1.1166
   19MOL0     O 2438   0.774  11.336   1.199  0.0376  0.2037 -0.3645
   19MOL0     C 2439   0.767  11.477   1.177  0.1871  0.4695  0.5644
   19MOL0     C 2440   0.746  11.514   1.025 -0.3495  0.0143 -0.1270
   19MOL0     C 2441   0.640  11.439   0.941 -0.7148  0.6401  0.0358
   19MOL0     C 2442   0.637  11.493   0.803 -0.0869 -0.4293 -0.3867
   19MOL0     C 2443   0.502  11.504   0.739  0.1302  1.0899  0.4802
   19MOL0     C 2444   0.420  11.366   0.729 -0.3822  0.2016  0.4416
   19MOL0     C 2445   0.495  11.256   0.653 -0.1156  0.3966 -0.3895
   19MOL0     C 2446   0.542  11.306   0.519  0.1109 -0.4613 -0.0749
   19MOL0     N 2447   0.597  11.211   0.420  0.2529 -0.4197  0.0808
   19MOL0     C 2448   0.641  11.080   0.445  0.1053  0.0607 -0.2741
   19MOL0     C 2449   0.724  11.047   0.343  0.7798  0.1574 -0.0224
   19MOL0     C 2450   0.784  10.907   0.342 -0.4541  0.2668  0.0301
   19MOL0     C 2451   0.751  10.845   0.202 -0.6924  0.0524  0.5511
   19MOL0     C 2452   0.597  10.826   0.175 -0.0556 -1.0430 -1.0239
   19MOL0     C 2453   0.563  10.720   0.075 -0.5107  0.5009 -0.1644
   19MOL0     O 2454   0.635  10.708  -0.043 -0.2423 -0.5365  0.0356
   19MOL0     C 2455   0.673  10.814  -0.127  0.3446  0.2069  1.0142
   19MOL0     C 2456   0.779  10.791  -0.213  0.0957 -0.5242 -0.5410
   19MOL0     C 2457   0.814  10.886  -0.311 -0.2467 -0.5509  0.4302
   19MOL0     C 2458   0.913  10.834  -0.414 -0.5866 -0.6102 -0.2366
   19MOL0     C 2459   0.752  11.015  -0.322  1.1770 -0.3239  0.7681
   19MOL0     C 2460   0.801  11.125  -0.405 -0.1291  0.2057  0.5080
   19MOL0     O 2461   0.751  11.251  -0.378  0.5987  0.4916 -0.0427
   19MOL0     C 2462   0.816  11.367  -0.430 -0.0352  0.3678 -0.2279
   19MOL0     C 2463   0.953  11.396  -0.392 -0.1555 -0.1077  0.1878
   19MOL0     C 2464   1.002  11.526  -0.406  0.1993  1.0031  0.4624
   19MOL0     C 2465   0.932  11.625  -0.468 -0.7517  0.1270 -0.0409
   19MOL0     O 2466   1.003  11.743  -0.490  0.5032  0.4857 -1.1878
   19MOL0     C 2467   0.973  11.807  -0.610  0.7371 -0.7152 -0.7709
   19MOL0     C 2468   1.090  11.850  -0.695  0.3679 -0.5758 -0.2743
   19MOL0     C 2469   1.204  11.750  -0.715  0.0970  0.1926 -0.4854
   19MOL0     C 2470   1.176  11.654  -0.834 -0.3647 -0.8478 -0.1636
   19MOL0     C 2471   1.275  11.536  -0.846  0.9306  0.5322 -0.8712
   19MOL0     C 2472   1.232  11.428  -0.749 -0.4354  0.5701  0.0102
   19MOL0     C 2473   1.099  11.370  -0.789  1.1841 -0.4428 -0.5540
   19MOL0     C 2474   1.080  11.243  -0.695 -0.1758 -0.5593  0.3115
   19MOL0    Cl 2475   1.190  11.116  -0.767  0.0200 -0.5184 -0.4017
   19MOL0     C 2476   0.799  11.596  -0.496 -0.1730 -0.6879 -0.7695
   19MOL0     C 2477   0.732  11.475  -0.473 -0.5381  0.2303  0.6737
   19MOL0     O 2478   0.879  11.096  -0.496  0.3080 -0.6390  0.1674
   19MOL0     C 2479   0.647  11.038  -0.224  0.3554 -0.4743 -0.5456
   19MOL0     C 2480   0.603  10.934  -0.145 -0.6972  0.0236 -0.5618
   19MOL0     N 2481   0.720  11.150   0.251 -0.3053 -0.3040 -0.1259
   19MOL0     N 2482   0.643  11.241   0.295  0.4880  0.3501  0.4369
   19MOL0     C 2483   0.985  11.263   1.298  0.6337 -0.1381 -1.0695
   19MOL0     C 2484   1.047  11.219   1.420  0.2885  0.3923  0.9634
   19MOL0     C 2485   1.196  11.255   1.839  0.8993 -0.4575 -0.0479
   19MOL0     C 2486   1.238  11.126   1.859  0.7592 -0.1516  0.0917
   19MOL0     C 2487   1.319  11.083   1.970 -0.2225 -0.4813  0.2597
   19MOL0     C 2488   1.350  11.170   2.074 -0.1071  0.0325  0.1248
   19MOL0     O 2489   1.444  11.126   2.168  0.3040  0.4443 -0.1998
   19MOL0     C 2490   1.471  11.209   2.279 -0.4778 -0.0189 -0.0712
   19MOL0     C 2491   1.364  11.185   2.383  0.0068 -0.3856 -0.8727
   19MOL0     C 2492   1.402  11.249   2.515 -0.4608 -0.3225 -0.7245
   19MOL0     C 2493   1.259  11.299   2.565 -0.6494 -1.0152 -0.5284
   19MOL0     C 2494   1.268  11.329   2.702  0.2285  1.2918 -0.0617
   19MOL0     C 2495   1.289  11.366   2.821  0.5638  0.0800 -0.9913
   19MOL0     C 2496   1.301  11.296   2.056 -0.3770 -0.5605  0.1319
   19MOL0     C 2497   1.238  11.343   1.944  0.6261 -0.2336  0.6546
   19MOL0     H 2498   0.784  11.219   1.629  0.8201 -0.9574 -0.4551
   19MOL0     H 2499   0.670  11.290   1.429  0.1867  0.4302  1.2146
   19MOL0     H 2500   0.705  11.550   1.230 -0.2041  0.8700 -0.4079
   19MOL0     H 2501   0.869  11.512   1.194  2.0372 -3.6583 -0.6468
   19MOL0     H 2502   0.745  11.622   1.008  0.8217  0.0515 -0.0191
   19MOL0     H 2503   0.839  11.477   0.982  1.5970  3.4297  0.7778
   19MOL0     H 2504   0.656  11.331   0.934 -1.2866  0.1944  3.6980
   19MOL0     H 2505   0.546  11.466   0.989 -1.8961 -0.0042 -1.7839
   19MOL0     H 2506   0.692  11.588   0.797  0.3455 -0.2741  3.5882
   19MOL0     H 2507   0.704  11.426   0.748  1.0638 -0.1684  0.6577
   19MOL0     H 2508   0.440  11.573   0.795 -1.6256  1.6024 -1.9253
   19MOL0     H 2509   0.503  11.544   0.637 -0.8693 -1.4574 -0.6070
   19MOL0     H 2510   0.400  11.331   0.831 -0.0532 -1.6062 -0.0792
   19MOL0     H 2511   0.324  11.376   0.677 -0.3954 -1.2941  0.1297
   19MOL0     H 2512   0.593  11.244   0.700  0.4254  5.9963  0.5521
   19MOL0     H 2513   0.432  11.167   0.645 -1.7971  1.2672  2.1068
   19MOL0     H 2514   0.614  11.386   0.535  1.9344 -2.4597  2.4963
   19MOL0     H 2515   0.451  11.347   0.474 -1.4164  0.0910  3.2029
   19MOL0     H 2516   0.613  11.024   0.534  0.5061  0.4945  0.1336
   19MOL0     H 2517   0.893  10.910   0.358 -0.6917  2.1255  1.6676
   19MOL0     H 2518   0.740  10.841   0.417 -0.5392  0.5731  0.2510
   19MOL0     H 2519   0.790  10.743   0.210 -0.6718  0.1050  1.1637
   19MOL0     H 2520   0.803  10.889   0.117 -0.9439 -2.0910 -0.7836
   19MOL0     H 2521   0.569  10.927   0.143 -1.7444 -1.1924 -0.1325
   19MOL0     H 2522   0.551  10.810   0.273 -1.7699  1.5020 -1.3023
   19MOL0     H 2523   0.456  10.708   0.053 -0.0293 -2.3567 -1.5294
   19MOL0     H 2524   0.583  10.621   0.119 -2.0588  0.5112  0.6369
   19MOL0     H 2525   0.825  10.693  -0.209  1.5687  0.1841  0.8868
   19MOL0     H 2526   1.011  10.880  -0.401  0.0521 -1.8206 -0.6638
   19MOL0     H 2527   0.934  10.727  -0.407 -1.7477 -0.9291 -1.2597
   19MOL0     H 2528   0.863  10.844  -0.511 -2.2798 -2.1631  0.4195
   19MOL0     H 2529   1.013  11.322  -0.341 -0.4391 -0.1651  0.4431
   19MOL0     H 2530   1.104  11.533  -0.370  0.4212 -1.1275  0.3990
   19MOL0     H 2531   0.920  11.738  -0.677  1.1525 -1.2162 -0.5867
   19MOL0     H 2532   0.910  11.891  -0.579  0.6905 -1.2417  0.6068
   19MOL0     H 2533   1.048  11.889  -0.788 -1.5350 -0.2056  0.6850
   19MOL0     H 2534   1.125  11.935  -0.635 -1.2306 -1.2305  1.6913
   19MOL0     H 2535   1.224  11.691  -0.625  0.8437 -0.4040 -1.0265
   19MOL0     H 2536   1.298  11.803  -0.735  0.8944 -0.0653  2.2302
   19MOL0     H 2537   1.074  11.615  -0.837 -0.0694 -1.8331  1.5053
   19MOL0     H 2538   1.202  11.707  -0.927 -3.5591 -0.4130 -0.9247
   19MOL0     H 2539   1.375  11.571  -0.820  1.7579 -1.1688 -1.6378
   19MOL0     H 2540   1.283  11.498  -0.949  0.1345 -1.7762 -0.1332
   19MOL0     H 2541   1.310  11.352  -0.759 -0.7120  0.4214 -1.0676
   19MOL0     H 2542   1.215  11.461  -0.646 -0.1974 -1.4103  0.7441
   19MOL0     H 2543   1.106  11.345  -0.895 -0.3308 -0.7308 -0.6080
   19MOL0     H 2544   1.015  11.435  -0.766  0.8324 -0.1985 -2.4400
   19MOL0     H 2545   0.979  11.203  -0.682  1.0001 -2.9412  3.1834
   19MOL0     H 2546   1.116  11.259  -0.593  1.0946 -1.4150  0.0270
   19MOL0     H 2547   0.743  11.674  -0.546  2.2005  0.8399 -1.2363
   19MOL0     H 2548   0.627  11.468  -0.499 -0.3814  2.0605 -0.6413
   19MOL0     H 2549   0.594  11.132  -0.216 -1.0362 -1.2556 -0.2281
   19MOL0     H 2550   0.512  10.951  -0.088  1.0532  0.6933  2.1728
   19MOL0     H 2551   1.036  11.265   1.202 -0.6604  0.3803 -1.7729
   19MOL0     H 2552   1.152  11.193   1.418  0.0811 -0.4356 -0.0928
   19MOL0     H 2553   1.216  11.046   1.790 -0.0460  1.0264 -1.0551
   19MOL0     H 2554   1.351  10.980   1.963 -1.5228 -0.7870 -2.3047
   19MOL0     H 2555   1.570  11.182   2.316  0.7501  3.1236 -0.7852
   19MOL0     H 2556   1.475  11.315   2.251 -1.3283  0.0281 -0.0347
   19MOL0     H 2557   1.364  11.077   2.404 -1.0694 -0.2898 -0.3134
   19MOL0     H 2558   1.269  11.210   2.335 -1.0456 -2.9186 -0.2650
   19MOL0     H 2559   1.462  11.338   2.496 -0.6137 -0.7191 -3.4729
   19MOL0     H 2560   1.460  11.185   2.582  1.6512  1.4420 -0.7752
   19MOL0     H 2561   1.184  11.220   2.555  0.0210 -1.6229 -0.8862
   19MOL0     H 2562   1.244  11.389   2.504 -0.8886 -1.6791 -1.4758
   19MOL0     H 2563   1.284  11.400   2.923  2.0775 -1.8286 -0.2117
   19MOL0     H 2564   1.322  11.372   2.130 -1.7677 -0.7834  0.7863
   19MOL0     H 2565   1.193  11.441   1.940 -2.2245 -1.4815 -1.7868
   20MOL0     O 2566   4.193   1.415   3.739  0.1298  0.6325 -0.1192
   20MOL0     C 2567   4.183   1.365   3.852  0.1165  0.7415  1.3645
   20MOL0     O 2568   4.215   1.425   3.967  0.1707 -0.3076 -0.5196
   20MOL0     C 2569   4.319   1.511   3.957 -0.5684 -0.2150 -0.2060
   20MOL0     C 2570   4.288   1.642   3.991 -0.5147 -0.7905 -0.0938
   20MOL0     C 2571   4.390   1.745   3.967  0.4065 -0.0946  0.2196
   20MOL0     C 2572   4.513   1.710   3.907 -0.7289  0.6185  0.7537
   20MOL0     O 2573   4.601   1.818   3.883  0.8005 -0.4200 -0.6106
   20MOL0     C 2574   4.724   1.789   3.809  0.5117  0.2325 -0.7876
   20MOL0     C 2575   4.828   1.748   3.909 -0.2162 -0.1965 -0.0334
   20MOL0     C 2576   4.967   1.752   3.848 -0.2308 -0.0825  0.1665
   20MOL0     C 2577   5.000   1.629   3.759 -0.8879 -0.0608  0.1189
   20MOL0     C 2578   5.156   1.617   3.747 -0.1430 -0.9103 -0.1052
   20MOL0     C 2579   5.225   1.752   3.700  0.5261 -0.5729  0.2025
   20MOL0     C 2580   5.384   1.724   3.707  0.6002  0.1660  0.0429
   20MOL0     C 2581   5.473   1.839   3.668  0.5435 -0.3075 -0.2001
   20MOL0     N 2582   5.607   1.832   3.719  0.2261  0.5135 -0.7287
   20MOL0     C 2583   5.643   1.872   3.849  0.4516  0.0338 -0.4998
   20MOL0     C 2584   5.777   1.869   3.856  0.2799  0.3931  0.3805
   20MOL0     C 2585   5.862   1.937   3.955 -0.0003  0.4564  0.7212
   20MOL0     C 2586   5.853   1.852   4.088  0.2235  0.1217  0.0641
   20MOL0     C 2587   5.972   1.871   4.190 -0.0598 -0.7588  0.3711
   20MOL0     C 2588   6.015   2.015   4.202 -1.2106  0.2107  0.7067
   20MOL0     O 2589   5.904   2.113   4.200 -0.5293 -0.3000 -0.1270
   20MOL0     C 2590   5.934   2.250   4.180  0.4261  0.2311 -0.1083
   20MOL0     C 2591   5.830   2.336   4.157  0.4114  0.5046  0.5557
   20MOL0     C 2592   5.841   2.475   4.144  0.4128  0.8234  0.3963
   20MOL0     C 2593   5.721   2.552   4.086 -0.1874 -0.1985 -0.1736
   20MOL0     C 2594   5.967   2.533   4.174 -0.9030 -0.1031 -0.4869
   20MOL0     C 2595   5.981   2.679   4.196 -0.0897 -0.3386 -0.1094
   20MOL0     O 2596   6.114   2.709   4.231 -0.0218 -0.6047 -0.7806
   20MOL0     C 2597   6.145   2.839   4.281  0.1248 -0.3349  0.8701
   20MOL0     C 2598   6.069   2.903   4.376  0.2517 -1.3278  0.3160
   20MOL0     C 2599   6.123   3.018   4.446  0.4215  0.4259 -0.6791
   20MOL0     C 2600   6.239   3.077   4.405 -0.2173  0.0424 -0.7563
   20MOL0     O 2601   6.268   3.191   4.474 -0.3923 -0.1384  0.8781
   20MOL0     C 2602   6.361   3.287   4.419  0.1715 -0.4561 -0.8334
   20MOL0     C 2603   6.295   3.350   4.299 -0.4365 -0.0833 -0.1783
   20MOL0     C 2604   6.392   3.447   4.236  1.0294 -0.0955  0.5701
   20MOL0     C 2605   6.313   3.527   4.123  0.0569 -0.6105 -0.1807
   20MOL0     C 2606   6.416   3.609   4.048 -0.4652 -0.5359  0.1660
   20MOL0     C 2607   6.457   3.747   4.109  0.2383  0.5360  0.5275
   20MOL0     C 2608   6.590   3.786   4.042  0.3536  1.2681 -0.0551
   20MOL0     C 2609   6.606   3.932   4.049  0.2376  0.4972 -0.3402
   20MOL0    Cl 2610   6.643   3.966   4.214 -0.1971 -0.1460 -0.3396
   20MOL0     C 2611   6.312   3.016   4.301  0.8264  0.3437  0.1225
   20MOL0     C 2612   6.272   2.890   4.248  0.7069 -0.6099  0.3262
   20MOL0     O 2613   5.882   2.749   4.213 -0.3648 -0.4377 -0.3808
   20MOL0     C 2614   6.079   2.443   4.191 -0.1823  0.7361 -0.1714
   20MOL0     C 2615   6.059   2.303   4.192  0.3378  0.2663 -0.4866
   20MOL0     N 2616   5.817   1.839   3.727 -0.3005 -0.2037 -0.1597
   20MOL0     N 2617   5.717   1.828   3.641  0.1216 -0.0660  0.0438
   20MOL0     C 2618   4.542   1.573   3.890  0.7260 -0.7579  0.6138
   20MOL0     C 2619   4.451   1.476   3.915  0.6949  0.3861  0.2263
   20MOL0     C 2620   4.126   1.234   3.873  0.7963 -0.0555  0.3547
   20MOL0     C 2621   4.155   1.167   3.990 -0.4820 -0.7803  0.0770
   20MOL0     C 2622   4.115   1.034   3.999  0.3753 -0.0600  0.2553
   20MOL0     C 2623   4.040   0.966   3.896  0.4536 -0.0428 -0.8830
   20MOL0     O 2624   4.013   0.835   3.905 -0.3992 -0.3999  0.3085
   20MOL0     C 2625   4.100   0.754   3.811 -0.0122 -0.1477 -0.1534
   20MOL0     C 2626   4.021   0.639   3.751 -0.4720  0.6754 -0.1876
   20MOL0     C 2627   4.108   0.536   3.681 -0.4278  0.4219  0.3372
   20MOL0     C 2628   4.145   0.576   3.541  0.8766  0.0684  0.3133
   20MOL0     C 2629   4.033   0.607   3.452  0.2119  0.0421 -0.0570
   20MOL0     C 2630   3.938   0.652   3.397  0.2366  0.3264  0.0788
   20MOL0     C 2631   4.012   1.032   3.787  0.3934 -0.4814 -0.3200
   20MOL0     C 2632   4.060   1.164   3.764 -1.2474  0.2078 -0.2243
   20MOL0     H 2633   4.192   1.668   4.034 -0.0765 -1.4375  1.3597
   20MOL0     H 2634   4.362   1.849   3.982 -3.1023 -0.8493 -0.2588
   20MOL0     H 2635   4.719   1.705   3.738  1.1114 -1.0525  0.6436
   20MOL0     H 2636   4.744   1.880   3.751  0.0276  2.2676  2.0230
   20MOL0     H 2637   4.824   1.814   3.995  1.9715 -0.2910  0.2107
   20MOL0     H 2638   4.811   1.644   3.938 -0.4751 -0.8054 -2.1519
   20MOL0     H 2639   4.986   1.841   3.788  0.4235 -0.5880 -0.3863
   20MOL0     H 2640   5.041   1.758   3.929  1.3852  0.3909 -1.2975
   20MOL0     H 2641   4.942   1.546   3.799 -0.1891 -0.4097  0.4254
   20MOL0     H 2642   4.974   1.641   3.653  0.9784 -1.0515 -0.4985
   20MOL0     H 2643   5.194   1.588   3.846  2.0519 -0.2103 -0.7033
   20MOL0     H 2644   5.188   1.543   3.673 -0.7469 -1.6210  0.3301
   20MOL0     H 2645   5.202   1.783   3.598 -0.8320  1.1035  0.9645
   20MOL0     H 2646   5.193   1.833   3.767 -2.4116  0.1557 -1.8747
   20MOL0     H 2647   5.417   1.702   3.809 -2.5497 -0.2776  1.0817
   20MOL0     H 2648   5.387   1.636   3.642 -1.1193  0.2950 -0.2687
   20MOL0     H 2649   5.426   1.929   3.708  1.8744 -0.8212  2.7439
   20MOL0     H 2650   5.478   1.848   3.559 -1.1687 -2.9648 -0.5899
   20MOL0     H 2651   5.577   1.900   3.930 -0.1178 -2.2761 -0.1060
   20MOL0     H 2652   5.967   1.938   3.925 -0.6030  0.9743 -1.5347
   20MOL0     H 2653   5.841   2.041   3.981  0.0842  0.8356 -0.6673
   20MOL0     H 2654   5.831   1.746   4.070 -4.2862  0.8317  0.0219
   20MOL0     H 2655   5.760   1.886   4.135  0.5793  1.4956 -0.1767
   20MOL0     H 2656   6.051   1.813   4.141 -0.2976 -0.4352 -0.4185
   20MOL0     H 2657   5.948   1.824   4.286 -1.8161  2.2849  1.5638
   20MOL0     H 2658   6.081   2.038   4.118 -0.6704 -2.1680  0.4092
   20MOL0     H 2659   6.073   2.029   4.294 -0.2757 -0.5006  0.2357
   20MOL0     H 2660   5.734   2.289   4.140  0.7133 -0.6070  1.7167
   20MOL0     H 2661   5.756   2.647   4.046  3.2128  0.2721  3.3172
   20MOL0     H 2662   5.657   2.501   4.014 -2.2005  0.9822  0.6640
   20MOL0     H 2663   5.660   2.588   4.170  0.1112  0.0971 -0.0790
   20MOL0     H 2664   5.969   2.865   4.395  0.8345 -2.0960  2.0232
   20MOL0     H 2665   6.061   3.069   4.519 -0.7293  0.0197 -1.3580
   20MOL0     H 2666   6.387   3.369   4.486  1.1293 -0.9469 -0.5960
   20MOL0     H 2667   6.461   3.254   4.390  0.6464  1.0738 -1.0172
   20MOL0     H 2668   6.289   3.273   4.222  1.9337 -0.4671 -0.0502
   20MOL0     H 2669   6.196   3.394   4.317  0.1983  1.8612 -1.1578
   20MOL0     H 2670   6.470   3.384   4.192 -0.9213 -1.3708 -1.2776
   20MOL0     H 2671   6.422   3.518   4.313 -0.1940  1.6573 -0.5025
   20MOL0     H 2672   6.258   3.452   4.065 -2.2191  0.0396  1.0249
   20MOL0     H 2673   6.237   3.593   4.167  0.6366  0.3724 -0.6296
   20MOL0     H 2674   6.375   3.627   3.948  0.1864  4.3346  0.5359
   20MOL0     H 2675   6.507   3.548   4.048  0.2133  0.4333 -0.6009
   20MOL0     H 2676   6.382   3.826   4.098  0.7099  0.9811  0.4947
   20MOL0     H 2677   6.460   3.734   4.217 -0.1666 -1.0951  0.3680
   20MOL0     H 2678   6.594   3.761   3.935  0.4222 -2.3648  0.6729
   20MOL0     H 2679   6.667   3.729   4.093 -2.7121 -0.4460  3.0831
   20MOL0     H 2680   6.520   3.993   4.021 -0.3900  0.9842  2.3747
   20MOL0     H 2681   6.694   3.961   3.990  0.4478  0.1792 -0.1890
   20MOL0     H 2682   6.395   3.074   4.260  0.8040 -0.3299 -0.9091
   20MOL0     H 2683   6.326   2.842   4.167 -1.0136  0.1413 -1.3219
   20MOL0     H 2684   6.178   2.487   4.206  0.4392 -0.4542 -0.6845
   20MOL0     H 2685   6.142   2.240   4.224 -0.6642 -0.0569  1.6462
   20MOL0     H 2686   4.635   1.535   3.850 -0.3720 -0.9550 -1.9244
   20MOL0     H 2687   4.490   1.376   3.895 -0.5585 -0.7760  3.0399
   20MOL0     H 2688   4.223   1.211   4.062 -0.3279  0.7957 -0.9797
   20MOL0     H 2689   4.144   0.978   4.088  0.5014  0.4125  0.5121
   20MOL0     H 2690   4.146   0.821   3.737 -0.1344  2.3083  1.8668
   20MOL0     H 2691   4.181   0.708   3.869 -1.0641 -0.0062  1.4923
   20MOL0     H 2692   3.950   0.675   3.676 -0.8085  0.9675  0.2659
   20MOL0     H 2693   3.967   0.584   3.829  0.9451  0.4450  0.6561
   20MOL0     H 2694   4.055   0.441   3.681  1.3273 -0.6636  2.6115
   20MOL0     H 2695   4.195   0.511   3.743  0.3199 -0.4811 -1.0315
   20MOL0     H 2696   4.205   0.494   3.500  1.6506  1.0455 -0.5529
   20MOL0     H 2697   4.206   0.666   3.537  1.5270 -0.3652  0.3637
   20MOL0     H 2698   3.861   0.711   3.351 -0.4108 -0.8100 -0.3509
   20MOL0     H 2699   3.958   0.966   3.720  2.3782 -1.4504 -1.0356
   20MOL0     H 2700   4.044   1.217   3.671 -2.3828  0.4338  0.0897
   21MOL0     O 2701   1.534   3.379   4.079  0.0062 -0.7855  0.6256
   21MOL0     C 2702   1.551   3.448   3.978 -1.1687  0.5481  0.1326
   21MOL0     O 2703   1.654   3.534   3.958  0.6435  0.2703  0.0344
   21MOL0     C 2704   1.731   3.555   4.075 -0.2707 -0.1824 -0.5300
   21MOL0     C 2705   1.700   3.655   4.166  0.2257  0.4637  0.8417
   21MOL0     C 2706   1.777   3.676   4.281  0.6704  0.6141  0.3875
   21MOL0     C 2707   1.880   3.594   4.317 -0.4724  0.1308 -0.4126
   21MOL0     O 2708   1.942   3.629   4.435 -0.4503  0.2990 -0.6460
   21MOL0     C 2709   2.071   3.585   4.473 -0.7162  0.1372  0.1975
   21MOL0     C 2710   2.098   3.619   4.623 -0.9057 -0.5846 -0.1056
   21MOL0     C 2711   2.133   3.771   4.644 -0.0244 -0.1701  0.2089
   21MOL0     C 2712   2.004   3.859   4.616 -0.4221  0.3501  0.2744
   21MOL0     C 2713   2.028   3.996   4.647 -0.7678  0.6977  0.0209
   21MOL0     C 2714   1.918   4.092   4.612  0.1197  1.0542 -0.5127
   21MOL0     C 2715   1.794   4.083   4.709 -0.1819 -0.7265 -0.3125
   21MOL0     C 2716   1.811   4.138   4.851  0.4423  0.7653 -0.7746
   21MOL0     N 2717   1.682   4.144   4.930  0.5777 -0.5259  0.4955
   21MOL0     C 2718   1.560   4.184   4.878  0.5899 -0.8200 -0.7559
   21MOL0     C 2719   1.472   4.172   4.987 -0.0869  0.6326  0.3900
   21MOL0     C 2720   1.329   4.225   4.989 -0.7757 -0.4741  0.3785
   21MOL0     C 2721   1.240   4.140   4.904 -0.0236 -0.0102 -0.1258
   21MOL0     C 2722   1.105   4.193   4.910  0.0783 -1.0884  0.6773
   21MOL0     C 2723   1.013   4.131   4.802  0.7468  0.0177  0.4675
   21MOL0     O 2724   1.015   3.982   4.807 -0.2717  0.2290 -0.0510
   21MOL0     C 2725   1.009   3.917   4.681 -0.4808  0.7806 -0.0763
   21MOL0     C 2726   1.055   3.781   4.682  0.1526  0.2769 -0.6395
   21MOL0     C 2727   1.069   3.703   4.568  0.2817 -0.5656 -1.4837
   21MOL0     C 2728   1.146   3.570   4.576 -0.4519 -0.9648  0.8134
   21MOL0     C 2729   1.032   3.763   4.448 -0.0724  0.0095 -0.8483
   21MOL0     C 2730   1.037   3.686   4.319  0.0220 -0.8249  0.0730
   21MOL0     O 2731   1.082   3.556   4.314  0.8216  0.4551 -1.2470
   21MOL0     C 2732   1.011   3.472   4.232  0.3148  0.9109  0.0629
   21MOL0     C 2733   0.918   3.385   4.283  0.2238 -0.2135  0.0286
   21MOL0     C 2734   0.846   3.307   4.192  0.5169 -0.5395 -0.3649
   21MOL0     C 2735   0.866   3.310   4.053 -0.3820  0.4062 -0.7825
   21MOL0     O 2736   0.789   3.223   3.983  0.1199 -0.1966  0.3888
   21MOL0     C 2737   0.844   3.174   3.862  0.0371 -0.2373 -0.0191
   21MOL0     C 2738   0.768   3.053   3.802 -0.1484 -0.9662  0.5485
   21MOL0     C 2739   0.796   2.937   3.900 -0.1346 -0.5132 -0.1233
   21MOL0     C 2740   0.700   2.817   3.885  0.3084  0.0439  0.5043
   21MOL0     C 2741   0.731   2.692   3.962  0.5245  0.4371  0.4474
   21MOL0     C 2742   0.866   2.629   3.916  0.2824 -0.1437  0.8720
   21MOL0     C 2743   0.898   2.491   3.968  1.2518  0.9211  0.1789
   21MOL0     C 2744   0.908   2.484   4.125 -0.1290  0.1058  0.2382
   21MOL0    Cl 2745   1.047   2.576   4.180  0.4034  0.7601 -0.2076
   21MOL0     C 2746   0.973   3.390   4.011 -0.3959  0.1882 -0.0338
   21MOL0     C 2747   1.049   3.476   4.101  0.0255  0.6483 -0.0630
   21MOL0     O 2748   0.989   3.744   4.223  0.3757 -0.8248  0.1442
   21MOL0     C 2749   0.988   3.893   4.439 -0.2394 -0.0011  0.2174
   21MOL0     C 2750   0.976   3.967   4.550 -0.1208 -0.1249  1.4733
   21MOL0     N 2751   1.535   4.121   5.087  0.1493 -0.6271 -0.3146
   21MOL0     N 2752   1.661   4.102   5.059  0.2954  0.2599  0.0315
   21MOL0     C 2753   1.918   3.493   4.227 -0.3241  0.7142 -0.8003
   21MOL0     C 2754   1.847   3.468   4.101  0.0230 -0.7105 -0.0936
   21MOL0     C 2755   1.457   3.425   3.868  1.1153 -0.9086  0.1306
   21MOL0     C 2756   1.329   3.360   3.900 -0.0632 -0.0842  0.4108
   21MOL0     C 2757   1.236   3.330   3.796  0.4748 -0.2933 -0.3579
   21MOL0     C 2758   1.275   3.368   3.673 -0.9983  0.0487 -0.0140
   21MOL0     O 2759   1.190   3.339   3.566 -0.3890 -0.5580  0.6172
   21MOL0     C 2760   1.095   3.453   3.531  0.4715  0.3852  0.5374
   21MOL0     C 2761   0.943   3.426   3.553  0.2433  0.0547 -0.1780
   21MOL0     C 2762   0.904   3.341   3.432 -0.2595  1.1359  1.3743
   21MOL0     C 2763   0.771   3.279   3.452 -0.0234 -1.8133 -0.7033
   21MOL0     C 2764   0.735   3.182   3.346 -0.7764 -0.5090 -0.5517
   21MOL0     C 2765   0.701   3.119   3.249  0.1567  0.4843 -0.4595
   21MOL0     C 2766   1.398   3.426   3.644  0.0231  0.8434 -0.1057
   21MOL0     C 2767   1.485   3.459   3.740 -0.0034  0.2554  0.1304
   21MOL0     H 2768   1.616   3.714   4.130  1.2022 -0.6678 -3.9313
   21MOL0     H 2769   1.734   3.764   4.328 -0.8147  0.2291 -0.1719
   21MOL0     H 2770   2.088   3.478   4.462  2.2723  0.5040  0.1700
   21MOL0     H 2771   2.150   3.630   4.412 -0.5428 -0.9058 -0.3641
   21MOL0     H 2772   2.012   3.582   4.680 -3.8985 -0.0372 -3.7617
   21MOL0     H 2773   2.195   3.573   4.642  0.4580  2.0032 -0.2858
   21MOL0     H 2774   2.168   3.788   4.746 -0.4985  2.4928 -0.0000
   21MOL0     H 2775   2.201   3.815   4.571 -1.6547  0.0375 -1.2713
   21MOL0     H 2776   1.972   3.839   4.513  0.4873 -3.0873  0.5345
   21MOL0     H 2777   1.915   3.822   4.668 -1.9090  1.7461 -1.1909
   21MOL0     H 2778   2.052   4.004   4.753  2.3290 -0.2743 -0.5027
   21MOL0     H 2779   2.112   4.034   4.589 -0.4990 -0.1119 -0.1362
   21MOL0     H 2780   1.959   4.192   4.601 -0.5525  1.1557 -2.7779
   21MOL0     H 2781   1.882   4.073   4.510  1.5319  0.2274 -0.8888
   21MOL0     H 2782   1.710   4.136   4.665  0.0033  0.2313  0.4476
   21MOL0     H 2783   1.765   3.978   4.722 -0.1877 -0.3941  3.8580
   21MOL0     H 2784   1.862   4.235   4.858  1.4405  0.1649  1.0748
   21MOL0     H 2785   1.879   4.076   4.911 -0.0127  2.9385  2.2163
   21MOL0     H 2786   1.529   4.244   4.793 -1.3052 -0.6184  0.0331
   21MOL0     H 2787   1.295   4.229   5.093 -1.2074 -1.7668  0.3054
   21MOL0     H 2788   1.340   4.325   4.945  2.1557 -0.4746  0.9406
   21MOL0     H 2789   1.240   4.037   4.939  1.8259 -0.6480 -1.7655
   21MOL0     H 2790   1.285   4.143   4.804  2.1640 -0.4309  0.7830
   21MOL0     H 2791   1.114   4.298   4.880 -0.1049 -1.3236 -0.2323
   21MOL0     H 2792   1.063   4.178   5.010  1.0148 -2.4152  0.8928
   21MOL0     H 2793   1.049   4.176   4.709  0.8119 -0.3127  0.3332
   21MOL0     H 2794   0.910   4.168   4.801  1.1912  1.4097  1.6872
   21MOL0     H 2795   1.088   3.730   4.773  0.4740  2.9564  0.8392
   21MOL0     H 2796   1.226   3.575   4.501 -0.6438 -0.9834  0.6080
   21MOL0     H 2797   1.187   3.539   4.672  0.8641 -1.6564  0.0682
   21MOL0     H 2798   1.079   3.490   4.544  1.3491 -2.2351 -0.0103
   21MOL0     H 2799   0.893   3.375   4.388 -1.7644 -2.7356 -0.5624
   21MOL0     H 2800   0.761   3.248   4.226  0.2507  0.1662  0.2149
   21MOL0     H 2801   0.837   3.259   3.793  0.8951 -0.6689 -0.6632
   21MOL0     H 2802   0.945   3.144   3.893  0.7164  0.3315 -1.5596
   21MOL0     H 2803   0.662   3.081   3.802  0.3510  1.0363  1.1854
   21MOL0     H 2804   0.793   3.018   3.701 -2.2724  0.4198 -0.5414
   21MOL0     H 2805   0.801   2.972   4.003 -0.7707 -0.7923  0.0117
   21MOL0     H 2806   0.892   2.894   3.872 -0.6563 -1.2428 -0.8618
   21MOL0     H 2807   0.596   2.841   3.909  0.8942  2.8438  0.6001
   21MOL0     H 2808   0.687   2.800   3.777 -1.3093  3.0080  0.1087
   21MOL0     H 2809   0.653   2.619   3.940 -0.0805  1.7041 -1.9798
   21MOL0     H 2810   0.728   2.716   4.068  1.9041 -0.6334  0.7498
   21MOL0     H 2811   0.868   2.624   3.807  0.7552 -1.5828  0.9332
   21MOL0     H 2812   0.952   2.688   3.947  1.2778 -1.7266  1.2280
   21MOL0     H 2813   0.999   2.468   3.932 -0.0684 -4.9300 -0.8359
   21MOL0     H 2814   0.830   2.421   3.918  2.3269  1.8876 -2.8423
   21MOL0     H 2815   0.923   2.382   4.163  2.7901  0.7852  1.1017
   21MOL0     H 2816   0.816   2.522   4.172  0.0726  1.0638 -0.1310
   21MOL0     H 2817   1.004   3.382   3.908  1.3976 -1.2337  0.5536
   21MOL0     H 2818   1.140   3.524   4.067 -0.0511 -0.4573 -1.9682
   21MOL0     H 2819   0.957   3.932   4.342 -1.5856 -3.2790 -0.7942
   21MOL0     H 2820   0.939   4.067   4.529 -0.0839 -0.1961  1.0595
   21MOL0     H 2821   1.993   3.422   4.261 -3.3460 -1.1131  2.7258
   21MOL0     H 2822   1.869   3.378   4.046  1.5280 -1.0335  0.9904
   21MOL0     H 2823   1.292   3.334   3.998 -0.5369  0.7783  0.4793
   21MOL0     H 2824   1.145   3.273   3.814 -0.8835  1.7359 -0.4786
   21MOL0     H 2825   1.124   3.545   3.582  0.9154  0.7224 -0.2925
   21MOL0     H 2826   1.105   3.474   3.424  0.7696  0.1235  0.5101
   21MOL0     H 2827   0.887   3.520   3.553  1.2666  0.6772 -0.3904
   21MOL0     H 2828   0.931   3.375   3.649  5.7114 -0.3601  0.6021
   21MOL0     H 2829   0.977   3.261   3.417 -1.6879 -0.0412  0.2838
   21MOL0     H 2830   0.904   3.401   3.341  2.8739  0.5476  0.8687
   21MOL0     H 2831   0.690   3.352   3.453  0.9107 -0.7427  0.4434
   21MOL0     H 2832   0.780   3.227   3.548  0.8708 -3.5432 -1.6786
   21MOL0     H 2833   0.675   3.070   3.157 -1.5083 -0.9615  0.7093
   21MOL0     H 2834   1.429   3.446   3.542  1.2803 -0.6495 -0.0542
   21MOL0     H 2835   1.578   3.514   3.727  1.6383 -1.8856  2.1100
   22MOL0     O 2836   2.169   0.064   7.521  0.6452  0.9662  0.1116
   22MOL0     C 2837   2.149  -0.022   7.610  0.6486 -0.1928  0.0923
   22MOL0     O 2838   2.252  -0.080   7.690 -0.0726 -0.3154  0.2451
   22MOL0     C 2839   2.393  -0.056   7.662  0.2351  0.5503  0.1252
   22MOL0     C 2840   2.481  -0.154   7.716  0.0236 -0.2416  0.0322
   22MOL0     C 2841   2.612  -0.152   7.686 -0.1294 -0.1536  0.0538
   22MOL0     C 2842   2.671  -0.060   7.597 -0.6903 -0.4320 -0.4212
   22MOL0     O 2843   2.797  -0.066   7.559 -0.9714  0.1516 -0.2493
   22MOL0     C 2844   2.881  -0.182   7.578 -0.7514  0.2061  0.4607
   22MOL0     C 2845   2.992  -0.181   7.468  0.8824 -0.0832  1.1020
   22MOL0     C 2846   2.935  -0.146   7.330 -0.8061  0.4826  0.6745
   22MOL0     C 2847   3.041  -0.163   7.220  0.5794 -0.5592  0.6982
   22MOL0     C 2848   2.997  -0.121   7.078 -0.6084 -0.5068  0.2750
   22MOL0     C 2849   2.871  -0.191   7.019  0.1937 -0.5099 -0.5390
   22MOL0     C 2850   2.891  -0.344   7.010 -1.1356  1.1992  0.7249
   22MOL0     C 2851   2.981  -0.379   6.888 -0.4121  0.8754 -0.8083
   22MOL0     N 2852   3.123  -0.370   6.921 -0.5129 -0.0021 -0.0770
   22MOL0     C 2853   3.215  -0.303   6.841 -0.8627 -0.3942  0.0382
   22MOL0     C 2854   3.337  -0.311   6.903 -0.8588 -0.2857  0.1351
   22MOL0     C 2855   3.461  -0.231   6.870  0.5204 -0.0302 -0.6140
   22MOL0     C 2856   3.543  -0.280   6.746  0.4017  0.7862  0.2542
   22MOL0     C 2857   3.484  -0.231   6.616  0.0557  0.2160  0.1323
   22MOL0     C 2858   3.569  -0.274   6.498 -0.0903  0.3289 -0.2129
   22MOL0     O 2859   3.580  -0.422   6.489  0.9427  0.1435 -0.9874
   22MOL0     C 2860   3.481  -0.486   6.429 -0.2956 -0.2306 -0.4235
   22MOL0     C 2861   3.371  -0.523   6.500 -0.4820 -0.0074  0.3209
   22MOL0     C 2862   3.273  -0.611   6.447 -0.1225  0.1172 -0.1997
   22MOL0     C 2863   3.159  -0.661   6.529  0.5992 -0.8728 -0.1453
   22MOL0     C 2864   3.287  -0.649   6.307 -0.7538 -0.7089  0.8447
   22MOL0     C 2865   3.202  -0.748   6.232 -0.4571  0.0867 -0.5307
   22MOL0     O 2866   3.255  -0.816   6.120  0.0666  0.0530  0.2333
   22MOL0     C 2867   3.158  -0.895   6.050 -0.8599  0.2865  0.1297
   22MOL0     C 2868   3.101  -1.010   6.099 -0.2772 -0.4856  0.0920
   22MOL0     C 2869   3.001  -1.074   6.017  0.0314  0.5917 -0.0948
   22MOL0     C 2870   2.950  -1.023   5.894 -0.0481 -0.7732 -0.4202
   22MOL0     O 2871   2.851  -1.076   5.817 -0.0223  0.9353  0.4463
   22MOL0     C 2872   2.766  -1.169   5.875 -0.7146 -0.5711 -1.4618
   22MOL0     C 2873   2.657  -1.221   5.789 -0.2282  1.0018 -0.2964
   22MOL0     C 2874   2.572  -1.097   5.761 -0.5769  0.7542 -0.8989
   22MOL0     C 2875   2.446  -1.135   5.683  0.7021  0.0884 -0.5967
   22MOL0     C 2876   2.391  -1.020   5.606 -0.2987  0.1991 -0.5909
   22MOL0     C 2877   2.317  -0.923   5.698 -0.0143  0.0364 -0.5172
   22MOL0     C 2878   2.418  -0.847   5.792 -0.1933 -0.3866 -1.3644
   22MOL0     C 2879   2.368  -0.699   5.798 -0.3498  0.3124  0.4295
   22MOL0    Cl 2880   2.392  -0.614   5.635  0.0557 -0.2062  0.2585
   22MOL0     C 2881   3.027  -0.921   5.848 -0.6114  0.2107  0.2207
   22MOL0     C 2882   3.131  -0.862   5.918  0.6544  0.3553 -1.4166
   22MOL0     O 2883   3.096  -0.774   6.289 -0.2475 -0.9092  0.5787
   22MOL0     C 2884   3.402  -0.608   6.236 -1.2556  0.0816  0.4681
   22MOL0     C 2885   3.494  -0.519   6.292 -0.2622 -0.5635 -0.1921
   22MOL0     N 2886   3.323  -0.397   7.012 -0.6013  0.4674  0.5513
   22MOL0     N 2887   3.194  -0.429   7.024 -0.5913 -0.1832  0.0129
   22MOL0     C 2888   2.587   0.038   7.540 -1.0838 -0.6865 -0.7976
   22MOL0     C 2889   2.451   0.044   7.579  0.0433  0.6939  1.1274
   22MOL0     C 2890   2.009  -0.065   7.646 -0.3487 -0.3485  0.5797
   22MOL0     C 2891   1.906  -0.039   7.554  0.3907  0.5911 -0.0939
   22MOL0     C 2892   1.770  -0.076   7.586  0.7578 -0.1582  0.0823
   22MOL0     C 2893   1.741  -0.131   7.712  0.0126 -0.7010  0.4758
   22MOL0     O 2894   1.622  -0.159   7.761  0.3687  0.2907  0.3699
   22MOL0     C 2895   1.514  -0.175   7.662  0.4454  0.1039 -0.1205
   22MOL0     C 2896   1.551  -0.295   7.571 -0.5448  0.8283 -0.4933
   22MOL0     C 2897   1.439  -0.323   7.462 -0.5639  0.1365  0.0340
   22MOL0     C 2898   1.304  -0.337   7.526 -0.4186 -0.3266  0.3815
   22MOL0     C 2899   1.300  -0.459   7.602 -0.0574 -0.6505 -1.8932
   22MOL0     C 2900   1.308  -0.562   7.669  0.2432  0.5273  0.2126
   22MOL0     C 2901   1.843  -0.138   7.808 -0.0364 -0.1622 -0.3614
   22MOL0     C 2902   1.977  -0.111   7.775  0.1709  0.9446  0.3583
   22MOL0     H 2903   2.437  -0.229   7.780  0.8894  0.5652  1.6402
   22MOL0     H 2904   2.681  -0.217   7.740  1.9593  1.9504  0.1127
   22MOL0     H 2905   2.920  -0.191   7.680 -1.3891 -2.4550  0.5564
   22MOL0     H 2906   2.824  -0.275   7.566  2.0798 -1.4822 -1.2109
   22MOL0     H 2907   3.059  -0.102   7.505 -2.7875  2.5762  2.7286
   22MOL0     H 2908   3.030  -0.283   7.465  4.8371  1.2055  1.5300
   22MOL0     H 2909   2.856  -0.217   7.305 -1.4124  1.7774 -1.3832
   22MOL0     H 2910   2.886  -0.049   7.340 -1.5061  0.1153  0.8443
   22MOL0     H 2911   3.129  -0.105   7.247  1.0675 -2.0117  2.4576
   22MOL0     H 2912   3.084  -0.264   7.212  3.5012  0.7701 -2.5357
   22MOL0     H 2913   2.971  -0.015   7.084 -1.8210 -0.6890 -1.2202
   22MOL0     H 2914   3.078  -0.145   7.008 -2.5693 -0.5006 -2.1110
   22MOL0     H 2915   2.790  -0.175   7.091  1.6259  0.2298  0.9696
   22MOL0     H 2916   2.835  -0.145   6.927  3.2432  0.4058 -1.3958
   22MOL0     H 2917   2.932  -0.402   7.094  0.5972 -0.5795 -1.2165
   22MOL0     H 2918   2.794  -0.394   7.000 -0.3548 -0.5749  1.6196
   22MOL0     H 2919   2.965  -0.314   6.801  5.2048  0.4102 -2.5847
   22MOL0     H 2920   2.960  -0.481   6.853  0.4688  1.1096 -2.0782
   22MOL0     H 2921   3.201  -0.242   6.752 -0.5817  1.4559  1.2059
   22MOL0     H 2922   3.426  -0.128   6.863  1.1136  0.3131  1.0784
   22MOL0     H 2923   3.529  -0.232   6.956 -1.7518 -0.4318  1.2741
   22MOL0     H 2924   3.541  -0.389   6.754 -1.1951  0.5773 -2.1150
   22MOL0     H 2925   3.644  -0.240   6.759  1.7401 -2.9371  3.1361
   22MOL0     H 2926   3.484  -0.122   6.612  0.3616  0.1929 -0.7284
   22MOL0     H 2927   3.379  -0.262   6.607  1.0596 -3.0879 -4.6168
   22MOL0     H 2928   3.670  -0.233   6.509  0.4880 -0.9250 -0.7264
   22MOL0     H 2929   3.533  -0.241   6.401  0.1570 -2.6018 -1.3875
   22MOL0     H 2930   3.358  -0.482   6.599 -1.1552  1.3262 -0.3019
   22MOL0     H 2931   3.163  -0.624   6.632 -1.3621 -0.7799 -0.0723
   22MOL0     H 2932   3.067  -0.634   6.476 -0.3307 -1.2969  1.1999
   22MOL0     H 2933   3.175  -0.769   6.525  2.9075 -0.5595 -2.3916
   22MOL0     H 2934   3.127  -1.039   6.200  0.4689  0.8639  0.3156
   22MOL0     H 2935   2.953  -1.160   6.063  2.9382  0.6496  3.4975
   22MOL0     H 2936   2.827  -1.255   5.904 -3.2221 -2.6051 -1.8807
   22MOL0     H 2937   2.722  -1.138   5.971  1.7151  1.1929 -0.8094
   22MOL0     H 2938   2.704  -1.275   5.706 -1.5477  0.2232 -0.5660
   22MOL0     H 2939   2.594  -1.285   5.851  3.2103  0.1848  2.6154
   22MOL0     H 2940   2.634  -1.022   5.710  0.9125  1.8026  2.2064
   22MOL0     H 2941   2.547  -1.057   5.860  2.8467 -1.4074  1.0143
   22MOL0     H 2942   2.466  -1.219   5.616  0.6130 -1.3182  1.0455
   22MOL0     H 2943   2.373  -1.184   5.750 -0.5786  1.6243 -0.8168
   22MOL0     H 2944   2.321  -1.075   5.541 -0.6013 -1.4219  1.0149
   22MOL0     H 2945   2.469  -0.978   5.543  3.8155 -4.4654  0.7342
   22MOL0     H 2946   2.251  -0.857   5.642 -0.6518 -0.3289 -0.2191
   22MOL0     H 2947   2.253  -0.989   5.758  1.0966  0.1652  0.8790
   22MOL0     H 2948   2.519  -0.845   5.751 -0.1626  2.6002 -1.4098
   22MOL0     H 2949   2.422  -0.889   5.893 -1.0209  1.1462 -0.6590
   22MOL0     H 2950   2.426  -0.641   5.870  0.1453 -0.6806  0.8437
   22MOL0     H 2951   2.263  -0.703   5.829 -0.0548 -2.6733  1.3740
   22MOL0     H 2952   3.026  -0.870   5.752  2.8389  1.6024  0.7595
   22MOL0     H 2953   3.186  -0.779   5.875  0.4781  1.2089 -0.0605
   22MOL0     H 2954   3.417  -0.629   6.130 -1.1847  0.5311  0.3853
   22MOL0     H 2955   3.576  -0.496   6.225 -0.9804 -0.3542 -1.0275
   22MOL0     H 2956   2.622   0.105   7.462  0.1113 -0.3030  0.0507
   22MOL0     H 2957   2.392   0.122   7.533 -0.9517  0.2650  1.6555
   22MOL0     H 2958   1.944   0.001   7.460  0.2166  1.0542  0.0293
   22MOL0     H 2959   1.688  -0.052   7.519 -1.9128 -4.9968  1.1938
   22MOL0     H 2960   1.417  -0.195   7.707  0.5358  1.3462  0.6892
   22MOL0     H 2961   1.501  -0.079   7.612 -0.9759 -0.1669 -0.2918
   22MOL0     H 2962   1.566  -0.386   7.629 -1.4525  0.3024 -1.0629
   22MOL0     H 2963   1.646  -0.268   7.524  0.5600  1.1689  1.8071
   22MOL0     H 2964   1.464  -0.416   7.411 -1.8743 -1.7491  2.6077
   22MOL0     H 2965   1.434  -0.242   7.389 -0.8322  1.1721  1.1640
   22MOL0     H 2966   1.226  -0.359   7.453  0.2813 -1.6727  0.0213
   22MOL0     H 2967   1.257  -0.246   7.564 -3.0117 -2.4165  2.6652
   22MOL0     H 2968   1.318  -0.657   7.716  0.9650  1.3219  1.7528
   22MOL0     H 2969   1.820  -0.181   7.905 -1.4675 -0.5755 -0.8629
   22MOL0     H 2970   2.067  -0.131   7.832  2.5713 -0.1440 -3.4815
   23MOL0     O 2971   6.823   1.872   5.557  0.0879 -0.5929  0.6857
   23MOL0     C 2972   6.860   1.984   5.503 -0.4286 -0.9583 -0.5402
   23MOL0     O 2973   6.782   2.102   5.502 -0.3383  0.2001  0.2575
   23MOL0     C 2974   6.659   2.090   5.558  0.8814  0.3739  0.4368
   23MOL0     C 2975   6.653   2.070   5.689  0.1833  0.7860 -0.5354
   23MOL0     C 2976   6.519   2.055   5.745 -0.6235 -0.0142 -0.2011
   23MOL0     C 2977   6.400   2.049   5.665 -0.8008 -0.2642  0.6879
   23MOL0     O 2978   6.277   2.012   5.706 -0.5477  0.3648  0.8325
   23MOL0     C 2979   6.231   2.049   5.843  0.9300  0.0735 -0.1966
   23MOL0     C 2980   6.132   2.167   5.822  0.2363  0.7958  0.5763
   23MOL0     C 2981   6.110   2.241   5.947  0.8877 -0.1227 -0.3080
   23MOL0     C 2982   6.043   2.157   6.062  0.0254  0.2243  0.3978
   23MOL0     C 2983   5.988   2.255   6.169  0.2537 -0.1934 -0.1644
   23MOL0     C 2984   5.940   2.174   6.280 -0.0930  0.0063  0.0731
   23MOL0     C 2985   5.887   2.248   6.403  0.1465 -0.3882  0.0363
   23MOL0     C 2986   5.764   2.339   6.357 -0.2156 -0.7572 -0.4789
   23MOL0     N 2987   5.657   2.259   6.295 -0.0570  0.3944  0.3195
   23MOL0     C 2988   5.612   2.273   6.166  1.2837 -0.3672  0.5797
   23MOL0     C 2989   5.519   2.175   6.148 -0.5788  0.2032  1.4555
   23MOL0     C 2990   5.460   2.131   6.009  0.4111 -0.1675 -0.4477
   23MOL0     C 2991   5.564   2.034   5.939  0.3408 -0.7120 -0.4778
   23MOL0     C 2992   5.495   1.954   5.834 -0.3633  0.0498  0.0553
   23MOL0     C 2993   5.430   2.029   5.728  0.8963 -0.2563  0.2332
   23MOL0     O 2994   5.371   1.937   5.642 -0.0974  0.0050 -0.1890
   23MOL0     C 2995   5.299   1.980   5.533  0.3602 -0.2971 -0.3411
   23MOL0     C 2996   5.254   1.880   5.447  0.4148 -0.0490  0.1507
   23MOL0     C 2997   5.179   1.890   5.326  0.9401 -0.0405  0.3014
   23MOL0     C 2998   5.141   1.770   5.247 -0.3964 -0.1039 -0.1227
   23MOL0     C 2999   5.151   2.027   5.291 -0.0684 -0.6189  0.7849
   23MOL0     C 3000   5.079   2.066   5.166  0.2152 -0.0979 -0.5822
   23MOL0     O 3001   5.044   1.964   5.081 -0.0751  0.5894 -0.4094
   23MOL0     C 3002   4.974   1.976   4.968 -0.6888  0.1289  0.6743
   23MOL0     C 3003   5.021   2.068   4.866 -0.1383  1.2244 -1.0247
   23MOL0     C 3004   4.931   2.088   4.762 -0.3951  0.1901  0.0629
   23MOL0     C 3005   4.818   2.020   4.739  0.2839  1.1834  0.5773
   23MOL0     O 3006   4.757   2.038   4.616  0.2735 -0.8969  0.4194
   23MOL0     C 3007   4.677   1.930   4.560  0.2086  0.1309 -0.9434
   23MOL0     C 3008   4.602   1.968   4.435 -0.3938 -0.2329 -1.2228
   23MOL0     C 3009   4.711   2.035   4.336 -0.0435 -0.4829  0.5167
   23MOL0     C 3010   4.653   2.078   4.194 -0.0023 -0.3525  0.0850
   23MOL0     C 3011   4.763   2.150   4.115 -0.9544  0.4749  0.1932
   23MOL0     C 3012   4.738   2.158   3.968 -0.3989 -0.4456  0.8556
   23MOL0     C 3013   4.637   2.270   3.924  0.3759  0.8128  0.8175
   23MOL0     C 3014   4.613   2.266   3.768 -0.6182  0.6278 -0.8898
   23MOL0    Cl 3015   4.779   2.266   3.685  0.1223 -0.1161  0.4498
   23MOL0     C 3016   4.778   1.927   4.835  0.1062 -0.4246  0.8461
   23MOL0     C 3017   4.853   1.904   4.948  0.3091  0.4009 -0.4292
   23MOL0     O 3018   5.068   2.183   5.132 -0.1329  0.2693  0.6143
   23MOL0     C 3019   5.171   2.125   5.385 -0.6996  0.5218 -0.3843
   23MOL0     C 3020   5.248   2.105   5.505 -0.5750  0.0474  0.1852
   23MOL0     N 3021   5.507   2.103   6.270 -0.4503  0.3854 -0.1739
   23MOL0     N 3022   5.587   2.162   6.360 -0.0694  0.2179  0.6795
   23MOL0     C 3023   6.423   2.072   5.531 -0.4034 -0.9869  0.0855
   23MOL0     C 3024   6.551   2.090   5.481  0.3700  0.0175  0.7771
   23MOL0     C 3025   6.999   1.986   5.443  0.2688  0.2800 -0.8679
   23MOL0     C 3026   7.059   2.100   5.397  0.9589 -0.3628  0.6359
   23MOL0     C 3027   7.188   2.104   5.346  0.6346  0.6130  0.4526
   23MOL0     C 3028   7.251   1.980   5.319  1.1025 -0.6194  1.3744
   23MOL0     O 3029   7.371   1.981   5.255  1.0434 -0.5996 -0.3657
   23MOL0     C 3030   7.438   1.873   5.193 -0.1274 -0.3728  0.5881
   23MOL0     C 3031   7.386   1.840   5.059 -0.5669  0.4770  0.8231
   23MOL0     C 3032   7.451   1.722   4.973 -0.0322 -0.1823  0.5299
   23MOL0     C 3033   7.496   1.603   5.068  0.5097 -0.9610 -0.0771
   23MOL0     C 3034   7.377   1.537   5.125 -0.3002  0.6618  0.1461
   23MOL0     C 3035   7.285   1.468   5.161 -0.4486 -0.7735  0.4246
   23MOL0     C 3036   7.182   1.859   5.354  0.6015  0.7662  0.5552
   23MOL0     C 3037   7.057   1.861   5.425  0.2379  0.3970  0.1855
   23MOL0     H 3038   6.742   2.058   5.750 -0.5379  0.0256  0.3949
   23MOL0     H 3039   6.511   2.012   5.845 -1.3403 -0.2445 -0.3532
   23MOL0     H 3040   6.165   1.969   5.878  2.2045 -0.8233  0.2222
   23MOL0     H 3041   6.310   2.059   5.917 -0.1736 -2.5488  1.4707
   23MOL0     H 3042   6.165   2.232   5.740 -0.8535  0.9404  0.2447
   23MOL0     H 3043   6.035   2.130   5.788  0.9757  0.5832 -1.4515
   23MOL0     H 3044   6.211   2.277   5.971  2.8511 -4.9976 -0.1330
   23MOL0     H 3045   6.047   2.329   5.932 -0.7405 -1.1483  0.2292
   23MOL0     H 3046   5.970   2.092   6.013  1.0322  0.8813 -2.1288
   23MOL0     H 3047   6.124   2.097   6.103 -1.2880 -0.8857  1.4663
   23MOL0     H 3048   6.070   2.320   6.203  0.1942 -0.9086  1.4854
   23MOL0     H 3049   5.918   2.320   6.117 -0.0558  1.4802  2.1558
   23MOL0     H 3050   5.870   2.097   6.246  0.9490 -0.5740 -0.8426
   23MOL0     H 3051   6.029   2.118   6.313  0.1383  1.7196  2.6441
   23MOL0     H 3052   5.856   2.170   6.473 -2.4674  0.4250 -0.0856
   23MOL0     H 3053   5.975   2.298   6.444  1.0484 -2.7912  1.1899
   23MOL0     H 3054   5.796   2.408   6.278 -0.9878 -0.7654 -0.8056
   23MOL0     H 3055   5.730   2.395   6.444  0.2637  1.0626 -1.4144
   23MOL0     H 3056   5.658   2.327   6.084  0.9117 -1.5876 -0.4654
   23MOL0     H 3057   5.366   2.079   6.032  0.2400 -1.2115 -3.1989
   23MOL0     H 3058   5.427   2.218   5.952 -3.4721 -0.9700  0.2767
   23MOL0     H 3059   5.610   1.968   6.013 -1.1053 -0.5437  0.6194
   23MOL0     H 3060   5.637   2.098   5.889 -0.8355  1.5405  0.5370
   23MOL0     H 3061   5.418   1.891   5.879 -2.0566  1.4452 -0.7917
   23MOL0     H 3062   5.572   1.885   5.797  1.3471  1.0134  1.6145
   23MOL0     H 3063   5.487   2.103   5.671 -0.8152  1.3176  0.4920
   23MOL0     H 3064   5.342   2.082   5.765  0.4798 -1.3521  0.8912
   23MOL0     H 3065   5.252   1.775   5.475 -2.0095 -0.4038 -1.1618
   23MOL0     H 3066   5.171   1.680   5.302 -0.4758 -0.8557 -1.2626
   23MOL0     H 3067   5.033   1.764   5.228 -0.5214  1.4912 -0.0634
   23MOL0     H 3068   5.191   1.788   5.152 -1.1358 -4.7082 -1.6676
   23MOL0     H 3069   5.115   2.121   4.878  0.3749 -0.1328  1.6785
   23MOL0     H 3070   4.960   2.163   4.690  3.7361  1.3859  2.5949
   23MOL0     H 3071   4.745   1.850   4.530 -0.9050 -0.9084 -0.7785
   23MOL0     H 3072   4.612   1.886   4.636  3.8702 -1.6223  1.4251
   23MOL0     H 3073   4.559   1.876   4.395 -1.7853  0.3371 -1.0868
   23MOL0     H 3074   4.517   2.029   4.469  0.6032  1.4501 -1.6710
   23MOL0     H 3075   4.800   1.976   4.314 -1.6853 -1.6567 -4.4054
   23MOL0     H 3076   4.754   2.125   4.382  1.8251 -0.5070 -1.0286
   23MOL0     H 3077   4.616   1.985   4.151  2.6781 -1.0675 -0.8625
   23MOL0     H 3078   4.559   2.134   4.206 -0.8407 -2.1100  2.4363
   23MOL0     H 3079   4.850   2.087   4.136 -0.2421  1.9886  2.0075
   23MOL0     H 3080   4.780   2.247   4.161 -1.6176 -0.6648  3.1065
   23MOL0     H 3081   4.830   2.172   3.909 -2.4737  2.0079 -2.1582
   23MOL0     H 3082   4.694   2.060   3.949  0.1691 -0.5058 -0.2471
   23MOL0     H 3083   4.667   2.371   3.951 -4.3025  2.8446 -0.5903
   23MOL0     H 3084   4.544   2.242   3.974 -2.0025  1.9206 -2.6615
   23MOL0     H 3085   4.558   2.356   3.742  0.2471  0.9120 -1.8282
   23MOL0     H 3086   4.545   2.184   3.742  1.3418 -1.7153  0.8039
   23MOL0     H 3087   4.687   1.868   4.825  0.3025 -0.3986 -1.7651
   23MOL0     H 3088   4.822   1.831   5.022 -0.2439  2.8213  1.8351
   23MOL0     H 3089   5.133   2.225   5.373 -3.7390 -0.5799 -0.8403
   23MOL0     H 3090   5.258   2.183   5.580 -2.1733 -1.2820  1.8699
   23MOL0     H 3091   6.333   2.070   5.469  0.6227  2.6222 -1.8228
   23MOL0     H 3092   6.572   2.106   5.376 -0.9945  1.2442  0.6470
   23MOL0     H 3093   7.007   2.193   5.418  0.5777 -0.4717  0.1838
   23MOL0     H 3094   7.233   2.200   5.324  1.6410  0.4495  1.6472
   23MOL0     H 3095   7.539   1.914   5.185  0.7430 -1.7922  3.1401
   23MOL0     H 3096   7.446   1.788   5.262  3.9804 -0.3257  0.3992
   23MOL0     H 3097   7.388   1.929   4.995  0.5620 -1.4976 -2.1435
   23MOL0     H 3098   7.279   1.818   5.057 -0.2607 -1.3343  1.7758
   23MOL0     H 3099   7.537   1.761   4.917 -0.7518  2.0448  0.8775
   23MOL0     H 3100   7.382   1.685   4.896  0.7015 -0.2042 -0.1326
   23MOL0     H 3101   7.562   1.640   5.146  1.6605 -1.0680 -0.9744
   23MOL0     H 3102   7.548   1.525   5.011 -0.3514 -1.5543 -0.0681
   23MOL0     H 3103   7.206   1.408   5.198  0.5413 -1.7903  0.9382
   23MOL0     H 3104   7.215   1.764   5.314 -0.1331  1.5530 -2.0767
   23MOL0     H 3105   7.001   1.768   5.435 -1.1475  0.8087 -2.5873
   24MOL0     O 3106   7.642   6.225   0.288  0.8469 -0.1491 -0.2342
   24MOL0     C 3107   7.557   6.157   0.226  0.0190 -0.3164 -0.8248
   24MOL0     O 3108   7.430   6.197   0.191 -0.7838 -0.2563  0.2548
   24MOL0     C 3109   7.376   6.312   0.239 -0.6100  0.5187 -0.4952
   24MOL0     C 3110   7.258   6.355   0.168 -0.6119 -0.5362  0.6692
   24MOL0     C 3111   7.204   6.480   0.196  0.4208  0.8170 -0.2898
   24MOL0     C 3112   7.258   6.554   0.299  0.0385 -0.7242 -0.5225
   24MOL0     O 3113   7.198   6.674   0.333 -0.0121  0.1140 -0.4129
   24MOL0     C 3114   7.072   6.708   0.280  0.9161 -0.1085 -0.1415
   24MOL0     C 3115   6.950   6.612   0.292 -0.7572 -0.0840  0.3461
   24MOL0     C 3116   6.890   6.629   0.432  0.4495 -0.9382 -0.2405
   24MOL0     C 3117   6.978   6.605   0.560  0.3276  0.6897 -0.3281
   24MOL0     C 3118   6.899   6.611   0.688 -0.1713  0.4307 -0.1999
   24MOL0     C 3119   6.855   6.468   0.735 -0.4084 -0.2055  0.8965
   24MOL0     C 3120   6.735   6.465   0.820  0.2542 -1.6646  0.1277
   24MOL0     C 3121   6.684   6.333   0.860 -0.2467  0.4115 -0.0122
   24MOL0     N 3122   6.602   6.278   0.746 -0.1373  0.1110  0.6599
   24MOL0     C 3123   6.465   6.268   0.727  0.8627  0.5656 -0.3782
   24MOL0     C 3124   6.444   6.165   0.638  0.0049 -0.2967 -1.3155
   24MOL0     C 3125   6.306   6.124   0.599 -1.1461  0.9520  0.0723
   24MOL0     C 3126   6.214   6.081   0.701  1.0240  0.3277 -0.1004
   24MOL0     C 3127   6.275   5.978   0.801 -0.7648  0.3837 -0.5487
   24MOL0     C 3128   6.306   5.841   0.738  0.0365 -0.3576 -0.2869
   24MOL0     O 3129   6.351   5.750   0.846 -0.3058  0.9673  0.1027
   24MOL0     C 3130   6.478   5.698   0.846 -1.3545 -0.2469  0.2628
   24MOL0     C 3131   6.584   5.795   0.843  0.5175  0.1609 -0.1565
   24MOL0     C 3132   6.718   5.762   0.867 -0.6380 -0.2057 -0.8008
   24MOL0     C 3133   6.820   5.875   0.845  0.9735 -0.0431 -0.5212
   24MOL0     C 3134   6.751   5.626   0.903 -0.2404  0.3384 -0.5846
   24MOL0     C 3135   6.896   5.571   0.908  0.8437  0.0271  0.3369
   24MOL0     O 3136   6.986   5.661   0.946  0.7685  0.2637  0.0578
   24MOL0     C 3137   7.120   5.626   0.933  0.0711 -0.4048 -0.2587
   24MOL0     C 3138   7.174   5.552   1.035  0.6285  0.1104 -0.4821
   24MOL0     C 3139   7.310   5.524   1.035 -0.7532  0.8341  0.0864
   24MOL0     C 3140   7.385   5.550   0.919  0.0053 -0.2954  0.2215
   24MOL0     O 3141   7.515   5.513   0.902 -0.5796 -0.1975  0.0923
   24MOL0     C 3142   7.547   5.393   0.965  0.7601  0.3322 -0.3472
   24MOL0     C 3143   7.466   5.274   0.913 -0.8844  0.1137 -0.1295
   24MOL0     C 3144   7.527   5.201   0.792 -0.1638  1.1320 -0.8672
   24MOL0     C 3145   7.601   5.074   0.844  0.4237 -0.1825 -1.2790
   24MOL0     C 3146   7.682   5.009   0.730 -0.2032  0.4720 -1.4564
   24MOL0     C 3147   7.612   4.987   0.589  0.5225 -0.2744 -0.8551
   24MOL0     C 3148   7.703   4.896   0.501 -0.1357 -0.0247 -0.8040
   24MOL0     C 3149   7.831   4.962   0.463 -1.8032 -0.4946  0.6012
   24MOL0    Cl 3150   7.825   5.137   0.415 -0.2920  0.2847 -0.0727
   24MOL0     C 3151   7.317   5.605   0.815  0.0117  0.4671  0.7916
   24MOL0     C 3152   7.189   5.655   0.817  0.3943 -0.5119 -0.3282
   24MOL0     O 3153   6.914   5.456   0.873  0.1841  0.0593  0.2941
   24MOL0     C 3154   6.651   5.532   0.905  0.6760 -0.2590 -0.1591
   24MOL0     C 3155   6.512   5.564   0.878 -0.5547  0.6150  0.6580
   24MOL0     N 3156   6.573   6.108   0.607  0.4314 -0.0619  0.3956
   24MOL0     N 3157   6.663   6.189   0.668 -0.7031  0.1507  0.1057
   24MOL0     C 3158   7.363   6.512   0.375 -0.3256 -0.8448  1.1436
   24MOL0     C 3159   7.423   6.394   0.342 -0.6166 -0.5040  1.3286
   24MOL0     C 3160   7.584   6.028   0.173  0.6731  0.5458  0.0488
   24MOL0     C 3161   7.483   5.945   0.118 -0.0839  0.5526 -0.9440
   24MOL0     C 3162   7.515   5.817   0.079 -0.1746 -0.4547  0.9152
   24MOL0     C 3163   7.649   5.762   0.090 -0.0589 -1.0686 -0.9758
   24MOL0     O 3164   7.654   5.632   0.055  0.3564  0.1576 -0.2186
   24MOL0     C 3165   7.771   5.562   0.018 -0.2605 -0.3886  0.1038
   24MOL0     C 3166   7.734   5.422  -0.020  0.9347 -1.0282  0.0057
   24MOL0     C 3167   7.790   5.380  -0.157 -0.0955 -0.7681 -0.5303
   24MOL0     C 3168   7.712   5.451  -0.269  0.5086  1.0854  0.6458
   24MOL0     C 3169   7.596   5.370  -0.311 -0.2039 -1.2278  0.6649
   24MOL0     C 3170   7.509   5.298  -0.361  0.5118  0.2063 -0.0921
   24MOL0     C 3171   7.751   5.843   0.149 -0.2504 -0.4982  0.1359
   24MOL0     C 3172   7.718   5.973   0.191 -0.3474 -0.3933 -0.8388
   24MOL0     H 3173   7.217   6.291   0.090  0.6458 -0.7859  0.1776
   24MOL0     H 3174   7.119   6.505   0.133 -0.9282  0.0215  1.1614
   24MOL0     H 3175   7.053   6.807   0.323  0.3137 -1.0033  1.7881
   24MOL0     H 3176   7.081   6.718   0.172  0.6512 -1.6921 -0.3333
   24MOL0     H 3177   6.882   6.642   0.212  0.2083 -0.3416 -0.5966
   24MOL0     H 3178   6.975   6.507   0.271  2.6098  0.5625  0.5033
   24MOL0     H 3179   6.854   6.732   0.441 -1.0751 -1.5195  0.7424
   24MOL0     H 3180   6.800   6.572   0.457 -0.8076  0.8581 -0.4338
   24MOL0     H 3181   7.029   6.509   0.553 -0.2655  0.4204 -1.1234
   24MOL0     H 3182   7.048   6.689   0.557  1.8078 -0.5026 -0.3678
   24MOL0     H 3183   6.964   6.652   0.766  0.4202 -0.1905 -0.3534
   24MOL0     H 3184   6.810   6.673   0.671 -2.2883 -2.3018  0.2312
   24MOL0     H 3185   6.837   6.417   0.640  1.3267  2.2355 -0.8743
   24MOL0     H 3186   6.942   6.430   0.788  0.5508  0.6013 -0.0491
   24MOL0     H 3187   6.754   6.516   0.915  3.2509 -0.7453 -0.8667
   24MOL0     H 3188   6.647   6.511   0.774 -0.8959 -3.1875  0.7229
   24MOL0     H 3189   6.609   6.354   0.936 -1.7157  0.4215 -1.3917
   24MOL0     H 3190   6.765   6.270   0.898 -1.5024  0.1676  2.4733
   24MOL0     H 3191   6.386   6.330   0.769 -1.3891 -0.3134 -3.0368
   24MOL0     H 3192   6.251   6.207   0.554 -1.6981  0.5139 -0.0756
   24MOL0     H 3193   6.304   6.041   0.528 -0.9816  1.1379 -0.1528
   24MOL0     H 3194   6.123   6.044   0.654 -1.0617  2.5460  1.8905
   24MOL0     H 3195   6.187   6.169   0.761 -1.8750  0.0984 -0.9429
   24MOL0     H 3196   6.203   5.955   0.880 -0.1035 -3.0550 -0.7763
   24MOL0     H 3197   6.369   6.011   0.847  2.1471 -3.7906 -2.7514
   24MOL0     H 3198   6.380   5.856   0.660 -0.9550  2.2169 -0.8254
   24MOL0     H 3199   6.213   5.806   0.693 -0.7414 -0.1952  1.1253
   24MOL0     H 3200   6.570   5.902   0.830  0.5867  0.0833 -0.9059
   24MOL0     H 3201   6.764   5.960   0.806 -1.2205 -0.4502  1.4953
   24MOL0     H 3202   6.860   5.901   0.944  2.5909 -2.9731 -0.3088
   24MOL0     H 3203   6.902   5.848   0.779  1.1922  0.5484 -0.5009
   24MOL0     H 3204   7.121   5.538   1.129 -0.7647  1.2912 -1.0536
   24MOL0     H 3205   7.342   5.488   1.132 -1.9895  1.2581  0.6736
   24MOL0     H 3206   7.655   5.376   0.968  0.8887  1.1276  2.0504
   24MOL0     H 3207   7.511   5.387   1.069 -1.1353 -2.7934 -1.0547
   24MOL0     H 3208   7.447   5.206   0.997 -1.1888  0.8752  0.4344
   24MOL0     H 3209   7.370   5.309   0.874 -0.1193  0.5974 -1.6526
   24MOL0     H 3210   7.596   5.257   0.728  0.1471  2.6662  0.7285
   24MOL0     H 3211   7.440   5.179   0.730 -0.9281  1.5180  0.0402
   24MOL0     H 3212   7.672   5.108   0.919 -1.9280  0.5838  0.7288
   24MOL0     H 3213   7.531   5.012   0.901  1.1802  4.0423  5.2475
   24MOL0     H 3214   7.705   4.910   0.772  1.0301  2.1114  2.1391
   24MOL0     H 3215   7.773   5.068   0.716 -2.0487  2.8087 -5.2222
   24MOL0     H 3216   7.518   4.934   0.609  0.2616 -0.4723 -2.4577
   24MOL0     H 3217   7.585   5.080   0.537  2.3606 -1.1053 -3.5191
   24MOL0     H 3218   7.649   4.864   0.412  0.5480 -0.8679 -0.9243
   24MOL0     H 3219   7.732   4.800   0.543 -1.4104  0.6253  1.7345
   24MOL0     H 3220   7.867   4.908   0.375  2.4805  1.7108  0.7105
   24MOL0     H 3221   7.906   4.942   0.541 -2.1453  0.3943  1.1711
   24MOL0     H 3222   7.371   5.596   0.721 -3.6639 -2.7687 -1.3300
   24MOL0     H 3223   7.144   5.706   0.732  1.2064  1.6803  0.5188
   24MOL0     H 3224   6.677   5.429   0.930 -0.6522 -0.4507  0.5080
   24MOL0     H 3225   6.438   5.486   0.888 -0.6431  0.2219 -2.2531
   24MOL0     H 3226   7.411   6.566   0.456 -1.5550  0.8136  0.8319
   24MOL0     H 3227   7.515   6.376   0.397  0.5737  0.0661 -0.4084
   24MOL0     H 3228   7.381   5.977   0.096  0.9873  4.1629 -1.2859
   24MOL0     H 3229   7.439   5.761   0.026  0.1049  3.3394 -4.1620
   24MOL0     H 3230   7.814   5.614  -0.067 -0.8865  2.0082  1.1569
   24MOL0     H 3231   7.835   5.573   0.106 -0.3454  1.6098 -0.0423
   24MOL0     H 3232   7.625   5.413  -0.028  0.4718  1.0438  2.4663
   24MOL0     H 3233   7.765   5.353   0.058 -2.3661 -2.0994  0.5310
   24MOL0     H 3234   7.780   5.271  -0.167 -0.3172 -0.6182 -2.3538
   24MOL0     H 3235   7.897   5.405  -0.152 -0.2598 -0.1318 -0.1263
   24MOL0     H 3236   7.781   5.459  -0.354  3.1302  2.6816  2.7605
   24MOL0     H 3237   7.685   5.551  -0.232  0.6783  0.9141  1.2337
   24MOL0     H 3238   7.446   5.226  -0.410 -0.8243  1.7691 -0.7557
   24MOL0     H 3239   7.853   5.808   0.165  0.0545  1.4719  3.3948
   24MOL0     H 3240   7.794   6.030   0.244 -1.5383  0.0174  0.4878
   25MOL0     O 3241   2.738   6.670   1.170 -0.6817  0.1515  0.1533
   25MOL0     C 3242   2.830   6.744   1.145 -0.0910 -0.9746  0.6327
   25MOL0     O 3243   2.901   6.752   1.024  0.3496  0.7153  0.1254
   25MOL0     C 3244   2.877   6.651   0.931 -0.6587 -0.5284 -0.0299
   25MOL0     C 3245   2.817   6.678   0.810 -0.3995  0.4762  0.4003
   25MOL0     C 3246   2.788   6.570   0.729 -0.1277 -0.0764 -1.0209
   25MOL0     C 3247   2.817   6.436   0.757 -0.0248 -0.7731  1.3822
   25MOL0     O 3248   2.781   6.325   0.684 -0.3418 -1.0359 -0.5657
   25MOL0     C 3249   2.779   6.347   0.545 -0.2849  0.0951  0.0963
   25MOL0     C 3250   2.768   6.211   0.469  0.8130 -0.5764  0.8575
   25MOL0     C 3251   2.626   6.167   0.488  0.5262  0.9764 -0.3777
   25MOL0     C 3252   2.611   6.039   0.398  0.2666 -0.9701  0.3427
   25MOL0     C 3253   2.468   5.991   0.392 -0.3122  0.1075  0.2409
   25MOL0     C 3254   2.345   6.082   0.370 -0.8905  1.0324  0.6097
   25MOL0     C 3255   2.345   6.218   0.308  0.4886  0.2986 -0.4416
   25MOL0     C 3256   2.456   6.242   0.198  0.3141 -0.0163  0.3636
   25MOL0     N 3257   2.419   6.365   0.121  0.0409 -1.1400 -0.4176
   25MOL0     C 3258   2.484   6.484   0.105 -0.8921  0.1959 -0.5343
   25MOL0     C 3259   2.415   6.558   0.019 -0.6581  0.0394 -0.6617
   25MOL0     C 3260   2.471   6.691  -0.042  0.4959  0.7580  0.2035
   25MOL0     C 3261   2.585   6.659  -0.145 -0.0709  0.5079  0.8208
   25MOL0     C 3262   2.730   6.690  -0.099 -0.3499  0.2449  0.1401
   25MOL0     C 3263   2.830   6.665  -0.206 -0.0888  0.1240 -0.5513
   25MOL0     O 3264   2.966   6.680  -0.166  0.1793  0.1322  0.8390
   25MOL0     C 3265   3.038   6.580  -0.113 -0.8453  0.2971 -0.4731
   25MOL0     C 3266   3.171   6.618  -0.095  0.7994 -0.0812  0.2280
   25MOL0     C 3267   3.264   6.524  -0.053 -0.2244 -0.2041  0.7150
   25MOL0     C 3268   3.398   6.586  -0.017 -0.0968  0.3244  0.2022
   25MOL0     C 3269   3.230   6.387  -0.026  0.1082 -0.7551  0.6996
   25MOL0     C 3270   3.322   6.270   0.025  0.9130 -1.0249 -0.0025
   25MOL0     O 3271   3.245   6.164   0.074 -0.0828 -0.2983 -0.0480
   25MOL0     C 3272   3.276   6.120   0.202 -0.2971  0.9619 -0.2088
   25MOL0     C 3273   3.338   6.194   0.298 -0.5858  0.1249 -0.1838
   25MOL0     C 3274   3.383   6.128   0.408  0.6332  0.0510 -0.6763
   25MOL0     C 3275   3.350   5.994   0.434 -0.5394 -0.5908 -0.2885
   25MOL0     O 3276   3.379   5.943   0.554  0.8607 -0.4137 -1.4095
   25MOL0     C 3277   3.505   5.885   0.573  0.9013  0.6315  0.1454
   25MOL0     C 3278   3.587   5.967   0.672 -0.8895  0.7414  0.3081
   25MOL0     C 3279   3.534   5.986   0.821  0.4672 -0.4147  0.4201
   25MOL0     C 3280   3.656   6.004   0.909 -0.8118 -0.3554 -0.4224
   25MOL0     C 3281   3.616   5.998   1.050  0.8081 -0.6309 -0.4418
   25MOL0     C 3282   3.718   5.941   1.143  0.9379 -0.2270  1.1064
   25MOL0     C 3283   3.692   5.952   1.285  0.0498  0.2601 -0.3716
   25MOL0     C 3284   3.716   5.833   1.373  0.1762 -0.0294 -0.3448
   25MOL0    Cl 3285   3.608   5.856   1.515 -0.2448 -0.6678  0.3183
   25MOL0     C 3286   3.270   5.921   0.343 -0.8643  0.4449  0.0727
   25MOL0     C 3287   3.234   5.985   0.224 -0.0416  0.0494  0.4856
   25MOL0     O 3288   3.436   6.262  -0.023 -0.2894 -0.2305 -0.4002
   25MOL0     C 3289   3.086   6.361  -0.045 -0.0169  0.0753  0.0374
   25MOL0     C 3290   2.996   6.451  -0.093  0.0553  0.1103  0.1937
   25MOL0     N 3291   2.307   6.477  -0.026 -0.7939 -0.4473 -0.4085
   25MOL0     N 3292   2.309   6.376   0.054  1.1255 -0.8371  0.2253
   25MOL0     C 3293   2.892   6.413   0.870 -0.7471 -0.5093 -0.3932
   25MOL0     C 3294   2.921   6.519   0.962  0.3052  0.4196 -0.6618
   25MOL0     C 3295   2.870   6.843   1.250 -0.2943 -0.4687  0.1003
   25MOL0     C 3296   2.780   6.880   1.351  0.1308 -0.2188 -0.5613
   25MOL0     C 3297   2.812   6.985   1.442  0.2948 -0.6131 -0.9934
   25MOL0     C 3298   2.922   7.063   1.414 -0.0410  0.3397  0.4227
   25MOL0     O 3299   2.964   7.160   1.504 -0.0233 -0.5326 -0.0359
   25MOL0     C 3300   3.072   7.249   1.469  0.7322 -0.0833  1.0215
   25MOL0     C 3301   3.110   7.340   1.585 -0.2164 -0.8056  0.7218
   25MOL0     C 3302   2.982   7.400   1.650  0.0655 -0.4377  0.0004
   25MOL0     C 3303   3.019   7.528   1.731  0.2751  0.6252  0.0724
   25MOL0     C 3304   2.942   7.645   1.690  0.0118  0.3446  0.9629
   25MOL0     C 3305   2.879   7.753   1.664 -0.2989  1.1484 -0.0379
   25MOL0     C 3306   3.013   7.036   1.309  1.2493  0.2155  0.1464
   25MOL0     C 3307   2.985   6.928   1.225 -0.5299  0.3943  0.4256
   25MOL0     H 3308   2.798   6.784   0.794 -0.3098  0.6835  1.5716
   25MOL0     H 3309   2.740   6.590   0.633 -1.5369 -0.0995 -0.3448
   25MOL0     H 3310   2.691   6.409   0.523 -0.6641 -0.2065  0.7614
   25MOL0     H 3311   2.863   6.406   0.506  1.3304 -0.4191  2.5966
   25MOL0     H 3312   2.767   6.236   0.363 -1.3948 -1.6948  0.5518
   25MOL0     H 3313   2.845   6.136   0.492  4.3281  0.3904 -5.5086
   25MOL0     H 3314   2.614   6.148   0.595  1.5478 -2.6652 -0.7688
   25MOL0     H 3315   2.546   6.238   0.466 -2.3984 -2.7011 -3.0106
   25MOL0     H 3316   2.640   6.067   0.296  0.9232 -0.6560  0.6106
   25MOL0     H 3317   2.679   5.958   0.428  0.4741 -0.8335  0.2412
   25MOL0     H 3318   2.466   5.910   0.318 -2.5516  0.3433 -0.0162
   25MOL0     H 3319   2.454   5.942   0.489 -1.6424 -0.9775 -0.4735
   25MOL0     H 3320   2.271   6.029   0.310 -0.6233  3.1827 -1.7957
   25MOL0     H 3321   2.285   6.103   0.459 -4.1169 -2.3506 -0.5241
   25MOL0     H 3322   2.249   6.233   0.259  0.6955  3.1922 -0.1014
   25MOL0     H 3323   2.361   6.297   0.381  0.5911  1.9280 -2.1585
   25MOL0     H 3324   2.436   6.151   0.141  2.0958 -1.3199  1.6815
   25MOL0     H 3325   2.555   6.245   0.245  0.3488  0.5568  0.2577
   25MOL0     H 3326   2.574   6.506   0.162  0.2407 -1.8539 -1.4214
   25MOL0     H 3327   2.390   6.739  -0.098  0.7803 -0.7749 -1.5919
   25MOL0     H 3328   2.504   6.763   0.035  0.1653 -0.9187  1.9994
   25MOL0     H 3329   2.574   6.728  -0.229  0.8454  0.4683  0.6589
   25MOL0     H 3330   2.577   6.560  -0.191 -3.0421  0.3207  1.5056
   25MOL0     H 3331   2.762   6.635  -0.010 -0.1178  0.5275  0.2343
   25MOL0     H 3332   2.746   6.795  -0.072  0.9188 -0.4835  2.5643
   25MOL0     H 3333   2.819   6.723  -0.298  1.3877  0.1915 -0.7069
   25MOL0     H 3334   2.817   6.563  -0.243 -2.5383  0.8085 -1.7922
   25MOL0     H 3335   3.191   6.725  -0.097  1.1435 -0.1559 -0.4329
   25MOL0     H 3336   3.480   6.525  -0.054 -2.4534 -1.9676 -1.6326
   25MOL0     H 3337   3.410   6.685  -0.062  1.5019  0.3597  0.6659
   25MOL0     H 3338   3.411   6.593   0.091 -2.2745  1.9630  0.4489
   25MOL0     H 3339   3.370   6.297   0.288  3.2409 -0.6090  2.3322
   25MOL0     H 3340   3.435   6.187   0.483 -0.0547  2.1734 -1.7893
   25MOL0     H 3341   3.496   5.780   0.601  2.1472  0.5865  0.4438
   25MOL0     H 3342   3.558   5.885   0.478 -0.7892 -0.6526 -0.8301
   25MOL0     H 3343   3.676   5.905   0.675  0.6352  2.6839 -1.4425
   25MOL0     H 3344   3.614   6.066   0.635  0.7397  1.5032  3.2492
   25MOL0     H 3345   3.482   5.895   0.850 -5.2393  1.6141 -1.8602
   25MOL0     H 3346   3.469   6.074   0.822 -1.3802 -1.7259  0.1297
   25MOL0     H 3347   3.725   5.922   0.885 -1.5432 -0.5373 -2.0500
   25MOL0     H 3348   3.712   6.097   0.896  2.4195 -2.1479 -0.5227
   25MOL0     H 3349   3.520   5.949   1.068  1.4473 -1.2890  1.3893
   25MOL0     H 3350   3.609   6.105   1.074 -1.1570 -0.7681 -0.2278
   25MOL0     H 3351   3.731   5.839   1.106 -0.8517  0.0294 -0.3520
   25MOL0     H 3352   3.809   5.997   1.118  0.4699  0.1180  0.1339
   25MOL0     H 3353   3.585   5.973   1.287  0.3705  2.5316 -2.1920
   25MOL0     H 3354   3.752   6.032   1.329 -0.7958 -0.4773  2.3154
   25MOL0     H 3355   3.819   5.816   1.406  0.3411 -0.2742 -0.9697
   25MOL0     H 3356   3.699   5.738   1.322 -0.0913  0.1261 -0.5463
   25MOL0     H 3357   3.246   5.816   0.354  2.7515 -0.6635 -1.2963
   25MOL0     H 3358   3.178   5.926   0.152 -0.0604 -0.1717  0.6790
   25MOL0     H 3359   3.048   6.267  -0.009 -0.9359  1.2518  2.3648
   25MOL0     H 3360   2.889   6.433  -0.088  0.3445 -1.7345  0.2897
   25MOL0     H 3361   2.928   6.314   0.898  0.8939 -0.5361 -2.3203
   25MOL0     H 3362   2.967   6.485   1.054  2.5914  1.9595 -1.1466
   25MOL0     H 3363   2.692   6.821   1.375  0.4023 -0.9837 -1.3666
   25MOL0     H 3364   2.742   7.001   1.523 -0.2128 -2.1508 -1.1100
   25MOL0     H 3365   3.164   7.190   1.461  1.9777  1.8765 -0.2433
   25MOL0     H 3366   3.057   7.299   1.372  0.2272 -1.5923  0.2984
   25MOL0     H 3367   3.171   7.416   1.535 -0.5493 -2.5312 -2.5710
   25MOL0     H 3368   3.167   7.286   1.660  2.0618  2.0795  1.2717
   25MOL0     H 3369   2.928   7.332   1.717  0.2861  0.5070  1.1785
   25MOL0     H 3370   2.909   7.430   1.575 -1.2119  0.0362  1.3879
   25MOL0     H 3371   3.125   7.549   1.719  0.1250  0.7519 -1.1900
   25MOL0     H 3372   3.004   7.519   1.839 -1.3128  3.3303  0.1655
   25MOL0     H 3373   2.806   7.822   1.628 -0.8820  1.4881  1.7122
   25MOL0     H 3374   3.102   7.095   1.292  1.9088 -0.6237  0.6344
   25MOL0     H 3375   3.060   6.911   1.148  0.2373 -2.2741  1.6370
   26MOL0     O 3376   6.581   9.898   6.279  0.0221  0.2048  0.1770
   26MOL0     C 3377   6.531  10.003   6.323 -0.0797 -0.6176  0.3861
   26MOL0     O 3378   6.512  10.041   6.450  0.4140  0.2592 -0.2450
   26MOL0     C 3379   6.540   9.956   6.563  0.3739 -0.8267 -0.6640
   26MOL0     C 3380   6.518  10.018   6.686 -0.0418 -0.5725 -0.1170
   26MOL0     C 3381   6.541   9.956   6.808 -0.0573  0.1229  0.7286
   26MOL0     C 3382   6.581   9.824   6.809 -0.0462 -0.4596 -0.5178
   26MOL0     O 3383   6.608   9.761   6.933  0.7743  0.2961 -0.6211
   26MOL0     C 3384   6.752   9.745   6.945 -0.5168  0.1163 -0.1131
   26MOL0     C 3385   6.755   9.661   7.067  0.0708 -0.0268 -1.2945
   26MOL0     C 3386   6.894   9.597   7.072  0.2883 -0.5170  0.1069
   26MOL0     C 3387   6.922   9.545   7.212  0.9173  1.2141 -0.9528
   26MOL0     C 3388   6.878   9.400   7.232  0.4573  0.7198  0.4555
   26MOL0     C 3389   6.903   9.356   7.372  0.6177  0.0260 -0.0031
   26MOL0     C 3390   7.045   9.311   7.387  1.2960 -0.2667  0.1854
   26MOL0     C 3391   7.056   9.165   7.360  0.2918  1.0036  0.3396
   26MOL0     N 3392   6.984   9.082   7.444  0.7777  0.3958 -0.3781
   26MOL0     C 3393   6.993   9.070   7.579 -0.3612  0.5466 -0.5465
   26MOL0     C 3394   6.890   9.006   7.629 -0.1741 -1.0419 -0.6224
   26MOL0     C 3395   6.867   8.978   7.779 -0.1281  0.6114  0.3605
   26MOL0     C 3396   6.823   8.832   7.810 -0.5147 -0.6851 -0.5533
   26MOL0     C 3397   6.926   8.723   7.774 -0.0176 -0.1947  0.2506
   26MOL0     C 3398   7.053   8.730   7.853  0.5399 -0.1179  0.3109
   26MOL0     O 3399   7.091   8.598   7.890  0.0975 -0.3410 -0.3846
   26MOL0     C 3400   7.121   8.572   8.020 -1.0110  0.1851 -1.2118
   26MOL0     C 3401   7.170   8.665   8.116  0.9911 -0.2038  0.7189
   26MOL0     C 3402   7.213   8.624   8.243 -0.0327 -0.1813 -0.0796
   26MOL0     C 3403   7.268   8.724   8.340 -0.5835  0.7376  1.5656
   26MOL0     C 3404   7.216   8.484   8.274  0.6420 -1.3708  0.0212
   26MOL0     C 3405   7.269   8.436   8.405 -0.5238 -0.0526  0.8012
   26MOL0     O 3406   7.188   8.358   8.475 -0.0076 -0.3043 -0.8354
   26MOL0     C 3407   7.237   8.302   8.600 -0.8174  1.0365  0.8356
   26MOL0     C 3408   7.223   8.166   8.614 -0.3878  0.4755  0.5785
   26MOL0     C 3409   7.271   8.112   8.729 -0.5101  0.2282 -1.2637
   26MOL0     C 3410   7.318   8.195   8.841 -0.4881  0.3386 -0.4777
   26MOL0     O 3411   7.372   8.143   8.958 -0.0443  0.9852 -0.2377
   26MOL0     C 3412   7.342   7.998   8.981 -0.9262 -0.4946  0.2264
   26MOL0     C 3413   7.404   7.941   9.111  0.1505  0.1312  1.9306
   26MOL0     C 3414   7.374   7.789   9.118 -0.7467  0.3765 -0.1153
   26MOL0     C 3415   7.416   7.737   9.249  0.1893  0.8588  0.1117
   26MOL0     C 3416   7.362   7.596   9.285 -0.0494  0.0020 -0.3225
   26MOL0     C 3417   7.431   7.529   9.412  0.3302 -0.6145 -1.0408
   26MOL0     C 3418   7.363   7.404   9.477  0.4911 -0.5128  0.5248
   26MOL0     C 3419   7.347   7.298   9.362  1.5752 -0.4623 -0.8782
   26MOL0    Cl 3420   7.510   7.234   9.307  0.0927  0.0669  0.0823
   26MOL0     C 3421   7.337   8.324   8.820  1.0522  0.2949 -0.0275
   26MOL0     C 3422   7.287   8.383   8.701 -0.3231 -0.3451 -1.2496
   26MOL0     O 3423   7.376   8.481   8.445 -0.3761  0.3267  0.9587
   26MOL0     C 3424   7.178   8.397   8.164  0.2155  0.2045 -0.2558
   26MOL0     C 3425   7.132   8.438   8.045  0.0445 -0.3320  0.8339
   26MOL0     N 3426   6.815   8.962   7.521  0.5355 -0.0658 -0.2830
   26MOL0     N 3427   6.867   9.012   7.414 -0.3143  0.0117  0.0763
   26MOL0     C 3428   6.594   9.758   6.685  1.0229  0.8102 -0.4298
   26MOL0     C 3429   6.578   9.823   6.566 -0.8016 -0.4731  0.9666
   26MOL0     C 3430   6.483  10.110   6.222 -0.1495  0.3916  0.1458
   26MOL0     C 3431   6.497  10.082   6.088 -0.3906  0.7310 -0.6716
   26MOL0     C 3432   6.451  10.168   5.996  0.5050  0.4482 -0.4046
   26MOL0     C 3433   6.397  10.295   6.031  0.1000 -0.8115 -0.1628
   26MOL0     O 3434   6.373  10.385   5.925 -0.4408  1.2888 -0.3259
   26MOL0     C 3435   6.330  10.519   5.954  0.0743 -0.7261 -0.0427
   26MOL0     C 3436   6.317  10.597   5.816  0.0201  0.8469 -0.7987
   26MOL0     C 3437   6.189  10.548   5.742 -0.4431 -0.1207  0.5564
   26MOL0     C 3438   6.225  10.443   5.632  0.1602 -0.0289  0.2884
   26MOL0     C 3439   6.106  10.426   5.544 -0.0701 -0.4093 -0.0365
   26MOL0     C 3440   6.004  10.402   5.491  1.4253 -0.1367 -0.8731
   26MOL0     C 3441   6.399  10.327   6.167  0.4901  0.3186  0.2701
   26MOL0     C 3442   6.449  10.240   6.268  0.2232 -0.3829  0.4367
   26MOL0     H 3443   6.494  10.123   6.674 -0.3845 -0.3708  2.0438
   26MOL0     H 3444   6.514  10.003   6.902 -3.5968  1.6901 -0.8876
   26MOL0     H 3445   6.791   9.692   6.857 -0.6473  1.3854 -0.9690
   26MOL0     H 3446   6.799   9.844   6.946 -6.0476  3.1653  2.3769
   26MOL0     H 3447   6.744   9.727   7.154 -0.5135  2.0554 -2.8561
   26MOL0     H 3448   6.680   9.582   7.064 -0.6069  0.6299 -2.4958
   26MOL0     H 3449   6.892   9.511   7.004 -2.8223  1.6209 -2.8489
   26MOL0     H 3450   6.974   9.665   7.042 -1.1750  1.3671  0.2973
   26MOL0     H 3451   7.030   9.543   7.234  0.9838 -0.8867 -1.2509
   26MOL0     H 3452   6.877   9.609   7.289  0.8153 -1.5519  1.4667
   26MOL0     H 3453   6.773   9.403   7.202 -0.2400 -2.4568  2.2393
   26MOL0     H 3454   6.933   9.344   7.156  0.0573  0.0892  0.6240
   26MOL0     H 3455   6.876   9.433   7.445 -0.4116  3.1011 -3.3290
   26MOL0     H 3456   6.823   9.282   7.383  0.5955 -0.0996 -0.9319
   26MOL0     H 3457   7.108   9.361   7.313 -1.5641 -1.4208 -3.3392
   26MOL0     H 3458   7.062   9.338   7.492 -0.7974  1.3070  0.1799
   26MOL0     H 3459   7.155   9.118   7.358 -1.4804 -3.2390  1.1256
   26MOL0     H 3460   7.015   9.160   7.259 -1.8477 -0.8030  1.1889
   26MOL0     H 3461   7.067   9.117   7.643  0.2859  0.5708 -1.2940
   26MOL0     H 3462   6.955   8.987   7.843  0.0624  0.6801  0.0948
   26MOL0     H 3463   6.787   9.043   7.814 -0.7529 -1.1024  2.2828
   26MOL0     H 3464   6.736   8.808   7.748 -1.4847 -0.3861  0.6579
   26MOL0     H 3465   6.789   8.808   7.911 -1.7028 -2.8698 -1.4156
   26MOL0     H 3466   6.947   8.708   7.668  0.9444 -3.5361  0.7842
   26MOL0     H 3467   6.876   8.630   7.806  1.2125 -0.4392  1.5832
   26MOL0     H 3468   7.037   8.795   7.939 -2.0595 -0.4037  0.1164
   26MOL0     H 3469   7.127   8.780   7.790 -1.9535  4.3723  0.6033
   26MOL0     H 3470   7.182   8.771   8.101 -0.0751  0.4058  3.5602
   26MOL0     H 3471   7.233   8.826   8.321 -0.4463  0.1023 -3.3553
   26MOL0     H 3472   7.247   8.689   8.441  1.3003 -3.0337  0.8451
   26MOL0     H 3473   7.376   8.733   8.330 -0.8820  1.5573 -3.8200
   26MOL0     H 3474   7.191   8.110   8.527  0.9103 -1.0524  1.0255
   26MOL0     H 3475   7.278   8.004   8.737 -0.5453  0.3262  0.2685
   26MOL0     H 3476   7.233   7.996   8.979 -1.1846  3.9414  0.1323
   26MOL0     H 3477   7.369   7.928   8.902 -0.5901 -0.8350  0.6322
   26MOL0     H 3478   7.514   7.947   9.106  0.0936  0.5155 -1.8800
   26MOL0     H 3479   7.377   8.000   9.199 -0.0867  0.9433  1.3296
   26MOL0     H 3480   7.423   7.730   9.040 -0.9006  0.7109 -0.4670
   26MOL0     H 3481   7.266   7.781   9.101 -0.7341  2.1565 -1.3082
   26MOL0     H 3482   7.525   7.733   9.250  0.2693  1.9901  1.9074
   26MOL0     H 3483   7.392   7.802   9.334  0.2117 -1.8868  2.3511
   26MOL0     H 3484   7.386   7.547   9.190  0.9854  1.3869 -0.8255
   26MOL0     H 3485   7.253   7.603   9.284 -0.0534  2.8788 -3.6019
   26MOL0     H 3486   7.538   7.514   9.400  0.5984  0.5992 -0.3913
   26MOL0     H 3487   7.434   7.603   9.494  0.4740 -0.4842 -1.1648
   26MOL0     H 3488   7.267   7.425   9.525  1.9976  2.6625  2.4863
   26MOL0     H 3489   7.433   7.361   9.550 -1.0979 -1.9034  1.2904
   26MOL0     H 3490   7.299   7.345   9.275  0.4436  1.6269  0.7811
   26MOL0     H 3491   7.277   7.219   9.392 -1.4264  2.1474 -0.4730
   26MOL0     H 3492   7.368   8.393   8.897 -0.8237  2.1098 -0.8089
   26MOL0     H 3493   7.299   8.488   8.678 -5.9309  1.7755  3.3354
   26MOL0     H 3494   7.194   8.291   8.176 -0.5757 -0.0611 -1.4383
   26MOL0     H 3495   7.100   8.381   7.959  0.1841  3.8440 -2.2570
   26MOL0     H 3496   6.631   9.658   6.700 -0.3074 -0.1631 -3.0612
   26MOL0     H 3497   6.634   9.782   6.483  0.9349 -1.6592  2.6234
   26MOL0     H 3498   6.530   9.986   6.049 -2.1937 -0.7491  1.1938
   26MOL0     H 3499   6.455  10.124   5.897  2.0146 -0.0416 -0.1480
   26MOL0     H 3500   6.228  10.520   5.995  0.3279  1.3517  0.6502
   26MOL0     H 3501   6.399  10.572   6.021  1.8046 -1.9153 -0.8113
   26MOL0     H 3502   6.411  10.581   5.762  1.6215 -2.3034  2.4387
   26MOL0     H 3503   6.305  10.701   5.846 -0.2807  1.1344 -1.8965
   26MOL0     H 3504   6.140  10.630   5.689 -2.9645 -1.1362  1.2066
   26MOL0     H 3505   6.115  10.505   5.810 -0.9569 -1.1208 -0.5986
   26MOL0     H 3506   6.266  10.356   5.684  0.9485 -0.0903 -0.4051
   26MOL0     H 3507   6.302  10.484   5.565 -0.0311 -0.7837 -0.4131
   26MOL0     H 3508   5.916  10.399   5.430  0.4863 -1.3906  0.4877
   26MOL0     H 3509   6.360  10.424   6.194 -0.4884  0.3143 -1.0061
   26MOL0     H 3510   6.448  10.263   6.374 -0.4005 -1.6413  0.7274
   27MOL0     O 3511   4.233   0.400  10.482  0.4093 -0.0912  0.3960
   27MOL0     C 3512   4.185   0.331  10.573  0.3611  0.0242 -0.9419
   27MOL0     O 3513   4.142   0.385  10.696 -0.2130 -0.6309 -0.4493
   27MOL0     C 3514   4.142   0.523  10.681  0.4408 -1.0300 -0.7121
   27MOL0     C 3515   4.244   0.598  10.750 -0.0904 -0.4775  0.5934
   27MOL0     C 3516   4.241   0.735  10.756  0.1160 -0.4742 -0.5973
   27MOL0     C 3517   4.131   0.807  10.693 -0.4702 -0.2394 -0.0647
   27MOL0     O 3518   4.121   0.941  10.694 -0.4516  0.7504  0.2491
   27MOL0     C 3519   4.224   1.010  10.772 -0.0192 -0.9879  0.1383
   27MOL0     C 3520   4.176   1.154  10.807  0.5008 -0.4264  0.8348
   27MOL0     C 3521   4.277   1.223  10.891  0.0074 -0.2065 -0.4779
   27MOL0     C 3522   4.222   1.358  10.943 -0.0146 -0.1974 -0.1654
   27MOL0     C 3523   4.206   1.465  10.836  0.3496  1.3554 -0.6060
   27MOL0     C 3524   4.160   1.600  10.893  0.7734 -0.0010 -0.8644
   27MOL0     C 3525   4.134   1.715  10.788  0.1373  0.3961  1.7423
   27MOL0     C 3526   4.027   1.678  10.692 -0.7412  0.0519  0.1647
   27MOL0     N 3527   3.967   1.789  10.619 -0.3721  0.1856 -0.0108
   27MOL0     C 3528   4.005   1.811  10.491 -0.0740  0.1545 -1.0422
   27MOL0     C 3529   3.916   1.906  10.457  1.3284  0.3794  0.1158
   27MOL0     C 3530   3.918   1.971  10.319 -0.3416 -0.9323 -0.0908
   27MOL0     C 3531   3.945   2.125  10.309  0.5585  0.8001  0.3481
   27MOL0     C 3532   3.908   2.181  10.170  0.0032 -0.6150 -0.5228
   27MOL0     C 3533   3.970   2.318  10.152 -0.7832  1.2314 -0.1512
   27MOL0     O 3534   4.110   2.318  10.126 -0.8624 -0.0506 -0.6179
   27MOL0     C 3535   4.189   2.433  10.128  0.3816 -0.2071 -0.4114
   27MOL0     C 3536   4.149   2.563  10.144 -0.3401  0.4394  0.7017
   27MOL0     C 3537   4.242   2.665  10.155 -0.8983 -1.5109  0.1986
   27MOL0     C 3538   4.188   2.808  10.134 -0.4987  0.1934 -0.0865
   27MOL0     C 3539   4.384   2.637  10.166  0.3617 -0.4519 -0.4012
   27MOL0     C 3540   4.493   2.745  10.181 -0.5006  1.0029  0.9244
   27MOL0     O 3541   4.627   2.699  10.158  0.3806 -0.4568  0.2065
   27MOL0     C 3542   4.742   2.776  10.182 -0.3947 -0.6299 -0.4755
   27MOL0     C 3543   4.852   2.717  10.127 -0.4725  0.5537 -0.4417
   27MOL0     C 3544   4.975   2.773  10.142 -0.2014  0.1412 -0.3425
   27MOL0     C 3545   4.995   2.891  10.229  1.1670 -0.5127  0.2245
   27MOL0     O 3546   5.115   2.952  10.258  0.2545  0.0710  0.4974
   27MOL0     C 3547   5.235   2.872  10.249 -0.3573  0.0930 -1.0600
   27MOL0     C 3548   5.342   2.978  10.246  0.5851  0.1885 -0.5315
   27MOL0     C 3549   5.485   2.922  10.243  1.0256 -0.1615 -0.3101
   27MOL0     C 3550   5.531   2.886  10.391  0.2060  0.9350  0.3456
   27MOL0     C 3551   5.673   2.828  10.404 -0.1114  0.6246 -0.1267
   27MOL0     C 3552   5.713   2.766  10.537 -0.4685  0.3262  0.1071
   27MOL0     C 3553   5.678   2.858  10.654 -0.8516 -0.6858  0.4019
   27MOL0     C 3554   5.733   2.791  10.784  0.2386 -0.0764 -0.7383
   27MOL0    Cl 3555   5.909   2.818  10.788  0.2928  0.0109  0.2911
   27MOL0     C 3556   4.882   2.950  10.273 -0.4842 -0.8655  0.4441
   27MOL0     C 3557   4.756   2.899  10.246  0.0352  0.2973 -0.2774
   27MOL0     O 3558   4.471   2.857  10.223 -0.2155 -0.0140 -0.2528
   27MOL0     C 3559   4.415   2.502  10.149 -1.0007 -0.4230  0.3057
   27MOL0     C 3560   4.324   2.404  10.133  0.7998  0.5616  0.0908
   27MOL0     N 3561   3.828   1.942  10.562 -0.6544  0.2782 -0.1032
   27MOL0     N 3562   3.860   1.864  10.652 -0.6408 -0.1354 -0.4142
   27MOL0     C 3563   4.028   0.731  10.637  0.8642 -0.2559 -0.0649
   27MOL0     C 3564   4.034   0.592  10.624 -0.5961 -0.3571  0.4634
   27MOL0     C 3565   4.198   0.178  10.575 -0.4556 -0.8597  0.1156
   27MOL0     C 3566   4.159   0.096  10.687 -0.0204 -1.0581 -0.6309
   27MOL0     C 3567   4.186  -0.040  10.670 -0.3032 -0.6337 -0.5055
   27MOL0     C 3568   4.232  -0.092  10.550 -0.2242  0.0371 -1.1815
   27MOL0     O 3569   4.272  -0.222  10.526  0.1680  0.2647  0.1683
   27MOL0     C 3570   4.226  -0.325  10.604 -0.3852  0.1145  0.1286
   27MOL0     C 3571   4.343  -0.423  10.634 -0.6996 -0.3585  0.2886
   27MOL0     C 3572   4.449  -0.359  10.720  0.3720 -0.1122  0.5656
   27MOL0     C 3573   4.575  -0.441  10.739 -0.0558  0.3512 -0.9121
   27MOL0     C 3574   4.682  -0.368  10.809  0.1197 -0.4240  1.0025
   27MOL0     C 3575   4.792  -0.317  10.843  0.9965 -0.3806 -0.0013
   27MOL0     C 3576   4.258  -0.015  10.442  1.1142  0.5964  0.3396
   27MOL0     C 3577   4.250   0.122  10.460 -0.2012 -0.5063 -0.5996
   27MOL0     H 3578   4.331   0.544  10.788  0.0318 -0.3577  0.4830
   27MOL0     H 3579   4.329   0.780  10.799  1.0252  1.4055 -4.0317
   27MOL0     H 3580   4.225   0.951  10.864  0.3141 -0.2520  0.6153
   27MOL0     H 3581   4.325   1.019  10.731 -0.6587  0.9491 -1.1722
   27MOL0     H 3582   4.145   1.202  10.713 -3.2607 -4.2528 -0.2257
   27MOL0     H 3583   4.080   1.148  10.860 -0.8118 -0.4411 -1.3745
   27MOL0     H 3584   4.292   1.177  10.989 -0.0970  5.2562  2.5406
   27MOL0     H 3585   4.372   1.240  10.839 -1.4065  0.9383 -2.8202
   27MOL0     H 3586   4.123   1.344  10.988  0.6989  1.7496  2.2684
   27MOL0     H 3587   4.297   1.397  11.012  0.1168  1.4701 -1.1866
   27MOL0     H 3588   4.298   1.480  10.777  1.6356 -4.5220 -0.7452
   27MOL0     H 3589   4.136   1.428  10.761  0.0884  1.4344 -0.4026
   27MOL0     H 3590   4.071   1.593  10.956  1.7866 -1.6743  0.4701
   27MOL0     H 3591   4.239   1.639  10.958  1.8800  0.0863 -2.2175
   27MOL0     H 3592   4.113   1.801  10.853  1.9394  1.0080  1.5666
   27MOL0     H 3593   4.226   1.745  10.738 -0.2949 -1.3379 -0.2090
   27MOL0     H 3594   3.956   1.619  10.750  1.0481 -0.6598  1.7804
   27MOL0     H 3595   4.062   1.618  10.608 -2.0321  1.3468 -1.3407
   27MOL0     H 3596   4.084   1.769  10.430 -0.2100  1.1499 -1.9352
   27MOL0     H 3597   3.978   1.912  10.248 -1.9613 -1.9394 -0.6737
   27MOL0     H 3598   3.816   1.964  10.282 -0.0776 -0.7749 -0.8668
   27MOL0     H 3599   4.054   2.135  10.316  0.8540  0.3387 -2.4361
   27MOL0     H 3600   3.892   2.177  10.390 -0.6784 -0.3113  0.2840
   27MOL0     H 3601   3.800   2.189  10.153  0.0280 -0.6713 -0.7120
   27MOL0     H 3602   3.964   2.114  10.105  1.6425 -0.8625  1.0940
   27MOL0     H 3603   3.957   2.371  10.247  0.6565 -0.8842  1.3152
   27MOL0     H 3604   3.922   2.378  10.074 -1.5746 -0.4554 -1.0097
   27MOL0     H 3605   4.043   2.586  10.133 -0.4530  2.0014  3.8219
   27MOL0     H 3606   4.091   2.809  10.084 -2.3366  0.4203  3.1514
   27MOL0     H 3607   4.172   2.864  10.227 -0.7857 -0.4523  0.2625
   27MOL0     H 3608   4.266   2.864  10.082  2.9279 -3.5573  0.5163
   27MOL0     H 3609   4.832   2.637  10.057 -1.8352 -0.0977  0.6380
   27MOL0     H 3610   5.058   2.728  10.089  0.1917  0.5415 -0.0657
   27MOL0     H 3611   5.249   2.817  10.342 -0.5247  0.6460 -0.7005
   27MOL0     H 3612   5.236   2.810  10.159  1.8582 -0.2505 -0.8346
   27MOL0     H 3613   5.316   3.032  10.155  0.3963  1.1892  0.1048
   27MOL0     H 3614   5.341   3.036  10.338 -2.3056  2.4294 -1.8527
   27MOL0     H 3615   5.555   2.994  10.200 -1.9321  3.3787  0.3243
   27MOL0     H 3616   5.480   2.830  10.185 -1.2257  1.4749 -2.9125
   27MOL0     H 3617   5.522   2.976  10.453 -0.3935 -0.2237  1.9908
   27MOL0     H 3618   5.467   2.811  10.437  1.9043  1.0338  3.0743
   27MOL0     H 3619   5.750   2.904  10.386  1.1302 -0.9489 -1.7625
   27MOL0     H 3620   5.697   2.758  10.325 -2.1119  1.2140 -1.3327
   27MOL0     H 3621   5.680   2.662  10.553  2.4844 -0.7178  0.0650
   27MOL0     H 3622   5.822   2.752  10.536 -0.0758  2.7451 -2.0515
   27MOL0     H 3623   5.570   2.869  10.646 -0.8472 -1.0781 -0.3444
   27MOL0     H 3624   5.716   2.960  10.645  0.2053 -1.1347 -0.5871
   27MOL0     H 3625   5.703   2.686  10.783 -2.4365  0.6077  0.0786
   27MOL0     H 3626   5.693   2.846  10.870  0.5740 -1.0993  0.0845
   27MOL0     H 3627   4.897   3.039  10.333 -1.1864  0.7265 -1.6382
   27MOL0     H 3628   4.683   2.966  10.288 -0.2790 -0.3060  0.1475
   27MOL0     H 3629   4.523   2.490  10.149 -0.8225  0.7178  2.0806
   27MOL0     H 3630   4.343   2.299  10.112 -2.5500 -0.2510  0.4343
   27MOL0     H 3631   3.937   0.768  10.591 -0.0519 -2.7258 -0.3967
   27MOL0     H 3632   3.954   0.526  10.592  0.2448 -1.8641  1.3525
   27MOL0     H 3633   4.134   0.132  10.786 -0.8983 -0.1893 -1.1559
   27MOL0     H 3634   4.181  -0.096  10.762 -1.8936  1.4497  0.7573
   27MOL0     H 3635   4.178  -0.285  10.694 -3.4760 -1.9887 -0.4152
   27MOL0     H 3636   4.142  -0.377  10.556 -0.3401 -2.4344  2.5340
   27MOL0     H 3637   4.412  -0.451  10.554  2.1876  1.9272  1.7949
   27MOL0     H 3638   4.298  -0.510  10.684  1.9970 -0.7457  2.2445
   27MOL0     H 3639   4.409  -0.336  10.819  0.7041 -1.0044  0.9196
   27MOL0     H 3640   4.474  -0.266  10.669 -0.1728 -0.6030 -0.6422
   27MOL0     H 3641   4.607  -0.465  10.638 -1.1341  0.2376 -1.2397
   27MOL0     H 3642   4.552  -0.528  10.801  0.1182  0.8730 -0.0873
   27MOL0     H 3643   4.886  -0.272  10.869  0.9742 -0.6812  0.6228
   27MOL0     H 3644   4.289  -0.058  10.347 -3.6203  0.3362 -1.3505
   27MOL0     H 3645   4.287   0.179  10.376  1.4825  0.3755  0.6781
   28MOL0     O 3646   1.380   5.600   1.736  0.6699 -0.2790  0.5131
   28MOL0     C 3647   1.315   5.523   1.808 -0.5707  0.2549 -0.3011
   28MOL0     O 3648   1.370   5.426   1.877 -0.1013  1.0842 -0.1957
   28MOL0     C 3649   1.507   5.403   1.872  0.9572  0.0593  0.1224
   28MOL0     C 3650   1.594   5.482   1.945  0.2415 -1.0499  0.6837
   28MOL0     C 3651   1.730   5.479   1.925  0.1374  0.4541  0.4201
   28MOL0     C 3652   1.781   5.372   1.847  0.4405 -0.0625 -0.7934
   28MOL0     O 3653   1.912   5.340   1.825 -0.6067  0.0127 -0.7192
   28MOL0     C 3654   2.006   5.402   1.904 -0.5368 -0.4510  0.3617
   28MOL0     C 3655   2.147   5.362   1.854 -0.6072  0.2966  0.4593
   28MOL0     C 3656   2.177   5.210   1.842 -0.1709 -0.5227 -0.5427
   28MOL0     C 3657   2.212   5.167   1.986 -0.0325 -0.0935  0.0850
   28MOL0     C 3658   2.229   5.009   1.991  0.1869 -0.9977 -0.9944
   28MOL0     C 3659   2.271   4.979   2.141  0.2989  0.8740  0.4147
   28MOL0     C 3660   2.432   4.973   2.170 -0.4822 -0.6045  0.0620
   28MOL0     C 3661   2.494   5.114   2.159  0.1600  0.8300  0.2418
   28MOL0     N 3662   2.623   5.126   2.247  0.4538  0.3874  0.7810
   28MOL0     C 3663   2.688   5.251   2.266  0.3214 -0.3631 -0.4473
   28MOL0     C 3664   2.810   5.214   2.323  0.6209  0.5186  0.1043
   28MOL0     C 3665   2.933   5.291   2.358  0.5586 -0.5928 -0.0668
   28MOL0     C 3666   2.953   5.376   2.229  0.6290 -0.0322 -0.0239
   28MOL0     C 3667   3.103   5.421   2.214  0.4176  0.0648 -0.1711
   28MOL0     C 3668   3.113   5.489   2.079  0.3781  0.6603  0.2795
   28MOL0     O 3669   3.043   5.611   2.093  0.0900  0.4482 -0.0164
   28MOL0     C 3670   3.009   5.689   1.990  0.1541 -0.3723 -0.2318
   28MOL0     C 3671   2.921   5.796   2.023  1.2549 -0.8284  0.5282
   28MOL0     C 3672   2.863   5.886   1.925  0.1710  0.2851 -0.0915
   28MOL0     C 3673   2.761   5.983   1.973  0.0621 -0.1341 -0.4213
   28MOL0     C 3674   2.896   5.879   1.792 -0.4102  0.5416  0.8978
   28MOL0     C 3675   2.860   5.980   1.695  0.1872  0.6084  0.7556
   28MOL0     O 3676   2.795   5.933   1.588  0.2394  0.9276  0.6858
   28MOL0     C 3677   2.736   5.995   1.485 -0.0760 -0.4147  0.9411
   28MOL0     C 3678   2.783   6.110   1.418  1.0416 -0.0951 -0.3015
   28MOL0     C 3679   2.738   6.140   1.291 -0.3724  0.4507  0.1561
   28MOL0     C 3680   2.649   6.063   1.220 -0.5694  0.4907 -0.3454
   28MOL0     O 3681   2.608   6.098   1.092  0.1097  0.3117  1.2442
   28MOL0     C 3682   2.627   6.232   1.037 -0.1051 -0.0832 -0.8202
   28MOL0     C 3683   2.546   6.249   0.908 -0.5434 -0.3463  0.2005
   28MOL0     C 3684   2.395   6.287   0.945  0.2609  0.0312 -0.2519
   28MOL0     C 3685   2.293   6.295   0.823  0.2194  0.9526 -0.3356
   28MOL0     C 3686   2.151   6.325   0.878  0.1024 -0.1255  0.6022
   28MOL0     C 3687   2.133   6.470   0.922 -0.0898 -0.1428  0.0622
   28MOL0     C 3688   1.993   6.492   0.975  0.7626 -0.3067  0.2383
   28MOL0     C 3689   1.972   6.642   0.995  1.6283  0.0377 -0.1333
   28MOL0    Cl 3690   2.064   6.705   1.128 -0.1240  0.3133 -0.0906
   28MOL0     C 3691   2.596   5.955   1.287  0.6814  0.7899  1.0144
   28MOL0     C 3692   2.631   5.922   1.415 -0.4998  0.1313  0.6041
   28MOL0     O 3693   2.879   6.098   1.714 -0.2782  0.1334  0.5891
   28MOL0     C 3694   2.989   5.770   1.760  0.8443 -0.1854 -0.9925
   28MOL0     C 3695   3.035   5.673   1.854 -0.4845  0.0505  0.0761
   28MOL0     N 3696   2.814   5.073   2.336  0.3413 -0.7860 -0.2555
   28MOL0     N 3697   2.706   5.032   2.296  0.1368  0.1861 -0.1343
   28MOL0     C 3698   1.691   5.284   1.781 -0.6088 -0.0447 -0.5298
   28MOL0     C 3699   1.552   5.303   1.790 -0.0779 -1.4627  0.4036
   28MOL0     C 3700   1.162   5.551   1.833 -0.2441  0.5426  0.2544
   28MOL0     C 3701   1.096   5.494   1.951 -0.2238 -0.6691 -0.3178
   28MOL0     C 3702   0.960   5.523   1.976 -0.5227 -1.1548  0.4789
   28MOL0     C 3703   0.884   5.605   1.892  0.3248  0.8151 -0.6327
   28MOL0     O 3704   0.752   5.616   1.928 -0.0543  0.6358 -1.3443
   28MOL0     C 3705   0.673   5.710   1.856  1.0856  1.1171 -0.3174
   28MOL0     C 3706   0.536   5.749   1.915  0.3678 -0.5663  0.6933
   28MOL0     C 3707   0.548   5.869   2.014  0.2590  0.9151 -0.1375
   28MOL0     C 3708   0.624   5.819   2.139  0.0655  1.0915 -0.6905
   28MOL0     C 3709   0.607   5.918   2.237 -0.0581  0.2076  0.6802
   28MOL0     C 3710   0.590   6.002   2.319  0.5083 -0.1397 -0.1944
   28MOL0     C 3711   0.951   5.656   1.775  0.8737 -1.0043  0.3241
   28MOL0     C 3712   1.085   5.636   1.750  0.2394  0.6291  0.1038
   28MOL0     H 3713   1.557   5.560   2.011  0.1045  2.0785 -2.7756
   28MOL0     H 3714   1.785   5.563   1.967 -0.6249  1.3891 -0.4052
   28MOL0     H 3715   1.986   5.510   1.903  0.8834 -0.1138  2.1478
   28MOL0     H 3716   1.986   5.369   2.006  0.4488  1.5161  1.2402
   28MOL0     H 3717   2.155   5.403   1.753 -0.6478 -0.5962  0.0898
   28MOL0     H 3718   2.225   5.411   1.913 -1.3012 -0.3596  1.9527
   28MOL0     H 3719   2.084   5.162   1.811 -2.6215  2.9413  0.7386
   28MOL0     H 3720   2.256   5.189   1.769  1.3031 -1.0015  1.1082
   28MOL0     H 3721   2.307   5.217   2.010 -1.6742  2.5689  1.4896
   28MOL0     H 3722   2.135   5.196   2.058 -0.2523 -1.0112  0.2355
   28MOL0     H 3723   2.133   4.958   1.978  1.2035 -3.2245 -0.1936
   28MOL0     H 3724   2.294   4.955   1.922 -0.4882 -1.6842 -1.1048
   28MOL0     H 3725   2.228   5.056   2.206  1.5423  1.7190  0.2761
   28MOL0     H 3726   2.229   4.881   2.167  1.7519  0.5213  1.5338
   28MOL0     H 3727   2.437   4.931   2.271 -0.6298 -0.9776 -0.0850
   28MOL0     H 3728   2.496   4.918   2.101  0.3497  1.0721 -0.5795
   28MOL0     H 3729   2.419   5.184   2.198 -2.5115 -1.6134 -0.1759
   28MOL0     H 3730   2.510   5.143   2.055 -2.9637 -0.7783 -0.8187
   28MOL0     H 3731   2.646   5.350   2.250 -3.5098 -1.6186  0.8344
   28MOL0     H 3732   2.909   5.344   2.451 -1.5802 -0.9539 -0.3658
   28MOL0     H 3733   3.022   5.229   2.372 -0.1112 -1.5756 -0.1026
   28MOL0     H 3734   2.884   5.460   2.242 -0.8921 -1.4887  1.8072
   28MOL0     H 3735   2.938   5.311   2.143  2.4312 -1.6033  0.7823
   28MOL0     H 3736   3.157   5.327   2.231 -0.0417  0.1193  1.7713
   28MOL0     H 3737   3.124   5.494   2.292  0.3595  0.6940 -0.7288
   28MOL0     H 3738   3.080   5.415   2.005  4.7650 -0.8585 -0.4220
   28MOL0     H 3739   3.212   5.522   2.048  0.7167 -0.2116  0.4174
   28MOL0     H 3740   2.902   5.794   2.130  1.6665  1.8747  0.7426
   28MOL0     H 3741   2.673   6.005   1.912  0.5472  0.7107 -0.8308
   28MOL0     H 3742   2.725   5.947   2.070 -0.5906  2.0202  0.2022
   28MOL0     H 3743   2.824   6.069   1.999  1.2173 -1.9417  3.4752
   28MOL0     H 3744   2.853   6.176   1.469  0.7304 -2.5368  3.6595
   28MOL0     H 3745   2.796   6.226   1.256  1.7149 -0.2878  1.5681
   28MOL0     H 3746   2.589   6.308   1.105 -2.9662 -1.9933 -0.0874
   28MOL0     H 3747   2.730   6.251   1.005  0.0245  1.6974  0.4951
   28MOL0     H 3748   2.589   6.332   0.851  0.4656 -1.7211 -1.1419
   28MOL0     H 3749   2.551   6.163   0.841 -2.1796  1.7286 -2.8447
   28MOL0     H 3750   2.387   6.376   1.007  1.7758  1.0702 -1.4642
   28MOL0     H 3751   2.362   6.202   1.006  2.0369 -0.1282  0.5356
   28MOL0     H 3752   2.333   6.367   0.750  4.0538  1.1424  1.6626
   28MOL0     H 3753   2.301   6.192   0.786  1.5491  0.9629 -0.1554
   28MOL0     H 3754   2.136   6.267   0.969  0.0549  0.7040  1.1416
   28MOL0     H 3755   2.073   6.318   0.802 -1.1998  0.4481  1.8106
   28MOL0     H 3756   2.200   6.487   1.007 -2.9523 -1.0724  2.6658
   28MOL0     H 3757   2.142   6.526   0.829 -1.4312 -2.9484 -1.8809
   28MOL0     H 3758   1.978   6.428   1.062  3.0039  1.0629  1.7258
   28MOL0     H 3759   1.914   6.471   0.901  0.4211  2.3247 -0.2398
   28MOL0     H 3760   1.870   6.655   1.033  0.9795  1.7127 -2.2309
   28MOL0     H 3761   1.983   6.714   0.913 -1.0486  0.9003  0.1584
   28MOL0     H 3762   2.511   5.901   1.246  1.7973 -1.8185  1.9047
   28MOL0     H 3763   2.568   5.848   1.463 -3.3392  1.3653 -0.9964
   28MOL0     H 3764   3.015   5.773   1.655  2.5917  0.5704 -0.5763
   28MOL0     H 3765   3.091   5.588   1.814 -0.8321  0.0768 -0.4896
   28MOL0     H 3766   1.741   5.201   1.732 -1.7540 -1.3661  0.4413
   28MOL0     H 3767   1.467   5.244   1.756 -2.2360 -0.5020  3.6695
   28MOL0     H 3768   1.152   5.436   2.024 -0.0144  0.2396  0.2543
   28MOL0     H 3769   0.918   5.493   2.071 -1.9689  0.2347  0.3319
   28MOL0     H 3770   0.726   5.802   1.833 -0.4685  2.4471  1.1652
   28MOL0     H 3771   0.642   5.657   1.765  0.0689 -1.2064  1.2930
   28MOL0     H 3772   0.480   5.670   1.967 -0.9558  0.8462  1.4978
   28MOL0     H 3773   0.474   5.778   1.830  1.9792 -1.5571 -0.9099
   28MOL0     H 3774   0.445   5.893   2.041  0.1994 -0.3506  0.8411
   28MOL0     H 3775   0.595   5.954   1.963  0.3519 -0.0418 -1.6873
   28MOL0     H 3776   0.731   5.800   2.123 -0.0995 -1.8214  1.0563
   28MOL0     H 3777   0.578   5.730   2.183 -0.9899  1.9942  0.0569
   28MOL0     H 3778   0.581   6.062   2.407 -0.2482 -2.5003  1.4439
   28MOL0     H 3779   0.907   5.722   1.701  0.3177 -1.9640 -0.2308
   28MOL0     H 3780   1.125   5.691   1.665  0.9194  3.2910  2.0291
   29MOL0     O 3781  10.886   8.762   6.007  0.3209  0.0383  0.9093
   29MOL0     C 3782  10.861   8.876   5.972 -0.1838 -0.4440 -0.2441
   29MOL0     O 3783  10.954   8.967   5.939 -0.3750 -0.0661 -0.5281
   29MOL0     C 3784  11.085   8.932   5.962 -0.0840 -0.6397 -0.3014
   29MOL0     C 3785  11.171   9.010   6.048  0.1388 -0.4023  0.0654
   29MOL0     C 3786  11.309   8.978   6.063  0.4743  0.2892  0.2821
   29MOL0     C 3787  11.357   8.868   5.988 -0.2716 -0.0705 -0.1361
   29MOL0     O 3788  11.488   8.827   5.984  0.5426 -0.4894 -0.3222
   29MOL0     C 3789  11.591   8.925   6.007 -0.3038  0.1400  0.1675
   29MOL0     C 3790  11.600   9.039   5.902 -0.5575  1.2803 -0.1015
   29MOL0     C 3791  11.655   8.991   5.769  0.5150 -0.1814 -0.3732
   29MOL0     C 3792  11.541   8.954   5.676  0.4194  0.4277 -0.6400
   29MOL0     C 3793  11.590   8.937   5.529  0.1322 -0.3337  0.0416
   29MOL0     C 3794  11.612   9.064   5.454  0.3795  0.3133 -0.3067
   29MOL0     C 3795  11.702   9.053   5.327  0.1067  0.3111 -0.0812
   29MOL0     C 3796  11.844   9.010   5.353  0.8852  0.3897 -0.0841
   29MOL0     N 3797  11.897   9.099   5.458  0.4285 -0.4848  0.2453
   29MOL0     C 3798  11.914   9.236   5.444 -0.4582 -0.3248  0.2195
   29MOL0     C 3799  11.972   9.273   5.562  0.4549 -0.2831  0.1598
   29MOL0     C 3800  12.024   9.406   5.608  0.8409 -0.2737  0.0933
   29MOL0     C 3801  12.164   9.430   5.546 -0.4778  1.2375  0.0255
   29MOL0     C 3802  12.271   9.342   5.612 -0.2552  0.7396 -1.2395
   29MOL0     C 3803  12.405   9.363   5.542  0.5390 -0.6071 -0.5882
   29MOL0     O 3804  12.513   9.297   5.612  0.5599  0.1882 -0.2735
   29MOL0     C 3805  12.643   9.321   5.571 -0.3255 -0.4650 -0.0749
   29MOL0     C 3806  12.666   9.380   5.449 -0.5059 -0.5967  0.2087
   29MOL0     C 3807  12.805   9.409   5.405  0.3040  0.0783 -0.5337
   29MOL0     C 3808  12.810   9.487   5.280 -0.5800  0.1407 -1.3178
   29MOL0     C 3809  12.916   9.368   5.483 -0.7011  0.0825 -0.0110
   29MOL0     C 3810  13.054   9.416   5.448  0.3864 -1.0387 -0.0984
   29MOL0     O 3811  13.155   9.321   5.459 -0.8876 -0.0022  0.3853
   29MOL0     C 3812  13.285   9.355   5.478 -1.0885 -0.8938  0.2059
   29MOL0     C 3813  13.385   9.256   5.462  0.3818 -0.6544  0.3888
   29MOL0     C 3814  13.517   9.282   5.482  0.8770 -1.0907 -0.5226
   29MOL0     C 3815  13.554   9.408   5.528  0.5349 -0.0262 -0.1445
   29MOL0     O 3816  13.685   9.411   5.558 -0.4682  0.0775 -0.2254
   29MOL0     C 3817  13.729   9.538   5.610 -0.7941 -0.3377 -0.3216
   29MOL0     C 3818  13.882   9.521   5.655 -0.9013 -0.3230 -0.6742
   29MOL0     C 3819  13.900   9.418   5.768  0.1637  0.4208  0.3739
   29MOL0     C 3820  14.049   9.406   5.800  0.4487  0.0098  1.0201
   29MOL0     C 3821  14.084   9.343   5.930 -0.0407  0.2608 -0.1999
   29MOL0     C 3822  14.054   9.192   5.939 -0.0637  0.4083 -0.5543
   29MOL0     C 3823  14.123   9.110   5.821 -0.2544  0.3671  0.9869
   29MOL0     C 3824  14.094   8.965   5.850 -0.4451  0.2586 -0.0495
   29MOL0    Cl 3825  14.202   8.913   5.984  0.0782  0.2977 -0.7279
   29MOL0     C 3826  13.460   9.508   5.556  0.5052 -0.0658  0.4666
   29MOL0     C 3827  13.323   9.482   5.532  0.5495  0.7213 -0.0703
   29MOL0     O 3828  13.065   9.533   5.410 -0.5551 -0.1417  1.2831
   29MOL0     C 3829  12.891   9.301   5.603 -0.9402 -0.3043 -0.1515
   29MOL0     C 3830  12.762   9.286   5.651 -0.9158  0.1794 -0.6107
   29MOL0     N 3831  11.958   9.167   5.653 -0.6601 -0.4538 -0.8202
   29MOL0     N 3832  11.914   9.060   5.587 -0.5208 -0.2908 -0.0221
   29MOL0     C 3833  11.275   8.799   5.902 -0.3020  0.0034 -0.9352
   29MOL0     C 3834  11.138   8.835   5.888 -0.3041 -0.2130  0.0590
   29MOL0     C 3835  10.720   8.906   5.957 -0.5164 -0.0417 -0.5019
   29MOL0     C 3836  10.614   8.839   6.022  0.5734  0.6141  0.4074
   29MOL0     C 3837  10.479   8.864   5.988 -0.6908  0.9471  1.2016
   29MOL0     C 3838  10.445   8.970   5.899 -0.0011  0.6414 -0.8935
   29MOL0     O 3839  10.319   9.015   5.875 -0.5592 -0.3123 -0.2503
   29MOL0     C 3840  10.212   8.964   5.964 -0.4777 -0.6354  0.2939
   29MOL0     C 3841  10.091   9.042   5.922 -0.4506 -0.1521  0.4413
   29MOL0     C 3842  10.032   9.015   5.780  0.0879  0.9942  0.4668
   29MOL0     C 3843   9.929   9.122   5.740  0.5857  1.0388 -0.0336
   29MOL0     C 3844   9.785   9.074   5.753 -0.0544 -0.9268  0.1882
   29MOL0     C 3845   9.676   9.022   5.759  0.1113 -0.1023  0.4215
   29MOL0     C 3846  10.544   9.051   5.850 -0.4835 -0.1025 -0.5681
   29MOL0     C 3847  10.679   9.013   5.869 -0.2601 -0.2619 -0.5666
   29MOL0     H 3848  11.119   9.096   6.090  0.9446  0.1538 -0.0441
   29MOL0     H 3849  11.369   9.037   6.132  2.6769 -2.5037  0.9444
   29MOL0     H 3850  11.590   8.972   6.106 -3.8938  1.2251 -0.2248
   29MOL0     H 3851  11.693   8.888   6.009  0.2724  1.6392  1.7247
   29MOL0     H 3852  11.510   9.100   5.895  0.1216  2.5701  1.7723
   29MOL0     H 3853  11.680   9.104   5.937 -0.7260  1.3047  0.2368
   29MOL0     H 3854  11.707   9.076   5.724  1.2215 -1.2534 -1.6753
   29MOL0     H 3855  11.731   8.913   5.776  0.9773 -0.1581 -3.5051
   29MOL0     H 3856  11.509   8.856   5.711  1.4808  0.1397 -0.4455
   29MOL0     H 3857  11.465   9.031   5.694 -0.3205 -0.3067 -0.5630
   29MOL0     H 3858  11.679   8.873   5.536 -0.4540 -0.9672  2.9701
   29MOL0     H 3859  11.526   8.881   5.460 -2.1979  1.5217  0.5760
   29MOL0     H 3860  11.513   9.094   5.419 -0.4007  0.9081  2.1927
   29MOL0     H 3861  11.643   9.139   5.528  1.8800  1.8075 -2.3507
   29MOL0     H 3862  11.655   8.981   5.259  2.5557 -1.1721 -0.2913
   29MOL0     H 3863  11.690   9.152   5.283 -1.0922  1.0918  1.8471
   29MOL0     H 3864  11.897   9.024   5.258  1.3952 -0.3326  0.0926
   29MOL0     H 3865  11.854   8.906   5.383  3.2186  0.4274 -0.5692
   29MOL0     H 3866  11.898   9.296   5.355 -0.1971  0.4562  0.6854
   29MOL0     H 3867  11.951   9.483   5.581 -1.5155 -1.8144  1.6264
   29MOL0     H 3868  12.025   9.415   5.717 -3.0605  1.6229  0.1485
   29MOL0     H 3869  12.187   9.537   5.553  3.1162  0.5701 -0.0336
   29MOL0     H 3870  12.174   9.399   5.442  1.5483  0.2818  0.4580
   29MOL0     H 3871  12.240   9.237   5.598  0.5130  0.7232 -3.2267
   29MOL0     H 3872  12.284   9.351   5.720 -0.5012 -0.9214 -1.0413
   29MOL0     H 3873  12.427   9.467   5.513  1.3610  0.3227  2.8900
   29MOL0     H 3874  12.392   9.314   5.445 -0.5725  0.6248 -1.0936
   29MOL0     H 3875  12.583   9.394   5.380  0.3106  0.7565 -0.5474
   29MOL0     H 3876  12.832   9.588   5.316 -0.4951  0.0811 -1.2009
   29MOL0     H 3877  12.894   9.456   5.217  0.4283 -0.2854  0.1793
   29MOL0     H 3878  12.719   9.477   5.220 -0.6505  1.0810 -1.3755
   29MOL0     H 3879  13.349   9.159   5.430  1.6902 -0.7109 -0.9752
   29MOL0     H 3880  13.605   9.218   5.480  4.1481  2.9795  0.2113
   29MOL0     H 3881  13.722   9.604   5.523 -0.1408  2.0645  1.3367
   29MOL0     H 3882  13.674   9.582   5.694  1.0065  0.5516  0.4626
   29MOL0     H 3883  13.936   9.489   5.565  1.8143 -4.1223  2.0057
   29MOL0     H 3884  13.916   9.611   5.706 -0.7322 -1.5110  1.4300
   29MOL0     H 3885  13.860   9.318   5.747  1.8179 -0.2446  0.2056
   29MOL0     H 3886  13.838   9.463   5.846 -1.9708 -0.5375 -0.6843
   29MOL0     H 3887  14.092   9.356   5.713 -1.9352 -0.2230 -0.0897
   29MOL0     H 3888  14.101   9.501   5.809  2.6381 -1.0207  0.0718
   29MOL0     H 3889  14.038   9.400   6.011  0.9186 -0.2589  0.7396
   29MOL0     H 3890  14.189   9.348   5.959  0.5560  2.7063 -2.4376
   29MOL0     H 3891  14.083   9.153   6.036 -4.5614 -1.8178  0.1076
   29MOL0     H 3892  13.947   9.173   5.933  0.1215 -0.5248 -1.1544
   29MOL0     H 3893  14.230   9.133   5.820  0.0841 -0.7168 -2.5567
   29MOL0     H 3894  14.082   9.116   5.719  1.5310 -3.6113 -0.1461
   29MOL0     H 3895  14.107   8.909   5.757  0.2256 -0.1227  0.2693
   29MOL0     H 3896  13.988   8.954   5.874 -0.7045  1.3295 -0.6218
   29MOL0     H 3897  13.497   9.606   5.584  0.1825  0.4713 -0.8944
   29MOL0     H 3898  13.256   9.562   5.561  2.1359  1.3818  2.0771
   29MOL0     H 3899  12.970   9.246   5.653 -1.7812 -0.8855  0.5985
   29MOL0     H 3900  12.752   9.230   5.743 -3.3155  0.5596 -0.5861
   29MOL0     H 3901  11.312   8.706   5.859 -2.0321  0.5266 -3.8236
   29MOL0     H 3902  11.078   8.762   5.834  1.3136 -1.8576  0.3613
   29MOL0     H 3903  10.637   8.765   6.098 -1.0278 -1.5367 -1.0748
   29MOL0     H 3904  10.407   8.797   6.034 -0.0930  0.0237  0.8481
   29MOL0     H 3905  10.196   8.861   5.931  2.6468 -0.9717 -0.4686
   29MOL0     H 3906  10.233   8.972   6.071  3.4899 -0.8398 -0.3303
   29MOL0     H 3907  10.103   9.150   5.937  1.1705  0.2769 -2.9595
   29MOL0     H 3908  10.007   9.020   5.989 -0.6525 -0.6518  0.0288
   29MOL0     H 3909   9.981   8.919   5.787 -1.0966  1.3286 -2.3401
   29MOL0     H 3910  10.109   9.012   5.702  0.7106  1.3299  1.0546
   29MOL0     H 3911   9.950   9.155   5.638  1.6113  1.6754  0.3715
   29MOL0     H 3912   9.935   9.204   5.813 -0.7666  0.5215  0.7105
   29MOL0     H 3913   9.580   8.974   5.760 -0.8782  1.8134  1.7067
   29MOL0     H 3914  10.525   9.136   5.785  3.0992  0.5729 -0.9005
   29MOL0     H 3915  10.747   9.088   5.829 -1.2281  1.1311  0.3117
   30MOL0     O 3916   6.361   8.366   0.967  0.7885  0.3644 -0.3081
   30MOL0     C 3917   6.451   8.333   0.892  0.1313  0.0254 -0.7041
   30MOL0     O 3918   6.518   8.417   0.807 -0.3270 -0.4930  0.1799
   30MOL0     C 3919   6.495   8.550   0.824 -0.3615  0.5192 -0.2508
   30MOL0     C 3920   6.577   8.629   0.903  0.3865 -0.6598  0.6288
   30MOL0     C 3921   6.534   8.768   0.911 -0.3180 -0.0161  0.1050
   30MOL0     C 3922   6.414   8.819   0.856 -0.5200 -0.4647 -0.4469
   30MOL0     O 3923   6.369   8.949   0.858  0.5974  0.3616 -0.3653
   30MOL0     C 3924   6.428   9.041   0.949  0.6736  0.2085 -0.3128
   30MOL0     C 3925   6.348   9.170   0.980 -0.7033  0.9617  0.7944
   30MOL0     C 3926   6.328   9.251   0.849 -0.5198  0.1954 -0.6166
   30MOL0     C 3927   6.235   9.366   0.895  0.7528 -0.4843  0.5479
   30MOL0     C 3928   6.196   9.460   0.781  0.0949 -1.0224 -0.1107
   30MOL0     C 3929   6.316   9.560   0.761 -0.2763  0.3076  0.1799
   30MOL0     C 3930   6.271   9.675   0.667 -0.2077  0.3119  0.4133
   30MOL0     C 3931   6.288   9.823   0.733  0.0366 -0.5263  0.3223
   30MOL0     N 3932   6.289   9.925   0.631 -0.5395 -0.0198  1.2054
   30MOL0     C 3933   6.399   9.954   0.559  0.5101  0.2177 -0.5630
   30MOL0     C 3934   6.363   9.990   0.439 -0.1841  0.0072 -0.1318
   30MOL0     C 3935   6.441  10.031   0.314  0.0034  0.5012  0.4743
   30MOL0     C 3936   6.513  10.162   0.333  0.0200 -0.4017  0.6183
   30MOL0     C 3937   6.658  10.150   0.381 -0.2743 -0.1377 -0.3729
   30MOL0     C 3938   6.726  10.273   0.448  0.9273 -0.0206  0.1794
   30MOL0     O 3939   6.722  10.384   0.353 -0.6886 -0.3667 -0.7462
   30MOL0     C 3940   6.798  10.486   0.406 -1.0625  0.9043 -0.3391
   30MOL0     C 3941   6.740  10.561   0.504 -0.0880  0.0806  1.3865
   30MOL0     C 3942   6.814  10.669   0.558 -0.7154  0.4650 -0.3408
   30MOL0     C 3943   6.740  10.774   0.645 -0.1216  0.1704  0.8798
   30MOL0     C 3944   6.940  10.703   0.498 -0.7521 -0.5161 -0.0689
   30MOL0     C 3945   7.014  10.825   0.533 -0.6453  0.1624  1.1169
   30MOL0     O 3946   7.062  10.897   0.430  0.3336 -0.7052  0.5014
   30MOL0     C 3947   7.164  10.996   0.457  0.0032 -1.2763 -0.3121
   30MOL0     C 3948   7.137  11.101   0.545  0.0883 -0.3124  0.1734
   30MOL0     C 3949   7.220  11.210   0.562 -0.1257  0.8708  0.3686
   30MOL0     C 3950   7.347  11.219   0.493 -0.0972  0.8001  0.0206
   30MOL0     O 3951   7.405  11.340   0.514 -0.2807  0.4666 -0.1987
   30MOL0     C 3952   7.517  11.366   0.438  0.0673 -0.3660 -0.4074
   30MOL0     C 3953   7.593  11.481   0.481  0.4361 -0.3453 -0.2430
   30MOL0     C 3954   7.656  11.442   0.614 -0.2489 -0.1517 -0.0959
   30MOL0     C 3955   7.729  11.579   0.667  0.0165  0.3952  0.1131
   30MOL0     C 3956   7.753  11.556   0.819 -0.5355  0.5542 -0.5502
   30MOL0     C 3957   7.851  11.664   0.876  1.1447 -0.5495 -0.4797
   30MOL0     C 3958   7.994  11.675   0.818 -0.0724 -0.5271  1.0040
   30MOL0     C 3959   8.069  11.544   0.814 -0.9318  0.5844 -0.1202
   30MOL0    Cl 3960   8.064  11.464   0.973  0.2342 -0.1276 -0.3602
   30MOL0     C 3961   7.372  11.116   0.402  0.5541 -0.6839  0.8982
   30MOL0     C 3962   7.283  11.010   0.385  0.5535  0.3602  0.1999
   30MOL0     O 3963   7.030  10.857   0.654  0.3483 -0.0017 -0.1043
   30MOL0     C 3964   7.003  10.614   0.409 -0.7232 -0.0808  0.4517
   30MOL0     C 3965   6.930  10.504   0.364 -0.1123  0.6749 -0.4686
   30MOL0     N 3966   6.226   9.978   0.438  0.3015 -0.3008  0.2620
   30MOL0     N 3967   6.177   9.929   0.558  0.1313  1.1422  0.3431
   30MOL0     C 3968   6.345   8.741   0.771  0.3723  0.1598 -0.1071
   30MOL0     C 3969   6.381   8.601   0.755  1.8787 -0.4252 -0.0673
   30MOL0     C 3970   6.483   8.193   0.877 -0.9958 -0.0199 -0.4251
   30MOL0     C 3971   6.376   8.101   0.871  0.9226 -0.0957  0.4247
   30MOL0     C 3972   6.404   7.963   0.871 -0.4393  0.2092  0.0779
   30MOL0     C 3973   6.533   7.912   0.872  0.0807 -0.5471 -0.1848
   30MOL0     O 3974   6.568   7.780   0.858  0.2716 -0.8764  0.3309
   30MOL0     C 3975   6.474   7.685   0.898 -0.5520 -0.0955 -0.3069
   30MOL0     C 3976   6.533   7.548   0.918  0.7474 -0.4050  1.3430
   30MOL0     C 3977   6.580   7.513   1.057  0.4501  0.3993 -0.1084
   30MOL0     C 3978   6.649   7.376   1.071  0.5672 -0.1974 -0.4416
   30MOL0     C 3979   6.560   7.257   1.057 -0.1172 -1.1866  0.7282
   30MOL0     C 3980   6.493   7.157   1.039 -0.2168  0.9571  0.1949
   30MOL0     C 3981   6.639   8.008   0.891 -0.0546  0.1042  0.6485
   30MOL0     C 3982   6.615   8.146   0.885 -0.0754 -0.1417 -0.6405
   30MOL0     H 3983   6.661   8.595   0.962  1.2235 -0.6062 -0.4921
   30MOL0     H 3984   6.606   8.833   0.960  0.4603  0.4423 -1.5851
   30MOL0     H 3985   6.430   8.987   1.044 -1.9585  0.2559 -0.1726
   30MOL0     H 3986   6.524   9.079   0.912  1.8824 -2.1968  0.1731
   30MOL0     H 3987   6.258   9.142   1.035  0.7173  0.6572  3.1330
   30MOL0     H 3988   6.401   9.233   1.052  1.1825 -0.0103  0.3432
   30MOL0     H 3989   6.426   9.284   0.816  0.0878 -2.3230 -1.5271
   30MOL0     H 3990   6.295   9.187   0.766  2.1374 -2.4097  0.1631
   30MOL0     H 3991   6.143   9.327   0.939  1.0360  0.1293  1.7518
   30MOL0     H 3992   6.270   9.428   0.979 -0.8153  1.6630 -0.2942
   30MOL0     H 3993   6.161   9.407   0.692  0.0092 -1.5411  0.2256
   30MOL0     H 3994   6.114   9.522   0.819 -1.0061 -1.4664 -1.6672
   30MOL0     H 3995   6.351   9.595   0.858 -1.1832 -0.6759  0.8880
   30MOL0     H 3996   6.396   9.505   0.711 -1.9872  0.1704 -2.6456
   30MOL0     H 3997   6.353   9.688   0.595 -0.2241  0.3741  0.4062
   30MOL0     H 3998   6.177   9.655   0.616 -1.5760  1.1472  2.4669
   30MOL0     H 3999   6.380   9.820   0.792  0.6384 -0.6803 -0.5962
   30MOL0     H 4000   6.202   9.855   0.792  0.7544  1.9873  0.0902
   30MOL0     H 4001   6.501   9.969   0.591  0.5986 -2.1620  0.5014
   30MOL0     H 4002   6.502   9.947   0.278  1.2629 -0.0116  3.5019
   30MOL0     H 4003   6.377  10.048   0.226  1.8834 -1.5611 -1.4398
   30MOL0     H 4004   6.456  10.219   0.406 -1.3333 -0.3629 -0.4261
   30MOL0     H 4005   6.521  10.220   0.241 -0.4905 -2.6635 -0.9562
   30MOL0     H 4006   6.724  10.117   0.300  1.0661  0.2829  0.4995
   30MOL0     H 4007   6.661  10.067   0.452 -2.0285 -2.4549 -2.8299
   30MOL0     H 4008   6.828  10.244   0.475  1.4414 -0.8583 -2.3876
   30MOL0     H 4009   6.666  10.295   0.537 -2.1106 -5.0522 -0.2586
   30MOL0     H 4010   6.640  10.554   0.547 -0.1525  0.9157  1.3909
   30MOL0     H 4011   6.684  10.717   0.719 -1.6839 -0.0701 -0.4425
   30MOL0     H 4012   6.812  10.843   0.690  3.3049 -0.4104 -3.0871
   30MOL0     H 4013   6.677  10.844   0.589 -1.6305 -0.6443  1.5024
   30MOL0     H 4014   7.044  11.100   0.602 -0.8321  0.8907 -1.2276
   30MOL0     H 4015   7.186  11.280   0.638  0.6027 -0.8466  2.3751
   30MOL0     H 4016   7.588  11.283   0.438  1.0776  0.4132  2.1208
   30MOL0     H 4017   7.486  11.377   0.333 -1.9068  0.3811  0.2039
   30MOL0     H 4018   7.660  11.517   0.402  0.7202 -0.2350  0.0446
   30MOL0     H 4019   7.526  11.566   0.494 -0.0346 -0.1984 -3.1431
   30MOL0     H 4020   7.737  11.368   0.610 -0.8712 -1.0825  2.4153
   30MOL0     H 4021   7.582  11.416   0.690  0.4297 -1.8545  0.0358
   30MOL0     H 4022   7.821  11.595   0.611  1.0980  3.1871  2.4463
   30MOL0     H 4023   7.659  11.663   0.657 -0.3522  0.1462  0.5837
   30MOL0     H 4024   7.792  11.455   0.838  0.4052  1.2450  1.5431
   30MOL0     H 4025   7.660  11.572   0.873 -2.5740 -1.4073 -3.1684
   30MOL0     H 4026   7.800  11.760   0.866  2.6919  0.4337  0.6419
   30MOL0     H 4027   7.859  11.646   0.983 -2.3678  1.4605  0.2740
   30MOL0     H 4028   8.060  11.746   0.868  0.9183 -0.5066 -0.2594
   30MOL0     H 4029   7.982  11.700   0.712  0.4648 -1.7028  0.6474
   30MOL0     H 4030   8.170  11.561   0.777 -1.9507  2.2396 -2.4294
   30MOL0     H 4031   8.017  11.473   0.749 -0.1205 -0.6886  0.5723
   30MOL0     H 4032   7.461  11.134   0.342  0.0812  2.4974  0.9830
   30MOL0     H 4033   7.310  10.927   0.320 -0.9349  0.3694 -0.4751
   30MOL0     H 4034   7.105  10.641   0.384 -1.4426  0.9220 -1.6219
   30MOL0     H 4035   6.988  10.435   0.304  2.0475 -0.4633  2.6716
   30MOL0     H 4036   6.248   8.770   0.732  2.2686  2.4639 -3.6496
   30MOL0     H 4037   6.328   8.530   0.692  2.5688  1.3195 -2.8043
   30MOL0     H 4038   6.275   8.136   0.857  1.0106 -0.0542 -0.1204
   30MOL0     H 4039   6.320   7.895   0.863  1.2390 -1.9202 -0.2841
   30MOL0     H 4040   6.435   7.718   0.995 -1.7678  1.0099 -1.1189
   30MOL0     H 4041   6.393   7.666   0.827 -0.2181 -2.9781 -0.0381
   30MOL0     H 4042   6.619   7.547   0.850 -1.2438  0.4080 -1.3947
   30MOL0     H 4043   6.459   7.475   0.884 -0.9656  1.7453  0.1354
   30MOL0     H 4044   6.497   7.524   1.128 -0.4546  3.6766 -1.4893
   30MOL0     H 4045   6.652   7.591   1.085 -0.4674  0.6122  1.8535
   30MOL0     H 4046   6.690   7.364   1.172 -2.8458 -4.4829  0.7347
   30MOL0     H 4047   6.726   7.375   0.993  1.4420 -0.1251  0.4073
   30MOL0     H 4048   6.413   7.091   1.013  0.1822  1.7172 -3.5283
   30MOL0     H 4049   6.744   7.979   0.897 -0.4088 -1.3110  0.3714
   30MOL0     H 4050   6.695   8.219   0.895 -0.5829  0.3483 -0.0706
   31MOL0     O 4051   9.860   7.406  11.017  0.5056  1.0538  0.6357
   31MOL0     C 4052   9.969   7.380  11.064 -0.3719 -0.6102 -0.6901
   31MOL0     O 4053  10.052   7.277  11.021  0.4551  0.4502  0.4915
   31MOL0     C 4054  10.015   7.215  10.905 -0.6208 -0.2623 -0.8459
   31MOL0     C 4055   9.964   7.276  10.790  0.2978 -0.0159 -0.1969
   31MOL0     C 4056   9.926   7.204  10.674 -0.2948 -0.9382 -0.3220
   31MOL0     C 4057   9.950   7.071  10.678  0.3777  0.0363 -0.1766
   31MOL0     O 4058   9.902   7.008  10.564 -0.5904  0.1084  0.4251
   31MOL0     C 4059   9.959   6.879  10.530  0.6883 -0.5307  0.1521
   31MOL0     C 4060   9.971   6.857  10.381  0.0121 -0.8159  0.3141
   31MOL0     C 4061  10.090   6.914  10.314  0.1299  0.0775  1.0756
   31MOL0     C 4062  10.099   6.862  10.172 -0.5188 -0.3355  0.2051
   31MOL0     C 4063   9.971   6.869  10.079  0.5470  0.2662 -0.0490
   31MOL0     C 4064   9.901   6.997  10.059 -0.5807  0.0099  0.3228
   31MOL0     C 4065   9.752   6.978   9.997 -0.1840 -0.4026 -0.8211
   31MOL0     C 4066   9.740   6.886   9.877 -0.5353 -0.4388  0.6424
   31MOL0     N 4067   9.778   6.962   9.759 -0.9664 -0.1066 -0.3443
   31MOL0     C 4068   9.697   7.044   9.684  0.1268 -0.5161  0.8825
   31MOL0     C 4069   9.784   7.123   9.620  0.8609  0.0072  1.4717
   31MOL0     C 4070   9.757   7.235   9.517  0.0967  0.0798 -0.5150
   31MOL0     C 4071   9.776   7.378   9.579 -0.4158  0.6755  0.2485
   31MOL0     C 4072   9.659   7.406   9.679 -0.6851 -0.3310  0.1206
   31MOL0     C 4073   9.642   7.556   9.713  0.2169  0.5618 -0.4720
   31MOL0     O 4074   9.581   7.634   9.609  0.1690  0.0249 -0.2845
   31MOL0     C 4075   9.662   7.719   9.526 -0.2136  0.0280 -0.0939
   31MOL0     C 4076   9.586   7.790   9.437  0.0519 -0.3090  0.6945
   31MOL0     C 4077   9.641   7.894   9.347  0.7366 -0.3836  0.6949
   31MOL0     C 4078   9.540   7.978   9.272  0.2738 -0.4677  0.5687
   31MOL0     C 4079   9.775   7.918   9.345  1.0192 -0.6176 -0.1418
   31MOL0     C 4080   9.839   8.016   9.254 -0.4642 -0.7377  0.9906
   31MOL0     O 4081   9.970   7.990   9.229  0.3615  0.3475 -0.1683
   31MOL0     C 4082  10.041   8.074   9.144 -0.4028 -0.3093 -0.5926
   31MOL0     C 4083  10.019   8.055   9.007  0.0845  0.0410 -0.2505
   31MOL0     C 4084  10.091   8.141   8.913  0.4736  0.1946  0.2915
   31MOL0     C 4085  10.169   8.249   8.946  0.4559 -0.3876 -0.3212
   31MOL0     O 4086  10.231   8.313   8.840 -0.3619  0.0119 -0.0216
   31MOL0     C 4087  10.293   8.443   8.867  0.2008  0.8555  0.6373
   31MOL0     C 4088  10.199   8.556   8.896  0.0296  0.0654  0.1665
   31MOL0     C 4089  10.098   8.583   8.780 -0.1213 -0.1802 -1.1501
   31MOL0     C 4090  10.156   8.676   8.663  0.7624 -0.4190 -0.5262
   31MOL0     C 4091  10.050   8.740   8.575  0.2634 -0.7033  0.3221
   31MOL0     C 4092  10.128   8.819   8.472 -0.7196  0.6061  0.7953
   31MOL0     C 4093  10.044   8.919   8.399 -0.6776  0.1513  0.8929
   31MOL0     C 4094  10.113   8.953   8.263 -0.5227 -0.7286 -0.7185
   31MOL0    Cl 4095  10.074   8.835   8.129  0.1158  0.1272  0.1028
   31MOL0     C 4096  10.189   8.268   9.084  0.1268  1.2988  0.5902
   31MOL0     C 4097  10.129   8.183   9.179  0.8873  0.7632 -1.0990
   31MOL0     O 4098   9.773   8.112   9.206 -0.9129 -0.1409  0.6264
   31MOL0     C 4099   9.856   7.847   9.437  1.1587 -0.6347  0.4460
   31MOL0     C 4100   9.800   7.754   9.522  0.4684  0.4226  0.3195
   31MOL0     N 4101   9.910   7.088   9.645  0.2903  1.0123 -0.4237
   31MOL0     N 4102   9.906   6.980   9.724  0.2281 -0.2297  0.2934
   31MOL0     C 4103   9.995   7.002  10.800  0.3366  0.1980 -0.0505
   31MOL0     C 4104  10.037   7.076  10.911 -1.0975 -0.1280 -0.2048
   31MOL0     C 4105  10.029   7.480  11.161 -0.4207 -0.1544  0.1714
   31MOL0     C 4106   9.948   7.579  11.216  0.3050  0.0777  0.2966
   31MOL0     C 4107  10.001   7.666  11.319  0.6831 -0.9631  1.0220
   31MOL0     C 4108  10.133   7.655  11.358  0.3652  0.6109 -0.3893
   31MOL0     O 4109  10.170   7.740  11.457 -0.7833  0.0195  0.4249
   31MOL0     C 4110  10.305   7.745  11.494  0.7921 -0.1189 -0.5430
   31MOL0     C 4111  10.333   7.883  11.540 -0.6436 -0.2074 -0.3936
   31MOL0     C 4112  10.478   7.904  11.578 -0.4250  0.4919  0.6485
   31MOL0     C 4113  10.525   8.049  11.610 -0.1059  0.2102 -0.8388
   31MOL0     C 4114  10.509   8.147  11.495  0.5912  0.1418  0.2456
   31MOL0     C 4115  10.513   8.234  11.410 -0.1723  0.1424 -0.8280
   31MOL0     C 4116  10.206   7.543  11.309 -1.2054 -0.0045  0.7142
   31MOL0     C 4117  10.153   7.459  11.214 -0.4105 -0.5692  0.3378
   31MOL0     H 4118   9.986   7.382  10.782 -0.5672  0.2663  0.8331
   31MOL0     H 4119   9.886   7.252  10.585  0.7011  1.2263  0.3350
   31MOL0     H 4120  10.055   6.851  10.575  1.0772 -0.3271 -0.5182
   31MOL0     H 4121   9.893   6.800  10.567  0.0327 -0.6919 -1.2942
   31MOL0     H 4122   9.985   6.749  10.367 -4.3591 -1.4755 -0.3085
   31MOL0     H 4123   9.877   6.892  10.339  0.8861  1.4781  0.1091
   31MOL0     H 4124  10.087   7.021  10.294  0.8670 -0.6118 -3.9828
   31MOL0     H 4125  10.183   6.886  10.365  0.4314  0.6043  0.8261
   31MOL0     H 4126  10.182   6.900  10.112 -2.4790  2.7849 -0.8223
   31MOL0     H 4127  10.114   6.755  10.186 -1.4609 -0.2143  2.5667
   31MOL0     H 4128   9.995   6.827   9.981  0.2138 -1.6943  0.6527
   31MOL0     H 4129   9.898   6.799  10.121 -0.2417 -1.0683 -3.3543
   31MOL0     H 4130   9.900   7.047  10.156  0.6948 -1.0984  0.9414
   31MOL0     H 4131   9.964   7.065  10.001  1.5750 -3.3755 -1.6492
   31MOL0     H 4132   9.689   6.931  10.073  0.8236  0.2368  0.4527
   31MOL0     H 4133   9.712   7.080   9.991  0.8221  0.1914  1.4759
   31MOL0     H 4134   9.637   6.850   9.871 -1.0823  1.1747 -0.2183
   31MOL0     H 4135   9.799   6.794   9.876  1.6300  0.8579 -0.2110
   31MOL0     H 4136   9.589   7.042   9.674 -0.0333  4.2733 -1.1253
   31MOL0     H 4137   9.835   7.222   9.442 -1.9027 -4.7600 -2.1676
   31MOL0     H 4138   9.665   7.220   9.461 -0.4684 -1.9108  0.8271
   31MOL0     H 4139   9.789   7.454   9.502 -0.1424  0.8645  0.4789
   31MOL0     H 4140   9.872   7.389   9.631  0.6371  4.2835 -2.1058
   31MOL0     H 4141   9.686   7.360   9.774  1.6720  0.6072 -0.0221
   31MOL0     H 4142   9.564   7.373   9.637 -0.9254 -2.2524  2.0058
   31MOL0     H 4143   9.740   7.602   9.730 -0.0614  1.4186 -1.1139
   31MOL0     H 4144   9.566   7.568   9.791 -0.2029  2.0366 -1.0779
   31MOL0     H 4145   9.479   7.776   9.429 -0.1517  2.0622 -3.6337
   31MOL0     H 4146   9.554   7.967   9.164  1.0601 -1.4331  0.7488
   31MOL0     H 4147   9.437   7.940   9.276 -0.0546  0.5137  2.4144
   31MOL0     H 4148   9.551   8.086   9.285 -0.6087 -0.2418 -0.4069
   31MOL0     H 4149   9.952   7.980   8.968 -3.2493  0.3705  4.1119
   31MOL0     H 4150  10.084   8.127   8.806  0.2028  3.2812 -0.1916
   31MOL0     H 4151  10.346   8.435   8.963  0.3579 -0.7354  0.4462
   31MOL0     H 4152  10.359   8.475   8.787  0.7817  1.6395  1.4069
   31MOL0     H 4153  10.146   8.538   8.990 -2.9063  2.5451 -0.8267
   31MOL0     H 4154  10.254   8.646   8.923 -1.0654  0.4816  1.1217
   31MOL0     H 4155  10.003   8.623   8.816 -1.1875 -3.0767 -0.4960
   31MOL0     H 4156  10.071   8.485   8.740 -4.7998 -0.2068  1.3665
   31MOL0     H 4157  10.208   8.755   8.717 -1.3326 -0.4706  1.7582
   31MOL0     H 4158  10.219   8.607   8.606  0.1061  0.0196 -1.8182
   31MOL0     H 4159   9.976   8.804   8.623  1.6791  0.0235  1.6194
   31MOL0     H 4160   9.994   8.658   8.529 -0.2404 -0.9876  1.4074
   31MOL0     H 4161  10.212   8.875   8.515  1.5194 -2.1120  0.2605
   31MOL0     H 4162  10.175   8.750   8.402 -1.6705  0.2206  0.5271
   31MOL0     H 4163  10.042   9.001   8.471 -2.5148  0.7308  0.2448
   31MOL0     H 4164   9.944   8.877   8.382 -0.1968 -1.1714  1.1869
   31MOL0     H 4165  10.220   8.974   8.264 -0.4462 -0.4769 -3.6754
   31MOL0     H 4166  10.075   9.050   8.228  3.2764  2.0920  2.1380
   31MOL0     H 4167  10.242   8.358   9.114 -1.3543  3.2640 -2.3537
   31MOL0     H 4168  10.148   8.197   9.285 -1.9395 -1.3196 -0.1784
   31MOL0     H 4169   9.960   7.875   9.452  1.4742 -1.3688 -0.3274
   31MOL0     H 4170   9.866   7.709   9.595 -0.9126  2.8611  3.3071
   31MOL0     H 4171  10.007   6.894  10.801  1.2327  0.2948 -0.2134
   31MOL0     H 4172  10.073   7.020  10.997 -2.1149 -1.3412 -0.5349
   31MOL0     H 4173   9.844   7.584  11.185  0.3888  0.4057  0.0603
   31MOL0     H 4174   9.952   7.751  11.366  3.4321  1.3308  0.0021
   31MOL0     H 4175  10.307   7.675  11.578 -2.8734 -0.0887 -0.2897
   31MOL0     H 4176  10.374   7.714  11.414  0.9681 -0.7220 -0.1654
   31MOL0     H 4177  10.271   7.915  11.624  0.7196 -1.3649  1.1371
   31MOL0     H 4178  10.299   7.930  11.448  2.9264 -0.7494 -2.1462
   31MOL0     H 4179  10.548   7.859  11.508  1.5810 -1.0398  3.4571
   31MOL0     H 4180  10.508   7.844  11.664  5.0802 -1.3110 -2.0738
   31MOL0     H 4181  10.630   8.057  11.639 -0.8531  2.5858  1.6247
   31MOL0     H 4182  10.461   8.080  11.693  1.6939  0.2308  0.6191
   31MOL0     H 4183  10.499   8.319  11.346 -1.0807 -0.4574 -1.4361
   31MOL0     H 4184  10.303   7.511  11.345 -1.5850 -1.6709  0.3062
   31MOL0     H 4185  10.224   7.380  11.190  0.8900  0.5549  0.4190
   32MOL0     O 4186  10.429   0.890   3.229  0.3331 -0.4662 -0.0928
   32MOL0     C 4187  10.311   0.847   3.202 -0.5557  0.2531 -0.1755
   32MOL0     O 4188  10.217   0.809   3.290  0.1246  0.3173  0.1821
   32MOL0     C 4189  10.227   0.809   3.428 -0.2159  1.2436  0.4143
   32MOL0     C 4190  10.173   0.919   3.490 -0.2075  0.2929  0.0308
   32MOL0     C 4191  10.178   0.918   3.632  0.0492 -0.4129  0.6609
   32MOL0     C 4192  10.251   0.825   3.699  0.6608  0.0651 -0.5405
   32MOL0     O 4193  10.265   0.817   3.832 -0.6164  1.0246 -0.1487
   32MOL0     C 4194  10.218   0.921   3.904 -0.7171  0.1089 -0.1181
   32MOL0     C 4195  10.258   0.922   4.056 -1.0053 -0.0855  0.4225
   32MOL0     C 4196  10.415   0.918   4.070 -0.4980 -0.2780 -0.1794
   32MOL0     C 4197  10.434   0.896   4.225 -0.8388 -0.3127  0.2363
   32MOL0     C 4198  10.591   0.902   4.242  0.3351  0.0827  0.1928
   32MOL0     C 4199  10.624   0.905   4.387  0.4139 -0.2711 -0.0138
   32MOL0     C 4200  10.581   0.786   4.469  0.6807  0.5627 -0.2576
   32MOL0     C 4201  10.643   0.652   4.422  0.3864  0.7588  0.1100
   32MOL0     N 4202  10.787   0.629   4.450  0.3865  0.3965 -0.0790
   32MOL0     C 4203  10.846   0.611   4.570  0.4259  1.1181 -0.3617
   32MOL0     C 4204  10.974   0.644   4.565 -0.4842  0.6264 -0.1744
   32MOL0     C 4205  11.069   0.646   4.679 -0.3199 -0.3361  0.9733
   32MOL0     C 4206  11.066   0.783   4.760  0.2119  0.0877  0.2264
   32MOL0     C 4207  11.185   0.800   4.850  0.0451  0.5316  0.3623
   32MOL0     C 4208  11.176   0.700   4.969 -0.9583 -0.0752 -0.1101
   32MOL0     O 4209  11.056   0.712   5.045  0.6412 -0.1513  0.4916
   32MOL0     C 4210  10.976   0.596   5.041 -1.4311  0.4186  0.4415
   32MOL0     C 4211  10.841   0.616   5.035 -1.0003 -1.5038  0.0660
   32MOL0     C 4212  10.754   0.515   5.023 -0.0922 -0.8512  0.2327
   32MOL0     C 4213  10.612   0.544   5.008 -0.7414  0.4562  0.1499
   32MOL0     C 4214  10.801   0.380   5.015  0.1704 -0.1367  0.6944
   32MOL0     C 4215  10.709   0.250   4.992 -1.0386 -0.4594  0.4386
   32MOL0     O 4216  10.574   0.259   4.989  0.7355  0.0213 -0.0296
   32MOL0     C 4217  10.489   0.151   4.999 -0.1046 -0.3542  0.9388
   32MOL0     C 4218  10.352   0.192   5.019  0.5244  0.0956 -0.9116
   32MOL0     C 4219  10.247   0.097   4.999 -0.5456 -0.2746  0.7746
   32MOL0     C 4220  10.274  -0.041   4.978  0.0050 -0.8901  0.1647
   32MOL0     O 4221  10.156  -0.119   4.950  0.5727  0.4108 -0.2238
   32MOL0     C 4222  10.171  -0.225   4.857  0.1620  0.4595 -0.2864
   32MOL0     C 4223  10.025  -0.259   4.815 -0.7803  0.7957 -0.3744
   32MOL0     C 4224   9.942  -0.148   4.758 -0.9892  0.9952  0.3119
   32MOL0     C 4225   9.968  -0.134   4.606 -0.8960  0.4103  0.6121
   32MOL0     C 4226   9.882  -0.024   4.536 -0.2191 -0.9712 -0.3747
   32MOL0     C 4227   9.737  -0.042   4.547  0.1093  0.4834  0.9265
   32MOL0     C 4228   9.659   0.076   4.480 -0.1862  0.0774 -0.8502
   32MOL0     C 4229   9.510   0.057   4.475 -0.0071 -0.6766 -0.8769
   32MOL0    Cl 4230   9.428   0.199   4.405 -0.0098 -0.2166  0.5101
   32MOL0     C 4231  10.409  -0.076   4.966  0.7445  0.6178  0.2997
   32MOL0     C 4232  10.509   0.015   4.982  0.9336 -0.2476 -0.4573
   32MOL0     O 4233  10.774   0.147   4.971  0.1880  0.0159 -0.5417
   32MOL0     C 4234  10.933   0.356   5.053 -0.2875  0.2375 -0.6006
   32MOL0     C 4235  11.013   0.467   5.066 -0.4540 -0.3508  0.1298
   32MOL0     N 4236  11.000   0.691   4.438  0.3932 -0.1970 -0.2681
   32MOL0     N 4237  10.889   0.674   4.377 -0.7376 -0.6877 -0.5124
   32MOL0     C 4238  10.310   0.718   3.630 -0.0799 -0.7996  0.4206
   32MOL0     C 4239  10.292   0.699   3.492  1.1895  1.1959 -0.1049
   32MOL0     C 4240  10.276   0.880   3.063  0.6662 -0.1397  0.4291
   32MOL0     C 4241  10.141   0.864   3.016  0.4866  0.8229 -0.4343
   32MOL0     C 4242  10.105   0.903   2.888  0.2213  0.7353 -0.6582
   32MOL0     C 4243  10.195   0.953   2.801 -0.3473  0.8311 -0.2773
   32MOL0     O 4244  10.139   0.980   2.682 -0.3954  0.0104  0.2768
   32MOL0     C 4245  10.203   1.078   2.593  0.2914  0.9814  0.2450
   32MOL0     C 4246  10.094   1.110   2.491 -0.4733  0.0652  0.9727
   32MOL0     C 4247  10.119   1.222   2.396 -0.3924 -0.5580 -0.0306
   32MOL0     C 4248  10.088   1.183   2.251 -0.1935  0.1469 -0.0587
   32MOL0     C 4249   9.951   1.207   2.222  0.4055  1.3416  0.5094
   32MOL0     C 4250   9.827   1.211   2.230  0.2073 -0.4840 -0.8628
   32MOL0     C 4251  10.326   0.968   2.837 -0.2462 -0.0516  0.5487
   32MOL0     C 4252  10.368   0.933   2.961  0.7258  0.5970 -0.7021
   32MOL0     H 4253  10.124   0.995   3.431  2.0958  2.0988  0.2840
   32MOL0     H 4254  10.146   1.008   3.683  1.8644 -0.4128  1.9073
   32MOL0     H 4255  10.276   1.001   3.856  1.7667 -0.5416  1.5694
   32MOL0     H 4256  10.109   0.923   3.900 -0.7656 -0.2452  0.8123
   32MOL0     H 4257  10.221   1.017   4.094  0.3336  1.0606 -0.9606
   32MOL0     H 4258  10.214   0.834   4.104 -1.8447  0.4788  0.7047
   32MOL0     H 4259  10.461   0.842   4.006  1.5570  1.5650 -1.0135
   32MOL0     H 4260  10.451   1.015   4.035  0.2446  0.0561  1.4276
   32MOL0     H 4261  10.388   0.976   4.284  0.1706 -0.4113  1.1885
   32MOL0     H 4262  10.394   0.799   4.256 -0.9762 -0.1080  0.7087
   32MOL0     H 4263  10.644   0.832   4.177  1.7280  1.2566  0.0072
   32MOL0     H 4264  10.613   1.002   4.204 -1.1522  1.8839  3.6525
   32MOL0     H 4265  10.730   0.915   4.411 -0.1581  2.1815  1.9538
   32MOL0     H 4266  10.584   1.001   4.422 -1.6537 -1.6146  1.5565
   32MOL0     H 4267  10.597   0.817   4.573 -3.3619 -4.0767  2.1549
   32MOL0     H 4268  10.472   0.773   4.468  0.7507  0.0062 -0.5710
   32MOL0     H 4269  10.618   0.643   4.316  1.9085 -3.2675 -0.0687
   32MOL0     H 4270  10.589   0.576   4.479 -0.8751  0.6386 -1.2040
   32MOL0     H 4271  10.797   0.580   4.661  3.6276 -0.2881  1.0260
   32MOL0     H 4272  11.028   0.580   4.757 -1.1916  0.4996  1.2447
   32MOL0     H 4273  11.173   0.627   4.651  0.0734  3.0400 -0.3266
   32MOL0     H 4274  10.974   0.792   4.818 -0.5273 -3.2901 -0.2011
   32MOL0     H 4275  11.070   0.864   4.687 -4.8142  1.1842  0.8262
   32MOL0     H 4276  11.186   0.904   4.884 -0.9883  0.6910 -0.0515
   32MOL0     H 4277  11.275   0.778   4.791  1.3683  0.3304  2.3838
   32MOL0     H 4278  11.262   0.735   5.028 -1.3186  1.6266 -0.5459
   32MOL0     H 4279  11.198   0.599   4.933 -2.3290 -0.4791  0.1187
   32MOL0     H 4280  10.804   0.717   5.027  0.2689 -0.9925  0.4131
   32MOL0     H 4281  10.584   0.484   4.921  1.8532 -0.9603  0.1840
   32MOL0     H 4282  10.553   0.503   5.090 -2.3884 -0.0552 -1.2198
   32MOL0     H 4283  10.592   0.651   4.996 -1.8830  0.3149  0.6771
   32MOL0     H 4284  10.335   0.299   5.021  2.3888  0.4766 -2.5526
   32MOL0     H 4285  10.143   0.125   5.012  0.1981  2.0546  2.3860
   32MOL0     H 4286  10.225  -0.203   4.765  1.8495 -3.3342 -0.3852
   32MOL0     H 4287  10.218  -0.313   4.902 -1.2035  0.4596  1.2646
   32MOL0     H 4288  10.023  -0.347   4.749  3.1847 -0.1804  0.5551
   32MOL0     H 4289   9.982  -0.298   4.908  0.7197 -2.1037 -0.7698
   32MOL0     H 4290   9.975  -0.059   4.813  0.7469  1.2168 -0.9847
   32MOL0     H 4291   9.836  -0.172   4.770 -0.1957 -2.1973  1.9216
   32MOL0     H 4292  10.071  -0.100   4.598 -0.9781  2.2577  4.9377
   32MOL0     H 4293   9.957  -0.227   4.549 -0.4252  1.2987 -0.9923
   32MOL0     H 4294   9.914  -0.026   4.432 -0.0752  0.4768 -0.3751
   32MOL0     H 4295   9.916   0.075   4.567  0.0726 -1.3440  0.5400
   32MOL0     H 4296   9.714  -0.137   4.496  0.6396 -1.2865  3.7798
   32MOL0     H 4297   9.713  -0.054   4.652  0.1504 -1.6487  0.7389
   32MOL0     H 4298   9.695   0.084   4.377 -0.9883  1.1397 -1.0651
   32MOL0     H 4299   9.662   0.169   4.538 -2.6649 -0.5438  0.3965
   32MOL0     H 4300   9.471   0.042   4.576 -2.8255 -2.0653 -2.0757
   32MOL0     H 4301   9.483  -0.031   4.416 -1.1877  0.0397 -1.4341
   32MOL0     H 4302  10.427  -0.180   4.942 -1.6372  0.9395 -3.8320
   32MOL0     H 4303  10.603  -0.039   4.977  2.4751  2.3274 -2.1433
   32MOL0     H 4304  10.975   0.258   5.074  0.4215  0.8449  0.9962
   32MOL0     H 4305  11.120   0.459   5.083  0.2908 -1.7130 -4.0390
   32MOL0     H 4306  10.379   0.659   3.690  0.0992 -0.2793  0.7342
   32MOL0     H 4307  10.340   0.631   3.423 -0.1176 -1.2909  1.2964
   32MOL0     H 4308  10.069   0.819   3.084  2.6685  0.9119  2.0980
   32MOL0     H 4309   9.999   0.887   2.874 -0.4477  0.6686  3.3266
   32MOL0     H 4310  10.240   1.164   2.650  0.1839  0.8004  0.5882
   32MOL0     H 4311  10.295   1.040   2.546 -0.8979  0.2449 -1.6042
   32MOL0     H 4312   9.995   1.125   2.536  0.2302  1.5851  2.0879
   32MOL0     H 4313  10.096   1.021   2.427  3.3704  1.8773 -1.8191
   32MOL0     H 4314  10.224   1.254   2.393 -0.1545 -1.0140  1.9823
   32MOL0     H 4315  10.055   1.304   2.430 -0.1760 -1.2504  2.1910
   32MOL0     H 4316  10.113   1.079   2.232 -0.8368 -0.0970  0.3789
   32MOL0     H 4317  10.145   1.254   2.191 -0.7856 -1.2007 -2.3297
   32MOL0     H 4318   9.725   1.241   2.218 -0.0275 -1.4788 -1.4801
   32MOL0     H 4319  10.406   1.003   2.773  0.5047 -3.8267 -0.8808
   32MOL0     H 4320  10.472   0.946   2.991 -0.1894  1.4439  2.4245
   33MOL0     O 4321   6.094   7.881   0.296 -0.3125 -0.7809 -0.7276
   33MOL0     C 4322   6.114   7.767   0.254 -0.8120 -0.1612  0.2206
   33MOL0     O 4323   6.036   7.692   0.170  0.1573  0.4518 -0.5253
   33MOL0     C 4324   5.911   7.723   0.125 -0.0509 -0.6184 -0.5990
   33MOL0     C 4325   5.803   7.638   0.150 -0.7342  0.6604 -0.2374
   33MOL0     C 4326   5.668   7.680   0.130 -0.5023 -0.6933 -0.2027
   33MOL0     C 4327   5.641   7.799   0.067  0.0247 -0.3363  0.3622
   33MOL0     O 4328   5.515   7.851   0.044  0.8140 -0.3325  0.2757
   33MOL0     C 4329   5.423   7.845   0.155  0.5684  0.8284  0.5658
   33MOL0     C 4330   5.285   7.886   0.096  0.7281 -0.1670  0.3355
   33MOL0     C 4331   5.167   7.868   0.202 -0.3693  0.5306  0.1951
   33MOL0     C 4332   5.173   7.971   0.304  0.4723  0.0671  0.0362
   33MOL0     C 4333   5.118   7.927   0.441  0.3308 -0.0173  0.8166
   33MOL0     C 4334   4.987   7.841   0.430 -0.2425 -0.2683 -0.3794
   33MOL0     C 4335   4.915   7.856   0.552  0.8808  0.2522 -0.8024
   33MOL0     C 4336   4.849   7.991   0.581 -0.4389  0.3615  0.2788
   33MOL0     N 4337   4.788   7.969   0.716  0.4723  0.6502  0.5088
   33MOL0     C 4338   4.847   8.008   0.837 -0.3890 -0.4482  1.0283
   33MOL0     C 4339   4.765   7.964   0.936 -0.6957 -0.4995 -0.2084
   33MOL0     C 4340   4.775   7.975   1.087 -0.6692  0.3501  0.0363
   33MOL0     C 4341   4.887   7.877   1.140 -0.9799 -0.9557 -0.2636
   33MOL0     C 4342   4.849   7.722   1.122 -0.4533 -0.4891  0.9437
   33MOL0     C 4343   4.950   7.632   1.191 -0.4342 -0.3859 -0.6374
   33MOL0     O 4344   4.960   7.510   1.123 -0.0083 -0.6890  0.0710
   33MOL0     C 4345   5.048   7.415   1.191  0.4577 -0.6621 -0.4794
   33MOL0     C 4346   5.032   7.376   1.324 -0.2194  0.1590 -0.3549
   33MOL0     C 4347   5.124   7.300   1.398  0.1317 -0.4767  0.7619
   33MOL0     C 4348   5.100   7.284   1.549  0.3209 -0.1035 -0.0706
   33MOL0     C 4349   5.242   7.243   1.330  0.3848  0.3340 -0.6410
   33MOL0     C 4350   5.342   7.161   1.407 -0.4438 -0.6760  0.8705
   33MOL0     O 4351   5.475   7.203   1.402  0.3532  0.5405  0.2927
   33MOL0     C 4352   5.576   7.149   1.476 -0.6987  0.6670 -0.7839
   33MOL0     C 4353   5.577   7.020   1.542  0.4233  0.5286  0.3088
   33MOL0     C 4354   5.683   6.982   1.619 -0.4469 -0.6308 -0.4728
   33MOL0     C 4355   5.788   7.073   1.642  0.8169 -0.6784 -0.0219
   33MOL0     O 4356   5.898   7.047   1.724 -0.3322 -0.0076  0.2175
   33MOL0     C 4357   5.880   6.966   1.840 -0.2769  0.7257  0.0559
   33MOL0     C 4358   5.973   6.999   1.957 -0.8060  0.8809  0.3146
   33MOL0     C 4359   5.907   6.933   2.083  0.0617  0.1735  0.2059
   33MOL0     C 4360   6.010   6.913   2.188  0.2448  0.4064  0.4888
   33MOL0     C 4361   6.079   6.777   2.172 -0.4124 -0.2121 -0.0892
   33MOL0     C 4362   6.228   6.797   2.213  0.0523  0.7472  0.4459
   33MOL0     C 4363   6.233   6.813   2.368 -0.3601 -0.0996 -0.2068
   33MOL0     C 4364   6.374   6.837   2.432  0.1983 -0.5349  0.8905
   33MOL0    Cl 4365   6.470   6.691   2.398 -0.2181 -0.1093  0.3282
   33MOL0     C 4366   5.785   7.198   1.591 -0.2555 -0.8495  0.1791
   33MOL0     C 4367   5.681   7.230   1.508  0.4683 -0.1740 -1.1248
   33MOL0     O 4368   5.292   7.071   1.470  0.1429  0.4719  0.3780
   33MOL0     C 4369   5.264   7.288   1.202 -0.7675 -0.1460  0.1717
   33MOL0     C 4370   5.171   7.370   1.133 -0.2444  0.6472  0.4177
   33MOL0     N 4371   4.665   7.896   0.868  0.0213 -0.3650  0.3735
   33MOL0     N 4372   4.673   7.904   0.742  0.3755 -0.3380 -0.3106
   33MOL0     C 4373   5.751   7.872   0.019 -0.3614 -0.2833  1.1993
   33MOL0     C 4374   5.883   7.834   0.049  0.0122  0.4702  0.0631
   33MOL0     C 4375   6.231   7.702   0.323 -0.7348  0.1486  0.7020
   33MOL0     C 4376   6.324   7.621   0.254 -0.2361 -0.2370  0.3594
   33MOL0     C 4377   6.440   7.574   0.321  0.1568 -0.1363 -0.1402
   33MOL0     C 4378   6.457   7.598   0.456  0.6960 -0.4758  0.1808
   33MOL0     O 4379   6.560   7.562   0.538 -0.3545  0.3673  0.3749
   33MOL0     C 4380   6.684   7.524   0.466  0.9182  0.4801  0.2505
   33MOL0     C 4381   6.798   7.523   0.570  0.0637 -0.4301  0.0643
   33MOL0     C 4382   6.817   7.670   0.623 -0.0665  0.5215  0.7721
   33MOL0     C 4383   6.929   7.699   0.717  0.1088 -1.1081  0.6837
   33MOL0     C 4384   7.064   7.657   0.663 -0.9179  0.5025  0.2415
   33MOL0     C 4385   7.157   7.612   0.604  0.3636 -0.0700  0.0145
   33MOL0     C 4386   6.365   7.670   0.524  1.0755 -1.2241  0.0798
   33MOL0     C 4387   6.254   7.733   0.456 -0.1496  0.2777  0.6027
   33MOL0     H 4388   5.817   7.536   0.186 -1.2010  0.0125 -1.8361
   33MOL0     H 4389   5.586   7.614   0.159  0.5964 -2.2013 -0.3839
   33MOL0     H 4390   5.417   7.745   0.198 -1.4086  0.9067  0.5192
   33MOL0     H 4391   5.451   7.907   0.241  2.5697  0.1901  0.4280
   33MOL0     H 4392   5.277   7.990   0.064  1.6244 -0.4059 -0.7398
   33MOL0     H 4393   5.269   7.827   0.005 -2.2155  1.7537 -0.5058
   33MOL0     H 4394   5.066   7.891   0.167  0.3525  2.8634 -0.5563
   33MOL0     H 4395   5.174   7.768   0.245 -0.7017 -0.4236 -1.8356
   33MOL0     H 4396   5.274   8.002   0.332  0.7500  2.2084 -2.8462
   33MOL0     H 4397   5.129   8.065   0.271  1.2107  0.3602 -0.1295
   33MOL0     H 4398   5.195   7.860   0.481 -1.2955 -1.5909  1.4704
   33MOL0     H 4399   5.113   8.018   0.502  0.7564 -0.1524  1.0607
   33MOL0     H 4400   4.925   7.890   0.354  1.1050  0.5299 -1.0056
   33MOL0     H 4401   5.007   7.738   0.400  0.7996  0.0222 -0.7192
   33MOL0     H 4402   4.833   7.784   0.562  0.1324  1.3030  1.4643
   33MOL0     H 4403   4.981   7.833   0.636 -2.7709  1.2001  2.6556
   33MOL0     H 4404   4.791   8.023   0.493  1.9072  1.5553 -0.9360
   33MOL0     H 4405   4.929   8.064   0.593  3.6378 -3.6135 -0.0065
   33MOL0     H 4406   4.941   8.062   0.831 -2.0463  2.4752 -1.5631
   33MOL0     H 4407   4.791   8.081   1.109 -3.9675  1.3249 -1.5703
   33MOL0     H 4408   4.678   7.951   1.131 -1.5037  3.7912  0.3979
   33MOL0     H 4409   4.893   7.892   1.248  2.0811 -1.9737 -0.2055
   33MOL0     H 4410   4.982   7.905   1.093 -0.1615 -3.1457 -0.0344
   33MOL0     H 4411   4.841   7.726   1.013 -0.4344  2.7275  0.9662
   33MOL0     H 4412   4.753   7.683   1.158 -0.6983 -1.5085 -0.7101
   33MOL0     H 4413   4.917   7.630   1.295  0.0833 -3.5896 -0.4506
   33MOL0     H 4414   5.051   7.673   1.194 -0.1467 -0.7738 -2.9534
   33MOL0     H 4415   4.942   7.409   1.375 -0.7230 -3.4611  1.4286
   33MOL0     H 4416   5.066   7.374   1.602  0.5928 -0.2484  0.3481
   33MOL0     H 4417   5.034   7.199   1.569  2.5441 -1.4945  1.8887
   33MOL0     H 4418   5.194   7.260   1.599 -1.4065 -2.3001  2.4142
   33MOL0     H 4419   5.496   6.949   1.530 -0.8344  1.4084  2.9420
   33MOL0     H 4420   5.693   6.889   1.674 -1.8260 -0.8508 -0.5669
   33MOL0     H 4421   5.778   6.984   1.874 -1.5108  1.1729 -3.4394
   33MOL0     H 4422   5.889   6.859   1.817 -0.5993  0.5299  0.8043
   33MOL0     H 4423   6.074   6.959   1.944 -1.0790  0.5581 -0.8755
   33MOL0     H 4424   5.993   7.106   1.970  3.6372 -0.0004  2.8777
   33MOL0     H 4425   5.867   6.833   2.063  2.3378 -0.6626 -0.4476
   33MOL0     H 4426   5.818   6.993   2.108 -0.2254  0.5780 -1.5860
   33MOL0     H 4427   6.080   6.996   2.175  0.2943  0.2161 -0.4885
   33MOL0     H 4428   5.963   6.912   2.287 -4.2010 -0.0194 -1.3859
   33MOL0     H 4429   6.077   6.744   2.068 -3.3229 -1.5884  0.3176
   33MOL0     H 4430   6.028   6.696   2.226  1.3449 -1.3582 -0.0639
   33MOL0     H 4431   6.282   6.704   2.196  0.6631  1.1463  0.1618
   33MOL0     H 4432   6.266   6.883   2.157 -1.3094  0.6051 -0.7554
   33MOL0     H 4433   6.201   6.724   2.423  3.5534  0.1961  3.1136
   33MOL0     H 4434   6.175   6.901   2.396  0.8701  1.1021 -1.3016
   33MOL0     H 4435   6.373   6.851   2.540  0.3267 -1.1120  0.9705
   33MOL0     H 4436   6.422   6.929   2.396  1.4460 -1.8678 -1.0308
   33MOL0     H 4437   5.866   7.266   1.614 -0.3286 -0.8649  0.4825
   33MOL0     H 4438   5.675   7.333   1.474 -0.4702  0.4488  0.8369
   33MOL0     H 4439   5.360   7.269   1.156  1.2652  0.3078  3.8735
   33MOL0     H 4440   5.193   7.419   1.039  1.3005  1.9811  1.4348
   33MOL0     H 4441   5.739   7.964  -0.037  0.6695 -1.0946 -0.4588
   33MOL0     H 4442   5.969   7.899   0.035  0.9048 -1.1033 -2.5918
   33MOL0     H 4443   6.306   7.612   0.147 -0.1718  4.3810 -0.2726
   33MOL0     H 4444   6.522   7.528   0.266  2.1440  0.3321  2.2502
   33MOL0     H 4445   6.670   7.427   0.416  2.2318  0.1320  0.5415
   33MOL0     H 4446   6.703   7.604   0.394 -2.2722 -0.6168 -2.0631
   33MOL0     H 4447   6.893   7.507   0.518  0.1464 -0.5167  0.2389
   33MOL0     H 4448   6.772   7.449   0.646  0.6285 -0.6066  0.0857
   33MOL0     H 4449   6.724   7.706   0.668  0.0221  1.8436 -0.0255
   33MOL0     H 4450   6.836   7.738   0.539 -2.7870  0.5704  0.0825
   33MOL0     H 4451   6.898   7.658   0.813 -1.5570  0.1447  0.7375
   33MOL0     H 4452   6.928   7.808   0.727 -1.8270 -1.2382  2.5945
   33MOL0     H 4453   7.241   7.570   0.551 -2.0237 -1.2014 -3.2107
   33MOL0     H 4454   6.383   7.689   0.629 -1.7983  0.0426  0.4154
   33MOL0     H 4455   6.194   7.799   0.517  1.1637 -0.1210  2.4009
   34MOL0     O 4456   2.422   8.709   7.311  0.6502  0.1390  0.0337
   34MOL0     C 4457   2.325   8.631   7.315 -0.0320  0.5146  0.4520
   34MOL0     O 4458   2.198   8.657   7.352 -0.1049 -0.5516  1.0669
   34MOL0     C 4459   2.151   8.776   7.393 -0.0548  0.8369 -1.4582
   34MOL0     C 4460   2.214   8.902   7.412  0.7973 -0.9842  0.1874
   34MOL0     C 4461   2.148   9.021   7.443  0.6368 -0.2979  0.2111
   34MOL0     C 4462   2.008   9.021   7.476 -0.9866 -0.2409  0.8182
   34MOL0     O 4463   1.949   9.137   7.507 -0.0976  0.1102 -0.8490
   34MOL0     C 4464   1.802   9.149   7.525 -0.5775  0.0320 -0.0243
   34MOL0     C 4465   1.720   9.142   7.409 -0.4347  0.5520  0.3367
   34MOL0     C 4466   1.710   9.260   7.313 -0.5954 -0.1485  0.7923
   34MOL0     C 4467   1.655   9.394   7.376  0.2949  1.1537  0.3690
   34MOL0     C 4468   1.658   9.506   7.273 -0.6667  0.0295  1.3771
   34MOL0     C 4469   1.588   9.627   7.316 -1.2461  0.0275 -0.3042
   34MOL0     C 4470   1.443   9.625   7.280  0.8137  0.3931  0.0318
   34MOL0     C 4471   1.399   9.638   7.138 -0.3781 -0.5517 -0.8136
   34MOL0     N 4472   1.317   9.759   7.123 -0.4494  0.5636 -1.1056
   34MOL0     C 4473   1.188   9.773   7.145 -0.3372 -0.0999 -0.0131
   34MOL0     C 4474   1.162   9.906   7.140  0.0066 -0.3549 -1.0408
   34MOL0     C 4475   1.033   9.983   7.176 -0.3860 -0.3367 -0.0050
   34MOL0     C 4476   1.058  10.126   7.197  1.2017  0.9428 -0.3176
   34MOL0     C 4477   0.930  10.212   7.216 -0.0478  0.4402  0.4309
   34MOL0     C 4478   0.985  10.343   7.273  0.2467  0.6389 -0.9687
   34MOL0     O 4479   0.990  10.343   7.419  0.1013  0.7848  0.4888
   34MOL0     C 4480   0.946  10.460   7.476 -0.2704  0.8163  0.4234
   34MOL0     C 4481   0.816  10.494   7.459 -0.2496 -0.0184 -1.7000
   34MOL0     C 4482   0.769  10.625   7.508  0.4514 -0.1020 -0.1471
   34MOL0     C 4483   0.619  10.641   7.527 -0.2665  0.2398 -0.6314
   34MOL0     C 4484   0.863  10.713   7.569 -0.5423 -0.4411 -0.2662
   34MOL0     C 4485   0.822  10.836   7.635 -0.3813 -1.1674 -0.1379
   34MOL0     O 4486   0.917  10.933   7.631 -0.4118  0.2563 -1.0406
   34MOL0     C 4487   0.876  11.058   7.677  0.8698  0.3982  1.1480
   34MOL0     C 4488   0.932  11.096   7.799  0.3755  0.9090  0.3680
   34MOL0     C 4489   0.899  11.224   7.843 -0.3654  0.1680 -0.5979
   34MOL0     C 4490   0.801  11.305   7.775 -0.0092  0.6484  0.2691
   34MOL0     O 4491   0.775  11.426   7.847 -0.5242  0.8836  0.6042
   34MOL0     C 4492   0.636  11.469   7.859 -0.1946 -0.6126 -0.5187
   34MOL0     C 4493   0.590  11.491   8.002  0.0411 -0.2750 -1.2699
   34MOL0     C 4494   0.435  11.519   8.000 -1.0823 -0.9626 -0.5754
   34MOL0     C 4495   0.395  11.630   8.102 -0.7956  1.1400 -0.1191
   34MOL0     C 4496   0.243  11.643   8.095  0.0995  0.6345  0.4341
   34MOL0     C 4497   0.195  11.739   8.202  0.5279  0.5627  0.0045
   34MOL0     C 4498   0.115  11.842   8.141 -0.4620  1.1125  0.0545
   34MOL0     C 4499   0.073  11.944   8.243  0.2542  0.0592 -0.0872
   34MOL0    Cl 4500  -0.033  11.884   8.373 -0.2635 -0.0271  0.2857
   34MOL0     C 4501   0.757  11.270   7.648 -0.2077 -0.0292  0.9626
   34MOL0     C 4502   0.790  11.140   7.600  0.8382 -0.0655  0.6386
   34MOL0     O 4503   0.731  10.830   7.722  0.8203 -0.3488 -0.1911
   34MOL0     C 4504   0.996  10.668   7.588 -0.6877 -0.5993 -0.0139
   34MOL0     C 4505   1.037  10.549   7.533  0.0489 -0.1323  0.2678
   34MOL0     N 4506   1.281   9.973   7.116  0.1094  0.3667 -0.5166
   34MOL0     N 4507   1.364   9.875   7.094  0.1960 -0.3191 -0.5134
   34MOL0     C 4508   1.942   8.897   7.457  0.7350 -0.8079  0.4673
   34MOL0     C 4509   2.012   8.778   7.412 -0.9162  0.2850  0.3526
   34MOL0     C 4510   2.352   8.484   7.283 -0.1144 -0.2086  0.3810
   34MOL0     C 4511   2.242   8.389   7.267 -0.1875  0.0596  0.8578
   34MOL0     C 4512   2.275   8.253   7.235  0.6206 -0.7732  0.3858
   34MOL0     C 4513   2.410   8.215   7.216 -0.2021 -0.6927  0.5450
   34MOL0     O 4514   2.456   8.084   7.166  0.0121  0.2854  0.0331
   34MOL0     C 4515   2.366   8.035   7.068  0.6857 -0.5289  0.1379
   34MOL0     C 4516   2.417   7.928   6.978 -0.8096  0.5306  0.6034
   34MOL0     C 4517   2.333   7.910   6.852  0.5710  0.6060 -0.7164
   34MOL0     C 4518   2.405   7.831   6.742 -0.0428 -0.2726 -0.2637
   34MOL0     C 4519   2.520   7.905   6.689  0.5163 -0.2274  0.1111
   34MOL0     C 4520   2.601   7.963   6.644 -0.2235 -0.2274 -0.8692
   34MOL0     C 4521   2.511   8.310   7.247 -0.4258 -0.4958 -0.4665
   34MOL0     C 4522   2.484   8.441   7.273  0.2336 -0.1518 -1.0157
   34MOL0     H 4523   2.322   8.903   7.403  0.6681 -2.5922 -3.8449
   34MOL0     H 4524   2.202   9.114   7.457  0.9473 -0.3030 -0.8638
   34MOL0     H 4525   1.767   9.070   7.592  0.0490  0.3340  0.6715
   34MOL0     H 4526   1.787   9.240   7.584 -0.0007 -0.4386  0.8658
   34MOL0     H 4527   1.747   9.053   7.352  1.5686  2.5710 -2.0972
   34MOL0     H 4528   1.618   9.126   7.445 -0.0958 -0.5879  0.8303
   34MOL0     H 4529   1.812   9.276   7.278 -0.5683  1.3392  1.4895
   34MOL0     H 4530   1.658   9.234   7.221 -0.1261  0.4362  0.3536
   34MOL0     H 4531   1.554   9.375   7.414  0.0564  0.9046 -0.3743
   34MOL0     H 4532   1.712   9.414   7.467  0.2376 -2.1149  1.2504
   34MOL0     H 4533   1.759   9.536   7.242 -1.7921  0.6886 -2.0846
   34MOL0     H 4534   1.608   9.464   7.185  0.4446  2.6632 -0.6746
   34MOL0     H 4535   1.595   9.638   7.424 -0.4085  2.5696 -0.5489
   34MOL0     H 4536   1.644   9.712   7.276  1.1184 -1.4317 -0.3257
   34MOL0     H 4537   1.413   9.522   7.303  1.5011 -1.0164 -4.4003
   34MOL0     H 4538   1.403   9.710   7.335  2.2858 -0.0542  1.9226
   34MOL0     H 4539   1.343   9.550   7.106  1.4113 -1.2281 -2.2776
   34MOL0     H 4540   1.486   9.647   7.071  1.7371  0.3187  1.8614
   34MOL0     H 4541   1.119   9.692   7.167  0.4249  0.2102  4.4353
   34MOL0     H 4542   0.971   9.973   7.087 -0.4908  0.5301 -0.0403
   34MOL0     H 4543   0.977   9.937   7.258 -1.0435  2.3086  1.1446
   34MOL0     H 4544   1.122  10.155   7.112  1.7287 -2.5304 -1.2375
   34MOL0     H 4545   1.100  10.130   7.298 -0.4872  0.1776  0.4624
   34MOL0     H 4546   0.847  10.172   7.275 -1.3220 -1.5085 -2.4271
   34MOL0     H 4547   0.897  10.216   7.111  1.8979 -2.1384 -0.3713
   34MOL0     H 4548   0.919  10.425   7.242 -2.1502 -0.1279  1.6399
   34MOL0     H 4549   1.082  10.360   7.226 -0.5343  0.7714 -2.6271
   34MOL0     H 4550   0.762  10.411   7.414 -0.6002 -0.5955 -0.2759
   34MOL0     H 4551   0.590  10.743   7.556  1.8418  1.2135 -1.7332
   34MOL0     H 4552   0.575  10.617   7.430 -0.9593 -0.1270 -0.2390
   34MOL0     H 4553   0.595  10.562   7.599 -1.6320  0.5404 -0.7167
   34MOL0     H 4554   1.006  11.034   7.848  2.5364  3.3775  0.4347
   34MOL0     H 4555   0.932  11.260   7.940 -2.4133 -1.1884  0.6580
   34MOL0     H 4556   0.622  11.563   7.805  2.1384  0.5375  0.7176
   34MOL0     H 4557   0.572  11.395   7.810 -0.1178  0.2817 -2.0336
   34MOL0     H 4558   0.616  11.401   8.058  0.6509  1.8189  2.1117
   34MOL0     H 4559   0.636  11.579   8.046 -0.6469 -2.1904  4.0072
   34MOL0     H 4560   0.395  11.423   8.032 -1.7635 -0.7933 -0.9055
   34MOL0     H 4561   0.413  11.537   7.894  0.4060 -2.7659 -1.2588
   34MOL0     H 4562   0.422  11.599   8.204 -3.9762  2.5456  1.2738
   34MOL0     H 4563   0.452  11.720   8.078  1.7265  0.5173  2.8416
   34MOL0     H 4564   0.194  11.546   8.102  2.6196 -0.7274  0.5126
   34MOL0     H 4565   0.221  11.682   7.995 -1.6885  0.0357  0.5645
   34MOL0     H 4566   0.132  11.677   8.265  3.6997  0.1856  3.1052
   34MOL0     H 4567   0.273  11.777   8.269  1.8510 -1.2917 -0.4199
   34MOL0     H 4568   0.026  11.795   8.098 -0.0001 -0.4504  0.7389
   34MOL0     H 4569   0.162  11.896   8.059  1.4047 -1.4271 -0.6648
   34MOL0     H 4570   0.026  12.031   8.197  1.1388 -0.9413 -3.1160
   34MOL0     H 4571   0.167  11.982   8.284 -1.0426  3.6695 -0.1570
   34MOL0     H 4572   0.694  11.328   7.581 -1.1846 -1.6577  0.4163
   34MOL0     H 4573   0.733  11.114   7.512 -0.9950  4.3413  0.2432
   34MOL0     H 4574   1.067  10.743   7.624 -0.9349 -0.7514  0.8282
   34MOL0     H 4575   1.141  10.520   7.524  0.5267  1.2471  1.1229
   34MOL0     H 4576   1.840   8.873   7.484 -0.2152  1.8220 -0.4055
   34MOL0     H 4577   1.970   8.679   7.401  0.7450 -0.4061 -0.1449
   34MOL0     H 4578   2.139   8.408   7.296  0.5935  2.7166  2.1712
   34MOL0     H 4579   2.194   8.186   7.210 -0.4910  0.7572 -0.3004
   34MOL0     H 4580   2.274   7.996   7.110 -0.5829 -0.1319 -2.1341
   34MOL0     H 4581   2.349   8.117   6.996 -1.3215  0.1309  1.2927
   34MOL0     H 4582   2.430   7.836   7.036  0.8665 -2.3224 -3.8023
   34MOL0     H 4583   2.521   7.949   6.950 -1.0274  0.5041 -0.2456
   34MOL0     H 4584   2.318   8.014   6.823  0.2886  1.1968  1.3931
   34MOL0     H 4585   2.235   7.863   6.869 -0.6488  1.8834 -3.5631
   34MOL0     H 4586   2.339   7.817   6.656 -1.4806  0.2136  0.7143
   34MOL0     H 4587   2.437   7.737   6.788  2.9823  0.8531  0.1669
   34MOL0     H 4588   2.689   8.008   6.601 -2.1500  3.5565 -1.2869
   34MOL0     H 4589   2.614   8.274   7.241 -1.0171 -2.3540 -0.1714
   34MOL0     H 4590   2.563   8.511   7.294  0.0641 -0.6350  1.5702
   35MOL0     O 4591   7.679   3.438   9.876  0.3356 -0.1409 -0.1364
   35MOL0     C 4592   7.599   3.464   9.792  0.0750 -0.1166  0.4679
   35MOL0     O 4593   7.548   3.591   9.765 -0.0396 -1.4050 -0.6356
   35MOL0     C 4594   7.585   3.694   9.847  0.4727  0.1686  0.9317
   35MOL0     C 4595   7.564   3.694   9.985  0.4998  0.4780  0.1955
   35MOL0     C 4596   7.602   3.801  10.065  0.1390 -0.3300  0.7690
   35MOL0     C 4597   7.691   3.896  10.008 -0.3385  0.6716  0.2560
   35MOL0     O 4598   7.742   4.014  10.076  0.5124 -0.2727  0.1021
   35MOL0     C 4599   7.810   4.000  10.204 -0.2943  0.2921 -0.1169
   35MOL0     C 4600   7.935   3.910  10.164  0.1558 -0.3894  0.1067
   35MOL0     C 4601   8.029   3.981  10.061  0.2002  0.1464 -0.4227
   35MOL0     C 4602   8.138   4.071  10.126  0.0541 -1.0457 -0.1257
   35MOL0     C 4603   8.241   3.990  10.201  0.8603  0.0545 -0.7947
   35MOL0     C 4604   8.340   4.086  10.263 -0.9917 -0.9356 -0.7887
   35MOL0     C 4605   8.289   4.159  10.384 -0.0774 -0.1976  0.1122
   35MOL0     C 4606   8.413   4.216  10.466  0.2386 -0.0220 -0.6298
   35MOL0     N 4607   8.364   4.309  10.572 -0.2843  0.2899  0.7229
   35MOL0     C 4608   8.263   4.406  10.560 -0.7389  0.2896  0.2995
   35MOL0     C 4609   8.255   4.463  10.679  0.2412  0.1640 -0.5583
   35MOL0     C 4610   8.167   4.584  10.710 -0.5824 -0.5022 -0.5592
   35MOL0     C 4611   8.021   4.551  10.751 -0.0915 -0.2961 -0.2261
   35MOL0     C 4612   7.960   4.454  10.655 -0.4341 -0.2303 -0.0018
   35MOL0     C 4613   7.807   4.453  10.666 -0.8519  0.4099  0.1364
   35MOL0     O 4614   7.772   4.332  10.600 -1.0218 -0.2106  0.9370
   35MOL0     C 4615   7.665   4.332  10.514 -1.1084  0.5472  0.4475
   35MOL0     C 4616   7.638   4.203  10.462  0.4665 -0.3837 -0.1312
   35MOL0     C 4617   7.524   4.169  10.392 -0.1640 -0.8940 -0.4762
   35MOL0     C 4618   7.483   4.019  10.366 -0.4344 -0.1252 -0.1974
   35MOL0     C 4619   7.437   4.273  10.358 -0.5776  0.6572  0.5339
   35MOL0     C 4620   7.303   4.269  10.290 -0.0339 -0.2288 -1.1825
   35MOL0     O 4621   7.265   4.383  10.218  0.4706  0.3108  0.0508
   35MOL0     C 4622   7.166   4.369  10.125  0.0462 -0.0273 -0.2635
   35MOL0     C 4623   7.203   4.291  10.008  0.2871 -0.0929 -0.1109
   35MOL0     C 4624   7.100   4.263   9.915 -0.1327  0.3751  0.6738
   35MOL0     C 4625   6.966   4.288   9.946  0.3666  0.6478  0.1861
   35MOL0     O 4626   6.862   4.257   9.859 -0.0598  0.3256 -0.3304
   35MOL0     C 4627   6.888   4.269   9.720  0.3473  0.9116  1.0807
   35MOL0     C 4628   6.754   4.281   9.642  0.7104  0.2497  0.8253
   35MOL0     C 4629   6.786   4.256   9.497 -0.4942  0.4258  0.6056
   35MOL0     C 4630   6.652   4.267   9.420  0.4109 -0.4209 -0.0492
   35MOL0     C 4631   6.673   4.252   9.273  0.6178 -0.6409  0.2749
   35MOL0     C 4632   6.541   4.259   9.196  1.5592  0.9638 -0.0661
   35MOL0     C 4633   6.477   4.395   9.172 -0.7061 -0.4369 -0.8070
   35MOL0     C 4634   6.546   4.478   9.065  0.2907  0.2789 -0.2975
   35MOL0    Cl 4635   6.528   4.403   8.901  0.3811 -0.0226  0.1179
   35MOL0     C 4636   6.939   4.356  10.062 -0.6654  0.4762  0.1394
   35MOL0     C 4637   7.035   4.404  10.145 -1.2497  0.7743 -0.8814
   35MOL0     O 4638   7.241   4.163  10.289  0.0915 -0.4631 -0.1357
   35MOL0     C 4639   7.457   4.403  10.416  0.2024  0.4426 -0.2638
   35MOL0     C 4640   7.567   4.430  10.488  0.1931 -0.4040  0.0536
   35MOL0     N 4641   8.361   4.413  10.756  0.3790 -0.0494  1.4622
   35MOL0     N 4642   8.409   4.312  10.696 -0.5474 -0.6593 -0.8075
   35MOL0     C 4643   7.713   3.891   9.872 -0.5688  0.4602  0.0575
   35MOL0     C 4644   7.657   3.793   9.793  0.0085 -0.3927  0.5306
   35MOL0     C 4645   7.561   3.358   9.700  0.3321 -0.3652  0.4001
   35MOL0     C 4646   7.629   3.232   9.714 -0.3254 -0.3866 -0.1741
   35MOL0     C 4647   7.613   3.120   9.634 -0.1178 -0.0551 -1.1579
   35MOL0     C 4648   7.520   3.135   9.534 -0.0672  0.1929  0.4996
   35MOL0     O 4649   7.514   3.028   9.443 -0.3313 -0.3523 -0.8136
   35MOL0     C 4650   7.441   3.047   9.325 -0.0671  0.0322  0.3810
   35MOL0     C 4651   7.490   2.945   9.223 -0.2122  0.2170 -0.2207
   35MOL0     C 4652   7.632   2.982   9.177  0.3789  0.6296  0.3458
   35MOL0     C 4653   7.672   2.907   9.053 -1.1172  0.1165 -0.1020
   35MOL0     C 4654   7.678   2.769   9.087  0.3388  0.5846  0.1652
   35MOL0     C 4655   7.671   2.645   9.105 -0.1756 -0.3112 -0.5642
   35MOL0     C 4656   7.445   3.254   9.517  0.5923 -0.2749 -0.6742
   35MOL0     C 4657   7.465   3.366   9.599  0.6780  0.0775 -0.4663
   35MOL0     H 4658   7.532   3.601  10.030  2.2588  0.0853  0.7387
   35MOL0     H 4659   7.577   3.785  10.170  0.0002  0.9490  0.9588
   35MOL0     H 4660   7.832   4.095  10.255  1.2574  0.2932 -0.7284
   35MOL0     H 4661   7.737   3.948  10.266 -0.3434  1.3702  0.7692
   35MOL0     H 4662   7.989   3.887  10.257  0.2298  0.9990  0.4242
   35MOL0     H 4663   7.902   3.816  10.118  1.9554 -0.4825 -1.1112
   35MOL0     H 4664   8.076   3.898  10.007  1.2819  1.6439 -1.8841
   35MOL0     H 4665   7.965   4.028   9.985 -1.4321 -0.4364  0.5316
   35MOL0     H 4666   8.198   4.116  10.046  0.8051 -2.7738 -0.6038
   35MOL0     H 4667   8.095   4.148  10.189  1.1027 -0.4532 -0.1073
   35MOL0     H 4668   8.202   3.931  10.285  1.1918 -1.3402 -1.5948
   35MOL0     H 4669   8.293   3.921  10.134  2.5875  0.1255  0.4066
   35MOL0     H 4670   8.430   4.037  10.301 -0.2469 -0.9909 -2.5238
   35MOL0     H 4671   8.378   4.163  10.195  1.6941 -1.5487 -0.1097
   35MOL0     H 4672   8.238   4.250  10.352  4.3110  3.4037  2.2406
   35MOL0     H 4673   8.220   4.095  10.439  1.5305 -2.7954 -0.6818
   35MOL0     H 4674   8.486   4.264  10.400 -0.4599  0.2301 -1.2347
   35MOL0     H 4675   8.469   4.136  10.515 -1.3402  0.2027  1.6821
   35MOL0     H 4676   8.204   4.428  10.472  0.2214 -3.1330 -1.3815
   35MOL0     H 4677   8.224   4.635  10.788 -3.2598  1.6258  0.1409
   35MOL0     H 4678   8.165   4.652  10.624  0.8307 -0.6606 -0.7510
   35MOL0     H 4679   7.961   4.642  10.758  0.2225 -0.0460 -0.7390
   35MOL0     H 4680   8.037   4.503  10.848  1.3058 -0.2277 -0.3934
   35MOL0     H 4681   8.006   4.355  10.668  1.1258  0.4350 -0.3524
   35MOL0     H 4682   7.988   4.485  10.555  0.5171 -0.4310  0.1972
   35MOL0     H 4683   7.751   4.541  10.634 -5.0753 -1.2601  2.0407
   35MOL0     H 4684   7.769   4.459  10.769  0.1384  0.0260  0.5370
   35MOL0     H 4685   7.702   4.118  10.483 -1.1701 -1.1083  2.3341
   35MOL0     H 4686   7.473   3.994  10.259 -1.2207 -2.6406  0.3923
   35MOL0     H 4687   7.533   3.935  10.414 -1.8569 -0.7144  0.2927
   35MOL0     H 4688   7.384   4.005  10.411 -0.5276  1.8271  0.2743
   35MOL0     H 4689   7.303   4.256   9.985 -0.0395 -0.3948 -1.0970
   35MOL0     H 4690   7.119   4.195   9.833 -3.1734  0.2855 -0.0914
   35MOL0     H 4691   6.957   4.351   9.697  0.6254  0.3879  0.0255
   35MOL0     H 4692   6.934   4.173   9.697  0.3985  1.2101 -0.0840
   35MOL0     H 4693   6.675   4.213   9.675 -1.3295  2.5363  0.9685
   35MOL0     H 4694   6.719   4.384   9.652  3.6972  1.2448  2.2460
   35MOL0     H 4695   6.824   4.154   9.491 -2.5663 -0.5870  2.7964
   35MOL0     H 4696   6.862   4.324   9.457 -0.7160 -1.1301 -2.7213
   35MOL0     H 4697   6.590   4.191   9.468  0.1407 -0.4330 -0.4216
   35MOL0     H 4698   6.616   4.370   9.420  3.7757  0.8923 -1.2140
   35MOL0     H 4699   6.712   4.150   9.261 -0.6961 -1.1200 -0.1420
   35MOL0     H 4700   6.732   4.331   9.227 -3.0949  1.6134 -1.1061
   35MOL0     H 4701   6.562   4.216   9.098  1.8349 -0.0230  0.4038
   35MOL0     H 4702   6.462   4.204   9.249 -1.8104  3.7025 -1.8750
   35MOL0     H 4703   6.491   4.459   9.259  2.1280 -2.1306  0.1163
   35MOL0     H 4704   6.375   4.389   9.132 -1.0814  1.5513 -0.2464
   35MOL0     H 4705   6.654   4.487   9.072  0.2830 -0.6243  1.2676
   35MOL0     H 4706   6.503   4.579   9.067  2.2065  1.2363 -2.3492
   35MOL0     H 4707   6.833   4.359  10.082 -0.5815 -1.2781  1.0602
   35MOL0     H 4708   7.009   4.464  10.232 -0.4197  0.4131 -0.3624
   35MOL0     H 4709   7.382   4.481  10.418 -1.0703 -0.7152 -1.4391
   35MOL0     H 4710   7.595   4.534  10.501  0.4173 -0.7733  3.7676
   35MOL0     H 4711   7.773   3.975   9.837 -0.8806  1.8128  2.5302
   35MOL0     H 4712   7.672   3.807   9.687 -1.1277 -1.2769  0.2318
   35MOL0     H 4713   7.711   3.234   9.785 -0.1040 -0.3157 -0.4331
   35MOL0     H 4714   7.685   3.040   9.646 -0.7337 -0.2485  2.2427
   35MOL0     H 4715   7.340   3.015   9.353  0.4269 -1.1698  0.8240
   35MOL0     H 4716   7.443   3.147   9.281  3.6411  0.3224  0.9455
   35MOL0     H 4717   7.426   2.954   9.135 -0.4210 -2.5351 -0.4411
   35MOL0     H 4718   7.487   2.847   9.272  3.8256 -0.0049 -0.0993
   35MOL0     H 4719   7.710   2.969   9.253  1.7335  0.0758 -1.0888
   35MOL0     H 4720   7.633   3.088   9.150  0.3768  0.7976  0.9851
   35MOL0     H 4721   7.774   2.934   9.025  0.7161 -4.7674  0.9873
   35MOL0     H 4722   7.607   2.911   8.965  4.3691  0.4311 -4.7198
   35MOL0     H 4723   7.654   2.539   9.110  0.8268 -0.6378 -2.9446
   35MOL0     H 4724   7.368   3.270   9.443  1.2606  2.7886 -0.8407
   35MOL0     H 4725   7.398   3.450   9.587  0.5107 -0.2483 -1.9833
   36MOL0     O 4726   4.293   6.083   1.397 -0.4912  0.1262  0.3745
   36MOL0     C 4727   4.190   6.152   1.364 -0.0833  0.7297 -0.0212
   36MOL0     O 4728   4.084   6.105   1.296  0.4114  1.1170 -0.3415
   36MOL0     C 4729   4.088   5.966   1.263  0.3076 -0.1984 -0.7109
   36MOL0     C 4730   4.085   5.863   1.360  0.8268  0.1707  0.6688
   36MOL0     C 4731   4.093   5.726   1.328  0.0499 -0.4404 -0.4669
   36MOL0     C 4732   4.112   5.691   1.188  0.6678  0.5871 -0.2738
   36MOL0     O 4733   4.126   5.559   1.144  0.6297 -0.0837  0.7811
   36MOL0     C 4734   4.224   5.475   1.210  0.1921 -0.3619  0.1932
   36MOL0     C 4735   4.223   5.338   1.138 -0.7010  0.7830  0.8252
   36MOL0     C 4736   4.245   5.346   0.982 -0.4242 -0.9143 -0.3946
   36MOL0     C 4737   4.131   5.276   0.908 -0.3181 -0.7956 -0.6414
   36MOL0     C 4738   4.154   5.287   0.760 -0.1878  0.7076  0.0156
   36MOL0     C 4739   4.029   5.251   0.669 -0.7281  0.4134  0.2465
   36MOL0     C 4740   4.068   5.214   0.522 -0.1406 -0.0717 -0.2520
   36MOL0     C 4741   3.959   5.137   0.449 -0.0435 -0.2154  0.3900
   36MOL0     N 4742   3.973   5.146   0.300  0.5246  0.3386 -0.0883
   36MOL0     C 4743   3.915   5.247   0.223 -0.7712  1.0065 -0.2345
   36MOL0     C 4744   3.931   5.210   0.085 -1.0426 -0.3716 -1.4536
   36MOL0     C 4745   3.859   5.283  -0.019  0.0148 -0.2196 -0.5767
   36MOL0     C 4746   3.705   5.268  -0.003  0.3346  0.2764  0.3844
   36MOL0     C 4747   3.620   5.291  -0.130  0.6726 -0.0178  0.1541
   36MOL0     C 4748   3.476   5.242  -0.110 -0.0637  0.2959 -0.2868
   36MOL0     O 4749   3.413   5.253  -0.239  0.4479 -0.0697  0.4780
   36MOL0     C 4750   3.357   5.145  -0.315 -0.4778  0.4929 -0.4311
   36MOL0     C 4751   3.283   5.178  -0.425  0.5647  0.7348 -0.9350
   36MOL0     C 4752   3.215   5.081  -0.501  1.4056  0.2666  0.5747
   36MOL0     C 4753   3.150   5.123  -0.627  1.1776  0.1374  0.6128
   36MOL0     C 4754   3.240   4.945  -0.477 -1.0114 -0.4643 -0.3742
   36MOL0     C 4755   3.168   4.832  -0.536  0.7779  0.4341 -1.1692
   36MOL0     O 4756   3.235   4.707  -0.542  0.0757 -0.1610 -0.9818
   36MOL0     C 4757   3.161   4.604  -0.594 -1.0608  0.4769  0.4025
   36MOL0     C 4758   3.137   4.497  -0.506  0.4404  0.2065  0.4433
   36MOL0     C 4759   3.093   4.380  -0.561  0.2602  1.3148 -0.1398
   36MOL0     C 4760   3.069   4.361  -0.697  0.3097 -0.3682  0.7106
   36MOL0     O 4761   3.033   4.233  -0.740 -0.3525  0.5717  0.1967
   36MOL0     C 4762   3.056   4.198  -0.878 -0.8755  0.3176  0.0021
   36MOL0     C 4763   2.981   4.069  -0.913  0.5583  0.0136  0.2327
   36MOL0     C 4764   3.003   4.023  -1.063  0.2704  0.0458 -1.1199
   36MOL0     C 4765   2.868   3.956  -1.114  0.3102  0.4743  0.6274
   36MOL0     C 4766   2.881   3.901  -1.257  0.5236 -0.0520 -0.0023
   36MOL0     C 4767   2.890   4.003  -1.370 -1.2615 -0.2586 -0.2232
   36MOL0     C 4768   2.930   3.949  -1.508 -0.4316  0.9319 -0.0685
   36MOL0     C 4769   2.856   4.033  -1.617 -0.7019  0.8393 -1.2790
   36MOL0    Cl 4770   2.876   4.207  -1.596 -0.0021 -0.4258 -0.5148
   36MOL0     C 4771   3.102   4.475  -0.790  0.6175  0.3198 -0.6486
   36MOL0     C 4772   3.153   4.594  -0.732  0.6621  0.2633 -0.1690
   36MOL0     O 4773   3.049   4.847  -0.565 -0.5636 -0.0764 -0.3911
   36MOL0     C 4774   3.334   4.909  -0.377 -0.0975  0.0091 -0.6017
   36MOL0     C 4775   3.385   5.009  -0.296 -1.0144 -0.4370 -0.4021
   36MOL0     N 4776   3.996   5.084   0.096 -0.0472 -0.3617 -0.3533
   36MOL0     N 4777   4.012   5.049   0.218  0.6607  0.0708  0.5132
   36MOL0     C 4778   4.101   5.795   1.100 -0.6516 -0.0663 -0.4386
   36MOL0     C 4779   4.083   5.928   1.133  0.4896  0.7483 -0.3736
   36MOL0     C 4780   4.185   6.283   1.423  0.4805 -0.2817 -0.0378
   36MOL0     C 4781   4.126   6.388   1.357  0.3267  0.0662  0.1286
   36MOL0     C 4782   4.140   6.513   1.416 -0.6898  0.6411  0.2093
   36MOL0     C 4783   4.210   6.534   1.540 -0.9726 -0.5042  0.1633
   36MOL0     O 4784   4.233   6.652   1.594 -0.3095 -0.3069  0.2097
   36MOL0     C 4785   4.174   6.770   1.535 -0.1006  0.3516  1.2009
   36MOL0     C 4786   4.264   6.823   1.424  0.0200 -0.3548 -0.3323
   36MOL0     C 4787   4.195   6.888   1.304  0.0447 -0.6337 -0.2653
   36MOL0     C 4788   4.257   7.022   1.284 -0.1669  0.1622 -0.4113
   36MOL0     C 4789   4.219   7.088   1.150  0.2311 -0.6811 -1.0119
   36MOL0     C 4790   4.166   7.131   1.053  0.1976 -0.5895  0.3153
   36MOL0     C 4791   4.250   6.424   1.614 -0.4315 -0.0504 -0.4196
   36MOL0     C 4792   4.241   6.294   1.555 -0.6679 -0.0198  0.5718
   36MOL0     H 4793   4.068   5.898   1.461  3.4186 -1.9836  1.9933
   36MOL0     H 4794   4.082   5.656   1.411 -3.4395 -0.4152 -0.7688
   36MOL0     H 4795   4.323   5.523   1.208  0.6945 -1.3282  0.7536
   36MOL0     H 4796   4.196   5.457   1.314 -0.3822 -0.4547  0.0228
   36MOL0     H 4797   4.299   5.277   1.187  1.0537  3.0543  1.0930
   36MOL0     H 4798   4.128   5.290   1.164 -0.6503  1.2307  1.9326
   36MOL0     H 4799   4.244   5.454   0.961 -0.5703 -0.9344 -0.4927
   36MOL0     H 4800   4.334   5.286   0.965  1.9502  1.5771  2.2337
   36MOL0     H 4801   4.122   5.170   0.933 -1.9277 -1.1998 -2.6181
   36MOL0     H 4802   4.037   5.320   0.942 -0.9357 -0.2690 -2.8238
   36MOL0     H 4803   4.189   5.385   0.727  1.4851 -1.1465 -4.4257
   36MOL0     H 4804   4.232   5.215   0.733 -1.2746  0.3740 -2.4726
   36MOL0     H 4805   3.979   5.161   0.705  0.1184 -1.4631 -2.8883
   36MOL0     H 4806   3.954   5.331   0.669  0.4662  1.5765 -0.7631
   36MOL0     H 4807   4.074   5.315   0.481  0.0529  0.3131  0.6867
   36MOL0     H 4808   4.167   5.169   0.510  0.1380 -0.8840  3.6813
   36MOL0     H 4809   3.861   5.184   0.461 -0.3370 -0.3447 -1.3386
   36MOL0     H 4810   3.953   5.030   0.474  5.7329 -0.4934  2.0262
   36MOL0     H 4811   3.861   5.336   0.256  1.0579  0.2451  6.1291
   36MOL0     H 4812   3.875   5.391  -0.027  1.0670 -0.3770 -0.7884
   36MOL0     H 4813   3.888   5.236  -0.114 -1.1971 -2.6728  0.1687
   36MOL0     H 4814   3.666   5.332   0.078  2.4674  0.2233  1.5181
   36MOL0     H 4815   3.687   5.163   0.021  2.9993 -1.1252 -2.9370
   36MOL0     H 4816   3.659   5.244  -0.221  1.9091  0.0554  0.6251
   36MOL0     H 4817   3.622   5.400  -0.141  0.3229  0.2524  2.3967
   36MOL0     H 4818   3.420   5.286  -0.027  1.1256 -0.3645  0.9130
   36MOL0     H 4819   3.480   5.135  -0.089  1.5251 -0.0104 -1.8862
   36MOL0     H 4820   3.290   5.281  -0.458  2.0839  1.3077  0.9889
   36MOL0     H 4821   3.177   5.223  -0.664  1.1168 -0.1081 -0.1052
   36MOL0     H 4822   3.181   5.050  -0.701 -2.1404 -1.6344  0.7762
   36MOL0     H 4823   3.042   5.112  -0.610  1.6087 -3.6943  1.6402
   36MOL0     H 4824   3.153   4.495  -0.398  0.1587 -0.2353  0.4794
   36MOL0     H 4825   3.087   4.300  -0.488 -2.3215  2.0631  0.5560
   36MOL0     H 4826   3.017   4.272  -0.947 -4.4006 -1.0675  0.2978
   36MOL0     H 4827   3.160   4.185  -0.910 -1.3197  1.7542 -2.1728
   36MOL0     H 4828   3.010   3.990  -0.842 -0.6134 -0.4916  0.1714
   36MOL0     H 4829   2.874   4.090  -0.907  0.0140 -1.0723 -3.4289
   36MOL0     H 4830   3.093   3.963  -1.074  0.9222  0.9961 -1.0936
   36MOL0     H 4831   3.027   4.113  -1.119  1.4756 -0.1678 -0.9773
   36MOL0     H 4832   2.839   3.875  -1.046 -2.6475  1.2787  0.4451
   36MOL0     H 4833   2.784   4.025  -1.113 -2.3838 -2.5370 -0.8100
   36MOL0     H 4834   2.792   3.839  -1.268  0.3709 -0.7843  4.0256
   36MOL0     H 4835   2.969   3.836  -1.266  0.8208  0.0841  1.6667
   36MOL0     H 4836   2.793   4.054  -1.372 -1.2614 -0.2567 -0.1893
   36MOL0     H 4837   2.965   4.077  -1.341 -0.4808 -0.2161 -2.2087
   36MOL0     H 4838   2.907   3.843  -1.518  0.2258  0.8108 -0.3117
   36MOL0     H 4839   3.038   3.944  -1.524 -0.3879  0.1156  0.4326
   36MOL0     H 4840   2.752   4.019  -1.588  0.1644  0.7037  2.1900
   36MOL0     H 4841   2.875   3.995  -1.718 -0.8592 -0.3636 -0.8715
   36MOL0     H 4842   3.087   4.466  -0.897  0.9498  0.7508 -0.7304
   36MOL0     H 4843   3.170   4.685  -0.788  2.4231 -0.1880 -0.4159
   36MOL0     H 4844   3.356   4.804  -0.366 -2.0584 -0.2233  1.8250
   36MOL0     H 4845   3.446   4.960  -0.222 -2.6963 -0.8142  0.8075
   36MOL0     H 4846   4.111   5.756   0.999  3.4139  0.4958 -0.3971
   36MOL0     H 4847   4.056   5.993   1.051 -0.3399 -0.1287 -0.8174
   36MOL0     H 4848   4.085   6.373   1.258 -0.7974 -1.7679  0.8265
   36MOL0     H 4849   4.073   6.586   1.370  0.4694  1.7332  0.1905
   36MOL0     H 4850   4.074   6.737   1.506  0.1422 -0.6761  1.4993
   36MOL0     H 4851   4.150   6.854   1.601 -2.4328  1.2267 -0.6279
   36MOL0     H 4852   4.330   6.746   1.382 -1.5776 -1.0361 -1.7319
   36MOL0     H 4853   4.319   6.894   1.486 -0.6615 -2.4141  2.8753
   36MOL0     H 4854   4.088   6.893   1.329 -0.5761 -0.1856 -2.7550
   36MOL0     H 4855   4.206   6.836   1.208 -1.8121 -0.5779 -0.5510
   36MOL0     H 4856   4.364   7.000   1.274  0.0976  1.8639 -1.7431
   36MOL0     H 4857   4.255   7.082   1.375 -0.8986 -1.1178  0.4460
   36MOL0     H 4858   4.135   7.173   0.959 -0.5827 -3.8444 -1.0499
   36MOL0     H 4859   4.297   6.431   1.712 -2.3906 -2.5080  0.8064
   36MOL0     H 4860   4.264   6.206   1.614 -3.0651 -1.3059 -0.2901
   37MOL0     O 4861  11.025   6.303   8.329 -0.1431  0.6778  0.1902
   37MOL0     C 4862  11.046   6.365   8.225  0.0056 -0.2932 -0.8139
   37MOL0     O 4863  11.129   6.325   8.128 -0.7436 -0.3693  0.2387
   37MOL0     C 4864  11.178   6.202   8.107  0.3162 -0.7072 -0.1680
   37MOL0     C 4865  11.110   6.089   8.139  0.0536  1.3518 -0.3280
   37MOL0     C 4866  11.170   5.966   8.115 -0.4196  0.1039 -0.1884
   37MOL0     C 4867  11.297   5.957   8.044  0.7999 -0.0739 -0.4166
   37MOL0     O 4868  11.347   5.829   8.035 -0.1641  0.5490  0.4638
   37MOL0     C 4869  11.485   5.804   7.984  0.0387  0.2949 -0.6199
   37MOL0     C 4870  11.589   5.858   8.080 -0.4305  0.3425 -0.0594
   37MOL0     C 4871  11.565   5.779   8.217 -0.7799  0.1301  0.0618
   37MOL0     C 4872  11.683   5.813   8.306 -0.6470 -0.4294  0.1722
   37MOL0     C 4873  11.662   5.798   8.457 -0.6764 -0.0246 -1.1452
   37MOL0     C 4874  11.631   5.656   8.498 -0.5977  0.0152 -0.1372
   37MOL0     C 4875  11.669   5.635   8.651 -0.1568 -0.4891  0.0442
   37MOL0     C 4876  11.604   5.521   8.715  1.2276  0.4897  0.7939
   37MOL0     N 4877  11.669   5.392   8.669 -0.0547 -0.0054 -0.3661
   37MOL0     C 4878  11.779   5.336   8.732 -0.1960 -0.4357 -0.7094
   37MOL0     C 4879  11.802   5.218   8.668  0.1247  0.6024 -0.0179
   37MOL0     C 4880  11.903   5.119   8.709  0.0015 -0.8691 -0.4752
   37MOL0     C 4881  11.992   5.068   8.595  0.5186 -0.2751  0.3584
   37MOL0     C 4882  12.097   4.966   8.641  0.3054  0.2604  0.2465
   37MOL0     C 4883  12.219   4.931   8.557  1.1629 -0.2469  0.2168
   37MOL0     O 4884  12.271   5.059   8.532  0.5412 -0.6489  0.7597
   37MOL0     C 4885  12.380   5.069   8.449 -0.3440  0.0935  0.1079
   37MOL0     C 4886  12.458   4.963   8.402  0.0392 -0.2727  0.1149
   37MOL0     C 4887  12.581   4.988   8.342 -0.5046 -1.0448  0.5469
   37MOL0     C 4888  12.660   4.877   8.282 -0.0421  0.1110  0.3187
   37MOL0     C 4889  12.618   5.126   8.308  0.1856  0.9573  0.2725
   37MOL0     C 4890  12.750   5.168   8.246 -0.7219 -0.3474 -0.4946
   37MOL0     O 4891  12.864   5.083   8.259 -0.4603  1.0269  0.6998
   37MOL0     C 4892  13.000   5.102   8.225  0.3470 -0.0625  0.7656
   37MOL0     C 4893  13.061   5.234   8.238 -1.1702 -0.5225  0.1104
   37MOL0     C 4894  13.199   5.247   8.200  0.0355 -0.4501 -0.2246
   37MOL0     C 4895  13.278   5.131   8.173 -1.0942 -0.1028 -0.1992
   37MOL0     O 4896  13.416   5.132   8.154  1.0328 -0.0633 -0.2995
   37MOL0     C 4897  13.484   5.251   8.184  0.5997 -0.1844 -0.5511
   37MOL0     C 4898  13.630   5.221   8.170 -1.0331  0.1790  0.1160
   37MOL0     C 4899  13.722   5.333   8.215 -0.0879  0.3956 -0.0578
   37MOL0     C 4900  13.832   5.347   8.129 -0.6293 -0.2309  0.2473
   37MOL0     C 4901  13.921   5.462   8.185 -0.3893  0.7748 -0.3525
   37MOL0     C 4902  14.039   5.493   8.115 -1.5579 -0.6226  0.7177
   37MOL0     C 4903  14.102   5.619   8.155 -0.1933  0.1716  0.4641
   37MOL0     C 4904  14.218   5.661   8.065 -0.7244  0.3864 -0.2961
   37MOL0    Cl 4905  14.391   5.605   8.122 -0.1051 -0.3166  0.1779
   37MOL0     C 4906  13.218   5.001   8.174 -1.0713 -0.2667 -0.2794
   37MOL0     C 4907  13.079   4.987   8.202  0.5737 -0.2497 -0.3664
   37MOL0     O 4908  12.747   5.276   8.184 -0.7979 -0.1811 -0.0264
   37MOL0     C 4909  12.532   5.232   8.355 -0.3773  0.6385  1.2318
   37MOL0     C 4910  12.420   5.198   8.421 -0.1854  0.6602  0.1084
   37MOL0     N 4911  11.697   5.191   8.584 -0.7137  0.4199  0.2136
   37MOL0     N 4912  11.614   5.298   8.577  0.2420  0.1524  0.5552
   37MOL0     C 4913  11.353   6.074   8.002  0.4138 -1.0895 -0.3503
   37MOL0     C 4914  11.299   6.200   8.031  0.1931 -1.1918 -0.9180
   37MOL0     C 4915  10.986   6.499   8.214 -0.2502 -0.8036  0.4528
   37MOL0     C 4916  11.009   6.580   8.101  0.1221 -0.5677 -0.7858
   37MOL0     C 4917  10.945   6.705   8.103 -0.2685  0.3510  0.7239
   37MOL0     C 4918  10.883   6.766   8.208  0.2113 -0.5295  0.0087
   37MOL0     O 4919  10.831   6.895   8.202  0.0783  0.4981  0.2319
   37MOL0     C 4920  10.778   6.953   8.323 -0.0648  0.1671 -0.7099
   37MOL0     C 4921  10.756   7.094   8.273  0.7403  0.5387  0.8446
   37MOL0     C 4922  10.606   7.130   8.254  0.5923 -0.6789 -0.2540
   37MOL0     C 4923  10.516   7.143   8.388 -0.2079  0.9702 -0.6361
   37MOL0     C 4924  10.549   7.265   8.461  0.0321  0.3490  0.6704
   37MOL0     C 4925  10.588   7.357   8.528  0.5168 -0.3712  0.2824
   37MOL0     C 4926  10.857   6.682   8.318  0.0624 -0.0126  0.0035
   37MOL0     C 4927  10.915   6.555   8.321  0.4247  0.0840 -0.1425
   37MOL0     H 4928  11.008   6.088   8.178 -0.9101 -1.4983 -2.5701
   37MOL0     H 4929  11.134   5.873   8.158 -0.0113  1.1357  2.5817
   37MOL0     H 4930  11.498   5.697   7.967 -0.7119 -0.7001  3.7743
   37MOL0     H 4931  11.494   5.856   7.888 -2.4665  2.3831  0.1598
   37MOL0     H 4932  11.695   5.853   8.053  0.0295  2.2368  1.2093
   37MOL0     H 4933  11.577   5.963   8.108  1.5153  0.1731  1.5819
   37MOL0     H 4934  11.473   5.811   8.266 -1.5230  1.7083 -2.2084
   37MOL0     H 4935  11.556   5.671   8.203 -2.7640 -0.0527  2.2055
   37MOL0     H 4936  11.766   5.744   8.288  1.0638  1.8960 -1.6363
   37MOL0     H 4937  11.719   5.916   8.292 -1.3707 -0.1488  0.3377
   37MOL0     H 4938  11.745   5.846   8.509  0.7986  0.5090 -3.8120
   37MOL0     H 4939  11.575   5.855   8.493  2.1361  1.3585  4.5003
   37MOL0     H 4940  11.529   5.623   8.478 -0.8279  1.6336 -1.8801
   37MOL0     H 4941  11.699   5.585   8.448 -1.6534 -1.9136  1.0468
   37MOL0     H 4942  11.777   5.616   8.653 -0.2257 -0.8667  0.5706
   37MOL0     H 4943  11.629   5.725   8.700  0.1942 -0.6195  0.5748
   37MOL0     H 4944  11.496   5.523   8.696  1.6148  2.1675 -1.6628
   37MOL0     H 4945  11.618   5.527   8.823 -2.3591  1.5416  1.3266
   37MOL0     H 4946  11.832   5.378   8.817 -0.9706  0.0079 -0.4372
   37MOL0     H 4947  11.962   5.167   8.787 -1.5471 -0.8952  0.7621
   37MOL0     H 4948  11.833   5.047   8.753 -2.5203  1.1862 -0.8138
   37MOL0     H 4949  12.042   5.155   8.551  2.0142  1.3782  4.7600
   37MOL0     H 4950  11.935   5.014   8.518 -0.7968 -0.5848  1.5096
   37MOL0     H 4951  12.056   4.868   8.665  0.8714 -0.0466 -0.0330
   37MOL0     H 4952  12.134   5.014   8.732  3.8230 -1.4136 -0.1490
   37MOL0     H 4953  12.186   4.889   8.462 -2.3130  0.2446  1.0692
   37MOL0     H 4954  12.290   4.874   8.618  3.8693 -0.5344 -2.9190
   37MOL0     H 4955  12.411   4.866   8.416 -3.1914  1.1121 -0.1617
   37MOL0     H 4956  12.594   4.790   8.290 -0.8664  0.5095 -1.6287
   37MOL0     H 4957  12.693   4.894   8.179 -0.5811 -1.2143 -0.0989
   37MOL0     H 4958  12.754   4.856   8.335  1.1553  1.3349 -1.1977
   37MOL0     H 4959  13.005   5.322   8.266 -1.2376 -1.1537  2.1282
   37MOL0     H 4960  13.231   5.349   8.214  0.3151 -0.6575  0.7495
   37MOL0     H 4961  13.468   5.336   8.117 -0.0406  1.1398  1.2385
   37MOL0     H 4962  13.469   5.286   8.286 -1.4774  1.6059 -1.3974
   37MOL0     H 4963  13.662   5.133   8.227  2.5086  0.3789 -1.2735
   37MOL0     H 4964  13.643   5.196   8.065 -0.2056  0.1823  0.2116
   37MOL0     H 4965  13.752   5.320   8.319 -2.7365  1.1980  0.8908
   37MOL0     H 4966  13.655   5.419   8.229  1.4488  1.5569  0.5010
   37MOL0     H 4967  13.887   5.253   8.136  1.5957  0.8276 -1.6881
   37MOL0     H 4968  13.798   5.364   8.026  0.2541 -1.1655 -0.2254
   37MOL0     H 4969  13.939   5.426   8.287 -0.9190  0.5333 -0.3398
   37MOL0     H 4970  13.857   5.550   8.182 -3.4199 -1.0522  3.2978
   37MOL0     H 4971  14.110   5.411   8.127  3.0339  2.2416 -3.0164
   37MOL0     H 4972  14.017   5.510   8.009 -0.9679 -1.2722  0.4835
   37MOL0     H 4973  14.140   5.611   8.257 -1.8070  1.5716  1.2252
   37MOL0     H 4974  14.034   5.704   8.160 -0.0358  0.2286  3.1274
   37MOL0     H 4975  14.220   5.770   8.073  0.0902  0.3355  0.3871
   37MOL0     H 4976  14.196   5.636   7.961 -3.8616 -2.3841  0.8599
   37MOL0     H 4977  13.270   4.907   8.158 -1.6497 -0.6624  0.1392
   37MOL0     H 4978  13.035   4.889   8.219 -0.5859  0.4586  0.9436
   37MOL0     H 4979  12.548   5.337   8.329 -0.9473  1.0882  2.6203
   37MOL0     H 4980  12.349   5.274   8.450 -2.0804 -0.5162 -1.2238
   37MOL0     H 4981  11.450   6.062   7.955  0.0882 -1.9290 -0.8453
   37MOL0     H 4982  11.333   6.300   8.008  0.4540 -1.1441 -0.3541
   37MOL0     H 4983  11.066   6.547   8.015  1.0484 -2.6983  0.5611
   37MOL0     H 4984  10.945   6.766   8.013 -0.4766  1.6989  1.6166
   37MOL0     H 4985  10.685   6.903   8.350 -0.7715  0.2400 -2.8808
   37MOL0     H 4986  10.844   6.961   8.411 -1.2285  0.0609  0.1961
   37MOL0     H 4987  10.818   7.117   8.185  1.7845 -1.0356  1.1101
   37MOL0     H 4988  10.796   7.161   8.349  3.7980  0.4118 -0.4867
   37MOL0     H 4989  10.568   7.052   8.188  2.9334 -2.3010  0.1678
   37MOL0     H 4990  10.604   7.226   8.203  0.1899  0.9504  2.6163
   37MOL0     H 4991  10.517   7.060   8.458 -1.8153  1.4281 -0.0303
   37MOL0     H 4992  10.409   7.150   8.365 -0.6100  0.4367  0.9552
   37MOL0     H 4993  10.621   7.418   8.610 -3.7016  0.0696  1.9158
   37MOL0     H 4994  10.793   6.715   8.399 -0.3410  0.9911 -0.6917
   37MOL0     H 4995  10.902   6.494   8.409 -2.3480 -0.9256 -1.1298
   38MOL0     O 4996   0.268   6.227   3.828 -0.5583  0.6348  0.2829
   38MOL0     C 4997   0.282   6.124   3.886  0.2109  0.0386 -0.6089
   38MOL0     O 4998   0.268   6.108   4.023 -0.1396 -0.0065 -0.5240
   38MOL0     C 4999   0.258   6.228   4.099  0.1977  0.2353 -0.2308
   38MOL0     C 5000   0.144   6.231   4.183  0.1017  0.3044 -0.2319
   38MOL0     C 5001   0.150   6.327   4.288 -0.1095 -0.7334 -0.6577
   38MOL0     C 5002   0.243   6.425   4.286 -0.3223 -0.3132 -0.8918
   38MOL0     O 5003   0.252   6.517   4.382 -0.6854 -0.6336 -0.3833
   38MOL0     C 5004   0.129   6.569   4.438  0.4541  0.1846 -0.4977
   38MOL0     C 5005   0.172   6.639   4.580 -0.8640  0.2010  0.2856
   38MOL0     C 5006   0.058   6.702   4.633  0.1669  0.1621 -0.7886
   38MOL0     C 5007  -0.037   6.615   4.718 -0.7598  0.2929  0.2491
   38MOL0     C 5008  -0.149   6.698   4.790  0.0499 -0.0404 -0.0684
   38MOL0     C 5009  -0.270   6.605   4.799  0.0217  0.5708 -0.1392
   38MOL0     C 5010  -0.381   6.666   4.882  0.7328 -0.6098  0.1172
   38MOL0     C 5011  -0.493   6.571   4.889  0.3220  0.4037  0.1674
   38MOL0     N 5012  -0.591   6.609   4.783  0.2537  0.4968 -0.4928
   38MOL0     C 5013  -0.716   6.643   4.814  0.3007 -0.8884  0.5510
   38MOL0     C 5014  -0.779   6.659   4.696 -0.4641 -0.4914 -0.5974
   38MOL0     C 5015  -0.930   6.659   4.672  0.5635 -0.1667 -0.6348
   38MOL0     C 5016  -0.970   6.792   4.596  0.6125 -0.2507 -0.7390
   38MOL0     C 5017  -0.955   6.912   4.696 -0.0603 -0.4198  0.3153
   38MOL0     C 5018  -1.016   7.048   4.646 -0.0645 -0.8747 -1.0971
   38MOL0     O 5019  -0.957   7.102   4.524 -0.1368 -0.2050 -0.3668
   38MOL0     C 5020  -1.043   7.147   4.430  0.7132  0.0013  0.1318
   38MOL0     C 5021  -1.150   7.231   4.456  0.2645 -0.3421  0.1635
   38MOL0     C 5022  -1.238   7.277   4.353 -0.9051  0.6899  0.7074
   38MOL0     C 5023  -1.357   7.357   4.383  0.5140  0.5149 -1.1808
   38MOL0     C 5024  -1.209   7.233   4.218 -0.7332 -0.4926 -0.1592
   38MOL0     C 5025  -1.298   7.265   4.110 -0.1061 -0.6818  0.1928
   38MOL0     O 5026  -1.303   7.403   4.077  0.6506  0.1527  0.0578
   38MOL0     C 5027  -1.378   7.440   3.973  1.0784 -0.2682 -0.0632
   38MOL0     C 5028  -1.450   7.560   3.990  0.3338 -0.0362 -0.8818
   38MOL0     C 5029  -1.549   7.601   3.903  0.2904  0.0118  0.1093
   38MOL0     C 5030  -1.580   7.519   3.795 -0.3832 -0.4175 -0.0232
   38MOL0     O 5031  -1.684   7.555   3.708  0.5583 -0.2015  0.3816
   38MOL0     C 5032  -1.764   7.674   3.731  0.6501  0.5444  1.0171
   38MOL0     C 5033  -1.695   7.787   3.658  0.7051  0.1767 -0.1251
   38MOL0     C 5034  -1.775   7.916   3.624 -0.0861 -0.6447  0.3360
   38MOL0     C 5035  -1.848   7.893   3.486 -0.2344  0.4120 -0.8582
   38MOL0     C 5036  -1.915   8.019   3.424 -0.0209  0.3924  0.4755
   38MOL0     C 5037  -2.010   8.095   3.513  0.6649 -0.6289  0.4290
   38MOL0     C 5038  -2.110   8.012   3.584  0.6377 -0.3296  0.7009
   38MOL0     C 5039  -2.244   8.074   3.622 -0.2886 -0.3353  1.0002
   38MOL0    Cl 5040  -2.363   7.954   3.642  0.0875 -0.1408  0.3431
   38MOL0     C 5041  -1.504   7.403   3.761 -0.6509 -0.0780  0.3377
   38MOL0     C 5042  -1.400   7.371   3.849 -0.1351  0.5368  0.3124
   38MOL0     O 5043  -1.360   7.175   4.062 -0.3564  0.3951  1.0862
   38MOL0     C 5044  -1.100   7.147   4.197  1.0461 -0.7497  0.2381
   38MOL0     C 5045  -1.014   7.104   4.293  0.1565 -0.1547  0.7833
   38MOL0     N 5046  -0.684   6.643   4.595  0.3927  0.5747 -0.1419
   38MOL0     N 5047  -0.575   6.608   4.651  0.4445 -0.1957 -0.0295
   38MOL0     C 5048   0.348   6.421   4.195 -1.1780 -0.3723 -0.9474
   38MOL0     C 5049   0.363   6.313   4.105  0.2020  0.1822  0.2882
   38MOL0     C 5050   0.345   6.013   3.815 -0.9420 -0.2750  0.2625
   38MOL0     C 5051   0.390   6.031   3.684 -0.2076  0.4573  0.1144
   38MOL0     C 5052   0.461   5.928   3.620 -0.9410 -0.8515 -0.9770
   38MOL0     C 5053   0.473   5.808   3.681 -0.0424 -0.7392 -1.5175
   38MOL0     O 5054   0.536   5.695   3.632 -0.2062 -0.5236  0.2075
   38MOL0     C 5055   0.613   5.703   3.506 -0.2924  0.2460 -0.0082
   38MOL0     C 5056   0.753   5.768   3.509 -0.3480  0.0139  0.2135
   38MOL0     C 5057   0.850   5.659   3.561  0.1187 -0.9443  0.2748
   38MOL0     C 5058   0.988   5.721   3.613  0.3732 -0.1289  0.3456
   38MOL0     C 5059   0.981   5.813   3.729  0.2145 -0.1270 -0.0233
   38MOL0     C 5060   0.974   5.894   3.816  0.0289 -0.3550  0.3227
   38MOL0     C 5061   0.424   5.788   3.807  0.8064 -0.4769 -1.0836
   38MOL0     C 5062   0.359   5.888   3.876  0.0512  0.5969  0.4241
   38MOL0     H 5063   0.073   6.150   4.191  0.0624  0.4650  1.4859
   38MOL0     H 5064   0.069   6.329   4.360  0.8102  0.4856  0.3970
   38MOL0     H 5065   0.065   6.626   4.370  0.5874  0.8874 -0.0466
   38MOL0     H 5066   0.053   6.494   4.463 -0.2269  1.1496  0.4192
   38MOL0     H 5067   0.216   6.574   4.655 -0.6183 -0.1893 -0.1866
   38MOL0     H 5068   0.247   6.715   4.559 -1.8789  0.8051 -1.4671
   38MOL0     H 5069   0.100   6.781   4.698 -0.6248  1.0688 -1.3506
   38MOL0     H 5070  -0.003   6.754   4.558 -1.3001  1.3188  1.0993
   38MOL0     H 5071  -0.082   6.549   4.643  1.0512  1.7346 -2.2351
   38MOL0     H 5072   0.013   6.563   4.800 -0.6104 -1.2007 -0.7422
   38MOL0     H 5073  -0.111   6.740   4.884  0.6460  2.2838 -1.2631
   38MOL0     H 5074  -0.166   6.792   4.736  3.0619  1.0753  0.7223
   38MOL0     H 5075  -0.307   6.578   4.700  1.5453 -2.1706 -0.0381
   38MOL0     H 5076  -0.238   6.513   4.848  1.9933  2.4294  2.3077
   38MOL0     H 5077  -0.346   6.676   4.985  3.5871  2.2653 -0.9829
   38MOL0     H 5078  -0.401   6.765   4.841 -0.9884 -0.1806  1.8126
   38MOL0     H 5079  -0.525   6.586   4.993  2.9436 -0.7095  1.2165
   38MOL0     H 5080  -0.467   6.465   4.882 -0.5267  0.2560 -1.0314
   38MOL0     H 5081  -0.767   6.624   4.908 -4.6780 -0.2852 -1.6908
   38MOL0     H 5082  -0.950   6.566   4.619  0.7410 -0.7191  0.2558
   38MOL0     H 5083  -0.990   6.661   4.764 -0.1269  1.4971 -1.0794
   38MOL0     H 5084  -1.075   6.792   4.565  0.7191 -1.5130 -1.1316
   38MOL0     H 5085  -0.922   6.803   4.498 -3.1554 -2.0052 -3.0213
   38MOL0     H 5086  -0.848   6.921   4.717  0.2448  2.2634 -1.8295
   38MOL0     H 5087  -1.007   6.885   4.788 -0.1211 -2.1647 -0.1925
   38MOL0     H 5088  -0.980   7.114   4.725  1.6615 -2.1709 -0.7559
   38MOL0     H 5089  -1.126   7.056   4.646 -0.0522 -0.6969 -1.3133
   38MOL0     H 5090  -1.160   7.266   4.558  0.2665  2.0939 -0.5865
   38MOL0     H 5091  -1.439   7.332   4.316 -1.8401 -1.7608  2.1907
   38MOL0     H 5092  -1.387   7.351   4.488  1.4959 -0.7255 -0.9437
   38MOL0     H 5093  -1.326   7.461   4.369  2.7648  0.0996  0.1954
   38MOL0     H 5094  -1.434   7.620   4.079 -2.4765 -1.4180  0.7022
   38MOL0     H 5095  -1.589   7.700   3.924  1.0541 -0.0909  2.2723
   38MOL0     H 5096  -1.870   7.661   3.705 -0.0342 -0.9463  4.0435
   38MOL0     H 5097  -1.778   7.688   3.839 -1.2602  1.4440  0.7011
   38MOL0     H 5098  -1.606   7.821   3.711  0.1328  2.9154 -0.7700
   38MOL0     H 5099  -1.667   7.751   3.559 -2.0338  1.0191 -1.3024
   38MOL0     H 5100  -1.693   7.988   3.615 -1.9390  1.9633  2.4715
   38MOL0     H 5101  -1.844   7.960   3.697  2.0450 -0.2666  2.2036
   38MOL0     H 5102  -1.781   7.849   3.412 -1.4564  0.0029 -1.7714
   38MOL0     H 5103  -1.930   7.821   3.499  0.8560 -0.5209  1.5243
   38MOL0     H 5104  -1.960   7.988   3.330 -1.8399  2.7262  0.4892
   38MOL0     H 5105  -1.828   8.079   3.395  1.4743  0.2684  4.1746
   38MOL0     H 5106  -1.943   8.144   3.583  1.5453  1.5540 -1.7808
   38MOL0     H 5107  -2.067   8.171   3.457  1.5344  0.9957  1.6822
   38MOL0     H 5108  -2.061   7.983   3.677  1.1073  0.9804  0.8913
   38MOL0     H 5109  -2.132   7.931   3.514  1.3394  1.7658 -2.1862
   38MOL0     H 5110  -2.275   8.150   3.551 -0.6722 -0.8138  0.6496
   38MOL0     H 5111  -2.228   8.141   3.707 -0.5242 -0.1939  0.9338
   38MOL0     H 5112  -1.516   7.354   3.664 -4.7061 -0.8621  1.0172
   38MOL0     H 5113  -1.323   7.298   3.824  1.3324  2.4197 -0.8692
   38MOL0     H 5114  -1.095   7.144   4.089 -5.4231  1.9461 -0.5818
   38MOL0     H 5115  -0.920   7.058   4.266 -0.0082 -0.8382  1.3535
   38MOL0     H 5116   0.430   6.488   4.221  0.2619 -1.7013 -1.8387
   38MOL0     H 5117   0.451   6.313   4.042  0.6109  2.9895  0.7515
   38MOL0     H 5118   0.378   6.123   3.627 -1.2225  0.8878  0.9852
   38MOL0     H 5119   0.528   5.950   3.537 -1.2843  1.7482 -0.6568
   38MOL0     H 5120   0.625   5.606   3.457  2.0881 -1.0757  2.8766
   38MOL0     H 5121   0.570   5.782   3.444 -0.4148  1.5127  1.6187
   38MOL0     H 5122   0.764   5.862   3.563  0.8494  1.1438 -1.8391
   38MOL0     H 5123   0.792   5.800   3.412  4.2949 -0.7789  1.5859
   38MOL0     H 5124   0.864   5.589   3.478  0.3355 -0.8484  0.2287
   38MOL0     H 5125   0.818   5.608   3.652  3.6615 -1.4254  1.3847
   38MOL0     H 5126   1.032   5.782   3.533 -1.8792  3.0087  1.3284
   38MOL0     H 5127   1.044   5.628   3.623  1.7518  0.5089 -0.9764
   38MOL0     H 5128   0.956   5.956   3.902 -0.5496  1.8180 -1.2823
   38MOL0     H 5129   0.448   5.692   3.853 -0.4214 -0.4255 -0.2724
   38MOL0     H 5130   0.323   5.876   3.977  0.7492 -0.1458  0.5934
   39MOL0     O 5131   5.218  11.360  10.574 -0.4674  0.3576  0.6163
   39MOL0     C 5132   5.324  11.330  10.519  0.2456  0.7177 -0.5198
   39MOL0     O 5133   5.413  11.412  10.472 -0.9998  0.8984 -0.1296
   39MOL0     C 5134   5.387  11.543  10.481  0.3356  0.2936 -0.9084
   39MOL0     C 5135   5.437  11.607  10.596 -0.6667  0.6378  0.2058
   39MOL0     C 5136   5.407  11.742  10.617  0.1942  0.0162 -0.4701
   39MOL0     C 5137   5.327  11.824  10.528 -0.7691 -0.3752 -0.1104
   39MOL0     O 5138   5.288  11.947  10.542  0.1864 -0.4726 -0.3324
   39MOL0     C 5139   5.381  12.045  10.594  0.5563  0.4429 -0.2053
   39MOL0     C 5140   5.457  12.089  10.458 -0.0051 -0.0651 -0.5885
   39MOL0     C 5141   5.530  12.218  10.503 -0.2718  0.4688 -0.1827
   39MOL0     C 5142   5.618  12.272  10.396 -1.1544  0.4377  0.0379
   39MOL0     C 5143   5.544  12.328  10.271  0.1698  0.4260 -0.6210
   39MOL0     C 5144   5.634  12.394  10.183 -0.2207  0.5874  0.4852
   39MOL0     C 5145   5.709  12.305  10.089  0.8672 -0.0146  0.2642
   39MOL0     C 5146   5.824  12.369  10.019  0.1187 -0.4983  0.0766
   39MOL0     N 5147   5.936  12.275   9.972 -0.0768 -0.9353 -0.2454
   39MOL0     C 5148   6.059  12.311   9.949 -0.4406 -0.6688  0.2884
   39MOL0     C 5149   6.112  12.202   9.883 -0.7607 -0.2627 -0.2785
   39MOL0     C 5150   6.255  12.188   9.837 -0.6262  0.0005 -0.8909
   39MOL0     C 5151   6.289  12.285   9.724  0.1332  0.4700  0.3321
   39MOL0     C 5152   6.439  12.281   9.699 -0.7928 -0.7331  1.4662
   39MOL0     C 5153   6.532  12.349   9.796 -0.6469  0.5124 -0.6950
   39MOL0     O 5154   6.667  12.334   9.742 -0.2022  0.4900 -0.3836
   39MOL0     C 5155   6.745  12.233   9.805 -0.1429 -0.6812  0.0173
   39MOL0     C 5156   6.877  12.217   9.752  0.2722 -0.9694 -0.0554
   39MOL0     C 5157   6.967  12.121   9.790 -0.7727 -0.1577 -0.8778
   39MOL0     C 5158   7.105  12.108   9.723 -0.6632  0.3891  0.2972
   39MOL0     C 5159   6.922  12.029   9.883  1.4870  0.6450  0.2053
   39MOL0     C 5160   7.012  11.925   9.946 -0.8987  0.8251  0.6521
   39MOL0     O 5161   6.946  11.830  10.019 -0.5126  0.3678  0.2277
   39MOL0     C 5162   7.010  11.725  10.068  1.0033  0.0070 -0.8490
   39MOL0     C 5163   6.951  11.599  10.041  0.1355  0.5936 -0.6523
   39MOL0     C 5164   7.011  11.493  10.103  1.0603 -0.6496 -0.0006
   39MOL0     C 5165   7.115  11.500  10.198 -0.7087  0.6561 -0.7032
   39MOL0     O 5166   7.156  11.381  10.250  0.1629 -0.4087  0.9810
   39MOL0     C 5167   7.198  11.391  10.387 -0.1411 -0.6199  0.2484
   39MOL0     C 5168   7.218  11.246  10.432  0.2389  0.1403 -0.6808
   39MOL0     C 5169   7.337  11.175  10.376 -0.4420 -0.1976 -0.3037
   39MOL0     C 5170   7.358  11.037  10.427 -0.3293  1.3233 -0.2004
   39MOL0     C 5171   7.495  10.975  10.384 -0.3853  0.6480  0.3050
   39MOL0     C 5172   7.491  10.824  10.390 -0.0746 -0.1366  0.0142
   39MOL0     C 5173   7.442  10.748  10.265 -0.0383  0.1329  0.3247
   39MOL0     C 5174   7.378  10.613  10.309  0.6918  0.2170 -0.4771
   39MOL0    Cl 5175   7.293  10.549  10.169  0.3247  0.7812 -0.0431
   39MOL0     C 5176   7.172  11.620  10.229  0.2666  0.7473  0.1724
   39MOL0     C 5177   7.122  11.730  10.163 -0.1190 -0.2333 -0.3295
   39MOL0     O 5178   7.137  11.927   9.925  0.7997 -0.4910 -0.2341
   39MOL0     C 5179   6.795  12.045   9.944  0.5244  1.0100  0.2847
   39MOL0     C 5180   6.706  12.148   9.915 -1.4356 -0.5238  0.1785
   39MOL0     N 5181   6.010  12.102   9.867 -0.1076  0.5507 -0.2067
   39MOL0     N 5182   5.916  12.151   9.928 -0.1176 -0.5106 -0.1657
   39MOL0     C 5183   5.286  11.756  10.412 -0.7306 -0.9808 -0.1289
   39MOL0     C 5184   5.299  11.616  10.395 -0.5308 -0.3719  0.2991
   39MOL0     C 5185   5.353  11.188  10.515 -0.1512  0.5511  0.2024
   39MOL0     C 5186   5.268  11.095  10.567  0.0280 -0.4503  1.6248
   39MOL0     C 5187   5.295  10.954  10.552  0.0807 -0.5603 -1.3763
   39MOL0     C 5188   5.417  10.910  10.497  0.1951  0.4476  0.2946
   39MOL0     O 5189   5.439  10.774  10.489 -0.5433 -0.2020 -0.3717
   39MOL0     C 5190   5.541  10.724  10.391 -0.9284 -0.2006  0.1319
   39MOL0     C 5191   5.668  10.666  10.443  0.7994 -0.3290 -0.1988
   39MOL0     C 5192   5.728  10.754  10.553  0.4709  0.0001  0.7844
   39MOL0     C 5193   5.833  10.681  10.639 -1.0962  0.4043  0.4339
   39MOL0     C 5194   5.963  10.737  10.636 -0.3029  0.0171  0.2678
   39MOL0     C 5195   6.081  10.788  10.619  0.1198  1.0985  0.7499
   39MOL0     C 5196   5.500  11.009  10.457 -0.6233 -0.4882  0.8019
   39MOL0     C 5197   5.471  11.142  10.459 -0.7807 -0.1542 -0.3027
   39MOL0     H 5198   5.501  11.563  10.671  2.1252 -0.1545 -2.4572
   39MOL0     H 5199   5.446  11.783  10.710  0.5072 -3.1395  0.9304
   39MOL0     H 5200   5.315  12.123  10.633 -3.3562 -2.5854 -0.1610
   39MOL0     H 5201   5.450  11.994  10.661  1.0165 -2.0141 -2.4012
   39MOL0     H 5202   5.516  11.999  10.436  0.1609 -0.1653  0.2603
   39MOL0     H 5203   5.382  12.109  10.381 -2.6133  0.4482  1.9253
   39MOL0     H 5204   5.458  12.294  10.534 -3.2511 -2.3155  0.2374
   39MOL0     H 5205   5.594  12.179  10.583 -2.3590 -0.8652  0.9119
   39MOL0     H 5206   5.671  12.357  10.441 -0.0217  1.4446 -2.9392
   39MOL0     H 5207   5.685  12.191  10.368 -0.0216  0.9066  1.2389
   39MOL0     H 5208   5.491  12.244  10.225 -2.2322  0.1621  2.2715
   39MOL0     H 5209   5.471  12.401  10.309 -0.6034 -1.1838  1.1868
   39MOL0     H 5210   5.582  12.472  10.126  0.7245  0.5472 -0.4663
   39MOL0     H 5211   5.702  12.455  10.243 -0.3038  1.2722 -0.0967
   39MOL0     H 5212   5.764  12.227  10.141  0.2798 -0.1787  0.6373
   39MOL0     H 5213   5.643  12.256  10.017  1.2533 -3.6074  2.1266
   39MOL0     H 5214   5.868  12.428  10.099  2.4491 -2.8350  0.6626
   39MOL0     H 5215   5.796  12.423   9.928 -3.2408 -1.9013  0.1286
   39MOL0     H 5216   6.104  12.410   9.958 -3.9570  1.2626 -1.3598
   39MOL0     H 5217   6.326  12.187   9.921 -0.8238 -0.2011 -0.7233
   39MOL0     H 5218   6.252  12.083   9.808 -1.6029 -0.0752 -0.5357
   39MOL0     H 5219   6.252  12.388   9.727 -0.0248  0.7632 -4.7350
   39MOL0     H 5220   6.241  12.244   9.635 -0.6947 -0.5803  1.2319
   39MOL0     H 5221   6.456  12.318   9.597 -0.6729 -0.6328  1.5234
   39MOL0     H 5222   6.468  12.176   9.696 -1.2807 -0.8670  1.2343
   39MOL0     H 5223   6.510  12.324   9.900 -5.0338  0.4869 -1.4422
   39MOL0     H 5224   6.508  12.455   9.795 -1.1023  0.4087 -1.5739
   39MOL0     H 5225   6.909  12.295   9.684  0.3616 -2.3440 -1.6695
   39MOL0     H 5226   7.174  12.166   9.786 -0.7173  1.4003 -0.5413
   39MOL0     H 5227   7.138  12.009   9.692  6.4778  2.7583 -1.6976
   39MOL0     H 5228   7.098  12.159   9.627 -0.4910  0.9393  0.5682
   39MOL0     H 5229   6.876  11.575   9.966  0.4762  0.0966 -0.8355
   39MOL0     H 5230   6.969  11.398  10.072 -2.3774  1.0660 -1.1640
   39MOL0     H 5231   7.297  11.436  10.377  1.0837 -2.8948  1.2218
   39MOL0     H 5232   7.124  11.439  10.451 -2.0213 -0.5541 -1.8504
   39MOL0     H 5233   7.235  11.249  10.540  0.7849 -1.3493 -0.6971
   39MOL0     H 5234   7.123  11.197  10.411  1.2041 -3.4479  2.2741
   39MOL0     H 5235   7.421  11.244  10.389 -1.6886  1.2189  0.5754
   39MOL0     H 5236   7.318  11.169  10.268 -0.6796  2.4778 -0.4842
   39MOL0     H 5237   7.355  11.047  10.536  1.8832  0.4486 -0.0101
   39MOL0     H 5238   7.277  10.975  10.387  2.1880 -2.0178 -0.5466
   39MOL0     H 5239   7.567  11.021  10.453 -1.2615 -0.4548  2.0158
   39MOL0     H 5240   7.513  11.002  10.279  0.7319  0.7402  0.5011
   39MOL0     H 5241   7.589  10.791  10.426 -0.0782  0.5319  0.6578
   39MOL0     H 5242   7.419  10.803  10.469  1.1915 -0.3990  1.1466
   39MOL0     H 5243   7.525  10.726  10.196  0.2137 -1.5173  1.1068
   39MOL0     H 5244   7.361  10.801  10.215  0.4815 -1.6942 -2.6797
   39MOL0     H 5245   7.305  10.625  10.390  1.5414 -0.6325  0.4384
   39MOL0     H 5246   7.455  10.547  10.350  0.5413  2.1518  3.3431
   39MOL0     H 5247   7.259  11.640  10.290  1.9219  2.2734 -2.4824
   39MOL0     H 5248   7.156  11.831  10.186 -0.0690 -0.8195  2.6576
   39MOL0     H 5249   6.758  11.985  10.027  0.3682  0.1020 -0.4295
   39MOL0     H 5250   6.619  12.159   9.979  0.1573  3.2218  1.9719
   39MOL0     H 5251   5.237  11.810  10.332 -2.2692  2.5215  2.8941
   39MOL0     H 5252   5.249  11.561  10.316  0.0165 -0.3147 -0.0950
   39MOL0     H 5253   5.177  11.111  10.624 -1.4447 -1.0662 -0.3929
   39MOL0     H 5254   5.217  10.883  10.577  1.2868 -1.0233  1.5105
   39MOL0     H 5255   5.483  10.651  10.332 -3.0529  2.1047 -0.8134
   39MOL0     H 5256   5.571  10.802  10.320  1.5868  1.9145  3.2316
   39MOL0     H 5257   5.738  10.658  10.360  2.9475 -1.8135  1.6443
   39MOL0     H 5258   5.647  10.563  10.474 -3.1669  0.7940  1.5653
   39MOL0     H 5259   5.651  10.806  10.612 -1.4532 -2.6389  0.7897
   39MOL0     H 5260   5.779  10.837  10.503 -1.9202  0.7071 -0.6653
   39MOL0     H 5261   5.843  10.578  10.605  1.4583  0.0802  1.9405
   39MOL0     H 5262   5.791  10.665  10.739 -1.5225  2.4122  0.6234
   39MOL0     H 5263   6.181  10.815  10.592  1.0317 -2.0001  0.6495
   39MOL0     H 5264   5.598  10.982  10.418 -0.1954  2.0619 -0.0723
   39MOL0     H 5265   5.544  11.209  10.415  0.7777 -1.1449  0.6649
   40MOL0     O 5266   1.573   2.757   6.892 -0.0313  0.5319  0.8179
   40MOL0     C 5267   1.626   2.821   6.981 -0.6469 -0.7779 -1.1905
   40MOL0     O 5268   1.688   2.946   6.971 -0.8711  0.1089 -0.3513
   40MOL0     C 5269   1.735   2.978   6.844  0.1648 -0.7501  0.3273
   40MOL0     C 5270   1.720   3.112   6.800 -0.4216 -0.0670 -0.0582
   40MOL0     C 5271   1.753   3.146   6.673 -0.0546  0.7662  0.6244
   40MOL0     C 5272   1.813   3.058   6.575  0.2695  0.3476 -1.3070
   40MOL0     O 5273   1.835   3.089   6.444  1.2400 -0.2583  0.9014
   40MOL0     C 5274   1.944   3.169   6.425 -0.6857 -1.1032 -0.0722
   40MOL0     C 5275   1.975   3.187   6.276  0.9895  0.3515 -0.2070
   40MOL0     C 5276   2.069   3.310   6.240 -0.1955  0.0170 -0.3696
   40MOL0     C 5277   2.198   3.312   6.317 -0.0483 -0.0272 -1.1760
   40MOL0     C 5278   2.307   3.386   6.240 -1.2412  0.0248  0.8843
   40MOL0     C 5279   2.441   3.361   6.292 -0.1270 -0.6007  0.2173
   40MOL0     C 5280   2.551   3.447   6.219 -0.0269 -0.1032 -0.5322
   40MOL0     C 5281   2.639   3.372   6.117 -0.9601 -0.3632  0.5829
   40MOL0     N 5282   2.761   3.443   6.076 -0.0155  0.0992 -0.1696
   40MOL0     C 5283   2.763   3.556   5.996 -0.7170 -0.2310  0.1648
   40MOL0     C 5284   2.894   3.581   5.987 -0.4954  0.3289  0.2704
   40MOL0     C 5285   2.957   3.702   5.915 -0.3423  0.0369  0.2537
   40MOL0     C 5286   2.926   3.822   5.994 -0.3591 -0.9333  0.0825
   40MOL0     C 5287   2.970   3.950   5.922  1.2041  0.2861 -0.5144
   40MOL0     C 5288   2.947   4.077   6.008  0.3853  0.2760 -0.1086
   40MOL0     O 5289   3.050   4.094   6.109 -0.1393  0.7828 -0.6709
   40MOL0     C 5290   3.172   4.137   6.060  0.6095 -0.0024  0.1463
   40MOL0     C 5291   3.280   4.059   6.091 -0.3604 -1.3096 -0.2175
   40MOL0     C 5292   3.410   4.100   6.043 -0.1497 -0.7695  0.5931
   40MOL0     C 5293   3.534   4.008   6.088 -0.0998  0.8522  0.0554
   40MOL0     C 5294   3.425   4.221   5.967 -1.3059 -0.1430 -0.3447
   40MOL0     C 5295   3.559   4.273   5.926  0.3288  0.3123 -0.0513
   40MOL0     O 5296   3.670   4.233   6.006  0.2461 -0.9143 -0.5169
   40MOL0     C 5297   3.784   4.314   6.000  0.6317 -0.2330  0.1530
   40MOL0     C 5298   3.782   4.446   5.961  0.5682 -0.8728  0.3260
   40MOL0     C 5299   3.896   4.521   5.964 -0.0262 -0.5509  0.2136
   40MOL0     C 5300   4.023   4.466   5.985  0.6744  0.3143 -0.8449
   40MOL0     O 5301   4.133   4.542   5.958 -0.6169  0.5497  0.4045
   40MOL0     C 5302   4.210   4.607   6.064  0.1094  0.2305 -0.8782
   40MOL0     C 5303   4.125   4.732   6.100 -0.4860  0.4289  0.2402
   40MOL0     C 5304   4.144   4.838   5.990 -0.6189  0.1307 -0.4735
   40MOL0     C 5305   4.096   4.978   6.035  0.3121  0.9021 -0.5239
   40MOL0     C 5306   4.211   5.060   6.094  0.0770  0.1301  0.1570
   40MOL0     C 5307   4.160   5.204   6.118  0.0181  0.6078 -0.8628
   40MOL0     C 5308   4.055   5.211   6.232 -0.1650 -0.2591 -1.0660
   40MOL0     C 5309   3.957   5.328   6.230 -0.2946  0.1938  0.0825
   40MOL0    Cl 5310   3.836   5.312   6.350  0.0185  0.3822 -0.1539
   40MOL0     C 5311   4.026   4.335   6.024  0.4994  0.2999  0.0024
   40MOL0     C 5312   3.906   4.254   6.029 -0.1296 -0.1985  1.0152
   40MOL0     O 5313   3.567   4.344   5.827  0.3809 -0.1163 -0.5158
   40MOL0     C 5314   3.315   4.294   5.936  0.0158  0.2998 -1.1869
   40MOL0     C 5315   3.192   4.263   5.990 -0.5022  0.5804 -0.0399
   40MOL0     N 5316   2.963   3.487   6.060 -0.1723  0.0258 -0.1373
   40MOL0     N 5317   2.883   3.401   6.114 -0.3479  0.6214 -0.0549
   40MOL0     C 5318   1.849   2.926   6.624  0.0338  0.9074  0.1015
   40MOL0     C 5319   1.807   2.892   6.753  0.8869 -0.0234  0.5000
   40MOL0     C 5320   1.631   2.750   7.113  0.0055 -0.6919  0.3594
   40MOL0     C 5321   1.582   2.612   7.133  0.1335  0.0981 -0.1396
   40MOL0     C 5322   1.599   2.543   7.258  0.6371 -0.3756  0.0501
   40MOL0     C 5323   1.653   2.617   7.366 -0.4899 -0.2423 -0.0195
   40MOL0     O 5324   1.684   2.544   7.479 -0.6788 -0.0771 -0.9096
   40MOL0     C 5325   1.727   2.590   7.602 -0.3675  0.2833 -0.3070
   40MOL0     C 5326   1.875   2.606   7.619 -0.4063  0.3736  0.1439
   40MOL0     C 5327   1.910   2.665   7.758 -0.6685  0.0568  0.9056
   40MOL0     C 5328   2.059   2.712   7.760  0.3439  0.3081 -0.1074
   40MOL0     C 5329   2.122   2.727   7.886 -0.6732 -0.7018 -0.4283
   40MOL0     C 5330   2.172   2.748   7.992  1.1693 -0.2070  0.4481
   40MOL0     C 5331   1.689   2.753   7.348 -0.8051 -0.6475  0.2253
   40MOL0     C 5332   1.683   2.813   7.227  0.6633  0.3165 -0.7818
   40MOL0     H 5333   1.662   3.170   6.871 -2.5505  0.3882 -2.0490
   40MOL0     H 5334   1.746   3.248   6.639  3.5036  0.8359 -0.3048
   40MOL0     H 5335   1.912   3.269   6.455 -1.1342 -1.4870  0.7458
   40MOL0     H 5336   2.038   3.134   6.469  0.4294  1.0561 -0.5922
   40MOL0     H 5337   2.003   3.093   6.227 -4.7852 -2.0806  0.2851
   40MOL0     H 5338   1.874   3.197   6.236  1.2775  0.7802 -0.8448
   40MOL0     H 5339   2.084   3.306   6.132 -2.1507 -1.7671 -0.6393
   40MOL0     H 5340   2.015   3.405   6.252 -2.4773 -1.1937 -0.5139
   40MOL0     H 5341   2.193   3.368   6.411  1.1631 -2.7926  0.6760
   40MOL0     H 5342   2.231   3.210   6.340 -0.3358  0.3594  1.2127
   40MOL0     H 5343   2.292   3.366   6.134  1.6127 -1.7417  0.7341
   40MOL0     H 5344   2.300   3.495   6.237  3.4818  0.5172 -2.5527
   40MOL0     H 5345   2.435   3.380   6.399  1.2012 -0.9682  0.3758
   40MOL0     H 5346   2.461   3.255   6.274 -0.8845 -0.7046 -0.0431
   40MOL0     H 5347   2.501   3.530   6.168 -1.4327 -0.5765  0.0325
   40MOL0     H 5348   2.612   3.487   6.300 -2.1020  0.4370  0.8585
   40MOL0     H 5349   2.571   3.344   6.035 -0.5109 -0.3233  0.1923
   40MOL0     H 5350   2.677   3.279   6.159  0.8675 -0.9051 -2.0574
   40MOL0     H 5351   2.674   3.610   5.964 -2.3889 -3.6845 -1.5097
   40MOL0     H 5352   3.064   3.679   5.906 -0.4128 -0.2322  0.1005
   40MOL0     H 5353   2.905   3.720   5.821  2.4417 -0.2965 -1.4716
   40MOL0     H 5354   2.954   3.830   6.099 -3.6227  0.3181  1.0043
   40MOL0     H 5355   2.817   3.830   6.003 -0.3047 -0.3107  0.2686
   40MOL0     H 5356   2.908   3.958   5.832 -0.0782 -2.8827 -0.0604
   40MOL0     H 5357   3.069   3.940   5.877  1.3533  1.6643 -0.5219
   40MOL0     H 5358   2.852   4.073   6.063  0.1280  1.8675 -0.3917
   40MOL0     H 5359   2.943   4.161   5.938 -2.2248  2.8641  2.7954
   40MOL0     H 5360   3.272   3.957   6.125 -0.0869 -1.8998 -1.8426
   40MOL0     H 5361   3.501   3.928   6.155 -0.0963  0.6572 -0.1735
   40MOL0     H 5362   3.575   3.960   5.999 -2.0053 -0.3913 -0.2201
   40MOL0     H 5363   3.605   4.073   6.140 -0.8003  3.4064 -1.9612
   40MOL0     H 5364   3.692   4.506   5.957  2.4540  2.5110  3.2427
   40MOL0     H 5365   3.894   4.622   5.923 -0.3294 -0.9558 -0.8022
   40MOL0     H 5366   4.223   4.547   6.154  1.0479 -0.8027 -1.6685
   40MOL0     H 5367   4.311   4.625   6.024  0.7275 -4.6163 -2.1080
   40MOL0     H 5368   4.019   4.721   6.123 -1.3380  5.3910 -0.1875
   40MOL0     H 5369   4.177   4.755   6.193  4.7780  3.0824 -2.8813
   40MOL0     H 5370   4.073   4.800   5.916 -0.7790  0.4853 -0.5059
   40MOL0     H 5371   4.238   4.848   5.936 -2.2025  3.1101 -3.0118
   40MOL0     H 5372   4.065   5.030   5.943 -0.3821 -1.9018 -1.9726
   40MOL0     H 5373   4.020   4.968   6.113 -2.1109  2.1353 -2.5625
   40MOL0     H 5374   4.293   5.064   6.022 -0.4340  3.2563 -0.3757
   40MOL0     H 5375   4.249   4.999   6.176 -0.1394 -0.6396 -0.2961
   40MOL0     H 5376   4.244   5.269   6.144  0.1755  1.1147 -2.5222
   40MOL0     H 5377   4.129   5.234   6.018 -2.8089 -1.1491 -0.6302
   40MOL0     H 5378   4.109   5.192   6.325 -1.2858 -4.6392 -1.1231
   40MOL0     H 5379   3.987   5.126   6.233  0.7355 -1.0403 -2.5786
   40MOL0     H 5380   3.917   5.328   6.129  0.2031 -1.4281 -0.1396
   40MOL0     H 5381   4.019   5.418   6.234  0.8034 -0.5530  0.7621
   40MOL0     H 5382   4.122   4.284   6.032  1.2521  1.5088 -0.9676
   40MOL0     H 5383   3.919   4.151   6.061 -2.0842 -0.6306  0.5388
   40MOL0     H 5384   3.335   4.390   5.890 -1.0094  1.2443  0.2423
   40MOL0     H 5385   3.115   4.339   5.996  0.2420  1.2401  1.8346
   40MOL0     H 5386   1.890   2.848   6.562 -1.0181 -0.6321  1.2600
   40MOL0     H 5387   1.829   2.792   6.787  2.2712  0.2288  0.4190
   40MOL0     H 5388   1.534   2.562   7.050 -0.4717 -0.3482  0.4655
   40MOL0     H 5389   1.554   2.445   7.265 -1.3348  0.5998  2.4601
   40MOL0     H 5390   1.686   2.688   7.629  1.4353  0.6471  1.3530
   40MOL0     H 5391   1.698   2.518   7.679 -1.5745  2.8862  1.8977
   40MOL0     H 5392   1.917   2.665   7.537 -2.0599  0.9567 -0.3237
   40MOL0     H 5393   1.920   2.507   7.605  2.2561  1.6187 -0.7295
   40MOL0     H 5394   1.919   2.581   7.828 -0.7274  0.5861  1.5583
   40MOL0     H 5395   1.833   2.734   7.793 -1.6500 -0.3723 -0.3201
   40MOL0     H 5396   2.071   2.806   7.705 -2.4764  0.8616  0.0607
   40MOL0     H 5397   2.120   2.638   7.707  0.4882 -0.0998  0.6119
   40MOL0     H 5398   2.207   2.769   8.091 -1.7083  2.8048  1.0232
   40MOL0     H 5399   1.739   2.809   7.427  1.9643 -2.2800 -0.2364
   40MOL0     H 5400   1.719   2.914   7.213  2.0203 -0.2611 -1.7067
   41MOL0     O 5401   3.388   7.830   0.439  0.6880  0.0659 -0.7164
   41MOL0     C 5402   3.437   7.778   0.331 -0.5157 -1.2787 -0.7787
   41MOL0     O 5403   3.407   7.818   0.202  0.5530  0.5832  0.7112
   41MOL0     C 5404   3.332   7.929   0.189  0.8451  0.7586  0.1919
   41MOL0     C 5405   3.384   8.051   0.140  0.3241  0.9134 -0.5011
   41MOL0     C 5406   3.307   8.170   0.128  0.1181 -0.2306 -0.9067
   41MOL0     C 5407   3.169   8.168   0.155 -0.3594  0.9467  0.1825
   41MOL0     O 5408   3.091   8.283   0.146  0.4738 -0.3435 -0.3904
   41MOL0     C 5409   2.961   8.291   0.198  0.3911  0.6065 -0.0896
   41MOL0     C 5410   2.914   8.436   0.193  0.5610 -0.4080 -0.7628
   41MOL0     C 5411   2.969   8.516   0.317  0.1977  0.4521 -0.9248
   41MOL0     C 5412   2.909   8.654   0.346 -0.5055  0.1459  0.7655
   41MOL0     C 5413   2.973   8.727   0.471  0.1239  0.0813  0.5543
   41MOL0     C 5414   3.018   8.630   0.581  0.2753  0.3383 -0.3420
   41MOL0     C 5415   2.884   8.589   0.650  0.3094 -0.0020  0.1341
   41MOL0     C 5416   2.918   8.506   0.773  1.2449 -0.3668  0.0898
   41MOL0     N 5417   2.797   8.502   0.868  0.6968 -1.5249 -1.5169
   41MOL0     C 5418   2.689   8.424   0.847 -0.5308 -0.1779 -0.9552
   41MOL0     C 5419   2.601   8.454   0.944 -1.0382  0.1262 -0.3453
   41MOL0     C 5420   2.459   8.419   0.956 -0.1526  0.6455  0.2053
   41MOL0     C 5421   2.407   8.300   0.885  0.1000 -0.2968 -1.0118
   41MOL0     C 5422   2.477   8.176   0.945  0.1873  0.3676  1.3861
   41MOL0     C 5423   2.472   8.054   0.857  0.0617  0.0051 -1.4271
   41MOL0     O 5424   2.341   8.044   0.799 -0.4403  0.9173 -0.2072
   41MOL0     C 5425   2.306   7.920   0.762 -0.0890 -0.0965 -0.3472
   41MOL0     C 5426   2.181   7.916   0.707  0.1939 -0.2313 -0.8893
   41MOL0     C 5427   2.127   7.793   0.660 -0.6614 -0.1028 -1.0729
   41MOL0     C 5428   1.982   7.792   0.607  0.1721  0.1299  0.8338
   41MOL0     C 5429   2.196   7.668   0.678 -1.1455 -0.2704 -0.0095
   41MOL0     C 5430   2.151   7.529   0.633 -0.3010 -0.0632  0.7555
   41MOL0     O 5431   2.185   7.417   0.707 -0.2811 -0.2149 -0.3670
   41MOL0     C 5432   2.117   7.296   0.688 -0.2800  0.0132 -0.0974
   41MOL0     C 5433   2.002   7.251   0.763 -0.2659  1.0410 -1.0741
   41MOL0     C 5434   1.951   7.128   0.736  0.1317 -1.6150 -1.3373
   41MOL0     C 5435   2.011   7.034   0.648  0.3596 -0.2428 -0.3797
   41MOL0     O 5436   1.960   6.909   0.618  0.0946 -0.1616  1.1916
   41MOL0     C 5437   1.830   6.869   0.668 -0.5848  0.3736 -0.2836
   41MOL0     C 5438   1.836   6.715   0.635 -0.1357 -0.8200  0.3106
   41MOL0     C 5439   1.702   6.646   0.617  0.6089 -0.6400  0.1736
   41MOL0     C 5440   1.705   6.495   0.622 -0.1014 -0.4989  0.3748
   41MOL0     C 5441   1.564   6.445   0.588 -0.2760  0.1770  0.4067
   41MOL0     C 5442   1.439   6.496   0.660  0.1673 -0.6105  0.6983
   41MOL0     C 5443   1.429   6.422   0.795  0.3468  1.2431  0.4109
   41MOL0     C 5444   1.305   6.459   0.871 -0.2262  0.1153 -0.1129
   41MOL0    Cl 5445   1.270   6.643   0.866  0.3865 -0.1313 -0.4610
   41MOL0     C 5446   2.130   7.071   0.588  0.0326  0.3702 -0.5098
   41MOL0     C 5447   2.188   7.194   0.621 -0.1769 -0.0325  1.1318
   41MOL0     O 5448   2.083   7.519   0.535 -0.0545 -0.2607 -0.0594
   41MOL0     C 5449   2.331   7.682   0.728  0.7455  0.2700  0.4339
   41MOL0     C 5450   2.387   7.798   0.770 -0.1291 -0.2588 -0.1710
   41MOL0     N 5451   2.671   8.541   1.025  0.7154 -0.5089 -0.0385
   41MOL0     N 5452   2.787   8.570   0.985 -0.5742  0.5604  0.3862
   41MOL0     C 5453   3.119   8.045   0.205 -0.6550 -0.4160  0.5518
   41MOL0     C 5454   3.197   7.926   0.202 -0.8610  0.0991 -0.0844
   41MOL0     C 5455   3.547   7.683   0.343  0.2305 -0.1457 -0.0969
   41MOL0     C 5456   3.541   7.584   0.445 -0.2097 -0.1869 -0.0982
   41MOL0     C 5457   3.652   7.503   0.467 -0.0817 -0.4191 -1.1327
   41MOL0     C 5458   3.766   7.512   0.392  0.1536  0.6181  0.4196
   41MOL0     O 5459   3.886   7.447   0.407 -0.1646 -0.3497 -0.2065
   41MOL0     C 5460   3.907   7.358   0.523  0.3965 -0.9358 -0.1554
   41MOL0     C 5461   3.843   7.217   0.495 -0.1419 -0.0576  0.4505
   41MOL0     C 5462   3.893   7.100   0.581 -0.7029  0.0471 -0.1498
   41MOL0     C 5463   3.907   7.130   0.720 -0.3994 -0.4081 -0.2639
   41MOL0     C 5464   3.952   7.010   0.794  0.9233  0.3227  0.4434
   41MOL0     C 5465   3.990   6.920   0.865  0.5020 -0.0931  0.4018
   41MOL0     C 5466   3.759   7.596   0.274 -0.4052  0.2791  0.3183
   41MOL0     C 5467   3.657   7.686   0.254 -0.0492  0.3974 -0.0092
   41MOL0     H 5468   3.482   8.068   0.097 -0.3632  1.4197 -1.9334
   41MOL0     H 5469   3.347   8.265   0.096 -3.0924  2.3890  2.1540
   41MOL0     H 5470   2.890   8.231   0.140 -0.1056 -0.8807  1.9684
   41MOL0     H 5471   2.955   8.256   0.301  3.6293 -1.1966 -0.3733
   41MOL0     H 5472   2.963   8.480   0.106 -2.4064 -0.8621 -2.7903
   41MOL0     H 5473   2.805   8.448   0.187  0.5578  1.6232  1.5334
   41MOL0     H 5474   2.944   8.453   0.402  1.1138  1.1545 -0.1032
   41MOL0     H 5475   3.078   8.512   0.308  0.3774 -2.8320  1.2272
   41MOL0     H 5476   2.931   8.722   0.263 -0.7620 -2.2143 -1.3626
   41MOL0     H 5477   2.799   8.658   0.349 -0.7297  0.4547 -2.7521
   41MOL0     H 5478   3.064   8.779   0.442  0.1263 -1.0629 -1.6742
   41MOL0     H 5479   2.903   8.799   0.513 -0.2883  0.1796 -0.3018
   41MOL0     H 5480   3.074   8.546   0.541 -1.1258 -0.4664 -0.6662
   41MOL0     H 5481   3.081   8.693   0.645  1.0172  0.2018 -0.9270
   41MOL0     H 5482   2.824   8.675   0.680  0.5917  0.7500 -1.4009
   41MOL0     H 5483   2.816   8.527   0.591  2.5603 -1.6781 -0.8400
   41MOL0     H 5484   2.998   8.564   0.820 -0.1269  1.9573 -0.2745
   41MOL0     H 5485   2.946   8.403   0.747 -0.1490 -1.7198  3.4211
   41MOL0     H 5486   2.661   8.355   0.767 -0.6811 -1.2760  0.0247
   41MOL0     H 5487   2.443   8.408   1.063 -2.1314 -0.1928 -0.1350
   41MOL0     H 5488   2.402   8.506   0.919 -0.7578 -0.8085 -2.5270
   41MOL0     H 5489   2.426   8.309   0.778  0.0463 -0.0797 -1.0032
   41MOL0     H 5490   2.301   8.281   0.908  0.3806 -2.6259 -1.4324
   41MOL0     H 5491   2.436   8.163   1.045  0.0544 -0.2340  1.2564
   41MOL0     H 5492   2.581   8.205   0.962 -0.0337  1.7902  0.4940
   41MOL0     H 5493   2.519   7.969   0.909 -0.4143  1.2594  1.2243
   41MOL0     H 5494   2.543   8.074   0.776  2.7144 -0.2486  0.6798
   41MOL0     H 5495   2.126   8.009   0.706  1.0971  0.3266 -2.2783
   41MOL0     H 5496   1.947   7.689   0.616 -0.4889  0.4437  2.1148
   41MOL0     H 5497   1.916   7.863   0.660 -1.4803  0.7776 -1.8814
   41MOL0     H 5498   1.979   7.820   0.502  0.5836 -2.3716  0.0915
   41MOL0     H 5499   1.946   7.318   0.827 -1.8619 -0.4407 -0.8664
   41MOL0     H 5500   1.862   7.092   0.786  0.8683 -2.6623 -0.7446
   41MOL0     H 5501   1.821   6.878   0.777 -3.7536 -2.3899 -0.1398
   41MOL0     H 5502   1.751   6.926   0.617  0.1880  1.4823 -0.2880
   41MOL0     H 5503   1.892   6.699   0.542 -0.6093  1.0592 -0.3328
   41MOL0     H 5504   1.889   6.662   0.715  2.6197 -0.2069 -0.9973
   41MOL0     H 5505   1.672   6.681   0.518  1.1875  0.8317  0.4898
   41MOL0     H 5506   1.628   6.689   0.685 -2.9959 -5.1608 -0.4118
   41MOL0     H 5507   1.780   6.453   0.555 -0.6196  1.5702 -1.6277
   41MOL0     H 5508   1.724   6.450   0.720  0.4839 -3.6975 -1.0740
   41MOL0     H 5509   1.546   6.337   0.587 -4.0623  0.6886  0.4388
   41MOL0     H 5510   1.547   6.484   0.487  0.4694  0.2101  0.2879
   41MOL0     H 5511   1.448   6.604   0.676  1.3938 -0.7250  0.8902
   41MOL0     H 5512   1.355   6.475   0.594 -1.2268  0.8233  1.9256
   41MOL0     H 5513   1.515   6.453   0.855 -1.2712  2.0141  2.4476
   41MOL0     H 5514   1.438   6.313   0.781 -0.8741  0.8205  2.5561
   41MOL0     H 5515   1.322   6.421   0.972  1.6388 -1.4584 -0.9604
   41MOL0     H 5516   1.216   6.406   0.836 -0.2765  1.0865 -1.5277
   41MOL0     H 5517   2.166   7.004   0.511 -1.1107 -3.4930  2.0436
   41MOL0     H 5518   2.284   7.218   0.577 -0.5188 -0.3137  0.1925
   41MOL0     H 5519   2.387   7.591   0.746  0.6931  0.6511  2.9442
   41MOL0     H 5520   2.493   7.803   0.796 -0.2522 -0.3398  0.3686
   41MOL0     H 5521   3.015   8.041   0.236  0.1495 -0.6057  3.5042
   41MOL0     H 5522   3.146   7.835   0.231  0.5634 -0.4132  0.9623
   41MOL0     H 5523   3.446   7.570   0.495 -1.2580  1.2020 -1.5893
   41MOL0     H 5524   3.655   7.432   0.549  3.1865 -1.5341 -2.0354
   41MOL0     H 5525   4.015   7.355   0.538  0.0851 -0.3993  2.8666
   41MOL0     H 5526   3.873   7.402   0.618  1.8771  0.6429 -0.3231
   41MOL0     H 5527   3.878   7.210   0.391 -0.3633 -0.8712  0.4312
   41MOL0     H 5528   3.734   7.220   0.503 -0.1548 -0.6283  0.4861
   41MOL0     H 5529   3.996   7.073   0.555 -1.1023 -1.9024  0.1620
   41MOL0     H 5530   3.841   7.007   0.556 -0.7925  0.4030 -1.3772
   41MOL0     H 5531   3.809   7.163   0.754  0.1410  1.5817 -0.5013
   41MOL0     H 5532   3.979   7.211   0.734 -1.1802 -0.1695  3.1832
   41MOL0     H 5533   4.023   6.849   0.937  2.7785  0.6347  0.1488
   41MOL0     H 5534   3.834   7.598   0.196 -3.1512  0.6342 -2.5615
   41MOL0     H 5535   3.650   7.755   0.170  4.7233 -0.5848 -1.5304
   42MOL0     O 5536  10.479  10.384   5.175  0.0852 -0.8949  0.0316
   42MOL0     C 5537  10.483  10.307   5.268 -0.5774  0.5292  0.3225
   42MOL0     O 5538  10.401  10.206   5.283  0.4404  0.5377 -0.2408
   42MOL0     C 5539  10.337  10.157   5.175 -0.4664  0.0902 -0.1030
   42MOL0     C 5540  10.247  10.239   5.107 -0.9638  0.3034 -0.6957
   42MOL0     C 5541  10.168  10.198   5.008  1.2059 -0.2272 -0.5472
   42MOL0     C 5542  10.178  10.070   4.963  0.1352  0.3863  1.3739
   42MOL0     O 5543  10.097  10.024   4.863 -0.5542 -0.4317 -0.0388
   42MOL0     C 5544  10.000  10.101   4.792  0.4341  0.6760  1.0075
   42MOL0     C 5545   9.907  10.002   4.714  0.1343  0.1168 -0.9126
   42MOL0     C 5546   9.785   9.941   4.790 -0.4266 -0.8488 -0.0429
   42MOL0     C 5547   9.709   9.834   4.715  1.6768  0.2930  0.3800
   42MOL0     C 5548   9.623   9.887   4.600  0.4365  0.6014 -0.0513
   42MOL0     C 5549   9.536   9.790   4.521  0.5015 -1.2796 -0.2610
   42MOL0     C 5550   9.631   9.682   4.464  0.8804  0.4251  0.2227
   42MOL0     C 5551   9.555   9.586   4.373 -0.9588 -0.0263  0.2458
   42MOL0     N 5552   9.502   9.467   4.445  1.1296  0.5416 -1.4676
   42MOL0     C 5553   9.380   9.456   4.504 -1.2024  0.2198  0.2273
   42MOL0     C 5554   9.382   9.343   4.573  0.1663 -0.1902  0.5778
   42MOL0     C 5555   9.281   9.280   4.667  0.0529 -0.6818  0.1622
   42MOL0     C 5556   9.143   9.337   4.651 -0.3044 -0.5323 -0.0135
   42MOL0     C 5557   9.041   9.263   4.745  0.4408 -0.2006  0.1500
   42MOL0     C 5558   8.929   9.191   4.668  0.2593  0.0128 -0.2803
   42MOL0     O 5559   8.852   9.134   4.771 -0.0394 -0.0719 -0.1668
   42MOL0     C 5560   8.765   9.033   4.745 -0.2040 -0.6495 -0.0609
   42MOL0     C 5561   8.733   8.979   4.622 -0.5703  0.0172  0.0045
   42MOL0     C 5562   8.659   8.859   4.609  0.6403  0.7863 -0.4901
   42MOL0     C 5563   8.633   8.808   4.472 -0.7413 -0.7949  0.1540
   42MOL0     C 5564   8.619   8.795   4.735  0.1087 -0.8817  0.4208
   42MOL0     C 5565   8.527   8.680   4.730 -1.3421 -0.3248  0.4656
   42MOL0     O 5566   8.424   8.673   4.637  0.2919 -0.0200 -0.7065
   42MOL0     C 5567   8.372   8.551   4.598 -0.6651  0.6331  0.5370
   42MOL0     C 5568   8.244   8.542   4.558  0.3707  0.2093  0.9947
   42MOL0     C 5569   8.179   8.417   4.515 -0.3799 -1.0361 -0.4455
   42MOL0     C 5570   8.261   8.307   4.492 -0.0808 -0.1324 -0.3482
   42MOL0     O 5571   8.213   8.184   4.441  0.0404  0.1131  0.3885
   42MOL0     C 5572   8.085   8.138   4.489  0.2144 -0.2778  0.0582
   42MOL0     C 5573   8.086   7.993   4.520  0.0255  0.2855  0.5900
   42MOL0     C 5574   8.129   7.899   4.395 -0.8511  0.0965  0.1731
   42MOL0     C 5575   8.197   7.768   4.449 -0.6804 -0.0470 -0.1332
   42MOL0     C 5576   8.223   7.663   4.334 -0.1377 -0.2225 -0.5679
   42MOL0     C 5577   8.308   7.555   4.387  0.4887 -0.0637  0.5159
   42MOL0     C 5578   8.350   7.450   4.273 -0.0346  0.2622 -1.1208
   42MOL0     C 5579   8.496   7.406   4.279 -1.1993  0.2902 -0.3493
   42MOL0    Cl 5580   8.557   7.403   4.105 -0.2291  0.3604  0.1847
   42MOL0     C 5581   8.396   8.318   4.521  0.1984 -0.5014  0.6629
   42MOL0     C 5582   8.451   8.433   4.582  0.2898  0.0700  0.2508
   42MOL0     O 5583   8.540   8.597   4.821  0.3065 -0.6153  0.6008
   42MOL0     C 5584   8.639   8.861   4.860 -0.5902 -0.1822 -0.6965
   42MOL0     C 5585   8.721   8.980   4.860 -0.6606  0.3192  0.1950
   42MOL0     N 5586   9.495   9.274   4.537  0.4214  0.1180  0.1457
   42MOL0     N 5587   9.571   9.347   4.454 -0.1082  0.9687  0.4580
   42MOL0     C 5588  10.270   9.977   5.026  0.5496  1.0171 -0.8651
   42MOL0     C 5589  10.352  10.028   5.131 -0.3205 -0.4606  0.5646
   42MOL0     C 5590  10.585  10.323   5.374  0.4009 -0.5418 -1.1986
   42MOL0     C 5591  10.565  10.311   5.516  0.1608 -0.7290 -0.5947
   42MOL0     C 5592  10.670  10.358   5.596  0.0640  0.9750  0.1032
   42MOL0     C 5593  10.791  10.399   5.545  0.0886  0.1721 -0.0579
   42MOL0     O 5594  10.891  10.439   5.631 -0.4091  0.0652 -0.3971
   42MOL0     C 5595  11.011  10.345   5.624 -1.5134 -0.3755  0.3799
   42MOL0     C 5596  11.119  10.374   5.728  0.7896  0.3001 -0.6034
   42MOL0     C 5597  11.227  10.270   5.713  0.2480 -0.2178 -1.2932
   42MOL0     C 5598  11.306  10.268   5.581 -0.4351 -0.2157 -0.3611
   42MOL0     C 5599  11.378  10.399   5.555  0.1274  0.2628  0.7854
   42MOL0     C 5600  11.438  10.500   5.541 -0.8925 -0.6831 -0.0693
   42MOL0     C 5601  10.814  10.394   5.403 -0.9644  1.1409 -0.4129
   42MOL0     C 5602  10.716  10.354   5.324  0.1799 -0.3567 -0.9202
   42MOL0     H 5603  10.238  10.339   5.148 -0.8845  0.3640 -0.8276
   42MOL0     H 5604  10.109  10.268   4.949  3.4115  1.2552 -1.1303
   42MOL0     H 5605   9.948  10.161   4.867  4.2655  2.3551  2.5279
   42MOL0     H 5606  10.038  10.180   4.727 -3.9815  0.6864 -2.0119
   42MOL0     H 5607   9.871  10.051   4.624 -0.2897 -2.2149 -2.1063
   42MOL0     H 5608   9.979   9.927   4.678  1.7171  0.1129  1.9156
   42MOL0     H 5609   9.831   9.893   4.877 -0.0907 -2.3146 -0.9944
   42MOL0     H 5610   9.721  10.024   4.821  2.9179  1.8852  0.0960
   42MOL0     H 5611   9.781   9.756   4.688  0.1937 -0.9807 -0.0758
   42MOL0     H 5612   9.629   9.797   4.781  0.7935  1.4041 -0.0296
   42MOL0     H 5613   9.564   9.965   4.649  0.3308  0.4446  0.0751
   42MOL0     H 5614   9.682   9.939   4.524  0.5775  3.0479  1.5993
   42MOL0     H 5615   9.467   9.747   4.594 -1.3205 -4.1968 -3.4136
   42MOL0     H 5616   9.485   9.845   4.442 -0.3616 -1.9744 -0.2112
   42MOL0     H 5617   9.710   9.726   4.404 -0.9471  2.4565 -0.8213
   42MOL0     H 5618   9.679   9.631   4.548 -2.9923 -1.2084  1.7012
   42MOL0     H 5619   9.625   9.553   4.296 -1.4490  0.0556 -0.2356
   42MOL0     H 5620   9.483   9.644   4.316 -0.6382  1.5862  1.4054
   42MOL0     H 5621   9.306   9.536   4.500  1.5881  2.9299 -1.4249
   42MOL0     H 5622   9.279   9.171   4.657  1.2240 -1.0788  3.2405
   42MOL0     H 5623   9.305   9.307   4.770  2.2598  2.7104 -1.1074
   42MOL0     H 5624   9.121   9.317   4.545  2.1715 -2.9329 -0.1701
   42MOL0     H 5625   9.142   9.444   4.673 -0.5186 -0.5917  0.2662
   42MOL0     H 5626   8.994   9.334   4.814  2.1947 -0.5815  1.8469
   42MOL0     H 5627   9.090   9.182   4.800  0.2092 -0.9558 -0.7246
   42MOL0     H 5628   8.967   9.117   4.597 -1.0762  1.4035 -2.6080
   42MOL0     H 5629   8.873   9.268   4.613 -0.2468 -0.0486  0.1420
   42MOL0     H 5630   8.764   9.023   4.528 -1.7308 -0.3029 -0.5510
   42MOL0     H 5631   8.634   8.698   4.469 -0.7345 -0.8434  1.5363
   42MOL0     H 5632   8.531   8.837   4.445 -0.9950 -2.8476 -1.3651
   42MOL0     H 5633   8.705   8.848   4.400 -1.2430 -0.6835 -0.2945
   42MOL0     H 5634   8.183   8.632   4.558 -1.9985 -1.3060  1.0527
   42MOL0     H 5635   8.074   8.413   4.488 -0.2359 -2.3981 -0.8839
   42MOL0     H 5636   8.060   8.185   4.584  1.6287 -0.7711  0.7006
   42MOL0     H 5637   8.009   8.139   4.410  3.1647 -2.7929 -3.1771
   42MOL0     H 5638   8.153   7.978   4.605  1.3149  1.8597 -0.0986
   42MOL0     H 5639   7.983   7.959   4.531  0.0704 -2.9471 -5.0612
   42MOL0     H 5640   8.200   7.946   4.326  1.1023 -1.3159  1.1425
   42MOL0     H 5641   8.049   7.877   4.323  1.2174 -0.6126 -2.0118
   42MOL0     H 5642   8.286   7.804   4.502 -1.4716  0.9285  0.6010
   42MOL0     H 5643   8.138   7.714   4.524 -1.7908  2.6956  1.1110
   42MOL0     H 5644   8.264   7.711   4.245 -0.7038 -1.6429 -1.6391
   42MOL0     H 5645   8.127   7.621   4.302  0.9750 -2.7790 -0.8527
   42MOL0     H 5646   8.393   7.600   4.439  0.0490 -0.5859  1.7082
   42MOL0     H 5647   8.260   7.498   4.467  1.3740  1.3584  2.1151
   42MOL0     H 5648   8.327   7.498   4.178  3.0094  3.2401 -0.5753
   42MOL0     H 5649   8.285   7.363   4.279  1.7878 -1.2341 -1.9332
   42MOL0     H 5650   8.523   7.312   4.328 -2.9002  0.2700  0.6281
   42MOL0     H 5651   8.553   7.485   4.328 -0.6637  0.3000 -0.9665
   42MOL0     H 5652   8.467   8.236   4.517 -1.2700 -1.8011 -0.2566
   42MOL0     H 5653   8.555   8.424   4.609  0.6742 -1.6304 -1.5612
   42MOL0     H 5654   8.612   8.807   4.951  0.6136 -0.8214 -0.6919
   42MOL0     H 5655   8.755   9.030   4.950 -0.4114  0.9468 -0.2408
   42MOL0     H 5656  10.276   9.875   4.990  2.1672  0.9788 -0.5508
   42MOL0     H 5657  10.420   9.962   5.183  2.4890  0.2589 -1.9265
   42MOL0     H 5658  10.475  10.273   5.564 -0.4357  0.1922 -0.9523
   42MOL0     H 5659  10.661  10.370   5.703 -3.1442  3.5528 -0.3039
   42MOL0     H 5660  10.980  10.240   5.623  1.9516 -1.6678 -4.4749
   42MOL0     H 5661  11.054  10.351   5.524  0.9022 -4.8965  0.8538
   42MOL0     H 5662  11.069  10.371   5.825  0.1447  2.8437 -0.7768
   42MOL0     H 5663  11.162  10.472   5.707  0.7383 -0.0826 -2.7634
   42MOL0     H 5664  11.183  10.170   5.717 -0.2128 -0.0020 -0.9544
   42MOL0     H 5665  11.297  10.266   5.796 -1.0969 -2.7987 -0.1656
   42MOL0     H 5666  11.235  10.234   5.506  1.9386 -1.2607 -2.2644
   42MOL0     H 5667  11.387  10.193   5.584 -1.8633 -1.8828 -1.6445
   42MOL0     H 5668  11.481  10.598   5.533  1.4816 -1.7712 -1.8600
   42MOL0     H 5669  10.910  10.428   5.367 -0.5423  1.0826  0.6082
   42MOL0     H 5670  10.734  10.354   5.217 -0.5530 -1.5159 -1.0664
   43MOL0     O 5671   3.742   1.517   2.531  0.5695  0.1271 -0.0507
   43MOL0     C 5672   3.717   1.503   2.651  0.5008  0.9236 -0.5272
   43MOL0     O 5673   3.729   1.598   2.753 -0.9591 -0.4435  0.1731
   43MOL0     C 5674   3.783   1.719   2.705  1.2813  0.6064 -1.0355
   43MOL0     C 5675   3.916   1.732   2.681  0.5326 -0.2779 -0.6428
   43MOL0     C 5676   3.967   1.853   2.634 -0.0536  0.8272 -1.1554
   43MOL0     C 5677   3.878   1.968   2.610  0.2824 -0.5183 -0.5356
   43MOL0     O 5678   3.939   2.090   2.597  0.4231 -0.0077 -0.0615
   43MOL0     C 5679   4.074   2.120   2.581 -0.3180  0.2258  0.3098
   43MOL0     C 5680   4.134   2.092   2.444 -0.3014 -1.0284 -0.1704
   43MOL0     C 5681   4.248   2.190   2.404  0.1179  0.3194 -0.0749
   43MOL0     C 5682   4.376   2.157   2.473  0.1974 -0.1615 -0.5610
   43MOL0     C 5683   4.483   2.257   2.425 -0.4755  0.1743 -0.4290
   43MOL0     C 5684   4.623   2.223   2.469 -0.7099  0.2983  1.0308
   43MOL0     C 5685   4.729   2.310   2.412  0.1360 -0.0538 -0.1942
   43MOL0     C 5686   4.755   2.417   2.510 -0.3648 -0.3240  0.4647
   43MOL0     N 5687   4.895   2.467   2.515 -0.4344  0.0643 -0.4795
   43MOL0     C 5688   4.932   2.597   2.548 -0.4002 -0.1498 -1.1207
   43MOL0     C 5689   5.066   2.606   2.557  0.4200  0.2421 -0.1679
   43MOL0     C 5690   5.156   2.727   2.591  0.1833 -0.0125 -0.4051
   43MOL0     C 5691   5.105   2.845   2.515  0.5664 -0.2469 -0.0332
   43MOL0     C 5692   5.012   2.933   2.600  0.0024 -0.1464  0.0210
   43MOL0     C 5693   4.893   3.000   2.533 -0.5191  0.0434 -0.1146
   43MOL0     O 5694   4.795   2.921   2.473 -0.2885  0.5426 -0.4442
   43MOL0     C 5695   4.707   2.987   2.383  0.1046  0.0910 -0.0960
   43MOL0     C 5696   4.578   3.012   2.411 -0.0222  0.5156 -1.2087
   43MOL0     C 5697   4.490   3.067   2.316 -0.2100  1.0162 -0.5146
   43MOL0     C 5698   4.347   3.076   2.363  0.5494  0.3418  1.0015
   43MOL0     C 5699   4.545   3.110   2.191 -0.0958 -1.1636  0.1618
   43MOL0     C 5700   4.475   3.159   2.068  0.6920  1.1238  0.5573
   43MOL0     O 5701   4.540   3.148   1.952  0.6208  0.7111  0.4612
   43MOL0     C 5702   4.470   3.157   1.831  0.0983 -0.2750  0.0144
   43MOL0     C 5703   4.392   3.047   1.783  0.3035  0.0682  0.1992
   43MOL0     C 5704   4.316   3.068   1.666 -1.0692  0.6722 -0.7208
   43MOL0     C 5705   4.319   3.194   1.598 -0.4773 -0.3950 -0.7449
   43MOL0     O 5706   4.245   3.221   1.484  0.3541 -0.3871 -0.0299
   43MOL0     C 5707   4.134   3.143   1.461  0.4985  1.1611 -0.2041
   43MOL0     C 5708   4.070   3.197   1.332  0.7513  0.0943 -1.4031
   43MOL0     C 5709   3.989   3.322   1.364  0.0271  0.4382  0.2062
   43MOL0     C 5710   3.906   3.387   1.250 -0.1599  0.5428 -0.3318
   43MOL0     C 5711   3.829   3.507   1.304 -0.6139 -0.6487  0.5393
   43MOL0     C 5712   3.705   3.493   1.397  0.0654  0.5313 -0.2859
   43MOL0     C 5713   3.697   3.611   1.499 -0.1680 -0.1568  0.4834
   43MOL0     C 5714   3.638   3.749   1.451  0.0160  0.5157  0.0487
   43MOL0    Cl 5715   3.480   3.715   1.393 -0.5607  0.6151 -0.1051
   43MOL0     C 5716   4.398   3.298   1.659  0.3994 -0.0323  0.2976
   43MOL0     C 5717   4.470   3.280   1.769  0.0746  0.1788  0.7738
   43MOL0     O 5718   4.350   3.175   2.075 -0.5991 -0.5587 -0.3478
   43MOL0     C 5719   4.677   3.096   2.173 -0.0649 -0.1306  0.3349
   43MOL0     C 5720   4.754   3.036   2.262  0.0100 -0.1072 -0.6067
   43MOL0     N 5721   5.110   2.480   2.526 -0.0826  0.3344 -0.4098
   43MOL0     N 5722   5.011   2.396   2.502 -0.2742 -0.8226 -0.7430
   43MOL0     C 5723   3.747   1.959   2.636  0.4683 -0.2617  0.5177
   43MOL0     C 5724   3.705   1.835   2.683 -0.0021  0.0676 -0.9535
   43MOL0     C 5725   3.675   1.367   2.687  0.0519  0.0241  0.7691
   43MOL0     C 5726   3.763   1.274   2.744 -0.2894  0.0994 -0.2206
   43MOL0     C 5727   3.716   1.152   2.789 -0.6825  0.9112  0.5655
   43MOL0     C 5728   3.586   1.116   2.759 -0.1855 -0.2561  0.8445
   43MOL0     O 5729   3.549   0.984   2.783  0.2856 -0.3081 -0.2941
   43MOL0     C 5730   3.409   0.949   2.794 -1.5214  0.7227  0.7188
   43MOL0     C 5731   3.379   0.799   2.805 -0.8696  0.3115 -0.5120
   43MOL0     C 5732   3.484   0.724   2.722 -0.2530  0.5158  0.0795
   43MOL0     C 5733   3.440   0.581   2.735  0.6249  0.0462  0.7790
   43MOL0     C 5734   3.550   0.494   2.693  0.3565  0.7687  0.0708
   43MOL0     C 5735   3.646   0.424   2.665  0.4403  0.1635  0.9519
   43MOL0     C 5736   3.498   1.204   2.693  0.3445 -0.5151  0.5286
   43MOL0     C 5737   3.539   1.327   2.667 -0.3130 -0.1276 -1.5846
   43MOL0     H 5738   3.978   1.644   2.689 -1.0187 -1.5320 -1.8691
   43MOL0     H 5739   4.076   1.862   2.636  0.0938 -0.4680  2.5876
   43MOL0     H 5740   4.078   2.227   2.605 -2.2641  0.4217 -0.0463
   43MOL0     H 5741   4.133   2.071   2.659  1.8761  1.0685 -0.7557
   43MOL0     H 5742   4.164   1.987   2.443 -0.3751 -1.0686  0.7841
   43MOL0     H 5743   4.055   2.114   2.371 -0.5282  0.5789  0.5079
   43MOL0     H 5744   4.259   2.186   2.295  1.3283  2.4301 -0.0920
   43MOL0     H 5745   4.220   2.290   2.439 -0.4757 -0.2817  1.2379
   43MOL0     H 5746   4.372   2.175   2.580  3.7916 -3.2952  0.3514
   43MOL0     H 5747   4.404   2.053   2.454 -1.5236 -0.3948 -2.1807
   43MOL0     H 5748   4.481   2.250   2.316 -0.5911 -0.8824 -0.3615
   43MOL0     H 5749   4.464   2.363   2.447 -1.7708  0.1517 -1.3403
   43MOL0     H 5750   4.636   2.192   2.573 -0.0719 -0.0661  0.8462
   43MOL0     H 5751   4.629   2.127   2.416 -3.4369  0.1283  0.8984
   43MOL0     H 5752   4.817   2.244   2.411  1.4176  1.6034 -0.6651
   43MOL0     H 5753   4.716   2.354   2.313  1.8577  1.1880  0.0828
   43MOL0     H 5754   4.736   2.383   2.613 -0.4683  1.0493  0.9295
   43MOL0     H 5755   4.677   2.493   2.502 -0.2407 -0.0735  1.4408
   43MOL0     H 5756   4.856   2.674   2.564 -1.5978 -1.2057 -1.5709
   43MOL0     H 5757   5.160   2.753   2.698 -1.9240  0.5419 -0.4317
   43MOL0     H 5758   5.259   2.702   2.561  1.0144 -0.5190  2.5163
   43MOL0     H 5759   5.048   2.805   2.431  0.9169 -3.1064  0.9903
   43MOL0     H 5760   5.193   2.909   2.500  2.9754 -2.7580  2.2984
   43MOL0     H 5761   5.074   3.007   2.652 -0.8628  1.1008 -0.6429
   43MOL0     H 5762   4.961   2.874   2.676  1.4322 -0.1163  1.0393
   43MOL0     H 5763   4.954   3.061   2.466  2.4766 -1.0918  1.3628
   43MOL0     H 5764   4.842   3.066   2.603 -2.5873 -1.0714 -0.4884
   43MOL0     H 5765   4.553   2.985   2.513  1.1494 -1.5955 -1.4118
   43MOL0     H 5766   4.298   2.988   2.321  1.7179  0.0860  0.0912
   43MOL0     H 5767   4.326   3.096   2.468  0.2405  0.4166  0.9272
   43MOL0     H 5768   4.298   3.160   2.313  3.3941  3.6843  3.3067
   43MOL0     H 5769   4.387   2.950   1.832 -0.7522 -0.2288 -0.4807
   43MOL0     H 5770   4.256   2.980   1.645  2.1513 -1.1932 -3.0714
   43MOL0     H 5771   4.160   3.043   1.426  0.4258  1.8071 -2.2329
   43MOL0     H 5772   4.066   3.145   1.547 -0.3423  0.6934 -0.8424
   43MOL0     H 5773   4.148   3.198   1.256  2.0451  0.2611 -0.1222
   43MOL0     H 5774   3.992   3.126   1.301  1.6417 -1.2325 -0.7180
   43MOL0     H 5775   4.050   3.396   1.416 -0.6531  1.8494 -0.9357
   43MOL0     H 5776   3.911   3.301   1.438 -1.2491 -0.3874 -1.3170
   43MOL0     H 5777   3.983   3.416   1.177 -0.0856 -0.1616 -0.5363
   43MOL0     H 5778   3.835   3.321   1.200 -1.4910  1.5922  0.1091
   43MOL0     H 5779   3.807   3.570   1.217  1.4360  0.6895  0.9282
   43MOL0     H 5780   3.896   3.563   1.369  0.6181  0.3035 -1.4626
   43MOL0     H 5781   3.618   3.487   1.330  0.3388 -0.5788 -0.5638
   43MOL0     H 5782   3.708   3.403   1.458  1.0231  0.9866  0.3613
   43MOL0     H 5783   3.795   3.631   1.543 -0.2908 -0.2669  0.8151
   43MOL0     H 5784   3.634   3.583   1.584  2.0850 -1.7545  1.7407
   43MOL0     H 5785   3.684   3.792   1.362 -0.2175  1.6456  0.4604
   43MOL0     H 5786   3.631   3.829   1.525 -1.7418  3.3136 -2.8678
   43MOL0     H 5787   4.407   3.396   1.614  0.7825 -0.9611 -1.7530
   43MOL0     H 5788   4.527   3.364   1.808  0.8577  0.1888 -0.3536
   43MOL0     H 5789   4.726   3.127   2.081  0.1447 -1.2501  0.0544
   43MOL0     H 5790   4.860   3.022   2.242  0.3516  2.0684 -0.5808
   43MOL0     H 5791   3.680   2.044   2.631  0.4208 -0.3602 -1.7485
   43MOL0     H 5792   3.598   1.831   2.703  0.3112 -2.2034  0.6635
   43MOL0     H 5793   3.865   1.294   2.773 -0.4939 -0.2940  0.8307
   43MOL0     H 5794   3.791   1.086   2.831  3.8481  2.8325 -3.4530
   43MOL0     H 5795   3.381   0.998   2.888  0.6593  3.2522  0.1739
   43MOL0     H 5796   3.353   0.972   2.703 -1.3555 -2.7371 -0.3941
   43MOL0     H 5797   3.281   0.785   2.759 -0.2966  1.3883 -2.1624
   43MOL0     H 5798   3.378   0.763   2.908  1.1830 -1.9427 -1.1957
   43MOL0     H 5799   3.586   0.732   2.761  0.6106 -3.3955 -0.9593
   43MOL0     H 5800   3.484   0.744   2.614 -1.7380 -1.9103 -0.4290
   43MOL0     H 5801   3.351   0.559   2.676  1.2933  4.1807 -2.2447
   43MOL0     H 5802   3.422   0.548   2.838  2.0278 -1.8604  0.4659
   43MOL0     H 5803   3.725   0.362   2.626  0.6355  1.6580 -1.2046
   43MOL0     H 5804   3.394   1.190   2.664 -0.4288  4.3286  0.0126
   43MOL0     H 5805   3.475   1.401   2.620 -0.8155  1.0941  0.8780
   44MOL0     O 5806   9.577   2.867   6.239 -0.7012  0.0082  0.0048
   44MOL0     C 5807   9.693   2.819   6.219  0.0815  0.4858 -0.2588
   44MOL0     O 5808   9.762   2.747   6.318 -0.3652  0.8873 -0.1305
   44MOL0     C 5809   9.697   2.703   6.436  0.5361  0.5341 -1.0796
   44MOL0     C 5810   9.568   2.740   6.488  0.3359 -0.4330 -0.5056
   44MOL0     C 5811   9.522   2.680   6.610  0.3463  0.5353  0.5112
   44MOL0     C 5812   9.602   2.580   6.669 -0.1529 -0.0932 -0.4983
   44MOL0     O 5813   9.571   2.518   6.790  0.6277  0.3499 -0.3418
   44MOL0     C 5814   9.436   2.512   6.840  0.3289 -0.3470 -0.2955
   44MOL0     C 5815   9.427   2.429   6.969 -0.7474  1.9212  0.5956
   44MOL0     C 5816   9.425   2.278   6.937  0.4871 -0.2353 -0.1378
   44MOL0     C 5817   9.402   2.190   7.064  0.4638  0.7242  0.1024
   44MOL0     C 5818   9.379   2.048   7.035  0.1037 -0.3731  0.0889
   44MOL0     C 5819   9.375   1.955   7.164 -1.2570 -0.1386 -0.2373
   44MOL0     C 5820   9.367   1.799   7.136  0.6099 -0.1027  0.4613
   44MOL0     C 5821   9.266   1.757   7.034  0.7868  0.2348 -0.0355
   44MOL0     N 5822   9.122   1.789   7.071  0.2125 -0.3650  0.6052
   44MOL0     C 5823   9.048   1.871   6.989  0.6045  0.2896 -0.0849
   44MOL0     C 5824   8.917   1.858   7.033  0.5905  0.3027  0.1865
   44MOL0     C 5825   8.790   1.931   6.990 -0.1858  0.9275 -0.1029
   44MOL0     C 5826   8.716   1.858   6.877 -0.0376 -0.2148  0.3626
   44MOL0     C 5827   8.783   1.849   6.745  0.4942  0.2363  0.1462
   44MOL0     C 5828   8.796   1.978   6.667  0.5256  0.0090 -0.1698
   44MOL0     O 5829   8.930   2.027   6.688  0.4831 -0.2310  1.0663
   44MOL0     C 5830   9.021   1.979   6.602  0.4908 -0.1871 -0.1441
   44MOL0     C 5831   9.000   1.874   6.498  1.0905 -0.3073 -0.2905
   44MOL0     C 5832   9.088   1.845   6.404 -0.0162  0.4709 -0.2629
   44MOL0     C 5833   9.057   1.733   6.314 -0.6118 -0.1654  0.7631
   44MOL0     C 5834   9.209   1.920   6.388  0.7481  0.5844 -0.7327
   44MOL0     C 5835   9.308   1.899   6.273  0.7621 -0.7603  1.1752
   44MOL0     O 5836   9.433   1.954   6.292 -0.3210  0.1763  0.0092
   44MOL0     C 5837   9.515   1.931   6.184  0.6773 -0.0268  1.2381
   44MOL0     C 5838   9.590   1.818   6.172  0.2986  0.9709  0.7557
   44MOL0     C 5839   9.664   1.798   6.061 -0.0323 -0.2583 -0.3084
   44MOL0     C 5840   9.688   1.896   5.969  0.3304 -0.6176  0.5027
   44MOL0     O 5841   9.761   1.887   5.861  0.3074  0.4168 -0.7436
   44MOL0     C 5842   9.866   1.791   5.855 -0.1740  0.2466  0.3461
   44MOL0     C 5843   9.973   1.854   5.765 -0.2702  0.7680  0.1477
   44MOL0     C 5844  10.104   1.790   5.754  1.1891 -0.5686  0.5868
   44MOL0     C 5845  10.191   1.821   5.641 -0.0734 -0.6604 -0.8909
   44MOL0     C 5846  10.310   1.724   5.628  0.2800  0.5473 -0.3951
   44MOL0     C 5847  10.408   1.753   5.510 -1.4838 -0.0052  0.2848
   44MOL0     C 5848  10.538   1.678   5.537 -0.3161 -0.7418 -0.3480
   44MOL0     C 5849  10.638   1.690   5.420  0.0165 -0.1799 -0.5184
   44MOL0    Cl 5850  10.802   1.609   5.435 -0.2521  0.0043  0.0562
   44MOL0     C 5851   9.620   2.013   5.982  1.5838  0.5731 -0.0777
   44MOL0     C 5852   9.537   2.034   6.095  0.3213 -0.0653 -0.6547
   44MOL0     O 5853   9.276   1.835   6.172 -0.8314  0.3401  0.2723
   44MOL0     C 5854   9.227   2.026   6.478  0.0379  0.9838 -0.3713
   44MOL0     C 5855   9.138   2.052   6.592 -0.1065  0.0662  1.2133
   44MOL0     N 5856   8.916   1.764   7.138 -0.6906 -0.5327  0.1745
   44MOL0     N 5857   9.039   1.723   7.159  0.0391 -0.0180  0.2644
   44MOL0     C 5858   9.720   2.540   6.612  0.1963  0.2875 -0.6177
   44MOL0     C 5859   9.771   2.607   6.498  0.4514 -0.8139 -0.0535
   44MOL0     C 5860   9.758   2.844   6.097  0.0294  0.4641  0.7582
   44MOL0     C 5861   9.875   2.768   6.064  1.3000  0.1067 -0.3736
   44MOL0     C 5862   9.916   2.778   5.933 -0.2894  0.0539  0.3267
   44MOL0     C 5863   9.856   2.859   5.838 -0.5054 -0.4333  0.2941
   44MOL0     O 5864   9.877   2.860   5.697 -0.0407 -0.1508  0.0464
   44MOL0     C 5865   9.959   2.765   5.629 -0.0851  0.3644  0.3860
   44MOL0     C 5866   9.961   2.789   5.482 -0.1216 -0.2599 -0.4937
   44MOL0     C 5867   9.828   2.749   5.415  0.2291  0.3619 -0.2867
   44MOL0     C 5868   9.714   2.862   5.454 -1.1480  0.7126  0.2742
   44MOL0     C 5869   9.591   2.850   5.366 -0.4375  0.0887 -0.4606
   44MOL0     C 5870   9.495   2.843   5.292  0.0005 -0.5278 -1.0764
   44MOL0     C 5871   9.760   2.945   5.876  0.7821  0.0342 -0.1681
   44MOL0     C 5872   9.715   2.938   6.005  0.6575 -0.9314 -0.7485
   44MOL0     H 5873   9.496   2.811   6.448  1.3847  0.8776 -0.1642
   44MOL0     H 5874   9.422   2.701   6.647  0.1311 -0.9998  0.8623
   44MOL0     H 5875   9.408   2.617   6.854  0.6946 -0.0277 -1.7936
   44MOL0     H 5876   9.373   2.468   6.762 -1.0556  0.6226  0.2360
   44MOL0     H 5877   9.506   2.456   7.039 -1.6955  2.4104  1.5094
   44MOL0     H 5878   9.343   2.461   7.031  0.3403  0.9587  2.6806
   44MOL0     H 5879   9.333   2.260   6.881 -1.3457  0.3333  2.4803
   44MOL0     H 5880   9.519   2.251   6.887  0.3956 -1.7723  0.4534
   44MOL0     H 5881   9.495   2.203   7.120 -0.4498  3.0264  1.1908
   44MOL0     H 5882   9.315   2.227   7.119  0.3324 -2.4352  2.2763
   44MOL0     H 5883   9.287   2.037   6.977  1.6226 -3.6501 -1.9630
   44MOL0     H 5884   9.462   2.019   6.970 -1.9387 -0.4304 -2.6820
   44MOL0     H 5885   9.468   1.960   7.220 -2.8676  0.3758  2.5489
   44MOL0     H 5886   9.291   1.984   7.228 -1.1027 -0.5507  0.1560
   44MOL0     H 5887   9.465   1.762   7.107  1.7055  3.7709 -1.4495
   44MOL0     H 5888   9.334   1.745   7.226  1.2260  1.0673  1.4222
   44MOL0     H 5889   9.275   1.648   7.039  1.3157 -0.1308 -4.7410
   44MOL0     H 5890   9.295   1.797   6.937  2.1395  1.6920  0.9257
   44MOL0     H 5891   9.081   1.930   6.904 -1.0476 -0.4010 -1.2637
   44MOL0     H 5892   8.729   1.935   7.081  0.7809  3.6005  0.5233
   44MOL0     H 5893   8.816   2.033   6.960  1.8312  0.3915 -0.3737
   44MOL0     H 5894   8.625   1.917   6.856  0.1990  0.4896  1.2541
   44MOL0     H 5895   8.683   1.766   6.925  0.1643  0.2423  1.3951
   44MOL0     H 5896   8.728   1.783   6.677  1.3402 -0.1650 -0.1629
   44MOL0     H 5897   8.876   1.791   6.752 -0.1377 -0.9147 -0.6513
   44MOL0     H 5898   8.729   2.062   6.688  2.4120  2.1259 -2.0804
   44MOL0     H 5899   8.779   1.969   6.559 -0.4017  1.3306 -0.1524
   44MOL0     H 5900   8.916   1.806   6.503  1.9561 -1.4030 -0.1125
   44MOL0     H 5901   9.143   1.668   6.292 -1.0138 -0.0113 -1.5209
   44MOL0     H 5902   8.974   1.668   6.340  0.9608 -3.6762 -2.1349
   44MOL0     H 5903   9.031   1.779   6.218  0.1573 -0.6045  0.3284
   44MOL0     H 5904   9.571   1.738   6.244 -1.7476  0.5833 -0.1438
   44MOL0     H 5905   9.717   1.704   6.052  3.4509  1.3523  1.1597
   44MOL0     H 5906   9.902   1.782   5.958 -0.0409  1.0847  0.3760
   44MOL0     H 5907   9.833   1.696   5.813  0.3826  0.5520 -0.7973
   44MOL0     H 5908   9.935   1.866   5.663 -1.4513  3.6646  0.8118
   44MOL0     H 5909   9.981   1.958   5.799 -1.7139  0.5200  1.4023
   44MOL0     H 5910  10.083   1.684   5.737 -1.8380  0.2730 -1.7770
   44MOL0     H 5911  10.155   1.808   5.849 -0.7242  0.0659  1.5390
   44MOL0     H 5912  10.133   1.816   5.548  0.8876 -1.3696 -1.4811
   44MOL0     H 5913  10.234   1.920   5.655  0.9912 -0.6412 -3.6947
   44MOL0     H 5914  10.283   1.619   5.637  1.5061  0.4166  4.3910
   44MOL0     H 5915  10.363   1.740   5.722 -1.2340 -2.0999  1.0114
   44MOL0     H 5916  10.366   1.724   5.413 -0.0924  4.0807 -1.8149
   44MOL0     H 5917  10.421   1.862   5.514  1.8830 -0.2428 -1.0682
   44MOL0     H 5918  10.535   1.571   5.555  0.7846 -0.7042  0.1905
   44MOL0     H 5919  10.578   1.729   5.626 -1.7408  3.2333 -1.7606
   44MOL0     H 5920  10.650   1.794   5.388  1.9544  0.2150  1.3069
   44MOL0     H 5921  10.596   1.635   5.336  2.2362  1.6704 -3.0014
   44MOL0     H 5922   9.628   2.086   5.902 -1.2533  0.9379 -0.1466
   44MOL0     H 5923   9.485   2.128   6.111  0.8532  0.5918 -2.6155
   44MOL0     H 5924   9.316   2.089   6.474  0.5181  0.3433 -0.1049
   44MOL0     H 5925   9.159   2.138   6.655  0.1145 -0.1350  1.4195
   44MOL0     H 5926   9.788   2.473   6.663 -2.3694  0.2431  3.1616
   44MOL0     H 5927   9.874   2.585   6.473  0.3407  1.3116 -2.9185
   44MOL0     H 5928   9.925   2.696   6.127  1.0982  0.9302  0.7544
   44MOL0     H 5929   9.999   2.716   5.903 -1.2463  0.6909 -4.4721
   44MOL0     H 5930  10.061   2.755   5.666 -0.9279 -0.4378  2.6690
   44MOL0     H 5931   9.914   2.669   5.657 -1.7602  0.8454 -0.5274
   44MOL0     H 5932  10.040   2.727   5.439  1.3022 -1.6889  3.7031
   44MOL0     H 5933   9.997   2.887   5.450  1.0950 -0.5436 -0.0297
   44MOL0     H 5934   9.797   2.650   5.449 -3.0711  0.2918 -2.9069
   44MOL0     H 5935   9.842   2.747   5.307  2.0358 -1.7888 -0.0721
   44MOL0     H 5936   9.758   2.962   5.445 -1.4787  0.8070 -0.3885
   44MOL0     H 5937   9.686   2.836   5.556  0.5206  0.8329  0.7896
   44MOL0     H 5938   9.411   2.849   5.225  0.0178 -0.4345 -1.0906
   44MOL0     H 5939   9.721   3.021   5.809 -1.8555  0.3311  1.5506
   44MOL0     H 5940   9.638   3.010   6.029  2.3882  0.5961  0.5737
   45MOL0     O 5941   1.489   9.530   9.301  0.3943  0.6755  0.6286
   45MOL0     C 5942   1.464   9.621   9.221  0.3120  0.0154 -0.7503
   45MOL0     O 5943   1.375   9.728   9.250  0.5904 -0.0064 -0.4484
   45MOL0     C 5944   1.308   9.738   9.368  0.3206 -0.2080 -0.6381
   45MOL0     C 5945   1.173   9.785   9.363 -0.2571  0.5497 -0.3201
   45MOL0     C 5946   1.112   9.812   9.490 -0.0614 -1.6588 -0.0072
   45MOL0     C 5947   1.176   9.791   9.615 -0.7702 -0.4052 -0.0464
   45MOL0     O 5948   1.098   9.815   9.721 -0.4803 -0.2429 -0.4822
   45MOL0     C 5949   1.154   9.809   9.856 -0.8389  0.5858  0.9854
   45MOL0     C 5950   1.056   9.865   9.956 -0.1979  0.3851  0.6611
   45MOL0     C 5951   1.091   9.841  10.103 -0.2228 -0.8800 -0.8434
   45MOL0     C 5952   0.974   9.902  10.195  0.2493 -0.7376 -0.4192
   45MOL0     C 5953   0.991   9.870  10.342 -0.7968  0.0348  0.3061
   45MOL0     C 5954   0.867   9.930  10.411  1.4978  0.6224 -0.0563
   45MOL0     C 5955   0.872   9.923  10.570 -0.3456 -0.1648  0.4814
   45MOL0     C 5956   0.967  10.035  10.620  0.1166 -0.6212  0.5951
   45MOL0     N 5957   0.963  10.033  10.765 -0.5850  0.5297  0.6541
   45MOL0     C 5958   0.863  10.079  10.852 -0.2062  0.5583  0.7425
   45MOL0     C 5959   0.916  10.100  10.971 -0.4552  1.5649 -0.9472
   45MOL0     C 5960   0.876  10.166  11.107  0.0836 -0.2587 -0.7741
   45MOL0     C 5961   0.920  10.091  11.237 -1.4296 -0.1359 -0.0375
   45MOL0     C 5962   0.857  10.123  11.369 -0.7572  0.0701 -0.0821
   45MOL0     C 5963   0.859  10.276  11.414 -0.5510 -0.4626 -0.1985
   45MOL0     O 5964   0.802  10.297  11.544  0.0536 -0.8311 -0.0308
   45MOL0     C 5965   0.852  10.223  11.647 -0.2522 -0.3541  1.3775
   45MOL0     C 5966   0.765  10.188  11.751 -0.2060  0.1952  0.6063
   45MOL0     C 5967   0.809  10.123  11.867 -0.1000  0.0496  0.8201
   45MOL0     C 5968   0.712  10.105  11.969  0.5812  0.5566  0.0243
   45MOL0     C 5969   0.947  10.071  11.868 -0.2256 -0.4625 -0.0435
   45MOL0     C 5970   1.009   9.996  11.985  0.0861  0.4678  1.2476
   45MOL0     O 5971   1.119   9.921  11.948  0.2232  0.0125  0.1251
   45MOL0     C 5972   1.179   9.851  12.048 -0.2353  1.3674  0.0865
   45MOL0     C 5973   1.104   9.737  12.093  0.3162 -0.2029 -0.0135
   45MOL0     C 5974   1.177   9.663  12.178 -0.0179 -0.5582  0.1417
   45MOL0     C 5975   1.304   9.702  12.228 -0.2328 -1.2452 -0.0285
   45MOL0     O 5976   1.380   9.633  12.320 -0.6857  0.0198  1.0079
   45MOL0     C 5977   1.319   9.540  12.407 -1.2696 -0.3825  0.6000
   45MOL0     C 5978   1.359   9.588  12.543 -0.0385  0.1260  0.7257
   45MOL0     C 5979   1.510   9.589  12.569  0.8878 -0.1138  0.3919
   45MOL0     C 5980   1.546   9.593  12.716  1.0008  0.4258 -0.0327
   45MOL0     C 5981   1.700   9.611  12.734  0.3476 -0.4582 -0.6699
   45MOL0     C 5982   1.802   9.546  12.640  0.2147 -0.6907  0.0762
   45MOL0     C 5983   1.948   9.571  12.669 -0.2288 -0.1238 -1.0960
   45MOL0     C 5984   1.993   9.551  12.807 -0.8386  0.4126 -0.4519
   45MOL0    Cl 5985   1.999   9.386  12.830  0.1089 -0.1247 -0.4335
   45MOL0     C 5986   1.358   9.817  12.186 -1.1053 -0.2384  0.4715
   45MOL0     C 5987   1.302   9.892  12.090 -0.2850 -0.6129 -0.0514
   45MOL0     O 5988   0.967  10.012  12.100  0.8289  0.9075 -0.6253
   45MOL0     C 5989   1.034  10.099  11.757 -0.3100 -0.2895 -0.0924
   45MOL0     C 5990   0.979  10.173  11.652  0.1635  0.2466 -0.3412
   45MOL0     N 5991   1.035  10.051  10.964 -0.3688  0.8249  0.6276
   45MOL0     N 5992   1.069  10.010  10.840  0.2551 -0.0303 -0.0027
   45MOL0     C 5993   1.308   9.753   9.610 -0.0202 -0.2334  0.4828
   45MOL0     C 5994   1.371   9.726   9.490 -0.4552 -0.1436 -0.1222
   45MOL0     C 5995   1.563   9.636   9.112 -0.3825 -0.1876 -0.1052
   45MOL0     C 5996   1.692   9.585   9.118  0.2032  0.6701  1.2615
   45MOL0     C 5997   1.781   9.595   9.010 -0.1748 -0.7918 -0.6653
   45MOL0     C 5998   1.751   9.679   8.902 -0.9817  0.0287 -0.5764
   45MOL0     O 5999   1.830   9.700   8.798 -0.0093  0.0657  0.6084
   45MOL0     C 6000   1.956   9.641   8.798 -0.5342  0.8076  1.0685
   45MOL0     C 6001   2.034   9.706   8.671  0.1298  0.1568 -0.3863
   45MOL0     C 6002   2.005   9.865   8.656 -0.1775  1.4207  0.2325
   45MOL0     C 6003   2.112   9.936   8.562 -0.4485  0.4715  0.5635
   45MOL0     C 6004   2.109   9.887   8.423 -0.2434  0.0322  0.2328
   45MOL0     C 6005   2.116   9.841   8.312  0.3506 -0.0894  0.5426
   45MOL0     C 6006   1.633   9.741   8.906  0.9756 -0.4824 -0.4062
   45MOL0     C 6007   1.534   9.704   8.999 -0.7748 -0.4828  0.8020
   45MOL0     H 6008   1.118   9.806   9.271  0.7988  0.6896 -0.9299
   45MOL0     H 6009   1.014   9.860   9.487 -0.2034 -1.9659 -0.3774
   45MOL0     H 6010   1.188   9.710   9.887 -1.5092 -0.8117 -2.2786
   45MOL0     H 6011   1.239   9.878   9.863 -1.0635  1.2399 -1.5333
   45MOL0     H 6012   1.069   9.971   9.936  0.0419  0.1067 -0.7414
   45MOL0     H 6013   0.956   9.835   9.924  0.9999 -2.4926 -0.7803
   45MOL0     H 6014   1.105   9.733  10.118 -0.1255 -0.8079 -0.4099
   45MOL0     H 6015   1.180   9.897  10.132 -1.8456  0.8730  1.0481
   45MOL0     H 6016   0.965  10.010  10.180 -0.4359 -0.9843 -2.1396
   45MOL0     H 6017   0.877   9.868  10.156 -0.0915  1.2916 -1.4891
   45MOL0     H 6018   0.982   9.761  10.350  1.1390 -0.1628  0.1727
   45MOL0     H 6019   1.094   9.885  10.374 -0.1929 -2.6051 -0.1199
   45MOL0     H 6020   0.850  10.032  10.376 -1.3042  0.3875  0.3922
   45MOL0     H 6021   0.777   9.876  10.378  1.4647  0.2897  0.5527
   45MOL0     H 6022   0.767   9.928  10.601 -0.7150 -0.2747 -0.6894
   45MOL0     H 6023   0.911   9.827  10.605 -1.6453 -0.0473  2.3969
   45MOL0     H 6024   0.944  10.138  10.593  2.1133  0.7802  3.6063
   45MOL0     H 6025   1.069  10.012  10.587 -0.0007 -0.4197  0.0969
   45MOL0     H 6026   0.765  10.113  10.819 -0.5547 -3.2454 -3.2537
   45MOL0     H 6027   0.931  10.260  11.118 -2.0443  0.8372  1.3419
   45MOL0     H 6028   0.768  10.177  11.108 -0.3464 -3.3770  1.0643
   45MOL0     H 6029   1.029  10.084  11.249 -1.3028  0.2315 -0.9199
   45MOL0     H 6030   0.911   9.986  11.208  1.2244 -0.1318 -1.1961
   45MOL0     H 6031   0.904  10.064  11.448 -0.1397 -0.9727 -1.1903
   45MOL0     H 6032   0.752  10.093  11.369 -0.9590  0.7280 -1.3947
   45MOL0     H 6033   0.805  10.338  11.342  0.9224  2.3179  0.8981
   45MOL0     H 6034   0.961  10.317  11.407 -0.0911 -1.7984 -2.1183
   45MOL0     H 6035   0.668  10.236  11.747 -0.0543  0.4255 -0.4459
   45MOL0     H 6036   0.719  10.000  11.999  0.1958  0.1037 -1.3972
   45MOL0     H 6037   0.742  10.169  12.052 -1.1453 -2.1882  3.0259
   45MOL0     H 6038   0.610  10.127  11.939  0.6313 -0.0519 -0.6276
   45MOL0     H 6039   1.026   9.692  12.032  1.1007  3.3638 -4.1097
   45MOL0     H 6040   1.133   9.572  12.216 -0.1361  0.3331  2.2406
   45MOL0     H 6041   1.210   9.527  12.399 -1.8325  3.3045  0.6962
   45MOL0     H 6042   1.363   9.441  12.391 -0.7997 -0.0543 -0.1519
   45MOL0     H 6043   1.313   9.687  12.558  1.1016  1.0234 -1.2978
   45MOL0     H 6044   1.332   9.513  12.617 -1.2863 -0.0859  0.0776
   45MOL0     H 6045   1.561   9.673  12.521  0.7396 -1.1006 -1.5761
   45MOL0     H 6046   1.560   9.505  12.520 -0.3033 -0.4590 -0.2775
   45MOL0     H 6047   1.496   9.672  12.772  1.1032 -0.9078  2.0461
   45MOL0     H 6048   1.516   9.502  12.769  0.9198  0.7107  0.4200
   45MOL0     H 6049   1.708   9.575  12.837 -1.4473 -2.2113 -1.0841
   45MOL0     H 6050   1.730   9.715  12.745 -3.2302  0.4675  2.6127
   45MOL0     H 6051   1.789   9.437  12.639  1.2869 -0.9958  3.6052
   45MOL0     H 6052   1.780   9.576  12.537 -1.3664 -0.8531  0.3287
   45MOL0     H 6053   1.958   9.674  12.635 -5.0170  0.6532 -0.9094
   45MOL0     H 6054   2.018   9.514  12.607 -0.0284 -1.2836  0.1561
   45MOL0     H 6055   1.927   9.589  12.884 -0.9496 -2.2870  0.9144
   45MOL0     H 6056   2.090   9.597  12.829  0.0277 -1.0693 -0.9495
   45MOL0     H 6057   1.461   9.837  12.215 -0.3689 -2.0970 -0.6903
   45MOL0     H 6058   1.361   9.978  12.060 -0.9717  0.6389  2.0218
   45MOL0     H 6059   1.136  10.064  11.769 -0.4783  0.2174  4.0891
   45MOL0     H 6060   1.051  10.187  11.572  0.4135 -1.2407 -0.4025
   45MOL0     H 6061   1.355   9.745   9.708 -0.0198  0.4612  0.5418
   45MOL0     H 6062   1.477   9.703   9.493 -0.1140  1.3222 -0.1630
   45MOL0     H 6063   1.730   9.550   9.213 -2.8293  0.8061  2.6217
   45MOL0     H 6064   1.882   9.554   9.017  0.1251 -0.1451 -1.1548
   45MOL0     H 6065   2.015   9.655   8.889  1.1825  2.1360 -0.1600
   45MOL0     H 6066   1.955   9.535   8.772  0.3672  0.7335  1.2994
   45MOL0     H 6067   2.012   9.656   8.577 -1.5419  2.1931 -1.1461
   45MOL0     H 6068   2.140   9.694   8.697  0.5113  2.8989 -0.4323
   45MOL0     H 6069   1.982   9.914   8.751  1.8873 -0.6721  1.9397
   45MOL0     H 6070   1.913   9.877   8.598  0.4171  1.7155 -0.6577
   45MOL0     H 6071   2.211   9.909   8.600 -0.3015  2.2715  1.6205
   45MOL0     H 6072   2.102  10.044   8.576 -1.4975  0.3477  0.8450
   45MOL0     H 6073   2.123   9.806   8.211  0.5139  0.9231  0.1869
   45MOL0     H 6074   1.599   9.798   8.820 -0.0430 -0.3139  0.0974
   45MOL0     H 6075   1.441   9.760   8.992 -1.0398 -0.9451  0.5887
   46MOL0     O 6076  10.193   0.624   1.883 -0.8744 -0.3182 -0.7769
   46MOL0     C 6077  10.166   0.742   1.876 -0.2424 -0.1869 -0.7599
   46MOL0     O 6078  10.184   0.836   1.980  0.9778  0.1097 -0.6382
   46MOL0     C 6079  10.214   0.800   2.103 -0.7417  0.1201  0.3443
   46MOL0     C 6080  10.280   0.894   2.178  0.0605 -0.0048 -0.4275
   46MOL0     C 6081  10.329   0.874   2.311 -0.6875 -0.4625  0.3611
   46MOL0     C 6082  10.293   0.762   2.383 -0.4975  0.4759  0.2603
   46MOL0     O 6083  10.335   0.728   2.510 -0.2315 -0.0031 -0.5265
   46MOL0     C 6084  10.258   0.644   2.594  0.2909  0.5564  0.4520
   46MOL0     C 6085  10.333   0.580   2.707  0.9195 -0.9250  0.0924
   46MOL0     C 6086  10.231   0.504   2.800 -0.6390 -0.1552  0.3271
   46MOL0     C 6087  10.297   0.470   2.930 -0.3994  0.1558 -0.7244
   46MOL0     C 6088  10.219   0.365   3.010 -0.9028  1.0846 -0.1756
   46MOL0     C 6089  10.204   0.227   2.940 -0.5431  0.6406 -0.6264
   46MOL0     C 6090  10.337   0.168   2.886  0.2944  1.7147  0.2687
   46MOL0     C 6091  10.317   0.025   2.818  0.2798 -0.3305  0.3006
   46MOL0     N 6092  10.239   0.037   2.701 -0.3456  0.6503 -0.5995
   46MOL0     C 6093  10.282   0.123   2.598  0.6219  0.2794  0.3607
   46MOL0     C 6094  10.194   0.097   2.496 -0.9056 -0.5229  0.1671
   46MOL0     C 6095  10.222   0.144   2.351  0.3586  0.0948  0.3390
   46MOL0     C 6096  10.194   0.283   2.316 -0.4285  0.0283  0.2866
   46MOL0     C 6097  10.248   0.321   2.174 -0.6949 -0.3136 -0.6717
   46MOL0     C 6098  10.160   0.251   2.071  0.9658  0.4649 -0.3928
   46MOL0     O 6099  10.232   0.134   2.022 -0.4249 -0.6926 -0.2833
   46MOL0     C 6100  10.325   0.155   1.921  0.9889  0.7370  0.5090
   46MOL0     C 6101  10.337   0.279   1.842  0.0963 -0.5158  0.5948
   46MOL0     C 6102  10.421   0.287   1.731 -0.6529  0.3394  0.7182
   46MOL0     C 6103  10.408   0.415   1.654  0.5919 -0.1721 -0.2467
   46MOL0     C 6104  10.517   0.181   1.707 -0.6605 -0.1331  1.1291
   46MOL0     C 6105  10.621   0.198   1.600  0.1178 -0.2374  1.3300
   46MOL0     O 6106  10.726   0.112   1.597 -0.2658 -0.4518  0.4061
   46MOL0     C 6107  10.810   0.123   1.487  0.3348  0.0419 -0.0744
   46MOL0     C 6108  10.762   0.072   1.364 -0.4133  0.8814  0.1100
   46MOL0     C 6109  10.841   0.074   1.253  1.1423  0.0404 -0.1345
   46MOL0     C 6110  10.956   0.151   1.246  0.0152 -1.0738 -0.6160
   46MOL0     O 6111  11.007   0.180   1.124  0.4644 -0.0117  0.3883
   46MOL0     C 6112  11.098   0.295   1.111  0.4855  0.0970 -0.6358
   46MOL0     C 6113  11.116   0.307   0.960 -0.9976 -0.0983 -0.1125
   46MOL0     C 6114  10.997   0.368   0.888 -0.4686 -0.5683  0.0084
   46MOL0     C 6115  11.029   0.470   0.776 -0.0487  0.1203 -1.0232
   46MOL0     C 6116  11.118   0.401   0.668  0.2700 -0.5264 -0.0955
   46MOL0     C 6117  11.047   0.309   0.585  0.8233  0.5659  0.3179
   46MOL0     C 6118  11.142   0.249   0.474  0.0570  0.0390  0.0469
   46MOL0     C 6119  11.170   0.353   0.364 -0.2347  0.7617 -0.3504
   46MOL0    Cl 6120  11.317   0.325   0.274 -0.3526  0.1971 -0.0500
   46MOL0     C 6121  11.008   0.208   1.370 -0.4092  0.2583 -0.3809
   46MOL0     C 6122  10.939   0.180   1.490 -0.5228  0.8561  1.0155
   46MOL0     O 6123  10.611   0.293   1.519 -0.3264  0.5931 -0.6769
   46MOL0     C 6124  10.505   0.063   1.777 -0.1227 -0.0311 -0.0036
   46MOL0     C 6125  10.410   0.048   1.878 -0.4622 -0.5743 -0.6939
   46MOL0     N 6126  10.090   0.008   2.542 -0.1688 -1.3279  0.1606
   46MOL0     N 6127  10.118  -0.026   2.663  0.4531 -0.4820  1.4078
   46MOL0     C 6128  10.211   0.675   2.310  0.8009  0.5614 -0.3424
   46MOL0     C 6129  10.180   0.686   2.172 -0.4493  0.4948  0.2139
   46MOL0     C 6130  10.110   0.778   1.755  0.8775  0.8364  0.7109
   46MOL0     C 6131  10.051   0.898   1.735  0.0473 -0.5310  0.4421
   46MOL0     C 6132   9.990   0.938   1.612 -0.2933  0.7827  0.2749
   46MOL0     C 6133   9.991   0.856   1.507  0.4583 -0.0104  0.7346
   46MOL0     O 6134   9.928   0.894   1.396  0.3505 -0.0251  0.1026
   46MOL0     C 6135   9.996   0.872   1.273  0.5414 -0.8108 -0.1052
   46MOL0     C 6136   9.907   0.776   1.195 -0.2364 -0.0644 -0.4900
   46MOL0     C 6137   9.760   0.815   1.167  0.3390  0.0901 -0.1121
   46MOL0     C 6138   9.690   0.721   1.065 -1.3907  0.5179 -1.2505
   46MOL0     C 6139   9.779   0.662   0.960  0.0116 -0.3181 -1.0747
   46MOL0     C 6140   9.836   0.615   0.863 -0.2649 -0.0701  0.3151
   46MOL0     C 6141  10.046   0.727   1.524 -0.3262  0.3892 -0.4790
   46MOL0     C 6142  10.103   0.688   1.650  0.0293  0.5806  0.0933
   46MOL0     H 6143  10.305   0.991   2.138  0.3161  0.3642  0.5944
   46MOL0     H 6144  10.410   0.936   2.347 -0.2968  0.8411 -2.5183
   46MOL0     H 6145  10.173   0.701   2.632 -1.7274 -1.8367 -0.1984
   46MOL0     H 6146  10.216   0.558   2.541  1.0426  0.9516 -0.8445
   46MOL0     H 6147  10.417   0.520   2.671  4.5222  5.3661 -3.8540
   46MOL0     H 6148  10.386   0.653   2.769  0.4653 -0.2553 -0.2969
   46MOL0     H 6149  10.138   0.562   2.803  0.4696  1.6694  2.8862
   46MOL0     H 6150  10.213   0.408   2.750 -0.9698 -0.6537  1.3688
   46MOL0     H 6151  10.395   0.423   2.923 -0.3707  0.2097 -0.6760
   46MOL0     H 6152  10.310   0.563   2.986  1.7519 -0.7266  0.3425
   46MOL0     H 6153  10.259   0.353   3.111  0.1346 -1.0145 -0.7689
   46MOL0     H 6154  10.120   0.407   3.029 -0.4331  1.9049  0.5257
   46MOL0     H 6155  10.156   0.144   2.994  1.0637 -1.8506 -2.7610
   46MOL0     H 6156  10.143   0.258   2.855 -1.8446  4.8071  1.5569
   46MOL0     H 6157  10.375   0.237   2.811  2.3803  1.3320  0.8964
   46MOL0     H 6158  10.423   0.149   2.952 -0.3557 -1.2324  0.4406
   46MOL0     H 6159  10.267  -0.044   2.886  0.0587 -0.3058  0.1617
   46MOL0     H 6160  10.416  -0.015   2.794  0.6525  1.1265 -0.6998
   46MOL0     H 6161  10.381   0.165   2.583  1.3722 -1.9696 -1.5542
   46MOL0     H 6162  10.324   0.120   2.319 -0.8075 -4.4926 -0.6625
   46MOL0     H 6163  10.165   0.076   2.287  4.1462 -0.8717 -2.3293
   46MOL0     H 6164  10.240   0.346   2.393  1.4031 -2.3002  1.2568
   46MOL0     H 6165  10.085   0.278   2.325 -0.2965 -1.8140  1.6896
   46MOL0     H 6166  10.350   0.282   2.174 -1.3991 -2.3605  0.6974
   46MOL0     H 6167  10.249   0.429   2.156 -2.8894  0.2211  1.6467
   46MOL0     H 6168  10.128   0.303   1.980 -1.6385 -0.1670  0.0849
   46MOL0     H 6169  10.060   0.227   2.109 -0.1884  3.1799 -1.4662
   46MOL0     H 6170  10.263   0.358   1.852  0.9904  0.9964 -3.2326
   46MOL0     H 6171  10.331   0.481   1.693 -0.2405 -2.0676  1.5551
   46MOL0     H 6172  10.506   0.463   1.666  0.3802  0.4330 -0.9161
   46MOL0     H 6173  10.391   0.387   1.550  2.9184  2.2386 -1.3994
   46MOL0     H 6174  10.663   0.031   1.351 -0.1727  1.2204 -4.2410
   46MOL0     H 6175  10.804   0.030   1.161 -0.1043  0.0254  0.3597
   46MOL0     H 6176  11.054   0.392   1.139 -1.2707 -0.0190 -2.7236
   46MOL0     H 6177  11.192   0.278   1.165  0.3239 -1.6453 -0.8687
   46MOL0     H 6178  11.209   0.362   0.944 -0.6096 -0.7623 -0.1706
   46MOL0     H 6179  11.139   0.210   0.915 -0.5447  1.2129 -2.8744
   46MOL0     H 6180  10.947   0.422   0.970 -1.3713 -1.5940  0.1687
   46MOL0     H 6181  10.930   0.293   0.845 -1.1938 -0.5263  1.0112
   46MOL0     H 6182  10.939   0.513   0.732  0.8474  3.8951  0.4405
   46MOL0     H 6183  11.082   0.558   0.815 -1.8880  1.4540 -1.4223
   46MOL0     H 6184  11.203   0.361   0.723 -2.5892 -3.4303  2.6951
   46MOL0     H 6185  11.147   0.483   0.602 -1.3025 -0.7133 -1.0735
   46MOL0     H 6186  11.008   0.230   0.649  0.5863  2.3602  2.5206
   46MOL0     H 6187  10.962   0.358   0.536  0.2145  1.4141  2.1430
   46MOL0     H 6188  11.099   0.157   0.433  0.4158 -0.2637  0.3512
   46MOL0     H 6189  11.238   0.224   0.520 -1.1386 -0.3583  2.4790
   46MOL0     H 6190  11.199   0.451   0.405  3.1472 -0.6526  0.9963
   46MOL0     H 6191  11.086   0.371   0.296 -0.4711  2.2483  0.2802
   46MOL0     H 6192  11.106   0.250   1.354 -1.6413  2.6412 -2.4387
   46MOL0     H 6193  10.968   0.205   1.591  1.3724  0.0122  0.7228
   46MOL0     H 6194  10.559  -0.029   1.754 -0.7645  0.1029 -2.3215
   46MOL0     H 6195  10.413  -0.042   1.938  3.7254 -0.4183 -0.3810
   46MOL0     H 6196  10.180   0.579   2.350  0.5666  0.7274 -0.1208
   46MOL0     H 6197  10.124   0.608   2.120 -1.1719  0.6349  0.7765
   46MOL0     H 6198  10.061   0.977   1.808  1.8233 -0.9149  0.6511
   46MOL0     H 6199   9.942   1.033   1.591 -0.3002  0.3614 -1.7820
   46MOL0     H 6200  10.002   0.956   1.203 -1.0057 -1.3066 -0.8806
   46MOL0     H 6201  10.095   0.827   1.285 -0.2261 -2.5614 -0.0718
   46MOL0     H 6202   9.900   0.688   1.260 -0.2816  0.0908 -0.2820
   46MOL0     H 6203   9.961   0.736   1.109  3.0282  1.2883  0.7848
   46MOL0     H 6204   9.777   0.913   1.122 -0.3315  0.3831  0.2478
   46MOL0     H 6205   9.704   0.812   1.261  2.7160 -2.3460  1.3622
   46MOL0     H 6206   9.621   0.785   1.010 -2.1642 -0.5339 -1.5198
   46MOL0     H 6207   9.642   0.638   1.117  2.2744  0.3056  2.4325
   46MOL0     H 6208   9.876   0.563   0.778  0.8505 -1.5042  1.6485
   46MOL0     H 6209  10.044   0.654   1.444  2.0720  0.1045 -0.3521
   46MOL0     H 6210  10.141   0.587   1.658  0.8500  0.8163 -0.7406
   47MOL0     O 6211   5.730   1.261   5.048 -0.6982 -0.9432 -0.5043
   47MOL0     C 6212   5.814   1.225   4.964  0.6545  0.1000  0.6873
   47MOL0     O 6213   5.944   1.250   4.970  0.2714 -0.4517 -0.0172
   47MOL0     C 6214   5.989   1.367   5.030  0.2299 -0.3645 -0.8894
   47MOL0     C 6215   5.987   1.372   5.172 -0.6593  0.1238  0.0118
   47MOL0     C 6216   6.004   1.492   5.246  0.0150  0.1602 -0.3764
   47MOL0     C 6217   6.026   1.610   5.174 -0.2806  0.2006 -0.7180
   47MOL0     O 6218   6.032   1.733   5.242 -0.4244 -0.0991  0.0536
   47MOL0     C 6219   6.071   1.740   5.370 -0.7533 -0.0468 -0.4807
   47MOL0     C 6220   6.117   1.880   5.396 -0.1431 -0.3807  0.3303
   47MOL0     C 6221   6.004   1.984   5.397  0.3153 -0.0150  0.7028
   47MOL0     C 6222   6.050   2.132   5.414 -0.8195  0.5093 -0.3391
   47MOL0     C 6223   5.945   2.235   5.396  0.4258  0.1019  0.1322
   47MOL0     C 6224   5.854   2.242   5.518 -0.0673  0.0836  0.0360
   47MOL0     C 6225   5.725   2.325   5.484  1.3827  0.0724 -0.4233
   47MOL0     C 6226   5.654   2.359   5.616  0.7525 -0.0462  0.6635
   47MOL0     N 6227   5.541   2.451   5.593 -0.3571 -0.5945  0.0583
   47MOL0     C 6228   5.542   2.586   5.557  0.2442 -0.6251  0.3005
   47MOL0     C 6229   5.414   2.626   5.560  0.3257  0.3007 -0.3655
   47MOL0     C 6230   5.376   2.771   5.561 -0.3277  0.4640  0.6992
   47MOL0     C 6231   5.357   2.823   5.699 -0.1266  0.6868 -0.1246
   47MOL0     C 6232   5.374   2.975   5.714 -0.2022  0.7641  0.3155
   47MOL0     C 6233   5.512   3.034   5.729  0.3986  0.3917  0.3186
   47MOL0     O 6234   5.598   2.994   5.623  0.6486 -0.1361 -0.0471
   47MOL0     C 6235   5.662   3.071   5.534  0.7350 -0.2589  0.9306
   47MOL0     C 6236   5.688   3.020   5.408  0.3339  0.1896  0.1236
   47MOL0     C 6237   5.759   3.080   5.309  0.1613 -0.2517  0.4778
   47MOL0     C 6238   5.794   2.993   5.193 -0.5402  0.6645  0.2600
   47MOL0     C 6239   5.806   3.214   5.338 -0.7703  0.1496  0.2165
   47MOL0     C 6240   5.888   3.288   5.232 -0.2148  0.3771 -0.1775
   47MOL0     O 6241   5.921   3.238   5.101 -0.2669  0.0787 -0.4204
   47MOL0     C 6242   6.021   3.288   5.017 -0.6627  0.3944 -0.2274
   47MOL0     C 6243   6.003   3.296   4.883 -0.8846  0.4176 -0.0396
   47MOL0     C 6244   6.104   3.357   4.794 -0.9518 -0.4959  0.5433
   47MOL0     C 6245   6.225   3.407   4.850 -0.4586 -0.4669  0.8878
   47MOL0     O 6246   6.312   3.468   4.764  0.5096  0.0088  1.0657
   47MOL0     C 6247   6.307   3.612   4.765 -0.6895  0.2118 -0.2937
   47MOL0     C 6248   6.406   3.668   4.658 -0.3575  0.9326  1.2868
   47MOL0     C 6249   6.518   3.760   4.709  1.3178  0.0446 -0.0807
   47MOL0     C 6250   6.589   3.835   4.592 -0.0913  0.8254  0.3634
   47MOL0     C 6251   6.724   3.893   4.637 -0.2675  0.5264 -0.5425
   47MOL0     C 6252   6.785   4.002   4.542  0.9390  0.8478  0.3015
   47MOL0     C 6253   6.920   4.049   4.599 -0.1754 -0.5676 -0.0725
   47MOL0     C 6254   7.006   4.137   4.495 -0.0916 -0.6458  0.2721
   47MOL0    Cl 6255   6.927   4.304   4.467  0.2349  0.3797  0.4582
   47MOL0     C 6256   6.251   3.392   4.989 -0.4635  0.3743 -0.2241
   47MOL0     C 6257   6.148   3.340   5.067  0.2516  0.6975 -0.2305
   47MOL0     O 6258   5.920   3.398   5.271 -0.6091 -0.4067 -0.3809
   47MOL0     C 6259   5.778   3.266   5.464 -0.7459 -0.9220 -0.3952
   47MOL0     C 6260   5.715   3.199   5.560 -0.0473  0.3119  0.0055
   47MOL0     N 6261   5.333   2.517   5.589 -0.2846  0.5352 -0.2269
   47MOL0     N 6262   5.411   2.410   5.606 -0.0026 -0.1115 -1.0193
   47MOL0     C 6263   6.038   1.607   5.041  0.6410 -0.3608  1.4145
   47MOL0     C 6264   6.019   1.486   4.965  0.2572  0.2819 -0.0496
   47MOL0     C 6265   5.774   1.107   4.892  0.0961  0.9838  0.2032
   47MOL0     C 6266   5.641   1.056   4.912 -0.4368 -0.5193  0.4050
   47MOL0     C 6267   5.612   0.929   4.859 -1.0808  0.3345 -0.6723
   47MOL0     C 6268   5.695   0.862   4.769  0.2151 -0.3673  0.5110
   47MOL0     O 6269   5.652   0.738   4.727 -0.3420 -0.1905  0.1154
   47MOL0     C 6270   5.733   0.666   4.623 -0.6108 -1.0076 -0.2274
   47MOL0     C 6271   5.660   0.560   4.551  0.3239  0.7677  0.4655
   47MOL0     C 6272   5.560   0.484   4.643 -0.4117 -0.6619 -0.3394
   47MOL0     C 6273   5.640   0.391   4.731  0.0426  0.8785  0.3158
   47MOL0     C 6274   5.639   0.262   4.657  0.1577 -0.1595  0.3314
   47MOL0     C 6275   5.641   0.152   4.604  0.1052  0.3210 -0.4058
   47MOL0     C 6276   5.826   0.916   4.748 -0.0033 -0.8571 -0.6174
   47MOL0     C 6277   5.865   1.033   4.814  0.2188 -0.1811 -0.2188
   47MOL0     H 6278   5.956   1.289   5.236  0.2774  2.6712  4.1486
   47MOL0     H 6279   5.985   1.486   5.353 -0.8252 -0.3832 -0.5418
   47MOL0     H 6280   5.982   1.718   5.431 -1.5536  3.8446  0.0666
   47MOL0     H 6281   6.154   1.671   5.384 -0.8181  0.0122  0.2534
   47MOL0     H 6282   6.173   1.870   5.489 -0.1887 -3.3117  0.1194
   47MOL0     H 6283   6.196   1.919   5.330 -0.9310  0.8728  0.0807
   47MOL0     H 6284   5.960   1.972   5.298  2.1403  1.7433 -0.4006
   47MOL0     H 6285   5.921   1.950   5.461 -1.7476  1.9659 -0.7519
   47MOL0     H 6286   6.097   2.127   5.513 -1.1378 -0.4768 -0.2220
   47MOL0     H 6287   6.131   2.145   5.342 -0.5790 -1.0068 -0.3840
   47MOL0     H 6288   5.968   2.342   5.389 -4.7125  1.3357 -2.8932
   47MOL0     H 6289   5.900   2.213   5.299 -6.2279  0.3369  2.6251
   47MOL0     H 6290   5.839   2.142   5.561 -1.8790  0.2305 -0.2031
   47MOL0     H 6291   5.901   2.310   5.590 -1.3458  5.1007 -3.4164
   47MOL0     H 6292   5.744   2.424   5.443 -2.2673  0.6025 -1.1614
   47MOL0     H 6293   5.655   2.274   5.417  0.8823  0.1163  0.0560
   47MOL0     H 6294   5.729   2.399   5.685 -1.3165  3.0450  1.2945
   47MOL0     H 6295   5.624   2.263   5.659  0.8038 -1.9133 -3.0691
   47MOL0     H 6296   5.629   2.649   5.541  0.5216 -0.2757  2.8253
   47MOL0     H 6297   5.457   2.821   5.507  1.2498 -3.3165 -0.8092
   47MOL0     H 6298   5.286   2.780   5.500 -0.3214  1.6936  0.8506
   47MOL0     H 6299   5.446   2.783   5.748  2.0794 -1.0068 -4.8399
   47MOL0     H 6300   5.263   2.788   5.743  0.5797  0.7479  1.4987
   47MOL0     H 6301   5.320   2.996   5.807  1.4809 -1.7441  1.9819
   47MOL0     H 6302   5.326   3.027   5.631 -2.3232  0.7832  1.4769
   47MOL0     H 6303   5.542   2.998   5.828 -1.0841 -0.2617  0.5517
   47MOL0     H 6304   5.510   3.143   5.741  1.1417  0.2881  1.7144
   47MOL0     H 6305   5.658   2.919   5.385  2.4436 -0.5302  0.3191
   47MOL0     H 6306   5.899   2.977   5.168 -0.7056  0.1363 -0.1233
   47MOL0     H 6307   5.764   2.889   5.204  0.6940  0.3696  0.9847
   47MOL0     H 6308   5.741   3.030   5.104 -0.0726 -2.5264 -1.4631
   47MOL0     H 6309   5.899   3.279   4.856 -1.3716  1.6122  0.9918
   47MOL0     H 6310   6.100   3.362   4.686 -0.8083 -1.1372  0.5074
   47MOL0     H 6311   6.207   3.648   4.741  0.3422  2.3814 -1.5661
   47MOL0     H 6312   6.337   3.644   4.866  0.8496 -0.8537 -0.3765
   47MOL0     H 6313   6.442   3.584   4.597 -2.7718  0.2924  0.6093
   47MOL0     H 6314   6.334   3.725   4.598 -5.0060 -1.5117  3.9499
   47MOL0     H 6315   6.592   3.706   4.770  1.6872 -0.6618 -1.1298
   47MOL0     H 6316   6.469   3.835   4.772 -1.4100  1.1678 -3.2757
   47MOL0     H 6317   6.580   3.777   4.500 -2.2271 -1.3087  1.8037
   47MOL0     H 6318   6.525   3.919   4.563  0.9026  0.9853 -1.4909
   47MOL0     H 6319   6.791   3.808   4.653  0.6285  1.5734  1.6811
   47MOL0     H 6320   6.705   3.941   4.733 -1.5464 -0.5174 -0.2391
   47MOL0     H 6321   6.802   3.975   4.437  1.3604  0.8799  0.3606
   47MOL0     H 6322   6.710   4.082   4.547  0.0576  0.1985 -1.5723
   47MOL0     H 6323   6.981   3.961   4.620  1.5624  0.7998  0.9217
   47MOL0     H 6324   6.897   4.110   4.687  2.7229 -1.0925  1.1922
   47MOL0     H 6325   7.014   4.083   4.400 -2.4009  2.0851 -1.6467
   47MOL0     H 6326   7.107   4.163   4.529 -0.1829  1.0437 -0.6328
   47MOL0     H 6327   6.340   3.436   5.032  0.5213 -1.7347 -0.0088
   47MOL0     H 6328   6.171   3.327   5.172  2.4644  0.9059 -0.6393
   47MOL0     H 6329   5.809   3.367   5.490  2.9605 -1.5780 -1.5992
   47MOL0     H 6330   5.712   3.239   5.661  2.1961  1.5859 -0.3660
   47MOL0     H 6331   6.071   1.697   4.991 -1.8962 -1.2155 -2.2067
   47MOL0     H 6332   6.017   1.487   4.857 -1.7545 -1.2620 -0.0824
   47MOL0     H 6333   5.563   1.105   4.968 -1.8927 -2.4767  0.1924
   47MOL0     H 6334   5.512   0.891   4.879 -2.0907  3.5916  1.3156
   47MOL0     H 6335   5.787   0.735   4.558 -0.8088  0.9321  1.5780
   47MOL0     H 6336   5.812   0.609   4.672  0.0106 -1.6138 -1.8572
   47MOL0     H 6337   5.730   0.492   4.501 -1.3099 -0.3841 -0.3807
   47MOL0     H 6338   5.610   0.623   4.477 -0.2225 -0.7129 -0.4911
   47MOL0     H 6339   5.480   0.434   4.589 -2.0426  0.8835  0.5581
   47MOL0     H 6340   5.507   0.548   4.714 -0.2177 -0.2852 -0.5311
   47MOL0     H 6341   5.599   0.377   4.831  1.2833 -0.3531  0.6976
   47MOL0     H 6342   5.742   0.422   4.755 -0.8569  3.6771  0.8504
   47MOL0     H 6343   5.650   0.062   4.546 -0.1130 -0.2631  0.4477
   47MOL0     H 6344   5.903   0.851   4.707 -0.2959 -0.2127 -2.2867
   47MOL0     H 6345   5.967   1.070   4.806  0.5252 -1.3547 -2.6645
   48MOL0     O 6346   8.805   9.616   3.957  0.4626  0.0717  0.5367
   48MOL0     C 6347   8.868   9.646   3.853  0.0010  0.3791 -0.2642
   48MOL0     O 6348   8.940   9.759   3.848  0.5407 -0.4430 -0.1655
   48MOL0     C 6349   8.929   9.860   3.938  0.4650  0.1480  0.8455
   48MOL0     C 6350   8.809   9.922   3.970 -0.5672  0.7701  0.1433
   48MOL0     C 6351   8.810  10.036   4.055 -0.9009  0.1476  0.6603
   48MOL0     C 6352   8.932  10.084   4.109 -0.0482  0.5687  0.9529
   48MOL0     O 6353   8.927  10.193   4.190 -0.1476 -1.1076 -0.1995
   48MOL0     C 6354   9.017  10.217   4.296  0.4642 -0.0018  0.4770
   48MOL0     C 6355   9.147  10.287   4.252 -0.0386 -0.6712 -0.3979
   48MOL0     C 6356   9.129  10.441   4.233  0.0853 -0.1193 -0.2885
   48MOL0     C 6357   9.141  10.533   4.361 -0.3716  0.0297  0.4526
   48MOL0     C 6358   9.156  10.678   4.326 -0.0132  0.5880  0.6655
   48MOL0     C 6359   9.209  10.759   4.440  0.6351  0.1344  0.4922
   48MOL0     C 6360   9.129  10.751   4.573  0.2987 -0.1708  0.5913
   48MOL0     C 6361   8.995  10.832   4.573 -0.2206 -0.0127  0.4834
   48MOL0     N 6362   9.001  10.976   4.583 -0.8091  0.9205  0.0771
   48MOL0     C 6363   8.987  11.053   4.472  0.2642  0.3596 -0.0931
   48MOL0     C 6364   8.976  11.178   4.516  0.3677 -0.4003 -0.2711
   48MOL0     C 6365   8.979  11.300   4.436 -0.2494  0.3228  0.6345
   48MOL0     C 6366   9.109  11.384   4.438 -0.0185  0.0124 -0.4394
   48MOL0     C 6367   9.159  11.449   4.303  1.4398 -0.5333  0.2117
   48MOL0     C 6368   9.192  11.356   4.179  0.2075 -0.1468  0.5321
   48MOL0     O 6369   9.332  11.338   4.170 -0.6340  0.1405  0.2392
   48MOL0     C 6370   9.432  11.427   4.138  0.7194 -0.1882  1.1397
   48MOL0     C 6371   9.418  11.566   4.127  0.2793  0.5450 -0.6510
   48MOL0     C 6372   9.537  11.650   4.110 -0.2345  0.2531 -0.4800
   48MOL0     C 6373   9.503  11.796   4.099  0.7366 -0.0795  0.7019
   48MOL0     C 6374   9.666  11.594   4.120 -0.1256  0.3392 -0.2781
   48MOL0     C 6375   9.795  11.665   4.117  1.3089 -0.3855  0.0912
   48MOL0     O 6376   9.798  11.804   4.115 -0.8701 -0.1652  0.1207
   48MOL0     C 6377   9.920  11.863   4.079 -0.3900  0.0020  0.1175
   48MOL0     C 6378   9.952  11.886   3.945 -0.1332 -0.2024 -0.0388
   48MOL0     C 6379  10.054  11.969   3.911 -0.2722 -0.5723  0.2902
   48MOL0     C 6380  10.158  11.992   4.002  0.0883  0.2260  0.9622
   48MOL0     O 6381  10.275  12.024   3.949 -0.3844  0.8241 -0.1819
   48MOL0     C 6382  10.386  11.942   4.013 -0.3165  0.4830  0.7751
   48MOL0     C 6383  10.509  11.944   3.929  1.2189 -0.5634  0.4048
   48MOL0     C 6384  10.619  11.844   3.965  0.1038 -0.0601 -0.2054
   48MOL0     C 6385  10.720  11.906   4.073  0.3410 -1.1970 -0.9311
   48MOL0     C 6386  10.828  11.803   4.099  0.5274 -0.0592  0.1420
   48MOL0     C 6387  10.953  11.860   4.168 -0.2924 -0.4544 -0.0875
   48MOL0     C 6388  10.947  11.829   4.321  0.4197 -0.7983  0.0202
   48MOL0     C 6389  11.078  11.849   4.390 -0.6953  0.0804 -0.3974
   48MOL0    Cl 6390  11.041  11.846   4.560 -0.0142 -0.1388 -0.4023
   48MOL0     C 6391  10.133  11.953   4.133  0.4511 -1.0884  0.3899
   48MOL0     C 6392  10.010  11.906   4.178  0.3214 -0.9984 -0.1101
   48MOL0     O 6393   9.891  11.595   4.108 -0.2677  0.2091 -0.0423
   48MOL0     C 6394   9.675  11.446   4.125 -0.1994 -0.5685 -0.5806
   48MOL0     C 6395   9.560  11.372   4.127  0.6578  0.4481 -0.1706
   48MOL0     N 6396   8.979  11.176   4.652  0.9064  0.2460 -0.2225
   48MOL0     N 6397   9.003  11.057   4.693 -0.1784 -0.2396  0.3798
   48MOL0     C 6398   9.046  10.014   4.091 -0.2648 -0.8614 -0.2587
   48MOL0     C 6399   9.042   9.902   3.995  0.3132  0.2874  0.4629
   48MOL0     C 6400   8.861   9.555   3.740  0.4673 -0.3031  0.5270
   48MOL0     C 6401   8.752   9.467   3.721 -0.1783 -0.0038  0.4706
   48MOL0     C 6402   8.748   9.371   3.614  0.0237  0.3114  0.3403
   48MOL0     C 6403   8.858   9.378   3.521  0.4756  0.9986  0.0952
   48MOL0     O 6404   8.849   9.290   3.418 -0.5381  0.0958  0.9055
   48MOL0     C 6405   8.877   9.361   3.297 -0.1142 -0.5855 -0.5860
   48MOL0     C 6406   8.838   9.277   3.173 -0.4122 -0.4325  0.0843
   48MOL0     C 6407   8.688   9.250   3.163  0.0088 -0.0476  0.0715
   48MOL0     C 6408   8.646   9.162   3.049 -0.7179 -0.0484  0.5912
   48MOL0     C 6409   8.522   9.083   3.079 -0.0869 -0.8393 -0.5005
   48MOL0     C 6410   8.414   9.035   3.114 -0.7716 -0.7169  0.7665
   48MOL0     C 6411   8.960   9.465   3.538 -0.1862  0.1627 -0.3136
   48MOL0     C 6412   8.962   9.552   3.645  0.8690 -0.1837  0.1488
   48MOL0     H 6413   8.713   9.878   3.944  0.0305 -1.2730  1.1816
   48MOL0     H 6414   8.713  10.081   4.074 -0.7241  0.5869  0.5210
   48MOL0     H 6415   8.965  10.293   4.355 -1.7600 -0.0444 -1.3182
   48MOL0     H 6416   9.028  10.121   4.346 -1.3429 -1.0813 -1.0831
   48MOL0     H 6417   9.232  10.263   4.317 -1.3019 -1.1636  1.1659
   48MOL0     H 6418   9.177  10.236   4.161  0.9470 -2.3321  0.7994
   48MOL0     H 6419   9.209  10.461   4.162 -0.7389  1.6938 -0.7572
   48MOL0     H 6420   9.036  10.469   4.182 -0.0462 -1.2572 -0.7051
   48MOL0     H 6421   9.055  10.507   4.423 -0.5300 -1.0683 -0.2115
   48MOL0     H 6422   9.230  10.490   4.407 -1.9290 -0.5670  3.1164
   48MOL0     H 6423   9.221  10.685   4.238 -0.3374  1.4319  0.4858
   48MOL0     H 6424   9.056  10.702   4.288  0.6098  0.0817 -1.4440
   48MOL0     H 6425   9.308  10.714   4.455  2.4011  3.3195 -0.4838
   48MOL0     H 6426   9.216  10.866   4.419  0.2475  0.3493  1.4103
   48MOL0     H 6427   9.109  10.646   4.597 -2.8941  0.0803 -0.4664
   48MOL0     H 6428   9.196  10.801   4.644  1.3151  0.5500 -0.8200
   48MOL0     H 6429   8.937  10.802   4.661  1.1174  0.6377  1.6268
   48MOL0     H 6430   8.951  10.801   4.477  1.7468 -1.7544  0.0512
   48MOL0     H 6431   8.997  11.022   4.368 -0.4424  0.4532 -0.1945
   48MOL0     H 6432   8.952  11.274   4.333  0.8116  0.7417  0.2357
   48MOL0     H 6433   8.902  11.357   4.487 -1.7865 -0.6027 -0.5294
   48MOL0     H 6434   9.190  11.317   4.469 -0.5317  0.4648  2.0441
   48MOL0     H 6435   9.122  11.461   4.514  1.1036 -2.2686  1.8355
   48MOL0     H 6436   9.241  11.516   4.332 -1.5630  3.1633  1.0661
   48MOL0     H 6437   9.077  11.515   4.272  0.5940 -0.9281  1.5140
   48MOL0     H 6438   9.159  11.411   4.091  0.6591  1.2501  1.2004
   48MOL0     H 6439   9.138  11.261   4.181 -2.8977  1.4875  0.1552
   48MOL0     H 6440   9.316  11.604   4.121  0.7451  1.8929 -0.3526
   48MOL0     H 6441   9.431  11.828   4.175  0.0370 -2.0352  0.9310
   48MOL0     H 6442   9.592  11.859   4.103  1.5957 -0.8309 -2.9636
   48MOL0     H 6443   9.463  11.814   3.999  1.2382  0.3488  0.5732
   48MOL0     H 6444   9.875  11.860   3.873 -3.4101  0.2087  3.0179
   48MOL0     H 6445  10.063  12.001   3.808  3.1575  0.4157  0.7977
   48MOL0     H 6446  10.405  11.971   4.117 -0.3983 -0.6373  1.1178
   48MOL0     H 6447  10.347  11.840   4.020 -0.6233  0.5314 -0.1778
   48MOL0     H 6448  10.474  11.921   3.828  0.0432  2.2841  0.0551
   48MOL0     H 6449  10.554  12.044   3.921  2.8061 -1.3361 -1.1635
   48MOL0     H 6450  10.681  11.821   3.878  0.3447  0.1833 -0.0989
   48MOL0     H 6451  10.589  11.747   4.008  1.8823 -0.1144  1.0612
   48MOL0     H 6452  10.752  12.003   4.034 -0.1558 -0.2248  0.9361
   48MOL0     H 6453  10.661  11.925   4.163  0.2690 -1.0647 -1.0060
   48MOL0     H 6454  10.855  11.769   3.999 -2.2951  0.7663 -1.0221
   48MOL0     H 6455  10.782  11.719   4.153  2.2767 -2.1833 -1.5203
   48MOL0     H 6456  11.042  11.823   4.117  0.7363  1.4674  0.2208
   48MOL0     H 6457  10.957  11.969   4.166  1.6950 -0.2875  3.7171
   48MOL0     H 6458  10.912  11.726   4.330 -1.7174 -0.2880 -1.5693
   48MOL0     H 6459  10.867  11.889   4.366 -0.8434 -1.8172 -0.7931
   48MOL0     H 6460  11.124  11.943   4.359 -2.2446  0.9642 -0.1382
   48MOL0     H 6461  11.140  11.764   4.361 -0.7622 -0.8051  1.8065
   48MOL0     H 6462  10.213  11.972   4.204 -0.7648 -0.1340  1.5619
   48MOL0     H 6463   9.996  11.878   4.282 -1.0019  1.4616  0.4588
   48MOL0     H 6464   9.775  11.406   4.113  0.1065 -0.1925  0.5547
   48MOL0     H 6465   9.557  11.267   4.154  1.0662  0.7307  1.0653
   48MOL0     H 6466   9.144  10.047   4.125 -0.2157  0.4873 -1.5769
   48MOL0     H 6467   9.137   9.854   3.973  0.8025  1.9519 -1.3474
   48MOL0     H 6468   8.669   9.476   3.791  0.3091  0.4752  0.9994
   48MOL0     H 6469   8.677   9.289   3.604  1.5910 -0.7576 -4.2231
   48MOL0     H 6470   8.814   9.450   3.291 -1.1471 -1.3709 -2.2797
   48MOL0     H 6471   8.982   9.393   3.290 -0.1365 -0.2757  0.3551
   48MOL0     H 6472   8.898   9.186   3.168  1.4958  0.7968 -4.3395
   48MOL0     H 6473   8.867   9.321   3.077 -4.9629  0.6975 -1.0472
   48MOL0     H 6474   8.647   9.351   3.149  1.9151  0.8138  0.4467
   48MOL0     H 6475   8.644   9.209   3.254 -2.1521  3.1315  0.6258
   48MOL0     H 6476   8.732   9.099   3.026 -1.1470 -0.8234  1.0747
   48MOL0     H 6477   8.631   9.217   2.955  2.0266  2.7878  1.6366
   48MOL0     H 6478   8.315   9.000   3.136  0.0318 -2.3065  2.0540
   48MOL0     H 6479   9.046   9.477   3.473 -0.0257  0.0386 -0.1267
   48MOL0     H 6480   9.045   9.623   3.648  0.2365  0.5627  0.4477
   49MOL0     O 6481  10.606   3.878   3.463 -0.1736 -0.4775 -0.4976
   49MOL0     C 6482  10.553   3.813   3.557 -0.9214  0.1105  0.6569
   49MOL0     O 6483  10.569   3.675   3.575  0.1496  0.0318 -0.0267
   49MOL0     C 6484  10.638   3.605   3.490  0.1334 -0.8613 -0.2682
   49MOL0     C 6485  10.646   3.624   3.350 -0.7940  0.2264  0.5350
   49MOL0     C 6486  10.734   3.543   3.283  0.1728  0.0693  0.7483
   49MOL0     C 6487  10.807   3.439   3.341  0.5270 -0.1229  0.0434
   49MOL0     O 6488  10.886   3.345   3.280  0.1220  0.0049 -0.0425
   49MOL0     C 6489  10.923   3.364   3.142  0.2702  0.2066  0.4107
   49MOL0     C 6490  10.867   3.261   3.045 -0.5314  0.8541  0.7111
   49MOL0     C 6491  10.909   3.111   3.054 -0.1579 -0.2410  0.1178
   49MOL0     C 6492  10.817   3.052   3.169 -1.5276 -1.0475 -0.6568
   49MOL0     C 6493  10.895   2.975   3.279 -0.7003  0.7786  0.5793
   49MOL0     C 6494  10.979   3.059   3.372 -0.0738 -0.3204 -0.2196
   49MOL0     C 6495  11.064   2.977   3.470  0.5026 -0.6435 -0.2079
   49MOL0     C 6496  11.184   3.045   3.537 -0.9295 -1.1047 -0.6099
   49MOL0     N 6497  11.158   3.183   3.589  0.1633 -0.0162  0.0787
   49MOL0     C 6498  11.077   3.217   3.691  0.4667  0.0865 -0.4156
   49MOL0     C 6499  11.115   3.339   3.735 -0.3235  0.5210 -0.3704
   49MOL0     C 6500  11.049   3.417   3.836 -0.3666 -0.4041  0.3232
   49MOL0     C 6501  11.126   3.385   3.964  0.3112  0.5616 -0.1604
   49MOL0     C 6502  11.090   3.461   4.083  0.3209 -0.1794 -0.0057
   49MOL0     C 6503  11.181   3.441   4.204 -0.0635 -0.7406 -0.2430
   49MOL0     O 6504  11.178   3.301   4.248 -0.0346 -0.8255  0.8248
   49MOL0     C 6505  11.293   3.235   4.292 -0.4851  0.5077  0.4982
   49MOL0     C 6506  11.419   3.298   4.308 -0.0878  0.2126 -0.4445
   49MOL0     C 6507  11.523   3.234   4.388  0.7595  0.3424 -0.5190
   49MOL0     C 6508  11.656   3.315   4.398  0.1704  1.0216 -1.4051
   49MOL0     C 6509  11.504   3.097   4.428 -0.6963 -0.1547  0.0729
   49MOL0     C 6510  11.605   3.016   4.492  0.4713  0.4148 -0.3042
   49MOL0     O 6511  11.604   2.880   4.480 -1.7990  0.1839  0.1898
   49MOL0     C 6512  11.678   2.808   4.568 -0.3399 -0.7413 -0.2638
   49MOL0     C 6513  11.606   2.736   4.663  0.1374 -0.0738 -0.4201
   49MOL0     C 6514  11.680   2.677   4.769  0.5210 -0.3986  0.3629
   49MOL0     C 6515  11.815   2.680   4.753 -0.0189  0.1689 -0.8774
   49MOL0     O 6516  11.901   2.606   4.837 -0.7249  0.0265 -0.6161
   49MOL0     C 6517  11.847   2.553   4.959  0.3871  0.6919 -0.2877
   49MOL0     C 6518  11.946   2.448   5.025  0.1730 -0.3476  0.3481
   49MOL0     C 6519  11.984   2.333   4.922  0.4910 -0.1667 -0.7346
   49MOL0     C 6520  12.088   2.235   4.980 -0.6568 -0.6386 -0.2134
   49MOL0     C 6521  12.048   2.183   5.120  0.0524  0.4526 -0.2243
   49MOL0     C 6522  12.134   2.076   5.178 -0.2594  0.2518 -0.4948
   49MOL0     C 6523  12.276   2.130   5.190 -0.1951  0.3014 -0.4976
   49MOL0     C 6524  12.336   2.075   5.323 -1.3579 -0.4841  0.7758
   49MOL0    Cl 6525  12.458   1.956   5.300  0.0641  0.1837 -0.3618
   49MOL0     C 6526  11.884   2.745   4.658 -0.0548  0.3634 -0.2991
   49MOL0     C 6527  11.814   2.816   4.569 -0.0576  0.1792 -0.8108
   49MOL0     O 6528  11.683   3.077   4.565  0.4916  0.3771  0.2152
   49MOL0     C 6529  11.382   3.038   4.406  0.4629 -0.2606 -0.2732
   49MOL0     C 6530  11.275   3.097   4.335 -0.4101  0.5951  0.8499
   49MOL0     N 6531  11.222   3.380   3.653  0.3424 -0.3219  0.1747
   49MOL0     N 6532  11.243   3.285   3.578 -0.7513 -0.5314  0.5873
   49MOL0     C 6533  10.806   3.428   3.480 -0.0886 -0.6813 -0.2302
   49MOL0     C 6534  10.725   3.521   3.552 -0.0230 -0.4332 -0.7638
   49MOL0     C 6535  10.460   3.889   3.638 -0.1373  0.0402 -0.5155
   49MOL0     C 6536  10.414   4.018   3.597 -0.0083 -0.0384 -0.2710
   49MOL0     C 6537  10.342   4.101   3.683  0.1656 -0.6531 -0.1408
   49MOL0     C 6538  10.314   4.055   3.807  0.7178 -0.7410  0.5665
   49MOL0     O 6539  10.237   4.144   3.874  0.8740 -0.0576 -0.3260
   49MOL0     C 6540  10.198   4.122   4.010 -1.0506  0.8968  0.1508
   49MOL0     C 6541  10.316   4.175   4.102 -0.9143  0.5192 -0.0978
   49MOL0     C 6542  10.316   4.085   4.229  0.8407  0.1601 -0.2067
   49MOL0     C 6543  10.426   4.131   4.320 -0.0199 -0.3381 -0.0828
   49MOL0     C 6544  10.424   4.067   4.448 -0.4776 -0.1398  1.5227
   49MOL0     C 6545  10.427   4.018   4.561  0.6098  0.3630  0.0164
   49MOL0     C 6546  10.345   3.927   3.845  0.7791  0.5335  0.3672
   49MOL0     C 6547  10.415   3.837   3.765  0.9979  0.1426 -0.2134
   49MOL0     H 6548  10.584   3.692   3.293 -0.7355 -0.0174  0.1768
   49MOL0     H 6549  10.731   3.556   3.175  3.1309  1.0256  0.6844
   49MOL0     H 6550  10.891   3.460   3.099  0.2717 -0.0168 -0.1041
   49MOL0     H 6551  11.032   3.369   3.137  0.2336 -0.0076 -1.0112
   49MOL0     H 6552  10.759   3.277   3.042 -0.5989  0.3374 -1.2036
   49MOL0     H 6553  10.894   3.290   2.943 -0.5552  1.0640  0.7656
   49MOL0     H 6554  10.894   3.060   2.959 -2.5937 -3.3236  1.9580
   49MOL0     H 6555  11.017   3.098   3.067  0.2405 -0.8510 -2.9877
   49MOL0     H 6556  10.762   3.125   3.229  0.4043 -0.3088  0.3022
   49MOL0     H 6557  10.750   2.986   3.113 -0.2839 -1.5299 -1.6293
   49MOL0     H 6558  10.824   2.918   3.339  1.7152 -2.3319  0.7273
   49MOL0     H 6559  10.966   2.905   3.234  0.0633  3.4328 -2.8309
   49MOL0     H 6560  11.050   3.128   3.324 -2.1642  2.2487  0.1336
   49MOL0     H 6561  10.917   3.128   3.429  0.5476  0.2514 -0.2172
   49MOL0     H 6562  10.982   2.955   3.539  0.3065 -0.2688 -0.3197
   49MOL0     H 6563  11.085   2.874   3.439  3.4417  0.1741 -1.2061
   49MOL0     H 6564  11.263   3.058   3.462 -0.8611 -1.7001 -0.6385
   49MOL0     H 6565  11.222   2.985   3.621  4.4579  2.1235 -0.2286
   49MOL0     H 6566  10.990   3.164   3.727  0.6703  0.2960  0.4186
   49MOL0     H 6567  11.061   3.524   3.815 -0.9310 -0.2990  0.5240
   49MOL0     H 6568  10.946   3.385   3.852 -0.6795  1.1943  1.8370
   49MOL0     H 6569  11.233   3.396   3.943  0.4066  0.4800  0.2680
   49MOL0     H 6570  11.126   3.279   3.990  1.8786  1.0245  1.9726
   49MOL0     H 6571  10.987   3.442   4.111  0.1818 -0.1874 -0.5019
   49MOL0     H 6572  11.077   3.565   4.053 -3.0523 -0.5590 -0.1683
   49MOL0     H 6573  11.157   3.508   4.286 -0.5374  0.5749 -1.4145
   49MOL0     H 6574  11.283   3.468   4.174  0.9526 -2.2412  1.6161
   49MOL0     H 6575  11.431   3.402   4.282 -1.3796  0.8497  1.2799
   49MOL0     H 6576  11.650   3.399   4.329 -3.2199  2.0815 -0.0039
   49MOL0     H 6577  11.686   3.353   4.496 -1.1699  0.8658 -0.9168
   49MOL0     H 6578  11.728   3.246   4.353 -1.0010 -0.2131 -1.4406
   49MOL0     H 6579  11.499   2.741   4.648  0.0633 -0.9338 -0.2784
   49MOL0     H 6580  11.628   2.625   4.849 -1.1618 -1.2511 -1.2082
   49MOL0     H 6581  11.828   2.627   5.037  1.4162  0.7565 -0.0863
   49MOL0     H 6582  11.768   2.482   4.931 -0.2211  1.1400  0.2559
   49MOL0     H 6583  12.039   2.498   5.053  0.6463 -2.2375  2.3770
   49MOL0     H 6584  11.907   2.412   5.120  0.4552 -0.2028  0.5199
   49MOL0     H 6585  12.016   2.381   4.830 -0.7833 -4.1048 -3.5026
   49MOL0     H 6586  11.898   2.269   4.899  1.5961 -0.9261 -3.0686
   49MOL0     H 6587  12.113   2.151   4.915  1.7973  0.7999 -1.3004
   49MOL0     H 6588  12.183   2.289   4.989  1.0987 -3.5937  0.4775
   49MOL0     H 6589  11.947   2.141   5.120 -0.6646  1.8569  2.8261
   49MOL0     H 6590  12.042   2.261   5.197  0.5880 -0.7208  1.0406
   49MOL0     H 6591  12.093   2.045   5.274  0.7866  0.2634 -0.0264
   49MOL0     H 6592  12.131   1.997   5.102 -0.4867  0.6649 -0.9187
   49MOL0     H 6593  12.278   2.239   5.177  1.7101  0.7950  2.8178
   49MOL0     H 6594  12.333   2.079   5.112  0.9713 -0.3730  0.7328
   49MOL0     H 6595  12.268   2.040   5.401  0.0050  0.7564  2.6072
   49MOL0     H 6596  12.385   2.154   5.381  0.5572 -2.3572  1.8508
   49MOL0     H 6597  11.992   2.751   4.648  0.3010 -0.3687  2.3309
   49MOL0     H 6598  11.867   2.886   4.505  0.2742  0.5156 -0.1784
   49MOL0     H 6599  11.363   2.938   4.444 -1.2668 -0.2847 -1.1023
   49MOL0     H 6600  11.180   3.044   4.331  1.2322 -2.5714 -0.1818
   49MOL0     H 6601  10.855   3.342   3.526  0.2829 -0.8416 -0.9105
   49MOL0     H 6602  10.720   3.509   3.660  1.8946  1.9936 -0.3185
   49MOL0     H 6603  10.432   4.069   3.503  1.2916  0.6090  0.3170
   49MOL0     H 6604  10.315   4.201   3.651  1.0942 -0.1755  0.5287
   49MOL0     H 6605  10.106   4.179   4.020 -0.4415  1.7602  0.9317
   49MOL0     H 6606  10.174   4.016   4.024  0.6785 -0.0261 -2.8482
   49MOL0     H 6607  10.312   4.280   4.131  0.3794 -0.0895  2.5453
   49MOL0     H 6608  10.411   4.145   4.055 -1.4798 -0.2881 -0.7720
   49MOL0     H 6609  10.344   3.982   4.204  3.7405  0.4713  1.3503
   49MOL0     H 6610  10.217   4.102   4.273  1.8930  1.0308  1.9484
   49MOL0     H 6611  10.419   4.238   4.343  0.6372 -0.3831  0.3184
   49MOL0     H 6612  10.525   4.110   4.279 -1.5817 -1.4255 -3.7243
   49MOL0     H 6613  10.420   3.966   4.654  1.5818 -3.2350 -1.7432
   49MOL0     H 6614  10.319   3.878   3.938 -0.8598  1.8989  0.6597
   49MOL0     H 6615  10.457   3.749   3.811  1.6025  1.0849  1.0888
   50MOL0     O 6616   1.643  10.444   7.101 -0.3679 -0.3956 -0.3093
   50MOL0     C 6617   1.639  10.474   6.978  0.4809  0.2875 -1.1135
   50MOL0     O 6618   1.728  10.553   6.920 -0.1878 -0.3289  0.6923
   50MOL0     C 6619   1.831  10.625   6.977 -0.1353  0.6137 -0.4086
   50MOL0     C 6620   1.890  10.714   6.883 -0.1625  0.2133 -0.5224
   50MOL0     C 6621   1.993  10.801   6.941 -0.6024 -0.3935  1.6454
   50MOL0     C 6622   2.041  10.788   7.066 -0.2106  0.2807  0.4545
   50MOL0     O 6623   2.134  10.873   7.119 -0.7610 -0.4090  0.2291
   50MOL0     C 6624   2.240  10.931   7.038  0.3560  0.3573 -0.0908
   50MOL0     C 6625   2.375  10.880   7.075  0.5816  0.1118 -1.5771
   50MOL0     C 6626   2.443  10.939   7.200 -0.8181 -1.0901  0.2701
   50MOL0     C 6627   2.588  10.893   7.198 -0.3593  0.0921 -0.4884
   50MOL0     C 6628   2.652  10.915   7.336  0.3128 -0.6416  0.2652
   50MOL0     C 6629   2.802  10.889   7.346  0.2061 -1.0656 -0.0718
   50MOL0     C 6630   2.853  10.915   7.486 -0.7679  0.0393 -0.8310
   50MOL0     C 6631   3.007  10.875   7.495  0.5709 -0.0713  0.5810
   50MOL0     N 6632   3.063  10.907   7.630  0.2057 -0.4137 -0.2099
   50MOL0     C 6633   3.041  10.836   7.743  0.8282  0.2381  1.0108
   50MOL0     C 6634   3.112  10.892   7.845 -0.0117 -0.5109  0.5959
   50MOL0     C 6635   3.114  10.864   7.991 -0.9884 -0.1015 -0.1374
   50MOL0     C 6636   3.183  10.729   8.041 -0.8084 -0.3619  0.6583
   50MOL0     C 6637   3.076  10.616   8.053 -0.9314 -0.7042  0.4336
   50MOL0     C 6638   3.146  10.474   8.044  0.0815 -0.0995  0.1114
   50MOL0     O 6639   3.203  10.460   7.920  0.0582  1.3577  0.1486
   50MOL0     C 6640   3.234  10.334   7.874  0.1295  0.0430  0.0926
   50MOL0     C 6641   3.236  10.216   7.958 -0.3844 -0.1636  0.2015
   50MOL0     C 6642   3.293  10.093   7.915  0.1872  0.6249 -0.4107
   50MOL0     C 6643   3.274   9.965   8.002  0.0589 -0.5326 -0.2461
   50MOL0     C 6644   3.357  10.085   7.790 -0.4050  0.0425 -0.2248
   50MOL0     C 6645   3.402   9.958   7.733 -0.2361 -0.2254 -0.2140
   50MOL0     O 6646   3.300   9.885   7.678  0.2191  1.0208 -0.2823
   50MOL0     C 6647   3.338   9.769   7.621  0.6389  0.6225  0.8821
   50MOL0     C 6648   3.404   9.659   7.678 -0.1091  0.5413  0.3642
   50MOL0     C 6649   3.444   9.545   7.597 -0.1802 -0.6239  1.0455
   50MOL0     C 6650   3.414   9.540   7.469 -0.4738  0.2377  0.7799
   50MOL0     O 6651   3.444   9.423   7.405 -0.6790 -0.0975 -0.1109
   50MOL0     C 6652   3.534   9.438   7.291  0.1232 -0.3285  0.0048
   50MOL0     C 6653   3.600   9.301   7.256 -0.0444  0.1906 -0.1406
   50MOL0     C 6654   3.675   9.246   7.379 -0.0513 -0.5839  0.3284
   50MOL0     C 6655   3.781   9.352   7.428  0.1554 -0.4049  0.7010
   50MOL0     C 6656   3.860   9.284   7.529  0.0852 -0.0412 -0.0403
   50MOL0     C 6657   3.975   9.378   7.585 -0.5265  1.2179 -0.2395
   50MOL0     C 6658   4.074   9.287   7.676 -0.6151 -0.9047 -0.2268
   50MOL0     C 6659   4.020   9.170   7.757  0.0301 -0.5639  0.0179
   50MOL0    Cl 6660   4.165   9.103   7.847  0.1160  0.1423 -0.2649
   50MOL0     C 6661   3.353   9.649   7.409  0.5311 -0.3999  0.6262
   50MOL0     C 6662   3.324   9.764   7.480 -0.2527 -0.5555  0.1819
   50MOL0     O 6663   3.525   9.939   7.730  0.8270  1.0540 -0.7003
   50MOL0     C 6664   3.354  10.206   7.712  0.5026 -0.0312 -0.7590
   50MOL0     C 6665   3.300  10.330   7.753 -0.2932 -0.0553 -0.3533
   50MOL0     N 6666   3.193  10.989   7.785  0.2948 -0.6735 -0.6536
   50MOL0     N 6667   3.160  11.001   7.653  0.3655 -0.2488 -0.2609
   50MOL0     C 6668   1.986  10.691   7.149  0.9205 -0.1001 -0.4297
   50MOL0     C 6669   1.876  10.611   7.118 -0.1053 -0.2558  0.8301
   50MOL0     C 6670   1.544  10.395   6.898 -0.1466 -0.1413 -0.9945
   50MOL0     C 6671   1.547  10.412   6.761  0.0287 -0.3094 -0.0205
   50MOL0     C 6672   1.460  10.333   6.684 -0.2085  0.0691  0.7591
   50MOL0     C 6673   1.359  10.251   6.744 -0.4852  0.7292  0.4825
   50MOL0     O 6674   1.270  10.194   6.658 -0.4113 -0.4340 -0.2601
   50MOL0     C 6675   1.166  10.111   6.710  0.5886  0.2466 -0.5787
   50MOL0     C 6676   1.202   9.961   6.710  0.0828 -0.5414  0.4892
   50MOL0     C 6677   1.291   9.933   6.595  0.1961 -0.9034  0.2708
   50MOL0     C 6678   1.336   9.790   6.574 -0.6992  1.5086  0.0789
   50MOL0     C 6679   1.429   9.775   6.465  0.4096 -0.4221 -0.8834
   50MOL0     C 6680   1.489   9.737   6.367  0.2821  0.3138  0.3632
   50MOL0     C 6681   1.369  10.224   6.883  0.0676 -0.9272 -0.2194
   50MOL0     C 6682   1.454  10.306   6.957 -0.1333  0.3603 -0.2009
   50MOL0     H 6683   1.863  10.714   6.777  3.1101 -1.0239 -1.4615
   50MOL0     H 6684   2.031  10.876   6.872 -2.9962  2.2072  2.9251
   50MOL0     H 6685   2.218  10.929   6.931  1.0509  4.2454 -0.4541
   50MOL0     H 6686   2.239  11.038   7.061 -0.0302  0.3285  0.0345
   50MOL0     H 6687   2.358  10.774   7.097 -1.3731  0.7578  0.2778
   50MOL0     H 6688   2.445  10.886   6.991  0.4879 -1.9224 -1.8659
   50MOL0     H 6689   2.433  11.047   7.190 -0.0871 -0.8713  1.7233
   50MOL0     H 6690   2.391  10.906   7.290 -0.4937 -0.4685  0.6840
   50MOL0     H 6691   2.605  10.786   7.182 -3.8020 -0.7255  0.4414
   50MOL0     H 6692   2.647  10.939   7.118 -0.0564 -1.8098 -1.4312
   50MOL0     H 6693   2.628  11.019   7.360 -0.8153 -0.5482 -1.1559
   50MOL0     H 6694   2.598  10.847   7.403 -0.1032 -1.8244 -1.1945
   50MOL0     H 6695   2.808  10.782   7.321  0.2056 -0.8797 -0.8989
   50MOL0     H 6696   2.854  10.939   7.264  3.8474 -2.4243  1.2293
   50MOL0     H 6697   2.840  11.019   7.515  0.0963  0.4092 -1.7235
   50MOL0     H 6698   2.799  10.850   7.556  0.5382 -1.3011 -0.9994
   50MOL0     H 6699   3.066  10.926   7.419 -0.6906 -0.0363 -0.3980
   50MOL0     H 6700   3.017  10.767   7.478 -3.9002 -0.5146 -0.4853
   50MOL0     H 6701   2.968  10.757   7.752  0.4015  0.5078  0.0592
   50MOL0     H 6702   3.156  10.948   8.048 -0.1949  0.1810 -1.1014
   50MOL0     H 6703   3.010  10.878   8.020 -1.6254  2.9802 -3.2368
   50MOL0     H 6704   3.220  10.741   8.143  0.5222  2.2778 -0.0455
   50MOL0     H 6705   3.265  10.693   7.979 -2.6508 -3.8580  0.0115
   50MOL0     H 6706   2.999  10.631   7.976  0.2144  0.9713 -0.4472
   50MOL0     H 6707   3.039  10.631   8.154  2.0366 -1.4556  1.7432
   50MOL0     H 6708   3.070  10.398   8.063  0.2783 -0.1643  0.6598
   50MOL0     H 6709   3.221  10.473   8.124  0.2884  0.4549 -0.0697
   50MOL0     H 6710   3.190  10.221   8.056 -2.4119  0.8676 -0.7437
   50MOL0     H 6711   3.222   9.997   8.093 -0.7739  0.3062 -0.9961
   50MOL0     H 6712   3.214   9.894   7.945  2.4613  0.2873 -4.1896
   50MOL0     H 6713   3.371   9.917   8.018  2.2012  2.5311 -2.7805
   50MOL0     H 6714   3.419   9.673   7.785 -3.0183  1.2599  0.7635
   50MOL0     H 6715   3.497   9.465   7.650  0.6378 -0.5684  0.3384
   50MOL0     H 6716   3.475   9.449   7.199  1.1454 -3.9414 -1.2623
   50MOL0     H 6717   3.603   9.522   7.294 -1.3510  0.9441  3.2270
   50MOL0     H 6718   3.523   9.227   7.235  1.8511 -1.9265 -0.0848
   50MOL0     H 6719   3.656   9.308   7.163  1.6073  3.9419  0.9479
   50MOL0     H 6720   3.721   9.147   7.367  1.3351  0.0565  0.1884
   50MOL0     H 6721   3.600   9.235   7.458 -0.6869 -1.9601 -0.4198
   50MOL0     H 6722   3.834   9.397   7.343 -0.4538  1.0412  1.0531
   50MOL0     H 6723   3.742   9.440   7.482  1.4106  0.8331 -0.3406
   50MOL0     H 6724   3.901   9.193   7.486  0.2682  0.7194 -1.5300
   50MOL0     H 6725   3.793   9.265   7.614 -0.0880  0.9032  0.0474
   50MOL0     H 6726   4.038   9.421   7.506  2.5030  0.0352  1.3673
   50MOL0     H 6727   3.926   9.459   7.640  1.4630  0.2243  3.2966
   50MOL0     H 6728   4.114   9.364   7.743 -0.2778  0.7348 -2.2154
   50MOL0     H 6729   4.155   9.235   7.626 -0.0490  2.2465 -2.9211
   50MOL0     H 6730   3.989   9.097   7.681  1.0570 -1.9006  0.8357
   50MOL0     H 6731   3.935   9.203   7.818 -0.9495 -1.4426 -0.8202
   50MOL0     H 6732   3.337   9.634   7.303  0.1558  3.1455  0.0858
   50MOL0     H 6733   3.264   9.845   7.439 -4.0462 -3.9742 -1.8153
   50MOL0     H 6734   3.384  10.185   7.610 -1.9742  2.3273 -2.1047
   50MOL0     H 6735   3.312  10.418   7.690  1.9212 -1.2910 -1.8146
   50MOL0     H 6736   2.027  10.680   7.249 -0.4855  0.0373  0.1763
   50MOL0     H 6737   1.838  10.533   7.183 -1.4758  1.2208  1.8838
   50MOL0     H 6738   1.613  10.480   6.709 -1.8994  1.0105 -0.8813
   50MOL0     H 6739   1.487  10.342   6.580 -1.7784 -0.3648  0.2787
   50MOL0     H 6740   1.130  10.147   6.807  4.6974  0.8342  0.9384
   50MOL0     H 6741   1.083  10.111   6.639  0.8657 -1.9035 -0.9623
   50MOL0     H 6742   1.115   9.895   6.697  2.4166 -3.6720 -0.2405
   50MOL0     H 6743   1.242   9.935   6.808 -1.7493 -3.4541  0.5823
   50MOL0     H 6744   1.384   9.988   6.614 -1.6090  2.9259 -1.0436
   50MOL0     H 6745   1.255   9.974   6.501  2.4030  3.3459  0.9984
   50MOL0     H 6746   1.259   9.714   6.555 -0.3770  0.8979  1.1464
   50MOL0     H 6747   1.396   9.761   6.661  0.7279 -1.4564 -1.7674
   50MOL0     H 6748   1.556   9.691   6.296  0.6361 -1.0412  1.5185
   50MOL0     H 6749   1.308  10.160   6.946 -0.9454 -0.4855 -0.7094
   50MOL0     H 6750   1.466  10.311   7.065  0.7461  2.2689 -0.3449
   51MOL0     O 6751  11.195   2.170   5.697  0.4672 -0.3995  0.0859
   51MOL0     C 6752  11.266   2.201   5.597  0.5045 -0.4782  0.0173
   51MOL0     O 6753  11.385   2.272   5.611  1.1641 -0.0465  0.5337
   51MOL0     C 6754  11.414   2.302   5.736 -0.0393  0.5288 -0.6484
   51MOL0     C 6755  11.341   2.397   5.797 -0.6352  0.7666  1.0086
   51MOL0     C 6756  11.362   2.434   5.928  0.8853 -0.3660 -0.4870
   51MOL0     C 6757  11.465   2.376   6.003  1.6171 -0.7890  0.4354
   51MOL0     O 6758  11.488   2.412   6.133  0.0849 -0.0877  0.1930
   51MOL0     C 6759  11.382   2.480   6.204 -0.2816 -0.2792  0.6325
   51MOL0     C 6760  11.424   2.484   6.350  0.0690  0.1422 -0.6685
   51MOL0     C 6761  11.321   2.543   6.447 -0.3476  0.1594 -0.3385
   51MOL0     C 6762  11.376   2.548   6.591  0.3161 -0.5345  0.7838
   51MOL0     C 6763  11.272   2.601   6.688  0.4413 -0.4649 -0.2206
   51MOL0     C 6764  11.167   2.509   6.725  0.2504 -0.7201 -0.1520
   51MOL0     C 6765  11.091   2.556   6.853  0.6557 -0.1858  0.1316
   51MOL0     C 6766  11.024   2.439   6.938  0.3780  0.4876  0.3783
   51MOL0     N 6767  11.125   2.326   6.974 -0.0092  0.5547  0.4940
   51MOL0     C 6768  11.144   2.213   6.896  0.6995  0.4771 -1.1521
   51MOL0     C 6769  11.240   2.144   6.962 -0.7969 -0.2200 -0.0046
   51MOL0     C 6770  11.297   2.004   6.936 -0.8612  0.5203 -0.2007
   51MOL0     C 6771  11.324   1.981   6.785 -1.1835 -0.4666 -0.6259
   51MOL0     C 6772  11.423   2.099   6.739 -1.4825  0.1789  0.3139
   51MOL0     C 6773  11.395   2.117   6.594 -0.4224 -1.4527 -0.0672
   51MOL0     O 6774  11.252   2.159   6.577  0.5462 -0.0560  0.6619
   51MOL0     C 6775  11.193   2.153   6.457 -0.1233 -1.2684  0.2533
   51MOL0     C 6776  11.064   2.134   6.452  0.2731 -0.1557 -0.7441
   51MOL0     C 6777  10.984   2.150   6.337 -0.6759  0.4347 -0.0523
   51MOL0     C 6778  10.841   2.137   6.365 -0.2470  0.2497 -0.6281
   51MOL0     C 6779  11.049   2.173   6.216  0.9538  0.3836  0.9689
   51MOL0     C 6780  10.976   2.169   6.088 -0.9672 -0.4447 -0.1768
   51MOL0     O 6781  11.035   2.247   5.987 -0.7313  0.1245  0.1662
   51MOL0     C 6782  10.953   2.316   5.897  1.0009  0.6406 -0.2290
   51MOL0     C 6783  10.923   2.444   5.924 -0.3657 -0.4073  0.8427
   51MOL0     C 6784  10.857   2.527   5.835 -0.1833 -1.0167 -0.1379
   51MOL0     C 6785  10.817   2.479   5.708 -0.4358  0.4099 -1.0937
   51MOL0     O 6786  10.772   2.570   5.614  0.2800  0.1757 -0.3008
   51MOL0     C 6787  10.716   2.523   5.487 -0.2039  0.5726  0.4157
   51MOL0     C 6788  10.703   2.634   5.393 -0.3189 -0.4163  0.7003
   51MOL0     C 6789  10.666   2.603   5.245  0.6060 -0.2348 -0.4772
   51MOL0     C 6790  10.519   2.580   5.228  0.4088 -0.3576 -0.8639
   51MOL0     C 6791  10.483   2.571   5.080 -0.0788  0.8117 -0.1679
   51MOL0     C 6792  10.329   2.549   5.059  0.7614  0.0751 -1.0572
   51MOL0     C 6793  10.243   2.676   5.097  0.3949 -0.4856  0.6608
   51MOL0     C 6794  10.096   2.655   5.072 -0.1735 -0.6297 -0.1181
   51MOL0    Cl 6795  10.052   2.484   5.105 -0.1321  0.0191 -0.5989
   51MOL0     C 6796  10.836   2.344   5.686 -1.0822  0.3099  0.6713
   51MOL0     C 6797  10.907   2.266   5.780  0.4275 -0.3836 -0.5185
   51MOL0     O 6798  10.869   2.119   6.081 -0.3497  0.1209  0.6896
   51MOL0     C 6799  11.194   2.191   6.217 -0.1804 -0.9146  0.2856
   51MOL0     C 6800  11.261   2.178   6.340 -0.0865 -0.6702 -0.1992
   51MOL0     N 6801  11.281   2.218   7.073 -0.4229  0.1945 -0.9158
   51MOL0     N 6802  11.214   2.323   7.075  0.3240 -0.4198  0.2750
   51MOL0     C 6803  11.558   2.301   5.936  0.7133 -0.5779  0.0909
   51MOL0     C 6804  11.534   2.255   5.805  0.2926 -0.9403 -0.0152
   51MOL0     C 6805  11.233   2.140   5.466 -0.2145  1.0939 -0.9575
   51MOL0     C 6806  11.139   2.030   5.456  0.1222  0.1989 -0.1330
   51MOL0     C 6807  11.101   1.976   5.339  0.0241  0.6531 -0.5531
   51MOL0     C 6808  11.162   2.020   5.214  0.0814 -0.7285 -0.4102
   51MOL0     O 6809  11.115   1.953   5.109 -0.5220 -0.3032  0.4763
   51MOL0     C 6810  11.150   1.812   5.106  0.0459 -0.3324 -0.5267
   51MOL0     C 6811  11.165   1.781   4.954 -0.2446 -0.3677 -0.4802
   51MOL0     C 6812  11.218   1.633   4.949 -0.5819  0.3940 -0.0036
   51MOL0     C 6813  11.247   1.572   4.813  0.7622 -0.3029  0.4331
   51MOL0     C 6814  11.367   1.645   4.756  1.3710 -0.6476  0.0489
   51MOL0     C 6815  11.470   1.673   4.700 -0.3935  1.0409 -0.0046
   51MOL0     C 6816  11.255   2.127   5.221 -0.4993  0.8910  0.2231
   51MOL0     C 6817  11.289   2.182   5.343 -0.1537  0.2820 -0.9684
   51MOL0     H 6818  11.252   2.423   5.740 -1.8630 -0.7611  2.1531
   51MOL0     H 6819  11.287   2.504   5.964 -3.1610 -3.0757 -2.9103
   51MOL0     H 6820  11.371   2.578   6.157  0.4510 -1.0755 -1.3472
   51MOL0     H 6821  11.278   2.449   6.189 -1.9349  4.9588 -0.8119
   51MOL0     H 6822  11.450   2.389   6.397 -2.2269  0.6938  1.9827
   51MOL0     H 6823  11.517   2.542   6.356  0.4367 -0.1632 -2.5975
   51MOL0     H 6824  11.278   2.639   6.419 -3.5059 -0.2728  2.3894
   51MOL0     H 6825  11.235   2.475   6.443 -0.4222  0.1562  0.7846
   51MOL0     H 6826  11.404   2.447   6.623 -0.3059 -1.4276 -1.3666
   51MOL0     H 6827  11.472   2.600   6.592 -0.6396  1.3716  2.7171
   51MOL0     H 6828  11.329   2.629   6.777  1.6133 -1.2732 -0.6942
   51MOL0     H 6829  11.219   2.685   6.643  0.0596  0.0114  1.0754
   51MOL0     H 6830  11.100   2.495   6.640 -2.7415 -1.5183  2.1728
   51MOL0     H 6831  11.214   2.413   6.750  0.0439 -0.0372  3.3100
   51MOL0     H 6832  11.153   2.620   6.917  0.0533 -0.8718  1.4162
   51MOL0     H 6833  11.007   2.618   6.823  1.8775  0.3017 -2.6215
   51MOL0     H 6834  10.931   2.397   6.899 -1.3393  3.2963  1.0684
   51MOL0     H 6835  10.983   2.482   7.030 -1.6930  0.4643 -0.4690
   51MOL0     H 6836  11.086   2.190   6.807  0.1119 -3.0670 -0.0192
   51MOL0     H 6837  11.389   1.993   6.994 -0.1970  3.3366 -0.5641
   51MOL0     H 6838  11.224   1.938   6.984  0.3753  1.4663  3.2960
   51MOL0     H 6839  11.228   1.979   6.733 -3.2265 -2.3621  2.9022
   51MOL0     H 6840  11.365   1.881   6.767 -1.9853 -0.9360  0.0754
   51MOL0     H 6841  11.524   2.074   6.773 -0.3188 -0.8512 -3.4704
   51MOL0     H 6842  11.402   2.193   6.791 -1.5072  0.3464  0.0067
   51MOL0     H 6843  11.419   2.031   6.530  2.5863 -1.0284  0.3551
   51MOL0     H 6844  11.461   2.199   6.564  1.3120 -2.4123  0.9712
   51MOL0     H 6845  11.018   2.120   6.549 -1.2684  1.3240 -1.2152
   51MOL0     H 6846  10.821   2.153   6.471  2.9028 -4.5017  0.9793
   51MOL0     H 6847  10.769   2.195   6.306 -0.3046  2.0629  1.1226
   51MOL0     H 6848  10.819   2.031   6.351 -2.9436  0.8399 -1.5637
   51MOL0     H 6849  10.952   2.491   6.018  2.1509  2.5564 -1.1966
   51MOL0     H 6850  10.846   2.633   5.856 -0.2991 -0.5842 -2.1602
   51MOL0     H 6851  10.791   2.454   5.449  0.0013  1.6085 -1.1551
   51MOL0     H 6852  10.623   2.471   5.511 -0.2318 -0.2289 -1.3286
   51MOL0     H 6853  10.626   2.700   5.436 -2.7458 -1.0315 -2.3457
   51MOL0     H 6854  10.802   2.680   5.396 -0.3801 -0.2935  0.9341
   51MOL0     H 6855  10.714   2.510   5.214 -0.8691 -0.2255 -3.0968
   51MOL0     H 6856  10.695   2.682   5.175 -0.8469 -1.2024 -2.2650
   51MOL0     H 6857  10.484   2.501   5.295  0.0623 -1.4750 -2.3154
   51MOL0     H 6858  10.466   2.669   5.262 -0.1471 -1.1092  0.2849
   51MOL0     H 6859  10.540   2.484   5.047  0.1829  0.0992  1.9949
   51MOL0     H 6860  10.530   2.655   5.027  2.0467 -1.2318 -1.7214
   51MOL0     H 6861  10.308   2.519   4.956  0.3952 -0.7557 -0.7553
   51MOL0     H 6862  10.308   2.460   5.120  2.3677 -0.6442 -1.4919
   51MOL0     H 6863  10.281   2.753   5.029  1.7253 -2.5437 -1.0640
   51MOL0     H 6864  10.254   2.706   5.202 -0.5418  0.2115  0.5697
   51MOL0     H 6865  10.076   2.684   4.968  2.5812  2.0814 -0.0467
   51MOL0     H 6866  10.038   2.721   5.137 -0.1627  0.9338 -1.6099
   51MOL0     H 6867  10.807   2.282   5.602 -2.5301  1.6419  0.1292
   51MOL0     H 6868  10.917   2.158   5.772  0.9717 -0.3472 -0.3746
   51MOL0     H 6869  11.259   2.188   6.130  1.8504 -0.9186  1.7145
   51MOL0     H 6870  11.369   2.187   6.340  0.2250 -3.4416 -0.2400
   51MOL0     H 6871  11.646   2.277   5.994  0.0440  1.7359  2.2231
   51MOL0     H 6872  11.610   2.193   5.758 -0.1295 -1.4063 -0.1022
   51MOL0     H 6873  11.087   2.002   5.547  1.4978 -1.3090  0.2520
   51MOL0     H 6874  11.015   1.912   5.328  2.2263 -2.2117 -2.5519
   51MOL0     H 6875  11.247   1.798   5.155 -0.7720 -1.5912  0.7987
   51MOL0     H 6876  11.072   1.750   5.150  0.4961 -1.4332 -1.2523
   51MOL0     H 6877  11.227   1.859   4.909 -0.2138  0.6996  1.3154
   51MOL0     H 6878  11.066   1.792   4.909 -0.5976 -0.8612  0.1765
   51MOL0     H 6879  11.151   1.559   4.994  0.1633 -1.8036 -2.2614
   51MOL0     H 6880  11.307   1.623   5.012 -0.1233  1.5376 -0.4448
   51MOL0     H 6881  11.158   1.596   4.755  0.6069  0.8359  1.1100
   51MOL0     H 6882  11.267   1.464   4.821  2.4934  0.0796  2.0589
   51MOL0     H 6883  11.554   1.700   4.639  2.1044 -1.7053  1.9613
   51MOL0     H 6884  11.311   2.154   5.132  1.6480 -1.0761  0.8828
   51MOL0     H 6885  11.366   2.258   5.347 -1.2527  1.3589  0.4926
   52MOL0     O 6886   9.849   8.277   7.203  0.2701  0.6373  0.5824
   52MOL0     C 6887   9.827   8.275   7.084  0.6148 -1.0663  0.0132
   52MOL0     O 6888   9.722   8.228   7.017  0.7531 -0.1865  1.1597
   52MOL0     C 6889   9.615   8.188   7.098 -0.8656 -0.0995 -0.2290
   52MOL0     C 6890   9.579   8.053   7.090  0.7235  0.3917 -0.2086
   52MOL0     C 6891   9.469   7.997   7.167 -0.9942  0.0883  0.7704
   52MOL0     C 6892   9.395   8.080   7.240 -0.1587 -0.4394 -0.3497
   52MOL0     O 6893   9.292   8.024   7.314 -0.3671 -0.8273  0.1941
   52MOL0     C 6894   9.298   8.038   7.449  1.3151 -0.1627 -0.4273
   52MOL0     C 6895   9.398   7.932   7.494  0.7619  0.2371 -0.1535
   52MOL0     C 6896   9.399   7.917   7.650  1.2891 -0.9549  0.1377
   52MOL0     C 6897   9.438   7.775   7.682 -0.7656 -0.1019 -1.2045
   52MOL0     C 6898   9.471   7.781   7.831 -0.0305 -0.1276 -0.6543
   52MOL0     C 6899   9.473   7.638   7.893  0.0676 -0.6792 -0.6309
   52MOL0     C 6900   9.527   7.656   8.041  0.5978 -0.3601 -0.3768
   52MOL0     C 6901   9.556   7.510   8.091  0.2396 -0.0775 -0.3268
   52MOL0     N 6902   9.444   7.420   8.092  0.3256 -0.3686 -0.0244
   52MOL0     C 6903   9.413   7.325   7.994 -0.8472  0.0239 -0.2132
   52MOL0     C 6904   9.296   7.259   8.028 -0.4039  0.1316  0.7491
   52MOL0     C 6905   9.224   7.167   7.942 -0.5681  0.5629 -0.5560
   52MOL0     C 6906   9.097   7.222   7.881  0.4703 -0.4399  0.2789
   52MOL0     C 6907   9.126   7.338   7.790 -0.2510 -0.3909  0.2681
   52MOL0     C 6908   8.995   7.393   7.737  0.6113 -0.6232 -0.2392
   52MOL0     O 6909   9.033   7.490   7.634 -0.2765  0.3590  0.5201
   52MOL0     C 6910   8.940   7.572   7.583  0.0544 -0.6189 -0.7576
   52MOL0     C 6911   8.990   7.684   7.520  0.7569 -0.0593 -0.2117
   52MOL0     C 6912   8.900   7.774   7.462  0.6561  0.9272  0.0946
   52MOL0     C 6913   8.975   7.884   7.374  1.5643  0.3279 -0.1257
   52MOL0     C 6914   8.755   7.763   7.477  0.3417 -0.2917  0.2124
   52MOL0     C 6915   8.662   7.862   7.420 -0.0517  0.4994 -0.5923
   52MOL0     O 6916   8.536   7.825   7.389  1.0100 -0.3416  0.3016
   52MOL0     C 6917   8.460   7.930   7.356  0.2551 -0.0098 -0.8408
   52MOL0     C 6918   8.346   7.953   7.435  0.4120  0.4397 -0.1764
   52MOL0     C 6919   8.262   8.053   7.413 -0.5633 -0.3369 -0.0324
   52MOL0     C 6920   8.274   8.132   7.302 -0.7401 -0.9027 -0.2585
   52MOL0     O 6921   8.191   8.235   7.262 -0.3912  1.3852 -1.3060
   52MOL0     C 6922   8.091   8.185   7.167  0.1034 -0.0174  1.0183
   52MOL0     C 6923   8.063   8.293   7.058 -0.7424  0.1462 -0.3072
   52MOL0     C 6924   7.939   8.236   6.979 -0.6407  0.8639  1.3504
   52MOL0     C 6925   7.954   8.114   6.874 -1.4380 -0.7680 -0.9284
   52MOL0     C 6926   7.823   8.054   6.858 -0.5049  0.0146 -0.2378
   52MOL0     C 6927   7.730   8.147   6.775  0.2574 -0.5289  0.2043
   52MOL0     C 6928   7.788   8.197   6.639 -0.0940  1.8186 -0.1293
   52MOL0     C 6929   7.694   8.243   6.534  0.2048 -0.0330 -0.2196
   52MOL0    Cl 6930   7.610   8.387   6.602  0.2544  0.0309 -0.0517
   52MOL0     C 6931   8.385   8.108   7.223  0.6136 -0.2077 -0.4916
   52MOL0     C 6932   8.465   7.997   7.237 -0.0807 -0.2206 -0.8432
   52MOL0     O 6933   8.709   7.973   7.424 -0.0033  0.3618  0.8194
   52MOL0     C 6934   8.710   7.650   7.539 -0.0129  0.0834 -0.1017
   52MOL0     C 6935   8.804   7.556   7.597  0.3896  0.3223  0.2469
   52MOL0     N 6936   9.261   7.322   8.149 -0.1110  1.2538  0.2752
   52MOL0     N 6937   9.341   7.418   8.184  0.4276  0.2239  0.1999
   52MOL0     C 6938   9.425   8.217   7.245  0.1235 -0.4129  0.0561
   52MOL0     C 6939   9.527   8.274   7.169 -0.2144 -0.6487 -0.5949
   52MOL0     C 6940   9.934   8.316   6.999  0.2940  0.5181 -0.2017
   52MOL0     C 6941   9.962   8.270   6.876  0.1103 -0.4193  1.2711
   52MOL0     C 6942  10.065   8.330   6.799  0.4963  0.6300  0.4729
   52MOL0     C 6943  10.142   8.442   6.848  0.2929  0.2889  0.6101
   52MOL0     O 6944  10.242   8.489   6.761  0.7825 -0.8842 -0.2763
   52MOL0     C 6945  10.320   8.607   6.787 -0.7207 -0.2205 -0.6175
   52MOL0     C 6946  10.255   8.747   6.772 -0.2354 -0.3662  0.8270
   52MOL0     C 6947  10.198   8.766   6.633  0.2614 -0.7613 -0.1084
   52MOL0     C 6948  10.056   8.698   6.616 -0.4225  0.3231 -0.7622
   52MOL0     C 6949   9.957   8.751   6.709 -0.6524 -0.4235 -0.7412
   52MOL0     C 6950   9.866   8.782   6.786  0.0122  0.1978  0.1355
   52MOL0     C 6951  10.114   8.494   6.969  0.6178 -0.3318 -0.8459
   52MOL0     C 6952  10.009   8.436   7.044  0.6734 -0.4249  0.8460
   52MOL0     H 6953   9.644   7.989   7.032 -0.0091  0.2013 -0.8327
   52MOL0     H 6954   9.450   7.892   7.148 -3.0473  0.7928 -1.6757
   52MOL0     H 6955   9.336   8.136   7.479 -2.2102  1.0075  0.8262
   52MOL0     H 6956   9.196   8.013   7.481  1.5892 -3.6918 -1.8910
   52MOL0     H 6957   9.361   7.840   7.447  2.1237  0.7083 -2.3034
   52MOL0     H 6958   9.498   7.952   7.454  0.4321  0.8356 -0.7078
   52MOL0     H 6959   9.457   7.991   7.707  0.5214 -0.0997 -0.1711
   52MOL0     H 6960   9.295   7.937   7.678  0.1959 -0.7050 -3.5856
   52MOL0     H 6961   9.351   7.718   7.647 -2.7078  2.5152 -0.9371
   52MOL0     H 6962   9.528   7.738   7.632  0.6904 -1.9940  2.4438
   52MOL0     H 6963   9.571   7.823   7.840  0.6491 -2.0505  2.0646
   52MOL0     H 6964   9.386   7.835   7.875 -0.0944  0.2200 -1.1975
   52MOL0     H 6965   9.373   7.595   7.898  0.4858 -1.5553  1.7657
   52MOL0     H 6966   9.538   7.581   7.828 -0.5741 -0.4831 -1.4563
   52MOL0     H 6967   9.617   7.718   8.031 -0.3706  1.3935  1.0495
   52MOL0     H 6968   9.451   7.708   8.101  0.7905 -1.4558  0.8440
   52MOL0     H 6969   9.586   7.510   8.196  1.8091 -2.4897 -0.6885
   52MOL0     H 6970   9.648   7.461   8.058  0.2950 -1.0670  1.1855
   52MOL0     H 6971   9.444   7.321   7.890  1.7888 -2.9149  0.5264
   52MOL0     H 6972   9.301   7.132   7.874  1.4741 -0.8964  2.2704
   52MOL0     H 6973   9.201   7.084   8.011  1.4812  0.1804 -0.2844
   52MOL0     H 6974   9.028   7.234   7.965 -0.7199 -0.0055 -0.7282
   52MOL0     H 6975   9.045   7.151   7.816 -1.3171 -0.0622  1.2315
   52MOL0     H 6976   9.194   7.305   7.710  0.9961 -0.5719  1.3702
   52MOL0     H 6977   9.182   7.419   7.839 -1.9754  0.6639  0.5678
   52MOL0     H 6978   8.931   7.429   7.818  4.2775  1.8315  1.8355
   52MOL0     H 6979   8.948   7.316   7.676 -0.9554 -0.9075  1.2618
   52MOL0     H 6980   9.097   7.698   7.506  0.6776 -0.6151 -1.5225
   52MOL0     H 6981   8.907   7.922   7.297 -1.4724  1.1441  2.6976
   52MOL0     H 6982   9.009   7.958   7.447  3.2925 -0.3760 -0.1708
   52MOL0     H 6983   9.058   7.845   7.315 -0.0549 -0.3525 -2.0497
   52MOL0     H 6984   8.328   7.887   7.520  0.7402  0.8615  0.2242
   52MOL0     H 6985   8.176   8.073   7.476 -1.7279 -2.3459 -0.8927
   52MOL0     H 6986   8.121   8.096   7.112 -1.0268 -1.3743  2.5009
   52MOL0     H 6987   7.998   8.147   7.210  0.0455 -1.4158 -0.2742
   52MOL0     H 6988   8.030   8.385   7.106 -2.1652  0.9523 -2.6719
   52MOL0     H 6989   8.149   8.300   6.989 -0.2870  0.5318  0.2913
   52MOL0     H 6990   7.881   8.317   6.933 -1.7674 -0.4314  0.3968
   52MOL0     H 6991   7.874   8.195   7.057 -0.3463 -0.9226  0.6861
   52MOL0     H 6992   7.997   8.142   6.778  1.5240 -0.3904  0.4026
   52MOL0     H 6993   8.021   8.036   6.913  1.2375  2.8243  2.4512
   52MOL0     H 6994   7.786   8.027   6.957  1.2409 -1.2109  0.1225
   52MOL0     H 6995   7.836   7.962   6.799  0.3686  1.9401 -3.3086
   52MOL0     H 6996   7.633   8.098   6.763 -1.8041  2.9069  1.5577
   52MOL0     H 6997   7.710   8.226   6.848 -2.4083 -2.0742  1.3129
   52MOL0     H 6998   7.847   8.110   6.606  0.3102  2.5785 -1.5034
   52MOL0     H 6999   7.852   8.282   6.666  0.2182  1.1434  1.3249
   52MOL0     H 7000   7.624   8.159   6.527  1.4122 -1.0079 -1.0867
   52MOL0     H 7001   7.749   8.256   6.440  3.1508  4.3060  1.7530
   52MOL0     H 7002   8.413   8.165   7.135  0.5103  0.0120 -0.3841
   52MOL0     H 7003   8.525   7.958   7.155  1.3072 -1.8221  0.8534
   52MOL0     H 7004   8.604   7.629   7.551  0.4857 -5.0304 -2.0917
   52MOL0     H 7005   8.754   7.467   7.637  0.8761 -0.1992 -0.2880
   52MOL0     H 7006   9.361   8.283   7.303 -1.2919 -0.2031 -1.6555
   52MOL0     H 7007   9.550   8.380   7.176 -2.2257 -0.2479  0.8377
   52MOL0     H 7008   9.912   8.192   6.820  1.6577 -1.4771  1.2983
   52MOL0     H 7009  10.074   8.286   6.700  2.7878  2.1204 -0.0704
   52MOL0     H 7010  10.356   8.613   6.890  0.0873  1.5278 -0.9637
   52MOL0     H 7011  10.413   8.605   6.729  1.5042 -0.2812  2.6352
   52MOL0     H 7012  10.329   8.824   6.795 -1.0737  1.0901 -1.0815
   52MOL0     H 7013  10.170   8.769   6.838 -0.4550 -0.0232  0.4323
   52MOL0     H 7014  10.261   8.707   6.567 -1.7428 -3.8550  0.5297
   52MOL0     H 7015  10.198   8.875   6.617  4.6222 -0.2669  1.6918
   52MOL0     H 7016  10.052   8.589   6.623 -0.7404  0.4217  1.1756
   52MOL0     H 7017  10.023   8.720   6.514 -0.7297 -2.1320 -1.2595
   52MOL0     H 7018   9.791   8.783   6.863  0.3413 -0.2604  0.4705
   52MOL0     H 7019  10.155   8.587   7.008  1.1465 -1.8607  2.6005
   52MOL0     H 7020   9.993   8.489   7.138  1.3880  1.6733 -0.1389
   53MOL0     O 7021  11.171   0.852   7.804  0.2429  0.1107 -0.3591
   53MOL0     C 7022  11.125   0.963   7.786 -0.4631  0.5036 -0.0072
   53MOL0     O 7023  11.196   1.076   7.746 -0.0989  0.3617  0.2704
   53MOL0     C 7024  11.332   1.082   7.709  1.1403 -0.0799 -0.5978
   53MOL0     C 7025  11.368   1.190   7.636  0.0899 -0.4811  0.2491
   53MOL0     C 7026  11.500   1.207   7.599 -0.3508  0.1109 -0.0591
   53MOL0     C 7027  11.600   1.110   7.631 -0.2007  0.0612 -0.0420
   53MOL0     O 7028  11.726   1.133   7.588 -0.4472 -0.2597  0.2019
   53MOL0     C 7029  11.822   1.028   7.631  0.4537  0.2666  0.2809
   53MOL0     C 7030  11.822   0.909   7.534 -0.1001 -0.2190 -0.3378
   53MOL0     C 7031  11.876   0.945   7.390  0.3966 -0.2908  0.1549
   53MOL0     C 7032  11.884   0.824   7.300  0.0832  0.6239 -0.1824
   53MOL0     C 7033  11.851   0.874   7.158 -0.0967 -0.4469  0.6395
   53MOL0     C 7034  11.843   0.753   7.053 -0.2379  0.3351 -0.4452
   53MOL0     C 7035  11.774   0.798   6.921  0.7379  0.6546  0.3216
   53MOL0     C 7036  11.850   0.713   6.810  0.5905  0.1924 -0.7808
   53MOL0     N 7037  11.809   0.736   6.675 -0.0122 -0.8672 -0.6627
   53MOL0     C 7038  11.819   0.857   6.608 -0.7857 -0.7258  0.2031
   53MOL0     C 7039  11.802   0.827   6.477 -0.6380  0.3354  1.1673
   53MOL0     C 7040  11.811   0.937   6.370 -1.2172  0.6595  0.3265
   53MOL0     C 7041  11.786   0.878   6.232 -0.5313  0.1569  0.4883
   53MOL0     C 7042  11.803   0.984   6.127 -0.4763  0.5200  0.8186
   53MOL0     C 7043  11.803   0.914   5.987 -0.7263  0.1064  0.0737
   53MOL0     O 7044  11.855   1.007   5.893 -0.4978  0.4640  0.0894
   53MOL0     C 7045  11.867   0.987   5.761  0.4955 -0.2573  0.3173
   53MOL0     C 7046  11.869   0.845   5.710 -0.0074 -0.5872 -0.4135
   53MOL0     C 7047  11.896   0.826   5.571 -0.6715 -0.0465 -0.4836
   53MOL0     C 7048  11.889   0.681   5.532 -0.0661  0.2535 -0.0592
   53MOL0     C 7049  11.940   0.929   5.492  0.9220 -0.3854 -0.4855
   53MOL0     C 7050  11.985   0.912   5.346  0.1774 -0.6074 -0.3434
   53MOL0     O 7051  12.030   1.032   5.290 -0.3968  1.1413 -0.6989
   53MOL0     C 7052  12.057   1.056   5.152 -0.0018  0.0839  0.1102
   53MOL0     C 7053  11.968   1.015   5.059  0.0880  0.6518  0.8868
   53MOL0     C 7054  12.002   1.017   4.920  0.4081 -1.0967 -0.1711
   53MOL0     C 7055  12.119   1.077   4.875  0.1228  0.8924  0.1157
   53MOL0     O 7056  12.162   1.077   4.750  0.3285 -0.0404  0.4506
   53MOL0     C 7057  12.062   1.105   4.647  0.1108 -0.3889 -1.0240
   53MOL0     C 7058  12.140   1.176   4.541 -0.4085 -0.0483  0.4912
   53MOL0     C 7059  12.192   1.307   4.593  0.7492 -0.5547  0.8280
   53MOL0     C 7060  12.288   1.395   4.508  0.4276 -0.6358 -0.3832
   53MOL0     C 7061  12.232   1.458   4.385 -0.2676  0.2058 -0.3318
   53MOL0     C 7062  12.334   1.469   4.273  0.2433  0.3872  0.1532
   53MOL0     C 7063  12.467   1.543   4.309  0.3713  0.0718  0.8694
   53MOL0     C 7064  12.564   1.537   4.189  0.0427  0.1148 -0.6387
   53MOL0    Cl 7065  12.480   1.585   4.036  0.6136 -0.4215  0.4539
   53MOL0     C 7066  12.215   1.119   4.982 -0.1223  0.0328 -0.3234
   53MOL0     C 7067  12.181   1.102   5.115 -0.3309 -0.1213 -0.3863
   53MOL0     O 7068  11.988   0.797   5.292 -0.0781 -0.5292  0.2294
   53MOL0     C 7069  11.931   1.061   5.548 -0.0206 -0.0861 -0.1295
   53MOL0     C 7070  11.905   1.085   5.674  0.1954  0.4117 -0.6957
   53MOL0     N 7071  11.785   0.694   6.461 -0.1601  0.5917 -0.3198
   53MOL0     N 7072  11.797   0.642   6.581 -0.1733 -0.2866  0.3190
   53MOL0     C 7073  11.554   1.006   7.717  0.0802  0.3628  0.9025
   53MOL0     C 7074  11.429   1.007   7.767  0.5240  0.9288 -0.4020
   53MOL0     C 7075  10.989   0.992   7.818  0.4153 -0.1183 -0.1047
   53MOL0     C 7076  10.927   1.100   7.764 -0.1708 -0.6550 -0.6869
   53MOL0     C 7077  10.798   1.127   7.802  0.1351 -0.0933  0.2278
   53MOL0     C 7078  10.716   1.041   7.873 -0.5293  0.3003 -0.6274
   53MOL0     O 7079  10.584   1.065   7.907 -0.2521  0.3774 -0.2950
   53MOL0     C 7080  10.541   1.196   7.905  0.0361  0.4326  0.6388
   53MOL0     C 7081  10.402   1.220   7.979  0.3572 -0.2408 -1.1089
   53MOL0     C 7082  10.288   1.165   7.892 -0.5653 -0.5638 -0.7306
   53MOL0     C 7083  10.156   1.200   7.949  1.0635  0.0748 -0.3336
   53MOL0     C 7084  10.133   1.153   8.092 -0.6851  0.9345 -0.6828
   53MOL0     C 7085  10.090   1.109   8.198 -0.8657  0.0331 -0.3178
   53MOL0     C 7086  10.778   0.924   7.919  0.1433 -0.4277  0.3794
   53MOL0     C 7087  10.915   0.900   7.892 -0.0751 -0.1029 -0.7085
   53MOL0     H 7088  11.295   1.264   7.606 -0.5315 -1.3415 -0.3836
   53MOL0     H 7089  11.545   1.293   7.549  2.7552 -0.2583  1.8403
   53MOL0     H 7090  11.925   1.064   7.636 -0.4512  3.1565  0.0042
   53MOL0     H 7091  11.796   0.996   7.733 -0.0769  3.5241  1.2970
   53MOL0     H 7092  11.885   0.833   7.582 -1.4864 -0.6763  0.8495
   53MOL0     H 7093  11.721   0.866   7.526 -0.0074 -0.8151  1.2878
   53MOL0     H 7094  11.822   1.030   7.349  1.5936  0.5717  0.3119
   53MOL0     H 7095  11.978   0.981   7.403  1.8789 -4.6032  2.6459
   53MOL0     H 7096  11.977   0.768   7.308 -1.2969 -1.5693  2.1999
   53MOL0     H 7097  11.803   0.757   7.333 -0.7640  0.4987 -2.3242
   53MOL0     H 7098  11.753   0.924   7.156  2.0036  4.2687 -1.5999
   53MOL0     H 7099  11.921   0.950   7.121  0.9487 -1.3526  0.6954
   53MOL0     H 7100  11.941   0.709   7.033 -1.4158 -1.6646 -2.3442
   53MOL0     H 7101  11.771   0.679   7.090  0.2290  0.5744  0.9864
   53MOL0     H 7102  11.670   0.763   6.916  0.4272  1.3216  1.6206
   53MOL0     H 7103  11.779   0.906   6.904  0.5704  0.7610  0.9380
   53MOL0     H 7104  11.836   0.609   6.842 -0.1141  0.7821  0.9131
   53MOL0     H 7105  11.955   0.743   6.811  0.6760 -0.0030 -1.9558
   53MOL0     H 7106  11.850   0.950   6.653 -0.0159 -1.3639  1.0375
   53MOL0     H 7107  11.733   1.013   6.384 -0.3506  1.3296  1.6285
   53MOL0     H 7108  11.912   0.973   6.390 -1.3865 -0.1502  3.0733
   53MOL0     H 7109  11.684   0.839   6.244 -0.5154 -0.9043 -2.0614
   53MOL0     H 7110  11.841   0.786   6.213 -0.3216  0.5120 -0.7176
   53MOL0     H 7111  11.902   1.031   6.136 -0.5144  0.7822 -0.0297
   53MOL0     H 7112  11.728   1.062   6.139  0.0802  1.3308 -0.6476
   53MOL0     H 7113  11.699   0.887   5.967 -0.3688 -0.5776 -0.9765
   53MOL0     H 7114  11.868   0.826   5.987 -3.7674 -2.3643  2.4007
   53MOL0     H 7115  11.843   0.769   5.783 -0.3435 -1.7606 -1.7156
   53MOL0     H 7116  11.981   0.640   5.489 -0.8259 -1.2158 -0.3556
   53MOL0     H 7117  11.867   0.616   5.617  2.7614 -2.5545 -1.2797
   53MOL0     H 7118  11.808   0.672   5.459  1.9999  1.2121 -2.6456
   53MOL0     H 7119  11.881   0.967   5.102  1.2626 -0.3248  2.2674
   53MOL0     H 7120  11.932   0.972   4.851  1.7824 -0.7975 -1.8409
   53MOL0     H 7121  12.033   1.007   4.606 -2.0146  0.2545 -1.1670
   53MOL0     H 7122  11.979   1.162   4.689 -0.1584 -1.6911  0.2780
   53MOL0     H 7123  12.231   1.121   4.518 -0.4578  1.1529 -3.3042
   53MOL0     H 7124  12.081   1.182   4.449  0.4307  4.0318  0.0333
   53MOL0     H 7125  12.250   1.284   4.683 -0.8002 -3.3539  1.2362
   53MOL0     H 7126  12.103   1.362   4.626  0.3077 -0.0638 -1.0346
   53MOL0     H 7127  12.336   1.471   4.570  3.3004 -0.2367 -2.8154
   53MOL0     H 7128  12.367   1.323   4.486  2.4807  2.0961 -2.7754
   53MOL0     H 7129  12.194   1.559   4.405 -1.8626 -0.1902 -1.1358
   53MOL0     H 7130  12.149   1.397   4.348  0.2165  0.1646 -1.3787
   53MOL0     H 7131  12.360   1.367   4.243  0.6965  1.0595 -1.9525
   53MOL0     H 7132  12.279   1.513   4.189 -1.0764  1.4203  1.5055
   53MOL0     H 7133  12.520   1.510   4.398 -2.1011 -0.1777  2.3245
   53MOL0     H 7134  12.449   1.648   4.332  4.0310  1.7837 -2.7219
   53MOL0     H 7135  12.601   1.434   4.187  1.1201  0.3561  1.9315
   53MOL0     H 7136  12.651   1.603   4.199  1.2086 -1.3090 -0.9661
   53MOL0     H 7137  12.308   1.168   4.955  0.4157  0.5534  2.1810
   53MOL0     H 7138  12.242   1.114   5.204  0.6381 -0.3328 -0.9961
   53MOL0     H 7139  11.962   1.142   5.483 -1.1803 -0.6896 -1.4923
   53MOL0     H 7140  11.935   1.179   5.720  1.5760 -0.7590  0.9169
   53MOL0     H 7141  11.616   0.927   7.758  3.0708  1.5910 -0.9254
   53MOL0     H 7142  11.406   0.924   7.834 -0.9074  0.7923 -1.0285
   53MOL0     H 7143  10.988   1.150   7.689  0.8953 -2.2958 -0.9765
   53MOL0     H 7144  10.745   1.215   7.767  0.1436 -0.0983  0.2019
   53MOL0     H 7145  10.616   1.256   7.957  0.9275  0.2142 -0.3687
   53MOL0     H 7146  10.539   1.253   7.811  3.1390 -0.2455  0.0596
   53MOL0     H 7147  10.380   1.324   8.001 -3.3726 -0.3510 -3.4345
   53MOL0     H 7148  10.414   1.167   8.074  0.5846  0.4683 -0.7371
   53MOL0     H 7149  10.300   1.058   7.875  0.3024 -0.5655 -0.2088
   53MOL0     H 7150  10.294   1.206   7.790 -0.0775 -2.0939 -1.3506
   53MOL0     H 7151  10.100   1.147   7.871  2.4327 -0.6449 -0.8455
   53MOL0     H 7152  10.137   1.305   7.927 -0.4466 -0.2605 -0.7653
   53MOL0     H 7153  10.068   1.064   8.293  4.2272 -0.9571  0.6564
   53MOL0     H 7154  10.723   0.847   7.974  3.7324 -2.3371  1.6508
   53MOL0     H 7155  10.957   0.808   7.930 -2.8695 -1.1744  0.0167
   54MOL0     O 7156   1.118   7.334   7.028 -0.2830 -0.1542 -0.4129
   54MOL0     C 7157   1.154   7.312   6.915  0.4165 -0.2162  0.0036
   54MOL0     O 7158   1.069   7.281   6.812 -0.7005 -0.2064  0.8645
   54MOL0     C 7159   0.932   7.277   6.833  0.0542 -0.3323 -0.8959
   54MOL0     C 7160   0.856   7.205   6.750 -1.1231 -0.3883  0.5411
   54MOL0     C 7161   0.715   7.201   6.755  0.4882 -0.0840 -0.0663
   54MOL0     C 7162   0.651   7.279   6.855  1.1518  0.0353  0.3037
   54MOL0     O 7163   0.517   7.265   6.861  0.5156 -0.1990 -0.1010
   54MOL0     C 7164   0.439   7.392   6.871 -0.6294  0.3410  0.5981
   54MOL0     C 7165   0.313   7.385   6.785 -0.3681  1.4239 -1.1139
   54MOL0     C 7166   0.244   7.254   6.780 -0.2599  0.4237  0.2301
   54MOL0     C 7167   0.203   7.208   6.915 -0.0648  0.4172 -0.5750
   54MOL0     C 7168   0.121   7.074   6.904  0.9238  0.1903 -0.7568
   54MOL0     C 7169  -0.026   7.095   6.871  0.6900 -0.4130  0.5306
   54MOL0     C 7170  -0.088   6.948   6.870 -0.3859 -0.4346 -0.7511
   54MOL0     C 7171  -0.233   6.940   6.831  0.5171 -0.8577 -0.3363
   54MOL0     N 7172  -0.290   6.807   6.832 -0.1785  0.6533 -0.2803
   54MOL0     C 7173  -0.252   6.721   6.732 -0.8663  0.2954 -0.0817
   54MOL0     C 7174  -0.336   6.618   6.732 -0.3799 -0.6883  0.3486
   54MOL0     C 7175  -0.336   6.501   6.628 -0.0636  0.4959  0.0619
   54MOL0     C 7176  -0.207   6.414   6.640 -0.1778 -0.0145 -0.3955
   54MOL0     C 7177  -0.218   6.281   6.565 -0.0110 -0.0337  0.1739
   54MOL0     C 7178  -0.160   6.273   6.422 -0.3229 -0.7011 -0.1536
   54MOL0     O 7179  -0.209   6.157   6.358 -0.8550  0.5038  0.1610
   54MOL0     C 7180  -0.138   6.100   6.255  0.5216 -0.8625 -0.2519
   54MOL0     C 7181  -0.201   6.013   6.166 -0.5650 -0.1059  0.0950
   54MOL0     C 7182  -0.132   5.976   6.044 -0.4432 -0.3001 -1.0722
   54MOL0     C 7183  -0.213   5.898   5.956  0.0920 -0.1232  0.2268
   54MOL0     C 7184   0.005   6.005   6.029 -0.9291 -0.9123 -0.2267
   54MOL0     C 7185   0.088   5.964   5.919 -0.3451 -0.4491 -0.1745
   54MOL0     O 7186   0.208   6.029   5.915  0.1129 -0.1085  0.6237
   54MOL0     C 7187   0.289   5.997   5.814 -0.6049 -1.1834 -0.4591
   54MOL0     C 7188   0.315   6.104   5.720  0.1206 -0.6625  0.6107
   54MOL0     C 7189   0.390   6.084   5.609  0.3973 -0.3698  0.5612
   54MOL0     C 7190   0.459   5.970   5.588 -1.0408  0.9670  0.3046
   54MOL0     O 7191   0.541   5.955   5.477  0.7245  0.2812  0.0055
   54MOL0     C 7192   0.535   6.042   5.363  0.5507 -0.0080 -0.4724
   54MOL0     C 7193   0.403   6.039   5.278 -0.2734 -0.1432 -0.4669
   54MOL0     C 7194   0.381   5.904   5.216 -0.2653  0.9790 -0.1925
   54MOL0     C 7195   0.261   5.902   5.120 -0.4290  0.4940 -0.2547
   54MOL0     C 7196   0.286   5.826   4.992 -0.1499  0.4009  0.3876
   54MOL0     C 7197   0.164   5.836   4.905  0.6263  0.3643 -0.4900
   54MOL0     C 7198   0.168   5.727   4.799 -0.3777 -0.2402 -1.2066
   54MOL0     C 7199   0.040   5.731   4.712 -0.4472 -0.5312 -0.7626
   54MOL0    Cl 7200   0.038   5.574   4.637 -0.1396 -0.1254  0.0616
   54MOL0     C 7201   0.448   5.867   5.677 -0.7377 -0.3183 -0.1572
   54MOL0     C 7202   0.369   5.883   5.790  0.5268  0.7137  1.1673
   54MOL0     O 7203   0.057   5.870   5.838 -0.4723  0.0896 -0.4082
   54MOL0     C 7204   0.073   6.081   6.130  0.1633 -0.4325  0.0811
   54MOL0     C 7205   0.002   6.132   6.241  0.1319  0.0234  0.5211
   54MOL0     N 7206  -0.426   6.649   6.831  0.5308 -0.4798  0.7321
   54MOL0     N 7207  -0.402   6.759   6.898  0.0073  0.1616  0.4475
   54MOL0     C 7208   0.726   7.359   6.939 -0.2660  0.1595  0.1826
   54MOL0     C 7209   0.865   7.361   6.927 -0.7751  0.5896  0.5549
   54MOL0     C 7210   1.299   7.331   6.882 -1.3619  0.3824  0.3518
   54MOL0     C 7211   1.340   7.329   6.746  0.3891  0.6727 -0.1356
   54MOL0     C 7212   1.473   7.324   6.718 -0.4870 -0.2605  0.2108
   54MOL0     C 7213   1.565   7.330   6.827 -0.0438 -0.0409 -0.3393
   54MOL0     O 7214   1.700   7.331   6.803  0.9322  0.5160 -0.1924
   54MOL0     C 7215   1.759   7.412   6.717 -0.3488 -0.2515  0.0639
   54MOL0     C 7216   1.721   7.556   6.737  0.6044 -0.2198  0.5463
   54MOL0     C 7217   1.798   7.655   6.653 -0.0322  0.1782  0.4852
   54MOL0     C 7218   1.780   7.629   6.500  0.5903 -0.3912 -0.3258
   54MOL0     C 7219   1.648   7.581   6.453 -0.2886 -0.6685  0.2330
   54MOL0     C 7220   1.539   7.537   6.418  0.4398 -0.2770  0.0379
   54MOL0     C 7221   1.524   7.354   6.959  0.3871 -0.5228 -0.3056
   54MOL0     C 7222   1.389   7.358   6.989 -0.8298  0.3410 -0.5053
   54MOL0     H 7223   0.901   7.145   6.671  0.3057  0.7214  0.4721
   54MOL0     H 7224   0.645   7.143   6.695 -0.0183  0.6801 -0.2180
   54MOL0     H 7225   0.420   7.407   6.978  0.7540  0.0048  0.9072
   54MOL0     H 7226   0.503   7.473   6.835 -1.9848  1.7595  1.2530
   54MOL0     H 7227   0.244   7.463   6.819 -0.7976  0.9122 -0.7853
   54MOL0     H 7228   0.346   7.390   6.681  2.3326  0.3232 -0.4061
   54MOL0     H 7229   0.160   7.260   6.710 -0.2247 -0.8089  0.0591
   54MOL0     H 7230   0.301   7.168   6.743 -0.8948  0.2071 -0.2771
   54MOL0     H 7231   0.283   7.193   6.988 -1.7956  1.4371  1.6506
   54MOL0     H 7232   0.142   7.281   6.969 -0.8500 -1.4317  1.1921
   54MOL0     H 7233   0.168   7.010   6.829  0.5621 -0.1634 -0.6843
   54MOL0     H 7234   0.123   7.020   7.000 -0.6145  0.5359 -0.5026
   54MOL0     H 7235  -0.086   7.153   6.942 -3.1663  1.3786 -3.6983
   54MOL0     H 7236  -0.029   7.146   6.775 -2.6638  1.6087  1.5536
   54MOL0     H 7237  -0.030   6.894   6.795 -0.1320 -2.9008  1.1029
   54MOL0     H 7238  -0.063   6.910   6.970 -1.5517  0.1971 -0.1980
   54MOL0     H 7239  -0.236   6.973   6.727  2.0842  0.5983  0.0333
   54MOL0     H 7240  -0.294   7.008   6.891  0.2436  1.2995 -2.8947
   54MOL0     H 7241  -0.172   6.725   6.659 -0.7922 -0.5345 -0.0526
   54MOL0     H 7242  -0.425   6.442   6.654  0.9491  0.3793  3.9103
   54MOL0     H 7243  -0.348   6.546   6.530  0.1577  1.5323  0.4987
   54MOL0     H 7244  -0.197   6.382   6.744  0.9413  0.1866 -0.4341
   54MOL0     H 7245  -0.117   6.474   6.628 -0.6789  1.1432  1.2697
   54MOL0     H 7246  -0.324   6.254   6.559 -1.3948  4.3303  1.2216
   54MOL0     H 7247  -0.159   6.208   6.622 -0.6373  2.0198  3.7367
   54MOL0     H 7248  -0.052   6.284   6.437 -0.5724  0.5047  0.9441
   54MOL0     H 7249  -0.193   6.358   6.361  0.5536 -1.1067 -1.2307
   54MOL0     H 7250  -0.308   5.994   6.165 -0.2204 -2.6124  1.4537
   54MOL0     H 7251  -0.191   5.926   5.853  2.8861  0.3167  0.8812
   54MOL0     H 7252  -0.190   5.792   5.971 -2.4767 -0.6218  1.1776
   54MOL0     H 7253  -0.319   5.916   5.978 -0.2440 -0.7496 -0.8020
   54MOL0     H 7254   0.279   6.206   5.733  3.0549  0.9968 -2.4553
   54MOL0     H 7255   0.391   6.169   5.541 -1.3246 -0.3596  0.5274
   54MOL0     H 7256   0.559   6.144   5.394  1.5388  0.2257 -1.8905
   54MOL0     H 7257   0.619   6.019   5.297  1.7344  0.1798  0.9122
   54MOL0     H 7258   0.313   6.059   5.338 -1.5844 -0.8967 -2.1102
   54MOL0     H 7259   0.415   6.121   5.206 -1.7305 -0.2081 -0.8204
   54MOL0     H 7260   0.352   5.835   5.296  0.2046  2.4435  1.2777
   54MOL0     H 7261   0.473   5.883   5.161 -0.9824 -3.3633 -0.0928
   54MOL0     H 7262   0.175   5.853   5.168  0.5406  1.4247  2.6514
   54MOL0     H 7263   0.241   6.005   5.090 -1.2333  1.4237  3.0201
   54MOL0     H 7264   0.314   5.720   4.994 -3.7644 -0.7687 -1.7341
   54MOL0     H 7265   0.366   5.875   4.935  1.0419 -1.3144  0.5199
   54MOL0     H 7266   0.074   5.847   4.966  0.8555  3.9226 -0.5910
   54MOL0     H 7267   0.174   5.927   4.845  1.4790 -0.6393 -1.9013
   54MOL0     H 7268   0.173   5.632   4.853 -0.8942  0.3201 -0.1465
   54MOL0     H 7269   0.262   5.729   4.742  0.4601 -1.9748  0.0373
   54MOL0     H 7270   0.046   5.812   4.638  0.8984  0.5302  0.4475
   54MOL0     H 7271  -0.046   5.741   4.779  0.6641 -0.7723  0.7461
   54MOL0     H 7272   0.503   5.776   5.654 -1.3476 -0.4130 -1.3101
   54MOL0     H 7273   0.353   5.806   5.865 -4.4667  0.3434  0.0887
   54MOL0     H 7274   0.179   6.102   6.124  0.2424 -0.4047  1.2505
   54MOL0     H 7275   0.057   6.196   6.309  2.4298 -1.5198  0.2286
   54MOL0     H 7276   0.686   7.408   7.027 -3.5867  0.3091 -1.2642
   54MOL0     H 7277   0.910   7.412   7.012  0.1143  0.5068  0.1538
   54MOL0     H 7278   1.270   7.327   6.663  3.0984  1.3190 -2.6067
   54MOL0     H 7279   1.502   7.314   6.614  0.9479 -3.2735  0.7862
   54MOL0     H 7280   1.868   7.402   6.714 -0.5675 -3.9461 -0.4735
   54MOL0     H 7281   1.736   7.385   6.613  3.2381 -0.4173 -0.8159
   54MOL0     H 7282   1.758   7.589   6.835  0.2767 -2.9692  1.7019
   54MOL0     H 7283   1.614   7.580   6.737  1.5191  5.0608 -0.7740
   54MOL0     H 7284   1.906   7.651   6.669 -0.1377  1.2495  1.6414
   54MOL0     H 7285   1.763   7.758   6.665 -0.2769  0.0476  0.9367
   54MOL0     H 7286   1.866   7.568   6.469  1.8867  1.0490  0.3111
   54MOL0     H 7287   1.798   7.718   6.439 -1.2826 -0.6089 -1.2579
   54MOL0     H 7288   1.441   7.502   6.393 -0.2452  2.7932 -2.2293
   54MOL0     H 7289   1.600   7.365   7.036  1.0681 -1.5425 -0.8083
   54MOL0     H 7290   1.365   7.384   7.092  3.4598  0.8469  0.5500
   55MOL0     O 7291   0.190   1.865   0.036  0.6688  0.4610  0.3580
   55MOL0     C 7292   0.143   1.831  -0.075  0.0305  0.2545 -1.0801
   55MOL0     O 7293   0.201   1.868  -0.196 -0.0379  0.8373  0.8465
   55MOL0     C 7294   0.260   1.998  -0.195 -0.2477  0.0614  0.2586
   55MOL0     C 7295   0.396   2.008  -0.182 -0.5510 -0.6108  0.0864
   55MOL0     C 7296   0.439   2.141  -0.157 -0.0688  0.9488 -0.1474
   55MOL0     C 7297   0.355   2.252  -0.144  0.2521  0.3117  0.6606
   55MOL0     O 7298   0.417   2.368  -0.119  0.2258  0.6313  0.1908
   55MOL0     C 7299   0.349   2.492  -0.146 -0.6750 -0.2992  0.3967
   55MOL0     C 7300   0.449   2.609  -0.102 -0.0958  0.2655 -1.1245
   55MOL0     C 7301   0.476   2.607   0.047  0.3382  0.3864  0.3404
   55MOL0     C 7302   0.513   2.749   0.098 -0.3020  0.3690  0.2119
   55MOL0     C 7303   0.481   2.742   0.253 -0.0754 -0.0437 -1.0027
   55MOL0     C 7304   0.540   2.851   0.352 -0.0138  0.3757  0.6912
   55MOL0     C 7305   0.447   2.860   0.472 -1.2317 -0.2792  0.5945
   55MOL0     C 7306   0.512   2.922   0.589  0.5245 -0.1351 -0.0136
   55MOL0     N 7307   0.425   2.916   0.710 -0.0324 -0.0710  0.3919
   55MOL0     C 7308   0.412   2.808   0.797 -0.7868  0.5503  0.1301
   55MOL0     C 7309   0.330   2.852   0.899 -0.1631  0.1024 -1.0599
   55MOL0     C 7310   0.276   2.759   0.999 -0.5935  0.6282 -0.5717
   55MOL0     C 7311   0.141   2.704   0.951 -0.7082 -0.5405  0.1151
   55MOL0     C 7312   0.059   2.646   1.065  0.2598 -0.4490 -0.0520
   55MOL0     C 7313   0.111   2.510   1.110 -0.4295  0.5047  0.9629
   55MOL0     O 7314   0.192   2.504   1.227  0.6121 -0.5100  0.5063
   55MOL0     C 7315   0.144   2.488   1.347 -0.3410  1.5491 -0.3561
   55MOL0     C 7316   0.029   2.412   1.370  0.7755  0.7580 -0.0205
   55MOL0     C 7317  -0.030   2.411   1.495 -0.2310 -0.0170 -0.3482
   55MOL0     C 7318  -0.169   2.373   1.494 -0.1679 -0.6201  0.1200
   55MOL0     C 7319   0.047   2.464   1.604 -0.6452 -0.2585 -0.4907
   55MOL0     C 7320   0.001   2.459   1.745 -1.0565  0.2553 -0.0195
   55MOL0     O 7321   0.059   2.545   1.830 -0.1587 -0.7234 -0.5460
   55MOL0     C 7322   0.005   2.560   1.953  0.0768 -0.1121  1.4715
   55MOL0     C 7323  -0.078   2.665   1.994 -0.2831  0.1510 -0.8398
   55MOL0     C 7324  -0.146   2.662   2.120 -0.5907 -0.3344 -0.1097
   55MOL0     C 7325  -0.124   2.554   2.204 -0.0548  1.1356  0.5373
   55MOL0     O 7326  -0.173   2.551   2.335 -0.0072  0.2476  0.1247
   55MOL0     C 7327  -0.180   2.666   2.428 -0.6279 -0.3492 -0.9625
   55MOL0     C 7328  -0.284   2.635   2.522  0.6136  0.2826 -0.0246
   55MOL0     C 7329  -0.277   2.493   2.589  0.3112  0.3422 -0.4167
   55MOL0     C 7330  -0.370   2.492   2.695  0.0294 -0.4146 -0.8260
   55MOL0     C 7331  -0.383   2.355   2.756 -0.2959  0.2435 -0.0626
   55MOL0     C 7332  -0.504   2.337   2.848  0.2297  0.7064  0.4543
   55MOL0     C 7333  -0.512   2.197   2.910  0.9016  0.6744 -0.4672
   55MOL0     C 7334  -0.617   2.187   3.025  0.5462 -0.2329  0.5926
   55MOL0    Cl 7335  -0.774   2.114   2.978  0.1167  0.1649 -0.0333
   55MOL0     C 7336  -0.032   2.455   2.167  0.5797 -0.3494 -0.2881
   55MOL0     C 7337   0.030   2.468   2.049  0.4166  0.9313  0.0926
   55MOL0     O 7338  -0.062   2.358   1.778  0.4327  1.1102  0.7549
   55MOL0     C 7339   0.174   2.526   1.576 -0.0459  0.6629 -0.7747
   55MOL0     C 7340   0.226   2.535   1.449 -0.2892  0.3356 -0.0236
   55MOL0     N 7341   0.317   2.985   0.873 -0.3153  0.3203 -0.8113
   55MOL0     N 7342   0.365   3.020   0.765  1.1231 -0.5783  0.1856
   55MOL0     C 7343   0.222   2.233  -0.159  0.0164 -0.6255  1.0516
   55MOL0     C 7344   0.171   2.103  -0.185 -1.1471  0.8678  0.0085
   55MOL0     C 7345   0.031   1.731  -0.089  0.7763 -0.3764 -0.3585
   55MOL0     C 7346  -0.020   1.655   0.023  0.3314 -0.7181  0.4762
   55MOL0     C 7347  -0.126   1.557   0.007 -0.4222 -0.6125 -0.0783
   55MOL0     C 7348  -0.177   1.529  -0.122  0.1356 -0.7207  0.0801
   55MOL0     O 7349  -0.289   1.452  -0.150  0.0159 -0.0776  0.3704
   55MOL0     C 7350  -0.349   1.383  -0.040  0.0103  0.1374 -1.1469
   55MOL0     C 7351  -0.462   1.296  -0.083  0.8027 -0.3213 -0.1207
   55MOL0     C 7352  -0.580   1.391  -0.122  0.5334 -0.5037 -0.8208
   55MOL0     C 7353  -0.706   1.309  -0.159  0.0993  1.6339  0.7994
   55MOL0     C 7354  -0.673   1.210  -0.268 -0.5154  0.3069  0.6275
   55MOL0     C 7355  -0.635   1.142  -0.367  0.3912 -0.5444 -0.1309
   55MOL0     C 7356  -0.126   1.609  -0.229 -0.0923 -0.2547  0.5161
   55MOL0     C 7357  -0.025   1.698  -0.211  0.6703  0.0732  0.2362
   55MOL0     H 7358   0.464   1.924  -0.176  0.6094  0.3050  0.3286
   55MOL0     H 7359   0.546   2.153  -0.143  0.4612  1.5935 -3.6976
   55MOL0     H 7360   0.325   2.484  -0.252  0.3742 -3.0046  0.2741
   55MOL0     H 7361   0.259   2.499  -0.085 -1.7320 -0.5230 -1.0770
   55MOL0     H 7362   0.543   2.611  -0.158 -0.5365  4.3360 -2.0198
   55MOL0     H 7363   0.392   2.698  -0.127 -0.5008  0.1353 -0.6688
   55MOL0     H 7364   0.390   2.563   0.098 -1.7524 -0.5453 -3.6129
   55MOL0     H 7365   0.567   2.546   0.058  0.9700  1.5735  2.2415
   55MOL0     H 7366   0.618   2.774   0.080  0.8046 -1.6709  3.0858
   55MOL0     H 7367   0.463   2.837   0.058 -0.4093 -1.2997 -3.9371
   55MOL0     H 7368   0.373   2.757   0.260  0.0399  0.2767  0.3367
   55MOL0     H 7369   0.514   2.645   0.289  0.4677  0.9723  1.4255
   55MOL0     H 7370   0.633   2.804   0.385 -1.3379 -1.7321  1.5834
   55MOL0     H 7371   0.555   2.948   0.302  1.4039 -1.5671 -2.9999
   55MOL0     H 7372   0.368   2.935   0.458 -0.1978  0.5764 -0.9479
   55MOL0     H 7373   0.398   2.764   0.491 -3.4739  1.0875  2.2838
   55MOL0     H 7374   0.543   3.026   0.573  0.0044  0.1598  0.8381
   55MOL0     H 7375   0.602   2.876   0.632  1.8363  1.6071 -0.7475
   55MOL0     H 7376   0.453   2.709   0.782  1.7972  1.4011  1.1292
   55MOL0     H 7377   0.354   2.685   1.015  0.8879  2.4005  0.8231
   55MOL0     H 7378   0.272   2.810   1.096  2.6594 -2.2612  1.3003
   55MOL0     H 7379   0.143   2.622   0.878  0.2993  0.0101 -0.5033
   55MOL0     H 7380   0.084   2.784   0.904  1.3645  0.4871 -0.7746
   55MOL0     H 7381  -0.041   2.633   1.023 -0.1659 -0.8706  1.0580
   55MOL0     H 7382   0.033   2.720   1.141 -1.5009  0.2218 -1.2393
   55MOL0     H 7383   0.181   2.481   1.031  0.7447  3.5834  0.7468
   55MOL0     H 7384   0.028   2.439   1.101  0.9901 -0.9122 -2.9866
   55MOL0     H 7385  -0.024   2.365   1.288 -1.0024  1.4503  0.6838
   55MOL0     H 7386  -0.231   2.387   1.405  0.1606  1.2562  0.1507
   55MOL0     H 7387  -0.155   2.266   1.511  2.8139 -0.3797 -0.3850
   55MOL0     H 7388  -0.228   2.415   1.576 -2.7562 -3.0423 -0.3198
   55MOL0     H 7389  -0.081   2.746   1.922  1.2417 -1.5737 -3.0002
   55MOL0     H 7390  -0.200   2.755   2.132  0.9959  0.4687  1.3281
   55MOL0     H 7391  -0.085   2.689   2.478 -1.5375 -0.3573  0.8137
   55MOL0     H 7392  -0.198   2.760   2.375 -1.9618  0.8159  1.4071
   55MOL0     H 7393  -0.296   2.717   2.593 -1.4451 -0.0039  0.0085
   55MOL0     H 7394  -0.370   2.643   2.456  0.8907  3.7219 -0.1710
   55MOL0     H 7395  -0.181   2.472   2.637 -0.9031 -1.3363  1.3953
   55MOL0     H 7396  -0.301   2.416   2.514  1.1897 -0.3242 -0.0353
   55MOL0     H 7397  -0.335   2.551   2.780 -1.4665 -3.1404  1.8835
   55MOL0     H 7398  -0.467   2.541   2.680 -0.4132 -0.3236  1.8491
   55MOL0     H 7399  -0.295   2.338   2.818  0.5013  4.9522  0.5216
   55MOL0     H 7400  -0.386   2.280   2.676  0.2493  0.8712 -0.6871
   55MOL0     H 7401  -0.511   2.413   2.926  1.4534  2.1339 -0.7648
   55MOL0     H 7402  -0.594   2.348   2.786  0.6551 -2.5732 -0.9804
   55MOL0     H 7403  -0.417   2.183   2.962  0.3719 -2.1844 -0.0942
   55MOL0     H 7404  -0.511   2.117   2.836  0.9566  2.4365 -2.4843
   55MOL0     H 7405  -0.636   2.285   3.070  2.3291 -0.3343  1.6220
   55MOL0     H 7406  -0.576   2.120   3.100 -0.8513  1.9161  3.4813
   55MOL0     H 7407  -0.029   2.366   2.228  0.3158 -0.0341  0.1949
   55MOL0     H 7408   0.083   2.383   2.007 -1.7183  0.0542 -1.0224
   55MOL0     H 7409   0.232   2.553   1.664  0.2212 -1.0436 -0.3895
   55MOL0     H 7410   0.315   2.593   1.427 -2.1746  2.5129 -2.6445
   55MOL0     H 7411   0.150   2.313  -0.144 -0.9677 -1.6834  2.1464
   55MOL0     H 7412   0.065   2.082  -0.192 -0.8722 -3.5990  3.9400
   55MOL0     H 7413   0.021   1.664   0.123 -0.4947  1.5379  0.6765
   55MOL0     H 7414  -0.157   1.498   0.093  1.5310 -1.8919 -0.1866
   55MOL0     H 7415  -0.282   1.311   0.009 -1.1444  0.1751  0.5455
   55MOL0     H 7416  -0.387   1.453   0.034 -3.1486 -0.9432 -1.6200
   55MOL0     H 7417  -0.495   1.233  -0.000  0.6924 -1.3850 -0.9662
   55MOL0     H 7418  -0.431   1.237  -0.169  0.0577  0.8015 -1.1849
   55MOL0     H 7419  -0.551   1.461  -0.200 -1.0266  0.8134 -0.2826
   55MOL0     H 7420  -0.604   1.456  -0.037  1.3877 -1.0362 -0.1604
   55MOL0     H 7421  -0.778   1.377  -0.205  0.0469  0.7966 -0.4025
   55MOL0     H 7422  -0.751   1.269  -0.068  3.6756 -1.7177  1.3211
   55MOL0     H 7423  -0.599   1.088  -0.452  0.9539 -2.7323  1.4095
   55MOL0     H 7424  -0.175   1.593  -0.324 -1.4720 -0.2692  1.1980
   55MOL0     H 7425   0.023   1.746  -0.296 -0.0169  0.2524 -0.0592
   56MOL0     O 7426   3.139   2.707   4.566  0.2997 -0.9245 -0.6715
   56MOL0     C 7427   3.208   2.757   4.650 -0.2721 -0.3388  0.5499
   56MOL0     O 7428   3.207   2.740   4.789 -0.2679  0.0062  0.4748
   56MOL0     C 7429   3.091   2.674   4.842  0.4538 -0.5891 -0.0085
   56MOL0     C 7430   3.040   2.699   4.971 -0.2419  0.2991  0.6948
   56MOL0     C 7431   2.918   2.647   5.012  0.3421 -0.4277  0.3091
   56MOL0     C 7432   2.850   2.539   4.955 -0.2274 -0.0830  0.1482
   56MOL0     O 7433   2.723   2.498   4.994 -0.0937 -0.7846  0.1678
   56MOL0     C 7434   2.671   2.513   5.135  0.2279  0.7287  0.1838
   56MOL0     C 7435   2.523   2.465   5.137  0.1535 -0.1463  0.7361
   56MOL0     C 7436   2.477   2.437   5.275  0.2526 -0.4952 -0.1835
   56MOL0     C 7437   2.468   2.569   5.357  0.1626 -0.1460 -0.3966
   56MOL0     C 7438   2.406   2.698   5.301 -0.9970  0.4687  1.2059
   56MOL0     C 7439   2.377   2.811   5.403  0.8898 -0.5110 -0.3887
   56MOL0     C 7440   2.508   2.860   5.466  0.3621 -0.1071  0.2399
   56MOL0     C 7441   2.497   2.996   5.531 -0.4260  1.0073 -0.5425
   56MOL0     N 7442   2.498   3.098   5.438  0.3333 -0.6882  0.1205
   56MOL0     C 7443   2.613   3.133   5.359  0.1341 -0.0571  0.6287
   56MOL0     C 7444   2.586   3.247   5.293 -0.0626  0.0007  0.0402
   56MOL0     C 7445   2.677   3.321   5.201  0.4695 -0.4380 -0.3934
   56MOL0     C 7446   2.626   3.467   5.164 -0.5350  0.3896  0.0187
   56MOL0     C 7447   2.727   3.520   5.059  0.3950  0.0690  1.9655
   56MOL0     C 7448   2.694   3.456   4.924 -0.1087  0.2790  1.1124
   56MOL0     O 7449   2.777   3.512   4.822 -0.0802  0.1817 -1.0344
   56MOL0     C 7450   2.742   3.519   4.694 -0.9362  1.0134 -0.5689
   56MOL0     C 7451   2.838   3.577   4.609 -0.0053  0.4215 -0.4429
   56MOL0     C 7452   2.819   3.581   4.473  0.1746  0.5392  0.7479
   56MOL0     C 7453   2.923   3.660   4.399 -0.3256 -0.5866  0.6955
   56MOL0     C 7454   2.695   3.517   4.422 -1.1012  0.3483 -0.4166
   56MOL0     C 7455   2.656   3.507   4.282  0.3540 -0.2414  0.0357
   56MOL0     O 7456   2.527   3.510   4.245  0.0589  0.2830 -0.8651
   56MOL0     C 7457   2.480   3.514   4.122 -0.3881 -0.0858  0.4195
   56MOL0     C 7458   2.536   3.429   4.029 -0.1646 -0.7810  0.1064
   56MOL0     C 7459   2.488   3.436   3.896 -0.6071 -1.1378 -0.3899
   56MOL0     C 7460   2.391   3.531   3.857 -0.0896 -0.4490 -0.8616
   56MOL0     O 7461   2.362   3.524   3.727  0.1450  0.1106 -0.2274
   56MOL0     C 7462   2.217   3.505   3.697 -0.3341 -1.2302 -0.5973
   56MOL0     C 7463   2.182   3.355   3.717  0.4844 -0.2410 -0.1895
   56MOL0     C 7464   2.048   3.309   3.653  0.0056  0.1675 -0.4173
   56MOL0     C 7465   1.949   3.203   3.726  0.9678  0.1465  0.4688
   56MOL0     C 7466   1.805   3.212   3.660 -0.3338 -0.3224  0.5784
   56MOL0     C 7467   1.793   3.213   3.506  0.0902 -0.0390 -0.0748
   56MOL0     C 7468   1.648   3.197   3.456  0.0748 -0.5392  1.1261
   56MOL0     C 7469   1.625   3.165   3.301 -0.2530 -0.1343 -0.3511
   56MOL0    Cl 7470   1.712   3.004   3.256  0.2365 -0.7707 -0.1433
   56MOL0     C 7471   2.330   3.610   3.945  0.8226  0.3286 -0.4622
   56MOL0     C 7472   2.374   3.607   4.077 -0.2962 -0.2365  0.3766
   56MOL0     O 7473   2.748   3.512   4.191 -0.1930  0.4927  0.6363
   56MOL0     C 7474   2.600   3.458   4.511 -0.2853 -0.2921  0.0271
   56MOL0     C 7475   2.628   3.458   4.648  1.0289  0.9399 -0.6284
   56MOL0     N 7476   2.455   3.285   5.336 -0.3249 -0.4118 -0.1810
   56MOL0     N 7477   2.412   3.199   5.431  0.2028  0.5439  0.4571
   56MOL0     C 7478   2.912   2.494   4.834  0.0940 -0.5116  0.0349
   56MOL0     C 7479   3.024   2.562   4.780  1.3179 -0.1415 -0.8091
   56MOL0     C 7480   3.323   2.842   4.601 -0.5111  0.9104 -0.2582
   56MOL0     C 7481   3.316   2.895   4.467 -0.6302  0.0859  0.1327
   56MOL0     C 7482   3.424   2.962   4.414 -1.3061 -0.4648 -0.7032
   56MOL0     C 7483   3.535   2.995   4.503  0.4711 -0.4103  0.4567
   56MOL0     O 7484   3.617   3.098   4.452 -0.7841 -0.1923 -0.4895
   56MOL0     C 7485   3.737   3.134   4.521 -0.7260 -0.4713 -0.0260
   56MOL0     C 7486   3.720   3.249   4.626  0.3943  0.8937  0.9710
   56MOL0     C 7487   3.842   3.348   4.636 -0.2277  1.1724 -0.3427
   56MOL0     C 7488   3.824   3.442   4.761  0.0547  0.5777  0.4411
   56MOL0     C 7489   3.712   3.533   4.742 -0.6531 -0.1956 -0.3530
   56MOL0     C 7490   3.606   3.593   4.732  0.2243  0.1064  1.0455
   56MOL0     C 7491   3.543   2.935   4.627  0.8374 -0.7072 -1.0833
   56MOL0     C 7492   3.442   2.861   4.683 -0.5109 -0.0155 -0.2144
   56MOL0     H 7493   3.076   2.778   5.037 -1.5660  0.3918  1.3436
   56MOL0     H 7494   2.868   2.687   5.100 -2.5129 -2.2820 -0.3412
   56MOL0     H 7495   2.725   2.450   5.206 -0.4109 -1.0415 -0.8210
   56MOL0     H 7496   2.688   2.613   5.176  0.2295  0.5150  0.7161
   56MOL0     H 7497   2.458   2.541   5.092  0.4413 -0.6273 -0.5576
   56MOL0     H 7498   2.511   2.384   5.065 -1.6933 -0.0076  0.8574
   56MOL0     H 7499   2.375   2.396   5.275 -0.2903  0.2986 -5.0230
   56MOL0     H 7500   2.533   2.357   5.326 -2.5259 -1.3528  1.7775
   56MOL0     H 7501   2.413   2.550   5.449  0.8457  3.4418  0.9101
   56MOL0     H 7502   2.565   2.601   5.397  0.7029 -0.8306 -1.1185
   56MOL0     H 7503   2.473   2.737   5.224 -1.7460 -0.5491  0.0151
   56MOL0     H 7504   2.315   2.669   5.248 -1.0633  0.6417  1.2232
   56MOL0     H 7505   2.326   2.891   5.349 -0.4954  0.6837  2.4685
   56MOL0     H 7506   2.310   2.783   5.486 -0.4648 -0.6300 -1.4845
   56MOL0     H 7507   2.551   2.787   5.534  0.9832 -1.6105 -1.6609
   56MOL0     H 7508   2.591   2.862   5.395  1.4793  0.3791  1.5287
   56MOL0     H 7509   2.575   3.006   5.608 -0.2175 -2.7597 -0.0749
   56MOL0     H 7510   2.398   3.000   5.577 -2.1063  2.8255 -3.9844
   56MOL0     H 7511   2.706   3.077   5.357  0.5099  0.5027  1.7852
   56MOL0     H 7512   2.777   3.316   5.246  2.1055 -1.5373 -3.8053
   56MOL0     H 7513   2.671   3.256   5.113 -2.3261 -0.9825  0.0988
   56MOL0     H 7514   2.639   3.536   5.248  0.1045 -0.8350  0.9672
   56MOL0     H 7515   2.524   3.476   5.125 -0.9516  3.3652  1.4867
   56MOL0     H 7516   2.831   3.491   5.075  0.4719 -0.9863 -0.1474
   56MOL0     H 7517   2.728   3.628   5.043  1.2271 -0.4018 -2.2057
   56MOL0     H 7518   2.588   3.479   4.906 -1.2545 -2.1228  3.8091
   56MOL0     H 7519   2.711   3.348   4.923  1.5249  0.4873  2.2700
   56MOL0     H 7520   2.929   3.620   4.650  0.2135 -0.7810  0.3920
   56MOL0     H 7521   3.023   3.668   4.444  0.7156 -2.1013 -1.1794
   56MOL0     H 7522   2.938   3.627   4.295  0.6675 -0.2898  0.7378
   56MOL0     H 7523   2.894   3.764   4.385 -1.1831 -0.7360  1.2888
   56MOL0     H 7524   2.601   3.345   4.052 -0.1975 -1.1409 -1.0191
   56MOL0     H 7525   2.534   3.384   3.813  1.2136 -1.6446  0.8744
   56MOL0     H 7526   2.156   3.575   3.754  1.8327 -1.1445  1.8036
   56MOL0     H 7527   2.199   3.525   3.591 -0.4415  2.7604  0.0548
   56MOL0     H 7528   2.258   3.302   3.659 -1.1949  1.0860 -3.8923
   56MOL0     H 7529   2.172   3.325   3.822 -2.6629  0.4405 -0.1995
   56MOL0     H 7530   2.071   3.260   3.558 -0.6901  2.5647 -1.9211
   56MOL0     H 7531   1.980   3.389   3.620 -4.7569 -3.3797 -0.2230
   56MOL0     H 7532   1.984   3.107   3.686 -0.7380 -0.6710  0.8486
   56MOL0     H 7533   1.943   3.202   3.835 -1.9223 -3.9327  0.5003
   56MOL0     H 7534   1.753   3.301   3.697  3.0425  1.8492  0.6403
   56MOL0     H 7535   1.744   3.126   3.686  0.6282 -1.6691 -1.4086
   56MOL0     H 7536   1.815   3.305   3.451 -2.9391 -0.6583 -2.6219
   56MOL0     H 7537   1.866   3.142   3.464 -2.7344 -2.2503 -1.5871
   56MOL0     H 7538   1.596   3.291   3.479  1.9668  0.9394 -0.2883
   56MOL0     H 7539   1.599   3.117   3.511 -0.2905 -0.2332  1.2567
   56MOL0     H 7540   1.638   3.249   3.232 -3.7972  0.9880  0.1940
   56MOL0     H 7541   1.520   3.140   3.287 -0.9720  2.5496 -0.2558
   56MOL0     H 7542   2.253   3.683   3.926  1.2790  1.5129  1.8668
   56MOL0     H 7543   2.335   3.662   4.162  2.6932  0.4061  1.4404
   56MOL0     H 7544   2.513   3.412   4.466  1.4350 -0.5558 -3.4160
   56MOL0     H 7545   2.554   3.415   4.714  5.1270  0.0604  3.9002
   56MOL0     H 7546   2.859   2.411   4.790 -0.8503 -0.0380  0.2561
   56MOL0     H 7547   3.058   2.520   4.687  3.2023 -0.9146  0.1809
   56MOL0     H 7548   3.227   2.881   4.406 -2.2686  2.5771  1.7636
   56MOL0     H 7549   3.437   2.996   4.312 -0.5943 -0.9091 -0.7698
   56MOL0     H 7550   3.791   3.052   4.568 -2.7764 -0.3454  2.7732
   56MOL0     H 7551   3.809   3.161   4.443  3.5192 -3.1912  2.5238
   56MOL0     H 7552   3.690   3.222   4.728 -0.2486  1.2330  0.8737
   56MOL0     H 7553   3.630   3.299   4.589 -0.3801 -1.6822 -0.9136
   56MOL0     H 7554   3.855   3.404   4.543 -3.0640  3.5762  0.5755
   56MOL0     H 7555   3.933   3.292   4.660 -0.5613  0.7354 -0.0788
   56MOL0     H 7556   3.906   3.514   4.774  0.3038  0.6759 -1.4149
   56MOL0     H 7557   3.824   3.377   4.848 -0.3613 -0.1229 -0.0684
   56MOL0     H 7558   3.506   3.628   4.718 -0.0135 -1.4980 -2.0960
   56MOL0     H 7559   3.628   2.949   4.693  2.1664 -1.2244 -2.6118
   56MOL0     H 7560   3.455   2.818   4.781 -0.8944  3.3677  1.4541
   57MOL0     O 7561   6.000  10.595   2.886 -0.1324 -0.2506 -0.8915
   57MOL0     C 7562   6.105  10.624   2.831  0.7324  0.1922  0.4380
   57MOL0     O 7563   6.120  10.638   2.696  0.9044 -0.4260 -0.3329
   57MOL0     C 7564   6.016  10.605   2.610  0.2840 -0.1408 -0.2759
   57MOL0     C 7565   5.908  10.517   2.638 -0.2343 -0.0082  0.0217
   57MOL0     C 7566   5.814  10.486   2.544  0.0145  0.2926  0.1970
   57MOL0     C 7567   5.824  10.537   2.415 -0.1884 -0.6960  0.2791
   57MOL0     O 7568   5.737  10.517   2.309  0.1566  0.1077  0.5994
   57MOL0     C 7569   5.600  10.482   2.348  0.1266  0.2327 -0.1447
   57MOL0     C 7570   5.506  10.495   2.231  0.5938 -0.1322  0.4458
   57MOL0     C 7571   5.373  10.424   2.267 -0.0133 -0.4425 -0.8243
   57MOL0     C 7572   5.276  10.461   2.154 -0.5500 -0.0647 -0.0349
   57MOL0     C 7573   5.133  10.407   2.169  0.0748 -0.3026  0.2865
   57MOL0     C 7574   5.047  10.491   2.077  0.8971 -0.0025 -0.4756
   57MOL0     C 7575   4.905  10.450   2.060 -0.4108  0.8063 -0.8601
   57MOL0     C 7576   4.842  10.487   1.923 -0.7573  0.8742  0.2279
   57MOL0     N 7577   4.697  10.490   1.943  0.7488  0.6214  0.3461
   57MOL0     C 7578   4.621  10.603   1.975  0.0979  0.3475 -0.4121
   57MOL0     C 7579   4.492  10.565   1.968 -0.0324  0.1774  0.7681
   57MOL0     C 7580   4.368  10.653   1.993  0.0131 -0.8855  0.1998
   57MOL0     C 7581   4.304  10.696   1.860 -0.0044 -0.4599 -1.0569
   57MOL0     C 7582   4.147  10.697   1.858  0.0657  0.3643 -0.2586
   57MOL0     C 7583   4.094  10.789   1.750  0.0719 -0.0097 -0.8529
   57MOL0     O 7584   3.947  10.776   1.739  0.5532  0.3239  0.3523
   57MOL0     C 7585   3.877  10.862   1.655 -0.5021 -0.1000  0.1556
   57MOL0     C 7586   3.755  10.825   1.621  0.8533  0.2796  0.8442
   57MOL0     C 7587   3.675  10.901   1.533 -0.9525  0.0001 -0.0261
   57MOL0     C 7588   3.535  10.854   1.511 -0.3367 -0.1555 -0.3420
   57MOL0     C 7589   3.722  11.027   1.499 -0.3530 -0.1827 -0.2468
   57MOL0     C 7590   3.643  11.125   1.419  0.8438 -0.8689  0.9881
   57MOL0     O 7591   3.707  11.244   1.400 -0.5831 -0.1722  0.2382
   57MOL0     C 7592   3.645  11.354   1.349  0.8664  0.2219 -0.6770
   57MOL0     C 7593   3.645  11.375   1.207  0.8306 -0.7247 -0.7125
   57MOL0     C 7594   3.573  11.489   1.170 -0.4986 -0.0280 -0.0055
   57MOL0     C 7595   3.519  11.584   1.253  0.3516  0.5804  0.8113
   57MOL0     O 7596   3.471  11.700   1.198  0.1518  0.4133  0.3665
   57MOL0     C 7597   3.332  11.721   1.219 -0.2463  0.5245 -0.1461
   57MOL0     C 7598   3.323  11.873   1.249  0.6488  0.1793  0.2775
   57MOL0     C 7599   3.366  11.901   1.399  0.4102 -0.5015 -0.0828
   57MOL0     C 7600   3.258  11.874   1.497  0.4738 -0.2856 -0.1167
   57MOL0     C 7601   3.307  11.888   1.637 -0.0101  0.0229 -0.3433
   57MOL0     C 7602   3.187  11.878   1.739 -0.3780  0.6645 -0.2011
   57MOL0     C 7603   3.221  11.901   1.891  1.6203 -0.6810  0.5237
   57MOL0     C 7604   3.256  12.045   1.925  0.2080 -0.2702  0.2004
   57MOL0    Cl 7605   3.123  12.165   1.910 -0.2677  0.5297  0.2996
   57MOL0     C 7606   3.515  11.556   1.391  0.8468  0.0919  0.0932
   57MOL0     C 7607   3.581  11.440   1.436  0.4903 -1.0079  0.2041
   57MOL0     O 7608   3.551  11.088   1.340 -0.5215  0.0144  0.2141
   57MOL0     C 7609   3.850  11.058   1.534  0.5185  0.0145 -0.0661
   57MOL0     C 7610   3.929  10.975   1.609 -0.0651 -0.3283 -0.6030
   57MOL0     N 7611   4.485  10.420   1.963 -0.0725  0.2974  0.0363
   57MOL0     N 7612   4.608  10.385   1.943 -0.0793 -0.1708  1.0204
   57MOL0     C 7613   5.927  10.625   2.387 -0.3375 -0.3244  0.4400
   57MOL0     C 7614   6.026  10.659   2.479  0.6135  0.3175 -0.3163
   57MOL0     C 7615   6.230  10.638   2.907  0.2379  0.6987  0.4730
   57MOL0     C 7616   6.238  10.591   3.040 -0.5519  0.0331 -0.0915
   57MOL0     C 7617   6.363  10.587   3.107 -0.3321  0.2213 -0.0655
   57MOL0     C 7618   6.479  10.643   3.050 -0.3440 -0.0812  1.9632
   57MOL0     O 7619   6.603  10.620   3.096  0.6600 -0.6963 -0.9036
   57MOL0     C 7620   6.627  10.663   3.230  0.5601  1.2017  0.0851
   57MOL0     C 7621   6.750  10.763   3.221  0.2017  0.1822 -0.1643
   57MOL0     C 7622   6.738  10.865   3.103 -0.0994  0.8516 -0.4332
   57MOL0     C 7623   6.836  10.983   3.119  0.4997 -1.3341 -0.3170
   57MOL0     C 7624   6.979  10.942   3.141  0.7738  0.2910 -0.5176
   57MOL0     C 7625   7.096  10.905   3.146 -0.4514  0.7141 -0.0794
   57MOL0     C 7626   6.469  10.673   2.911  0.3546 -0.1807 -0.0491
   57MOL0     C 7627   6.349  10.681   2.842 -0.4043 -0.1550 -0.6894
   57MOL0     H 7628   5.909  10.455   2.727 -0.7015 -1.5612 -1.0172
   57MOL0     H 7629   5.739  10.416   2.581 -1.7290  1.9732  0.0188
   57MOL0     H 7630   5.594  10.381   2.390 -0.3193  0.5233  0.5098
   57MOL0     H 7631   5.572  10.556   2.423 -1.5649  0.5414 -1.0312
   57MOL0     H 7632   5.484  10.602   2.227 -0.4071 -0.3639 -2.2711
   57MOL0     H 7633   5.538  10.463   2.131  2.5476  1.9610  0.3253
   57MOL0     H 7634   5.392  10.318   2.281  2.3851  0.2512  2.0843
   57MOL0     H 7635   5.328  10.454   2.362  0.7216 -0.6633 -0.4055
   57MOL0     H 7636   5.265  10.569   2.155 -4.1611 -0.2903 -1.1029
   57MOL0     H 7637   5.330  10.449   2.059 -1.4478 -1.8511 -0.3687
   57MOL0     H 7638   5.138  10.302   2.137  3.0567 -0.2087  0.2301
   57MOL0     H 7639   5.094  10.409   2.272 -0.5158 -1.0631  0.0920
   57MOL0     H 7640   5.045  10.593   2.117  1.7624 -1.0381  2.4422
   57MOL0     H 7641   5.086  10.493   1.974 -1.7962  0.1976 -1.5649
   57MOL0     H 7642   4.907  10.341   2.065  1.1090  0.8290 -0.2773
   57MOL0     H 7643   4.853  10.483   2.150  1.4002  1.2387  0.0954
   57MOL0     H 7644   4.860  10.416   1.842 -1.5007  1.6651 -0.6602
   57MOL0     H 7645   4.881  10.582   1.882 -1.2302  0.4247 -1.3412
   57MOL0     H 7646   4.660  10.703   1.985  1.9844 -0.2722 -1.1396
   57MOL0     H 7647   4.307  10.579   2.047  2.4286 -3.6295 -0.5515
   57MOL0     H 7648   4.395  10.732   2.064 -0.9519 -0.7564  0.4368
   57MOL0     H 7649   4.336  10.639   1.773 -2.2100 -0.2255 -2.0772
   57MOL0     H 7650   4.339  10.799   1.842  0.1570 -0.7812 -2.7269
   57MOL0     H 7651   4.103  10.735   1.951 -2.4363 -0.7896 -0.8975
   57MOL0     H 7652   4.112  10.597   1.833  2.5835 -1.9319  4.2990
   57MOL0     H 7653   4.147  10.768   1.657 -1.3037  2.7728 -2.3835
   57MOL0     H 7654   4.112  10.893   1.778  0.1203  0.1190 -1.3678
   57MOL0     H 7655   3.705  10.733   1.652  0.2630  0.6167  0.9089
   57MOL0     H 7656   3.525  10.833   1.404  1.8740 -1.5160 -0.3323
   57MOL0     H 7657   3.499  10.773   1.574  0.3874 -1.7190 -1.8792
   57MOL0     H 7658   3.481  10.946   1.536 -0.8403 -0.7821  0.9653
   57MOL0     H 7659   3.691  11.302   1.142 -0.1694 -3.3669  1.3490
   57MOL0     H 7660   3.578  11.495   1.062  2.0390  0.8541  0.0967
   57MOL0     H 7661   3.272  11.705   1.129  0.9304  1.8406 -1.2151
   57MOL0     H 7662   3.299  11.663   1.305 -3.0085  3.7955  1.2221
   57MOL0     H 7663   3.380  11.930   1.175  0.5483 -3.9312 -3.4005
   57MOL0     H 7664   3.218  11.901   1.235  0.8131  0.8335  0.3389
   57MOL0     H 7665   3.380  12.008   1.415  1.0919 -0.8244  1.6483
   57MOL0     H 7666   3.453  11.840   1.422  2.6534  1.5574 -2.4854
   57MOL0     H 7667   3.171  11.939   1.481 -1.3683 -2.1551  1.6736
   57MOL0     H 7668   3.218  11.773   1.484 -3.8782  1.3241 -1.0965
   57MOL0     H 7669   3.349  11.989   1.650 -0.3291  0.3962 -1.9889
   57MOL0     H 7670   3.382  11.812   1.661 -0.7714 -0.7855 -0.4763
   57MOL0     H 7671   3.113  11.954   1.713 -0.9292  1.7913  3.9275
   57MOL0     H 7672   3.146  11.778   1.721 -0.2589  1.1705 -3.9877
   57MOL0     H 7673   3.299  11.828   1.914  1.0427 -0.8996  1.9361
   57MOL0     H 7674   3.135  11.859   1.945  1.4527 -5.9834 -3.1800
   57MOL0     H 7675   3.336  12.087   1.864 -0.8112  0.3137 -0.7847
   57MOL0     H 7676   3.284  12.058   2.030  0.9356  2.2091 -0.2232
   57MOL0     H 7677   3.467  11.620   1.464  2.9553 -0.2178  1.8144
   57MOL0     H 7678   3.570  11.405   1.538  1.3870  0.1115  0.7040
   57MOL0     H 7679   3.884  11.157   1.507 -0.0149 -0.5477 -3.2142
   57MOL0     H 7680   4.028  11.013   1.631  0.9424 -2.4303 -1.2583
   57MOL0     H 7681   5.939  10.655   2.284 -0.8382 -2.2064 -0.1965
   57MOL0     H 7682   6.114  10.716   2.451  1.3604  0.5299  2.2397
   57MOL0     H 7683   6.148  10.545   3.081 -0.1882 -1.1068 -0.5269
   57MOL0     H 7684   6.367  10.547   3.208 -1.5824  2.5524  0.9831
   57MOL0     H 7685   6.557  10.727   3.283  0.1309  0.5013  0.3870
   57MOL0     H 7686   6.650  10.587   3.305 -2.5905  0.1340  0.1212
   57MOL0     H 7687   6.842  10.705   3.208 -0.5155 -1.0349  0.0620
   57MOL0     H 7688   6.762  10.815   3.316 -1.0324  2.9218 -1.3864
   57MOL0     H 7689   6.638  10.900   3.079 -0.9282 -2.4515 -2.3946
   57MOL0     H 7690   6.758  10.816   3.007 -0.6766 -1.1805  0.4220
   57MOL0     H 7691   6.805  11.048   3.202 -0.2573 -1.4280 -0.5197
   57MOL0     H 7692   6.820  11.049   3.033 -0.0051  1.4571  1.7880
   57MOL0     H 7693   7.198  10.871   3.156  0.2687  2.0224 -2.2040
   57MOL0     H 7694   6.568  10.683   2.867  1.3965 -2.0530  1.7130
   57MOL0     H 7695   6.330  10.712   2.740  0.7402  2.4211 -0.2252
   58MOL0     O 7696   4.183   2.788   2.971  0.3654  0.3015  0.1275
   58MOL0     C 7697   4.206   2.699   3.050  0.4904  0.4060  0.1973
   58MOL0     O 7698   4.120   2.598   3.088  0.1423  0.3475  0.1017
   58MOL0     C 7699   3.986   2.582   3.051  0.4144  0.3724  0.2411
   58MOL0     C 7700   3.937   2.456   3.083  0.3205 -0.5845 -0.5184
   58MOL0     C 7701   3.800   2.423   3.062  0.7889 -0.2046  0.1945
   58MOL0     C 7702   3.709   2.517   3.016  0.8615 -0.0217  0.8715
   58MOL0     O 7703   3.580   2.471   2.990  0.7930 -0.9996  0.6560
   58MOL0     C 7704   3.494   2.552   2.907 -0.5036 -0.4829  0.7852
   58MOL0     C 7705   3.360   2.479   2.902 -0.8380  0.3517 -1.1616
   58MOL0     C 7706   3.268   2.540   2.795 -0.5649 -0.2020  0.4069
   58MOL0     C 7707   3.212   2.679   2.832 -0.2672 -0.6735 -0.2454
   58MOL0     C 7708   3.101   2.730   2.738 -0.0689 -0.3375 -0.8833
   58MOL0     C 7709   3.153   2.826   2.622 -0.7975 -0.4858  0.1985
   58MOL0     C 7710   3.021   2.885   2.558  0.6028 -0.1917  1.1046
   58MOL0     C 7711   3.046   2.975   2.431 -0.5019  0.0020 -0.4156
   58MOL0     N 7712   3.151   3.081   2.454 -0.7456 -0.1108 -0.3968
   58MOL0     C 7713   3.152   3.210   2.503  0.3181  0.5444  0.7415
   58MOL0     C 7714   3.276   3.259   2.487 -0.3617  0.7962 -0.2068
   58MOL0     C 7715   3.308   3.393   2.549  0.1643 -0.9500  0.4648
   58MOL0     C 7716   3.246   3.512   2.471  0.3299 -0.3796  0.1407
   58MOL0     C 7717   3.304   3.522   2.326 -0.0129  0.6354  0.0479
   58MOL0     C 7718   3.268   3.641   2.246  0.0314 -1.0804  0.5210
   58MOL0     O 7719   3.337   3.604   2.117  0.1508 -0.1232 -0.0022
   58MOL0     C 7720   3.342   3.693   2.013  0.2033 -0.3147 -1.3430
   58MOL0     C 7721   3.328   3.831   2.024  0.1070  0.2464 -0.1110
   58MOL0     C 7722   3.325   3.910   1.913 -0.1796 -0.7812  0.0365
   58MOL0     C 7723   3.314   4.062   1.923 -0.8777 -0.8619  0.0910
   58MOL0     C 7724   3.334   3.860   1.778 -0.3012  0.5428 -0.2681
   58MOL0     C 7725   3.327   3.937   1.648  0.0977  0.6459  0.2700
   58MOL0     O 7726   3.403   4.058   1.632 -0.1629  0.1658 -0.1812
   58MOL0     C 7727   3.384   4.127   1.521 -0.0120 -0.1545  0.5656
   58MOL0     C 7728   3.262   4.156   1.466  0.5180  0.1456  0.3153
   58MOL0     C 7729   3.256   4.248   1.356  0.1233  0.0878 -0.3671
   58MOL0     C 7730   3.366   4.317   1.304 -0.5912 -0.1576  0.4843
   58MOL0     O 7731   3.357   4.376   1.177  0.7887 -0.3395 -0.0134
   58MOL0     C 7732   3.237   4.456   1.142 -0.0579  0.8174 -0.4484
   58MOL0     C 7733   3.274   4.562   1.048 -0.0286  0.1918  0.2222
   58MOL0     C 7734   3.354   4.522   0.931  1.1974  0.8046 -0.2328
   58MOL0     C 7735   3.286   4.428   0.830  0.5464  0.2974  0.2960
   58MOL0     C 7736   3.371   4.423   0.703  1.0845  0.2291 -0.3089
   58MOL0     C 7737   3.282   4.367   0.586 -0.2691 -0.1173 -0.3084
   58MOL0     C 7738   3.373   4.359   0.461  0.7447 -0.0872 -0.1146
   58MOL0     C 7739   3.473   4.238   0.459  0.6048 -0.5981  0.2162
   58MOL0    Cl 7740   3.369   4.087   0.435 -0.0880  0.3597 -0.1752
   58MOL0     C 7741   3.487   4.289   1.364  0.1235 -0.7637  0.0466
   58MOL0     C 7742   3.500   4.204   1.480 -0.0652  0.0621  0.3590
   58MOL0     O 7743   3.247   3.890   1.568  0.2618  0.2154  0.6428
   58MOL0     C 7744   3.343   3.722   1.771  0.1577  0.4165  0.3590
   58MOL0     C 7745   3.345   3.637   1.884  0.2709  0.3661 -0.9592
   58MOL0     N 7746   3.359   3.155   2.453  1.1609  0.0605 -0.2461
   58MOL0     N 7747   3.282   3.051   2.428 -0.4978 -0.3784  0.0558
   58MOL0     C 7748   3.753   2.645   2.994 -0.0743  0.5394  0.6083
   58MOL0     C 7749   3.887   2.676   3.001 -0.4517  0.2459 -0.7357
   58MOL0     C 7750   4.328   2.727   3.115 -0.3092 -0.2173 -0.1262
   58MOL0     C 7751   4.345   2.674   3.246 -0.2227 -0.6798 -0.9776
   58MOL0     C 7752   4.461   2.693   3.323 -0.2428 -0.4559  0.2682
   58MOL0     C 7753   4.570   2.767   3.269  0.0613 -0.0398  0.0402
   58MOL0     O 7754   4.686   2.779   3.338 -0.0493 -0.0008 -0.7946
   58MOL0     C 7755   4.712   2.912   3.374  0.3229 -0.7716 -0.0170
   58MOL0     C 7756   4.786   2.996   3.274 -0.2933  0.3697 -0.7180
   58MOL0     C 7757   4.863   3.105   3.365 -0.0197  0.4174  0.0011
   58MOL0     C 7758   4.924   3.224   3.285  0.0703 -0.5614 -0.6169
   58MOL0     C 7759   5.016   3.180   3.178 -0.2411  0.2247  0.8670
   58MOL0     C 7760   5.090   3.155   3.081  0.2177 -0.3750 -0.9017
   58MOL0     C 7761   4.565   2.799   3.132  0.3215 -0.0575  0.6135
   58MOL0     C 7762   4.445   2.782   3.054  0.7447 -0.0379 -1.5939
   58MOL0     H 7763   3.987   2.394   3.157  1.5095  1.3184  0.3533
   58MOL0     H 7764   3.763   2.327   3.096  2.0517 -0.9148 -0.3572
   58MOL0     H 7765   3.487   2.652   2.950  1.2408 -1.6440  4.1656
   58MOL0     H 7766   3.520   2.547   2.801 -0.1357  0.6521  0.8109
   58MOL0     H 7767   3.382   2.374   2.881  0.5530 -0.6548  3.9202
   58MOL0     H 7768   3.317   2.486   3.002  0.8660 -0.4191 -0.3257
   58MOL0     H 7769   3.309   2.551   2.694  0.4694 -2.1528  0.5517
   58MOL0     H 7770   3.183   2.471   2.789 -1.2881  0.6772  0.4887
   58MOL0     H 7771   3.170   2.685   2.933  0.6213  0.5395  0.0749
   58MOL0     H 7772   3.290   2.756   2.830 -0.8387 -0.0857 -0.2341
   58MOL0     H 7773   3.044   2.645   2.699  0.1316 -2.6137  3.1800
   58MOL0     H 7774   3.029   2.776   2.806  1.2344 -0.4778  0.6626
   58MOL0     H 7775   3.213   2.906   2.666 -1.5217 -0.3870  1.0324
   58MOL0     H 7776   3.195   2.758   2.547 -0.2503 -0.5843  0.5903
   58MOL0     H 7777   2.963   2.805   2.511  0.4447  0.2813  0.4879
   58MOL0     H 7778   2.956   2.924   2.637 -0.0871  0.8522  0.0514
   58MOL0     H 7779   2.947   3.013   2.404 -0.3711  1.8326  1.4127
   58MOL0     H 7780   3.080   2.911   2.350 -0.7722 -3.3367  1.8947
   58MOL0     H 7781   3.076   3.270   2.552  0.5640 -0.2908  2.1897
   58MOL0     H 7782   3.267   3.394   2.651 -1.7092 -0.3234 -0.2582
   58MOL0     H 7783   3.416   3.407   2.557  0.3822 -1.0608 -1.7718
   58MOL0     H 7784   3.276   3.607   2.516  0.2482  0.8884 -2.2803
   58MOL0     H 7785   3.138   3.496   2.470  0.4137 -1.1572  1.3922
   58MOL0     H 7786   3.283   3.431   2.270  0.8091  0.6018 -0.2201
   58MOL0     H 7787   3.413   3.519   2.333 -0.1184 -0.3939  1.4722
   58MOL0     H 7788   3.297   3.733   2.297 -4.0601  1.1745 -0.7733
   58MOL0     H 7789   3.161   3.654   2.228  0.0927  1.6209  1.6746
   58MOL0     H 7790   3.324   3.885   2.118  0.7810 -1.6996  1.0693
   58MOL0     H 7791   3.400   4.116   1.880  0.6733  1.2139  5.0605
   58MOL0     H 7792   3.234   4.097   1.858 -0.2017  0.2484 -0.1790
   58MOL0     H 7793   3.298   4.092   2.027  0.3917  0.4571 -0.0576
   58MOL0     H 7794   3.175   4.111   1.511 -0.3495 -0.0019 -1.4255
   58MOL0     H 7795   3.164   4.256   1.298  1.5660  1.9462 -2.5914
   58MOL0     H 7796   3.159   4.391   1.100  2.5657 -1.4305 -2.1755
   58MOL0     H 7797   3.205   4.518   1.226 -1.7011  2.1035 -1.9365
   58MOL0     H 7798   3.182   4.603   1.005 -1.7425 -3.0483  0.5409
   58MOL0     H 7799   3.324   4.647   1.097  0.0620 -0.3409  1.0659
   58MOL0     H 7800   3.442   4.462   0.957 -0.2161 -1.5631 -0.5868
   58MOL0     H 7801   3.380   4.615   0.880  1.3181  0.0470 -1.6116
   58MOL0     H 7802   3.257   4.329   0.867 -1.7093  0.2851 -1.2965
   58MOL0     H 7803   3.191   4.472   0.799 -0.6451 -2.2648  0.0833
   58MOL0     H 7804   3.453   4.354   0.724  0.1346 -0.8696 -0.0385
   58MOL0     H 7805   3.406   4.521   0.670 -0.0004  1.2315  1.3788
   58MOL0     H 7806   3.244   4.267   0.610  1.6432 -1.5139 -2.7018
   58MOL0     H 7807   3.195   4.432   0.572  0.6299  1.1040 -0.3767
   58MOL0     H 7808   3.417   4.456   0.438  0.0652 -0.0570 -1.4065
   58MOL0     H 7809   3.311   4.349   0.371  0.4444 -0.1873  0.1015
   58MOL0     H 7810   3.540   4.220   0.544  1.9669  0.8567 -0.5022
   58MOL0     H 7811   3.537   4.247   0.371 -1.8639 -1.9808 -1.8614
   58MOL0     H 7812   3.569   4.348   1.324 -0.0642 -1.9278 -2.2160
   58MOL0     H 7813   3.593   4.201   1.536  0.2749  4.8148  0.4929
   58MOL0     H 7814   3.318   3.679   1.675  1.5994 -0.0279  0.1501
   58MOL0     H 7815   3.329   3.530   1.875 -3.3837  0.4809  2.0967
   58MOL0     H 7816   3.694   2.727   2.953 -0.4312 -1.4088 -3.2261
   58MOL0     H 7817   3.929   2.774   2.982 -0.3341  0.3329 -0.0495
   58MOL0     H 7818   4.268   2.628   3.307 -0.5193  2.2614  1.1330
   58MOL0     H 7819   4.462   2.637   3.416  0.2212 -3.0362 -1.1975
   58MOL0     H 7820   4.627   2.972   3.409  1.7125 -0.1864  2.6361
   58MOL0     H 7821   4.778   2.906   3.462 -0.8853 -2.4820  0.8275
   58MOL0     H 7822   4.713   3.057   3.221  0.1422  3.2783  1.7557
   58MOL0     H 7823   4.859   2.946   3.210 -0.0551  0.7813 -0.7736
   58MOL0     H 7824   4.941   3.052   3.421 -0.7462  0.6223  1.2439
   58MOL0     H 7825   4.803   3.154   3.443  1.7974  0.4170  1.4722
   58MOL0     H 7826   4.978   3.287   3.357  0.2427 -1.1286 -0.2487
   58MOL0     H 7827   4.836   3.284   3.259 -1.8675 -1.1508  3.6740
   58MOL0     H 7828   5.177   3.141   3.019 -0.1830 -2.9816 -0.9931
   58MOL0     H 7829   4.649   2.846   3.083  1.6299 -2.0542  0.8175
   58MOL0     H 7830   4.433   2.815   2.951  2.3211 -2.0792 -2.4883
   59MOL0     O 7831   1.088   5.816   9.049 -0.3444 -0.5797 -0.0252
   59MOL0     C 7832   1.053   5.833   9.166 -0.1707  0.0429  0.5124
   59MOL0     O 7833   0.934   5.866   9.215  0.3795  0.2441  0.0888
   59MOL0     C 7834   0.817   5.887   9.137  0.3254  0.0763 -0.6352
   59MOL0     C 7835   0.722   5.958   9.211  0.6426 -0.4433  0.0323
   59MOL0     C 7836   0.597   5.990   9.155  1.0655  0.3310  0.1832
   59MOL0     C 7837   0.565   5.946   9.023  0.5158 -0.0783  0.0949
   59MOL0     O 7838   0.439   5.968   8.968 -0.3691  0.0850 -0.4942
   59MOL0     C 7839   0.414   6.108   8.931 -0.3318  0.1155 -1.1775
   59MOL0     C 7840   0.302   6.116   8.826  0.3162  0.0759 -0.0096
   59MOL0     C 7841   0.161   6.105   8.892 -0.9193  0.0327 -0.1878
   59MOL0     C 7842   0.119   5.953   8.882 -0.9756  0.6051  0.1377
   59MOL0     C 7843  -0.018   5.895   8.939 -0.4049 -0.7555  0.4030
   59MOL0     C 7844  -0.030   5.952   9.079 -0.0291  0.5066 -0.7437
   59MOL0     C 7845  -0.145   5.890   9.161 -0.1177  0.0145  0.8687
   59MOL0     C 7846  -0.274   5.981   9.143 -0.2575 -0.7821  0.6126
   59MOL0     N 7847  -0.256   6.118   9.189 -0.3728  0.3642 -0.1224
   59MOL0     C 7848  -0.222   6.158   9.312 -0.8019  0.0377  0.1839
   59MOL0     C 7849  -0.231   6.291   9.305 -0.9206 -0.1073 -0.7004
   59MOL0     C 7850  -0.210   6.397   9.412  0.2168  0.6552  0.1499
   59MOL0     C 7851  -0.055   6.424   9.433  0.4097  0.1330 -0.1147
   59MOL0     C 7852  -0.038   6.563   9.497  0.5839 -0.0725 -0.7117
   59MOL0     C 7853  -0.060   6.553   9.641 -0.1651  0.7905 -0.2437
   59MOL0     O 7854  -0.049   6.689   9.698  0.3556  0.3332  0.4320
   59MOL0     C 7855  -0.095   6.720   9.824  0.2819  0.9780  0.6861
   59MOL0     C 7856  -0.153   6.623   9.916  0.3103 -0.2518  0.6533
   59MOL0     C 7857  -0.202   6.667  10.042  0.3232 -1.2671  0.8407
   59MOL0     C 7858  -0.295   6.562  10.101  0.3312 -0.0555  1.3889
   59MOL0     C 7859  -0.203   6.809  10.072 -0.3355  0.4229  0.9016
   59MOL0     C 7860  -0.275   6.868  10.189 -0.0255 -1.0623 -0.1503
   59MOL0     O 7861  -0.244   6.998  10.213 -0.0837 -0.0871 -0.0145
   59MOL0     C 7862  -0.300   7.065  10.321 -0.4680  0.5105  0.8455
   59MOL0     C 7863  -0.345   7.013  10.442  0.7223  0.2914 -0.5070
   59MOL0     C 7864  -0.401   7.087  10.552  0.5075  0.6754 -0.2689
   59MOL0     C 7865  -0.418   7.219  10.533 -0.0310 -0.6302  0.4041
   59MOL0     O 7866  -0.458   7.305  10.621  0.3874 -0.1284  0.0454
   59MOL0     C 7867  -0.581   7.275  10.687  0.5088 -0.2577 -0.8538
   59MOL0     C 7868  -0.676   7.402  10.717 -0.0335 -0.1048 -0.3493
   59MOL0     C 7869  -0.719   7.464  10.586 -0.0400  0.4708  0.5412
   59MOL0     C 7870  -0.802   7.589  10.609  0.6601 -0.8224  0.8203
   59MOL0     C 7871  -0.789   7.658  10.474  0.5976 -0.0601 -0.2775
   59MOL0     C 7872  -0.868   7.795  10.494  0.9107 -0.1593  0.0244
   59MOL0     C 7873  -0.884   7.860  10.358 -1.4876 -0.0605 -0.1167
   59MOL0     C 7874  -0.744   7.900  10.296 -0.5281  0.1647 -0.8059
   59MOL0    Cl 7875  -0.670   8.051  10.382  0.0547 -0.7266 -0.3309
   59MOL0     C 7876  -0.377   7.277  10.414 -0.6821 -0.4243  0.2789
   59MOL0     C 7877  -0.316   7.207  10.306 -1.1668  0.8350 -0.9176
   59MOL0     O 7878  -0.366   6.807  10.242  0.4463  0.3461  0.0112
   59MOL0     C 7879  -0.119   6.893   9.993  0.6580 -0.5608 -0.2301
   59MOL0     C 7880  -0.067   6.848   9.869 -0.1502  1.0121 -0.7569
   59MOL0     N 7881  -0.249   6.331   9.179  0.8560 -0.2880 -0.3486
   59MOL0     N 7882  -0.258   6.228   9.104 -1.1602 -0.1626  0.1453
   59MOL0     C 7883   0.668   5.879   8.949 -0.2965 -0.3955  0.4871
   59MOL0     C 7884   0.789   5.847   9.006  0.0782 -0.3058 -0.3313
   59MOL0     C 7885   1.164   5.820   9.265  0.7682 -0.0618 -0.6688
   59MOL0     C 7886   1.296   5.782   9.226 -0.3479 -1.0084 -0.0373
   59MOL0     C 7887   1.407   5.783   9.314 -0.8985  0.1312 -0.7618
   59MOL0     C 7888   1.384   5.823   9.448 -0.2642  0.4488 -0.0373
   59MOL0     O 7889   1.480   5.839   9.543  0.4365 -0.2864  0.9101
   59MOL0     C 7890   1.613   5.802   9.506  0.9366 -0.8015  1.4797
   59MOL0     C 7891   1.714   5.797   9.624 -0.2618  0.0718 -0.6817
   59MOL0     C 7892   1.858   5.771   9.574  0.9171 -0.1714  0.8054
   59MOL0     C 7893   1.949   5.723   9.694  0.2900 -0.4448  0.4146
   59MOL0     C 7894   1.976   5.832   9.796 -0.7234  0.6287  0.2214
   59MOL0     C 7895   1.992   5.914   9.878 -0.9250 -0.5625 -0.7067
   59MOL0     C 7896   1.253   5.847   9.494 -0.7207 -1.3352 -0.2226
   59MOL0     C 7897   1.146   5.850   9.406  0.1592  0.4281 -0.1493
   59MOL0     H 7898   0.733   5.999   9.311  0.8280  0.2055 -0.2524
   59MOL0     H 7899   0.531   6.041   9.225 -0.3277 -2.0134  0.6820
   59MOL0     H 7900   0.384   6.166   9.019 -0.0562 -3.2412  1.3158
   59MOL0     H 7901   0.504   6.143   8.880  0.6678 -0.9198 -0.1875
   59MOL0     H 7902   0.311   6.214   8.777  1.0484  0.5109  0.9492
   59MOL0     H 7903   0.321   6.047   8.744  4.8883  0.4861  0.4592
   59MOL0     H 7904   0.168   6.145   8.993  3.6002 -0.0250 -0.2621
   59MOL0     H 7905   0.089   6.174   8.846  0.7111  1.8756 -0.1360
   59MOL0     H 7906   0.124   5.932   8.775  0.6012  2.3286 -0.1954
   59MOL0     H 7907   0.195   5.894   8.933 -1.2882  1.0380  1.1262
   59MOL0     H 7908  -0.106   5.930   8.884  0.4114 -0.4398 -0.7475
   59MOL0     H 7909  -0.010   5.786   8.933 -1.5921 -0.8363  0.1284
   59MOL0     H 7910   0.065   5.956   9.134 -0.5042  1.9922  0.0009
   59MOL0     H 7911  -0.059   6.057   9.070 -0.6673  0.5459  1.4315
   59MOL0     H 7912  -0.178   5.803   9.103 -2.1102  0.6823  0.9466
   59MOL0     H 7913  -0.112   5.880   9.265  1.0685  3.5096  0.9597
   59MOL0     H 7914  -0.356   5.920   9.185  1.8069 -3.0720  1.5992
   59MOL0     H 7915  -0.301   5.991   9.038 -2.8560 -0.0701  1.2723
   59MOL0     H 7916  -0.210   6.101   9.404 -1.4687  0.4534  0.5372
   59MOL0     H 7917  -0.278   6.480   9.390 -2.9948 -1.1549  2.3504
   59MOL0     H 7918  -0.245   6.352   9.505  2.2216 -0.1196  0.5898
   59MOL0     H 7919  -0.004   6.411   9.337 -0.1868 -1.5859 -0.2450
   59MOL0     H 7920  -0.024   6.343   9.500 -0.6108 -0.3311 -0.1730
   59MOL0     H 7921  -0.116   6.632   9.464 -1.8502 -2.7348 -0.9313
   59MOL0     H 7922   0.059   6.605   9.468 -0.1255  1.0417 -1.5991
   59MOL0     H 7923   0.012   6.487   9.691 -1.8057 -0.7832  0.1442
   59MOL0     H 7924  -0.154   6.500   9.659 -0.4357  0.2396 -2.8576
   59MOL0     H 7925  -0.153   6.516   9.900  0.9306 -0.2633  0.7024
   59MOL0     H 7926  -0.396   6.589  10.068  0.2705 -0.7091  1.0077
   59MOL0     H 7927  -0.275   6.458  10.073 -0.4181  1.1490 -5.2678
   59MOL0     H 7928  -0.282   6.572  10.209  1.1760  1.0397  1.2012
   59MOL0     H 7929  -0.359   6.910  10.472 -2.0771  0.8236  0.2890
   59MOL0     H 7930  -0.435   7.026  10.634 -2.6297  2.2633 -0.2452
   59MOL0     H 7931  -0.641   7.198  10.638 -1.2939 -1.0964  2.4117
   59MOL0     H 7932  -0.559   7.220  10.778  2.8209 -1.8313 -2.2455
   59MOL0     H 7933  -0.762   7.356  10.767  0.0646 -0.8065 -0.8179
   59MOL0     H 7934  -0.620   7.475  10.776 -0.8595 -1.0941  1.7640
   59MOL0     H 7935  -0.779   7.398  10.523 -0.0087  0.3785  0.6093
   59MOL0     H 7936  -0.630   7.482  10.524  0.1900  0.8679  0.9765
   59MOL0     H 7937  -0.906   7.577  10.640  0.1430  1.4793  0.1975
   59MOL0     H 7938  -0.760   7.648  10.691 -0.9866  1.8391 -0.0981
   59MOL0     H 7939  -0.834   7.587  10.404 -1.2017  1.2558 -0.5436
   59MOL0     H 7940  -0.685   7.663  10.442 -0.4439  1.3525 -3.9197
   59MOL0     H 7941  -0.958   7.782  10.555  2.6353  1.9961  3.3793
   59MOL0     H 7942  -0.802   7.850  10.562  0.6982 -1.8167  1.6546
   59MOL0     H 7943  -0.946   7.949  10.365 -3.5252 -1.3470 -0.7470
   59MOL0     H 7944  -0.930   7.793  10.285 -4.0278 -0.1191  1.4418
   59MOL0     H 7945  -0.765   7.925  10.192 -0.3196 -0.2432 -0.9476
   59MOL0     H 7946  -0.673   7.816  10.294 -0.1753  0.4233  0.1542
   59MOL0     H 7947  -0.402   7.381  10.401 -4.0868 -1.1497  0.1807
   59MOL0     H 7948  -0.270   7.260  10.223  1.3838  2.7512  1.5172
   59MOL0     H 7949  -0.102   6.998  10.017  3.1094 -1.1733  1.1382
   59MOL0     H 7950  -0.006   6.919   9.814 -3.1274  1.7262 -3.4180
   59MOL0     H 7951   0.644   5.866   8.844 -0.9237  1.7887  0.3138
   59MOL0     H 7952   0.861   5.801   8.939  2.6071  2.5485  0.2107
   59MOL0     H 7953   1.308   5.766   9.120  4.6855  2.1111 -0.2652
   59MOL0     H 7954   1.504   5.749   9.278 -0.4338 -0.6655  1.1212
   59MOL0     H 7955   1.621   5.719   9.435 -0.6625  0.4374 -0.2506
   59MOL0     H 7956   1.651   5.881   9.440  0.9171 -3.4649 -2.0771
   59MOL0     H 7957   1.678   5.718   9.690 -2.5135  0.8380 -0.9041
   59MOL0     H 7958   1.713   5.892   9.678 -0.9029  0.2267 -0.9556
   59MOL0     H 7959   1.891   5.857   9.516 -4.8673  2.2826  0.4467
   59MOL0     H 7960   1.851   5.689   9.502 -1.6943 -1.1069  1.9794
   59MOL0     H 7961   2.044   5.712   9.641 -1.3880 -0.5208 -2.8304
   59MOL0     H 7962   1.917   5.632   9.745  5.4043 -1.0994  3.1634
   59MOL0     H 7963   1.999   5.988   9.955 -3.2512 -1.6110  0.6406
   59MOL0     H 7964   1.238   5.880   9.596  2.4605  1.9484 -0.6226
   59MOL0     H 7965   1.047   5.862   9.449  0.6636  1.5865  0.7475
   60MOL0     O 7966   1.756   9.990   5.831  0.3610 -0.3317 -0.3460
   60MOL0     C 7967   1.755   9.871   5.840  1.0374 -0.3123 -0.2460
   60MOL0     O 7968   1.744   9.784   5.739 -1.1403  0.2167  0.4012
   60MOL0     C 7969   1.780   9.835   5.619 -0.4734  0.7613  0.3713
   60MOL0     C 7970   1.692   9.847   5.526  0.6938  1.3123  0.9147
   60MOL0     C 7971   1.719   9.889   5.392 -0.3091 -0.1559  0.0490
   60MOL0     C 7972   1.849   9.926   5.355 -0.2057 -0.2244 -0.9051
   60MOL0     O 7973   1.874   9.940   5.222  0.5043 -0.0091 -0.4977
   60MOL0     C 7974   2.006   9.943   5.178  0.5010  0.4925  0.1349
   60MOL0     C 7975   2.017   9.978   5.031  0.3820  0.3328  0.6671
   60MOL0     C 7976   2.043  10.129   5.009  0.7244 -0.4581  1.1515
   60MOL0     C 7977   1.924  10.213   5.074 -0.0580  0.8099  0.2457
   60MOL0     C 7978   1.965  10.361   5.049  0.4635  0.5941 -1.0794
   60MOL0     C 7979   1.918  10.421   4.910  0.5271  0.2243 -0.5085
   60MOL0     C 7980   1.971  10.565   4.891 -0.3281  0.3371 -0.0915
   60MOL0     C 7981   2.132  10.562   4.862  0.5895 -0.0334  0.6108
   60MOL0     N 7982   2.170  10.699   4.822  0.2913 -0.2691  0.5514
   60MOL0     C 7983   2.188  10.802   4.907  0.1071 -0.1106  0.0221
   60MOL0     C 7984   2.241  10.897   4.839 -0.2389 -0.4835  0.8003
   60MOL0     C 7985   2.280  11.034   4.893  0.0848  0.3872 -0.6576
   60MOL0     C 7986   2.419  11.074   4.868  0.1103  0.8646  0.6111
   60MOL0     C 7987   2.466  11.206   4.934  0.0883  0.8615  0.5474
   60MOL0     C 7988   2.615  11.233   4.907 -0.0312  0.2705 -0.4411
   60MOL0     O 7989   2.651  11.372   4.911 -0.2363 -0.8683  0.4917
   60MOL0     C 7990   2.629  11.467   4.813  0.4008  0.1142 -0.6626
   60MOL0     C 7991   2.538  11.460   4.707 -0.1730  0.1640  1.1453
   60MOL0     C 7992   2.499  11.571   4.635  0.4739  0.1701  0.1236
   60MOL0     C 7993   2.381  11.558   4.532 -0.0735 -0.7603 -0.4933
   60MOL0     C 7994   2.564  11.698   4.669  0.2740 -1.3648  0.3623
   60MOL0     C 7995   2.536  11.837   4.598 -0.2808 -0.4046 -1.2748
   60MOL0     O 7996   2.619  11.943   4.637  0.4185 -0.4832 -0.1078
   60MOL0     C 7997   2.592  12.074   4.598  0.0599  0.1549 -1.5887
   60MOL0     C 7998   2.466  12.135   4.619  0.4022 -0.0059 -0.1058
   60MOL0     C 7999   2.458  12.277   4.619 -0.3363 -0.0578  0.4144
   60MOL0     C 8000   2.575  12.356   4.597 -0.3402  0.7152  0.1741
   60MOL0     O 8001   2.555  12.489   4.619  0.2390  0.3777  0.0100
   60MOL0     C 8002   2.627  12.540   4.729  0.9164 -0.0420 -0.3859
   60MOL0     C 8003   2.627  12.682   4.730 -1.0819 -0.6819  0.5698
   60MOL0     C 8004   2.769  12.743   4.753 -0.2187  0.0872 -0.6839
   60MOL0     C 8005   2.758  12.882   4.798 -0.6763  0.3008  0.0355
   60MOL0     C 8006   2.672  12.912   4.927  0.3072  1.0738 -0.6549
   60MOL0     C 8007   2.710  12.807   5.034  0.3580  0.9110  0.9109
   60MOL0     C 8008   2.647  12.827   5.174  0.1696 -0.3573  0.2697
   60MOL0     C 8009   2.698  12.713   5.265  0.1697 -0.0561 -0.6090
   60MOL0    Cl 8010   2.859  12.749   5.303  0.0031  0.2122 -0.0167
   60MOL0     C 8011   2.697  12.291   4.573 -0.1213 -0.5278  0.5401
   60MOL0     C 8012   2.708  12.154   4.564  0.2081 -0.6752  0.5288
   60MOL0     O 8013   2.450  11.841   4.509  0.3698 -0.4347  0.7855
   60MOL0     C 8014   2.662  11.697   4.767  0.6147 -0.3909 -1.1614
   60MOL0     C 8015   2.698  11.583   4.832 -0.2422  0.0374 -0.1088
   60MOL0     N 8016   2.265  10.857   4.718  0.1225 -0.2974  0.4910
   60MOL0     N 8017   2.230  10.740   4.711 -0.6079 -0.1247  0.2355
   60MOL0     C 8018   1.942   9.914   5.458 -0.3855  0.2169  0.0535
   60MOL0     C 8019   1.908   9.866   5.579 -0.7161  0.0235  1.0545
   60MOL0     C 8020   1.761   9.817   5.974  1.2298  0.1960 -0.1706
   60MOL0     C 8021   1.784   9.678   5.998  0.2235 -0.2887  0.2550
   60MOL0     C 8022   1.795   9.630   6.127  0.3307 -0.1657 -0.3479
   60MOL0     C 8023   1.796   9.710   6.237  0.8646  0.3168 -0.5477
   60MOL0     O 8024   1.825   9.661   6.363  0.6075 -0.0911  0.1337
   60MOL0     C 8025   1.949   9.707   6.414  0.1849 -0.1634 -0.3532
   60MOL0     C 8026   1.985   9.641   6.548  0.2021 -0.1412 -0.2201
   60MOL0     C 8027   1.908   9.700   6.667  0.5838 -0.2654 -0.3156
   60MOL0     C 8028   1.754   9.678   6.652  0.1223  0.2317 -0.6977
   60MOL0     C 8029   1.681   9.724   6.772  0.1883  0.0614  1.2133
   60MOL0     C 8030   1.634   9.782   6.861 -0.0055 -0.2994  0.0797
   60MOL0     C 8031   1.768   9.843   6.210  0.6269 -0.7207 -1.0483
   60MOL0     C 8032   1.744   9.895   6.085  0.4350 -0.1036 -0.1137
   60MOL0     H 8033   1.586   9.835   5.547  1.3199 -3.0417  2.7223
   60MOL0     H 8034   1.648   9.890   5.310 -0.5058  0.6489  0.2213
   60MOL0     H 8035   2.061  10.019   5.233 -0.0107  0.4494  0.7104
   60MOL0     H 8036   2.055   9.848   5.198  1.1725  0.8058  0.0112
   60MOL0     H 8037   2.112   9.933   5.003  0.9350  1.5154  0.6065
   60MOL0     H 8038   1.942   9.941   4.960  2.4666  1.7506 -2.5299
   60MOL0     H 8039   2.128  10.153   5.074  2.5554 -1.9464 -0.5962
   60MOL0     H 8040   2.068  10.156   4.906  2.0506  3.4215  2.2999
   60MOL0     H 8041   1.822  10.208   5.035  1.4857  1.3815 -4.6139
   60MOL0     H 8042   1.914  10.185   5.179  2.7889  1.9799  0.9172
   60MOL0     H 8043   1.913  10.422   5.124  0.5603 -0.7232  0.1108
   60MOL0     H 8044   2.071  10.368   5.074  0.4619 -2.9135  0.5145
   60MOL0     H 8045   1.942  10.346   4.835  3.4424  2.3811 -1.9120
   60MOL0     H 8046   1.808  10.416   4.905  0.4231  0.0686  1.2168
   60MOL0     H 8047   1.903  10.611   4.819 -0.3652  1.4917  0.6585
   60MOL0     H 8048   1.958  10.618   4.985  0.3423  2.0526 -0.9183
   60MOL0     H 8049   2.154  10.499   4.776  0.5173  1.5855 -0.6345
   60MOL0     H 8050   2.191  10.533   4.950 -0.2974  0.9370  1.5720
   60MOL0     H 8051   2.171  10.806   5.014 -0.3704 -0.5083 -0.0309
   60MOL0     H 8052   2.206  11.105   4.858  1.1343  2.0109  0.2833
   60MOL0     H 8053   2.282  11.026   5.002  0.3757 -1.3550 -0.7611
   60MOL0     H 8054   2.417  11.089   4.759 -0.0923  0.9305  0.6243
   60MOL0     H 8055   2.488  10.994   4.897 -0.7016  1.3393  4.2909
   60MOL0     H 8056   2.447  11.195   5.042 -0.3799  0.6339  0.4434
   60MOL0     H 8057   2.406  11.283   4.885 -0.1322 -1.3008 -2.9019
   60MOL0     H 8058   2.641  11.197   4.807 -1.9007  2.8897 -1.9994
   60MOL0     H 8059   2.671  11.173   4.979 -0.5430 -0.1511 -0.3886
   60MOL0     H 8060   2.499  11.362   4.684 -4.5248  1.8717  0.3261
   60MOL0     H 8061   2.416  11.560   4.429  1.2942 -2.6632 -0.1088
   60MOL0     H 8062   2.326  11.464   4.537 -1.7064  0.1701  0.0541
   60MOL0     H 8063   2.315  11.644   4.549  1.7116 -0.0190  4.1766
   60MOL0     H 8064   2.383  12.078   4.660  0.7148  1.2276  2.4655
   60MOL0     H 8065   2.361  12.324   4.635 -0.3515  1.1023 -2.4845
   60MOL0     H 8066   2.590  12.498   4.823  2.1617 -0.9683 -0.2892
   60MOL0     H 8067   2.729  12.502   4.724  0.8084 -0.9300  2.3365
   60MOL0     H 8068   2.594  12.733   4.639  0.2250 -0.9184 -0.0647
   60MOL0     H 8069   2.555  12.703   4.809  3.0542  1.7581  4.1911
   60MOL0     H 8070   2.824  12.761   4.660 -1.1672  1.5139 -0.9913
   60MOL0     H 8071   2.831  12.693   4.828 -2.0311  2.2979  2.5519
   60MOL0     H 8072   2.860  12.921   4.810 -0.3762 -0.6152  0.5748
   60MOL0     H 8073   2.712  12.947   4.723 -0.7280  0.8978  0.5767
   60MOL0     H 8074   2.569  12.900   4.893 -1.3095  1.3613  3.4914
   60MOL0     H 8075   2.667  13.012   4.971 -1.1856  0.5466  0.4552
   60MOL0     H 8076   2.662  12.715   4.999  0.4094  0.4846  1.9534
   60MOL0     H 8077   2.816  12.785   5.023 -0.1248 -0.7400 -1.3432
   60MOL0     H 8078   2.538  12.827   5.174  0.1582  0.8536  1.3003
   60MOL0     H 8079   2.674  12.927   5.207 -1.5761 -0.4869  2.3100
   60MOL0     H 8080   2.689  12.617   5.214  2.1088  0.3195 -1.7872
   60MOL0     H 8081   2.630  12.715   5.350  2.1244  1.2293  1.0229
   60MOL0     H 8082   2.767  12.361   4.528 -2.3835  1.2040 -0.4564
   60MOL0     H 8083   2.800  12.100   4.546  1.4731  1.0490  1.5178
   60MOL0     H 8084   2.722  11.784   4.792 -0.4874  0.0060  0.2959
   60MOL0     H 8085   2.771  11.597   4.911  3.1921  1.5794 -3.2268
   60MOL0     H 8086   2.048   9.924   5.435  0.6120 -1.1684  3.4319
   60MOL0     H 8087   1.985   9.865   5.656 -0.2883 -1.0725  0.6304
   60MOL0     H 8088   1.789   9.606   5.917  1.0639 -1.1133  1.0112
   60MOL0     H 8089   1.802   9.522   6.132 -1.3133 -0.2534  0.6471
   60MOL0     H 8090   2.015   9.676   6.333 -1.6877 -1.3123 -1.5127
   60MOL0     H 8091   1.968   9.814   6.431  0.4009 -0.5244  2.0686
   60MOL0     H 8092   2.093   9.638   6.565 -0.1338  1.0891  2.6800
   60MOL0     H 8093   1.949   9.540   6.527 -0.5310  0.0205  0.2397
   60MOL0     H 8094   1.935   9.805   6.682  4.0302 -1.2687  1.8566
   60MOL0     H 8095   1.934   9.656   6.764 -1.9555  1.4631  1.2589
   60MOL0     H 8096   1.739   9.572   6.628  1.2536  0.4191 -2.3902
   60MOL0     H 8097   1.717   9.739   6.569 -2.1646  2.6939  1.9397
   60MOL0     H 8098   1.591   9.834   6.944 -1.2659 -1.0920 -0.0470
   60MOL0     H 8099   1.758   9.913   6.292 -1.6280 -1.4808 -0.6335
   60MOL0     H 8100   1.725  10.001   6.087  5.7896  1.1479  0.9958
   61MOL0     O 8101   4.414   8.904   0.057 -0.3080 -0.6709  0.9037
   61MOL0     C 8102   4.343   8.841   0.132  0.7768 -0.6838  0.2661
   61MOL0     O 8103   4.227   8.779   0.087 -0.5075 -0.8730  0.6567
   61MOL0     C 8104   4.174   8.807  -0.039 -0.8150  0.9078  0.1084
   61MOL0     C 8105   4.243   8.792  -0.158 -0.3836  0.4666 -0.6960
   61MOL0     C 8106   4.188   8.842  -0.266  0.8845 -0.6431  0.5365
   61MOL0     C 8107   4.057   8.905  -0.274 -0.5484 -1.0106 -0.4321
   61MOL0     O 8108   3.987   8.941  -0.387  0.8829  0.1294  0.3088
   61MOL0     C 8109   4.065   8.956  -0.506  0.2561 -0.1556  0.0191
   61MOL0     C 8110   3.989   8.984  -0.637  0.5329  0.4519 -0.8570
   61MOL0     C 8111   3.878   8.884  -0.657  0.0375 -0.0353  0.4468
   61MOL0     C 8112   3.939   8.747  -0.670 -0.5444  0.2898 -0.1898
   61MOL0     C 8113   3.828   8.657  -0.733 -0.4878  0.0724 -0.2147
   61MOL0     C 8114   3.885   8.514  -0.742  0.4579 -0.3138  0.8673
   61MOL0     C 8115   3.783   8.416  -0.798 -0.8050 -0.3627  0.2728
   61MOL0     C 8116   3.684   8.382  -0.692  0.1485 -0.2509 -0.2060
   61MOL0     N 8117   3.586   8.278  -0.734  0.1746 -0.5177 -0.1122
   61MOL0     C 8118   3.614   8.152  -0.783 -0.1899  0.8744 -0.6029
   61MOL0     C 8119   3.495   8.100  -0.826 -0.1732  0.0358  0.0579
   61MOL0     C 8120   3.483   7.965  -0.889  0.7985  0.6098 -0.0395
   61MOL0     C 8121   3.382   7.971  -1.006 -0.1746 -0.4867  0.2129
   61MOL0     C 8122   3.462   8.013  -1.136 -0.3449 -0.4710  0.5590
   61MOL0     C 8123   3.366   8.017  -1.259 -0.2548  0.0624  0.7853
   61MOL0     O 8124   3.384   8.127  -1.345 -0.5585  0.8607  0.6247
   61MOL0     C 8125   3.473   8.108  -1.445  0.0750  0.5921  0.5611
   61MOL0     C 8126   3.481   8.212  -1.536 -0.0088  0.5631 -0.3804
   61MOL0     C 8127   3.582   8.221  -1.646 -0.2965 -0.2454 -0.0603
   61MOL0     C 8128   3.594   8.342  -1.735  0.8409  0.6649  0.1997
   61MOL0     C 8129   3.660   8.101  -1.671  0.0868 -0.0547 -0.8759
   61MOL0     C 8130   3.750   8.080  -1.781  0.6295 -0.5980  0.2990
   61MOL0     O 8131   3.741   7.954  -1.840  0.5583 -0.2998  0.8715
   61MOL0     C 8132   3.841   7.895  -1.902  0.2467 -0.6905 -0.6528
   61MOL0     C 8133   3.976   7.920  -1.885 -0.9372 -0.0361 -0.0314
   61MOL0     C 8134   4.074   7.847  -1.962 -0.2167  0.6744  0.7218
   61MOL0     C 8135   4.030   7.736  -2.044 -0.5168 -0.7202  0.2315
   61MOL0     O 8136   4.119   7.654  -2.101  0.5753  0.2395  0.3308
   61MOL0     C 8137   4.249   7.705  -2.123  0.2535  0.4141  0.2258
   61MOL0     C 8138   4.315   7.617  -2.227 -0.2011  0.3358 -0.6244
   61MOL0     C 8139   4.262   7.628  -2.378  0.3836  0.2374 -0.2376
   61MOL0     C 8140   4.334   7.528  -2.472 -0.3767  0.4931  0.4713
   61MOL0     C 8141   4.265   7.386  -2.469 -0.3102 -0.5034  0.7109
   61MOL0     C 8142   4.276   7.297  -2.605 -0.5228  0.7079 -0.2222
   61MOL0     C 8143   4.232   7.356  -2.736  0.2732  0.2302  0.4066
   61MOL0     C 8144   4.241   7.249  -2.856 -0.1814 -0.3350  0.6254
   61MOL0    Cl 8145   4.409   7.182  -2.878 -0.0313  0.1960  0.0599
   61MOL0     C 8146   3.894   7.707  -2.053  0.3077  0.2819 -0.0472
   61MOL0     C 8147   3.804   7.791  -1.994 -0.9529 -0.2130 -0.5028
   61MOL0     O 8148   3.828   8.175  -1.798 -0.2744 -0.3290  0.1600
   61MOL0     C 8149   3.647   7.993  -1.573  0.2027 -0.1941 -0.2041
   61MOL0     C 8150   3.558   7.998  -1.471  0.0810 -0.5099 -0.4000
   61MOL0     N 8151   3.396   8.189  -0.795  0.8543  0.2145 -0.4822
   61MOL0     N 8152   3.453   8.299  -0.747  1.5034  0.6509  0.9019
   61MOL0     C 8153   3.989   8.921  -0.157 -1.0503  0.2353 -0.2993
   61MOL0     C 8154   4.055   8.873  -0.036 -0.5699  0.6871  0.1812
   61MOL0     C 8155   4.376   8.834   0.274 -0.3064  0.7768 -0.4370
   61MOL0     C 8156   4.507   8.851   0.321 -0.4677 -0.3788 -0.7812
   61MOL0     C 8157   4.545   8.859   0.457 -0.4570  0.1733  0.2893
   61MOL0     C 8158   4.445   8.826   0.553  0.2235  0.3740  1.2297
   61MOL0     O 8159   4.486   8.814   0.682 -0.0479  0.7819 -0.7424
   61MOL0     C 8160   4.385   8.805   0.785  0.3618 -0.3438 -0.1020
   61MOL0     C 8161   4.458   8.741   0.911 -0.0428 -0.4818  0.3869
   61MOL0     C 8162   4.361   8.724   1.027  0.6315 -1.0060 -0.0930
   61MOL0     C 8163   4.336   8.839   1.117 -0.1479 -0.3997  0.2287
   61MOL0     C 8164   4.453   8.890   1.188  0.9037 -0.5026 -0.0617
   61MOL0     C 8165   4.557   8.937   1.239 -0.0386  0.1248  0.3643
   61MOL0     C 8166   4.315   8.816   0.512  0.0475  0.4433  0.4645
   61MOL0     C 8167   4.278   8.823   0.377 -0.5471  0.1392 -0.2295
   61MOL0     H 8168   4.344   8.752  -0.152  1.6753  4.9742 -0.4963
   61MOL0     H 8169   4.234   8.826  -0.363 -1.7423 -4.5032 -0.3248
   61MOL0     H 8170   4.139   9.036  -0.496  0.0045  0.0158  0.5101
   61MOL0     H 8171   4.104   8.856  -0.525 -1.8817 -1.1473  0.6006
   61MOL0     H 8172   3.959   9.089  -0.627  2.7886  1.3266 -2.3238
   61MOL0     H 8173   4.056   8.976  -0.723 -0.7664 -3.0158 -1.7174
   61MOL0     H 8174   3.799   8.889  -0.582 -0.3096 -2.2224  0.3023
   61MOL0     H 8175   3.851   8.907  -0.760  3.5061  1.0333 -0.3488
   61MOL0     H 8176   4.022   8.759  -0.740  0.7000  4.1969  1.6847
   61MOL0     H 8177   3.961   8.697  -0.575 -0.6870 -3.1800 -1.8269
   61MOL0     H 8178   3.737   8.653  -0.672 -0.6858 -4.0829 -0.5241
   61MOL0     H 8179   3.807   8.685  -0.836  0.1375  1.9091  0.1294
   61MOL0     H 8180   3.974   8.516  -0.806  0.5078 -3.4623  0.6986
   61MOL0     H 8181   3.918   8.487  -0.642 -0.6467  0.0178  1.3367
   61MOL0     H 8182   3.741   8.467  -0.885  0.5326  0.8073  0.2735
   61MOL0     H 8183   3.838   8.327  -0.830 -0.6474 -0.2906  0.3443
   61MOL0     H 8184   3.633   8.474  -0.664  3.1320  1.6365 -0.5072
   61MOL0     H 8185   3.735   8.340  -0.604 -0.1616  0.0708  0.1336
   61MOL0     H 8186   3.712   8.106  -0.779 -0.7202 -0.2383 -0.2649
   61MOL0     H 8187   3.578   7.922  -0.923  0.1062  0.3161 -1.6773
   61MOL0     H 8188   3.447   7.886  -0.823 -0.2507  0.1191 -1.1690
   61MOL0     H 8189   3.305   8.047  -0.992  0.3461  0.1357 -0.1927
   61MOL0     H 8190   3.327   7.877  -1.004  0.2989 -0.7701  0.2304
   61MOL0     H 8191   3.546   7.944  -1.148  0.1804  0.0838  1.0344
   61MOL0     H 8192   3.501   8.113  -1.113  4.5684 -2.0119  0.0462
   61MOL0     H 8193   3.259   8.023  -1.237 -0.1135  0.0321  1.5162
   61MOL0     H 8194   3.378   7.915  -1.297  1.5231 -0.3822  2.3397
   61MOL0     H 8195   3.413   8.296  -1.526  0.9395  1.7211 -2.8270
   61MOL0     H 8196   3.625   8.313  -1.836  0.9794  1.0286  0.1321
   61MOL0     H 8197   3.503   8.403  -1.737  1.5413  1.7517 -1.5427
   61MOL0     H 8198   3.666   8.419  -1.705 -0.7827  3.3127 -2.2032
   61MOL0     H 8199   4.000   8.012  -1.833 -1.5408 -0.1462  0.4419
   61MOL0     H 8200   4.176   7.881  -1.946  0.9140 -1.6244 -1.0826
   61MOL0     H 8201   4.240   7.805  -2.168 -0.1897  0.4676  0.4265
   61MOL0     H 8202   4.296   7.721  -2.026  0.2784 -0.8634  0.4336
   61MOL0     H 8203   4.421   7.640  -2.236 -0.2112  5.3551  5.4430
   61MOL0     H 8204   4.304   7.514  -2.192  2.4013  0.7095  1.5676
   61MOL0     H 8205   4.269   7.732  -2.409  1.0365  0.4053  0.4601
   61MOL0     H 8206   4.155   7.605  -2.389  0.2822  1.1036 -1.2072
   61MOL0     H 8207   4.321   7.569  -2.573 -1.1378 -1.5863 -0.3429
   61MOL0     H 8208   4.439   7.509  -2.453  0.0655  0.7365 -1.5129
   61MOL0     H 8209   4.159   7.396  -2.443  0.4150  2.3429  3.2041
   61MOL0     H 8210   4.308   7.323  -2.391 -2.3371  1.2406  3.3896
   61MOL0     H 8211   4.384   7.284  -2.621 -0.5687 -2.0582  1.1176
   61MOL0     H 8212   4.243   7.195  -2.580  4.1923 -0.7983  0.9326
   61MOL0     H 8213   4.298   7.436  -2.771  0.3522 -0.3873 -0.9147
   61MOL0     H 8214   4.130   7.394  -2.743  0.3858  0.6611  1.0178
   61MOL0     H 8215   4.198   7.297  -2.944 -1.3042 -0.0781  1.2894
   61MOL0     H 8216   4.175   7.162  -2.843 -1.0650  0.1442 -0.5720
   61MOL0     H 8217   3.849   7.633  -2.118 -0.8448  0.4125  0.5707
   61MOL0     H 8218   3.698   7.770  -2.010 -1.2702 -0.4545  1.6665
   61MOL0     H 8219   3.706   7.902  -1.576  2.1471  0.8640  2.3791
   61MOL0     H 8220   3.547   7.915  -1.402 -2.5027  1.8626  2.3012
   61MOL0     H 8221   3.888   8.960  -0.161 -0.3629  2.0365 -1.4912
   61MOL0     H 8222   4.015   8.880   0.065 -0.7307 -0.3048  0.1920
   61MOL0     H 8223   4.590   8.861   0.252  0.3071  0.0904  0.1757
   61MOL0     H 8224   4.648   8.878   0.486 -0.3296  1.3384 -0.8150
   61MOL0     H 8225   4.366   8.910   0.806 -0.2594 -0.3326 -0.7003
   61MOL0     H 8226   4.303   8.735   0.767  0.9821 -0.9427 -0.7075
   61MOL0     H 8227   4.539   8.806   0.945 -1.7604  2.7155 -1.1121
   61MOL0     H 8228   4.507   8.648   0.881  2.3785  1.2235 -1.2392
   61MOL0     H 8229   4.388   8.635   1.084 -1.1580 -2.0528 -0.8062
   61MOL0     H 8230   4.265   8.698   0.982  0.1908  0.6328 -0.1596
   61MOL0     H 8231   4.266   8.807   1.195 -1.3810 -1.3569 -1.1943
   61MOL0     H 8232   4.292   8.928   1.070  1.6804  1.4465  1.8432
   61MOL0     H 8233   4.651   8.967   1.280  0.5455  0.4044 -1.1366
   61MOL0     H 8234   4.238   8.810   0.588 -2.0389 -0.8112 -1.5835
   61MOL0     H 8235   4.175   8.827   0.344 -0.7556 -0.2788  0.3511
   62MOL0     O 8236   0.995   8.773   8.887 -0.3020 -0.4925 -0.2261
   62MOL0     C 8237   1.058   8.676   8.926 -0.0581  0.3920  0.5387
   62MOL0     O 8238   1.129   8.593   8.848 -0.4585 -0.3914 -0.1294
   62MOL0     C 8239   1.141   8.625   8.715 -0.3560  0.3078  0.1943
   62MOL0     C 8240   1.125   8.511   8.636  0.0788  0.1085 -0.4695
   62MOL0     C 8241   1.140   8.526   8.495 -0.3329 -0.0259  0.0842
   62MOL0     C 8242   1.163   8.649   8.427  0.2042  0.8338 -0.4020
   62MOL0     O 8243   1.177   8.640   8.286 -0.2485 -0.5141  0.4164
   62MOL0     C 8244   1.306   8.658   8.232  0.1574  0.1289 -0.2344
   62MOL0     C 8245   1.282   8.670   8.076 -0.8533  0.6654 -0.2060
   62MOL0     C 8246   1.342   8.804   8.021  0.8697  0.3430  0.3711
   62MOL0     C 8247   1.303   8.948   8.083 -0.1239  1.2069 -0.4388
   62MOL0     C 8248   1.420   9.046   8.063 -0.3601 -0.1972  0.0835
   62MOL0     C 8249   1.535   9.034   8.161 -0.3321  0.3565  0.7841
   62MOL0     C 8250   1.501   9.045   8.314  0.3940  0.6132  0.2347
   62MOL0     C 8251   1.533   9.185   8.375  0.2895  0.8953  0.1741
   62MOL0     N 8252   1.456   9.289   8.307  0.0056  0.7252 -0.6568
   62MOL0     C 8253   1.335   9.344   8.352  0.4635  0.0158  0.2871
   62MOL0     C 8254   1.293   9.436   8.258 -0.5910  0.2453 -0.7484
   62MOL0     C 8255   1.176   9.523   8.264  0.4758 -0.5742  0.3127
   62MOL0     C 8256   1.174   9.648   8.176 -1.1758  0.7615  0.6900
   62MOL0     C 8257   1.048   9.723   8.195  0.5832 -1.3987 -0.1569
   62MOL0     C 8258   1.041   9.838   8.092  0.3954  0.4559 -0.0635
   62MOL0     O 8259   1.159   9.913   8.082 -0.6090 -0.2928  0.0536
   62MOL0     C 8260   1.189  10.015   8.171  1.1646 -0.7470  0.1301
   62MOL0     C 8261   1.094  10.058   8.263 -0.2895  0.3046  0.6463
   62MOL0     C 8262   1.124  10.153   8.356 -0.5064 -0.7267 -0.0044
   62MOL0     C 8263   1.030  10.181   8.464  0.4691  0.9926  0.2340
   62MOL0     C 8264   1.247  10.219   8.341 -0.0981  0.1993  0.5404
   62MOL0     C 8265   1.286  10.330   8.431 -0.2769 -0.0075 -0.1160
   62MOL0     O 8266   1.380  10.411   8.373 -0.2269  0.1035  0.0232
   62MOL0     C 8267   1.414  10.534   8.433 -1.0196 -0.6355  1.5739
   62MOL0     C 8268   1.553  10.550   8.448  0.1883  0.7682  0.0237
   62MOL0     C 8269   1.598  10.663   8.519  0.0817  0.3213 -0.8536
   62MOL0     C 8270   1.512  10.764   8.557 -0.6211  0.5077 -0.4294
   62MOL0     O 8271   1.561  10.880   8.611  0.1167  0.7657 -0.3046
   62MOL0     C 8272   1.683  10.943   8.554 -0.0184 -0.7437  0.0807
   62MOL0     C 8273   1.660  11.097   8.533  0.7594  0.4819  0.1065
   62MOL0     C 8274   1.505  11.138   8.510 -0.3031 -0.5046 -0.2143
   62MOL0     C 8275   1.487  11.275   8.483 -0.3927 -0.6751  0.2655
   62MOL0     C 8276   1.495  11.362   8.613  0.3916  0.0941  0.1563
   62MOL0     C 8277   1.496  11.502   8.584  0.4167 -0.1838  0.7211
   62MOL0     C 8278   1.478  11.586   8.710  0.1084  0.1591 -0.1928
   62MOL0     C 8279   1.541  11.722   8.697  0.9969  0.1900  0.3128
   62MOL0    Cl 8280   1.419  11.802   8.608 -0.1084 -0.1181 -0.0613
   62MOL0     C 8281   1.377  10.736   8.536 -0.7502 -0.2125 -0.1290
   62MOL0     C 8282   1.327  10.625   8.478 -0.2004 -0.2713 -0.6088
   62MOL0     O 8283   1.260  10.335   8.551  1.3682  0.1835 -0.2034
   62MOL0     C 8284   1.337  10.195   8.239  0.7119 -0.4180  0.5563
   62MOL0     C 8285   1.304  10.092   8.150  0.7133 -0.4513 -0.7373
   62MOL0     N 8286   1.395   9.450   8.163 -1.0438 -0.2151 -0.6129
   62MOL0     N 8287   1.492   9.368   8.194 -1.0548  0.3507  0.8063
   62MOL0     C 8288   1.175   8.760   8.511 -0.0889  0.0312  0.1356
   62MOL0     C 8289   1.172   8.744   8.652 -0.7587  0.5054 -1.0344
   62MOL0     C 8290   1.062   8.654   9.070 -0.3947 -0.4322 -0.2511
   62MOL0     C 8291   0.959   8.702   9.155  0.1177 -0.5118 -0.1121
   62MOL0     C 8292   0.966   8.700   9.286  1.4326  0.6376  0.4219
   62MOL0     C 8293   1.081   8.649   9.348  0.3556 -0.7406 -0.3463
   62MOL0     O 8294   1.094   8.619   9.483  0.1397 -0.4038 -0.3147
   62MOL0     C 8295   0.974   8.630   9.568  0.2436 -0.7314  0.1101
   62MOL0     C 8296   1.005   8.584   9.714  0.0654  0.8256 -0.1121
   62MOL0     C 8297   1.144   8.621   9.772 -0.3195 -0.7493 -0.6166
   62MOL0     C 8298   1.177   8.773   9.783 -0.0024 -0.7709 -0.8573
   62MOL0     C 8299   1.133   8.818   9.906 -0.3175 -0.4806 -0.6675
   62MOL0     C 8300   1.099   8.877  10.003 -0.0631  0.0848  0.8380
   62MOL0     C 8301   1.172   8.591   9.268 -0.4224  0.3176 -0.1536
   62MOL0     C 8302   1.175   8.595   9.126  1.1737 -0.3538 -0.2776
   62MOL0     H 8303   1.105   8.414   8.680 -0.5778  0.9021  1.0428
   62MOL0     H 8304   1.133   8.445   8.423 -0.8317  0.3574 -0.3000
   62MOL0     H 8305   1.352   8.751   8.266  1.2768  0.1988 -1.8556
   62MOL0     H 8306   1.376   8.578   8.255  2.6558  2.5946  1.3986
   62MOL0     H 8307   1.316   8.579   8.025 -0.7687 -1.1275  2.7920
   62MOL0     H 8308   1.173   8.675   8.069 -0.9037  0.1908  0.1635
   62MOL0     H 8309   1.450   8.784   8.018  0.7459 -0.2441 -1.4821
   62MOL0     H 8310   1.308   8.803   7.917 -2.7182 -2.5223  1.3581
   62MOL0     H 8311   1.214   8.988   8.032 -1.9977 -1.8257  0.1790
   62MOL0     H 8312   1.280   8.941   8.189  1.8690  1.2579  0.0217
   62MOL0     H 8313   1.443   9.051   7.956 -0.9763 -0.2126 -0.0517
   62MOL0     H 8314   1.374   9.144   8.082  0.5450  0.2318  0.1286
   62MOL0     H 8315   1.590   8.941   8.143 -0.0447  0.6432  0.1748
   62MOL0     H 8316   1.607   9.112   8.135 -0.7799 -0.1257 -2.2478
   62MOL0     H 8317   1.397   9.022   8.340  0.1732  0.5086 -0.7302
   62MOL0     H 8318   1.564   8.974   8.369  1.0916 -0.7784 -2.2376
   62MOL0     H 8319   1.640   9.205   8.358  0.3825 -1.3895 -2.8511
   62MOL0     H 8320   1.506   9.176   8.480  1.5310  0.4034  0.4643
   62MOL0     H 8321   1.287   9.315   8.445 -1.1255  1.9786  0.1374
   62MOL0     H 8322   1.090   9.461   8.238  1.3537 -0.0731 -4.7866
   62MOL0     H 8323   1.180   9.557   8.369 -0.6378 -1.2180  0.5817
   62MOL0     H 8324   1.176   9.613   8.072 -0.0798  3.8789 -0.4528
   62MOL0     H 8325   1.268   9.700   8.198 -0.1335 -1.3535  1.5306
   62MOL0     H 8326   1.043   9.780   8.289  1.0656 -1.3794 -0.1394
   62MOL0     H 8327   0.958   9.661   8.192  0.9454 -2.1540 -5.5206
   62MOL0     H 8328   0.951   9.900   8.100 -1.4658 -2.2715  2.3387
   62MOL0     H 8329   1.028   9.792   7.994 -1.4490 -1.8548  1.1520
   62MOL0     H 8330   0.997  10.012   8.276 -0.7948  1.6948  2.0927
   62MOL0     H 8331   0.969  10.091   8.477  0.8548  0.5757 -0.7494
   62MOL0     H 8332   1.074  10.193   8.563  1.2837  0.4920 -0.0605
   62MOL0     H 8333   0.982  10.274   8.431 -1.2451  0.8391  2.1235
   62MOL0     H 8334   1.623  10.488   8.392 -1.4878 -1.6488  0.4662
   62MOL0     H 8335   1.702  10.695   8.525  0.3726  0.8740 -5.5533
   62MOL0     H 8336   1.770  10.939   8.621  0.6632 -0.4802 -0.7612
   62MOL0     H 8337   1.720  10.905   8.459  1.0769 -1.2246  0.6827
   62MOL0     H 8338   1.707  11.147   8.619  2.5193 -2.1800  0.8511
   62MOL0     H 8339   1.719  11.130   8.447 -1.8876 -4.7578 -4.3129
   62MOL0     H 8340   1.442  11.110   8.594  0.1122  1.5492  0.8557
   62MOL0     H 8341   1.466  11.085   8.423 -1.2338  1.1630 -0.8516
   62MOL0     H 8342   1.554  11.309   8.403  0.4970 -0.4651  1.0803
   62MOL0     H 8343   1.381  11.286   8.458 -1.2187 -0.2406  3.5124
   62MOL0     H 8344   1.588  11.338   8.666 -0.7097  2.4290  3.5310
   62MOL0     H 8345   1.416  11.344   8.687  0.6255  0.9932  0.6481
   62MOL0     H 8346   1.595  11.531   8.547 -0.4357  3.4158  0.8433
   62MOL0     H 8347   1.425  11.534   8.507  1.4553  1.6648  0.4875
   62MOL0     H 8348   1.536  11.546   8.793 -2.7743 -0.5930  1.5832
   62MOL0     H 8349   1.374  11.592   8.741  0.0701  0.8535 -0.4256
   62MOL0     H 8350   1.630  11.728   8.634  0.6338  4.4284 -0.0996
   62MOL0     H 8351   1.559  11.775   8.791  2.6642 -0.1769  0.2168
   62MOL0     H 8352   1.306  10.816   8.553  0.8734  1.1234  0.6893
   62MOL0     H 8353   1.223  10.598   8.460  0.1567  0.0334 -3.5660
   62MOL0     H 8354   1.437  10.235   8.223  1.0335 -0.8129  1.4548
   62MOL0     H 8355   1.374  10.063   8.072 -0.6724  0.1222 -2.2528
   62MOL0     H 8356   1.184   8.859   8.465 -1.0899 -0.5774 -1.4596
   62MOL0     H 8357   1.186   8.830   8.715  1.4415  0.3354 -1.2152
   62MOL0     H 8358   0.865   8.735   9.113 -1.1855 -1.9340  1.5790
   62MOL0     H 8359   0.882   8.751   9.331 -0.7599  0.2185 -2.8676
   62MOL0     H 8360   0.950   8.737   9.567 -1.6219 -1.0813  1.0825
   62MOL0     H 8361   0.883   8.588   9.524 -1.3005  1.3718  1.1334
   62MOL0     H 8362   1.011   8.475   9.717  0.4222  0.8280  2.8872
   62MOL0     H 8363   0.918   8.611   9.776 -0.5931 -1.7055  0.1769
   62MOL0     H 8364   1.212   8.566   9.707 -2.0381 -1.5656 -1.8077
   62MOL0     H 8365   1.146   8.580   9.873  2.1756  0.5822 -0.0356
   62MOL0     H 8366   1.144   8.833   9.698  1.8049  0.3080 -0.8389
   62MOL0     H 8367   1.285   8.781   9.771 -0.2452 -0.5756 -3.2574
   62MOL0     H 8368   1.051   8.941  10.075 -2.0070  0.8116 -1.0081
   62MOL0     H 8369   1.247   8.533   9.321 -0.4659  0.6371  0.2687
   62MOL0     H 8370   1.250   8.548   9.063  0.6099 -0.6665 -0.7228
   63MOL0     O 8371  10.747   4.702   2.700 -0.5610  0.8035 -0.4744
   63MOL0     C 8372  10.797   4.695   2.592  0.1424 -0.4252  0.2506
   63MOL0     O 8373  10.738   4.707   2.469  1.2856  0.7044 -0.4685
   63MOL0     C 8374  10.601   4.737   2.485  0.2884  0.5857  0.3213
   63MOL0     C 8375  10.564   4.872   2.512 -0.5151 -0.6263 -0.0652
   63MOL0     C 8376  10.429   4.903   2.512 -0.5143 -0.4072  0.3456
   63MOL0     C 8377  10.330   4.801   2.500 -0.3786  0.1531 -0.4237
   63MOL0     O 8378  10.192   4.832   2.489 -0.7342 -0.1313  0.1507
   63MOL0     C 8379  10.156   4.961   2.430 -0.2368  0.3992 -0.2802
   63MOL0     C 8380  10.010   4.952   2.384  0.3062  0.1250 -0.0943
   63MOL0     C 8381   9.917   4.926   2.501  0.1930 -1.3090 -0.9308
   63MOL0     C 8382   9.949   5.004   2.637 -0.2992  0.2970 -0.3356
   63MOL0     C 8383   9.922   5.152   2.639 -0.6956 -0.4142  0.0286
   63MOL0     C 8384   9.777   5.199   2.614  0.0379 -0.2813 -0.0263
   63MOL0     C 8385   9.776   5.344   2.643  0.2657  0.1370 -0.6596
   63MOL0     C 8386   9.676   5.410   2.554 -0.4287 -0.1941  0.1312
   63MOL0     N 8387   9.651   5.544   2.607 -0.5741  0.4504 -0.0760
   63MOL0     C 8388   9.536   5.588   2.645  0.6282 -0.3852  1.4003
   63MOL0     C 8389   9.555   5.712   2.685 -0.3612  0.6859  0.3615
   63MOL0     C 8390   9.458   5.812   2.746  0.2427  0.6631  0.1954
   63MOL0     C 8391   9.393   5.767   2.878 -0.6394  0.7901 -0.1514
   63MOL0     C 8392   9.309   5.878   2.941 -0.4566 -0.7117 -0.3342
   63MOL0     C 8393   9.233   5.838   3.069 -0.0038  0.8420  0.6518
   63MOL0     O 8394   9.308   5.826   3.182 -0.8110  0.9605 -0.4811
   63MOL0     C 8395   9.334   5.940   3.256  0.2041 -0.2728 -0.8062
   63MOL0     C 8396   9.413   5.918   3.379  0.4224 -0.0177  0.3379
   63MOL0     C 8397   9.462   6.026   3.458 -0.2116  0.2394 -0.0204
   63MOL0     C 8398   9.535   5.996   3.585  0.1312  0.0996  0.5889
   63MOL0     C 8399   9.428   6.156   3.421  0.5044 -0.7613  0.3487
   63MOL0     C 8400   9.462   6.273   3.491  0.0502  0.2538 -0.5183
   63MOL0     O 8401   9.588   6.282   3.546 -0.3567  0.2896 -0.6687
   63MOL0     C 8402   9.651   6.392   3.597 -0.1402 -0.4080 -0.0262
   63MOL0     C 8403   9.748   6.364   3.692  0.3218  0.6883 -0.3179
   63MOL0     C 8404   9.813   6.461   3.762 -0.4232 -0.4352 -0.5561
   63MOL0     C 8405   9.781   6.594   3.747  0.2991  0.2837 -0.7767
   63MOL0     O 8406   9.834   6.687   3.826  0.3347 -0.1668  0.6275
   63MOL0     C 8407   9.914   6.776   3.745  0.0295  0.5299 -0.1521
   63MOL0     C 8408   9.951   6.900   3.820 -0.1138 -0.5807 -0.5080
   63MOL0     C 8409   9.834   6.954   3.911  0.4783  0.4239  0.3108
   63MOL0     C 8410   9.709   6.994   3.830  0.3381  0.5038 -0.6178
   63MOL0     C 8411   9.580   7.018   3.910  0.5408 -0.2614 -0.2225
   63MOL0     C 8412   9.505   6.902   3.976  0.2458 -0.6729  0.0723
   63MOL0     C 8413   9.408   6.957   4.079  0.5523  0.5689 -1.0442
   63MOL0     C 8414   9.341   6.851   4.167 -0.1743 -0.4072  0.5454
   63MOL0    Cl 8415   9.219   6.938   4.262  0.4081  0.6244  0.0518
   63MOL0     C 8416   9.683   6.622   3.650  0.2793 -1.1684  0.2324
   63MOL0     C 8417   9.623   6.524   3.572  0.1713  0.6080  0.0393
   63MOL0     O 8418   9.378   6.363   3.493 -0.6548  0.3329  0.5548
   63MOL0     C 8419   9.343   6.179   3.306  0.3944 -0.3050  1.6609
   63MOL0     C 8420   9.299   6.071   3.235  0.0317  0.4123  0.0259
   63MOL0     N 8421   9.690   5.737   2.672 -0.6696  0.5283  1.2542
   63MOL0     N 8422   9.746   5.640   2.615  0.0174 -0.1653  0.4500
   63MOL0     C 8423  10.367   4.666   2.486  0.0694 -0.5222 -0.0689
   63MOL0     C 8424  10.505   4.635   2.477 -0.6911  0.1579  0.5325
   63MOL0     C 8425  10.940   4.654   2.587 -1.2798  0.4868 -1.1559
   63MOL0     C 8426  11.005   4.646   2.464  0.4277 -0.1300  0.3940
   63MOL0     C 8427  11.137   4.625   2.459 -0.2604 -0.8721  0.1781
   63MOL0     C 8428  11.228   4.619   2.575  0.0254 -0.3094  1.0030
   63MOL0     O 8429  11.363   4.612   2.565  0.2189 -0.4625  0.1379
   63MOL0     C 8430  11.432   4.631   2.443 -1.0579 -0.0096  0.3227
   63MOL0     C 8431  11.471   4.494   2.369 -0.4581  0.4010  0.6477
   63MOL0     C 8432  11.533   4.397   2.471  0.0825 -0.5112  0.8461
   63MOL0     C 8433  11.558   4.261   2.408 -0.1646  0.3055 -0.8412
   63MOL0     C 8434  11.663   4.247   2.307  0.2118 -1.1128  0.7366
   63MOL0     C 8435  11.745   4.229   2.215 -0.6139  0.1682 -0.3951
   63MOL0     C 8436  11.158   4.621   2.702  0.2388  0.5430  0.1554
   63MOL0     C 8437  11.019   4.644   2.708  0.2748  0.3813  0.2559
   63MOL0     H 8438  10.636   4.953   2.504  1.1243 -2.1274 -1.7348
   63MOL0     H 8439  10.408   5.009   2.497  0.3534 -0.6059 -3.4812
   63MOL0     H 8440  10.180   5.041   2.500  3.2848 -1.6212  1.0783
   63MOL0     H 8441  10.217   4.973   2.340 -1.0792 -1.5310 -1.1926
   63MOL0     H 8442   9.986   5.039   2.323  1.5915  0.2420 -0.4680
   63MOL0     H 8443  10.014   4.869   2.313 -0.8950  2.2188 -2.7812
   63MOL0     H 8444   9.811   4.953   2.489  0.0083  0.9014  3.5499
   63MOL0     H 8445   9.928   4.818   2.514  4.2140 -1.0003 -0.7203
   63MOL0     H 8446   9.883   4.963   2.714 -0.1019  0.1238 -0.2589
   63MOL0     H 8447  10.053   4.983   2.665  0.2424 -0.4100 -2.6568
   63MOL0     H 8448   9.958   5.197   2.732 -0.1719 -0.3157 -0.2158
   63MOL0     H 8449   9.991   5.200   2.569  1.4947 -2.3755  0.7118
   63MOL0     H 8450   9.742   5.184   2.511 -2.0221  1.8581  0.2919
   63MOL0     H 8451   9.710   5.149   2.685  1.4706  2.1995  3.3565
   63MOL0     H 8452   9.735   5.354   2.744  0.1509 -2.0050 -0.4513
   63MOL0     H 8453   9.876   5.387   2.647  0.1535  0.2939  1.6102
   63MOL0     H 8454   9.582   5.355   2.551 -0.3732 -0.6842  3.2377
   63MOL0     H 8455   9.698   5.416   2.447 -2.4371  0.2392 -0.2901
   63MOL0     H 8456   9.441   5.541   2.620  0.3905 -0.1034  1.7808
   63MOL0     H 8457   9.510   5.908   2.750 -1.2604  1.6208 -1.5935
   63MOL0     H 8458   9.381   5.818   2.669 -1.0641  0.8582  1.4796
   63MOL0     H 8459   9.473   5.739   2.947 -0.4695 -1.4341 -1.1649
   63MOL0     H 8460   9.338   5.672   2.868  3.6768 -2.4668  3.0851
   63MOL0     H 8461   9.251   5.926   2.861  2.1138  3.4477  0.0162
   63MOL0     H 8462   9.373   5.963   2.967  1.2012 -2.1018  0.2801
   63MOL0     H 8463   9.180   5.744   3.051  1.1052  0.4621 -0.8393
   63MOL0     H 8464   9.148   5.906   3.075 -0.0775  1.4661 -3.8110
   63MOL0     H 8465   9.424   5.813   3.402 -0.6950  0.1277  1.6603
   63MOL0     H 8466   9.641   5.986   3.563 -0.4664  0.5843 -2.9852
   63MOL0     H 8467   9.528   6.074   3.662  1.8294  2.8375 -1.8473
   63MOL0     H 8468   9.492   5.903   3.623  0.6447 -0.6978 -0.7390
   63MOL0     H 8469   9.760   6.256   3.695 -2.7405  0.2153 -1.3659
   63MOL0     H 8470   9.894   6.445   3.833 -1.2158  4.1594  1.7457
   63MOL0     H 8471  10.000   6.719   3.710  0.2044  0.6642  0.0534
   63MOL0     H 8472   9.870   6.815   3.653 -2.0491  5.0174  2.3878
   63MOL0     H 8473  10.026   6.861   3.890  1.3027 -0.5120 -1.9429
   63MOL0     H 8474   9.996   6.980   3.761 -2.8387  1.1913 -0.3730
   63MOL0     H 8475   9.886   7.040   3.956 -0.5070  0.9411  0.4831
   63MOL0     H 8476   9.808   6.901   4.003  1.4154 -0.8625 -0.1443
   63MOL0     H 8477   9.737   7.080   3.768  0.4091  1.0287  0.1303
   63MOL0     H 8478   9.672   6.917   3.762 -2.3808  0.9036  0.2873
   63MOL0     H 8479   9.521   7.086   3.847 -0.8836 -1.8342 -0.6715
   63MOL0     H 8480   9.618   7.076   3.994 -0.5129 -1.8022  1.3935
   63MOL0     H 8481   9.444   6.852   3.901 -4.9089  3.9274  0.5646
   63MOL0     H 8482   9.567   6.825   4.022 -1.4154 -1.5759  0.8885
   63MOL0     H 8483   9.327   7.003   4.022  1.4503  6.2924  1.6121
   63MOL0     H 8484   9.451   7.046   4.126 -1.4159  0.2065  1.6956
   63MOL0     H 8485   9.414   6.797   4.228  1.1894 -0.2448 -0.8787
   63MOL0     H 8486   9.302   6.769   4.106  2.5241 -1.4165  0.0476
   63MOL0     H 8487   9.639   6.720   3.635  4.0633  0.4863 -1.4223
   63MOL0     H 8488   9.551   6.549   3.495  1.1001 -0.7539 -1.3558
   63MOL0     H 8489   9.324   6.277   3.262  2.7775 -0.9452 -1.0986
   63MOL0     H 8490   9.232   6.078   3.150 -1.9144 -4.1283  0.8835
   63MOL0     H 8491  10.290   4.592   2.472 -1.8595  1.3840 -0.1322
   63MOL0     H 8492  10.540   4.535   2.452 -1.3678 -0.4418  1.8655
   63MOL0     H 8493  10.962   4.658   2.365 -0.1652 -0.5640  0.5925
   63MOL0     H 8494  11.179   4.597   2.363 -2.1950 -1.5351 -0.5389
   63MOL0     H 8495  11.382   4.706   2.382  0.7731  2.3970  1.5660
   63MOL0     H 8496  11.525   4.683   2.470 -0.0846 -1.3368 -0.3568
   63MOL0     H 8497  11.537   4.516   2.284 -1.5224 -0.8837 -0.5641
   63MOL0     H 8498  11.379   4.449   2.329 -0.3288  1.4379 -0.9082
   63MOL0     H 8499  11.460   4.379   2.551 -0.9922 -5.1681 -0.8565
   63MOL0     H 8500  11.628   4.443   2.501 -0.4944  1.7922 -0.6726
   63MOL0     H 8501  11.468   4.233   2.351  0.6508 -0.6717 -1.6993
   63MOL0     H 8502  11.576   4.194   2.492 -0.9640 -0.2949 -1.1321
   63MOL0     H 8503  11.822   4.234   2.141  0.0307  0.9196  0.3011
   63MOL0     H 8504  11.210   4.621   2.798 -1.2144 -1.1182  0.9982
   63MOL0     H 8505  10.968   4.663   2.802  0.6030  3.4223 -0.0651
   64MOL0     O 8506   2.374   0.170   6.590  0.0091  0.0738 -0.3284
   64MOL0     C 8507   2.275   0.096   6.605  0.0774  0.0040  0.2368
   64MOL0     O 8508   2.168   0.121   6.690  0.0732  1.3572  0.0086
   64MOL0     C 8509   2.173   0.219   6.787  0.2930  0.0510  0.2266
   64MOL0     C 8510   2.048   0.265   6.822 -0.3191  0.2793 -0.0149
   64MOL0     C 8511   2.034   0.361   6.922 -0.0542  0.7630 -0.2315
   64MOL0     C 8512   2.151   0.410   6.988  0.7834 -0.6628 -0.1364
   64MOL0     O 8513   2.130   0.508   7.076  0.2876 -0.0394 -0.6555
   64MOL0     C 8514   2.140   0.642   7.024 -0.8964  0.2126  0.4800
   64MOL0     C 8515   2.174   0.731   7.142  0.0540 -0.5099  1.1084
   64MOL0     C 8516   2.320   0.713   7.179 -0.7033 -0.0957  0.0403
   64MOL0     C 8517   2.350   0.793   7.301 -0.6299 -0.3815 -1.5875
   64MOL0     C 8518   2.489   0.853   7.302  0.3711  0.3389 -0.0094
   64MOL0     C 8519   2.508   0.948   7.415  0.2359  0.0894 -0.5048
   64MOL0     C 8520   2.438   1.078   7.391 -0.4662 -0.2371 -0.7522
   64MOL0     C 8521   2.476   1.195   7.472 -0.6162 -0.1562  0.4091
   64MOL0     N 8522   2.369   1.290   7.495  0.8319 -0.2293 -0.4427
   64MOL0     C 8523   2.317   1.383   7.404  0.0275 -0.1721 -0.9458
   64MOL0     C 8524   2.212   1.434   7.475  0.1379 -0.1492 -0.2408
   64MOL0     C 8525   2.125   1.545   7.411  0.8625  0.1309 -1.2216
   64MOL0     C 8526   2.140   1.684   7.469 -0.3072  0.5662  0.1156
   64MOL0     C 8527   2.282   1.727   7.454 -0.3111  0.0811 -0.1757
   64MOL0     C 8528   2.286   1.884   7.432  0.4525 -0.6958  0.0267
   64MOL0     O 8529   2.225   1.931   7.309  0.5074  0.8175 -0.8529
   64MOL0     C 8530   2.235   2.062   7.274  0.1806 -0.3362  0.2222
   64MOL0     C 8531   2.357   2.139   7.274 -0.4324  0.3564 -0.3055
   64MOL0     C 8532   2.362   2.271   7.246  0.5691  0.2389 -0.2050
   64MOL0     C 8533   2.491   2.340   7.290  0.4495 -0.3366 -0.2752
   64MOL0     C 8534   2.238   2.334   7.199 -0.3641 -0.4465 -0.1707
   64MOL0     C 8535   2.221   2.485   7.185 -0.7401  0.7016 -0.4030
   64MOL0     O 8536   2.103   2.524   7.135 -0.0485  0.0202 -0.1333
   64MOL0     C 8537   2.097   2.656   7.086 -0.7681  0.3023 -0.6001
   64MOL0     C 8538   2.015   2.741   7.158 -0.0979 -0.1851  0.5494
   64MOL0     C 8539   2.021   2.876   7.129  0.0180  0.2969  0.1741
   64MOL0     C 8540   2.066   2.922   7.004 -0.6981 -0.8423 -0.7368
   64MOL0     O 8541   2.074   3.051   6.953 -0.0579  0.7541 -0.1893
   64MOL0     C 8542   2.033   3.167   7.033  1.1594 -0.1229  1.2138
   64MOL0     C 8543   2.068   3.293   6.958 -0.1054  0.0662  0.2949
   64MOL0     C 8544   2.216   3.300   6.908 -0.5257  0.1774  0.7369
   64MOL0     C 8545   2.253   3.433   6.821  0.1751  0.1506  0.3446
   64MOL0     C 8546   2.401   3.428   6.771  0.2689  1.1549  1.2206
   64MOL0     C 8547   2.513   3.440   6.875 -0.1962  0.2603  0.1071
   64MOL0     C 8548   2.642   3.444   6.789 -0.3330  0.1556 -0.1254
   64MOL0     C 8549   2.773   3.447   6.880  0.0892 -0.5640 -0.3604
   64MOL0    Cl 8550   2.767   3.336   7.024 -0.1829  0.2112 -0.0575
   64MOL0     C 8551   2.151   2.836   6.927  0.6676 -0.3712 -0.5750
   64MOL0     C 8552   2.175   2.700   6.975 -0.1480 -0.3075  0.1103
   64MOL0     O 8553   2.313   2.560   7.209  0.1457 -0.3742  0.0915
   64MOL0     C 8554   2.127   2.251   7.170 -0.4350  0.4701  0.2850
   64MOL0     C 8555   2.120   2.122   7.215 -0.9269  0.6546 -0.5157
   64MOL0     N 8556   2.199   1.370   7.597 -0.1208  0.5196  0.3396
   64MOL0     N 8557   2.293   1.281   7.608 -1.4511  0.1467 -0.7132
   64MOL0     C 8558   2.275   0.359   6.954  0.1090 -0.1621 -0.0553
   64MOL0     C 8559   2.290   0.268   6.858  0.7052  1.1805 -0.0929
   64MOL0     C 8560   2.247  -0.003   6.501  0.4202  1.3499 -0.8290
   64MOL0     C 8561   2.333  -0.014   6.393 -0.4582 -0.3218 -0.2156
   64MOL0     C 8562   2.321  -0.113   6.294  0.9640  0.0394 -0.2981
   64MOL0     C 8563   2.213  -0.204   6.303  1.0301 -0.1884 -0.5223
   64MOL0     O 8564   2.175  -0.287   6.199 -0.0319 -0.3956 -0.7192
   64MOL0     C 8565   2.255  -0.295   6.080 -0.3762 -0.1015  0.4043
   64MOL0     C 8566   2.168  -0.375   5.965  0.1441 -0.2806  0.0821
   64MOL0     C 8567   2.190  -0.301   5.830  0.5573  0.2195  0.8183
   64MOL0     C 8568   2.091  -0.350   5.733 -0.3557 -0.5908 -0.4485
   64MOL0     C 8569   2.106  -0.307   5.589 -0.3393 -1.0464  0.8992
   64MOL0     C 8570   2.116  -0.264   5.473  0.0743  0.0471  0.5547
   64MOL0     C 8571   2.131  -0.202   6.423  0.0675 -0.4030 -0.5975
   64MOL0     C 8572   2.152  -0.106   6.522  0.3277 -0.0417  0.1043
   64MOL0     H 8573   1.963   0.213   6.779  0.2264 -0.6923  0.0625
   64MOL0     H 8574   1.945   0.419   6.946 -1.8018 -0.8271 -2.4351
   64MOL0     H 8575   2.216   0.642   6.945 -0.6618  2.5047  0.6373
   64MOL0     H 8576   2.039   0.659   6.985 -0.3617  1.0929 -0.5988
   64MOL0     H 8577   2.147   0.832   7.112  0.0956 -1.1725 -1.3428
   64MOL0     H 8578   2.108   0.710   7.227 -0.6770  2.9851  1.5512
   64MOL0     H 8579   2.331   0.606   7.197 -0.1580 -0.5356 -2.5246
   64MOL0     H 8580   2.387   0.739   7.096  2.0078 -1.2262  1.7519
   64MOL0     H 8581   2.282   0.878   7.308  0.1185  0.1013  0.4603
   64MOL0     H 8582   2.343   0.733   7.392 -0.2571 -1.0227 -1.9624
   64MOL0     H 8583   2.564   0.773   7.300  0.7408  0.6897 -0.2568
   64MOL0     H 8584   2.506   0.908   7.209 -0.6975 -0.4685 -0.7127
   64MOL0     H 8585   2.494   0.894   7.509  0.6476 -1.7128 -1.4426
   64MOL0     H 8586   2.612   0.980   7.414  1.2849 -2.8214  2.3783
   64MOL0     H 8587   2.457   1.108   7.288 -3.8874 -2.0031 -2.0671
   64MOL0     H 8588   2.330   1.063   7.397 -0.6451  0.2774 -2.2893
   64MOL0     H 8589   2.549   1.259   7.422 -0.5190  0.4539  1.2980
   64MOL0     H 8590   2.528   1.170   7.565  0.2432 -1.1916 -0.3211
   64MOL0     H 8591   2.362   1.407   7.307  1.9226  0.6110  0.0656
   64MOL0     H 8592   2.145   1.551   7.303  0.4018 -0.4556 -1.3457
   64MOL0     H 8593   2.022   1.512   7.424  0.8555  0.4556 -0.3736
   64MOL0     H 8594   2.100   1.689   7.571 -1.4485  3.1992 -0.3887
   64MOL0     H 8595   2.077   1.751   7.409 -1.1305 -0.9013 -0.7358
   64MOL0     H 8596   2.341   1.688   7.370  1.4735  0.9267  0.6383
   64MOL0     H 8597   2.340   1.700   7.543 -0.9134 -1.3789 -0.1966
   64MOL0     H 8598   2.391   1.908   7.445  1.0036 -2.6087 -0.5169
   64MOL0     H 8599   2.234   1.932   7.516  0.4541 -0.3440 -0.1735
   64MOL0     H 8600   2.438   2.092   7.328 -0.5664 -1.4078 -1.5395
   64MOL0     H 8601   2.531   2.421   7.227  0.1878  1.1173  1.3427
   64MOL0     H 8602   2.477   2.373   7.394 -2.2691  0.8444 -0.9113
   64MOL0     H 8603   2.578   2.274   7.293  1.6964  1.1496  4.0091
   64MOL0     H 8604   1.964   2.702   7.245  1.0260  2.1090  2.3791
   64MOL0     H 8605   1.974   2.950   7.193  3.9882  0.9753  2.5867
   64MOL0     H 8606   1.925   3.168   7.051  0.5895 -0.5410 -1.6147
   64MOL0     H 8607   2.084   3.150   7.128  1.5779  0.5113  1.1066
   64MOL0     H 8608   1.996   3.290   6.876 -0.1376  0.7816  0.2961
   64MOL0     H 8609   2.046   3.380   7.021 -0.3704  1.2176 -1.3422
   64MOL0     H 8610   2.235   3.215   6.841 -0.5572 -1.1601  2.3527
   64MOL0     H 8611   2.277   3.283   6.997  0.4881 -1.4695 -0.2037
   64MOL0     H 8612   2.181   3.450   6.740 -0.1098  2.0454  0.9387
   64MOL0     H 8613   2.234   3.520   6.885 -1.2596 -1.5535  2.3317
   64MOL0     H 8614   2.423   3.507   6.698  1.5383 -0.6881 -0.5281
   64MOL0     H 8615   2.414   3.340   6.707 -1.3944  3.0687 -1.9853
   64MOL0     H 8616   2.484   3.533   6.925  2.3770  0.7685  0.7791
   64MOL0     H 8617   2.517   3.364   6.954 -1.5431  0.1346  0.0823
   64MOL0     H 8618   2.635   3.523   6.713 -6.3808  0.4507  0.2642
   64MOL0     H 8619   2.648   3.348   6.737 -0.1825 -0.5599  1.1659
   64MOL0     H 8620   2.785   3.550   6.913  1.1711 -0.7578 -0.1011
   64MOL0     H 8621   2.860   3.427   6.817  1.1729  0.8402  0.6433
   64MOL0     H 8622   2.221   2.879   6.857  4.4076 -3.0802  1.1140
   64MOL0     H 8623   2.239   2.627   6.926 -0.8159  0.2637 -1.6760
   64MOL0     H 8624   2.039   2.300   7.129 -0.6874  1.2307  1.6535
   64MOL0     H 8625   2.047   2.045   7.190 -0.0407 -1.7867  3.4210
   64MOL0     H 8626   2.361   0.405   7.003 -0.9397  0.3694  1.3568
   64MOL0     H 8627   2.388   0.230   6.830  0.0490  0.4890 -1.5661
   64MOL0     H 8628   2.413   0.058   6.384 -0.1321 -0.8380 -1.9463
   64MOL0     H 8629   2.389  -0.092   6.212  0.8516  3.4990  0.3680
   64MOL0     H 8630   2.260  -0.194   6.038  0.1864 -0.1972  0.2387
   64MOL0     H 8631   2.351  -0.344   6.097 -0.1304 -0.8000 -2.5253
   64MOL0     H 8632   2.063  -0.399   5.986  0.3565  0.5641  2.3879
   64MOL0     H 8633   2.191  -0.482   5.958 -3.0615 -1.1369  0.6494
   64MOL0     H 8634   2.293  -0.315   5.797 -0.0499 -0.3655 -0.9406
   64MOL0     H 8635   2.173  -0.194   5.847 -2.9536 -0.1915  0.6164
   64MOL0     H 8636   1.986  -0.334   5.759  0.3777 -0.3508  2.8444
   64MOL0     H 8637   2.109  -0.458   5.732  2.7576 -0.1548 -0.6970
   64MOL0     H 8638   2.105  -0.232   5.372  0.8635  0.8164  0.6960
   64MOL0     H 8639   2.058  -0.281   6.438 -3.3533  2.3427 -1.4878
   64MOL0     H 8640   2.082  -0.095   6.605 -1.3111  1.0042 -1.3481
   65MOL0     O 8641   0.669   8.121   5.721  0.0366  0.2768  0.5231
   65MOL0     C 8642   0.721   8.225   5.663  0.1271 -0.0375 -1.0683
   65MOL0     O 8643   0.795   8.316   5.733  0.4847 -0.2054  0.2233
   65MOL0     C 8644   0.781   8.322   5.873  0.1744  0.4815  1.0163
   65MOL0     C 8645   0.871   8.250   5.961 -0.4929  0.4828 -0.1320
   65MOL0     C 8646   0.843   8.233   6.099 -0.4594  0.6839 -0.8991
   65MOL0     C 8647   0.736   8.303   6.154  0.0611 -0.3051 -0.1596
   65MOL0     O 8648   0.735   8.306   6.296  0.0963 -0.4892  0.4376
   65MOL0     C 8649   0.618   8.348   6.352 -0.4653 -0.6572 -0.2457
   65MOL0     C 8650   0.639   8.351   6.507  0.0316  0.2530  0.2705
   65MOL0     C 8651   0.712   8.243   6.573 -0.4956 -0.4996  0.4861
   65MOL0     C 8652   0.761   8.271   6.715 -0.0848 -0.4480 -0.0236
   65MOL0     C 8653   0.839   8.151   6.771 -0.0993  0.5613 -0.3512
   65MOL0     C 8654   0.894   8.173   6.916 -0.0910 -0.9326 -0.3048
   65MOL0     C 8655   0.938   8.043   6.977  0.4893  1.0459 -0.9933
   65MOL0     C 8656   0.814   7.979   7.037 -0.8761  0.0487  0.4458
   65MOL0     N 8657   0.845   7.850   7.100  0.5775 -0.3126 -0.3597
   65MOL0     C 8658   0.918   7.839   7.213 -1.0062  0.8460  0.6673
   65MOL0     C 8659   0.920   7.703   7.226 -1.0191 -0.1534  0.1055
   65MOL0     C 8660   0.985   7.629   7.336 -0.1343 -0.2150 -0.8705
   65MOL0     C 8661   1.128   7.632   7.327  0.2513  0.8287  0.3163
   65MOL0     C 8662   1.208   7.549   7.426  0.9190 -0.3894  0.2824
   65MOL0     C 8663   1.354   7.602   7.436  0.7894  0.7671  0.0532
   65MOL0     O 8664   1.429   7.497   7.369 -0.1386 -0.7171  0.5938
   65MOL0     C 8665   1.560   7.520   7.338  0.2306  0.0418  0.8956
   65MOL0     C 8666   1.629   7.641   7.343  1.2071  0.2651  0.7614
   65MOL0     C 8667   1.761   7.646   7.292 -0.5052  0.2922 -0.5763
   65MOL0     C 8668   1.817   7.786   7.303  0.8781  0.4102 -0.7856
   65MOL0     C 8669   1.825   7.529   7.238  0.6851  0.2275 -0.0769
   65MOL0     C 8670   1.947   7.540   7.133  0.4948 -0.1635 -0.1140
   65MOL0     O 8671   2.017   7.423   7.101  0.2804  0.2397 -0.1117
   65MOL0     C 8672   2.096   7.425   6.978  0.2463 -0.3172 -0.6410
   65MOL0     C 8673   2.184   7.316   6.960 -0.5849  0.8053 -0.0381
   65MOL0     C 8674   2.271   7.319   6.844  0.4411 -0.0288 -0.9035
   65MOL0     C 8675   2.247   7.420   6.751 -0.3516  1.5839 -0.8068
   65MOL0     O 8676   2.328   7.418   6.642  0.3281 -0.0812  0.1787
   65MOL0     C 8677   2.267   7.426   6.507 -0.2073  0.0126 -0.0606
   65MOL0     C 8678   2.397   7.423   6.423 -0.7136  0.6713 -0.1002
   65MOL0     C 8679   2.375   7.406   6.274  0.5574  0.4685  0.5350
   65MOL0     C 8680   2.275   7.520   6.225 -0.6036  0.5006 -0.2302
   65MOL0     C 8681   2.291   7.546   6.074  0.4925  0.4106  0.3164
   65MOL0     C 8682   2.226   7.441   5.977  0.0077 -0.3768  0.8316
   65MOL0     C 8683   2.290   7.450   5.840 -0.2992 -0.8212  0.3972
   65MOL0     C 8684   2.218   7.555   5.752 -0.0893  0.2371 -0.1634
   65MOL0    Cl 8685   2.314   7.574   5.600 -0.1636  0.4303 -0.0936
   65MOL0     C 8686   2.152   7.519   6.767 -1.3743 -0.2638 -0.0337
   65MOL0     C 8687   2.077   7.512   6.876  0.3821  0.5115 -0.3926
   65MOL0     O 8688   1.994   7.658   7.119 -0.0270 -0.1985 -0.2411
   65MOL0     C 8689   1.763   7.412   7.253  0.2029  0.2382 -0.6933
   65MOL0     C 8690   1.634   7.405   7.302 -0.0449  0.0506  0.5012
   65MOL0     N 8691   0.840   7.642   7.136 -0.3316  0.9678 -0.4907
   65MOL0     N 8692   0.809   7.728   7.054 -0.1404 -0.5377 -0.3612
   65MOL0     C 8693   0.643   8.373   6.069 -0.6118 -0.3206 -0.5643
   65MOL0     C 8694   0.669   8.378   5.936  0.3173 -0.0693 -0.5818
   65MOL0     C 8695   0.713   8.233   5.523  0.5165  0.0119  0.3753
   65MOL0     C 8696   0.671   8.124   5.437  0.4821 -0.8358  0.3460
   65MOL0     C 8697   0.688   8.128   5.297  0.7889  0.1601 -0.4562
   65MOL0     C 8698   0.720   8.254   5.236  0.2150 -0.4820  0.4311
   65MOL0     O 8699   0.706   8.269   5.099 -0.7178  0.8623  0.1947
   65MOL0     C 8700   0.777   8.183   5.013 -0.0343  0.5378  0.0761
   65MOL0     C 8701   0.804   8.263   4.882 -0.0344 -1.0242 -0.0002
   65MOL0     C 8702   0.939   8.244   4.815  0.3472 -0.6172  0.1953
   65MOL0     C 8703   0.954   8.366   4.717 -0.5475  0.5954 -0.8711
   65MOL0     C 8704   0.851   8.378   4.617  0.0042  0.2974  0.2553
   65MOL0     C 8705   0.758   8.397   4.536 -0.2106  1.0610  0.4626
   65MOL0     C 8706   0.751   8.366   5.315  0.0962  0.3130 -0.0711
   65MOL0     C 8707   0.752   8.360   5.460 -0.3945  0.3707  0.4080
   65MOL0     H 8708   0.952   8.192   5.919 -0.6099  0.2253 -0.0060
   65MOL0     H 8709   0.914   8.184   6.165 -0.2375  1.1828 -0.7666
   65MOL0     H 8710   0.595   8.450   6.320  1.9172  0.4031  1.1617
   65MOL0     H 8711   0.532   8.283   6.333  0.3853 -3.0492  3.2695
   65MOL0     H 8712   0.694   8.445   6.521  2.9739 -1.3762  0.4697
   65MOL0     H 8713   0.538   8.352   6.550  0.0842 -2.6275  0.6570
   65MOL0     H 8714   0.658   8.148   6.580  0.0811 -0.7279  3.2609
   65MOL0     H 8715   0.810   8.226   6.528 -0.3427 -0.0583  0.6475
   65MOL0     H 8716   0.825   8.360   6.713 -1.8253  0.8774 -2.1444
   65MOL0     H 8717   0.671   8.302   6.769 -0.9973 -0.9305 -1.2067
   65MOL0     H 8718   0.771   8.065   6.764 -0.2229  0.3466  2.3253
   65MOL0     H 8719   0.923   8.123   6.706 -1.0375  0.4732 -1.5739
   65MOL0     H 8720   0.980   8.240   6.906 -0.1631 -1.0383 -2.0329
   65MOL0     H 8721   0.815   8.227   6.970 -1.1288 -1.5145 -1.1992
   65MOL0     H 8722   0.976   7.973   6.901 -4.0902  0.2328 -2.8460
   65MOL0     H 8723   1.014   8.059   7.054 -2.2538  1.6873  1.7874
   65MOL0     H 8724   0.741   7.959   6.959 -2.2060 -3.6063  2.3992
   65MOL0     H 8725   0.764   8.043   7.110  2.1783  2.5357  0.6098
   65MOL0     H 8726   0.965   7.922   7.264 -0.8536  1.2747 -0.1466
   65MOL0     H 8727   0.977   7.672   7.437  1.9979 -1.2523 -0.1785
   65MOL0     H 8728   0.945   7.528   7.334 -2.8069  0.3893  4.2563
   65MOL0     H 8729   1.149   7.739   7.319  0.9153  0.6037 -1.8319
   65MOL0     H 8730   1.161   7.576   7.239 -0.8120 -2.7006  1.9923
   65MOL0     H 8731   1.214   7.443   7.398  0.6144 -0.4933  0.6073
   65MOL0     H 8732   1.152   7.537   7.519 -3.0585 -2.0812 -2.0492
   65MOL0     H 8733   1.383   7.593   7.541 -0.0793  0.3908  0.2720
   65MOL0     H 8734   1.364   7.703   7.395  3.4873  0.7986  0.6619
   65MOL0     H 8735   1.577   7.726   7.386 -1.9125 -0.6668 -0.9350
   65MOL0     H 8736   1.787   7.840   7.394 -0.3798 -1.6116  0.0704
   65MOL0     H 8737   1.925   7.780   7.315  0.8470  0.7224 -0.3117
   65MOL0     H 8738   1.785   7.850   7.221 -0.2765  1.0218  0.1026
   65MOL0     H 8739   2.197   7.235   7.031 -1.6430  1.1608  0.5844
   65MOL0     H 8740   2.343   7.242   6.819  1.6388  0.4447  0.8788
   65MOL0     H 8741   2.209   7.337   6.479 -2.1844  2.1491 -3.4066
   65MOL0     H 8742   2.207   7.517   6.510 -1.6807 -0.9356  0.6307
   65MOL0     H 8743   2.459   7.512   6.440 -1.2627  1.3502 -1.5378
   65MOL0     H 8744   2.462   7.343   6.460 -1.2328  1.6528  3.3520
   65MOL0     H 8745   2.338   7.311   6.236 -1.4533  1.6383 -0.6368
   65MOL0     H 8746   2.479   7.412   6.241  0.0784 -0.9805 -1.4697
   65MOL0     H 8747   2.167   7.502   6.236 -0.5793  0.5183  0.0597
   65MOL0     H 8748   2.305   7.601   6.291  2.8521 -0.5716 -0.3176
   65MOL0     H 8749   2.398   7.528   6.058  0.3402 -0.0608 -0.2094
   65MOL0     H 8750   2.259   7.650   6.060 -0.4392 -0.0106 -0.8797
   65MOL0     H 8751   2.253   7.340   6.008 -1.6184 -0.7890  0.9840
   65MOL0     H 8752   2.117   7.455   5.982  0.2906  1.9103  2.3819
   65MOL0     H 8753   2.296   7.357   5.782  0.1193 -0.0210 -0.8933
   65MOL0     H 8754   2.394   7.479   5.852  0.2368 -2.3230 -0.3213
   65MOL0     H 8755   2.214   7.641   5.821  1.3242 -2.1132  3.1225
   65MOL0     H 8756   2.115   7.526   5.731  0.6517 -1.1886 -2.1057
   65MOL0     H 8757   2.138   7.602   6.699 -1.8186 -0.8946 -0.7290
   65MOL0     H 8758   1.988   7.573   6.878 -0.6051 -0.8491 -0.9207
   65MOL0     H 8759   1.803   7.320   7.211 -1.3587  0.2172 -2.2353
   65MOL0     H 8760   1.583   7.309   7.310  0.8066 -0.8577 -3.0999
   65MOL0     H 8761   0.556   8.430   6.102 -1.2249 -0.4986 -1.8079
   65MOL0     H 8762   0.600   8.415   5.861 -0.4990 -3.2272 -1.5627
   65MOL0     H 8763   0.628   8.033   5.478 -2.3462 -0.6360 -1.8567
   65MOL0     H 8764   0.659   8.036   5.247  0.4720  0.7276 -1.3483
   65MOL0     H 8765   0.876   8.170   5.058 -0.8844  1.0690  2.2356
   65MOL0     H 8766   0.714   8.098   4.990  0.6448 -1.3730  4.2970
   65MOL0     H 8767   0.801   8.368   4.914  4.2762 -1.3899  2.4439
   65MOL0     H 8768   0.718   8.239   4.819 -1.0316 -1.3978  1.4372
   65MOL0     H 8769   0.953   8.151   4.759  1.3130 -1.3508  1.6108
   65MOL0     H 8770   1.026   8.247   4.881 -0.3151  0.1691  1.0587
   65MOL0     H 8771   1.050   8.360   4.665  1.7874  0.9067  3.0318
   65MOL0     H 8772   0.956   8.459   4.774 -3.7446  0.7951 -0.8872
   65MOL0     H 8773   0.683   8.414   4.462 -0.6248  0.4618  0.7462
   65MOL0     H 8774   0.772   8.461   5.267  0.3860  0.6168  0.6424
   65MOL0     H 8775   0.799   8.446   5.508 -1.3417 -0.4328  2.9520
   66MOL0     O 8776  11.071   1.306   2.111 -0.2906 -0.9182  0.1667
   66MOL0     C 8777  11.153   1.400   2.094 -0.4419  0.4153 -0.1053
   66MOL0     O 8778  11.132   1.527   2.144  0.1713  0.2887  0.0171
   66MOL0     C 8779  11.020   1.559   2.218 -0.2194  0.1988 -0.4061
   66MOL0     C 8780  11.019   1.517   2.353 -0.1486 -0.2233 -0.2114
   66MOL0     C 8781  10.917   1.562   2.432  0.5566  1.0205 -0.0109
   66MOL0     C 8782  10.816   1.640   2.370 -0.4183 -0.1241  0.1538
   66MOL0     O 8783  10.703   1.699   2.438  0.1312  0.6823  0.4685
   66MOL0     C 8784  10.679   1.676   2.578  0.3569 -0.1623  0.0211
   66MOL0     C 8785  10.556   1.755   2.622 -0.9092  1.3550 -0.9558
   66MOL0     C 8786  10.554   1.762   2.775  0.2621 -0.9689 -0.4709
   66MOL0     C 8787  10.414   1.806   2.825  0.8107  0.1791 -0.9374
   66MOL0     C 8788  10.406   1.769   2.977  0.3251 -0.0901 -0.6553
   66MOL0     C 8789  10.505   1.855   3.063 -0.5713 -0.3006 -0.5297
   66MOL0     C 8790  10.476   1.847   3.221  0.0753  0.2569 -0.2128
   66MOL0     C 8791  10.361   1.942   3.254  0.5793  0.0715 -0.0020
   66MOL0     N 8792  10.230   1.881   3.224  0.4134  0.3134 -0.1760
   66MOL0     C 8793  10.185   1.773   3.297  0.4515 -1.0267 -0.1553
   66MOL0     C 8794  10.063   1.740   3.256 -0.2079  1.8035 -0.5979
   66MOL0     C 8795   9.962   1.633   3.306  0.3042  0.2189 -0.4671
   66MOL0     C 8796   9.816   1.691   3.297  0.7959 -0.3182 -0.5532
   66MOL0     C 8797   9.780   1.816   3.387  0.5753  1.6154  0.2995
   66MOL0     C 8798   9.737   1.785   3.534 -0.6861 -0.0235  0.1534
   66MOL0     O 8799   9.698   1.899   3.606  0.6526  0.7559 -0.0601
   66MOL0     C 8800   9.578   1.884   3.670 -0.3827 -0.1969  0.7454
   66MOL0     C 8801   9.547   1.783   3.764  0.1986 -0.2405  0.6577
   66MOL0     C 8802   9.429   1.766   3.838 -0.4310 -0.8564 -0.9700
   66MOL0     C 8803   9.440   1.665   3.948  0.5373  0.2940  0.4357
   66MOL0     C 8804   9.316   1.852   3.801  1.2885  1.1723  0.0650
   66MOL0     C 8805   9.182   1.826   3.836  0.5859 -0.8049 -0.0596
   66MOL0     O 8806   9.102   1.753   3.753 -0.6300  0.5452 -0.0990
   66MOL0     C 8807   8.967   1.736   3.758 -0.2869 -0.4548 -0.4196
   66MOL0     C 8808   8.890   1.736   3.873  0.4143  0.2646  0.0183
   66MOL0     C 8809   8.748   1.719   3.870  0.2334  0.3439 -0.3453
   66MOL0     C 8810   8.685   1.690   3.749  0.8474 -1.1564  0.3134
   66MOL0     O 8811   8.549   1.682   3.732 -0.0586  0.6778  0.0004
   66MOL0     C 8812   8.468   1.629   3.843  0.5645 -0.3696 -0.9678
   66MOL0     C 8813   8.318   1.610   3.817 -0.1626 -0.6304  0.6658
   66MOL0     C 8814   8.236   1.742   3.818 -0.3330 -0.1134  0.2912
   66MOL0     C 8815   8.108   1.707   3.895  0.3926  0.0733  0.0940
   66MOL0     C 8816   8.001   1.817   3.908 -0.3486 -0.5122 -0.0940
   66MOL0     C 8817   7.953   1.856   3.773 -0.1101 -0.5207 -0.1034
   66MOL0     C 8818   7.849   1.968   3.779 -0.3227 -0.2231  0.3400
   66MOL0     C 8819   7.707   1.910   3.791  0.0053  1.4086  0.4464
   66MOL0    Cl 8820   7.586   2.038   3.818  0.2003  0.8875 -0.2442
   66MOL0     C 8821   8.758   1.694   3.636 -0.1462  0.3091  0.4715
   66MOL0     C 8822   8.891   1.710   3.646  0.3093 -0.1553 -0.0030
   66MOL0     O 8823   9.161   1.871   3.950 -0.1969 -0.8591 -0.3356
   66MOL0     C 8824   9.346   1.948   3.706 -0.2819 -0.8002  0.0350
   66MOL0     C 8825   9.464   1.965   3.635  0.4534  0.2535 -0.1189
   66MOL0     N 8826  10.039   1.812   3.141 -0.3924  0.8388 -0.4084
   66MOL0     N 8827  10.141   1.901   3.119 -0.6119 -0.5078 -0.1075
   66MOL0     C 8828  10.824   1.687   2.241  0.0914  0.0498 -0.2311
   66MOL0     C 8829  10.928   1.644   2.162  0.5012 -0.5423 -0.3784
   66MOL0     C 8830  11.267   1.378   2.000 -0.3611 -0.0658 -0.4088
   66MOL0     C 8831  11.283   1.238   1.959  0.0526  0.0945  1.1210
   66MOL0     C 8832  11.381   1.204   1.863 -0.3613  0.8274  0.4319
   66MOL0     C 8833  11.482   1.302   1.826  0.1684  0.6697 -0.6001
   66MOL0     O 8834  11.579   1.275   1.732  0.3545  0.4820  0.0286
   66MOL0     C 8835  11.707   1.248   1.788 -0.9474 -0.6101 -0.0791
   66MOL0     C 8836  11.811   1.241   1.673  0.2940  0.2220  0.0716
   66MOL0     C 8837  11.948   1.297   1.707  0.6026  0.3592  0.5882
   66MOL0     C 8838  11.940   1.449   1.706  0.3350  0.2698  0.3776
   66MOL0     C 8839  12.072   1.502   1.731 -0.2404 -0.3336 -0.1633
   66MOL0     C 8840  12.182   1.545   1.738 -0.2523  0.7621 -0.1827
   66MOL0     C 8841  11.462   1.436   1.867  1.0559 -0.4876  0.4137
   66MOL0     C 8842  11.353   1.475   1.952  0.5233  0.7755 -0.1756
   66MOL0     H 8843  11.094   1.446   2.385 -1.1657 -1.0189  0.4903
   66MOL0     H 8844  10.899   1.527   2.533  1.0902  2.9511  0.7924
   66MOL0     H 8845  10.650   1.572   2.598  0.9903 -0.4585 -0.5876
   66MOL0     H 8846  10.767   1.701   2.638  0.2378  0.5608 -0.0991
   66MOL0     H 8847  10.566   1.858   2.589  3.3226  1.0202 -1.2969
   66MOL0     H 8848  10.464   1.716   2.576 -0.1188 -3.4987  0.9131
   66MOL0     H 8849  10.577   1.662   2.814  1.0878 -0.4709  0.3717
   66MOL0     H 8850  10.633   1.828   2.810 -1.8695  2.1003 -1.0899
   66MOL0     H 8851  10.396   1.913   2.813 -0.4879  0.0657 -0.1762
   66MOL0     H 8852  10.336   1.750   2.772 -1.3614  1.8921  0.2607
   66MOL0     H 8853  10.302   1.776   3.012  0.6444 -2.7913  1.0957
   66MOL0     H 8854  10.428   1.663   2.990 -2.0412 -0.8297 -2.1135
   66MOL0     H 8855  10.609   1.825   3.044 -1.1228  0.1350 -5.8220
   66MOL0     H 8856  10.508   1.958   3.026 -2.4423 -0.5483 -1.4891
   66MOL0     H 8857  10.470   1.744   3.256 -2.2788  0.1895 -0.6109
   66MOL0     H 8858  10.568   1.895   3.253 -0.2763 -0.0167  1.2553
   66MOL0     H 8859  10.360   2.036   3.198  3.6458 -0.0751 -0.4728
   66MOL0     H 8860  10.351   1.967   3.361 -0.4940  0.7755 -0.2437
   66MOL0     H 8861  10.228   1.739   3.390  1.1650  0.4228  0.0787
   66MOL0     H 8862   9.969   1.539   3.251 -2.6033  0.4349 -1.3616
   66MOL0     H 8863   9.970   1.597   3.409  1.9752 -0.6586 -0.8697
   66MOL0     H 8864   9.743   1.613   3.319 -0.2000 -0.0466 -2.6213
   66MOL0     H 8865   9.809   1.712   3.190  0.6298 -0.5859 -0.5951
   66MOL0     H 8866   9.694   1.866   3.342 -0.4020 -0.6684 -0.5686
   66MOL0     H 8867   9.865   1.885   3.389  0.2174  2.2434 -2.2139
   66MOL0     H 8868   9.830   1.746   3.577 -1.3180  0.1850  1.7614
   66MOL0     H 8869   9.661   1.707   3.539 -0.0918 -1.0493 -3.4766
   66MOL0     H 8870   9.630   1.720   3.797 -1.4849 -2.9126  0.0978
   66MOL0     H 8871   9.401   1.694   4.047  1.1096  1.0194  0.4541
   66MOL0     H 8872   9.393   1.574   3.909  1.9300 -1.5032  2.6608
   66MOL0     H 8873   9.546   1.643   3.958  0.0578 -1.8406  1.4504
   66MOL0     H 8874   8.940   1.744   3.969  0.2727 -0.8555  0.1960
   66MOL0     H 8875   8.684   1.714   3.957  0.5250 -1.7243 -0.1951
   66MOL0     H 8876   8.506   1.531   3.876  1.1344  0.5670  1.4129
   66MOL0     H 8877   8.480   1.696   3.929 -2.6686 -2.1804  1.0849
   66MOL0     H 8878   8.299   1.555   3.725  2.2450 -1.2128  0.4380
   66MOL0     H 8879   8.290   1.534   3.891  1.4022 -0.7649  1.1641
   66MOL0     H 8880   8.211   1.768   3.715  1.2104 -0.4794 -0.2140
   66MOL0     H 8881   8.296   1.821   3.865 -0.6494  1.6367 -2.0831
   66MOL0     H 8882   8.065   1.618   3.847  0.7336  0.3396 -0.7218
   66MOL0     H 8883   8.144   1.682   3.995  0.8537  2.5623  0.6058
   66MOL0     H 8884   8.053   1.897   3.962  1.8998 -1.2486 -1.0423
   66MOL0     H 8885   7.915   1.786   3.969  0.0587  1.0843  1.3611
   66MOL0     H 8886   8.041   1.896   3.722  0.4415  0.4254  1.4885
   66MOL0     H 8887   7.926   1.767   3.716 -0.9426  0.1078 -0.7076
   66MOL0     H 8888   7.860   2.013   3.680  1.2184  1.6191  1.2640
   66MOL0     H 8889   7.862   2.044   3.857 -0.3426 -0.0918  0.2154
   66MOL0     H 8890   7.708   1.830   3.865 -0.5423 -0.6421 -1.6207
   66MOL0     H 8891   7.692   1.865   3.692 -0.6605  1.6036  0.4535
   66MOL0     H 8892   8.700   1.711   3.545  0.6147 -0.6847 -0.2207
   66MOL0     H 8893   8.945   1.725   3.553  0.3311  0.9844  0.1890
   66MOL0     H 8894   9.259   2.002   3.668  1.8384  1.3838 -2.0853
   66MOL0     H 8895   9.465   2.038   3.555  1.2584 -2.3569 -2.6262
   66MOL0     H 8896  10.752   1.755   2.196 -1.4037 -1.1242  0.2588
   66MOL0     H 8897  10.954   1.687   2.065  1.4456 -4.1247 -1.8751
   66MOL0     H 8898  11.221   1.154   1.990  0.7909 -0.6051  0.7535
   66MOL0     H 8899  11.381   1.102   1.828 -1.6724 -0.1910  3.1512
   66MOL0     H 8900  11.735   1.334   1.849  1.7781 -1.0440 -0.6186
   66MOL0     H 8901  11.713   1.165   1.859 -0.4305  1.3949  2.3340
   66MOL0     H 8902  11.764   1.281   1.582  0.3118  0.6575  0.2523
   66MOL0     H 8903  11.824   1.135   1.650  1.0380  0.6443 -1.6275
   66MOL0     H 8904  12.019   1.271   1.628  0.7181 -0.3991  0.9353
   66MOL0     H 8905  11.986   1.264   1.804 -0.5295  2.4846  1.8424
   66MOL0     H 8906  11.881   1.491   1.788  1.8778 -0.4190  1.9148
   66MOL0     H 8907  11.906   1.477   1.606  0.4046 -0.4022  0.1615
   66MOL0     H 8908  12.280   1.588   1.749  0.4133 -0.2751 -1.7386
   66MOL0     H 8909  11.535   1.507   1.832 -0.5070  0.6418 -0.6860
   66MOL0     H 8910  11.344   1.580   1.978  0.1889  0.6616  0.1916
   67MOL0     O 8911   5.739   0.250   9.736 -0.5104 -0.7695 -0.0078
   67MOL0     C 8912   5.678   0.278   9.631 -0.6072 -0.7303 -0.1115
   67MOL0     O 8913   5.728   0.320   9.507  0.3435 -0.1917 -0.0833
   67MOL0     C 8914   5.864   0.322   9.484  0.3082 -0.4480  0.2854
   67MOL0     C 8915   5.944   0.391   9.580 -0.1565 -1.3301  0.0104
   67MOL0     C 8916   6.083   0.406   9.561  0.3110 -0.2179 -0.2964
   67MOL0     C 8917   6.145   0.351   9.437  0.0878  1.0678 -0.6969
   67MOL0     O 8918   6.278   0.373   9.426  0.6247  0.1343  0.1779
   67MOL0     C 8919   6.342   0.339   9.293 -0.6592 -0.4738 -0.4909
   67MOL0     C 8920   6.495   0.363   9.311 -0.4971 -0.4012  0.1893
   67MOL0     C 8921   6.568   0.353   9.182  0.6735  0.8134  0.3434
   67MOL0     C 8922   6.720   0.360   9.206 -0.7089 -0.2295  1.2496
   67MOL0     C 8923   6.800   0.371   9.077 -0.5988  0.4705  0.4348
   67MOL0     C 8924   6.943   0.314   9.078  0.2760  0.4715 -0.7489
   67MOL0     C 8925   7.022   0.351   8.949  0.0261  0.6980  0.1311
   67MOL0     C 8926   7.171   0.321   8.942  0.3360 -0.1152  0.4454
   67MOL0     N 8927   7.217   0.355   8.798 -0.8613 -0.3073  0.1185
   67MOL0     C 8928   7.268   0.479   8.760 -0.3466  1.0801 -0.4075
   67MOL0     C 8929   7.295   0.471   8.630 -0.4516  0.1341  0.2467
   67MOL0     C 8930   7.329   0.583   8.534 -0.4801  0.4113 -0.0449
   67MOL0     C 8931   7.474   0.616   8.538 -0.2516 -0.4656  0.4105
   67MOL0     C 8932   7.511   0.715   8.420 -0.0868 -0.5086 -0.0983
   67MOL0     C 8933   7.649   0.769   8.431  0.3067 -0.4964  0.0531
   67MOL0     O 8934   7.751   0.666   8.437  0.5255 -0.5855 -0.6346
   67MOL0     C 8935   7.873   0.702   8.493  1.0819 -0.8259  0.4664
   67MOL0     C 8936   7.930   0.832   8.493 -1.6380 -0.3537 -0.2823
   67MOL0     C 8937   8.055   0.857   8.553 -0.2095 -0.1212 -1.0266
   67MOL0     C 8938   8.128   0.984   8.508 -0.4057  0.4785 -0.7756
   67MOL0     C 8939   8.114   0.759   8.642  0.3221  0.0767 -0.6249
   67MOL0     C 8940   8.237   0.771   8.718 -0.1756  0.5046 -0.8191
   67MOL0     O 8941   8.234   0.699   8.835 -0.0553  0.1877  0.5792
   67MOL0     C 8942   8.349   0.722   8.914 -0.2529  0.1429 -0.4779
   67MOL0     C 8943   8.463   0.642   8.897 -0.2608  0.7247  0.1542
   67MOL0     C 8944   8.572   0.647   8.980 -0.9294 -0.7467 -0.0358
   67MOL0     C 8945   8.577   0.754   9.073  0.2299  0.6737  0.2294
   67MOL0     O 8946   8.690   0.768   9.147  1.2894  0.4349 -0.3594
   67MOL0     C 8947   8.806   0.695   9.112  0.3998  0.0634  0.6151
   67MOL0     C 8948   8.925   0.757   9.181  0.2237  0.2217 -0.7790
   67MOL0     C 8949   8.974   0.876   9.105  0.0668 -0.2973 -0.5015
   67MOL0     C 8950   9.096   0.928   9.170 -0.4860 -0.0922  0.6037
   67MOL0     C 8951   9.143   1.061   9.101 -0.4294 -0.2566  0.5200
   67MOL0     C 8952   9.110   1.192   9.183 -0.2093  0.2432  0.7938
   67MOL0     C 8953   9.121   1.329   9.111 -0.3224  0.5259 -0.4289
   67MOL0     C 8954   9.257   1.322   9.037  0.1689 -0.1376 -0.3668
   67MOL0    Cl 8955   9.380   1.320   9.160 -0.3086 -0.1211 -0.3637
   67MOL0     C 8956   8.469   0.843   9.088  0.4507  0.0754 -0.2735
   67MOL0     C 8957   8.356   0.832   9.007  0.0339 -0.3351  0.2291
   67MOL0     O 8958   8.330   0.831   8.673  0.5471  0.4968 -0.3834
   67MOL0     C 8959   8.047   0.629   8.641  0.2057 -0.4715  0.2547
   67MOL0     C 8960   7.928   0.605   8.578  0.0332 -0.1038 -0.4077
   67MOL0     N 8961   7.268   0.345   8.592 -0.2050 -0.4498 -0.2153
   67MOL0     N 8962   7.220   0.274   8.686 -0.2661 -0.5393  0.0730
   67MOL0     C 8963   6.063   0.272   9.347 -0.2106  0.8697 -0.2432
   67MOL0     C 8964   5.929   0.261   9.379  0.4034 -0.3991 -0.0730
   67MOL0     C 8965   5.538   0.244   9.632 -1.0162 -0.2128 -0.8032
   67MOL0     C 8966   5.483   0.145   9.733  0.4243 -0.7933  0.0808
   67MOL0     C 8967   5.351   0.103   9.721  0.3004 -0.1729  0.2303
   67MOL0     C 8968   5.272   0.161   9.625  0.4926  0.9342 -0.0020
   67MOL0     O 8969   5.148   0.111   9.636  0.4325 -0.3085  0.1303
   67MOL0     C 8970   5.033   0.199   9.598 -0.2688  0.0444  0.6199
   67MOL0     C 8971   5.008   0.330   9.680 -0.4113  0.1133  0.0965
   67MOL0     C 8972   4.932   0.306   9.803  0.3596  0.3343  0.1945
   67MOL0     C 8973   4.773   0.286   9.787  0.0991  0.8185  0.7310
   67MOL0     C 8974   4.712   0.284   9.917 -0.2656 -1.1359  0.6207
   67MOL0     C 8975   4.673   0.290  10.031 -0.1676  0.7842 -0.0181
   67MOL0     C 8976   5.326   0.236   9.523 -0.1298 -0.5538  0.2404
   67MOL0     C 8977   5.459   0.268   9.527  0.6304 -0.6222  0.2786
   67MOL0     H 8978   5.894   0.426   9.670  0.5641 -2.1797  0.7691
   67MOL0     H 8979   6.148   0.463   9.628 -0.5129  0.7500 -0.2972
   67MOL0     H 8980   6.322   0.240   9.250  1.9229 -1.7573  1.0139
   67MOL0     H 8981   6.321   0.407   9.210 -0.8740  2.1408  1.5626
   67MOL0     H 8982   6.507   0.459   9.362 -4.7570 -0.7899  2.3389
   67MOL0     H 8983   6.533   0.296   9.387 -0.7115 -0.2105  0.4680
   67MOL0     H 8984   6.534   0.265   9.127 -0.1824 -0.2756  2.5273
   67MOL0     H 8985   6.535   0.436   9.117 -2.2803  0.5080  1.2744
   67MOL0     H 8986   6.739   0.453   9.261  0.2522 -0.1983  0.8863
   67MOL0     H 8987   6.752   0.273   9.264 -2.9636 -2.3796 -0.5152
   67MOL0     H 8988   6.760   0.304   9.000  2.1010  1.6245 -2.2188
   67MOL0     H 8989   6.802   0.473   9.036 -1.3318 -1.4740 -5.4082
   67MOL0     H 8990   7.003   0.352   9.162  2.1530 -1.7157 -1.0075
   67MOL0     H 8991   6.944   0.206   9.093  1.0854  0.4650 -0.7553
   67MOL0     H 8992   6.965   0.301   8.870  0.6953  0.4606 -0.2018
   67MOL0     H 8993   7.009   0.459   8.940 -3.0512  0.5791  1.8491
   67MOL0     H 8994   7.181   0.213   8.953 -1.1715 -0.3545 -0.2796
   67MOL0     H 8995   7.223   0.387   9.012  0.2880 -0.7051  1.0469
   67MOL0     H 8996   7.279   0.559   8.832  2.0346  1.0212 -0.6207
   67MOL0     H 8997   7.297   0.547   8.436 -1.7287  4.1842 -1.2242
   67MOL0     H 8998   7.275   0.678   8.543 -1.1628  0.2182 -1.7141
   67MOL0     H 8999   7.540   0.531   8.522 -1.1962 -1.4245  1.4101
   67MOL0     H 9000   7.506   0.659   8.634 -1.2472  3.0782 -0.6714
   67MOL0     H 9001   7.442   0.800   8.411 -0.8161 -1.2459 -1.9540
   67MOL0     H 9002   7.508   0.663   8.324 -1.6518 -2.5876  0.9985
   67MOL0     H 9003   7.656   0.847   8.508 -2.8687  1.3370 -1.3528
   67MOL0     H 9004   7.665   0.832   8.343 -0.5723  0.7607  0.7573
   67MOL0     H 9005   7.888   0.894   8.415  2.8173 -1.2905 -3.9047
   67MOL0     H 9006   8.191   0.959   8.423  1.3540  0.7771  0.3727
   67MOL0     H 9007   8.068   1.073   8.486  1.0355  0.9445 -3.0514
   67MOL0     H 9008   8.194   1.019   8.588  1.1884  0.1273 -1.8862
   67MOL0     H 9009   8.460   0.563   8.822  1.5686  1.9047 -1.2440
   67MOL0     H 9010   8.660   0.586   8.964 -0.4539 -0.6720  2.0196
   67MOL0     H 9011   8.794   0.595   9.154 -0.2838  0.0413  0.3764
   67MOL0     H 9012   8.816   0.684   9.004 -2.9652 -4.7446  0.4708
   67MOL0     H 9013   8.908   0.781   9.287 -0.1835 -0.3439 -0.7087
   67MOL0     H 9014   9.009   0.687   9.177  3.2753  3.6604 -3.1805
   67MOL0     H 9015   8.902   0.958   9.115  1.3946  0.9314 -0.6398
   67MOL0     H 9016   9.000   0.847   9.003  2.3977 -2.9719  0.6829
   67MOL0     H 9017   9.073   0.950   9.275 -4.2838  3.1630 -0.7079
   67MOL0     H 9018   9.182   0.860   9.166  0.3311  0.9588 -0.6586
   67MOL0     H 9019   9.108   1.083   9.000 -2.0098 -0.7323  0.9286
   67MOL0     H 9020   9.252   1.063   9.095 -0.4326  1.9092  0.3570
   67MOL0     H 9021   9.012   1.171   9.226 -0.3348  1.6613  1.2840
   67MOL0     H 9022   9.172   1.189   9.273 -2.4348  0.8755  2.4466
   67MOL0     H 9023   9.130   1.413   9.180  3.2669  0.2100 -0.3259
   67MOL0     H 9024   9.038   1.347   9.042 -0.3905 -1.6457 -0.9835
   67MOL0     H 9025   9.275   1.415   8.983  0.1944  0.2405  0.2810
   67MOL0     H 9026   9.261   1.240   8.965 -1.1443  0.2481 -0.8995
   67MOL0     H 9027   8.484   0.925   9.158  1.1018  0.5110 -0.9134
   67MOL0     H 9028   8.265   0.885   9.035 -1.6072 -3.2833  0.9446
   67MOL0     H 9029   8.083   0.558   8.715 -0.8165  1.5811  2.8573
   67MOL0     H 9030   7.869   0.516   8.599 -0.5952  0.6520  1.1281
   67MOL0     H 9031   6.085   0.225   9.251  3.6401 -1.3331  1.4759
   67MOL0     H 9032   5.869   0.197   9.315  2.5039 -0.2008 -2.4097
   67MOL0     H 9033   5.553   0.112   9.809  2.0167 -1.3788 -1.5344
   67MOL0     H 9034   5.320   0.029   9.794  1.3358 -2.1152 -1.2057
   67MOL0     H 9035   5.042   0.230   9.493 -0.5577 -0.0070  0.5798
   67MOL0     H 9036   4.943   0.138   9.598 -0.3012  0.0909  0.7731
   67MOL0     H 9037   4.945   0.407   9.634 -2.7921  0.1445  3.0609
   67MOL0     H 9038   5.106   0.375   9.697  0.9551 -2.5472 -0.2609
   67MOL0     H 9039   4.942   0.388   9.876  2.5319 -2.1618  2.9603
   67MOL0     H 9040   4.974   0.221   9.857  1.7435  1.0234  0.2371
   67MOL0     H 9041   4.764   0.179   9.764 -1.2950  1.3847 -1.7277
   67MOL0     H 9042   4.722   0.339   9.706 -1.5962 -0.5314  0.8613
   67MOL0     H 9043   4.642   0.288  10.134 -2.5544 -3.0396 -0.6267
   67MOL0     H 9044   5.277   0.278   9.435  1.2406  1.4000  0.3650
   67MOL0     H 9045   5.495   0.332   9.447  1.3077  1.8426  2.4165
   68MOL0     O 9046   4.111   8.341  10.617 -0.2291  0.0875 -0.2644
   68MOL0     C 9047   4.196   8.433  10.594  0.2621  0.5525  0.9275
   68MOL0     O 9048   4.243   8.471  10.472  0.7494  0.6340  0.5453
   68MOL0     C 9049   4.242   8.385  10.363  0.5840 -0.5180  0.3161
   68MOL0     C 9050   4.274   8.255  10.381  0.3728  0.2383 -0.2523
   68MOL0     C 9051   4.286   8.166  10.278 -0.4981 -0.0119  0.2123
   68MOL0     C 9052   4.260   8.207  10.145 -0.2630  0.7216  0.1118
   68MOL0     O 9053   4.286   8.118  10.039  0.8692  0.4207 -0.0200
   68MOL0     C 9054   4.218   7.990  10.034 -0.7913 -0.7038  0.3196
   68MOL0     C 9055   4.205   7.953   9.884 -0.0694 -0.0619  0.7841
   68MOL0     C 9056   4.339   7.909   9.826  0.9119  0.8831 -0.2319
   68MOL0     C 9057   4.406   8.037   9.772 -0.1994  0.3261  0.6569
   68MOL0     C 9058   4.552   8.031   9.811 -1.1326  0.2350  0.0120
   68MOL0     C 9059   4.645   8.112   9.719 -0.0966  0.0172 -0.2996
   68MOL0     C 9060   4.618   8.265   9.742 -0.4362 -0.1591 -0.0163
   68MOL0     C 9061   4.717   8.352   9.665  0.0852 -0.6174  0.3478
   68MOL0     N 9062   4.679   8.356   9.527  0.5433 -0.2476 -0.7212
   68MOL0     C 9063   4.555   8.362   9.475  1.1348 -0.3671 -0.1966
   68MOL0     C 9064   4.572   8.394   9.345 -0.1745 -0.6721 -0.6750
   68MOL0     C 9065   4.472   8.414   9.234 -0.6554  0.1411 -0.0219
   68MOL0     C 9066   4.401   8.551   9.272  0.7741 -0.5613 -0.5590
   68MOL0     C 9067   4.491   8.673   9.231  0.2830 -0.8815  0.2427
   68MOL0     C 9068   4.455   8.812   9.288 -0.1327 -0.4647 -0.5008
   68MOL0     O 9069   4.551   8.915   9.253 -0.0622 -0.0105 -0.2527
   68MOL0     C 9070   4.591   8.931   9.128 -0.9410 -0.1015 -0.0728
   68MOL0     C 9071   4.700   8.854   9.082 -0.4288  0.0593  0.7401
   68MOL0     C 9072   4.767   8.886   8.959  0.6374  0.9946  0.1300
   68MOL0     C 9073   4.883   8.803   8.911 -0.4096 -0.3455  0.1344
   68MOL0     C 9074   4.721   9.004   8.893 -0.2917  0.6469 -0.3617
   68MOL0     C 9075   4.780   9.070   8.775  0.4415  0.3460 -0.4505
   68MOL0     O 9076   4.905   9.041   8.734  0.2367  0.3622 -0.7844
   68MOL0     C 9077   4.938   9.022   8.607 -0.8916 -0.8871  0.3894
   68MOL0     C 9078   5.064   8.976   8.588 -0.2389 -0.4510 -0.2114
   68MOL0     C 9079   5.116   8.940   8.464 -0.0280  1.1132  0.1112
   68MOL0     C 9080   5.039   8.958   8.350  0.0599  0.7406 -0.9270
   68MOL0     O 9081   5.094   8.931   8.229  0.5917  0.1656  0.6100
   68MOL0     C 9082   5.014   8.959   8.113 -0.4957 -0.7085 -0.1158
   68MOL0     C 9083   5.112   8.922   7.993  0.7218 -0.0107 -0.5157
   68MOL0     C 9084   5.024   8.928   7.873 -0.8102  0.8533  0.7809
   68MOL0     C 9085   5.110   8.925   7.735  0.5080  1.0065 -0.6004
   68MOL0     C 9086   5.015   8.933   7.616 -0.7516  0.6371  0.5017
   68MOL0     C 9087   4.909   8.813   7.603 -0.3285 -0.3534  1.2161
   68MOL0     C 9088   4.817   8.858   7.484 -0.4265  0.1944 -0.2606
   68MOL0     C 9089   4.885   8.845   7.345  0.1722  0.2534  0.2938
   68MOL0    Cl 9090   4.792   8.876   7.193  0.1843 -0.2459  0.1831
   68MOL0     C 9091   4.908   9.006   8.371 -1.2832 -0.6282  0.4880
   68MOL0     C 9092   4.869   9.041   8.498  0.0550 -0.0584  0.9967
   68MOL0     O 9093   4.693   9.123   8.706  0.0392  0.3018 -0.3057
   68MOL0     C 9094   4.614   9.077   8.943  0.1338  0.0965  0.8891
   68MOL0     C 9095   4.541   9.037   9.056  0.4730 -0.6339 -0.5368
   68MOL0     N 9096   4.707   8.415   9.330 -0.4002 -0.3555 -0.1361
   68MOL0     N 9097   4.769   8.395   9.442 -0.0075 -0.1853  0.5566
   68MOL0     C 9098   4.216   8.339  10.133  0.7813 -0.1511  1.0856
   68MOL0     C 9099   4.214   8.431  10.238 -1.4929  0.6169 -0.5047
   68MOL0     C 9100   4.259   8.504  10.712  0.1474 -0.6334 -0.3903
   68MOL0     C 9101   4.358   8.600  10.690  0.3200  0.6267 -0.7970
   68MOL0     C 9102   4.414   8.665  10.805 -0.7804  0.7464  0.3166
   68MOL0     C 9103   4.381   8.630  10.940  0.5006  0.4882 -0.1273
   68MOL0     O 9104   4.436   8.672  11.058 -0.3158 -0.3863 -0.0931
   68MOL0     C 9105   4.531   8.775  11.058  0.6355 -0.0685 -0.0582
   68MOL0     C 9106   4.603   8.785  11.191 -1.0902 -0.4943 -0.1786
   68MOL0     C 9107   4.691   8.666  11.213  0.2830 -0.3843 -0.5377
   68MOL0     C 9108   4.775   8.683  11.347  0.4436  0.0479 -0.2932
   68MOL0     C 9109   4.709   8.679  11.471  0.4021  0.2908 -1.0508
   68MOL0     C 9110   4.661   8.651  11.580 -0.7461  0.9894 -0.3893
   68MOL0     C 9111   4.281   8.529  10.955  0.3353  0.6111 -0.6862
   68MOL0     C 9112   4.224   8.465  10.852  0.2697  0.5861 -0.2039
   68MOL0     H 9113   4.306   8.216  10.478 -0.6275 -1.7559 -0.6780
   68MOL0     H 9114   4.319   8.062  10.277 -1.7677 -0.4854 -2.6563
   68MOL0     H 9115   4.285   7.916  10.080 -0.4075 -0.9544 -0.6187
   68MOL0     H 9116   4.120   7.975  10.080 -0.7679 -0.8454  0.3257
   68MOL0     H 9117   4.142   7.864   9.880 -1.1694  0.7447 -0.8335
   68MOL0     H 9118   4.153   8.025   9.821 -4.9901 -1.9236  2.2388
   68MOL0     H 9119   4.403   7.853   9.895  1.2299 -2.1086 -2.7301
   68MOL0     H 9120   4.326   7.846   9.738  1.3538  1.7281 -0.9187
   68MOL0     H 9121   4.398   8.029   9.663 -2.2920  3.3219  0.4629
   68MOL0     H 9122   4.354   8.125   9.811  0.1684  0.2233  1.4045
   68MOL0     H 9123   4.567   8.073   9.911  1.5250  1.6510 -0.9079
   68MOL0     H 9124   4.584   7.926   9.807  2.7965  1.2146  1.4716
   68MOL0     H 9125   4.747   8.078   9.740 -0.0912 -1.9069 -2.8915
   68MOL0     H 9126   4.626   8.071   9.620  4.1249 -3.5136  0.0354
   68MOL0     H 9127   4.514   8.295   9.724 -0.0503  2.0144  1.0942
   68MOL0     H 9128   4.643   8.279   9.847 -1.6264  0.6331  0.1733
   68MOL0     H 9129   4.816   8.304   9.662  0.3453 -0.1182  0.8108
   68MOL0     H 9130   4.715   8.453   9.706 -1.4546 -0.5107  0.0772
   68MOL0     H 9131   4.450   8.348   9.502  0.6060 -2.9076 -2.9945
   68MOL0     H 9132   4.511   8.418   9.132 -1.3601  0.7886 -0.2790
   68MOL0     H 9133   4.392   8.339   9.233 -0.1590 -0.4281 -2.1679
   68MOL0     H 9134   4.380   8.557   9.379  4.1065  6.0311  0.2052
   68MOL0     H 9135   4.307   8.546   9.217 -0.2920 -0.0543  1.1583
   68MOL0     H 9136   4.493   8.682   9.122  0.1429 -2.3377  0.1013
   68MOL0     H 9137   4.590   8.649   9.271  1.2861  3.1442  0.6238
   68MOL0     H 9138   4.443   8.799   9.396 -0.7996  1.0921 -0.3600
   68MOL0     H 9139   4.354   8.832   9.251 -0.8620  1.0666  2.1270
   68MOL0     H 9140   4.739   8.767   9.135  1.1381 -0.8271 -1.7008
   68MOL0     H 9141   4.972   8.866   8.922  1.3224 -2.8481  1.3522
   68MOL0     H 9142   4.898   8.727   8.988 -1.0171  0.7012  1.3279
   68MOL0     H 9143   4.866   8.772   8.808  0.2895  3.2939 -1.2179
   68MOL0     H 9144   5.119   8.954   8.679 -0.8827 -0.8044  0.1045
   68MOL0     H 9145   5.215   8.901   8.447 -0.7611 -2.0749  2.2637
   68MOL0     H 9146   4.921   8.902   8.110  0.6980 -2.7484 -0.1743
   68MOL0     H 9147   4.992   9.065   8.098  0.6642 -0.4678 -0.2082
   68MOL0     H 9148   5.189   9.000   7.991  0.7269  0.0207  0.3183
   68MOL0     H 9149   5.164   8.829   8.018  0.2946  0.1772  1.2049
   68MOL0     H 9150   4.970   9.023   7.870 -1.1386  0.6471 -1.9611
   68MOL0     H 9151   4.952   8.845   7.882 -0.5543  0.6317  0.8016
   68MOL0     H 9152   5.166   9.018   7.727 -1.7303  2.4088 -0.8473
   68MOL0     H 9153   5.165   8.830   7.733  0.9138  1.2319 -0.3305
   68MOL0     H 9154   5.068   8.931   7.520 -0.1830  1.1412  0.8037
   68MOL0     H 9155   4.966   9.031   7.624  1.3332  1.5940  2.8384
   68MOL0     H 9156   4.952   8.717   7.572  2.0342  1.3283 -1.2208
   68MOL0     H 9157   4.847   8.797   7.691 -0.1419  0.3296  1.4770
   68MOL0     H 9158   4.781   8.961   7.495  1.0007  0.6397  0.4005
   68MOL0     H 9159   4.734   8.787   7.480  0.2216 -0.5720 -3.7097
   68MOL0     H 9160   4.915   8.741   7.331  3.3480  1.0784  0.1591
   68MOL0     H 9161   4.978   8.903   7.336 -0.7695  1.5275 -2.1732
   68MOL0     H 9162   4.844   9.017   8.284 -0.8737 -0.5415  0.1975
   68MOL0     H 9163   4.768   9.081   8.499  0.5731  1.4537  3.7460
   68MOL0     H 9164   4.570   9.167   8.901  1.2793  0.4219  0.3344
   68MOL0     H 9165   4.461   9.086   9.111  0.3334 -0.6677 -0.7093
   68MOL0     H 9166   4.210   8.369  10.029  1.6815  0.9445  1.3231
   68MOL0     H 9167   4.208   8.538  10.220  3.0469  0.8744 -1.7529
   68MOL0     H 9168   4.403   8.614  10.592  2.2007 -1.3057 -0.2919
   68MOL0     H 9169   4.493   8.733  10.771 -0.2530  0.1029  0.2391
   68MOL0     H 9170   4.602   8.762  10.976  0.9874 -1.5539  0.4544
   68MOL0     H 9171   4.476   8.868  11.041  2.5807  1.4133  1.2542
   68MOL0     H 9172   4.535   8.787  11.277  0.6946 -0.2687  1.3031
   68MOL0     H 9173   4.668   8.873  11.194 -0.9429 -0.6219  1.5332
   68MOL0     H 9174   4.759   8.658  11.128  0.6095 -1.2551 -0.2038
   68MOL0     H 9175   4.638   8.571  11.209 -0.3132 -0.4408  3.6576
   68MOL0     H 9176   4.841   8.769  11.331 -1.9673  1.8089 -1.2619
   68MOL0     H 9177   4.842   8.596  11.350  3.5660  2.2863 -0.1581
   68MOL0     H 9178   4.625   8.621  11.676 -0.6605 -1.5126 -1.0592
   68MOL0     H 9179   4.265   8.493  11.056  0.8713 -3.7303 -1.9613
   68MOL0     H 9180   4.152   8.386  10.872  1.9320 -0.6953  1.1000
   69MOL0     O 9181   5.337   5.711   2.983 -0.3528  0.5539  0.3425
   69MOL0     C 9182   5.238   5.652   3.016 -0.3571  0.4236 -0.9446
   69MOL0     O 9183   5.180   5.557   2.945  1.2455  0.2766  0.3122
   69MOL0     C 9184   5.187   5.551   2.808  0.0218 -1.3309 -0.2451
   69MOL0     C 9185   5.153   5.663   2.731  0.5283 -0.0234 -0.3759
   69MOL0     C 9186   5.153   5.666   2.591  0.0121  0.1453 -0.0789
   69MOL0     C 9187   5.185   5.543   2.526  0.4321 -0.0510 -0.2598
   69MOL0     O 9188   5.188   5.515   2.393 -0.4966  0.5685 -0.3018
   69MOL0     C 9189   5.116   5.602   2.310 -0.3844 -0.2145  0.1027
   69MOL0     C 9190   5.101   5.531   2.172 -0.3557  0.3591 -0.0735
   69MOL0     C 9191   5.234   5.509   2.112  0.2624 -0.1130 -0.3689
   69MOL0     C 9192   5.230   5.411   2.001  0.3927 -0.0414 -0.9838
   69MOL0     C 9193   5.374   5.380   1.933  0.1334  0.0240  0.6917
   69MOL0     C 9194   5.352   5.260   1.837 -0.5484  0.4549 -0.4859
   69MOL0     C 9195   5.466   5.225   1.740  0.0995 -0.0958 -1.0619
   69MOL0     C 9196   5.603   5.198   1.818  0.8339  0.2242 -0.3843
   69MOL0     N 9197   5.583   5.078   1.901 -0.0895 -1.4391 -0.7504
   69MOL0     C 9198   5.575   4.944   1.868 -0.2875  0.7961 -0.0390
   69MOL0     C 9199   5.586   4.871   1.987  0.0854 -0.2403 -0.2747
   69MOL0     C 9200   5.592   4.724   2.004  0.2964 -0.6712 -0.0089
   69MOL0     C 9201   5.655   4.655   1.877  0.2326 -0.7441 -0.1721
   69MOL0     C 9202   5.651   4.508   1.922 -0.2484  0.2357 -0.0755
   69MOL0     C 9203   5.739   4.414   1.836 -0.2655  0.7124  0.1875
   69MOL0     O 9204   5.870   4.447   1.885 -0.2301  0.0229 -0.9035
   69MOL0     C 9205   5.975   4.415   1.805  0.3357 -1.0194 -0.3131
   69MOL0     C 9206   5.969   4.324   1.702 -0.5764 -0.9115 -0.2453
   69MOL0     C 9207   6.088   4.271   1.647  0.1140  0.6289  0.8906
   69MOL0     C 9208   6.067   4.128   1.571 -0.9372 -1.5319 -0.8287
   69MOL0     C 9209   6.218   4.329   1.677 -0.2535  0.5406 -0.1836
   69MOL0     C 9210   6.337   4.296   1.602 -1.1589  0.3550 -1.1837
   69MOL0     O 9211   6.420   4.400   1.579  0.3582 -0.7064 -0.6159
   69MOL0     C 9212   6.550   4.371   1.529  0.5324 -0.4109  0.4094
   69MOL0     C 9213   6.598   4.445   1.423  0.3825  0.2554 -0.0003
   69MOL0     C 9214   6.722   4.402   1.374 -0.6550  0.0779 -0.3736
   69MOL0     C 9215   6.810   4.298   1.436  0.9747 -0.1159 -0.0871
   69MOL0     O 9216   6.936   4.264   1.395  0.1830  0.2014  0.2825
   69MOL0     C 9217   6.998   4.352   1.298  0.6135  0.4889 -0.7438
   69MOL0     C 9218   7.155   4.324   1.289  0.6518  0.2034  0.0155
   69MOL0     C 9219   7.206   4.223   1.177 -0.1051  0.1579  0.6600
   69MOL0     C 9220   7.349   4.231   1.139 -0.5231 -1.0381  1.2847
   69MOL0     C 9221   7.381   4.117   1.041  0.2751  0.7214 -0.4113
   69MOL0     C 9222   7.517   4.109   0.985 -0.2550 -0.4521  0.0757
   69MOL0     C 9223   7.580   3.985   1.059 -0.2448 -0.3534  0.3242
   69MOL0     C 9224   7.734   3.958   1.034 -0.0324 -0.0229  0.4399
   69MOL0    Cl 9225   7.822   4.053   1.144 -0.0643 -0.0543  0.1554
   69MOL0     C 9226   6.761   4.237   1.549  0.0239 -0.8854 -0.3054
   69MOL0     C 9227   6.635   4.271   1.592  0.0240  0.5913  0.2438
   69MOL0     O 9228   6.366   4.176   1.571  0.6705  0.4755 -0.3995
   69MOL0     C 9229   6.221   4.434   1.778  0.6354  0.7360  0.4340
   69MOL0     C 9230   6.099   4.470   1.841  0.4434  0.0281  0.9329
   69MOL0     N 9231   5.607   4.968   2.083  0.5004  0.1319 -0.1294
   69MOL0     N 9232   5.594   5.087   2.032 -0.4329  0.0617 -0.3139
   69MOL0     C 9233   5.205   5.432   2.603 -0.3269  0.5916 -0.6120
   69MOL0     C 9234   5.208   5.437   2.746 -1.3965  0.6909  0.1859
   69MOL0     C 9235   5.198   5.677   3.162  0.9474  0.2277 -0.2050
   69MOL0     C 9236   5.083   5.622   3.224 -0.7253  0.6865 -1.2953
   69MOL0     C 9237   5.049   5.641   3.361 -0.1647  0.8430 -0.1079
   69MOL0     C 9238   5.135   5.706   3.441  0.3541  0.3855 -0.4272
   69MOL0     O 9239   5.109   5.702   3.571 -0.6105 -0.0611 -0.6247
   69MOL0     C 9240   5.143   5.815   3.645  0.1687 -0.6402 -0.0907
   69MOL0     C 9241   5.060   5.818   3.779 -0.0734 -0.6840 -0.4302
   69MOL0     C 9242   5.137   5.737   3.885  0.0796  0.8995 -0.3679
   69MOL0     C 9243   5.090   5.591   3.898  0.4619  0.7159 -0.8119
   69MOL0     C 9244   5.154   5.519   4.004  0.2149 -0.5849 -0.1694
   69MOL0     C 9245   5.225   5.471   4.085 -0.1281 -0.7116  0.5006
   69MOL0     C 9246   5.252   5.754   3.387 -0.7367 -0.1020  1.0937
   69MOL0     C 9247   5.284   5.747   3.253  1.2820  0.0158 -0.1056
   69MOL0     H 9248   5.103   5.739   2.791 -0.7139 -0.4504 -0.8389
   69MOL0     H 9249   5.128   5.763   2.548 -0.7546  1.6968  3.4985
   69MOL0     H 9250   5.016   5.627   2.347 -0.9623 -0.8580 -0.9497
   69MOL0     H 9251   5.178   5.691   2.317 -0.6122 -0.0868  0.4968
   69MOL0     H 9252   5.037   5.442   2.166 -1.7014  1.3967 -1.7719
   69MOL0     H 9253   5.045   5.605   2.114 -6.1393 -3.0899  0.3369
   69MOL0     H 9254   5.263   5.608   2.073  0.1351  0.3720  0.7486
   69MOL0     H 9255   5.313   5.476   2.181 -0.5669  2.0891  1.7681
   69MOL0     H 9256   5.190   5.316   2.037  0.2261  0.6513  0.7321
   69MOL0     H 9257   5.165   5.441   1.918  1.6111 -1.3691 -2.4936
   69MOL0     H 9258   5.402   5.467   1.872  4.0904 -0.8621  0.9483
   69MOL0     H 9259   5.455   5.353   2.002  0.2039 -1.1832  0.1669
   69MOL0     H 9260   5.321   5.171   1.894  0.2457  0.7891  0.4865
   69MOL0     H 9261   5.267   5.289   1.775 -1.1968 -2.8797 -1.3656
   69MOL0     H 9262   5.429   5.146   1.674  0.3144 -1.1072  0.0185
   69MOL0     H 9263   5.479   5.311   1.673 -1.8232  1.5836  0.5738
   69MOL0     H 9264   5.621   5.286   1.881  2.5009  1.6228 -2.6246
   69MOL0     H 9265   5.692   5.182   1.755  3.7370 -1.5323  3.7315
   69MOL0     H 9266   5.579   4.903   1.768  1.2589  1.7102 -0.3791
   69MOL0     H 9267   5.658   4.710   2.090  2.1784  1.7948 -0.9126
   69MOL0     H 9268   5.495   4.678   2.024  0.0331 -0.6775 -1.2459
   69MOL0     H 9269   5.750   4.703   1.852 -0.9262  1.5819 -0.3726
   69MOL0     H 9270   5.597   4.669   1.786  2.4831  1.0018 -1.4536
   69MOL0     H 9271   5.550   4.468   1.915  0.2050 -1.9643  3.3551
   69MOL0     H 9272   5.679   4.504   2.028 -0.3578  0.1946 -0.0494
   69MOL0     H 9273   5.713   4.438   1.733  0.9421  0.7751 -0.1249
   69MOL0     H 9274   5.715   4.309   1.855  1.2476  0.3032  0.0301
   69MOL0     H 9275   5.878   4.272   1.674 -3.1639  2.0892  1.8592
   69MOL0     H 9276   6.020   4.057   1.639 -2.5393 -0.0862 -0.3457
   69MOL0     H 9277   6.000   4.140   1.485 -0.0249 -1.4422 -1.5422
   69MOL0     H 9278   6.163   4.091   1.534 -1.0844 -0.5341 -2.3048
   69MOL0     H 9279   6.556   4.524   1.362  3.5602  1.1692 -1.2019
   69MOL0     H 9280   6.751   4.453   1.283 -2.1818  2.0850  0.1757
   69MOL0     H 9281   6.954   4.339   1.199  1.2696 -0.8200 -0.8896
   69MOL0     H 9282   6.979   4.454   1.331 -1.7617  0.3191 -1.4169
   69MOL0     H 9283   7.199   4.421   1.264 -1.0572  0.7328 -1.0935
   69MOL0     H 9284   7.194   4.296   1.388 -0.5738 -1.3719  0.0792
   69MOL0     H 9285   7.144   4.229   1.088  1.3774 -0.4429 -0.4591
   69MOL0     H 9286   7.201   4.119   1.211 -3.4504 -0.4648 -1.3601
   69MOL0     H 9287   7.359   4.330   1.094  1.4723 -1.2504  1.1725
   69MOL0     H 9288   7.415   4.228   1.226  2.7954 -0.4713 -1.0174
   69MOL0     H 9289   7.308   4.120   0.960 -0.8404 -1.5099  0.4202
   69MOL0     H 9290   7.355   4.027   1.098 -0.8767  0.8502 -0.7050
   69MOL0     H 9291   7.506   4.092   0.877  0.6742 -0.2933 -0.0563
   69MOL0     H 9292   7.582   4.192   1.015  0.8859 -1.9378  2.0224
   69MOL0     H 9293   7.533   3.907   0.998  0.0650  0.5648 -1.1527
   69MOL0     H 9294   7.557   3.967   1.164 -3.7488  2.0772  0.1516
   69MOL0     H 9295   7.756   3.976   0.928 -1.1693  1.4368  0.4104
   69MOL0     H 9296   7.765   3.853   1.037  3.5316  0.9152  0.3302
   69MOL0     H 9297   6.811   4.151   1.593 -0.3816 -2.1182 -2.1373
   69MOL0     H 9298   6.601   4.215   1.678  0.8535  1.1267  0.9363
   69MOL0     H 9299   6.313   4.482   1.810  0.0395  0.9567  1.9099
   69MOL0     H 9300   6.104   4.533   1.930  0.7553  2.3433 -0.6407
   69MOL0     H 9301   5.227   5.336   2.557  0.3346  0.5084 -0.1399
   69MOL0     H 9302   5.235   5.340   2.785 -2.7084 -0.2988 -1.2633
   69MOL0     H 9303   5.011   5.561   3.171 -2.4246  2.2956 -0.9456
   69MOL0     H 9304   4.953   5.602   3.394  0.2008 -0.2680 -0.3290
   69MOL0     H 9305   5.251   5.821   3.658  0.6337  2.4303 -3.8093
   69MOL0     H 9306   5.115   5.900   3.582  0.5827 -1.8870 -2.0699
   69MOL0     H 9307   4.960   5.786   3.748 -0.1305  0.9026 -2.0151
   69MOL0     H 9308   5.059   5.919   3.820 -0.1915 -0.9883  0.3209
   69MOL0     H 9309   5.122   5.788   3.981 -2.0331 -1.5587  0.7465
   69MOL0     H 9310   5.242   5.735   3.854  0.6119 -0.8358  1.3294
   69MOL0     H 9311   5.119   5.543   3.804  2.2843  2.9058 -1.4717
   69MOL0     H 9312   4.986   5.583   3.932  1.6833 -4.5313  2.8945
   69MOL0     H 9313   5.286   5.434   4.165  1.6805 -2.5201 -1.5944
   69MOL0     H 9314   5.329   5.799   3.449  2.6492 -1.0695 -2.0314
   69MOL0     H 9315   5.366   5.801   3.208  1.5592 -0.9363 -0.7724
   70MOL0     O 9316   2.660  10.301   7.109 -0.2618 -0.1383 -0.3936
   70MOL0     C 9317   2.726  10.404   7.141  0.3713  0.3596  0.1344
   70MOL0     O 9318   2.809  10.416   7.261  0.5474  0.6149  0.3644
   70MOL0     C 9319   2.830  10.313   7.350 -0.3172  0.2481 -0.5011
   70MOL0     C 9320   2.855  10.185   7.309 -0.3537 -0.7375  0.0463
   70MOL0     C 9321   2.866  10.083   7.401 -0.1839  2.0802 -0.3505
   70MOL0     C 9322   2.869  10.100   7.537  0.2558 -0.6050  0.2660
   70MOL0     O 9323   2.891   9.995   7.620  0.2556  0.1155  0.1282
   70MOL0     C 9324   2.885  10.011   7.762  1.1416 -0.3523 -0.7288
   70MOL0     C 9325   2.925   9.893   7.850  0.6462 -0.1043  0.3011
   70MOL0     C 9326   2.816   9.789   7.844  0.0756  1.0400 -0.1951
   70MOL0     C 9327   2.869   9.642   7.844  1.1126  0.7774  1.1567
   70MOL0     C 9328   2.919   9.605   7.699 -1.5175  0.6377 -0.4699
   70MOL0     C 9329   2.980   9.463   7.699  0.3157  0.7643  0.1867
   70MOL0     C 9330   3.048   9.437   7.558  0.1637 -0.1120 -0.0043
   70MOL0     C 9331   3.134   9.310   7.549  0.6594  0.0721  0.0532
   70MOL0     N 9332   3.053   9.183   7.543  0.1552  0.2676 -0.4311
   70MOL0     C 9333   3.009   9.116   7.650 -0.4578  0.1922 -0.0456
   70MOL0     C 9334   2.948   9.007   7.599  0.2324  0.9992 -0.0304
   70MOL0     C 9335   2.909   8.874   7.680 -0.8440  0.1058 -0.2491
   70MOL0     C 9336   2.755   8.857   7.666  0.3548  0.0359  0.3951
   70MOL0     C 9337   2.700   8.716   7.703 -0.2807 -0.1671 -0.0640
   70MOL0     C 9338   2.670   8.707   7.851  0.1096 -0.7078  0.2630
   70MOL0     O 9339   2.572   8.811   7.890 -0.6160 -0.3130  0.3592
   70MOL0     C 9340   2.435   8.804   7.866 -0.3367  0.5440 -0.3040
   70MOL0     C 9341   2.364   8.919   7.907 -0.2592  0.3240  0.3694
   70MOL0     C 9342   2.224   8.926   7.873 -0.9087  0.3801 -0.3716
   70MOL0     C 9343   2.167   9.057   7.923 -0.2018 -0.3842 -0.1801
   70MOL0     C 9344   2.162   8.818   7.817 -0.1981  0.5587 -0.5446
   70MOL0     C 9345   2.015   8.812   7.795  0.1315 -0.8146 -0.5069
   70MOL0     O 9346   1.966   8.708   7.718 -0.1353  0.7378 -0.4684
   70MOL0     C 9347   1.829   8.691   7.692 -1.1070 -0.3170  0.1775
   70MOL0     C 9348   1.801   8.592   7.597 -0.3927  1.2816 -0.4506
   70MOL0     C 9349   1.672   8.574   7.550  1.2118 -0.4055 -0.2075
   70MOL0     C 9350   1.570   8.653   7.598  0.2640  0.4941  0.0004
   70MOL0     O 9351   1.444   8.610   7.567  0.1999  0.0740 -0.6727
   70MOL0     C 9352   1.330   8.705   7.562 -0.2963 -0.2392 -0.3074
   70MOL0     C 9353   1.369   8.827   7.473 -0.0966 -0.4291 -0.5001
   70MOL0     C 9354   1.252   8.940   7.461 -0.3920  0.4660 -0.2113
   70MOL0     C 9355   1.283   9.038   7.347  0.6863  0.1736 -0.4185
   70MOL0     C 9356   1.171   9.150   7.354 -0.2792 -0.3371 -0.7644
   70MOL0     C 9357   1.222   9.262   7.268  0.1734 -0.5518 -0.3646
   70MOL0     C 9358   1.122   9.380   7.280  0.4646 -0.6864  0.6927
   70MOL0     C 9359   1.114   9.477   7.396  0.5413  0.4767  0.1954
   70MOL0    Cl 9360   0.972   9.597   7.372  0.4087  0.5244  0.0577
   70MOL0     C 9361   1.590   8.752   7.695  0.4891 -0.7601  0.1020
   70MOL0     C 9362   1.725   8.769   7.738 -0.6434 -0.9273 -0.1379
   70MOL0     O 9363   1.946   8.898   7.852  0.3972  0.6371  0.0468
   70MOL0     C 9364   2.239   8.705   7.775 -0.1003  0.0857 -0.6565
   70MOL0     C 9365   2.376   8.703   7.801 -0.3444  0.6395  0.8139
   70MOL0     N 9366   2.943   9.013   7.459 -0.3841  0.4051  0.5444
   70MOL0     N 9367   2.993   9.129   7.432  0.0167 -1.0936 -0.2928
   70MOL0     C 9368   2.836  10.222   7.586  0.2837 -0.4056  0.7190
   70MOL0     C 9369   2.821  10.331   7.489 -1.1981 -0.6324  0.0841
   70MOL0     C 9370   2.719  10.521   7.059  0.5143  0.9475 -0.0988
   70MOL0     C 9371   2.822  10.620   7.056  0.0359  0.0358  0.3242
   70MOL0     C 9372   2.822  10.723   6.957 -0.1498  0.1260  0.2701
   70MOL0     C 9373   2.716  10.729   6.858  0.6344 -0.9722 -0.9414
   70MOL0     O 9374   2.730  10.829   6.760  0.2835  0.7570  0.0121
   70MOL0     C 9375   2.664  10.809   6.629  0.8488 -0.1741 -0.2197
   70MOL0     C 9376   2.714  10.918   6.529  0.1726 -0.4172  0.0418
   70MOL0     C 9377   2.714  11.070   6.581 -0.6349  0.3826 -1.0745
   70MOL0     C 9378   2.779  11.163   6.480 -0.0750  0.4652 -0.4836
   70MOL0     C 9379   2.704  11.170   6.355  0.0171 -0.0408  0.3855
   70MOL0     C 9380   2.660  11.189   6.246  0.0592  0.9280 -0.0095
   70MOL0     C 9381   2.626  10.626   6.857 -0.6117 -0.0729  0.5984
   70MOL0     C 9382   2.621  10.529   6.958 -0.3240  0.1268  0.2116
   70MOL0     H 9383   2.871  10.176   7.202 -3.0173  0.5864 -0.5475
   70MOL0     H 9384   2.892   9.986   7.359 -3.7303  1.1735 -0.7457
   70MOL0     H 9385   2.941  10.097   7.799 -0.4205 -1.2598  4.5149
   70MOL0     H 9386   2.782  10.032   7.790  0.6497 -1.5360 -1.5474
   70MOL0     H 9387   3.025   9.859   7.823  0.3648 -1.2790  0.6852
   70MOL0     H 9388   2.932   9.924   7.955 -0.9567  0.8638  0.1573
   70MOL0     H 9389   2.749   9.790   7.931  0.2143 -1.6476  0.0371
   70MOL0     H 9390   2.770   9.788   7.745  4.9705 -1.6287 -2.8043
   70MOL0     H 9391   2.956   9.642   7.910  1.3941  0.5927  0.7881
   70MOL0     H 9392   2.801   9.566   7.885  3.8759 -2.0181  0.9294
   70MOL0     H 9393   2.844   9.608   7.620 -0.3382 -0.2211 -1.6602
   70MOL0     H 9394   3.000   9.675   7.676 -1.8687  0.4123 -2.5252
   70MOL0     H 9395   3.047   9.452   7.785 -0.1418 -2.5351  0.2395
   70MOL0     H 9396   2.904   9.386   7.714  1.2229 -0.2845 -0.3763
   70MOL0     H 9397   2.978   9.447   7.474  1.1877 -0.8312 -0.9735
   70MOL0     H 9398   3.116   9.522   7.556  0.0490 -0.0273 -0.6452
   70MOL0     H 9399   3.185   9.312   7.646 -2.1583  1.1955  1.6344
   70MOL0     H 9400   3.212   9.326   7.474 -0.4573 -2.1267 -1.6931
   70MOL0     H 9401   3.030   9.131   7.755 -1.0953  0.4239  0.0575
   70MOL0     H 9402   2.957   8.791   7.629 -1.7003 -0.6423  0.1324
   70MOL0     H 9403   2.941   8.885   7.784 -2.9263 -1.1644  0.5901
   70MOL0     H 9404   2.736   8.875   7.560 -3.9216 -2.4141  0.5232
   70MOL0     H 9405   2.700   8.935   7.718  1.7548 -0.2284  2.3848
   70MOL0     H 9406   2.777   8.641   7.682  0.1628  0.4252 -0.5974
   70MOL0     H 9407   2.609   8.695   7.647 -0.2907  1.0843 -0.5473
   70MOL0     H 9408   2.768   8.721   7.898  0.0882 -1.8079  0.6574
   70MOL0     H 9409   2.642   8.604   7.875  1.8482 -0.6153  3.2115
   70MOL0     H 9410   2.419   8.994   7.963 -0.2869  2.1039 -1.8059
   70MOL0     H 9411   2.100   9.050   8.009  1.6321 -1.4935  1.2344
   70MOL0     H 9412   2.251   9.122   7.950  1.1406 -2.2700  0.3680
   70MOL0     H 9413   2.113   9.119   7.850  0.5124 -2.1049 -2.2820
   70MOL0     H 9414   1.872   8.527   7.548 -0.9056  0.8901 -0.6764
   70MOL0     H 9415   1.631   8.486   7.502 -3.4828 -0.9750  4.0332
   70MOL0     H 9416   1.239   8.660   7.521 -0.0658 -0.1120 -0.9710
   70MOL0     H 9417   1.296   8.732   7.662  0.4464  0.9779 -0.3607
   70MOL0     H 9418   1.456   8.881   7.512 -1.0169  0.5829  0.2351
   70MOL0     H 9419   1.401   8.791   7.375  2.5151  2.4833 -0.8708
   70MOL0     H 9420   1.242   8.977   7.564  0.6264 -0.5121  0.2572
   70MOL0     H 9421   1.154   8.900   7.433 -0.8832 -0.6470  2.7196
   70MOL0     H 9422   1.382   9.082   7.363  0.4877 -0.0242  1.6505
   70MOL0     H 9423   1.281   8.984   7.252 -2.5986 -1.1628  0.2719
   70MOL0     H 9424   1.158   9.187   7.456 -0.6881 -1.5875 -0.3384
   70MOL0     H 9425   1.078   9.118   7.306 -1.0482  1.8319 -0.8457
   70MOL0     H 9426   1.320   9.296   7.301 -0.7834  1.7481  0.3173
   70MOL0     H 9427   1.224   9.226   7.164 -2.5356 -2.2324  0.0486
   70MOL0     H 9428   1.021   9.344   7.260  0.7653 -0.7429 -0.9261
   70MOL0     H 9429   1.125   9.444   7.191 -3.2925 -2.0567 -0.6076
   70MOL0     H 9430   1.209   9.528   7.417 -0.1232  1.5784  0.6222
   70MOL0     H 9431   1.094   9.424   7.490 -2.6800  0.9840 -0.0942
   70MOL0     H 9432   1.514   8.806   7.749  0.9428  1.0664 -0.9857
   70MOL0     H 9433   1.739   8.840   7.818  1.6165  0.3273 -1.5353
   70MOL0     H 9434   2.196   8.638   7.701 -0.4046  0.3480 -0.7199
   70MOL0     H 9435   2.428   8.610   7.782 -2.9185 -0.5105 -1.4246
   70MOL0     H 9436   2.813  10.242   7.690  1.5253 -0.4685  1.0190
   70MOL0     H 9437   2.812  10.431   7.532  2.0797 -1.1655  2.4652
   70MOL0     H 9438   2.902  10.617   7.130  2.2790 -0.5807 -1.9808
   70MOL0     H 9439   2.899  10.799   6.965 -0.8297  0.7139  1.3769
   70MOL0     H 9440   2.675  10.711   6.584 -1.6530 -0.9334  0.6455
   70MOL0     H 9441   2.555  10.821   6.636  0.8949  1.6839 -1.9087
   70MOL0     H 9442   2.644  10.911   6.444  1.1057 -2.1186 -0.6314
   70MOL0     H 9443   2.816  10.900   6.492  1.7112  0.4363  3.5322
   70MOL0     H 9444   2.775  11.074   6.671 -1.4766 -3.4811 -0.1611
   70MOL0     H 9445   2.608  11.092   6.592 -1.0151 -1.5186 -0.6848
   70MOL0     H 9446   2.879  11.128   6.453  0.9795  1.9552  1.2362
   70MOL0     H 9447   2.798  11.251   6.542  3.4430 -0.6826  0.2783
   70MOL0     H 9448   2.623  11.201   6.146 -1.9060 -1.9229  0.2464
   70MOL0     H 9449   2.547  10.632   6.782  0.9313  1.0046 -1.0095
   70MOL0     H 9450   2.539  10.460   6.940 -0.8644  1.3820 -2.6400
   71MOL0     O 9451   6.110   9.303   8.128 -0.1263 -0.0479 -0.9631
   71MOL0     C 9452   6.033   9.314   8.040  0.2632 -0.0631 -0.6369
   71MOL0     O 9453   5.958   9.214   7.976  1.6091 -1.2311 -0.1573
   71MOL0     C 9454   5.973   9.080   8.009  0.6108  0.1249  0.5188
   71MOL0     C 9455   5.866   8.987   7.977  0.1666 -0.4393  0.1876
   71MOL0     C 9456   5.872   8.852   8.010 -0.2356 -0.8579 -0.5382
   71MOL0     C 9457   5.991   8.804   8.053 -0.2817  0.3058 -1.1483
   71MOL0     O 9458   6.005   8.674   8.044 -0.0797  0.0731  0.3764
   71MOL0     C 9459   5.927   8.593   8.136  0.0837 -0.3325  1.1200
   71MOL0     C 9460   5.884   8.468   8.056  0.0829  0.0952 -0.3851
   71MOL0     C 9461   5.779   8.392   8.136  0.0640 -0.2601 -0.4990
   71MOL0     C 9462   5.761   8.254   8.083  0.1586 -0.8922 -0.4012
   71MOL0     C 9463   5.842   8.151   8.159  0.8236  1.0698  1.0298
   71MOL0     C 9464   5.823   8.010   8.101 -0.1582  0.8341  0.3329
   71MOL0     C 9465   5.868   7.998   7.952  0.9643  0.4188 -0.5021
   71MOL0     C 9466   5.885   7.865   7.895 -0.1866  0.3357  0.3414
   71MOL0     N 9467   5.764   7.779   7.899 -0.3175 -0.3741  0.1174
   71MOL0     C 9468   5.668   7.751   7.801  0.4419 -1.8188 -0.1841
   71MOL0     C 9469   5.567   7.676   7.857 -0.8284 -0.8659  0.1672
   71MOL0     C 9470   5.444   7.614   7.785 -0.3352  0.0579 -0.9837
   71MOL0     C 9471   5.328   7.562   7.879  0.5495  0.8289  0.3491
   71MOL0     C 9472   5.263   7.665   7.977  0.4331  0.8460  0.0026
   71MOL0     C 9473   5.186   7.772   7.914  0.3659  0.6244  0.5439
   71MOL0     O 9474   5.272   7.872   7.864  0.3968 -0.2785 -0.1891
   71MOL0     C 9475   5.225   7.994   7.808 -0.4577 -0.6738  0.5756
   71MOL0     C 9476   5.095   8.041   7.805  0.2250 -0.2120  0.7373
   71MOL0     C 9477   5.052   8.150   7.725  0.6692 -0.0923  0.2835
   71MOL0     C 9478   4.896   8.176   7.719  0.5726  0.6041 -0.1755
   71MOL0     C 9479   5.157   8.221   7.653 -0.3963 -0.4181  0.0993
   71MOL0     C 9480   5.129   8.342   7.566 -0.0581  0.2792  0.8565
   71MOL0     O 9481   5.232   8.390   7.492  0.3477  0.4277 -0.4217
   71MOL0     C 9482   5.212   8.504   7.411  0.9274 -0.3446 -0.0337
   71MOL0     C 9483   5.149   8.484   7.289 -0.7674  1.2169 -0.0511
   71MOL0     C 9484   5.141   8.596   7.200  0.1097  0.4957 -1.0515
   71MOL0     C 9485   5.189   8.729   7.238  0.7256 -0.4294  0.1864
   71MOL0     O 9486   5.169   8.841   7.152 -0.0830 -0.0156  0.8849
   71MOL0     C 9487   5.096   8.826   7.034 -0.2059  0.3896 -0.5453
   71MOL0     C 9488   5.058   8.952   6.958 -0.1314  0.4409 -0.0100
   71MOL0     C 9489   4.968   8.907   6.835 -0.2826 -0.8609  0.6054
   71MOL0     C 9490   4.944   9.041   6.752 -0.2391  0.0645 -0.4046
   71MOL0     C 9491   4.874   9.027   6.617 -0.1549  0.2039  0.4315
   71MOL0     C 9492   4.741   8.947   6.637 -0.4090 -0.6972 -0.8041
   71MOL0     C 9493   4.656   8.952   6.509  0.0638  0.1026  0.3936
   71MOL0     C 9494   4.513   8.886   6.507  0.5269 -0.4573  0.0992
   71MOL0    Cl 9495   4.516   8.724   6.593 -0.1461 -0.3280  0.1326
   71MOL0     C 9496   5.244   8.746   7.368  0.3747 -0.6298  0.0646
   71MOL0     C 9497   5.252   8.636   7.453 -0.5809 -0.5721 -0.0129
   71MOL0     O 9498   5.024   8.399   7.582 -0.0686  0.9087  0.0051
   71MOL0     C 9499   5.295   8.181   7.675  0.5585 -0.2615 -1.2378
   71MOL0     C 9500   5.320   8.064   7.743 -0.1112  0.0792 -0.5856
   71MOL0     N 9501   5.595   7.677   7.994  0.5321 -0.0107 -0.1578
   71MOL0     N 9502   5.702   7.739   8.014  0.3136  0.6128 -0.3487
   71MOL0     C 9503   6.094   8.885   8.086 -0.8365  0.0904 -0.2661
   71MOL0     C 9504   6.083   9.021   8.072  0.1086  0.5985  0.2579
   71MOL0     C 9505   6.013   9.450   7.981 -0.3999 -0.0349  0.3255
   71MOL0     C 9506   5.912   9.475   7.884  0.6842 -0.7605  0.9165
   71MOL0     C 9507   5.891   9.605   7.833 -0.5484  0.5607 -0.2727
   71MOL0     C 9508   5.966   9.711   7.884  0.0952  0.1746  0.9766
   71MOL0     O 9509   5.936   9.842   7.844  0.1126  0.6143 -0.3011
   71MOL0     C 9510   5.998   9.955   7.904 -0.7456  0.3625  0.0927
   71MOL0     C 9511   6.131   9.998   7.836  0.6520 -0.0188  0.9189
   71MOL0     C 9512   6.119  10.051   7.689  0.1750  0.0088 -0.2637
   71MOL0     C 9513   6.261  10.110   7.646  1.0722  0.3251 -0.6029
   71MOL0     C 9514   6.289  10.243   7.692  0.3692 -0.1304 -0.9356
   71MOL0     C 9515   6.293  10.357   7.735  0.7264 -0.3213  0.6018
   71MOL0     C 9516   6.079   9.684   7.967  0.8277  0.2536  0.4322
   71MOL0     C 9517   6.102   9.557   8.011  1.0748  0.3022 -0.2783
   71MOL0     H 9518   5.767   9.018   7.943 -1.2021 -3.7757  0.7697
   71MOL0     H 9519   5.786   8.785   8.008 -1.9370  0.6919  4.7485
   71MOL0     H 9520   5.992   8.543   8.209  1.4297 -2.0312 -1.0771
   71MOL0     H 9521   5.836   8.635   8.180 -2.0412 -4.6736  1.4997
   71MOL0     H 9522   5.843   8.500   7.960 -2.6935 -1.4161  0.1867
   71MOL0     H 9523   5.975   8.409   8.038  1.0010  0.9847  1.1517
   71MOL0     H 9524   5.815   8.395   8.239  0.7206  2.8705 -0.7209
   71MOL0     H 9525   5.681   8.442   8.133  0.8394  1.2607 -1.5303
   71MOL0     H 9526   5.656   8.226   8.098 -0.0061 -1.8239 -2.8979
   71MOL0     H 9527   5.776   8.258   7.975 -0.2359  1.6682 -0.4145
   71MOL0     H 9528   5.949   8.175   8.157  1.6152 -2.1147 -0.0675
   71MOL0     H 9529   5.810   8.161   8.264 -0.2766  1.2002  0.6970
   71MOL0     H 9530   5.882   7.930   8.146 -2.4686 -0.2188  1.7070
   71MOL0     H 9531   5.718   7.979   8.099  0.7269 -2.5724  0.1599
   71MOL0     H 9532   5.790   8.048   7.893  0.5341 -1.2293 -1.3928
   71MOL0     H 9533   5.947   8.072   7.939  1.0067  0.1152 -2.2047
   71MOL0     H 9534   5.966   7.810   7.943 -0.4900 -0.1834  0.2689
   71MOL0     H 9535   5.907   7.866   7.788 -0.4953 -2.9188  0.1483
   71MOL0     H 9536   5.673   7.786   7.698  1.4920  2.6454  1.1735
   71MOL0     H 9537   5.414   7.702   7.726 -4.0628 -0.6577 -0.3639
   71MOL0     H 9538   5.475   7.526   7.727 -3.5152 -2.7325  1.2119
   71MOL0     H 9539   5.367   7.480   7.940 -2.1295 -1.6821 -1.0351
   71MOL0     H 9540   5.251   7.514   7.818  1.0357 -1.0016  1.1222
   71MOL0     H 9541   5.334   7.704   8.051 -1.8713  1.4887  2.0128
   71MOL0     H 9542   5.181   7.617   8.032  0.0919  1.4209  0.0025
   71MOL0     H 9543   5.124   7.827   7.986 -0.3251  1.7722 -0.8675
   71MOL0     H 9544   5.101   7.737   7.856 -0.0360  2.0035  0.2696
   71MOL0     H 9545   5.024   7.991   7.871 -0.1663 -0.6962 -0.0335
   71MOL0     H 9546   4.832   8.088   7.733  0.6985  0.7526  1.5194
   71MOL0     H 9547   4.879   8.231   7.811  0.5967 -0.9970  0.8354
   71MOL0     H 9548   4.860   8.219   7.625 -4.2717  0.1530  1.1805
   71MOL0     H 9549   5.113   8.388   7.252 -1.2690  1.8528 -1.2656
   71MOL0     H 9550   5.088   8.566   7.110 -4.2203 -0.7177  1.6081
   71MOL0     H 9551   5.134   8.757   6.957 -2.8722  1.1780 -2.7518
   71MOL0     H 9552   5.006   8.771   7.064 -0.4803 -0.9150 -3.3979
   71MOL0     H 9553   4.985   9.014   7.010 -0.2750 -1.4346  2.1683
   71MOL0     H 9554   5.143   9.010   6.918 -0.5519  1.0274 -0.0726
   71MOL0     H 9555   4.867   8.881   6.866 -1.9866  2.6601 -1.2954
   71MOL0     H 9556   5.010   8.823   6.779  0.4117  2.0353 -3.7050
   71MOL0     H 9557   4.877   9.109   6.807 -0.8568 -1.0536  0.2619
   71MOL0     H 9558   5.041   9.088   6.734 -0.5201  0.0729 -2.0353
   71MOL0     H 9559   4.925   8.967   6.541 -2.3589  1.8557 -2.5821
   71MOL0     H 9560   4.861   9.127   6.573 -1.5533  0.2384  0.8649
   71MOL0     H 9561   4.770   8.843   6.653  1.2543 -0.2540 -0.7111
   71MOL0     H 9562   4.684   8.988   6.720 -0.0764 -2.9375  0.6225
   71MOL0     H 9563   4.715   8.902   6.431 -0.4317  1.4430 -0.8857
   71MOL0     H 9564   4.636   9.055   6.481 -1.5351 -0.0347  0.9447
   71MOL0     H 9565   4.495   8.863   6.401  2.4801  2.2458 -0.9265
   71MOL0     H 9566   4.446   8.957   6.554 -0.0696  0.1428 -1.5709
   71MOL0     H 9567   5.287   8.841   7.398  0.9072 -1.2107  1.2108
   71MOL0     H 9568   5.294   8.647   7.552  0.5425 -3.7960  0.0072
   71MOL0     H 9569   5.380   8.229   7.627  1.1395  1.8621  1.6211
   71MOL0     H 9570   5.415   8.012   7.748 -0.5627 -0.7189 -0.0045
   71MOL0     H 9571   6.180   8.828   8.120 -1.7897 -1.2775 -0.0897
   71MOL0     H 9572   6.174   9.076   8.089  1.0469 -0.9895  0.5997
   71MOL0     H 9573   5.834   9.406   7.854  0.1441  1.2873 -2.9145
   71MOL0     H 9574   5.808   9.628   7.767  0.7517  1.0391 -1.7916
   71MOL0     H 9575   5.923  10.034   7.887 -1.7320 -0.0612  2.1396
   71MOL0     H 9576   6.018   9.954   8.012  2.6165 -0.0681 -0.4461
   71MOL0     H 9577   6.189   9.905   7.835  1.5452  0.4898  2.3630
   71MOL0     H 9578   6.186  10.070   7.897 -1.3149  1.2918  1.2019
   71MOL0     H 9579   6.044  10.130   7.692 -0.9762 -1.0374  2.6570
   71MOL0     H 9580   6.079   9.969   7.629 -3.7432  1.5412 -0.0579
   71MOL0     H 9581   6.251  10.113   7.537  3.0726  1.6382 -0.8008
   71MOL0     H 9582   6.335  10.030   7.660 -2.1724 -2.8024  0.3717
   71MOL0     H 9583   6.291  10.450   7.788  0.0607  0.0481 -0.0722
   71MOL0     H 9584   6.141   9.771   7.984 -0.1115  0.8288  0.9695
   71MOL0     H 9585   6.184   9.522   8.073  2.7003 -0.7468 -2.8621
   72MOL0     O 9586   1.557   1.304   0.256  0.2343  0.4073  0.2409
   72MOL0     C 9587   1.499   1.405   0.302  0.3442  0.8901  0.8017
   72MOL0     O 9588   1.369   1.417   0.335 -0.0824  0.0217 -0.6700
   72MOL0     C 9589   1.277   1.320   0.320  0.8836 -0.2608  0.7319
   72MOL0     C 9590   1.141   1.366   0.282 -0.1481 -0.6522  0.0888
   72MOL0     C 9591   1.035   1.287   0.292  0.9752  0.5548 -0.6569
   72MOL0     C 9592   1.047   1.144   0.317 -0.9496  0.5321  1.0271
   72MOL0     O 9593   0.940   1.057   0.333  0.6140 -0.3058 -0.4837
   72MOL0     C 9594   0.949   0.909   0.341 -0.0610 -0.8562 -0.5103
   72MOL0     C 9595   0.818   0.856   0.397  0.4647 -0.3776  0.3373
   72MOL0     C 9596   0.714   0.884   0.285  0.3685 -0.0187 -0.0501
   72MOL0     C 9597   0.571   0.813   0.312 -1.0957 -0.4088 -0.1717
   72MOL0     C 9598   0.577   0.670   0.383  1.0684  0.2256  0.6148
   72MOL0     C 9599   0.649   0.563   0.310  0.3890 -0.1924 -0.4144
   72MOL0     C 9600   0.674   0.450   0.401 -0.0529  0.3266 -1.1199
   72MOL0     C 9601   0.707   0.323   0.322 -0.1664 -0.0195 -0.7234
   72MOL0     N 9602   0.824   0.256   0.383  0.4619 -0.1210  0.6755
   72MOL0     C 9603   0.948   0.314   0.377  0.0775  0.1819 -1.0898
   72MOL0     C 9604   1.021   0.233   0.451  0.6560  0.5668 -0.4777
   72MOL0     C 9605   1.170   0.231   0.482 -0.0479 -0.6557  0.2843
   72MOL0     C 9606   1.250   0.127   0.400 -0.3263 -0.8186 -0.1004
   72MOL0     C 9607   1.403   0.143   0.427  0.6608  0.9605 -0.9223
   72MOL0     C 9608   1.481   0.060   0.330  0.0686  0.2569  0.0851
   72MOL0     O 9609   1.619   0.076   0.354  0.0040 -0.7005 -0.6485
   72MOL0     C 9610   1.700   0.098   0.246 -0.3547  0.5702  0.4810
   72MOL0     C 9611   1.806   0.180   0.260  0.2361 -0.1985  0.1605
   72MOL0     C 9612   1.891   0.206   0.160 -0.6789 -0.0939 -0.4215
   72MOL0     C 9613   2.000   0.295   0.202  0.2799  0.3746 -0.4119
   72MOL0     C 9614   1.873   0.148   0.031 -0.3155  1.9665  0.2647
   72MOL0     C 9615   1.948   0.177  -0.093 -0.2522 -0.0098 -0.5264
   72MOL0     O 9616   1.945   0.090  -0.195  0.5685  0.9133  0.0578
   72MOL0     C 9617   2.009   0.123  -0.310  0.6618 -1.1309 -0.3570
   72MOL0     C 9618   2.143   0.098  -0.319  0.6803 -0.1521  0.1603
   72MOL0     C 9619   2.207   0.118  -0.444 -0.6894 -0.2674 -0.7205
   72MOL0     C 9620   2.127   0.157  -0.550 -0.0707 -0.0294 -0.1108
   72MOL0     O 9621   2.162   0.180  -0.680 -0.1372 -0.9582  0.3737
   72MOL0     C 9622   2.281   0.138  -0.733 -0.6143 -0.0371  0.7360
   72MOL0     C 9623   2.270  -0.005  -0.767 -0.5588  0.4021  0.6503
   72MOL0     C 9624   2.350  -0.098  -0.669 -0.1454  1.0210  0.6542
   72MOL0     C 9625   2.390  -0.233  -0.739 -0.2665  1.0368 -0.3440
   72MOL0     C 9626   2.473  -0.317  -0.647 -0.0233  1.0958  0.2999
   72MOL0     C 9627   2.527  -0.450  -0.700  0.7240  0.5795  0.1162
   72MOL0     C 9628   2.609  -0.522  -0.599 -0.6487 -0.3960 -0.1425
   72MOL0     C 9629   2.735  -0.444  -0.563  0.2156  0.4920 -0.6623
   72MOL0    Cl 9630   2.843  -0.549  -0.472  0.1992 -0.3548 -0.3570
   72MOL0     C 9631   1.994   0.188  -0.543  1.2265  0.1357 -0.3125
   72MOL0     C 9632   1.932   0.166  -0.417 -0.0779 -0.2436  0.2066
   72MOL0     O 9633   2.025   0.272  -0.094 -0.9713  0.2874  0.4235
   72MOL0     C 9634   1.756   0.064   0.013 -0.0725 -0.0683 -0.7757
   72MOL0     C 9635   1.671   0.037   0.126  0.1634 -0.1617 -0.5588
   72MOL0     N 9636   0.944   0.116   0.485 -0.4510  0.2218 -0.1742
   72MOL0     N 9637   0.821   0.135   0.449  0.0941 -1.2533  0.0116
   72MOL0     C 9638   1.179   1.097   0.330  0.8833 -0.0217  0.0771
   72MOL0     C 9639   1.292   1.184   0.327 -0.1933  0.5563 -0.1426
   72MOL0     C 9640   1.581   1.522   0.310  0.7478 -0.6256 -0.8008
   72MOL0     C 9641   1.522   1.651   0.332 -0.2054  0.5556 -0.2507
   72MOL0     C 9642   1.604   1.765   0.334  0.4651  0.9434  0.4775
   72MOL0     C 9643   1.738   1.754   0.319  0.4319  0.2390  0.2752
   72MOL0     O 9644   1.825   1.860   0.313 -0.2984  0.9033 -0.4106
   72MOL0     C 9645   1.791   1.996   0.333  0.2149  0.6237 -0.0185
   72MOL0     C 9646   1.899   2.092   0.287  0.3603  0.1686  0.2961
   72MOL0     C 9647   1.856   2.241   0.280  0.8226 -0.1804 -0.0667
   72MOL0     C 9648   1.770   2.274   0.164 -0.2772 -0.5080  0.2769
   72MOL0     C 9649   1.839   2.263   0.033  0.6548 -0.3833  0.9741
   72MOL0     C 9650   1.883   2.237  -0.078 -0.9443 -0.3461 -0.1961
   72MOL0     C 9651   1.797   1.627   0.325 -0.9349 -1.2372 -0.1927
   72MOL0     C 9652   1.724   1.517   0.311  0.0353 -0.5165  0.5095
   72MOL0     H 9653   1.123   1.472   0.266  1.4848  0.1851  3.0625
   72MOL0     H 9654   0.932   1.320   0.286  0.1521 -1.4624  1.1144
   72MOL0     H 9655   0.972   0.867   0.243 -2.1393 -5.3558  0.6725
   72MOL0     H 9656   1.021   0.878   0.417  0.1164  2.2506  0.7261
   72MOL0     H 9657   0.832   0.748   0.392  0.6829 -0.2893 -1.8107
   72MOL0     H 9658   0.773   0.878   0.494  0.1254  0.6831 -0.0408
   72MOL0     H 9659   0.701   0.991   0.270 -2.6930  0.2062  3.0413
   72MOL0     H 9660   0.751   0.845   0.190  0.0972 -3.9335  1.2627
   72MOL0     H 9661   0.514   0.885   0.371 -0.7351  0.5375 -0.9460
   72MOL0     H 9662   0.508   0.816   0.222  0.4816  2.2760 -1.3067
   72MOL0     H 9663   0.632   0.677   0.478 -1.0249  0.5371  1.8484
   72MOL0     H 9664   0.475   0.632   0.394  0.2076  0.6242 -3.9218
   72MOL0     H 9665   0.598   0.530   0.220  1.7503  0.6566 -1.5437
   72MOL0     H 9666   0.741   0.599   0.262 -0.4143  0.6432 -1.3761
   72MOL0     H 9667   0.755   0.476   0.471 -3.4666  2.5607  2.3844
   72MOL0     H 9668   0.584   0.430   0.460  2.0222 -1.4310  1.7256
   72MOL0     H 9669   0.734   0.347   0.219  2.5693 -0.9879 -0.3296
   72MOL0     H 9670   0.614   0.264   0.315 -1.0387  1.0361  1.1383
   72MOL0     H 9671   0.967   0.408   0.326 -2.2650  1.1127 -0.3797
   72MOL0     H 9672   1.205   0.333   0.463 -1.7316  0.3103  2.0011
   72MOL0     H 9673   1.172   0.218   0.591 -1.0545 -1.5316  0.2115
   72MOL0     H 9674   1.239   0.139   0.291  5.6038 -0.1236 -0.9378
   72MOL0     H 9675   1.220   0.024   0.422  1.7944 -1.4003  0.2473
   72MOL0     H 9676   1.416   0.088   0.520 -1.0896 -1.5657 -2.0541
   72MOL0     H 9677   1.434   0.248   0.432 -1.1080  1.4472  0.9186
   72MOL0     H 9678   1.455   0.092   0.229 -2.9718 -0.4969  0.5202
   72MOL0     H 9679   1.451  -0.045   0.331  0.0053  0.2512 -1.1536
   72MOL0     H 9680   1.819   0.237   0.351  1.5066  1.5026 -1.0355
   72MOL0     H 9681   2.005   0.291   0.311 -0.5493 -2.2687 -0.3949
   72MOL0     H 9682   2.096   0.253   0.171  2.4633  1.6486  3.8277
   72MOL0     H 9683   1.997   0.393   0.153 -0.1159 -0.7279 -2.7777
   72MOL0     H 9684   2.191   0.060  -0.230  0.5766  1.8039  1.1230
   72MOL0     H 9685   2.311   0.100  -0.465  0.1352 -1.0256  3.2717
   72MOL0     H 9686   2.287   0.198  -0.824 -3.4937 -0.3369  0.2455
   72MOL0     H 9687   2.360   0.178  -0.669 -2.6301  4.7678  0.7021
   72MOL0     H 9688   2.165  -0.036  -0.767 -0.2231 -0.7568  1.0897
   72MOL0     H 9689   2.296  -0.013  -0.873  0.4509 -0.4538  0.9427
   72MOL0     H 9690   2.290  -0.114  -0.579  2.5862 -5.7067  1.9018
   72MOL0     H 9691   2.440  -0.041  -0.645 -1.5723  1.9144  4.6355
   72MOL0     H 9692   2.299  -0.283  -0.772 -0.7875  2.5416 -1.2813
   72MOL0     H 9693   2.445  -0.213  -0.831  0.1102  0.2078 -0.3068
   72MOL0     H 9694   2.439  -0.332  -0.544  3.1677 -2.0093  1.0921
   72MOL0     H 9695   2.555  -0.246  -0.639  1.7848 -0.6628 -1.5812
   72MOL0     H 9696   2.440  -0.512  -0.725  0.5908  0.5163  0.7243
   72MOL0     H 9697   2.588  -0.448  -0.790 -0.2057 -1.9316 -0.6412
   72MOL0     H 9698   2.640  -0.619  -0.638  1.4727 -0.9285  2.6090
   72MOL0     H 9699   2.551  -0.542  -0.509 -1.7555  1.0733 -0.4849
   72MOL0     H 9700   2.723  -0.363  -0.491  0.7939 -0.2617  0.3183
   72MOL0     H 9701   2.780  -0.416  -0.658  2.8082 -1.6113 -0.1889
   72MOL0     H 9702   1.937   0.216  -0.631 -0.8638 -2.9166 -0.1098
   72MOL0     H 9703   1.828   0.190  -0.393 -0.8099 -2.5955 -0.3665
   72MOL0     H 9704   1.743   0.026  -0.087 -1.1330  1.5849 -1.3084
   72MOL0     H 9705   1.595  -0.040   0.114 -3.0139  2.5013  0.9975
   72MOL0     H 9706   1.199   0.995   0.360 -0.3808 -0.0351  0.9666
   72MOL0     H 9707   1.386   1.135   0.352 -0.3761  0.5551  0.5785
   72MOL0     H 9708   1.415   1.657   0.318 -0.1910  1.2032 -0.0669
   72MOL0     H 9709   1.548   1.858   0.346  1.1058  1.6156 -1.3906
   72MOL0     H 9710   1.695   2.010   0.282  0.6964  3.2573 -0.3634
   72MOL0     H 9711   1.770   2.020   0.438  1.2855  1.3414  0.0553
   72MOL0     H 9712   1.943   2.059   0.192  1.4080  0.7624  0.5527
   72MOL0     H 9713   1.977   2.080   0.363 -1.5172 -0.0183  2.2943
   72MOL0     H 9714   1.943   2.306   0.271  0.8610 -0.1970  0.1801
   72MOL0     H 9715   1.808   2.279   0.370  1.2083  1.9307 -0.6933
   72MOL0     H 9716   1.726   2.373   0.181  5.2762  1.8197  3.6758
   72MOL0     H 9717   1.685   2.205   0.169  1.3998 -2.8366 -1.2647
   72MOL0     H 9718   1.910   2.213  -0.179 -0.2212  0.2248 -0.1483
   72MOL0     H 9719   1.905   1.623   0.334 -0.9300 -1.2574 -0.2569
   72MOL0     H 9720   1.766   1.421   0.282 -0.1970 -1.2573  2.4533
   73MOL0     O 9721   6.798   3.310   4.990  0.3938 -0.3438  0.2525
   73MOL0     C 9722   6.794   3.390   4.896  0.3094 -0.6622 -0.4101
   73MOL0     O 9723   6.757   3.354   4.775 -0.7472 -0.2961 -0.4656
   73MOL0     C 9724   6.706   3.229   4.755 -0.2979  0.4585  0.4380
   73MOL0     C 9725   6.793   3.120   4.750 -0.5795  1.2228  0.3273
   73MOL0     C 9726   6.741   2.987   4.713 -0.3410  0.4185 -0.1434
   73MOL0     C 9727   6.604   2.965   4.690 -0.0737 -0.4061 -0.4138
   73MOL0     O 9728   6.561   2.840   4.667 -0.7966  0.8194  0.4611
   73MOL0     C 9729   6.432   2.805   4.604 -0.2796  0.3693  0.0598
   73MOL0     C 9730   6.330   2.746   4.715 -0.1514  0.0067  0.9045
   73MOL0     C 9731   6.288   2.871   4.799 -0.7190 -0.4103  1.0512
   73MOL0     C 9732   6.209   2.827   4.923  0.5843  0.0386 -0.7744
   73MOL0     C 9733   6.075   2.764   4.902 -0.6730  0.0286  0.4582
   73MOL0     C 9734   6.006   2.717   5.026 -0.0271  0.0014  0.2628
   73MOL0     C 9735   6.051   2.573   5.067 -0.3353 -0.5278  0.2921
   73MOL0     C 9736   5.985   2.508   5.192 -0.3692  0.1099  1.1380
   73MOL0     N 9737   5.838   2.509   5.189  0.8738 -0.4210  0.4706
   73MOL0     C 9738   5.741   2.450   5.115  0.0802  0.0407  0.3626
   73MOL0     C 9739   5.623   2.506   5.155 -0.4827  1.6727 -0.2345
   73MOL0     C 9740   5.479   2.465   5.117 -0.0170 -0.7214 -0.1488
   73MOL0     C 9741   5.428   2.347   5.183  0.0282  1.2228  0.8515
   73MOL0     C 9742   5.474   2.209   5.139 -0.4347 -0.1329  0.3080
   73MOL0     C 9743   5.414   2.149   5.008  0.4203 -0.3623 -0.3527
   73MOL0     O 9744   5.459   2.226   4.896  0.1597  0.1879  0.2732
   73MOL0     C 9745   5.589   2.202   4.848  0.2558  1.0826 -1.2451
   73MOL0     C 9746   5.632   2.301   4.767 -0.5679 -0.1839  0.8354
   73MOL0     C 9747   5.773   2.311   4.736  0.7727 -0.5371  0.6705
   73MOL0     C 9748   5.809   2.426   4.640  1.0139 -1.2502 -0.2105
   73MOL0     C 9749   5.864   2.215   4.788  0.2584  0.1648 -0.3218
   73MOL0     C 9750   5.995   2.228   4.745 -1.0747 -0.4365 -0.4919
   73MOL0     O 9751   6.059   2.347   4.774 -0.0787 -0.1151  0.2410
   73MOL0     C 9752   6.186   2.355   4.728 -0.0455  0.6236 -0.2822
   73MOL0     C 9753   6.289   2.304   4.803  0.4262 -0.9130  0.2078
   73MOL0     C 9754   6.419   2.339   4.760  0.4495  0.6159  0.3350
   73MOL0     C 9755   6.447   2.399   4.632  0.6025  0.5642  0.0148
   73MOL0     O 9756   6.573   2.436   4.578  1.3957  0.5013 -0.2900
   73MOL0     C 9757   6.694   2.388   4.642  0.1082 -0.6863 -0.2745
   73MOL0     C 9758   6.736   2.487   4.754  0.0215 -0.2886  0.7299
   73MOL0     C 9759   6.883   2.481   4.805  0.1319 -0.7165 -0.3770
   73MOL0     C 9760   6.903   2.613   4.894  0.1601  0.7055  0.6333
   73MOL0     C 9761   6.827   2.618   5.030 -0.1968  0.4688 -0.5321
   73MOL0     C 9762   6.873   2.722   5.132 -0.3823 -0.7686 -0.8718
   73MOL0     C 9763   6.913   2.857   5.081 -0.2088 -0.4200 -0.5302
   73MOL0     C 9764   6.937   2.958   5.199 -0.5435 -0.3113  0.4920
   73MOL0    Cl 9765   7.096   2.958   5.261 -0.3109 -0.3010 -0.5011
   73MOL0     C 9766   6.337   2.440   4.562 -0.2022  0.4366  0.5870
   73MOL0     C 9767   6.208   2.421   4.614  0.1380  0.1066 -0.3068
   73MOL0     O 9768   6.051   2.125   4.710  0.1256  0.3432 -0.6006
   73MOL0     C 9769   5.821   2.110   4.866  0.6848 -0.5941 -0.5360
   73MOL0     C 9770   5.685   2.098   4.895 -0.0490 -0.5367  0.1907
   73MOL0     N 9771   5.645   2.605   5.242  0.7251 -0.4115  0.1931
   73MOL0     N 9772   5.772   2.612   5.252  0.5035 -0.4017  0.3132
   73MOL0     C 9773   6.520   3.083   4.687  0.6046 -0.9448 -0.7843
   73MOL0     C 9774   6.571   3.213   4.721 -0.7003 -0.0053 -0.3059
   73MOL0     C 9775   6.828   3.532   4.931 -0.0706 -0.5416  1.0008
   73MOL0     C 9776   6.789   3.586   5.048  0.1371  0.7800  0.9425
   73MOL0     C 9777   6.826   3.720   5.075  0.0485 -0.4416  0.8114
   73MOL0     C 9778   6.896   3.795   4.992  0.5901 -0.5704  0.3957
   73MOL0     O 9779   6.931   3.926   5.004  0.4794  0.7328 -0.0724
   73MOL0     C 9780   6.890   4.006   5.125 -0.0859  1.2474 -1.1771
   73MOL0     C 9781   6.934   4.154   5.128  0.5222  0.7569 -0.0876
   73MOL0     C 9782   7.082   4.159   5.173  0.1112  0.1949 -0.4145
   73MOL0     C 9783   7.151   4.294   5.152 -0.1251 -1.1130  0.2973
   73MOL0     C 9784   7.179   4.306   5.009 -0.3133 -0.9402  0.1244
   73MOL0     C 9785   7.210   4.323   4.891 -0.4281 -0.2980  0.3638
   73MOL0     C 9786   6.943   3.731   4.877 -0.0259  0.6166  0.2347
   73MOL0     C 9787   6.911   3.607   4.840  0.4343 -0.6228  0.2283
   73MOL0     H 9788   6.898   3.134   4.773 -0.6612  3.3970 -0.4160
   73MOL0     H 9789   6.802   2.901   4.735 -0.9292  0.7675  3.4989
   73MOL0     H 9790   6.390   2.897   4.562 -1.0573  1.7861  3.6370
   73MOL0     H 9791   6.465   2.729   4.531 -0.0847 -1.6826  2.1593
   73MOL0     H 9792   6.237   2.712   4.669  1.0454 -1.5706 -0.4503
   73MOL0     H 9793   6.372   2.669   4.779 -0.4755  0.9076  2.2371
   73MOL0     H 9794   6.378   2.924   4.831  0.9009 -2.4691  0.1295
   73MOL0     H 9795   6.217   2.935   4.746  1.8021  1.4790 -0.2278
   73MOL0     H 9796   6.279   2.766   4.982 -1.7655 -2.7976 -0.6902
   73MOL0     H 9797   6.197   2.918   4.982  1.1360 -0.7216  0.5597
   73MOL0     H 9798   6.014   2.840   4.852 -0.7398  1.4707  2.5794
   73MOL0     H 9799   6.078   2.681   4.831  1.4402  2.7198 -2.8925
   73MOL0     H 9800   6.039   2.785   5.106 -1.1031 -0.1318  0.8390
   73MOL0     H 9801   5.897   2.723   5.018 -0.0340 -0.1340  0.2510
   73MOL0     H 9802   6.034   2.509   4.979 -3.3726  1.9247 -1.1098
   73MOL0     H 9803   6.158   2.578   5.089 -0.8716  0.2681  3.0772
   73MOL0     H 9804   6.031   2.551   5.282  4.7216  0.2546 -1.1979
   73MOL0     H 9805   6.010   2.402   5.188 -3.1526 -0.7185  2.7492
   73MOL0     H 9806   5.751   2.372   5.041 -2.0551 -2.6678  2.7118
   73MOL0     H 9807   5.405   2.542   5.142  1.1470  0.9811 -1.7689
   73MOL0     H 9808   5.466   2.448   5.009  0.9583 -0.6151 -0.2857
   73MOL0     H 9809   5.320   2.345   5.169  0.3984 -1.7172 -3.1591
   73MOL0     H 9810   5.452   2.348   5.290  3.3164  2.3840  0.2190
   73MOL0     H 9811   5.472   2.138   5.222  5.0165 -0.5178  0.4242
   73MOL0     H 9812   5.582   2.215   5.121 -0.7117  1.0956 -1.1504
   73MOL0     H 9813   5.307   2.171   5.004  0.1932 -1.4681 -3.1020
   73MOL0     H 9814   5.427   2.042   4.990  0.8272 -0.1668 -1.2642
   73MOL0     H 9815   5.567   2.377   4.726 -2.1512 -1.0001  1.7513
   73MOL0     H 9816   5.803   2.389   4.537 -1.6959  1.8324 -1.3508
   73MOL0     H 9817   5.735   2.504   4.660 -1.8502 -3.9776  0.6756
   73MOL0     H 9818   5.907   2.472   4.656  1.8502 -1.6458 -3.4946
   73MOL0     H 9819   6.253   2.268   4.899 -2.1815  1.8983  0.4376
   73MOL0     H 9820   6.503   2.308   4.822  0.8890  0.8265 -0.1445
   73MOL0     H 9821   6.673   2.292   4.692 -0.0575 -1.0769 -1.0771
   73MOL0     H 9822   6.768   2.381   4.561  0.6688 -0.2373  0.1918
   73MOL0     H 9823   6.730   2.587   4.711  0.6291 -0.8282 -0.6711
   73MOL0     H 9824   6.671   2.482   4.842  0.7225 -1.0974  1.2272
   73MOL0     H 9825   6.949   2.487   4.718  1.7447  1.9588  0.8911
   73MOL0     H 9826   6.901   2.395   4.869 -1.4259  0.4830  1.8009
   73MOL0     H 9827   7.011   2.627   4.909 -0.1288  2.2845  1.4466
   73MOL0     H 9828   6.872   2.700   4.835 -0.6870 -0.1192 -0.1684
   73MOL0     H 9829   6.832   2.518   5.074 -0.3458  1.0291  0.8132
   73MOL0     H 9830   6.722   2.646   5.014  0.6759  5.0712  0.2666
   73MOL0     H 9831   6.791   2.737   5.202 -0.0699 -0.1112 -0.6376
   73MOL0     H 9832   6.961   2.676   5.179  2.2903  0.6987 -3.9931
   73MOL0     H 9833   6.841   2.896   5.008 -3.4579 -1.4952  1.8835
   73MOL0     H 9834   7.010   2.850   5.030  0.5944 -1.6850  1.0936
   73MOL0     H 9835   6.863   2.935   5.277 -1.9284 -0.2903 -0.7707
   73MOL0     H 9836   6.915   3.055   5.153 -3.5043 -0.4554  1.3516
   73MOL0     H 9837   6.349   2.499   4.472  0.5690  0.8802  0.9731
   73MOL0     H 9838   6.117   2.474   4.586  1.3567  1.9067 -1.0636
   73MOL0     H 9839   5.896   2.041   4.905 -0.7860 -1.1020  1.5516
   73MOL0     H 9840   5.658   2.018   4.963  1.0019 -1.7267 -0.7451
   73MOL0     H 9841   6.412   3.078   4.675 -0.1921 -1.1392  4.2310
   73MOL0     H 9842   6.514   3.305   4.724 -0.1584  0.4629 -2.5249
   73MOL0     H 9843   6.739   3.520   5.119  0.3778 -2.4618 -1.6973
   73MOL0     H 9844   6.797   3.761   5.171  0.2214 -0.5162  0.8951
   73MOL0     H 9845   6.781   4.006   5.123 -0.2297 -0.1504  1.8711
   73MOL0     H 9846   6.920   3.955   5.217 -1.9783  2.4260  0.1523
   73MOL0     H 9847   6.867   4.210   5.193 -0.4716 -0.3557 -0.1244
   73MOL0     H 9848   6.923   4.182   5.023  0.8051  1.4518  0.0665
   73MOL0     H 9849   7.147   4.086   5.124  3.0597  1.1452  1.7902
   73MOL0     H 9850   7.090   4.130   5.278 -0.3428  2.5016  0.3074
   73MOL0     H 9851   7.242   4.299   5.212  0.1294 -4.8041  0.4341
   73MOL0     H 9852   7.079   4.370   5.185  3.4619  3.0533 -0.6669
   73MOL0     H 9853   7.244   4.331   4.790  0.7462 -1.4365  0.6469
   73MOL0     H 9854   6.997   3.790   4.803 -1.6162  1.1171 -0.5650
   73MOL0     H 9855   6.956   3.567   4.749 -2.5393 -1.4586 -0.9711
   74MOL0     O 9856  11.242   4.306   1.740 -0.4649  0.5976 -0.1174
   74MOL0     C 9857  11.234   4.414   1.695 -0.2847 -0.8765 -0.4841
   74MOL0     O 9858  11.308   4.470   1.600  0.1579  0.2646 -0.0165
   74MOL0     C 9859  11.427   4.403   1.565  0.1282 -1.1602 -0.4645
   74MOL0     C 9860  11.544   4.478   1.562 -0.9447 -0.8845 -0.3304
   74MOL0     C 9861  11.663   4.438   1.508 -0.3398  0.8648  0.3741
   74MOL0     C 9862  11.665   4.308   1.457 -0.2713 -0.0766  0.2981
   74MOL0     O 9863  11.779   4.248   1.401 -0.5821  0.2321 -0.6986
   74MOL0     C 9864  11.885   4.335   1.338 -0.5633  0.1884  0.0306
   74MOL0     C 9865  11.965   4.244   1.240 -0.8958  0.7753  0.6285
   74MOL0     C 9866  12.108   4.233   1.290  1.0025 -1.1052  0.0910
   74MOL0     C 9867  12.123   4.126   1.403 -0.8046 -0.2029  0.1704
   74MOL0     C 9868  12.275   4.101   1.441  0.9028 -0.9246  0.5662
   74MOL0     C 9869  12.346   3.983   1.366 -0.0222 -0.2978  0.2234
   74MOL0     C 9870  12.485   3.967   1.425  0.3524  0.4578  0.3953
   74MOL0     C 9871  12.487   3.901   1.563  0.6709  0.2325 -0.0015
   74MOL0     N 9872  12.622   3.868   1.620  0.0440 -0.2961  0.2724
   74MOL0     C 9873  12.742   3.935   1.582  0.3070  1.2239 -0.1502
   74MOL0     C 9874  12.838   3.840   1.603  0.2537  0.0065 -0.0969
   74MOL0     C 9875  12.985   3.860   1.556  0.5694  1.2358 -0.1497
   74MOL0     C 9876  13.078   3.944   1.645  0.3936 -0.5859 -1.2936
   74MOL0     C 9877  13.150   3.863   1.741  0.2006 -0.0202 -0.8509
   74MOL0     C 9878  13.055   3.768   1.822 -0.3047  0.0770  0.3734
   74MOL0     O 9879  13.113   3.704   1.932 -0.2286 -0.2461 -0.1767
   74MOL0     C 9880  13.045   3.594   1.984  0.5362  0.1718 -0.6965
   74MOL0     C 9881  13.103   3.529   2.102 -0.0515  0.4023  0.7555
   74MOL0     C 9882  13.037   3.416   2.158 -0.2020 -0.5251  0.7407
   74MOL0     C 9883  13.116   3.359   2.276  0.3394 -0.3325  0.3519
   74MOL0     C 9884  12.911   3.362   2.100 -0.7999 -0.5385 -0.1639
   74MOL0     C 9885  12.844   3.238   2.149 -0.6208 -0.4574 -0.9603
   74MOL0     O 9886  12.712   3.249   2.138 -0.3083  0.8037  0.1456
   74MOL0     C 9887  12.626   3.164   2.193  0.4174 -0.1037 -0.4886
   74MOL0     C 9888  12.516   3.123   2.126  0.1841 -0.2730 -0.5918
   74MOL0     C 9889  12.409   3.053   2.177 -0.2681 -1.1414  1.1483
   74MOL0     C 9890  12.402   3.024   2.313 -0.4234 -0.2827  0.2443
   74MOL0     O 9891  12.317   2.945   2.379  0.7508  0.2484  0.2633
   74MOL0     C 9892  12.231   2.858   2.304 -0.4305  0.7904 -0.0175
   74MOL0     C 9893  12.275   2.709   2.292  0.3909  0.4333  0.7152
   74MOL0     C 9894  12.430   2.715   2.264  0.0449  0.0405 -0.6306
   74MOL0     C 9895  12.482   2.571   2.267  0.1414  0.5462  0.8302
   74MOL0     C 9896  12.625   2.581   2.240 -0.5223  0.1703  0.6447
   74MOL0     C 9897  12.668   2.434   2.207  0.3500 -0.9163  0.3666
   74MOL0     C 9898  12.815   2.429   2.171 -0.3502  0.0141 -0.3566
   74MOL0     C 9899  12.874   2.289   2.186 -0.1775  0.0863  0.4010
   74MOL0    Cl 9900  12.834   2.192   2.042 -0.0895  0.0316  0.1458
   74MOL0     C 9901  12.512   3.066   2.385  0.3884  0.9754  0.2838
   74MOL0     C 9902  12.625   3.126   2.326  0.0680 -0.2122  0.2701
   74MOL0     O 9903  12.911   3.154   2.220  0.0185 -0.3820  0.8252
   74MOL0     C 9904  12.857   3.438   1.992  0.4501  0.5597 -0.8182
   74MOL0     C 9905  12.918   3.540   1.932 -0.6094 -0.5180  0.1922
   74MOL0     N 9906  12.785   3.724   1.657 -0.4814 -0.4455  0.0735
   74MOL0     N 9907  12.660   3.747   1.667 -1.1679  0.5063 -0.4695
   74MOL0     C 9908  11.547   4.231   1.452  0.1090 -1.3744 -0.8010
   74MOL0     C 9909  11.426   4.267   1.521 -0.5192  0.4299  1.1596
   74MOL0     C 9910  11.138   4.506   1.759 -0.7238  0.0389 -0.6269
   74MOL0     C 9911  11.150   4.642   1.752 -0.4240 -0.4458  0.2497
   74MOL0     C 9912  11.058   4.730   1.813 -1.2994  0.0283  0.1000
   74MOL0     C 9913  10.952   4.677   1.882 -0.5626 -0.2203  1.3082
   74MOL0     O 9914  10.884   4.767   1.957 -0.8834  0.4914 -0.1838
   74MOL0     C 9915  10.815   4.718   2.070  0.1355  0.1613  0.2005
   74MOL0     C 9916  10.662   4.733   2.072  0.5641  0.5765 -0.0877
   74MOL0     C 9917  10.608   4.858   2.132  0.1446 -0.3501 -0.1629
   74MOL0     C 9918  10.454   4.850   2.142  0.0519  0.2359  0.1381
   74MOL0     C 9919  10.390   4.860   2.010 -0.4410 -0.2635 -0.6938
   74MOL0     C 9920  10.337   4.863   1.894 -0.3704 -0.4950 -0.1137
   74MOL0     C 9921  10.927   4.538   1.879  0.3273  0.2471 -0.1513
   74MOL0     C 9922  11.019   4.453   1.826 -0.5690 -0.2680 -0.2842
   74MOL0     H 9923  11.548   4.583   1.588 -0.0106 -0.5310 -1.7928
   74MOL0     H 9924  11.743   4.512   1.512  0.8011 -0.2166 -1.3419
   74MOL0     H 9925  11.843   4.427   1.295 -0.5353  0.9865  1.6517
   74MOL0     H 9926  11.945   4.370   1.422  1.1695 -0.5478 -0.8612
   74MOL0     H 9927  11.918   4.146   1.233  2.0774 -0.9283  2.3732
   74MOL0     H 9928  11.975   4.301   1.147  1.2611  3.0423  2.1210
   74MOL0     H 9929  12.182   4.210   1.213  0.5880 -1.5228 -0.1899
   74MOL0     H 9930  12.137   4.334   1.317 -2.5625 -0.2464  1.3360
   74MOL0     H 9931  12.068   4.178   1.483 -0.3313 -0.2463  0.5248
   74MOL0     H 9932  12.060   4.037   1.393 -0.0129 -0.6947 -0.5745
   74MOL0     H 9933  12.331   4.187   1.401 -1.4445 -0.9496 -3.2580
   74MOL0     H 9934  12.288   4.101   1.549 -1.4358  0.2622  0.9019
   74MOL0     H 9935  12.287   3.891   1.359  3.0547 -2.2980 -2.0088
   74MOL0     H 9936  12.358   4.017   1.263 -0.0980  2.1024  0.9553
   74MOL0     H 9937  12.538   3.906   1.351  0.1941  0.5293  0.2213
   74MOL0     H 9938  12.528   4.065   1.447  0.4921  0.2973  0.8532
   74MOL0     H 9939  12.439   3.805   1.539 -0.9018  0.9018  0.3448
   74MOL0     H 9940  12.431   3.958   1.638  1.9142  0.7480  0.5559
   74MOL0     H 9941  12.764   4.036   1.549  0.3460  0.9587 -0.9798
   74MOL0     H 9942  13.035   3.763   1.546 -0.8599  0.2315  1.7106
   74MOL0     H 9943  12.983   3.907   1.458  1.8135 -2.5329 -2.1574
   74MOL0     H 9944  13.021   4.027   1.688  0.3793  0.0397 -2.4679
   74MOL0     H 9945  13.156   3.991   1.584 -0.5902  3.0461 -0.0133
   74MOL0     H 9946  13.190   3.932   1.816  3.6093 -1.4443 -1.1488
   74MOL0     H 9947  13.236   3.814   1.695 -0.5525 -0.7883 -1.4793
   74MOL0     H 9948  13.019   3.691   1.753  1.6756 -0.3002 -0.2909
   74MOL0     H 9949  12.966   3.824   1.853 -0.8062  0.1655 -1.1295
   74MOL0     H 9950  13.195   3.561   2.150  0.7846 -1.6505  0.5846
   74MOL0     H 9951  13.063   3.294   2.346  2.1178 -2.6798 -0.3478
   74MOL0     H 9952  13.198   3.309   2.223  5.9137  4.5906  3.1210
   74MOL0     H 9953  13.161   3.435   2.340 -2.1000  1.0738  0.4962
   74MOL0     H 9954  12.504   3.152   2.022 -0.1181  0.7315 -0.2953
   74MOL0     H 9955  12.345   3.027   2.093  1.8391  3.8309 -2.4697
   74MOL0     H 9956  12.128   2.873   2.337 -0.8419  2.0926 -1.7229
   74MOL0     H 9957  12.219   2.901   2.204  1.1463  1.7068  0.1475
   74MOL0     H 9958  12.241   2.657   2.382  1.4000 -0.0665  0.8303
   74MOL0     H 9959  12.235   2.669   2.199  1.2842  2.7734 -0.7976
   74MOL0     H 9960  12.478   2.768   2.347  1.3401  0.2514 -1.4881
   74MOL0     H 9961  12.450   2.769   2.171 -1.0716  0.4931 -0.6235
   74MOL0     H 9962  12.458   2.531   2.367  0.2223  1.5339  1.2543
   74MOL0     H 9963  12.428   2.512   2.193 -2.9117  2.2802  1.5313
   74MOL0     H 9964  12.684   2.639   2.312  0.5467  0.0721 -0.1331
   74MOL0     H 9965  12.629   2.623   2.139  0.0850 -0.3449  0.4481
   74MOL0     H 9966  12.653   2.367   2.292  1.1581  0.2373  1.4474
   74MOL0     H 9967  12.609   2.397   2.123 -2.5741  0.3430  1.7231
   74MOL0     H 9968  12.862   2.496   2.243 -1.4174 -1.0908  1.4459
   74MOL0     H 9969  12.829   2.470   2.070  0.3578  0.7051  0.0081
   74MOL0     H 9970  12.835   2.243   2.278 -1.0077 -3.1330 -1.4165
   74MOL0     H 9971  12.982   2.306   2.193  0.2647 -1.6178 -1.3218
   74MOL0     H 9972  12.515   3.031   2.488  0.2772 -0.6910 -0.2484
   74MOL0     H 9973  12.705   3.151   2.395  0.6253 -0.8814 -0.1271
   74MOL0     H 9974  12.755   3.426   1.959  0.3664 -0.8276 -0.1392
   74MOL0     H 9975  12.863   3.577   1.845 -2.8156 -2.6715  0.5535
   74MOL0     H 9976  11.545   4.132   1.405  0.9143 -1.1096 -1.4256
   74MOL0     H 9977  11.338   4.203   1.513 -2.0833  2.5495  0.5371
   74MOL0     H 9978  11.239   4.677   1.701  0.0977 -0.6869  0.9735
   74MOL0     H 9979  11.067   4.838   1.810 -0.6623  0.0254  1.5071
   74MOL0     H 9980  10.835   4.614   2.097 -0.1105  0.4669  1.6365
   74MOL0     H 9981  10.850   4.777   2.156  2.3630 -2.9239  1.5810
   74MOL0     H 9982  10.616   4.645   2.118  3.1519 -1.9826 -1.9736
   74MOL0     H 9983  10.627   4.731   1.968  0.5724  0.5289 -0.0895
   74MOL0     H 9984  10.637   4.949   2.078 -3.1377  0.0444 -1.4697
   74MOL0     H 9985  10.647   4.859   2.234  0.1097  0.5072 -0.1519
   74MOL0     H 9986  10.413   4.932   2.202 -0.5429 -0.4760  0.7277
   74MOL0     H 9987  10.427   4.758   2.194  1.1762 -1.4731 -2.1129
   74MOL0     H 9988  10.308   4.889   1.795 -0.3499  2.1543  0.5152
   74MOL0     H 9989  10.834   4.497   1.917  0.6455 -0.9562 -0.6085
   74MOL0     H 9990  11.021   4.344   1.832  2.8641 -0.2276  4.1700
   75MOL0     O 9991   8.908   0.924   4.994 -0.2550 -0.6601 -0.3739
   75MOL0     C 9992   8.993   0.999   5.044 -0.5551 -0.4792  0.1044
   75MOL0     O 9993   9.061   1.106   4.974 -0.4802 -1.0080 -0.3753
   75MOL0     C 9994   9.046   1.115   4.829  1.1703  0.7912 -0.8250
   75MOL0     C 9995   9.130   1.038   4.741 -0.3153  0.3198  0.2334
   75MOL0     C 9996   9.112   1.046   4.602  0.4883  0.0079 -0.7044
   75MOL0     C 9997   9.005   1.110   4.552 -0.5151  0.5412  1.3645
   75MOL0     O 9998   8.983   1.102   4.420  0.3118  0.4139 -0.3813
   75MOL0     C 9999   8.857   1.067   4.359  1.0783 -0.4271  0.7442
   75MOL0     C10000   8.862   1.039   4.211 -0.0604 -0.0483 -0.1089
   75MOL0     C10001   8.864   1.163   4.122  0.5139  0.1232  0.1469
   75MOL0     C10002   8.739   1.252   4.130  0.3998 -0.3821  0.2124
   75MOL0     C10003   8.696   1.332   4.000 -0.6654  0.6616 -0.2250
   75MOL0     C10004   8.711   1.248   3.873  0.6956 -0.6312 -0.1771
   75MOL0     C10005   8.618   1.288   3.754 -0.2223 -0.4520 -0.3764
   75MOL0     C10006   8.465   1.269   3.779  0.6359 -0.1078  0.1013
   75MOL0     N10007   8.423   1.131   3.760  0.1745 -0.3875  0.5621
   75MOL0     C10008   8.423   1.063   3.638 -0.0215  0.2585 -0.1878
   75MOL0     C10009   8.364   0.948   3.655  0.1343  1.4193 -0.4661
   75MOL0     C10010   8.339   0.841   3.549  0.4194 -1.1974  0.1295
   75MOL0     C10011   8.453   0.732   3.551  0.6284 -0.0246  0.0342
   75MOL0     C10012   8.585   0.800   3.528 -0.2976 -0.9021 -0.5085
   75MOL0     C10013   8.698   0.701   3.544  1.5787 -0.4756  0.4535
   75MOL0     O10014   8.685   0.611   3.435 -0.1373 -0.5398 -0.5154
   75MOL0     C10015   8.766   0.635   3.326  0.0222  0.5234 -0.3133
   75MOL0     C10016   8.877   0.716   3.315  0.5392 -0.5617  0.5204
   75MOL0     C10017   8.945   0.722   3.189  0.9228  0.1977 -1.3102
   75MOL0     C10018   9.068   0.813   3.186 -0.3804  0.1156 -0.7822
   75MOL0     C10019   8.896   0.650   3.080  0.6279  0.4868  1.1069
   75MOL0     C10020   8.962   0.643   2.950  0.1925 -0.5488  0.6016
   75MOL0     O10021   8.928   0.533   2.867 -0.0327  0.0813 -0.7898
   75MOL0     C10022   8.978   0.511   2.748  0.2168  0.8328 -0.9550
   75MOL0     C10023   8.899   0.446   2.655 -0.4952  0.0342 -0.3947
   75MOL0     C10024   8.970   0.411   2.536  1.3633 -0.5057  0.6130
   75MOL0     C10025   9.107   0.428   2.505  0.1646 -0.4421 -0.6792
   75MOL0     O10026   9.150   0.370   2.391  0.6014  0.3536  0.1095
   75MOL0     C10027   9.198   0.236   2.428 -0.8417  0.1903  0.1950
   75MOL0     C10028   9.193   0.157   2.289 -1.4118  0.4872 -0.0624
   75MOL0     C10029   9.260   0.232   2.166  0.6951 -1.0708  0.3133
   75MOL0     C10030   9.408   0.273   2.191  0.1399  0.8298  0.0188
   75MOL0     C10031   9.470   0.368   2.089 -0.4058  0.2497 -0.5139
   75MOL0     C10032   9.570   0.460   2.166  0.3294  0.5515 -0.1615
   75MOL0     C10033   9.641   0.542   2.059  0.3105  0.0816 -0.4879
   75MOL0     C10034   9.735   0.643   2.125 -0.6285  0.3201  0.5978
   75MOL0    Cl10035   9.836   0.735   2.011 -0.0752  0.3637 -0.1460
   75MOL0     C10036   9.185   0.489   2.599 -0.2672 -0.2145  0.0267
   75MOL0     C10037   9.116   0.527   2.723  0.5242 -0.4661 -0.4070
   75MOL0     O10038   9.010   0.748   2.913 -0.2740  0.3639 -1.1748
   75MOL0     C10039   8.783   0.561   3.098  0.4971 -0.1427 -0.3551
   75MOL0     C10040   8.714   0.565   3.221  0.6636  0.4598 -0.0715
   75MOL0     N10041   8.331   0.930   3.790 -0.6652 -0.6077 -0.5664
   75MOL0     N10042   8.364   1.040   3.852  0.3779  0.1231  0.6379
   75MOL0     C10043   8.919   1.177   4.642  0.8939 -0.2293 -0.3357
   75MOL0     C10044   8.929   1.176   4.778 -0.3160  0.2807  0.2900
   75MOL0     C10045   9.012   0.985   5.181 -0.2569  0.1924 -0.0190
   75MOL0     C10046   8.969   0.874   5.254  0.2391  0.1559  0.8131
   75MOL0     C10047   8.987   0.867   5.387 -0.4330  0.7850 -0.0174
   75MOL0     C10048   9.050   0.960   5.457 -0.3914  0.0321 -0.0042
   75MOL0     O10049   9.073   0.946   5.589  0.3501 -0.0134 -0.1746
   75MOL0     C10050   9.035   0.835   5.662  0.9902  0.1257 -0.9556
   75MOL0     C10051   9.089   0.874   5.798 -0.7136  0.4761 -0.8746
   75MOL0     C10052   9.060   0.774   5.918 -0.0088 -0.5197 -0.3166
   75MOL0     C10053   9.086   0.628   5.893  1.0345  0.2295  0.1859
   75MOL0     C10054   9.218   0.583   5.937 -0.6160 -0.1608 -0.6661
   75MOL0     C10055   9.324   0.539   5.983 -0.2361  1.3287 -1.0195
   75MOL0     C10056   9.096   1.069   5.389  0.4292  0.7921  0.6697
   75MOL0     C10057   9.067   1.088   5.250  0.1432 -0.3657 -0.2159
   75MOL0     H10058   9.207   0.977   4.788 -0.5638  0.8634  1.3881
   75MOL0     H10059   9.182   0.993   4.539  0.3984  0.1302 -0.9083
   75MOL0     H10060   8.815   0.977   4.404  1.4151 -0.6413  0.6333
   75MOL0     H10061   8.785   1.148   4.374  0.1247 -0.9429 -0.8303
   75MOL0     H10062   8.955   0.984   4.191  1.1257  1.8201  0.0322
   75MOL0     H10063   8.772   0.981   4.188  0.7990 -3.4979  3.9481
   75MOL0     H10064   8.948   1.229   4.145 -1.0959  1.9019  1.2800
   75MOL0     H10065   8.891   1.128   4.022 -0.1748  1.8174 -0.6769
   75MOL0     H10066   8.656   1.185   4.156  0.8187 -2.4007 -2.9539
   75MOL0     H10067   8.746   1.313   4.220 -0.7551 -4.5023  3.4309
   75MOL0     H10068   8.591   1.362   4.008 -0.9580 -0.5021  0.5694
   75MOL0     H10069   8.749   1.426   3.986  0.9935 -0.3356 -0.9532
   75MOL0     H10070   8.814   1.256   3.835  0.0405  4.1867 -1.6823
   75MOL0     H10071   8.694   1.143   3.898 -0.7046 -0.7075 -1.3087
   75MOL0     H10072   8.631   1.392   3.724 -2.5379  0.2790  0.9854
   75MOL0     H10073   8.658   1.227   3.672  2.9220  1.0636 -0.1277
   75MOL0     H10074   8.405   1.326   3.708  2.7178  2.2426  0.0937
   75MOL0     H10075   8.438   1.305   3.879  3.7882  2.8588  0.0538
   75MOL0     H10076   8.463   1.097   3.543 -1.4387  2.0198 -0.2241
   75MOL0     H10077   8.235   0.809   3.556 -0.9113  2.5028 -0.6798
   75MOL0     H10078   8.338   0.887   3.450  0.6996 -1.7500 -0.1356
   75MOL0     H10079   8.423   0.661   3.474 -4.1727 -0.8298  2.2375
   75MOL0     H10080   8.443   0.678   3.646  3.4181  0.0868  0.4667
   75MOL0     H10081   8.599   0.881   3.601  2.4866 -1.2894 -0.5050
   75MOL0     H10082   8.599   0.845   3.430  1.8798  2.7591  1.2710
   75MOL0     H10083   8.684   0.640   3.634  1.8487 -4.1769 -1.7991
   75MOL0     H10084   8.794   0.750   3.558  4.7635 -4.2822 -4.5102
   75MOL0     H10085   8.918   0.776   3.396 -1.4227 -0.8803  1.8264
   75MOL0     H10086   9.043   0.901   3.126 -1.4761  0.3581 -0.0091
   75MOL0     H10087   9.113   0.839   3.283 -1.5669 -0.0528 -0.1677
   75MOL0     H10088   9.145   0.764   3.126 -0.9179 -0.3240 -1.1135
   75MOL0     H10089   8.796   0.424   2.681  0.1990 -1.2651  1.4354
   75MOL0     H10090   8.911   0.361   2.460 -1.2628 -2.1807  3.5454
   75MOL0     H10091   9.291   0.243   2.486 -0.1636  2.9392 -1.0842
   75MOL0     H10092   9.122   0.192   2.494 -1.9566  2.7578  0.7233
   75MOL0     H10093   9.248   0.062   2.285 -1.5817  0.4272 -1.3389
   75MOL0     H10094   9.091   0.134   2.257 -1.9593  1.1531  1.1161
   75MOL0     H10095   9.200   0.322   2.149  0.6380 -1.0042  0.8643
   75MOL0     H10096   9.246   0.175   2.073 -1.3614 -0.6551  0.3200
   75MOL0     H10097   9.416   0.307   2.294 -4.4357  0.7176  0.6011
   75MOL0     H10098   9.466   0.180   2.192 -1.2848 -0.0812  0.8430
   75MOL0     H10099   9.398   0.425   2.030 -0.0559  0.5038 -0.6993
   75MOL0     H10100   9.530   0.304   2.023 -1.7159  0.4648 -1.9774
   75MOL0     H10101   9.523   0.533   2.232  0.2841  0.0475  0.3680
   75MOL0     H10102   9.638   0.402   2.230 -1.5975  1.1712  2.5985
   75MOL0     H10103   9.563   0.582   1.994  0.5013  2.0493  0.4141
   75MOL0     H10104   9.700   0.476   1.994  2.0336 -0.4402  1.4806
   75MOL0     H10105   9.799   0.582   2.189 -0.6218 -0.6027 -0.2549
   75MOL0     H10106   9.685   0.721   2.183  1.3610  1.1048  1.3250
   75MOL0     H10107   9.292   0.490   2.583  0.1646  4.6965  1.6093
   75MOL0     H10108   9.181   0.550   2.806  0.1137 -3.3288  0.8281
   75MOL0     H10109   8.750   0.501   3.015 -0.9657 -0.3860  0.3563
   75MOL0     H10110   8.627   0.501   3.229  1.9064 -1.2500  0.5125
   75MOL0     H10111   8.837   1.237   4.604 -2.2952 -1.7492  3.3634
   75MOL0     H10112   8.850   1.214   4.841 -1.1438  0.8033 -1.0334
   75MOL0     H10113   8.908   0.791   5.220  0.1463  0.8049 -0.6703
   75MOL0     H10114   8.948   0.781   5.441  0.0426  1.3517  1.2887
   75MOL0     H10115   8.925   0.831   5.659  1.0224 -0.3005 -2.1774
   75MOL0     H10116   9.079   0.738   5.635  2.0495 -0.1461  1.5043
   75MOL0     H10117   9.049   0.969   5.836 -1.2671 -0.6933  1.7168
   75MOL0     H10118   9.198   0.887   5.791 -0.5504  2.7524  2.9471
   75MOL0     H10119   8.951   0.780   5.931  0.1738  0.0098  1.1273
   75MOL0     H10120   9.110   0.814   6.006 -0.8671  0.1261 -0.1032
   75MOL0     H10121   9.065   0.602   5.789 -0.6123 -1.4769  0.8844
   75MOL0     H10122   9.008   0.574   5.947  0.3238  1.0174 -0.0289
   75MOL0     H10123   9.408   0.483   6.018 -1.8088 -0.7588 -0.3897
   75MOL0     H10124   9.165   1.135   5.440  1.5392 -1.1293  1.7888
   75MOL0     H10125   9.087   1.187   5.210  0.8251 -0.7703 -0.8998
   76MOL0     O10126   0.186   7.559   5.310  0.2922 -0.0778  0.3311
   76MOL0     C10127   0.121   7.627   5.233  1.1717 -0.0707  0.3919
   76MOL0     O10128   0.100   7.759   5.245  0.2671 -0.1833 -0.3024
   76MOL0     C10129   0.158   7.822   5.358  0.8139  0.8460  0.3469
   76MOL0     C10130   0.071   7.853   5.471 -0.0165 -0.8336 -1.4988
   76MOL0     C10131   0.125   7.902   5.594 -0.0788 -0.2332 -0.1521
   76MOL0     C10132   0.265   7.901   5.615  0.3915  0.5430  1.2056
   76MOL0     O10133   0.321   7.914   5.730  0.3155  0.7101  0.0361
   76MOL0     C10134   0.302   8.051   5.781 -0.8971  0.2101 -0.0267
   76MOL0     C10135   0.364   8.075   5.926 -0.2234  0.1396  0.5537
   76MOL0     C10136   0.331   8.207   5.999 -0.6272  0.5628  1.0785
   76MOL0     C10137   0.179   8.230   6.022 -0.5554  0.0453 -0.8034
   76MOL0     C10138   0.150   8.356   6.098 -0.3870 -1.1751 -0.7253
   76MOL0     C10139  -0.002   8.365   6.115 -0.0582 -0.6973  0.1797
   76MOL0     C10140  -0.062   8.462   6.226 -0.8483  1.1679 -0.0071
   76MOL0     C10141  -0.059   8.614   6.201  0.2971 -0.5780  0.0648
   76MOL0     N10142   0.042   8.687   6.282 -0.3124  0.1346  0.8688
   76MOL0     C10143   0.169   8.645   6.310  0.0377  0.4587 -0.2558
   76MOL0     C10144   0.222   8.736   6.396  0.1179 -0.1303  0.2427
   76MOL0     C10145   0.359   8.738   6.446 -0.2502  0.0481  0.2110
   76MOL0     C10146   0.363   8.632   6.554  0.0837  0.6254 -0.4945
   76MOL0     C10147   0.295   8.678   6.685  0.5442  0.3432 -0.2276
   76MOL0     C10148   0.346   8.610   6.818  0.3699 -0.4167  0.4031
   76MOL0     O10149   0.302   8.464   6.818 -0.5665  0.5781  0.8317
   76MOL0     C10150   0.344   8.384   6.926  0.2373 -0.4902 -0.3703
   76MOL0     C10151   0.428   8.426   7.039 -0.1995 -0.6182 -0.2105
   76MOL0     C10152   0.479   8.340   7.142  0.5450  0.6152  0.1220
   76MOL0     C10153   0.580   8.390   7.240 -0.6261  0.0444  0.0165
   76MOL0     C10154   0.428   8.204   7.135 -0.0579  0.4300  0.6547
   76MOL0     C10155   0.462   8.101   7.239 -0.4333  0.8577 -0.2619
   76MOL0     O10156   0.420   7.975   7.216  0.8538  0.6759 -0.5335
   76MOL0     C10157   0.472   7.883   7.308 -0.4789 -0.5102  0.6616
   76MOL0     C10158   0.417   7.881   7.442 -0.1256  0.3701  0.2717
   76MOL0     C10159   0.448   7.764   7.522  0.6820  0.5563  0.4464
   76MOL0     C10160   0.542   7.670   7.484  0.4413  0.1218 -0.7207
   76MOL0     O10161   0.567   7.572   7.575 -0.1691  0.6763  0.0504
   76MOL0     C10162   0.692   7.510   7.550  0.2281 -0.0807  0.4698
   76MOL0     C10163   0.742   7.455   7.680  0.3716  1.1615 -0.1159
   76MOL0     C10164   0.754   7.583   7.777  0.9268 -0.4030  0.7482
   76MOL0     C10165   0.814   7.538   7.908 -0.7074 -0.7138 -0.3963
   76MOL0     C10166   0.843   7.648   8.015 -1.0591  0.1351  0.4223
   76MOL0     C10167   0.848   7.587   8.162  0.0299 -0.7872  0.4026
   76MOL0     C10168   0.975   7.511   8.191 -0.7156 -0.2131  0.2256
   76MOL0     C10169   0.948   7.414   8.306 -0.3972 -0.4829 -0.1293
   76MOL0    Cl10170   1.108   7.325   8.356 -0.4137 -0.1287  0.3901
   76MOL0     C10171   0.591   7.675   7.356  0.7173 -0.4023  0.5134
   76MOL0     C10172   0.562   7.780   7.268  1.0598  0.7647  0.0234
   76MOL0     O10173   0.524   8.140   7.339 -0.3296 -0.6691  0.3458
   76MOL0     C10174   0.353   8.156   7.020 -0.3718 -0.0609  0.4995
   76MOL0     C10175   0.319   8.246   6.921  0.0601 -0.1049 -0.1289
   76MOL0     N10176   0.123   8.832   6.423 -0.0949 -0.2746 -0.3309
   76MOL0     N10177   0.018   8.806   6.358 -0.5233  0.4292  0.7688
   76MOL0     C10178   0.345   7.867   5.506 -0.7994 -0.7507  0.6020
   76MOL0     C10179   0.295   7.844   5.376  0.4203 -0.3920  1.0733
   76MOL0     C10180   0.049   7.550   5.124  0.6006  0.3892 -0.2015
   76MOL0     C10181   0.096   7.448   5.041  0.6042  0.3406 -0.4425
   76MOL0     C10182   0.017   7.404   4.939  0.4065 -0.1034 -0.2611
   76MOL0     C10183  -0.111   7.444   4.912  0.3432  0.5026 -0.2302
   76MOL0     O10184  -0.188   7.378   4.815 -0.4164 -0.3860  0.5777
   76MOL0     C10185  -0.308   7.429   4.766  0.4994  0.6255 -1.2699
   76MOL0     C10186  -0.358   7.364   4.640  0.6618 -0.0481 -0.9706
   76MOL0     C10187  -0.385   7.213   4.635 -0.8860  0.1904  0.8258
   76MOL0     C10188  -0.462   7.173   4.505 -0.4479 -0.9012 -0.0373
   76MOL0     C10189  -0.482   7.024   4.482 -0.2322 -0.3226  0.0393
   76MOL0     C10190  -0.505   6.906   4.469 -0.3341 -1.5746 -0.2397
   76MOL0     C10191  -0.161   7.550   4.998  0.7946  0.0153 -0.5778
   76MOL0     C10192  -0.076   7.600   5.097  0.0016 -1.0760  0.4320
   76MOL0     H10193  -0.036   7.849   5.458 -0.2802  2.0313 -0.8423
   76MOL0     H10194   0.061   7.916   5.680 -0.9936 -1.6712 -0.5616
   76MOL0     H10195   0.351   8.117   5.710  1.7109 -2.6622 -1.1242
   76MOL0     H10196   0.193   8.060   5.788 -0.9926  0.8312 -1.9081
   76MOL0     H10197   0.343   7.986   5.986  0.1385 -0.6323 -0.4308
   76MOL0     H10198   0.473   8.070   5.922 -0.2478 -0.4918  0.5068
   76MOL0     H10199   0.392   8.211   6.090 -2.2288  3.9712  2.1408
   76MOL0     H10200   0.373   8.284   5.934  0.9530 -1.2956 -0.2446
   76MOL0     H10201   0.130   8.243   5.925  0.0689 -0.5738 -1.2143
   76MOL0     H10202   0.136   8.142   6.070  0.5557 -1.1085 -1.8546
   76MOL0     H10203   0.186   8.343   6.200  0.7194  2.4148 -0.5287
   76MOL0     H10204   0.186   8.455   6.067 -0.8690 -0.7321  0.0776
   76MOL0     H10205  -0.048   8.390   6.019  0.9912 -0.5109 -0.2896
   76MOL0     H10206  -0.020   8.264   6.153  1.7352 -1.0611  0.1939
   76MOL0     H10207  -0.166   8.432   6.238 -1.0459  0.6975 -2.4606
   76MOL0     H10208  -0.018   8.430   6.321  0.4662 -1.0221 -1.2579
   76MOL0     H10209  -0.158   8.657   6.215  0.5584  0.7117 -1.6814
   76MOL0     H10210  -0.027   8.613   6.096  2.3517  1.8522  0.5601
   76MOL0     H10211   0.222   8.559   6.271  0.5516  1.3500 -1.5854
   76MOL0     H10212   0.428   8.722   6.362  1.8355 -0.6886  1.9535
   76MOL0     H10213   0.382   8.838   6.484  0.2831  0.0458 -0.0982
   76MOL0     H10214   0.467   8.606   6.576 -0.4614 -1.3064 -0.0085
   76MOL0     H10215   0.326   8.535   6.519  0.5508  0.3466 -0.2444
   76MOL0     H10216   0.188   8.656   6.682  0.3782  1.1373 -0.2746
   76MOL0     H10217   0.305   8.786   6.693  1.1166  0.2732  0.1038
   76MOL0     H10218   0.303   8.657   6.907  0.1001  0.0244  0.0406
   76MOL0     H10219   0.454   8.627   6.829  0.0339  0.5139  3.0049
   76MOL0     H10220   0.443   8.533   7.053 -0.4710 -0.6196  0.0937
   76MOL0     H10221   0.556   8.381   7.346  1.3195 -1.8995  0.3630
   76MOL0     H10222   0.678   8.342   7.232 -0.8565 -1.5546  4.3103
   76MOL0     H10223   0.595   8.495   7.210 -2.7226 -0.2083 -2.2473
   76MOL0     H10224   0.347   7.952   7.484  3.0645  1.9424  3.4234
   76MOL0     H10225   0.396   7.755   7.617 -1.9927 -0.7577 -1.0310
   76MOL0     H10226   0.670   7.425   7.485  4.1699 -0.3319 -0.8238
   76MOL0     H10227   0.767   7.580   7.512 -0.9037  1.9628  1.7800
   76MOL0     H10228   0.673   7.378   7.714 -1.1228  2.0879 -0.9268
   76MOL0     H10229   0.836   7.400   7.676 -0.7798 -0.8917 -0.1782
   76MOL0     H10230   0.657   7.622   7.810 -0.1990 -2.0186 -0.5305
   76MOL0     H10231   0.802   7.670   7.731  1.2025  1.2869  3.9181
   76MOL0     H10232   0.744   7.464   7.948  0.2835 -1.3132  0.2717
   76MOL0     H10233   0.909   7.486   7.891  1.1392  1.5745  2.0820
   76MOL0     H10234   0.774   7.733   8.014 -0.0997  0.9282 -0.6819
   76MOL0     H10235   0.941   7.692   7.994 -1.1227  1.8401  3.1047
   76MOL0     H10236   0.835   7.664   8.239 -1.1503 -1.0792  0.5172
   76MOL0     H10237   0.762   7.520   8.167 -1.2081  0.7504  5.3794
   76MOL0     H10238   1.057   7.579   8.216 -4.2073  3.9393  1.6645
   76MOL0     H10239   0.994   7.443   8.107  1.5995 -0.2553  0.7258
   76MOL0     H10240   0.874   7.343   8.270 -1.0097  1.3902 -2.9316
   76MOL0     H10241   0.910   7.475   8.388  2.5471 -1.1003  1.8312
   76MOL0     H10242   0.651   7.598   7.309  3.3231 -1.0406  4.3957
   76MOL0     H10243   0.601   7.782   7.167  0.3999 -0.3823 -0.2794
   76MOL0     H10244   0.318   8.055   7.003 -0.0320 -0.3418  1.4124
   76MOL0     H10245   0.264   8.210   6.835  0.0890 -1.7731  0.5141
   76MOL0     H10246   0.453   7.872   5.515 -0.8329  0.8718  0.5487
   76MOL0     H10247   0.370   7.840   5.298  0.1203  1.5864  0.6170
   76MOL0     H10248   0.195   7.405   5.036  1.2631  1.6228  0.7768
   76MOL0     H10249   0.058   7.351   4.853  1.8505  0.2140  0.2022
   76MOL0     H10250  -0.385   7.410   4.842  1.6463  4.4944  1.1473
   76MOL0     H10251  -0.279   7.534   4.762 -0.2128  0.8643 -0.4679
   76MOL0     H10252  -0.277   7.384   4.568  0.7572 -0.3685 -0.9527
   76MOL0     H10253  -0.449   7.412   4.605  2.6883  3.9213 -1.3914
   76MOL0     H10254  -0.440   7.175   4.721  1.9580 -0.7737  2.3566
   76MOL0     H10255  -0.289   7.160   4.628 -0.2116  1.3722  0.8223
   76MOL0     H10256  -0.411   7.202   4.413 -1.4877  2.0378  0.2131
   76MOL0     H10257  -0.560   7.221   4.504 -1.6109 -3.1261  0.5855
   76MOL0     H10258  -0.519   6.801   4.460  0.5765 -1.5384 -2.5098
   76MOL0     H10259  -0.259   7.588   4.971 -0.5588 -3.8132 -1.6518
   76MOL0     H10260  -0.110   7.683   5.158  0.9666 -0.8586  0.6868
   77MOL0     O10261  10.203   0.933   0.332 -0.1937  0.0242 -0.6940
   77MOL0     C10262  10.306   0.980   0.286 -0.0639 -0.0288  0.6482
   77MOL0     O10263  10.422   1.002   0.346  0.5644 -0.1580 -0.4920
   77MOL0     C10264  10.403   1.020   0.479  0.3704  0.1556 -0.2977
   77MOL0     C10265  10.409   0.916   0.573  1.0199  0.0306  0.3687
   77MOL0     C10266  10.368   0.955   0.695 -0.6613  1.0525  0.1468
   77MOL0     C10267  10.346   1.083   0.745 -0.1259 -1.4245  0.5274
   77MOL0     O10268  10.305   1.093   0.875  0.1846  1.0445 -0.2446
   77MOL0     C10269  10.306   1.219   0.943  0.1696 -0.0337 -0.1680
   77MOL0     C10270  10.444   1.265   0.997 -0.0836  0.8200 -0.3573
   77MOL0     C10271  10.430   1.365   1.109  0.1642  0.2476 -0.4960
   77MOL0     C10272  10.545   1.344   1.216  0.3685 -0.6601  0.2144
   77MOL0     C10273  10.562   1.453   1.324  0.0188  0.3383 -0.4631
   77MOL0     C10274  10.663   1.423   1.439 -0.2676  0.4058 -0.2574
   77MOL0     C10275  10.654   1.529   1.545 -0.4830  0.4413 -0.0822
   77MOL0     C10276  10.735   1.491   1.680  0.0673 -0.7367 -0.3609
   77MOL0     N10277  10.705   1.594   1.786  0.4993 -0.8695 -0.4487
   77MOL0     C10278  10.580   1.601   1.846 -1.0228  0.0944 -0.1073
   77MOL0     C10279  10.591   1.720   1.908  0.0475  0.3982 -0.4007
   77MOL0     C10280  10.476   1.776   1.983 -1.2571 -0.1744 -0.0337
   77MOL0     C10281  10.481   1.928   2.011 -0.0661 -0.0336 -0.2083
   77MOL0     C10282  10.431   1.966   2.148  0.0893  0.0576 -0.5926
   77MOL0     C10283  10.418   2.115   2.158  0.2796 -0.7408 -0.1580
   77MOL0     O10284  10.536   2.188   2.143  0.3599 -0.1154  0.3692
   77MOL0     C10285  10.558   2.319   2.186 -0.3167 -0.3481 -0.3519
   77MOL0     C10286  10.670   2.392   2.136  0.2254 -0.4684 -0.8084
   77MOL0     C10287  10.692   2.523   2.180  0.5606  1.0664  0.5933
   77MOL0     C10288  10.790   2.595   2.097  0.6904  0.1542 -0.1397
   77MOL0     C10289  10.602   2.582   2.265  0.0831 -0.3398  0.2860
   77MOL0     C10290  10.622   2.725   2.299 -0.2260 -0.5094  0.1329
   77MOL0     O10291  10.522   2.816   2.254  0.5399  0.6548 -1.1806
   77MOL0     C10292  10.516   2.920   2.349  0.5159  0.0279  0.1601
   77MOL0     C10293  10.450   2.905   2.476  0.1420 -1.0513  0.9879
   77MOL0     C10294  10.434   3.018   2.563  0.6599 -0.3151  0.3757
   77MOL0     C10295  10.488   3.147   2.528  0.2835  0.2588  0.2844
   77MOL0     O10296  10.481   3.264   2.597  0.4465 -0.2327  1.8492
   77MOL0     C10297  10.414   3.279   2.718  0.6719 -0.5372 -0.0658
   77MOL0     C10298  10.471   3.399   2.792 -0.5652 -1.0733  0.3465
   77MOL0     C10299  10.511   3.365   2.936 -0.3433 -0.4929  0.2117
   77MOL0     C10300  10.388   3.349   3.018  0.4156 -0.8139 -1.4987
   77MOL0     C10301  10.404   3.317   3.179 -0.3414  0.2584  0.3799
   77MOL0     C10302  10.471   3.186   3.195 -0.1299  0.7608  0.4069
   77MOL0     C10303  10.383   3.068   3.164  0.3495 -0.0333  0.4638
   77MOL0     C10304  10.442   2.930   3.196 -0.5418 -0.6108  0.0019
   77MOL0    Cl10305  10.314   2.801   3.184 -0.1187 -0.0896  0.4463
   77MOL0     C10306  10.556   3.160   2.406  0.2229 -0.6982 -0.7322
   77MOL0     C10307  10.572   3.045   2.323  0.4855 -0.4969 -0.2213
   77MOL0     O10308  10.725   2.765   2.348  0.5018  0.0059  0.2096
   77MOL0     C10309  10.486   2.523   2.308  0.4123 -0.6424 -0.0593
   77MOL0     C10310  10.461   2.390   2.267 -0.2276  0.3860  0.4538
   77MOL0     N10311  10.723   1.766   1.914  0.2170  0.1542 -0.1620
   77MOL0     N10312  10.787   1.692   1.837  0.7060  0.2109 -0.1151
   77MOL0     C10313  10.367   1.188   0.653 -0.4770  0.7603  0.3345
   77MOL0     C10314  10.381   1.154   0.518  0.5961 -1.2655 -0.7978
   77MOL0     C10315  10.333   0.965   0.149  0.7707  0.5248  0.5719
   77MOL0     C10316  10.234   0.907   0.059  0.2016  0.7100  0.0946
   77MOL0     C10317  10.256   0.894  -0.076  0.1991 -0.1290  0.7964
   77MOL0     C10318  10.364   0.962  -0.138 -0.4523 -0.1948 -0.2031
   77MOL0     O10319  10.379   0.942  -0.270 -0.1788  0.5378  0.4423
   77MOL0     C10320  10.515   0.959  -0.331 -0.0821 -0.2821 -0.0660
   77MOL0     C10321  10.502   0.912  -0.473 -0.1478  0.6263  0.2975
   77MOL0     C10322  10.628   0.939  -0.560 -0.4363 -0.0125 -0.2112
   77MOL0     C10323  10.740   0.829  -0.529 -0.1866  0.4342  0.6669
   77MOL0     C10324  10.873   0.859  -0.585 -0.0733  0.0886  0.0455
   77MOL0     C10325  10.977   0.903  -0.625  0.0722 -1.1125  0.1232
   77MOL0     C10326  10.466   1.016  -0.052 -0.3417 -0.2336 -0.2784
   77MOL0     C10327  10.444   1.018   0.085  0.4218  0.0106 -0.2935
   77MOL0     H10328  10.419   0.811   0.547 -2.1187 -0.6650  1.5941
   77MOL0     H10329  10.350   0.879   0.771  0.6190  0.9038  0.3117
   77MOL0     H10330  10.261   1.296   0.880  0.6060 -1.0109 -1.7200
   77MOL0     H10331  10.234   1.200   1.023 -1.3974  1.6417 -1.1005
   77MOL0     H10332  10.495   1.173   1.030 -0.9264 -0.8061 -3.2519
   77MOL0     H10333  10.505   1.306   0.916  2.0213  0.9270  1.1828
   77MOL0     H10334  10.431   1.471   1.082  0.2867  0.8680  1.7596
   77MOL0     H10335  10.342   1.336   1.168  0.4198 -0.1369 -0.2957
   77MOL0     H10336  10.532   1.245   1.260  2.3165 -1.5994 -1.1385
   77MOL0     H10337  10.642   1.343   1.164  1.8553  0.4012  2.7801
   77MOL0     H10338  10.606   1.541   1.276  1.7897 -0.7333 -0.9253
   77MOL0     H10339  10.465   1.473   1.369  0.2762 -0.5666  0.5218
   77MOL0     H10340  10.623   1.337   1.494  2.3732 -1.0305 -0.4471
   77MOL0     H10341  10.761   1.407   1.394  0.3713  2.2575  0.3728
   77MOL0     H10342  10.690   1.625   1.506  1.0561  0.1013  0.4187
   77MOL0     H10343  10.553   1.550   1.583 -0.7760  2.1095 -1.6212
   77MOL0     H10344  10.843   1.487   1.662  0.7376 -2.8950  3.1574
   77MOL0     H10345  10.718   1.391   1.721 -4.4834  0.5938  1.5656
   77MOL0     H10346  10.492   1.540   1.835 -0.4423 -0.6722 -0.5968
   77MOL0     H10347  10.381   1.741   1.942 -0.7931 -0.4035 -0.9275
   77MOL0     H10348  10.474   1.715   2.074  2.4793 -1.1500 -0.4413
   77MOL0     H10349  10.438   1.974   1.921  1.1201 -2.1623 -1.9726
   77MOL0     H10350  10.585   1.962   2.022  0.7059 -2.3550  0.1396
   77MOL0     H10351  10.494   1.932   2.231  3.9924  1.5837 -2.6328
   77MOL0     H10352  10.334   1.920   2.170  0.8109 -1.8035 -1.0714
   77MOL0     H10353  10.384   2.135   2.260  1.9400  1.0129  0.1116
   77MOL0     H10354  10.337   2.146   2.092 -0.4607 -1.8398  0.2138
   77MOL0     H10355  10.737   2.346   2.065 -1.6921  0.7171 -3.5859
   77MOL0     H10356  10.884   2.541   2.109  1.1805  1.4735  2.7894
   77MOL0     H10357  10.756   2.603   1.994  0.1193 -1.0549 -0.0574
   77MOL0     H10358  10.804   2.698   2.132  3.0741 -0.1691 -0.0323
   77MOL0     H10359  10.402   2.810   2.492 -4.5616  0.1627 -3.3990
   77MOL0     H10360  10.379   3.009   2.656  0.3002  3.7264  0.7483
   77MOL0     H10361  10.310   3.306   2.699  0.5547 -0.8958  0.0654
   77MOL0     H10362  10.419   3.190   2.781 -2.2641 -0.7540 -0.0174
   77MOL0     H10363  10.559   3.439   2.740 -0.5045  1.5847  2.2663
   77MOL0     H10364  10.398   3.481   2.793 -0.2126 -0.7686  1.4115
   77MOL0     H10365  10.589   3.437   2.965 -0.6792  1.5090 -3.2590
   77MOL0     H10366  10.552   3.264   2.941  0.7832 -0.5202 -4.5407
   77MOL0     H10367  10.345   3.449   3.011 -1.6144 -1.4992  0.0502
   77MOL0     H10368  10.318   3.280   2.970 -1.5654 -1.1652  1.5705
   77MOL0     H10369  10.306   3.316   3.227  0.2695  2.3441  1.8006
   77MOL0     H10370  10.472   3.393   3.217  1.3148  0.3558 -2.4841
   77MOL0     H10371  10.558   3.188   3.129 -0.5003  0.4861 -0.0960
   77MOL0     H10372  10.512   3.189   3.296 -0.5542  1.8340  0.5649
   77MOL0     H10373  10.384   3.077   3.055  1.0858  3.8768  0.6608
   77MOL0     H10374  10.280   3.084   3.197 -0.1394 -0.7806 -0.6431
   77MOL0     H10375  10.480   2.930   3.299 -2.9389  1.9874  1.0160
   77MOL0     H10376  10.522   2.900   3.128 -0.1279 -3.1176  1.4793
   77MOL0     H10377  10.596   3.256   2.376  1.0585 -0.7385  0.2057
   77MOL0     H10378  10.617   3.076   2.229  2.7194 -0.6910  0.7270
   77MOL0     H10379  10.404   2.569   2.362 -1.0545 -1.4537 -1.4684
   77MOL0     H10380  10.371   2.336   2.295  0.7615  0.5463  4.6300
   77MOL0     H10381  10.372   1.285   0.701  2.6209 -0.2553  2.3280
   77MOL0     H10382  10.395   1.236   0.448  1.0213 -1.2672 -0.7144
   77MOL0     H10383  10.144   0.873   0.110  0.1084 -1.5545 -1.4015
   77MOL0     H10384  10.171   0.855  -0.131  0.4751 -2.2686  1.7896
   77MOL0     H10385  10.539   1.066  -0.332 -0.4319 -0.2018 -0.5501
   77MOL0     H10386  10.602   0.910  -0.288  2.5863  1.6568 -2.7906
   77MOL0     H10387  10.412   0.952  -0.520 -0.5847  0.0157  0.5954
   77MOL0     H10388  10.489   0.804  -0.473  0.8406  0.4271 -2.6433
   77MOL0     H10389  10.669   1.039  -0.546 -3.3046  1.5547 -2.0419
   77MOL0     H10390  10.612   0.937  -0.669  0.6643  0.0968 -0.3896
   77MOL0     H10391  10.702   0.731  -0.560  0.3813  1.0221 -2.0987
   77MOL0     H10392  10.749   0.826  -0.420 -1.5132  0.2393  0.7869
   77MOL0     H10393  11.056   0.965  -0.664 -1.2306  0.1583 -0.6208
   77MOL0     H10394  10.560   1.050  -0.095  0.2888  0.3505  1.4693
   77MOL0     H10395  10.523   1.061   0.146  0.5986 -1.1064  0.2889
   78MOL0     O10396  11.140  11.275   3.452  0.1509  0.0900  0.3467
   78MOL0     C10397  11.213  11.370   3.483 -1.1397 -0.1657 -1.0136
   78MOL0     O10398  11.292  11.368   3.600  0.2023 -0.2910  0.1550
   78MOL0     C10399  11.284  11.269   3.695 -0.1448 -0.2844 -0.2071
   78MOL0     C10400  11.157  11.250   3.746 -0.0431  0.2829  0.0121
   78MOL0     C10401  11.148  11.187   3.870  0.0155  0.1854  0.0701
   78MOL0     C10402  11.259  11.114   3.919  0.6465 -0.3272  0.6043
   78MOL0     O10403  11.261  11.037   4.033  0.7012 -0.0441  0.3319
   78MOL0     C10404  11.143  11.018   4.111  0.0119 -0.2337 -0.1508
   78MOL0     C10405  11.055  10.916   4.052  0.8357 -0.7122  0.2677
   78MOL0     C10406  10.933  10.881   4.136  0.5420 -0.2129  0.1859
   78MOL0     C10407  10.826  10.992   4.135  0.4128 -0.8197  1.2723
   78MOL0     C10408  10.723  10.956   4.244  0.4379  0.0718 -0.8466
   78MOL0     C10409  10.597  10.889   4.195 -0.1807 -0.3356  0.5051
   78MOL0     C10410  10.538  10.951   4.072 -0.1945 -0.3336  0.5985
   78MOL0     C10411  10.401  10.892   4.046  0.1656  0.2165 -0.5246
   78MOL0     N10412  10.381  10.807   3.923 -0.7536  0.7718  0.1390
   78MOL0     C10413  10.416  10.848   3.794  0.7203 -0.5160 -0.3739
   78MOL0     C10414  10.339  10.762   3.726  0.6067  0.1038 -0.5078
   78MOL0     C10415  10.325  10.769   3.574  0.3474 -0.1714  0.2616
   78MOL0     C10416  10.204  10.851   3.530  0.3202 -0.3614 -0.2110
   78MOL0     C10417  10.060  10.810   3.608  0.5892  0.3556 -0.2271
   78MOL0     C10418  10.008  10.673   3.556  0.2378  0.2666 -0.8652
   78MOL0     O10419   9.929  10.694   3.438  0.6075  0.1101  0.7080
   78MOL0     C10420   9.983  10.680   3.312  0.5831 -0.0209  0.0025
   78MOL0     C10421   9.910  10.730   3.203 -0.3446 -0.5799  0.0973
   78MOL0     C10422   9.956  10.711   3.069  0.3547 -0.9825  0.1412
   78MOL0     C10423   9.854  10.748   2.966  0.3530  0.0358  0.3563
   78MOL0     C10424  10.081  10.656   3.043 -0.1465 -0.3830  0.4993
   78MOL0     C10425  10.125  10.632   2.909 -0.6193 -0.4885  0.2704
   78MOL0     O10426  10.263  10.650   2.884 -0.0662  0.8937 -0.3527
   78MOL0     C10427  10.309  10.636   2.753  0.3938 -0.9073  0.5721
   78MOL0     C10428  10.280  10.526   2.673 -0.7989  0.4911 -0.6551
   78MOL0     C10429  10.317  10.519   2.538 -0.0613 -0.0427 -1.0729
   78MOL0     C10430  10.379  10.629   2.474 -0.6094  0.3289 -0.2226
   78MOL0     O10431  10.442  10.616   2.351  0.2583  0.3571  0.6121
   78MOL0     C10432  10.394  10.509   2.261  0.5010 -0.7875 -0.0942
   78MOL0     C10433  10.486  10.521   2.140 -0.3974 -0.4579  0.6909
   78MOL0     C10434  10.484  10.671   2.082 -1.2151  1.0961  0.6183
   78MOL0     C10435  10.556  10.680   1.945 -0.1101  0.3934 -0.3288
   78MOL0     C10436  10.474  10.624   1.832  0.0191  0.1241  0.1495
   78MOL0     C10437  10.524  10.496   1.782 -0.5784  0.0368 -0.4597
   78MOL0     C10438  10.436  10.434   1.673  0.1826 -0.1424 -0.2639
   78MOL0     C10439  10.443  10.506   1.537  0.1827  0.2249  0.1846
   78MOL0    Cl10440  10.321  10.433   1.430 -0.4095  0.0744 -0.0157
   78MOL0     C10441  10.413  10.734   2.554  0.7368 -0.2511  0.1250
   78MOL0     C10442  10.374  10.742   2.689 -0.3874  0.0090 -1.0410
   78MOL0     O10443  10.047  10.571   2.830 -0.1249 -0.0232 -0.5513
   78MOL0     C10444  10.152  10.604   3.149 -0.1599 -0.0649 -0.4348
   78MOL0     C10445  10.108  10.619   3.282  0.2601 -0.4590 -0.0806
   78MOL0     N10446  10.282  10.668   3.806  0.1379  0.6799  0.1853
   78MOL0     N10447  10.303  10.698   3.926 -0.1133  0.2354 -0.4708
   78MOL0     C10448  11.384  11.126   3.852 -0.2007 -0.7968  0.6270
   78MOL0     C10449  11.403  11.215   3.745  0.0274 -0.1620  0.7825
   78MOL0     C10450  11.218  11.492   3.398 -0.6173  0.7334  1.1720
   78MOL0     C10451  11.273  11.616   3.446 -0.7079 -0.7434  0.9591
   78MOL0     C10452  11.280  11.726   3.366 -0.4860 -0.0757 -1.0288
   78MOL0     C10453  11.239  11.712   3.234  0.7793  0.2379 -0.4574
   78MOL0     O10454  11.252  11.824   3.150 -0.4408 -0.2325  0.1498
   78MOL0     C10455  11.190  11.953   3.189 -0.0386  0.7894 -0.0262
   78MOL0     C10456  11.040  11.949   3.162 -0.5731  0.7085  0.0503
   78MOL0     C10457  10.962  12.077   3.215  0.0543 -0.1066 -0.0166
   78MOL0     C10458  10.810  12.064   3.223 -0.1785  0.4528  0.0440
   78MOL0     C10459  10.748  12.076   3.091 -0.1619  0.3744 -0.3262
   78MOL0     C10460  10.691  12.084   2.975  0.0174 -0.4659 -1.3274
   78MOL0     C10461  11.195  11.591   3.179 -0.3078 -0.4665  0.3245
   78MOL0     C10462  11.188  11.472   3.256  0.3481 -0.3075  0.7289
   78MOL0     H10463  11.068  11.296   3.706  0.8583 -0.0518 -2.5746
   78MOL0     H10464  11.058  11.190   3.929  0.9144  0.1917  1.4809
   78MOL0     H10465  11.162  10.976   4.210 -1.2610 -0.7869 -0.1286
   78MOL0     H10466  11.086  11.111   4.119 -0.9799 -0.5491 -2.6268
   78MOL0     H10467  11.011  10.938   3.954 -0.3585 -0.4720  0.8398
   78MOL0     H10468  11.115  10.826   4.042 -0.8959 -2.7558  5.1942
   78MOL0     H10469  10.885  10.796   4.085  2.5170 -0.1053 -2.0536
   78MOL0     H10470  10.960  10.859   4.239 -2.2768 -0.6708  0.9148
   78MOL0     H10471  10.865  11.087   4.173 -0.0196 -0.5633  1.0800
   78MOL0     H10472  10.791  11.020   4.036 -1.2076  2.5804  2.6522
   78MOL0     H10473  10.773  10.899   4.323  1.1066 -1.7732 -2.5072
   78MOL0     H10474  10.695  11.054   4.283  4.1089  1.8161 -2.0747
   78MOL0     H10475  10.618  10.784   4.176  0.0154 -0.3982  1.0538
   78MOL0     H10476  10.523  10.890   4.275 -1.2011 -2.2527 -0.3673
   78MOL0     H10477  10.529  11.059   4.083  0.5347  0.2789 -3.3661
   78MOL0     H10478  10.612  10.942   3.992  0.4453  3.5742  0.5632
   78MOL0     H10479  10.336  10.979   4.033 -2.9263 -1.8219  0.3246
   78MOL0     H10480  10.359  10.850   4.138  1.1189  0.6317  0.1264
   78MOL0     H10481  10.486  10.927   3.769 -0.8222  1.5589  1.4489
   78MOL0     H10482  10.422  10.803   3.537 -0.4085  1.1883 -0.5713
   78MOL0     H10483  10.322  10.665   3.540  0.2719 -0.7333  1.9228
   78MOL0     H10484  10.192  10.857   3.422  0.8550  0.7623 -0.2209
   78MOL0     H10485  10.216  10.959   3.547 -0.3036 -0.6864  3.0871
   78MOL0     H10486   9.975  10.871   3.577 -0.9362 -1.6599 -0.2533
   78MOL0     H10487  10.082  10.816   3.715  3.3485  0.6311 -0.7351
   78MOL0     H10488   9.941  10.636   3.634  1.4716  1.4446  0.8310
   78MOL0     H10489  10.091  10.608   3.527  0.1425 -0.0499 -0.4303
   78MOL0     H10490   9.826  10.789   3.239  1.7309  1.2963  2.2801
   78MOL0     H10491   9.836  10.681   2.881 -2.0656 -3.7638  3.5343
   78MOL0     H10492   9.758  10.781   3.008  1.5638 -0.0246  3.4255
   78MOL0     H10493   9.905  10.830   2.915  1.3121 -1.2021 -0.7579
   78MOL0     H10494  10.244  10.434   2.718 -1.5984  1.6535  1.2485
   78MOL0     H10495  10.301  10.429   2.481  0.9549 -0.5263 -0.6275
   78MOL0     H10496  10.414  10.409   2.299 -0.7849 -1.3074 -0.7612
   78MOL0     H10497  10.287  10.522   2.247  0.1867 -3.0148  0.0098
   78MOL0     H10498  10.587  10.487   2.166 -0.8350 -1.1318  1.5834
   78MOL0     H10499  10.448  10.458   2.058 -0.4755  1.5796 -0.9178
   78MOL0     H10500  10.528  10.743   2.151  1.0001  0.8181 -0.4061
   78MOL0     H10501  10.381  10.694   2.053 -1.2414 -0.8907 -1.1543
   78MOL0     H10502  10.575  10.787   1.935  0.4586  0.4680  1.2647
   78MOL0     H10503  10.653  10.630   1.939  0.1059  0.8897 -1.1605
   78MOL0     H10504  10.477  10.688   1.744 -1.1122 -0.5280 -0.3926
   78MOL0     H10505  10.370  10.606   1.861 -0.5949 -1.7972 -2.7954
   78MOL0     H10506  10.627  10.510   1.746 -0.2358  1.6952  1.0223
   78MOL0     H10507  10.522  10.427   1.867  0.4833  2.4559  1.6410
   78MOL0     H10508  10.334  10.455   1.707  0.6175  0.1942  0.8730
   78MOL0     H10509  10.449  10.325   1.663 -1.0443 -0.2263 -1.3724
   78MOL0     H10510  10.540  10.478   1.495 -0.9879 -0.7666 -1.9695
   78MOL0     H10511  10.426  10.614   1.549 -0.3156  0.0423  1.2644
   78MOL0     H10512  10.481  10.812   2.522 -1.0795  0.3234 -2.8007
   78MOL0     H10513  10.415  10.824   2.749 -0.0692  0.3090 -1.6511
   78MOL0     H10514  10.248  10.556   3.135 -0.0903 -0.5543  1.4350
   78MOL0     H10515  10.166  10.575   3.363 -3.0809 -0.5541  2.4928
   78MOL0     H10516  11.461  11.061   3.892  1.2532  1.4742  1.6474
   78MOL0     H10517  11.503  11.230   3.706 -1.2704  2.3032 -2.0022
   78MOL0     H10518  11.300  11.634   3.549 -1.2779  3.2720  0.5684
   78MOL0     H10519  11.308  11.824   3.403  0.8126 -0.0147 -2.1230
   78MOL0     H10520  11.218  11.979   3.292 -0.7694  0.0119  0.3861
   78MOL0     H10521  11.245  12.025   3.129  1.9202 -0.5846 -0.0086
   78MOL0     H10522  11.000  11.855   3.200  1.5055  0.7058  2.5255
   78MOL0     H10523  11.021  11.956   3.055 -1.4279  2.1085  0.2594
   78MOL0     H10524  10.993  12.160   3.151  0.3278 -1.0362 -1.1169
   78MOL0     H10525  10.995  12.099   3.318  3.0636 -1.0264 -0.6774
   78MOL0     H10526  10.772  12.148   3.281  1.6603  1.2360  0.1563
   78MOL0     H10527  10.790  11.965   3.266 -0.6343 -0.2806 -1.7298
   78MOL0     H10528  10.648  12.084   2.877 -4.7504 -2.6220  0.4890
   78MOL0     H10529  11.180  11.582   3.072 -1.3237  2.3934  0.1321
   78MOL0     H10530  11.145  11.383   3.211 -1.7774  1.2425 -0.4741
   79MOL0     O10531   3.087  11.439   9.755 -0.2553 -0.7282  0.0311
   79MOL0     C10532   3.125  11.512   9.665 -0.6957 -0.6145  1.2063
   79MOL0     O10533   3.073  11.510   9.537 -0.5777  0.0859  0.2999
   79MOL0     C10534   2.954  11.445   9.522  0.3679 -0.7666 -0.6227
   79MOL0     C10535   2.946  11.306   9.510 -0.2264 -0.3233 -0.9074
   79MOL0     C10536   2.819  11.255   9.481 -0.2300  0.4501 -0.2675
   79MOL0     C10537   2.701  11.334   9.488  0.3402  0.8700  0.5876
   79MOL0     O10538   2.579  11.275   9.468 -0.4710 -0.7521  0.4355
   79MOL0     C10539   2.564  11.179   9.370  0.8177  0.6444  0.1358
   79MOL0     C10540   2.523  11.045   9.439  0.4518  0.0039 -0.0316
   79MOL0     C10541   2.553  10.905   9.370 -0.0497  0.1824 -1.1257
   79MOL0     C10542   2.523  10.897   9.216 -0.1007 -0.5970 -0.6574
   79MOL0     C10543   2.379  10.871   9.183 -0.0293 -0.3352 -0.3236
   79MOL0     C10544   2.378  10.855   9.030 -0.2893 -0.2795  0.0204
   79MOL0     C10545   2.228  10.841   8.984 -0.6616  0.3862 -0.6382
   79MOL0     C10546   2.206  10.723   8.888  0.0178 -0.0331 -0.4274
   79MOL0     N10547   2.071  10.712   8.851 -0.0230  0.2320  0.1225
   79MOL0     C10548   1.962  10.701   8.927  1.7401  0.8044 -0.1272
   79MOL0     C10549   1.861  10.705   8.831  0.0360  0.5415 -0.9415
   79MOL0     C10550   1.718  10.702   8.851 -0.0010 -0.0379  1.1676
   79MOL0     C10551   1.673  10.655   8.993 -0.2588 -0.3018  0.1293
   79MOL0     C10552   1.525  10.609   9.002 -0.2993 -0.1344  0.7191
   79MOL0     C10553   1.436  10.721   8.954 -0.1655  0.3897  0.2874
   79MOL0     O10554   1.315  10.715   9.028 -0.4521 -0.2781  1.0472
   79MOL0     C10555   1.203  10.643   8.975 -0.8340 -0.4344  0.2851
   79MOL0     C10556   1.089  10.638   9.064 -1.1562 -0.3687  0.2067
   79MOL0     C10557   0.974  10.573   9.023  0.9811  0.2578 -0.2085
   79MOL0     C10558   0.867  10.574   9.129  0.4511 -0.2762  0.1443
   79MOL0     C10559   0.962  10.498   8.901 -0.9696  0.5206  0.7654
   79MOL0     C10560   0.839  10.436   8.843  0.1386  1.2106  0.1376
   79MOL0     O10561   0.856  10.397   8.707 -0.5873  0.4235  0.0582
   79MOL0     C10562   0.743  10.361   8.647  0.0583 -0.0887 -0.2518
   79MOL0     C10563   0.715  10.223   8.660 -0.2401 -0.5046 -0.9919
   79MOL0     C10564   0.598  10.171   8.612 -0.9693  0.3812  0.9725
   79MOL0     C10565   0.502  10.254   8.552  0.0208 -0.1644  0.7969
   79MOL0     O10566   0.376  10.196   8.525  0.6310 -0.3447  0.0094
   79MOL0     C10567   0.270  10.283   8.474 -0.0723 -0.7161 -0.6913
   79MOL0     C10568   0.266  10.332   8.326 -0.2665  0.4162 -0.9089
   79MOL0     C10569   0.143  10.421   8.306 -0.1329 -0.3775  0.7113
   79MOL0     C10570   0.133  10.471   8.157  0.1432 -0.2879 -0.1037
   79MOL0     C10571   0.067  10.611   8.138 -0.1272 -0.4284 -0.2274
   79MOL0     C10572   0.019  10.625   7.997  0.1613  1.1628  0.1174
   79MOL0     C10573  -0.039  10.756   7.969  1.2821 -1.3580  0.5428
   79MOL0     C10574   0.051  10.879   7.970 -0.5310 -0.4784 -0.2301
   79MOL0    Cl10575  -0.052  11.016   7.923 -0.3121 -0.4962  0.2419
   79MOL0     C10576   0.531  10.395   8.535 -0.0161 -0.9709 -0.6362
   79MOL0     C10577   0.651  10.447   8.580  0.7842 -0.0036 -0.5522
   79MOL0     O10578   0.738  10.414   8.908  0.2986  0.4104 -0.0092
   79MOL0     C10579   1.077  10.507   8.818 -0.5386  0.0140  0.0913
   79MOL0     C10580   1.190  10.577   8.855 -1.0711 -0.7170 -0.4540
   79MOL0     N10581   1.913  10.720   8.701  0.1648  0.3810  0.6966
   79MOL0     N10582   2.036  10.717   8.717 -0.8814 -0.1679  0.0187
   79MOL0     C10583   2.709  11.468   9.511 -0.0064 -0.6723  1.7221
   79MOL0     C10584   2.835  11.526   9.522  0.4271  0.4017 -0.4684
   79MOL0     C10585   3.240  11.605   9.689 -0.5953 -0.0729  0.4265
   79MOL0     C10586   3.282  11.680   9.580  0.0518  0.5014 -0.0494
   79MOL0     C10587   3.380  11.778   9.593 -0.3065  0.5122 -1.0760
   79MOL0     C10588   3.435  11.804   9.716  0.2838  0.0447 -0.0225
   79MOL0     O10589   3.540  11.895   9.708 -0.1961 -0.5652  0.2698
   79MOL0     C10590   3.600  11.912   9.832 -0.1039 -0.8236 -0.1189
   79MOL0     C10591   3.737  11.980   9.813 -0.4606  0.4000  0.4870
   79MOL0     C10592   3.799  12.028   9.949  0.4610 -0.0848  0.1777
   79MOL0     C10593   3.948  12.065   9.914 -0.0041 -0.5980  0.6204
   79MOL0     C10594   4.012  12.061  10.044  1.2476  0.1941  0.1531
   79MOL0     C10595   4.078  12.047  10.137 -0.3575  0.0357 -0.3223
   79MOL0     C10596   3.399  11.718   9.830  0.0378  0.6903  0.4230
   79MOL0     C10597   3.296  11.620   9.812 -0.4378 -0.5349 -0.0280
   79MOL0     H10598   3.026  11.233   9.519 -1.2357 -1.2288  1.3144
   79MOL0     H10599   2.824  11.147   9.472  1.7738  0.5548 -0.9075
   79MOL0     H10600   2.478  11.211   9.310 -0.8617  0.3289  2.2401
   79MOL0     H10601   2.648  11.165   9.303 -0.0364  2.6986 -1.5054
   79MOL0     H10602   2.570  11.052   9.538  0.5600  1.4710 -0.1612
   79MOL0     H10603   2.416  11.043   9.463  0.0321  0.9276 -1.6814
   79MOL0     H10604   2.660  10.882   9.384 -1.3000 -7.1123  0.8816
   79MOL0     H10605   2.508  10.824   9.428  0.2009 -1.0591 -2.6051
   79MOL0     H10606   2.543  10.989   9.160  1.6626 -1.3374 -1.3399
   79MOL0     H10607   2.593  10.820   9.182 -1.5441 -1.5147 -1.6584
   79MOL0     H10608   2.350  10.779   9.234 -2.6609 -0.2737 -1.5118
   79MOL0     H10609   2.311  10.947   9.223 -0.1479 -2.2922  3.6795
   79MOL0     H10610   2.430  10.935   8.976  0.5655 -3.5250 -4.6050
   79MOL0     H10611   2.434  10.768   8.995  2.5445  0.7561  1.6596
   79MOL0     H10612   2.166  10.830   9.074  2.3076  1.5224  1.7513
   79MOL0     H10613   2.199  10.931   8.931  0.1657 -0.2991 -2.3072
   79MOL0     H10614   2.227  10.625   8.933 -0.6982 -0.2516 -0.5675
   79MOL0     H10615   2.278  10.737   8.807 -0.6828  0.0472 -1.0485
   79MOL0     H10616   1.948  10.703   9.035  1.9905  2.6740 -0.0832
   79MOL0     H10617   1.681  10.804   8.837 -0.0555 -0.2240 -0.1614
   79MOL0     H10618   1.670  10.642   8.774  0.0490 -0.4248  1.4326
   79MOL0     H10619   1.696  10.738   9.060  0.3103 -1.0056  0.8145
   79MOL0     H10620   1.734  10.568   9.017  2.5066  1.3011 -0.6921
   79MOL0     H10621   1.506  10.570   9.102  1.7470 -1.8843  0.4833
   79MOL0     H10622   1.500  10.524   8.939 -1.1056  0.2290  0.5413
   79MOL0     H10623   1.427  10.727   8.845  2.7013  2.0215  0.0331
   79MOL0     H10624   1.477  10.820   8.979  0.1793  0.7751 -1.6259
   79MOL0     H10625   1.096  10.688   9.160  0.9888 -0.7826  0.3151
   79MOL0     H10626   0.802  10.659   9.109 -1.7516 -2.2442 -1.7706
   79MOL0     H10627   0.813  10.479   9.118  2.5154 -1.4473 -0.6539
   79MOL0     H10628   0.910  10.581   9.230  0.6464  1.2326 -0.0291
   79MOL0     H10629   0.785  10.162   8.716 -0.3254 -0.2271 -0.5756
   79MOL0     H10630   0.565  10.069   8.630 -4.3016  1.4068  1.2990
   79MOL0     H10631   0.188  10.212   8.490 -0.3836 -0.3731 -0.7432
   79MOL0     H10632   0.254  10.372   8.535 -2.5846  0.3020 -2.6623
   79MOL0     H10633   0.356  10.381   8.288  0.0170  0.2996 -0.4053
   79MOL0     H10634   0.250  10.242   8.266  0.6226  0.5726 -1.3951
   79MOL0     H10635   0.142  10.506   8.374  1.0901  0.9369 -0.8318
   79MOL0     H10636   0.060  10.351   8.320 -0.3386 -0.9612 -2.6127
   79MOL0     H10637   0.222  10.474   8.093 -1.8919 -0.4428 -3.1574
   79MOL0     H10638   0.066  10.401   8.106  0.2707  0.0570 -0.7563
   79MOL0     H10639   0.143  10.687   8.158  0.8370 -0.8566 -2.0231
   79MOL0     H10640  -0.021  10.624   8.202 -0.6362 -0.6618 -0.8661
   79MOL0     H10641   0.111  10.612   7.939  1.2605  1.0478  1.8179
   79MOL0     H10642  -0.055  10.547   7.979  1.7294 -1.7044  4.3057
   79MOL0     H10643  -0.115  10.775   8.045  1.4835 -2.7569  1.1400
   79MOL0     H10644  -0.085  10.755   7.870  1.1818  0.3834  0.5505
   79MOL0     H10645   0.135  10.862   7.902 -1.1846 -3.2141 -0.4564
   79MOL0     H10646   0.095  10.898   8.068  1.6949 -0.7761 -1.1061
   79MOL0     H10647   0.459  10.450   8.475 -1.4062 -0.7043  1.1832
   79MOL0     H10648   0.659  10.555   8.590  0.5994 -0.0941  0.7877
   79MOL0     H10649   1.079  10.458   8.721  1.9188 -2.4456  1.2179
   79MOL0     H10650   1.277  10.569   8.790 -0.2701 -0.1149  0.5081
   79MOL0     H10651   2.622  11.531   9.516  0.3581  0.3480 -1.9697
   79MOL0     H10652   2.834  11.634   9.533 -3.5164  0.2741  2.5068
   79MOL0     H10653   3.241  11.664   9.480  0.8885 -2.8328  0.0218
   79MOL0     H10654   3.414  11.841   9.511  3.2995 -1.4415 -1.3136
   79MOL0     H10655   3.526  11.978   9.880 -0.8023 -3.8765  3.4641
   79MOL0     H10656   3.616  11.818   9.885  0.6639 -1.8863 -2.1176
   79MOL0     H10657   3.740  12.061   9.739 -0.3877 -0.5063 -0.5390
   79MOL0     H10658   3.810  11.907   9.776  0.4240  0.4436  2.0649
   79MOL0     H10659   3.785  11.941  10.013 -5.0153 -0.7820 -1.4917
   79MOL0     H10660   3.746  12.116   9.986 -0.4049 -1.0146  1.1974
   79MOL0     H10661   3.969  12.165   9.875 -3.2688  0.3682  1.0775
   79MOL0     H10662   3.992  11.996   9.842 -0.6193 -0.5147  0.1588
   79MOL0     H10663   4.144  12.044  10.221 -0.3345  0.2975 -0.3315
   79MOL0     H10664   3.448  11.714   9.926  1.2858  1.2360 -0.1738
   79MOL0     H10665   3.277  11.552   9.895 -2.0893 -0.2571 -0.1363
   80MOL0     O10666   8.665   3.895   9.942  0.0630  0.0813 -0.4260
   80MOL0     C10667   8.644   3.836  10.048  0.2384  0.0151  0.5193
   80MOL0     O10668   8.652   3.889  10.182 -0.4006  0.1345  0.5053
   80MOL0     C10669   8.676   4.022  10.204 -0.0800 -0.4743 -0.9993
   80MOL0     C10670   8.669   4.140  10.115 -0.8752  0.1410 -0.4675
   80MOL0     C10671   8.711   4.259  10.168  0.4583  0.0030  0.9328
   80MOL0     C10672   8.738   4.278  10.296 -0.0566  0.2264 -0.5326
   80MOL0     O10673   8.759   4.408  10.340 -0.3383  0.5836  0.6680
   80MOL0     C10674   8.755   4.440  10.478  0.0519 -0.3593  0.0131
   80MOL0     C10675   8.710   4.592  10.472  0.6804  1.2125  0.8808
   80MOL0     C10676   8.553   4.601  10.447 -0.9877 -0.1221  0.3737
   80MOL0     C10677   8.520   4.731  10.384  0.3301 -0.4182  0.8295
   80MOL0     C10678   8.366   4.759  10.389 -0.1987  0.3581  0.4856
   80MOL0     C10679   8.319   4.862  10.295  0.3081 -0.2395  0.1476
   80MOL0     C10680   8.172   4.906  10.314 -0.5316 -0.1832 -0.5921
   80MOL0     C10681   8.077   4.791  10.290 -0.7782 -0.0677 -0.2262
   80MOL0     N10682   7.949   4.807  10.354  0.3609  0.8036 -0.7042
   80MOL0     C10683   7.831   4.875  10.319  0.0092  0.2973 -0.3139
   80MOL0     C10684   7.743   4.861  10.424 -0.4723  0.0655  0.3130
   80MOL0     C10685   7.608   4.927  10.438 -0.9182 -0.4706 -0.1588
   80MOL0     C10686   7.512   4.873  10.330  0.6452  1.3915 -0.6070
   80MOL0     C10687   7.370   4.906  10.380  0.1539  0.7939  0.9406
   80MOL0     C10688   7.263   4.887  10.279 -0.1647 -0.0647 -0.5450
   80MOL0     O10689   7.286   4.987  10.177  0.9051  0.1434 -0.3625
   80MOL0     C10690   7.213   4.982  10.066 -0.0793  0.0169  0.6392
   80MOL0     C10691   7.127   4.876  10.033  0.0549 -0.3813  0.7468
   80MOL0     C10692   7.046   4.885   9.920  0.6752 -0.1386 -0.3403
   80MOL0     C10693   6.965   4.758   9.894  0.8995 -0.1534 -0.5168
   80MOL0     C10694   7.057   4.991   9.827  0.5450 -0.2896  0.9320
   80MOL0     C10695   6.987   4.996   9.695 -0.3131  0.2795  0.2244
   80MOL0     O10696   6.996   5.109   9.624  0.7908 -0.7435  0.4459
   80MOL0     C10697   6.888   5.148   9.540 -0.2123 -0.1146  0.2580
   80MOL0     C10698   6.817   5.260   9.582 -1.3717 -0.3321 -0.3232
   80MOL0     C10699   6.720   5.324   9.515  0.7382 -0.1611  0.5515
   80MOL0     C10700   6.688   5.264   9.395  0.7571  0.5313  0.0439
   80MOL0     O10701   6.591   5.325   9.321 -0.7193  0.4114  0.5106
   80MOL0     C10702   6.462   5.272   9.346 -0.2873 -0.1014 -0.1183
   80MOL0     C10703   6.373   5.366   9.272  0.6193 -0.9804 -0.0583
   80MOL0     C10704   6.230   5.329   9.300  0.3773 -0.8721  0.3127
   80MOL0     C10705   6.135   5.417   9.209 -0.3516  0.2623 -0.6207
   80MOL0     C10706   5.995   5.354   9.216  0.0013 -0.8437  0.5069
   80MOL0     C10707   5.903   5.401   9.102 -0.2476  0.8073  1.3472
   80MOL0     C10708   5.813   5.524   9.150 -0.0544 -0.2379  0.1406
   80MOL0     C10709   5.745   5.586   9.029 -0.3676  0.7515 -0.3631
   80MOL0    Cl10710   5.645   5.728   9.069  0.3342 -0.2909 -0.1831
   80MOL0     C10711   6.757   5.157   9.338 -0.0649 -0.6302  0.2614
   80MOL0     C10712   6.861   5.098   9.409  0.1327 -0.4034  0.1364
   80MOL0     O10713   6.928   4.892   9.655  0.6260 -0.1832 -0.3622
   80MOL0     C10714   7.158   5.085   9.856  0.6673 -0.2191  0.7550
   80MOL0     C10715   7.228   5.082   9.969 -0.1526 -1.2574 -0.7076
   80MOL0     N10716   7.803   4.769  10.516  0.0253  0.7612 -0.4959
   80MOL0     N10717   7.922   4.742  10.469  0.0928  0.0781 -0.0551
   80MOL0     C10718   8.753   4.164  10.380 -0.7807 -0.5535 -0.0034
   80MOL0     C10719   8.725   4.041  10.334 -0.2217 -0.3654  0.6770
   80MOL0     C10720   8.587   3.703  10.033 -0.0314  0.9369  0.4280
   80MOL0     C10721   8.624   3.629   9.922 -0.7847 -0.7826 -0.1090
   80MOL0     C10722   8.562   3.505   9.900 -0.5575  0.5535  0.0744
   80MOL0     C10723   8.459   3.454   9.987 -0.0714  0.8763  1.3567
   80MOL0     O10724   8.393   3.336   9.971 -0.8324  0.0360 -0.2212
   80MOL0     C10725   8.453   3.244   9.882 -0.6083  0.0859  0.2607
   80MOL0     C10726   8.354   3.131   9.859 -1.1490  0.0443  0.1972
   80MOL0     C10727   8.286   3.154   9.720 -0.0898  1.2362  0.0355
   80MOL0     C10728   8.152   3.083   9.725 -0.4081  0.1643  0.0577
   80MOL0     C10729   8.053   3.137   9.621 -0.7695 -0.3165 -0.1842
   80MOL0     C10730   7.990   3.205   9.548 -0.4651 -0.3677  0.5552
   80MOL0     C10731   8.414   3.535  10.093  0.0859 -1.2135  0.3569
   80MOL0     C10732   8.477   3.657  10.119 -0.0503  0.8613 -0.4107
   80MOL0     H10733   8.622   4.124  10.019 -1.2918 -0.0619 -0.2346
   80MOL0     H10734   8.707   4.339  10.094 -0.8173 -1.7054 -0.9646
   80MOL0     H10735   8.686   4.380  10.538 -2.3576  1.8101 -0.4174
   80MOL0     H10736   8.858   4.432  10.515 -0.0516  0.9257  0.5876
   80MOL0     H10737   8.733   4.635  10.570  2.7152  2.3702 -0.0440
   80MOL0     H10738   8.771   4.650  10.402 -0.0380 -2.0314 -2.7641
   80MOL0     H10739   8.520   4.510  10.397 -1.5188  0.2087  0.1176
   80MOL0     H10740   8.499   4.591  10.542 -0.2061 -1.6107  0.6992
   80MOL0     H10741   8.570   4.817  10.431 -0.9754  0.0873  1.3247
   80MOL0     H10742   8.539   4.726  10.276  1.0177  1.3715  0.8242
   80MOL0     H10743   8.321   4.664  10.359  1.4722 -0.0197 -0.9980
   80MOL0     H10744   8.325   4.782  10.488 -3.3618  0.2043 -0.6843
   80MOL0     H10745   8.377   4.953  10.314  1.6201 -1.0846  0.2472
   80MOL0     H10746   8.347   4.843  10.191 -2.6619  0.2551 -0.8353
   80MOL0     H10747   8.153   4.933  10.418 -1.5629 -0.8348 -0.5884
   80MOL0     H10748   8.141   4.995  10.258 -3.3565 -2.0997 -2.3742
   80MOL0     H10749   8.114   4.693  10.319 -1.2905 -1.1756 -2.9922
   80MOL0     H10750   8.050   4.782  10.184 -0.8204  0.0147 -0.2233
   80MOL0     H10751   7.825   4.945  10.236  0.8319  1.9087  0.9474
   80MOL0     H10752   7.571   4.915  10.541 -2.7929 -1.5611 -0.9151
   80MOL0     H10753   7.616   5.035  10.426 -2.8691 -0.1879  0.6547
   80MOL0     H10754   7.521   4.764  10.322  1.7358  1.4179  0.0987
   80MOL0     H10755   7.535   4.909  10.230  0.8822 -0.5498 -1.2865
   80MOL0     H10756   7.354   5.005  10.422 -0.2103  1.1899 -0.0807
   80MOL0     H10757   7.344   4.833  10.457 -0.0173  0.4497  0.5623
   80MOL0     H10758   7.165   4.902  10.326  1.2283 -1.1815  3.0964
   80MOL0     H10759   7.284   4.784  10.251  2.6871  1.1234 -3.4686
   80MOL0     H10760   7.113   4.787  10.092  0.4209 -2.6878 -2.3737
   80MOL0     H10761   6.857   4.771   9.902  1.1134  0.8830  1.0462
   80MOL0     H10762   6.999   4.711   9.801 -2.0887 -0.6080 -1.4840
   80MOL0     H10763   6.992   4.689   9.975  1.1537 -1.0295 -1.3319
   80MOL0     H10764   6.846   5.306   9.676  4.1561 -2.1183 -0.8192
   80MOL0     H10765   6.684   5.419   9.552  0.3965  0.3140 -0.9307
   80MOL0     H10766   6.457   5.171   9.305  1.8154 -0.2119 -0.2145
   80MOL0     H10767   6.434   5.288   9.451 -1.2997  3.2682 -0.7606
   80MOL0     H10768   6.396   5.470   9.293 -0.7920 -0.5550 -0.5495
   80MOL0     H10769   6.388   5.338   9.167 -2.9624 -0.6008 -0.8062
   80MOL0     H10770   6.188   5.341   9.400 -2.2703 -1.6153 -0.6168
   80MOL0     H10771   6.223   5.225   9.266 -1.5064 -0.5079 -0.5702
   80MOL0     H10772   6.130   5.518   9.252  0.0541 -0.7063  1.8531
   80MOL0     H10773   6.166   5.432   9.105  1.7115 -0.4068 -0.1333
   80MOL0     H10774   5.953   5.380   9.313  1.2595  1.5658  0.4899
   80MOL0     H10775   5.993   5.245   9.209  0.3929 -0.8241 -0.0104
   80MOL0     H10776   5.948   5.428   9.007 -3.3696  0.0860 -0.4766
   80MOL0     H10777   5.831   5.321   9.081 -1.0778  1.1438  2.7362
   80MOL0     H10778   5.876   5.604   9.190  1.0195 -1.4868  1.0275
   80MOL0     H10779   5.735   5.503   9.224  0.4638 -0.7924  0.5404
   80MOL0     H10780   5.675   5.516   8.983 -4.1310  3.8428  0.1444
   80MOL0     H10781   5.814   5.612   8.949  2.3896 -0.2575  1.5185
   80MOL0     H10782   6.736   5.118   9.239  3.0820 -1.2146 -0.2741
   80MOL0     H10783   6.921   5.010   9.388  1.9885  0.8514 -0.1303
   80MOL0     H10784   7.181   5.162   9.782  2.3948 -0.3073  1.1591
   80MOL0     H10785   7.305   5.158   9.973 -2.1634  1.0416 -2.9711
   80MOL0     H10786   8.769   4.163  10.487  1.0584 -3.2484 -0.1904
   80MOL0     H10787   8.728   3.950  10.392 -2.9250 -0.6119  0.5415
   80MOL0     H10788   8.708   3.667   9.865 -1.0278  1.9311  1.1687
   80MOL0     H10789   8.608   3.444   9.823  0.2715 -0.3609  1.2541
   80MOL0     H10790   8.477   3.297   9.790 -2.4620  1.5073  0.5449
   80MOL0     H10791   8.549   3.201   9.913  0.6619  0.3150 -2.9861
   80MOL0     H10792   8.275   3.135   9.934 -0.6883 -1.7147  0.8235
   80MOL0     H10793   8.402   3.033   9.866 -1.7741 -0.4354 -1.6713
   80MOL0     H10794   8.334   3.108   9.633 -0.7774  0.5360  0.0164
   80MOL0     H10795   8.280   3.261   9.696 -0.5839  0.9452 -1.2297
   80MOL0     H10796   8.105   3.100   9.822  0.4130  0.0501  0.4866
   80MOL0     H10797   8.180   2.977   9.725 -1.3446 -0.0931  1.2007
   80MOL0     H10798   7.944   3.262   9.470  2.2466  1.2457 -0.0075
   80MOL0     H10799   8.349   3.496  10.170  0.5144 -1.2180  0.7228
   80MOL0     H10800   8.439   3.716  10.202 -1.9238 -0.9307  0.1016
   81MOL0     O10801   7.090   5.550  10.844 -0.0736  0.4340 -0.2170
   81MOL0     C10802   7.066   5.665  10.877  0.5090  0.1406  0.3240
   81MOL0     O10803   7.122   5.769  10.830  0.0588 -0.5579  0.8132
   81MOL0     C10804   7.201   5.759  10.720 -0.4938 -0.0831  0.1804
   81MOL0     C10805   7.289   5.652  10.692  0.3352 -0.4787  0.0265
   81MOL0     C10806   7.374   5.668  10.579  0.3456 -0.4535 -0.6585
   81MOL0     C10807   7.378   5.789  10.512  0.4612 -0.9095 -0.2716
   81MOL0     O10808   7.478   5.807  10.423 -1.0237  0.0626 -0.1307
   81MOL0     C10809   7.425   5.845  10.297  0.0497 -0.4150  0.2870
   81MOL0     C10810   7.504   5.789  10.187 -0.2480  0.4871  0.5689
   81MOL0     C10811   7.514   5.638  10.206  0.7947  1.2607  0.8794
   81MOL0     C10812   7.634   5.603  10.281  0.8461 -0.0749  0.3469
   81MOL0     C10813   7.712   5.485  10.224 -0.0988 -0.3716  0.7233
   81MOL0     C10814   7.632   5.354  10.236 -0.3923  0.1221 -0.8072
   81MOL0     C10815   7.730   5.234  10.220 -0.3620 -0.1796 -0.0032
   81MOL0     C10816   7.831   5.223  10.099  0.6107 -0.1476 -0.3397
   81MOL0     N10817   7.774   5.205   9.963 -0.8760  0.1968  0.7187
   81MOL0     C10818   7.859   5.221   9.855 -0.0391  0.5804  0.0720
   81MOL0     C10819   7.781   5.195   9.749 -0.2162  0.7113 -0.1470
   81MOL0     C10820   7.804   5.176   9.603 -0.2103  0.8576  0.0661
   81MOL0     C10821   7.926   5.254   9.544  1.1088 -0.4198  0.4504
   81MOL0     C10822   7.905   5.288   9.402 -0.5286 -1.0582  0.5039
   81MOL0     C10823   8.005   5.394   9.351 -0.3207 -0.0931  0.5202
   81MOL0     O10824   8.135   5.336   9.378  0.3642  0.7809 -0.2172
   81MOL0     C10825   8.245   5.400   9.322  0.3874  0.6371 -0.2113
   81MOL0     C10826   8.233   5.531   9.280  0.2685  0.1205 -0.8672
   81MOL0     C10827   8.338   5.605   9.222  0.5009 -1.1380  0.1954
   81MOL0     C10828   8.307   5.737   9.155 -0.1222  0.2388 -1.2138
   81MOL0     C10829   8.470   5.551   9.224 -0.1786  0.1600  0.7062
   81MOL0     C10830   8.584   5.612   9.150 -0.6306  0.3753  0.0392
   81MOL0     O10831   8.687   5.527   9.130 -0.2912 -0.2473 -0.0789
   81MOL0     C10832   8.809   5.578   9.096  0.1938 -0.4180  0.6256
   81MOL0     C10833   8.872   5.690   9.154  0.1847  0.1706  0.2324
   81MOL0     C10834   8.997   5.726   9.119 -0.7030 -0.0070  0.1426
   81MOL0     C10835   9.070   5.645   9.031  0.1397 -0.0496 -1.8972
   81MOL0     O10836   9.189   5.683   8.985  0.4398  0.2538  0.5218
   81MOL0     C10837   9.255   5.812   8.996  1.1266 -0.4961  0.2735
   81MOL0     C10838   9.333   5.845   8.865  0.0335  0.2022  0.0751
   81MOL0     C10839   9.420   5.975   8.879 -0.4091 -0.0849 -0.2031
   81MOL0     C10840   9.498   6.011   8.740  0.8388 -0.5513 -0.1040
   81MOL0     C10841   9.621   6.096   8.773  0.2477 -0.4728  0.3126
   81MOL0     C10842   9.586   6.233   8.824 -0.1979  0.3341 -0.8046
   81MOL0     C10843   9.704   6.333   8.837  0.2215 -0.1658 -0.5095
   81MOL0     C10844   9.669   6.454   8.941 -0.3542  0.6612 -0.0413
   81MOL0    Cl10845   9.795   6.574   8.945  0.0667  0.2180  0.5025
   81MOL0     C10846   9.014   5.523   8.990  0.8893  0.4798  1.0717
   81MOL0     C10847   8.883   5.491   9.024  0.2412 -1.3745 -0.4721
   81MOL0     O10848   8.584   5.730   9.136  0.4516 -0.5527  0.7938
   81MOL0     C10849   8.483   5.424   9.280  0.3772  0.0779 -0.5651
   81MOL0     C10850   8.373   5.344   9.325  0.5288  0.0224 -0.1404
   81MOL0     N10851   7.654   5.153   9.793 -0.8300 -0.6202 -0.4227
   81MOL0     N10852   7.653   5.165   9.921  0.3315 -0.3199 -0.0098
   81MOL0     C10853   7.290   5.893  10.542 -0.1907 -0.5828  0.5843
   81MOL0     C10854   7.200   5.872  10.638  0.1711 -0.3685 -0.7688
   81MOL0     C10855   6.969   5.687  10.983 -0.0546  1.4711 -0.0574
   81MOL0     C10856   6.937   5.816  11.033  0.5710 -0.0479  1.1660
   81MOL0     C10857   6.854   5.832  11.140 -0.0079 -0.8662 -0.0829
   81MOL0     C10858   6.771   5.726  11.177  0.7094  0.5838  0.4276
   81MOL0     O10859   6.690   5.724  11.288  0.2908 -0.5498 -0.0966
   81MOL0     C10860   6.717   5.814  11.396  0.6201  0.1799 -0.1871
   81MOL0     C10861   6.617   5.792  11.503  0.0195 -0.5218 -0.2886
   81MOL0     C10862   6.671   5.668  11.569 -0.7766  0.1910 -0.7803
   81MOL0     C10863   6.588   5.612  11.683  0.1157 -0.3404 -0.1962
   81MOL0     C10864   6.595   5.686  11.809  1.0547 -0.1644 -0.6609
   81MOL0     C10865   6.572   5.771  11.891 -0.7438 -0.1144 -0.0509
   81MOL0     C10866   6.796   5.593  11.121  0.2065 -0.3147 -0.3580
   81MOL0     C10867   6.890   5.573  11.031  0.0042  0.9073  0.1661
   81MOL0     H10868   7.305   5.563  10.751 -0.2943 -1.6691 -1.5424
   81MOL0     H10869   7.441   5.587  10.553  0.2278 -0.6176 -0.4488
   81MOL0     H10870   7.319   5.824  10.275  0.8772 -1.7453 -3.0239
   81MOL0     H10871   7.432   5.951  10.274 -1.5577 -0.0188  1.4538
   81MOL0     H10872   7.464   5.807  10.087  2.5644  1.2305 -0.5117
   81MOL0     H10873   7.606   5.827  10.186 -0.7378  2.0718 -2.4108
   81MOL0     H10874   7.427   5.597  10.258  1.4013 -3.4261 -1.3038
   81MOL0     H10875   7.513   5.590  10.108 -3.3006 -0.5059  1.6004
   81MOL0     H10876   7.700   5.689  10.293  3.4715 -2.1097  1.6254
   81MOL0     H10877   7.609   5.563  10.380  3.9589 -0.3900  1.1265
   81MOL0     H10878   7.739   5.495  10.119  1.2771  3.7253  1.2975
   81MOL0     H10879   7.809   5.491  10.273 -0.6283  1.2509  1.6626
   81MOL0     H10880   7.586   5.346  10.335  0.6483  0.9606 -0.2328
   81MOL0     H10881   7.551   5.340  10.164 -1.0874  0.5985 -0.1321
   81MOL0     H10882   7.792   5.237  10.310 -0.9642 -1.3455  0.4749
   81MOL0     H10883   7.668   5.144  10.209 -2.1295  1.0764 -0.8272
   81MOL0     H10884   7.884   5.131  10.127 -0.5328  0.1893  3.3555
   81MOL0     H10885   7.897   5.310  10.104 -0.9160  0.9837  0.8183
   81MOL0     H10886   7.965   5.242   9.845  0.0573  0.1357  0.1337
   81MOL0     H10887   7.815   5.068   9.587 -0.1106  0.6519  1.3821
   81MOL0     H10888   7.709   5.204   9.559 -0.5003 -0.8454 -0.4609
   81MOL0     H10889   8.018   5.194   9.539  1.0642 -0.6101  1.5462
   81MOL0     H10890   7.946   5.342   9.606 -2.4850  1.4667 -0.7980
   81MOL0     H10891   7.805   5.330   9.389 -0.9541 -2.1021  0.2420
   81MOL0     H10892   7.910   5.201   9.335  1.0283  1.7674 -3.4310
   81MOL0     H10893   7.997   5.481   9.417 -1.4723  1.3097 -1.3567
   81MOL0     H10894   7.993   5.419   9.245  0.1748 -1.0645  0.2194
   81MOL0     H10895   8.144   5.591   9.297  0.8503  1.0912 -1.1895
   81MOL0     H10896   8.201   5.764   9.159  0.0731  0.8809  1.3077
   81MOL0     H10897   8.349   5.824   9.206 -0.2832  0.5461 -1.6005
   81MOL0     H10898   8.345   5.744   9.052  2.0533  0.7925 -0.4285
   81MOL0     H10899   8.831   5.752   9.233  0.2165  0.2395  0.1947
   81MOL0     H10900   9.044   5.813   9.163 -1.6059 -0.2570  1.6642
   81MOL0     H10901   9.181   5.891   9.011 -0.7519 -2.0817 -0.2057
   81MOL0     H10902   9.324   5.822   9.080  0.9147  3.3119  0.1811
   81MOL0     H10903   9.400   5.763   8.835 -0.0627 -0.8531  2.5107
   81MOL0     H10904   9.260   5.854   8.784  2.9748  0.0063 -2.8186
   81MOL0     H10905   9.484   5.974   8.967  0.8592 -2.3570 -1.0463
   81MOL0     H10906   9.339   6.049   8.883 -2.4792 -2.2132 -0.3142
   81MOL0     H10907   9.528   5.918   8.691 -0.9697 -3.7623  4.2029
   81MOL0     H10908   9.446   6.080   8.673  0.4500  0.4868  1.2185
   81MOL0     H10909   9.664   6.097   8.672 -3.0869  1.3079 -1.2689
   81MOL0     H10910   9.689   6.057   8.849  0.3716  0.4679  0.7044
   81MOL0     H10911   9.504   6.280   8.768 -0.8620  0.8914  0.5919
   81MOL0     H10912   9.549   6.220   8.926  0.7803  2.6674 -0.0857
   81MOL0     H10913   9.719   6.367   8.734 -1.6533 -0.3958 -0.8955
   81MOL0     H10914   9.794   6.290   8.882 -0.1569  0.4455  0.9144
   81MOL0     H10915   9.653   6.414   9.041 -0.4904 -2.3190 -1.1435
   81MOL0     H10916   9.579   6.512   8.919 -2.1033 -0.1911  4.0651
   81MOL0     H10917   9.078   5.459   8.930  0.5061 -1.3719  2.5360
   81MOL0     H10918   8.839   5.393   9.009 -2.2667 -0.1485 -1.9066
   81MOL0     H10919   8.576   5.369   9.277 -1.5185 -3.7098  2.1822
   81MOL0     H10920   8.381   5.240   9.355  0.3870  0.9695  3.7233
   81MOL0     H10921   7.279   5.988  10.491  2.3136 -1.4707 -1.8777
   81MOL0     H10922   7.140   5.957  10.667  1.9150  0.7802 -0.3162
   81MOL0     H10923   6.999   5.896  10.993 -1.3587  1.4086  0.9393
   81MOL0     H10924   6.850   5.925  11.196  6.0503  0.2461 -0.8738
   81MOL0     H10925   6.820   5.808  11.432  0.0385 -0.4945  1.4809
   81MOL0     H10926   6.706   5.917  11.362 -0.3581 -0.4533 -1.9100
   81MOL0     H10927   6.516   5.775  11.464 -0.2007  2.8981 -1.5614
   81MOL0     H10928   6.622   5.884  11.562 -0.1766 -0.4310 -0.4122
   81MOL0     H10929   6.768   5.693  11.613 -1.0255 -0.7544  0.3732
   81MOL0     H10930   6.686   5.593  11.491  1.5702 -0.8439  0.5603
   81MOL0     H10931   6.632   5.513  11.699  2.3608  0.8321  1.5790
   81MOL0     H10932   6.482   5.615  11.657  0.2462 -1.2260 -0.8800
   81MOL0     H10933   6.565   5.853  11.960  2.5400  0.0767  0.2216
   81MOL0     H10934   6.738   5.510  11.160  0.7585 -0.9625 -0.8850
   81MOL0     H10935   6.919   5.472  11.004  2.7605  0.3979  4.0157
   82MOL0     O10936  11.403   4.982  10.656 -0.8126  0.7835  0.1787
   82MOL0     C10937  11.422   5.101  10.648  1.2239 -0.1889 -1.0956
   82MOL0     O10938  11.354   5.190  10.573 -0.4435 -0.1352  1.1353
   82MOL0     C10939  11.248   5.125  10.505  0.6934 -1.1594 -0.0639
   82MOL0     C10940  11.132   5.065  10.563 -0.4402  0.4507  0.0243
   82MOL0     C10941  11.030   5.020  10.486  0.2337 -0.5447 -0.1315
   82MOL0     C10942  11.034   5.035  10.347  0.0847 -0.2285  0.2469
   82MOL0     O10943  10.923   4.985  10.290  0.3948 -0.1364  0.0757
   82MOL0     C10944  10.939   4.915  10.168  0.6590 -0.2581  0.1118
   82MOL0     C10945  10.826   4.944  10.077 -0.7595 -0.7469 -0.5983
   82MOL0     C10946  10.832   4.868   9.941 -0.8113  0.6025  0.1420
   82MOL0     C10947  10.809   4.719   9.951  0.1823  0.2219 -0.3630
   82MOL0     C10948  10.775   4.654   9.822 -0.1408 -0.3492 -1.1406
   82MOL0     C10949  10.720   4.519   9.843  0.1910  0.4699  0.2474
   82MOL0     C10950  10.722   4.436   9.723 -0.6646  0.7940  0.5952
   82MOL0     C10951  10.860   4.395   9.668 -0.3400 -0.1000 -0.7836
   82MOL0     N10952  10.916   4.283   9.747  0.5323  0.1077  0.1145
   82MOL0     C10953  11.027   4.281   9.826 -0.0018 -0.1223  0.9016
   82MOL0     C10954  11.074   4.155   9.833 -0.7871  0.8576  0.3548
   82MOL0     C10955  11.203   4.108   9.907 -0.2361  0.4683 -0.0618
   82MOL0     C10956  11.192   3.953   9.939 -0.9050  0.1583  0.2200
   82MOL0     C10957  11.214   3.879   9.809 -0.2970  0.0007  0.3092
   82MOL0     C10958  11.355   3.885   9.771 -0.2832 -0.1733  0.4713
   82MOL0     O10959  11.445   3.834   9.866  0.6896  0.6820 -0.7326
   82MOL0     C10960  11.570   3.803   9.823 -0.2109 -0.6133 -0.0240
   82MOL0     C10961  11.612   3.671   9.834 -0.3857  0.1240 -0.9033
   82MOL0     C10962  11.737   3.623   9.792 -0.4346  1.0601  0.6577
   82MOL0     C10963  11.767   3.475   9.796 -0.9975  0.0674  0.3503
   82MOL0     C10964  11.839   3.716   9.748  0.3978  0.6042 -0.3454
   82MOL0     C10965  11.979   3.680   9.702  0.3939 -0.0864 -0.2545
   82MOL0     O10966  12.026   3.751   9.591 -0.7954 -0.8342 -0.5089
   82MOL0     C10967  12.161   3.728   9.560 -0.2209 -0.2285  1.3603
   82MOL0     C10968  12.251   3.761   9.658 -0.0843  0.5885  0.6844
   82MOL0     C10969  12.382   3.714   9.633  0.1716 -0.8440  0.0138
   82MOL0     C10970  12.415   3.644   9.522  0.0395 -0.1607  0.2373
   82MOL0     O10971  12.539   3.607   9.486  0.3157 -0.5767  0.6641
   82MOL0     C10972  12.614   3.515   9.572 -0.5272  0.4543 -1.0431
   82MOL0     C10973  12.768   3.513   9.555 -0.2834  0.6732 -0.0520
   82MOL0     C10974  12.844   3.638   9.588 -0.1897 -0.3601 -0.3276
   82MOL0     C10975  12.834   3.738   9.474  0.1233  0.0953  0.1972
   82MOL0     C10976  12.838   3.875   9.551  0.2020  0.1834  0.6152
   82MOL0     C10977  12.695   3.913   9.584 -0.4401  0.5640  0.3257
   82MOL0     C10978  12.710   4.056   9.620 -0.2511 -0.8752  0.3822
   82MOL0     C10979  12.585   4.128   9.663 -0.2196 -0.3168  0.0788
   82MOL0    Cl10980  12.441   4.041   9.599 -0.5093  0.2516 -0.0051
   82MOL0     C10981  12.321   3.613   9.423 -0.1888  1.8256 -0.7000
   82MOL0     C10982  12.198   3.669   9.433  0.1174  0.1813 -1.7127
   82MOL0     O10983  12.048   3.605   9.772 -0.3028  1.2363 -0.6917
   82MOL0     C10984  11.798   3.853   9.741 -0.0189  0.8329  0.7913
   82MOL0     C10985  11.667   3.892   9.776 -0.3412 -0.1374  0.9910
   82MOL0     N10986  10.978   4.069   9.776 -0.1040 -0.5080 -0.8010
   82MOL0     N10987  10.887   4.150   9.728 -0.6844 -0.2715 -0.2985
   82MOL0     C10988  11.148   5.097  10.288  0.7805  0.3752 -0.3844
   82MOL0     C10989  11.251   5.149  10.370 -0.1221  0.0556  1.1901
   82MOL0     C10990  11.521   5.152  10.740 -0.3372  0.2454  0.8510
   82MOL0     C10991  11.563   5.288  10.731 -0.1091  0.5654  0.9302
   82MOL0     C10992  11.677   5.332  10.797 -0.0491  0.4290 -0.8617
   82MOL0     C10993  11.745   5.250  10.892  0.0040  0.4636  0.8346
   82MOL0     O10994  11.866   5.287  10.956  0.1378  0.5888  0.2524
   82MOL0     C10995  11.935   5.401  10.904 -0.2001  0.6494  0.6991
   82MOL0     C10996  12.080   5.415  10.958  0.3160 -0.0639 -0.1607
   82MOL0     C10997  12.146   5.551  10.924 -0.2883 -0.4801 -0.2577
   82MOL0     C10998  12.292   5.571  10.970 -0.0500 -0.1546 -0.1510
   82MOL0     C10999  12.325   5.473  11.078 -0.2378  0.4941  0.1911
   82MOL0     C11000  12.361   5.388  11.155  0.2516 -0.6033  0.3761
   82MOL0     C11001  11.697   5.125  10.911  0.0749  0.5792  0.9252
   82MOL0     C11002  11.587   5.079  10.843  0.3927  0.5116  0.9505
   82MOL0     H11003  11.132   5.035  10.668 -0.5724 -1.7037 -0.5328
   82MOL0     H11004  10.937   4.974  10.520 -1.6826  2.7311 -0.4924
   82MOL0     H11005  11.034   4.943  10.122  0.7135 -1.6457 -0.6827
   82MOL0     H11006  10.955   4.808  10.186  2.8478  0.4148  2.9130
   82MOL0     H11007  10.729   4.930  10.125  0.3151 -2.9305  1.1072
   82MOL0     H11008  10.849   5.050  10.063  1.8816 -1.4562 -2.4272
   82MOL0     H11009  10.768   4.916   9.867  0.8747  1.6588 -0.7031
   82MOL0     H11010  10.935   4.881   9.906  0.0098 -1.0010  1.8185
   82MOL0     H11011  10.898   4.667   9.988  0.2996  1.3115  0.9590
   82MOL0     H11012  10.735   4.693  10.028  1.4024  0.6207  0.9929
   82MOL0     H11013  10.705   4.714   9.762 -1.6161 -0.5042  0.3632
   82MOL0     H11014  10.868   4.647   9.765  0.8723 -2.0258  0.6368
   82MOL0     H11015  10.778   4.458   9.913  0.0870  0.5861  0.4325
   82MOL0     H11016  10.619   4.520   9.883 -1.2084 -0.8309 -2.8756
   82MOL0     H11017  10.667   4.342   9.733 -1.2717  0.8541 -1.5848
   82MOL0     H11018  10.675   4.487   9.638  0.1233  1.2655  0.4304
   82MOL0     H11019  10.929   4.480   9.674 -2.5327  1.6576  2.2157
   82MOL0     H11020  10.858   4.366   9.562  0.3488 -0.2477 -0.7655
   82MOL0     H11021  11.074   4.367   9.873  1.2880 -0.5750  0.4813
   82MOL0     H11022  11.291   4.150   9.857 -0.8865  0.6916 -1.0371
   82MOL0     H11023  11.201   4.157  10.005 -1.0938 -1.3181  0.8608
   82MOL0     H11024  11.092   3.932   9.978 -1.7563  2.3923 -0.5767
   82MOL0     H11025  11.255   3.921  10.022  1.3963  1.8028 -0.7996
   82MOL0     H11026  11.154   3.920   9.728  1.0308  3.6146  0.9908
   82MOL0     H11027  11.191   3.772   9.818 -1.8269  0.0140 -2.3740
   82MOL0     H11028  11.368   3.990   9.744  1.2871 -0.7063 -1.0200
   82MOL0     H11029  11.365   3.816   9.686 -1.7186 -0.0881  0.2077
   82MOL0     H11030  11.544   3.590   9.862  2.3836 -1.0657  3.2036
   82MOL0     H11031  11.743   3.427   9.701 -0.7813  1.5269 -0.4802
   82MOL0     H11032  11.871   3.447   9.816  0.3725  0.9847 -4.1992
   82MOL0     H11033  11.709   3.423   9.872 -2.4156 -2.7128 -2.3991
   82MOL0     H11034  12.225   3.811   9.751 -0.4742  2.8193 -0.5608
   82MOL0     H11035  12.456   3.737   9.708 -0.3153  1.7013 -0.1892
   82MOL0     H11036  12.588   3.547   9.673 -2.4952 -1.2712 -0.9251
   82MOL0     H11037  12.580   3.412   9.560  0.8566 -0.1689  0.0429
   82MOL0     H11038  12.797   3.442   9.633 -1.9175  1.8007  1.6735
   82MOL0     H11039  12.798   3.466   9.461  0.7275 -5.3979  2.7944
   82MOL0     H11040  12.950   3.611   9.589  0.1358  0.7238  2.2783
   82MOL0     H11041  12.807   3.676   9.683 -1.3011  3.0113 -1.9500
   82MOL0     H11042  12.920   3.731   9.408 -0.6442 -4.2054 -0.6078
   82MOL0     H11043  12.749   3.718   9.408  0.0393 -1.5628  0.7779
   82MOL0     H11044  12.878   3.943   9.475 -3.2010  2.0721  0.3278
   82MOL0     H11045  12.896   3.874   9.645 -0.9674  0.4482  1.3569
   82MOL0     H11046  12.637   3.909   9.492  0.0833  1.0220 -0.0331
   82MOL0     H11047  12.658   3.852   9.667  0.1616  0.8953  0.8520
   82MOL0     H11048  12.759   4.106   9.536 -0.5334  0.9138  1.2365
   82MOL0     H11049  12.779   4.075   9.702  1.0370  1.1258 -1.0691
   82MOL0     H11050  12.599   4.233   9.635  1.9722 -0.2455  1.2420
   82MOL0     H11051  12.585   4.106   9.770  0.3198 -2.6427 -0.3484
   82MOL0     H11052  12.337   3.556   9.332  0.6892 -1.0474  1.1226
   82MOL0     H11053  12.118   3.659   9.361 -1.5281  0.4729 -0.0154
   82MOL0     H11054  11.871   3.924   9.702  1.6298 -0.8772  0.6170
   82MOL0     H11055  11.648   3.999   9.789  0.0836  0.5744 -3.0060
   82MOL0     H11056  11.151   5.111  10.180 -0.2588 -1.7009 -0.7356
   82MOL0     H11057  11.339   5.200  10.332  0.5372  0.6895  3.3894
   82MOL0     H11058  11.503   5.351  10.667 -5.3513 -4.0851  0.5139
   82MOL0     H11059  11.714   5.432  10.776 -0.8400  0.5387 -1.8284
   82MOL0     H11060  11.944   5.400  10.795  0.2740 -3.6325  0.6304
   82MOL0     H11061  11.873   5.490  10.922  2.1249  2.3062  0.9400
   82MOL0     H11062  12.138   5.327  10.929 -0.7270 -1.0665  0.6688
   82MOL0     H11063  12.069   5.399  11.066  0.9078 -1.7387 -0.3140
   82MOL0     H11064  12.089   5.636  10.964 -1.6016 -0.2780 -2.3830
   82MOL0     H11065  12.142   5.558  10.815  1.0134 -2.0541 -0.4426
   82MOL0     H11066  12.308   5.669  11.014  0.7627  1.1225 -3.0550
   82MOL0     H11067  12.359   5.574  10.884  0.6550  0.5997  0.4124
   82MOL0     H11068  12.392   5.304  11.214  1.0164 -3.8348 -4.0904
   82MOL0     H11069  11.737   5.060  10.988 -0.2500  0.7810  1.2724
   82MOL0     H11070  11.555   4.978  10.867 -0.3080  0.6561  0.6347
   83MOL0     O11071   3.438   0.389  10.805 -0.1440 -0.0877 -0.0410
   83MOL0     C11072   3.420   0.436  10.694  0.1508 -0.5391  1.0107
   83MOL0     O11073   3.334   0.386  10.602 -0.0305  0.1570  0.1130
   83MOL0     C11074   3.282   0.261  10.616 -0.5013  0.2130  0.5942
   83MOL0     C11075   3.157   0.245  10.560 -0.6646  0.8947 -0.1566
   83MOL0     C11076   3.085   0.125  10.576  0.0645  0.2243 -0.1688
   83MOL0     C11077   3.157   0.011  10.623 -0.7922 -0.8409 -0.2531
   83MOL0     O11078   3.102  -0.111  10.610  0.0178 -0.1541 -0.2817
   83MOL0     C11079   3.140  -0.199  10.503  0.5421 -0.1055  0.5777
   83MOL0     C11080   3.147  -0.355  10.540 -0.3768  0.4948  0.9138
   83MOL0     C11081   3.275  -0.391  10.611 -0.2904  0.2778 -0.0246
   83MOL0     C11082   3.318  -0.540  10.610  1.0270 -0.5908 -1.2990
   83MOL0     C11083   3.419  -0.565  10.717 -0.3542  0.5174 -0.1504
   83MOL0     C11084   3.458  -0.713  10.715 -0.1738  0.5867 -0.3954
   83MOL0     C11085   3.357  -0.799  10.804 -0.1204 -0.1540 -0.8404
   83MOL0     C11086   3.392  -0.944  10.818 -0.6115  0.6610  0.3077
   83MOL0     N11087   3.277  -1.026  10.859  0.0721 -0.1789 -0.1257
   83MOL0     C11088   3.254  -1.156  10.832  0.1053  0.2639  0.1823
   83MOL0     C11089   3.178  -1.212  10.920  0.2939 -0.2637 -0.0834
   83MOL0     C11090   3.122  -1.353  10.900 -0.2414  0.1380  0.0559
   83MOL0     C11091   3.049  -1.407  11.025 -0.5468 -0.3777 -0.1985
   83MOL0     C11092   2.902  -1.383  11.010 -0.4738 -0.5075 -1.1002
   83MOL0     C11093   2.843  -1.414  11.144  0.3101 -0.1139  0.3346
   83MOL0     O11094   2.708  -1.348  11.138  0.3575 -0.2678  0.1872
   83MOL0     C11095   2.603  -1.426  11.075  0.1776  0.1786 -0.3606
   83MOL0     C11096   2.477  -1.358  11.061 -0.3933  0.1161  0.7138
   83MOL0     C11097   2.369  -1.433  11.015  0.1670 -0.4473  0.4145
   83MOL0     C11098   2.232  -1.372  11.012 -0.4425 -0.0713 -0.2590
   83MOL0     C11099   2.381  -1.571  10.977 -0.3207 -0.2619 -0.4638
   83MOL0     C11100   2.284  -1.666  10.915 -0.8490 -0.2014 -0.2815
   83MOL0     O11101   2.339  -1.773  10.860 -0.2603  0.8206  0.5202
   83MOL0     C11102   2.257  -1.863  10.801  0.4161  0.3646 -0.1963
   83MOL0     C11103   2.271  -2.002  10.815 -0.7879 -0.0176  0.9813
   83MOL0     C11104   2.186  -2.086  10.752  0.4307  0.0098 -0.0885
   83MOL0     C11105   2.093  -2.040  10.657 -0.3701 -0.0304  0.0314
   83MOL0     O11106   2.029  -2.143  10.588  0.3259  0.1173  1.4807
   83MOL0     C11107   1.903  -2.113  10.504 -0.7144 -0.3518  0.4673
   83MOL0     C11108   1.881  -2.218  10.399  0.4825 -0.8101 -0.1287
   83MOL0     C11109   1.989  -2.209  10.280  0.7226  0.6187 -0.2652
   83MOL0     C11110   1.937  -2.276  10.152  0.2658  1.4319 -0.5068
   83MOL0     C11111   2.039  -2.331  10.051  0.2905  0.1038  0.0272
   83MOL0     C11112   2.132  -2.445  10.095 -0.5404 -0.2059 -0.2089
   83MOL0     C11113   2.217  -2.489   9.977 -0.5988  0.1051  0.5638
   83MOL0     C11114   2.304  -2.607  10.016  0.7781 -0.1637 -0.2657
   83MOL0    Cl11115   2.424  -2.637   9.883  0.1056  0.3321 -0.1669
   83MOL0     C11116   2.078  -1.909  10.640 -0.5715 -0.1032  0.5023
   83MOL0     C11117   2.168  -1.819  10.702  0.0208 -0.1801  0.8010
   83MOL0     O11118   2.165  -1.644  10.933 -0.0945 -0.0833 -0.5516
   83MOL0     C11119   2.502  -1.626  10.997 -0.3433 -0.0796 -1.3291
   83MOL0     C11120   2.617  -1.566  11.049  0.5060 -0.1457  0.1684
   83MOL0     N11121   3.141  -1.108  10.999  0.1921 -0.2690  0.3648
   83MOL0     N11122   3.202  -1.001  10.968 -1.0318 -0.3034 -0.0110
   83MOL0     C11123   3.288   0.028  10.674 -0.3817 -0.1964 -0.7669
   83MOL0     C11124   3.355   0.150  10.680 -1.0368  1.1921 -0.8009
   83MOL0     C11125   3.469   0.583  10.683  0.7505 -0.0021 -0.0469
   83MOL0     C11126   3.450   0.670  10.578 -0.1351  0.3058 -0.6247
   83MOL0     C11127   3.503   0.794  10.569  0.2618 -0.4056  0.7524
   83MOL0     C11128   3.581   0.844  10.674 -0.1584 -0.4471 -0.8566
   83MOL0     O11129   3.629   0.971  10.661  0.2248  0.0085 -0.2497
   83MOL0     C11130   3.733   1.015  10.745 -0.7546 -0.1538 -0.2232
   83MOL0     C11131   3.836   1.097  10.667  0.0743 -0.3027 -0.2275
   83MOL0     C11132   3.767   1.232  10.631 -0.4197  0.6995 -0.6276
   83MOL0     C11133   3.870   1.324  10.547  0.0464  0.3117 -0.6906
   83MOL0     C11134   3.803   1.448  10.526  0.7047 -0.6561 -0.1146
   83MOL0     C11135   3.760   1.557  10.507  0.7217  0.9028  0.2077
   83MOL0     C11136   3.597   0.760  10.791 -0.3501  0.8452 -0.5865
   83MOL0     C11137   3.539   0.637  10.787 -1.3316  0.2421  0.7324
   83MOL0     H11138   3.106   0.322  10.503  0.9875  1.2663 -1.2174
   83MOL0     H11139   2.985   0.121  10.534  0.4222  2.4981 -1.4026
   83MOL0     H11140   3.075  -0.190  10.416  0.5611  1.0187  0.6665
   83MOL0     H11141   3.238  -0.171  10.464  0.6059 -1.4687 -0.3020
   83MOL0     H11142   3.064  -0.369  10.610  0.0264  2.0712  1.7565
   83MOL0     H11143   3.122  -0.418  10.455 -1.7242 -0.0851  1.7031
   83MOL0     H11144   3.360  -0.340  10.565  0.2296 -1.1991 -0.7634
   83MOL0     H11145   3.273  -0.356  10.715  0.3240 -2.6871  1.1143
   83MOL0     H11146   3.225  -0.589  10.640  0.1004  1.7580 -0.0718
   83MOL0     H11147   3.344  -0.573  10.509  0.4608 -0.8977 -1.3524
   83MOL0     H11148   3.511  -0.508  10.704 -0.0527 -0.1792 -1.1343
   83MOL0     H11149   3.398  -0.547  10.823  1.7506 -4.2456  1.3126
   83MOL0     H11150   3.458  -0.759  10.616  1.1093 -0.3366  0.0095
   83MOL0     H11151   3.557  -0.734  10.756 -0.7983 -2.4922 -0.2905
   83MOL0     H11152   3.355  -0.749  10.902  1.9830 -0.1019 -0.7594
   83MOL0     H11153   3.253  -0.781  10.776 -0.8469 -1.5690  0.7987
   83MOL0     H11154   3.465  -0.957  10.899 -1.3710 -1.3089  0.7340
   83MOL0     H11155   3.436  -0.977  10.724 -0.1447  2.1969 -0.0388
   83MOL0     H11156   3.297  -1.196  10.741  2.2745  0.7993  0.8967
   83MOL0     H11157   3.059  -1.354  10.811 -0.9743  2.5332  0.4611
   83MOL0     H11158   3.190  -1.429  10.860  0.2584 -1.1279  3.0288
   83MOL0     H11159   3.094  -1.366  11.116 -0.3276  0.9391 -0.8708
   83MOL0     H11160   3.059  -1.516  11.028 -2.0534 -0.5224  2.3029
   83MOL0     H11161   2.850  -1.438  10.931 -1.5520 -3.9141  1.7530
   83MOL0     H11162   2.895  -1.275  10.990 -2.3176  0.0333  1.9360
   83MOL0     H11163   2.903  -1.364  11.220  0.7180 -1.4622  0.9315
   83MOL0     H11164   2.821  -1.516  11.175 -1.9890  0.0278 -0.6178
   83MOL0     H11165   2.460  -1.252  11.071 -1.5824  0.0195 -0.1043
   83MOL0     H11166   2.176  -1.380  10.918 -1.0098  0.7504 -0.0057
   83MOL0     H11167   2.159  -1.410  11.084 -1.4386 -0.0116 -1.2086
   83MOL0     H11168   2.241  -1.265  11.032  2.3813  1.5299 -7.1405
   83MOL0     H11169   2.347  -2.046  10.878  0.9391  0.7703 -0.4572
   83MOL0     H11170   2.217  -2.188  10.773  1.1812  0.2730  0.1199
   83MOL0     H11171   1.816  -2.091  10.566 -1.7814 -0.1765 -1.0378
   83MOL0     H11172   1.914  -2.026  10.439 -0.2839 -2.8447 -3.0999
   83MOL0     H11173   1.891  -2.314  10.451  1.1701  0.4790  2.2793
   83MOL0     H11174   1.779  -2.202  10.366  0.1806  0.8857  1.4620
   83MOL0     H11175   2.082  -2.257  10.313  0.9189  0.2771 -1.2930
   83MOL0     H11176   2.020  -2.106  10.263  3.0204  0.6839  3.2143
   83MOL0     H11177   1.869  -2.354  10.190  0.6696  1.9678  1.3964
   83MOL0     H11178   1.877  -2.208  10.091  1.5162  2.7614 -0.3099
   83MOL0     H11179   2.101  -2.255  10.002  0.9580 -2.7206 -4.0858
   83MOL0     H11180   1.978  -2.357   9.964  1.2623  3.4749 -1.8885
   83MOL0     H11181   2.191  -2.421  10.183 -2.4930 -1.7225  1.6080
   83MOL0     H11182   2.071  -2.533  10.117 -0.2950 -0.2933  0.1288
   83MOL0     H11183   2.283  -2.410   9.940  0.0285  0.5863  2.5938
   83MOL0     H11184   2.156  -2.520   9.891 -0.5489  0.5205  0.3727
   83MOL0     H11185   2.234  -2.691  10.016 -0.0468  0.4947  0.8573
   83MOL0     H11186   2.347  -2.596  10.116 -1.4253  1.4569  0.5864
   83MOL0     H11187   1.996  -1.867  10.582  1.6807  0.3270 -2.6364
   83MOL0     H11188   2.164  -1.713  10.683  0.8265 -0.3508 -0.4552
   83MOL0     H11189   2.531  -1.722  10.957 -0.0872  0.8483 -3.4935
   83MOL0     H11190   2.700  -1.630  11.075 -0.5428 -0.7315  2.2896
   83MOL0     H11191   3.343  -0.056  10.715  0.1920 -0.0197 -1.1584
   83MOL0     H11192   3.454   0.153  10.724  0.0926 -1.3316 -2.9294
   83MOL0     H11193   3.381   0.631  10.504 -0.0227  0.0175 -0.5792
   83MOL0     H11194   3.480   0.859  10.485  3.3733 -0.4301 -0.2619
   83MOL0     H11195   3.690   1.077  10.825 -1.9233  3.0784 -3.0769
   83MOL0     H11196   3.794   0.936  10.790  0.6128  0.9326 -0.1115
   83MOL0     H11197   3.852   1.027  10.585 -2.4126 -1.9963  0.6231
   83MOL0     H11198   3.927   1.111  10.726  0.9231 -1.7221 -1.1375
   83MOL0     H11199   3.739   1.275  10.727 -0.3319  2.3661 -1.3102
   83MOL0     H11200   3.672   1.215  10.580 -2.5434  1.2410  2.8449
   83MOL0     H11201   3.892   1.266  10.457  1.2100 -1.2820  0.5817
   83MOL0     H11202   3.955   1.350  10.610 -0.6307  1.1680 -0.1036
   83MOL0     H11203   3.724   1.658  10.497 -0.6047  0.3862 -0.4265
   83MOL0     H11204   3.654   0.777  10.882  1.1021 -2.3273 -0.7651
   83MOL0     H11205   3.563   0.577  10.875 -0.0993  1.4425  1.2593
   84MOL0     O11206   4.943   8.633   6.520 -0.5420  0.3555 -0.5725
   84MOL0     C11207   5.054   8.613   6.576  0.7820  0.3606 -0.8024
   84MOL0     O11208   5.164   8.684   6.559 -0.0011 -0.6233 -0.2671
   84MOL0     C11209   5.170   8.782   6.465  0.7586  1.6295  0.4032
   84MOL0     C11210   5.201   8.907   6.516  0.8571 -0.4332  0.3398
   84MOL0     C11211   5.222   9.010   6.430 -0.4932 -0.0889  0.5487
   84MOL0     C11212   5.206   8.986   6.287  0.6379 -0.4224  0.5432
   84MOL0     O11213   5.230   9.083   6.199  0.4326  0.4256  0.2970
   84MOL0     C11214   5.348   9.164   6.215 -0.0125  0.3671 -0.3187
   84MOL0     C11215   5.396   9.219   6.083 -0.3281 -0.2714  0.0842
   84MOL0     C11216   5.296   9.323   6.028 -0.2784  0.4315 -0.1357
   84MOL0     C11217   5.333   9.373   5.889  0.0629  0.4454  0.6455
   84MOL0     C11218   5.218   9.453   5.830 -0.5307  0.6325  0.2840
   84MOL0     C11219   5.087   9.366   5.813 -0.1478 -0.1084  0.0378
   84MOL0     C11220   4.984   9.434   5.724  0.7709  0.2660  0.4039
   84MOL0     C11221   5.019   9.422   5.572 -0.8522  0.1492  0.0602
   84MOL0     N11222   4.996   9.285   5.539  0.3099 -0.6464  0.5340
   84MOL0     C11223   5.085   9.180   5.542 -0.3963  1.1623  0.3651
   84MOL0     C11224   5.027   9.068   5.483  0.2943  0.7399 -0.3269
   84MOL0     C11225   5.072   8.925   5.439  0.4637  0.0445 -1.3207
   84MOL0     C11226   5.113   8.915   5.293  0.1284 -0.5076 -0.1448
   84MOL0     C11227   5.243   8.998   5.274  0.0989 -0.9842  1.2039
   84MOL0     C11228   5.294   8.987   5.130 -0.4438  0.4574 -0.9961
   84MOL0     O11229   5.306   8.854   5.082 -0.3102 -0.0185 -0.1815
   84MOL0     C11230   5.437   8.813   5.057  0.2924 -0.5958  0.2440
   84MOL0     C11231   5.475   8.812   4.924  0.2378  0.3516 -0.1679
   84MOL0     C11232   5.596   8.761   4.881  0.2768  0.4914  0.2558
   84MOL0     C11233   5.638   8.775   4.730  0.9191 -0.0627  0.6498
   84MOL0     C11234   5.682   8.713   4.984 -0.4767  0.0476 -0.9709
   84MOL0     C11235   5.825   8.666   4.954 -0.1489 -0.4263 -0.0133
   84MOL0     O11236   5.857   8.634   4.824  0.4913 -0.1732 -0.0297
   84MOL0     C11237   5.968   8.564   4.791 -0.5193  0.6131  0.4710
   84MOL0     C11238   5.948   8.491   4.669  0.2258 -0.3915  1.1789
   84MOL0     C11239   6.039   8.403   4.615 -0.0672 -1.0911 -0.2442
   84MOL0     C11240   6.159   8.384   4.677 -0.1569  0.2255 -1.3864
   84MOL0     O11241   6.240   8.282   4.628  0.2392  0.1064  0.0242
   84MOL0     C11242   6.375   8.300   4.597 -1.2838  0.1822  0.7688
   84MOL0     C11243   6.433   8.181   4.510 -0.5206  0.1366 -0.1433
   84MOL0     C11244   6.360   8.182   4.370  0.0841  0.6475  1.1168
   84MOL0     C11245   6.369   8.040   4.304  0.6044 -0.2356 -0.1558
   84MOL0     C11246   6.247   7.996   4.224 -0.8818 -0.5873  0.3796
   84MOL0     C11247   6.275   7.880   4.134  0.1890 -0.4748  0.1311
   84MOL0     C11248   6.153   7.819   4.071  0.9278  0.7392 -0.0020
   84MOL0     C11249   6.194   7.699   3.986 -0.7233  1.1799  0.1746
   84MOL0    Cl11250   6.272   7.736   3.824  0.2157 -0.2876 -0.0550
   84MOL0     C11251   6.184   8.448   4.796  0.4355 -0.3724  0.1071
   84MOL0     C11252   6.090   8.544   4.847 -0.3617  0.3296  0.1871
   84MOL0     O11253   5.897   8.632   5.048 -0.4409 -0.8126 -0.2038
   84MOL0     C11254   5.643   8.721   5.116 -0.0918  0.6203 -0.8645
   84MOL0     C11255   5.516   8.758   5.153 -0.3149  1.6625  0.3530
   84MOL0     N11256   4.908   9.118   5.432 -0.5016 -0.5459  0.6799
   84MOL0     N11257   4.898   9.246   5.449  0.4831 -0.6555  0.0533
   84MOL0     C11258   5.160   8.858   6.239 -0.7602 -0.5041  0.1218
   84MOL0     C11259   5.144   8.757   6.325 -0.2521 -0.6655  0.3119
   84MOL0     C11260   5.063   8.525   6.692 -0.1982  0.4108 -0.7052
   84MOL0     C11261   4.977   8.434   6.731 -0.2214  0.1283 -0.3348
   84MOL0     C11262   5.004   8.344   6.840  0.0582  0.0631  0.0613
   84MOL0     C11263   5.120   8.342   6.918  0.4576  0.8675  0.1955
   84MOL0     O11264   5.132   8.250   7.025  0.0974 -1.3655  0.0163
   84MOL0     C11265   5.266   8.214   7.067  0.5305 -0.2538  0.5914
   84MOL0     C11266   5.264   8.085   7.147 -0.3875 -0.7504  0.3482
   84MOL0     C11267   5.184   8.107   7.273  0.1146  0.2208  0.3730
   84MOL0     C11268   5.209   7.995   7.369  0.0597  0.1342  0.4635
   84MOL0     C11269   5.087   7.952   7.433  0.4713 -0.2350 -0.1837
   84MOL0     C11270   4.999   7.902   7.494  0.3091  0.2931  0.0683
   84MOL0     C11271   5.203   8.444   6.889 -0.4062  0.3029 -0.2355
   84MOL0     C11272   5.179   8.526   6.779  0.8179 -0.3693  0.2829
   84MOL0     H11273   5.202   8.914   6.624 -4.5026 -4.1952  1.0451
   84MOL0     H11274   5.252   9.106   6.470 -0.8845  0.1116  0.3687
   84MOL0     H11275   5.335   9.252   6.279 -0.8886 -0.0611  0.0999
   84MOL0     H11276   5.421   9.092   6.252 -1.2805 -0.2605  1.0814
   84MOL0     H11277   5.492   9.268   6.101 -1.1626  1.3325  0.3174
   84MOL0     H11278   5.411   9.143   6.005  0.0471  0.0835 -0.1958
   84MOL0     H11279   5.209   9.259   6.012 -0.6192  1.5463 -3.6225
   84MOL0     H11280   5.277   9.413   6.087  2.3187  1.5820 -0.8942
   84MOL0     H11281   5.415   9.446   5.890  2.0950 -1.7264  1.2942
   84MOL0     H11282   5.379   9.291   5.833 -1.1234  0.3063 -0.1446
   84MOL0     H11283   5.183   9.540   5.887 -0.6802 -0.0950  1.3183
   84MOL0     H11284   5.251   9.514   5.746 -1.1841  0.1115 -0.3572
   84MOL0     H11285   5.110   9.271   5.763 -1.6697  0.3387 -1.5991
   84MOL0     H11286   5.042   9.344   5.910 -0.8003 -1.8274 -0.6184
   84MOL0     H11287   4.889   9.382   5.742  2.3004 -3.4475 -1.2263
   84MOL0     H11288   4.974   9.534   5.767  1.7154  0.2372  0.7242
   84MOL0     H11289   5.122   9.456   5.566 -0.3959 -1.3702 -1.9251
   84MOL0     H11290   4.956   9.501   5.529  0.7251  2.2564  1.4680
   84MOL0     H11291   5.182   9.174   5.590 -1.0510 -1.9024  1.5375
   84MOL0     H11292   5.158   8.904   5.504 -1.6734 -1.3625  1.2612
   84MOL0     H11293   4.990   8.857   5.460  0.6037 -0.0389 -1.0287
   84MOL0     H11294   5.032   8.963   5.238  1.3284  1.5118 -0.2424
   84MOL0     H11295   5.124   8.809   5.268  3.4079 -0.6566  1.3328
   84MOL0     H11296   5.327   8.957   5.330  2.6135 -1.0355 -2.2647
   84MOL0     H11297   5.230   9.106   5.286 -0.6969 -0.7514 -1.1499
   84MOL0     H11298   5.390   9.040   5.128  0.1748 -0.6500 -2.0852
   84MOL0     H11299   5.219   9.044   5.073  1.3468  1.3315 -2.6062
   84MOL0     H11300   5.397   8.859   4.866 -0.9413  1.0557  1.9036
   84MOL0     H11301   5.560   8.821   4.669  1.4040  0.5719  0.5068
   84MOL0     H11302   5.728   8.836   4.733  1.7425 -1.2667  2.1534
   84MOL0     H11303   5.656   8.673   4.695  2.0006 -0.3060  1.8484
   84MOL0     H11304   5.858   8.486   4.609  1.3559  0.2057 -0.6618
   84MOL0     H11305   6.024   8.353   4.520 -0.1057  1.3789 -1.6212
   84MOL0     H11306   6.401   8.393   4.545  3.3640 -0.9905  0.5804
   84MOL0     H11307   6.436   8.298   4.688  1.0517  0.0687 -0.7123
   84MOL0     H11308   6.542   8.187   4.505 -0.0877 -1.8297  3.4687
   84MOL0     H11309   6.411   8.091   4.568 -0.5952  0.4692  0.3624
   84MOL0     H11310   6.421   8.253   4.313 -0.3622 -0.5039 -0.8720
   84MOL0     H11311   6.259   8.220   4.383 -0.2722  0.7021 -1.3490
   84MOL0     H11312   6.461   8.021   4.248 -0.2297 -1.4147 -1.1953
   84MOL0     H11313   6.379   7.966   4.384 -1.2312 -0.9164 -0.5163
   84MOL0     H11314   6.198   8.074   4.165  1.8674  0.6446 -0.4614
   84MOL0     H11315   6.165   7.967   4.289 -0.7386 -2.8440 -0.3767
   84MOL0     H11316   6.348   7.920   4.063  1.5742  1.0677  2.2996
   84MOL0     H11317   6.321   7.797   4.190  1.6541  0.6360  0.6497
   84MOL0     H11318   6.092   7.898   4.025  3.8087  4.1879  1.6106
   84MOL0     H11319   6.089   7.781   4.152  4.7308  0.3311  3.0987
   84MOL0     H11320   6.110   7.634   3.961  1.6972 -2.0934 -0.1429
   84MOL0     H11321   6.267   7.637   4.039 -1.4652  1.8567  2.0582
   84MOL0     H11322   6.276   8.438   4.853  0.8935  0.8306 -0.3925
   84MOL0     H11323   6.117   8.595   4.940  1.0585 -0.5615  0.2922
   84MOL0     H11324   5.711   8.700   5.199 -0.6541 -0.4749 -0.6629
   84MOL0     H11325   5.470   8.742   5.250 -0.5696 -1.7671 -0.2122
   84MOL0     H11326   5.168   8.850   6.131  1.1616 -2.0500  0.3259
   84MOL0     H11327   5.107   8.657   6.303  1.5037 -2.7572  5.3698
   84MOL0     H11328   4.877   8.431   6.687 -0.6436  2.1912  0.4043
   84MOL0     H11329   4.919   8.280   6.863  1.1454 -1.3274  0.3216
   84MOL0     H11330   5.332   8.220   6.980  0.2032 -0.2622  0.3397
   84MOL0     H11331   5.301   8.293   7.133  1.8854  1.4468 -2.0065
   84MOL0     H11332   5.365   8.047   7.161  0.8513  1.5421 -1.5671
   84MOL0     H11333   5.215   8.006   7.088 -0.3690 -1.5142  1.3305
   84MOL0     H11334   5.079   8.118   7.246  0.5896  2.0506 -0.9253
   84MOL0     H11335   5.227   8.199   7.315 -1.0273  0.1951  1.6678
   84MOL0     H11336   5.277   8.034   7.445  0.6128  0.9258 -0.4210
   84MOL0     H11337   5.243   7.912   7.306 -0.2497  0.1255  0.3066
   84MOL0     H11338   4.916   7.845   7.531 -2.3920  2.4413 -2.2427
   84MOL0     H11339   5.292   8.453   6.951 -0.1333  1.5426 -0.7714
   84MOL0     H11340   5.256   8.595   6.748 -0.0606  0.9647  0.9815
   85MOL0     O11341   1.768   1.832  10.001 -0.5293 -0.0369 -0.5559
   85MOL0     C11342   1.662   1.850  10.064 -1.1261  0.2941  0.4202
   85MOL0     O11343   1.574   1.952  10.049  0.4784 -0.2708 -0.3799
   85MOL0     C11344   1.628   2.069  10.002  0.5511 -0.7896 -0.7728
   85MOL0     C11345   1.694   2.067   9.884  0.8339  0.4320  0.0202
   85MOL0     C11346   1.746   2.185   9.816 -0.1523  0.7521 -0.0966
   85MOL0     C11347   1.743   2.302   9.885  0.4533  0.2885  0.1503
   85MOL0     O11348   1.804   2.408   9.829  0.1960  0.1406  0.0509
   85MOL0     C11349   1.788   2.543   9.868  0.6721  0.1364 -0.2220
   85MOL0     C11350   1.834   2.649   9.771  0.2805 -0.0576  0.3105
   85MOL0     C11351   1.762   2.639   9.630  0.7432  0.4831 -0.7745
   85MOL0     C11352   1.609   2.602   9.658 -0.5094  0.0566  0.6966
   85MOL0     C11353   1.518   2.602   9.535 -0.1136 -0.1398 -0.1490
   85MOL0     C11354   1.373   2.557   9.568  0.4343  1.0855 -0.6466
   85MOL0     C11355   1.297   2.538   9.441  0.7070 -0.1110  0.0296
   85MOL0     C11356   1.160   2.468   9.458  0.3247 -0.2319  0.4757
   85MOL0     N11357   1.054   2.569   9.486 -0.2161 -0.0387  0.3988
   85MOL0     C11358   0.942   2.564   9.406 -0.5590 -0.4708  0.3925
   85MOL0     C11359   0.861   2.669   9.445 -0.1790 -0.6610 -0.6796
   85MOL0     C11360   0.725   2.713   9.398  0.6424 -0.7471 -0.5962
   85MOL0     C11361   0.611   2.635   9.463  0.1877  0.7767 -0.2414
   85MOL0     C11362   0.474   2.661   9.399  0.3532 -0.5639 -0.1843
   85MOL0     C11363   0.454   2.619   9.249  0.0290 -0.2275 -0.1857
   85MOL0     O11364   0.459   2.474   9.223  0.6774  0.2291  0.1926
   85MOL0     C11365   0.370   2.396   9.292  0.0406  0.9130 -0.2728
   85MOL0     C11366   0.242   2.431   9.335  0.2493  1.0747 -0.2770
   85MOL0     C11367   0.157   2.332   9.386 -0.2234  0.0030  1.1526
   85MOL0     C11368   0.016   2.364   9.403 -0.6754  0.1687 -0.5705
   85MOL0     C11369   0.203   2.207   9.439  0.2815 -0.6401 -0.2436
   85MOL0     C11370   0.125   2.101   9.516 -0.0704 -0.2745 -0.7426
   85MOL0     O11371   0.016   2.134   9.589 -0.0153 -0.2300  0.4075
   85MOL0     C11372  -0.089   2.032   9.602  0.2622 -0.6556 -0.8135
   85MOL0     C11373  -0.149   2.006   9.723  0.0456  0.0950 -0.6890
   85MOL0     C11374  -0.237   1.890   9.740 -0.3311 -0.1580 -0.2497
   85MOL0     C11375  -0.245   1.795   9.639 -0.2094 -0.2283  1.0495
   85MOL0     O11376  -0.325   1.687   9.632 -0.5393 -0.5641 -0.3541
   85MOL0     C11377  -0.353   1.602   9.750 -0.0444  0.4002 -0.2252
   85MOL0     C11378  -0.220   1.550   9.826  0.6137  0.4967 -0.3480
   85MOL0     C11379  -0.259   1.461   9.952  0.5602 -0.7434 -0.1718
   85MOL0     C11380  -0.129   1.424  10.028  0.3015  0.3174  0.5037
   85MOL0     C11381  -0.170   1.364  10.165  0.1169  1.0620  0.8940
   85MOL0     C11382  -0.251   1.441  10.258  0.6357  0.0341  0.1302
   85MOL0     C11383  -0.184   1.571  10.307  0.0874 -0.9222 -0.6034
   85MOL0     C11384  -0.292   1.667  10.377  0.8238  0.5110 -0.9326
   85MOL0    Cl11385  -0.363   1.776  10.258  0.5144 -0.1846  0.2240
   85MOL0     C11386  -0.197   1.833   9.509 -0.0265 -0.3262 -1.0260
   85MOL0     C11387  -0.123   1.948   9.491  0.7433 -0.0910 -0.7621
   85MOL0     O11388   0.165   1.979   9.492  0.8031  0.1913  0.2335
   85MOL0     C11389   0.336   2.179   9.402  0.3564  0.5719 -0.1978
   85MOL0     C11390   0.413   2.267   9.325 -0.5265 -0.8319  0.2555
   85MOL0     N11391   0.934   2.720   9.557  0.0072  0.6790  0.6666
   85MOL0     N11392   1.040   2.660   9.577 -0.0291 -0.2108  0.0643
   85MOL0     C11393   1.650   2.308   9.998 -0.4817  0.1052  0.8252
   85MOL0     C11394   1.598   2.192  10.061 -0.2944 -0.0716 -0.0535
   85MOL0     C11395   1.655   1.770  10.187 -0.6811 -0.4088 -0.0757
   85MOL0     C11396   1.534   1.762  10.251 -0.0960  0.3542  0.0679
   85MOL0     C11397   1.515   1.690  10.368 -0.2262 -0.9159  0.0576
   85MOL0     C11398   1.622   1.626  10.420  0.3853  0.9082 -0.9561
   85MOL0     O11399   1.624   1.548  10.531 -0.1958 -0.1088  0.2074
   85MOL0     C11400   1.543   1.590  10.641 -0.1469 -0.9042  1.3081
   85MOL0     C11401   1.615   1.707  10.696  0.1759  0.5442 -0.6503
   85MOL0     C11402   1.564   1.745  10.826  0.0193 -0.3299 -0.7443
   85MOL0     C11403   1.637   1.715  10.957  0.3273  0.6276  0.2209
   85MOL0     C11404   1.534   1.692  11.056  0.7169  0.0460  0.4795
   85MOL0     C11405   1.456   1.674  11.143  1.0244 -0.6172 -0.4818
   85MOL0     C11406   1.749   1.626  10.355 -0.3534  0.5596 -0.2523
   85MOL0     C11407   1.768   1.695  10.235 -0.4474  0.1161  0.1753
   85MOL0     H11408   1.712   1.972   9.835  0.4277 -0.8170  2.1696
   85MOL0     H11409   1.788   2.174   9.716  0.3643 -1.0182  0.2841
   85MOL0     H11410   1.682   2.561   9.889  0.0685 -1.9992 -1.1690
   85MOL0     H11411   1.849   2.544   9.960 -0.8992  1.5721  0.8573
   85MOL0     H11412   1.807   2.749   9.804  2.8139  1.9111 -2.9103
   85MOL0     H11413   1.940   2.639   9.745 -0.3554 -1.4238 -2.1144
   85MOL0     H11414   1.760   2.740   9.589  0.3063  0.1255 -1.6617
   85MOL0     H11415   1.817   2.564   9.573  0.5490  0.5813 -1.0928
   85MOL0     H11416   1.620   2.497   9.687 -0.9396 -0.4771 -0.9074
   85MOL0     H11417   1.571   2.667   9.738  0.7186  0.2815  1.1065
   85MOL0     H11418   1.513   2.703   9.492  0.2978 -0.1027 -0.1145
   85MOL0     H11419   1.554   2.529   9.462  0.1804 -2.0554  1.8362
   85MOL0     H11420   1.379   2.465   9.627  0.6272 -1.2724 -4.0289
   85MOL0     H11421   1.329   2.641   9.623 -1.4197 -0.0641 -0.2834
   85MOL0     H11422   1.284   2.634   9.391  0.1009 -0.4704 -0.5205
   85MOL0     H11423   1.352   2.469   9.376 -1.7840 -0.8030 -1.5038
   85MOL0     H11424   1.148   2.405   9.547 -3.1172  1.3165  1.2706
   85MOL0     H11425   1.136   2.409   9.370  1.6911  0.4653 -0.3971
   85MOL0     H11426   0.931   2.501   9.318  0.4975  1.6346 -1.3429
   85MOL0     H11427   0.712   2.818   9.424 -1.7816 -0.9718 -0.6772
   85MOL0     H11428   0.723   2.715   9.289 -1.1793  0.2463 -0.5805
   85MOL0     H11429   0.583   2.679   9.560 -0.5329  4.1578 -1.8476
   85MOL0     H11430   0.638   2.529   9.467 -2.4045 -0.0398 -1.8434
   85MOL0     H11431   0.449   2.766   9.416  2.3763  0.6315 -3.6041
   85MOL0     H11432   0.400   2.616   9.466 -0.0596  3.1252  2.1142
   85MOL0     H11433   0.526   2.672   9.186  1.6506 -3.5687 -1.3944
   85MOL0     H11434   0.355   2.645   9.212  0.0972 -0.7610 -0.7616
   85MOL0     H11435   0.214   2.536   9.330 -0.7503  0.8705  0.7752
   85MOL0     H11436   0.002   2.372   9.511  2.2746 -2.4855  0.1651
   85MOL0     H11437   0.006   2.470   9.377  2.1078  0.9052  0.9574
   85MOL0     H11438  -0.059   2.296   9.362 -3.2381  0.2889  3.4183
   85MOL0     H11439  -0.143   2.073   9.809  0.9489  0.1493 -0.7915
   85MOL0     H11440  -0.310   1.884   9.820  0.6035  2.3423  0.8940
   85MOL0     H11441  -0.426   1.656   9.812 -0.6225  0.2983 -0.8114
   85MOL0     H11442  -0.407   1.515   9.713  1.3655  0.3750 -2.3478
   85MOL0     H11443  -0.166   1.483   9.759 -1.8562 -3.3710  1.2143
   85MOL0     H11444  -0.162   1.639   9.853  0.3613  0.3685  0.6789
   85MOL0     H11445  -0.319   1.374   9.923  3.1561 -2.1015 -1.8539
   85MOL0     H11446  -0.323   1.531  10.008 -4.0926 -1.6419 -3.6983
   85MOL0     H11447  -0.080   1.347   9.968  3.7903  3.8698 -1.6531
   85MOL0     H11448  -0.058   1.506  10.038  3.2354 -1.7657 -1.6866
   85MOL0     H11449  -0.078   1.335  10.217  0.8869  1.7299 -0.0649
   85MOL0     H11450  -0.216   1.265  10.149 -0.6579  1.2214  2.0131
   85MOL0     H11451  -0.355   1.457  10.226 -1.4992 -2.0554  4.9081
   85MOL0     H11452  -0.256   1.386  10.353 -2.7752  1.1278  0.7541
   85MOL0     H11453  -0.141   1.616  10.216  1.3377  0.1322  0.4749
   85MOL0     H11454  -0.115   1.546  10.387  2.1782  0.5999 -1.8077
   85MOL0     H11455  -0.257   1.724  10.464 -0.5668  1.3457 -0.8870
   85MOL0     H11456  -0.371   1.600  10.414  0.8648 -0.7225 -2.9526
   85MOL0     H11457  -0.221   1.775   9.421  0.5662  2.7405 -3.4127
   85MOL0     H11458  -0.091   1.977   9.391  1.4022 -1.6488 -1.0356
   85MOL0     H11459   0.379   2.081   9.418 -0.0695  0.7873  2.8896
   85MOL0     H11460   0.506   2.239   9.277 -1.5333 -2.4530 -0.8563
   85MOL0     H11461   1.624   2.404  10.042  2.3177  1.2871  0.0868
   85MOL0     H11462   1.532   2.201  10.146  0.8815  1.1834  0.7823
   85MOL0     H11463   1.443   1.798  10.204 -0.2515  0.3008  0.3293
   85MOL0     H11464   1.425   1.693  10.428  0.8203  1.9378  1.7021
   85MOL0     H11465   1.436   1.604  10.622  0.3279  0.4407 -0.5372
   85MOL0     H11466   1.542   1.511  10.718  0.7984  0.9305  3.3088
   85MOL0     H11467   1.604   1.787  10.622 -0.2426 -1.4159 -2.8104
   85MOL0     H11468   1.720   1.679  10.711  0.2709  2.0791  2.4469
   85MOL0     H11469   1.459   1.717  10.842  0.1480  0.5716  2.4892
   85MOL0     H11470   1.560   1.853  10.809 -1.2445 -0.6379 -2.8007
   85MOL0     H11471   1.694   1.794  11.005 -1.3795  2.0533  0.0253
   85MOL0     H11472   1.703   1.628  10.958  4.8048  3.6740 -0.6963
   85MOL0     H11473   1.386   1.659  11.223  2.1783 -1.3930  0.4145
   85MOL0     H11474   1.826   1.566  10.402  0.3252  2.3933  1.0733
   85MOL0     H11475   1.863   1.695  10.183 -0.5841  0.1726 -0.0762
   86MOL0     O11476  10.527   8.537   0.868 -0.4290  0.6164  0.6361
   86MOL0     C11477  10.475   8.629   0.930 -0.8822  0.6110 -0.0312
   86MOL0     O11478  10.485   8.766   0.904  0.5629 -0.0922  1.0976
   86MOL0     C11479  10.524   8.802   0.774 -0.1475 -0.5296  1.1918
   86MOL0     C11480  10.643   8.872   0.747  0.9236  1.1443  1.6250
   86MOL0     C11481  10.676   8.903   0.612  0.2891  0.5841  0.1318
   86MOL0     C11482  10.594   8.858   0.508  0.2582  0.1361  1.0447
   86MOL0     O11483  10.622   8.863   0.376  0.4156 -0.7067  0.0026
   86MOL0     C11484  10.737   8.924   0.324  0.0617 -0.6081  0.5047
   86MOL0     C11485  10.720   8.947   0.172 -0.0093  0.5860  0.8860
   86MOL0     C11486  10.613   9.057   0.135  0.0368 -0.3646 -0.2172
   86MOL0     C11487  10.470   9.022   0.144  0.1865 -0.5594 -0.5947
   86MOL0     C11488  10.366   9.126   0.097 -0.6150  0.2214  0.2377
   86MOL0     C11489  10.226   9.126   0.164  0.3539  0.2335  0.8994
   86MOL0     C11490  10.135   9.245   0.124  0.3925 -0.0621 -1.3720
   86MOL0     C11491  10.172   9.373   0.199 -1.8564  0.9010  0.2495
   86MOL0     N11492  10.075   9.476   0.191  0.8246 -0.1255  0.8294
   86MOL0     C11493  10.085   9.588   0.118  0.5613 -0.0439 -0.7825
   86MOL0     C11494   9.969   9.654   0.119 -0.3752 -0.3433  0.4332
   86MOL0     C11495   9.944   9.762   0.027  0.3305 -0.7528 -0.2438
   86MOL0     C11496   9.828   9.750  -0.077  0.2085 -0.2842  0.0202
   86MOL0     C11497   9.838   9.855  -0.193  0.1623 -0.4466  0.1782
   86MOL0     C11498   9.810  10.002  -0.140 -0.2338 -0.5521  0.3411
   86MOL0     O11499   9.927  10.045  -0.073 -0.6537 -0.9251 -0.1903
   86MOL0     C11500   9.925  10.166  -0.013  0.6528  0.3267 -1.0362
   86MOL0     C11501  10.033  10.206   0.060  0.3156 -0.3717 -0.5750
   86MOL0     C11502  10.036  10.327   0.130  0.3694 -0.3903 -0.3865
   86MOL0     C11503  10.166  10.368   0.190 -0.8265  0.2358  0.2395
   86MOL0     C11504   9.920  10.411   0.122  0.2144 -0.6991 -0.0782
   86MOL0     C11505   9.899  10.540   0.189  0.1154 -0.4596 -0.3506
   86MOL0     O11506   9.786  10.601   0.148 -0.2071  0.1210 -0.6587
   86MOL0     C11507   9.734  10.702   0.230 -0.3329  1.0852  0.3631
   86MOL0     C11508   9.798  10.828   0.228 -0.4428  0.0890 -0.0707
   86MOL0     C11509   9.746  10.927   0.304 -0.6274 -0.6218  0.5214
   86MOL0     C11510   9.639  10.904   0.390  0.3117  0.2294  0.9699
   86MOL0     O11511   9.574  11.001   0.462  0.7003  0.1566 -0.2252
   86MOL0     C11512   9.652  11.084   0.550  0.7850  1.1277 -0.2271
   86MOL0     C11513   9.557  11.153   0.652 -0.4001 -0.4258  1.0533
   86MOL0     C11514   9.608  11.298   0.699  0.3048  0.2105  0.3713
   86MOL0     C11515   9.745  11.296   0.762  0.9571 -0.4968  0.2706
   86MOL0     C11516   9.745  11.231   0.891 -0.3020  0.1436  0.1140
   86MOL0     C11517   9.880  11.252   0.958  0.8942 -0.0235  0.0435
   86MOL0     C11518   9.901  11.156   1.073  0.1149  0.0560  0.3940
   86MOL0     C11519  10.050  11.130   1.115  0.1804  0.1934 -0.4205
   86MOL0    Cl11520  10.151  11.077   0.988  0.1114 -0.1351  0.3707
   86MOL0     C11521   9.585  10.778   0.395  0.5149 -0.1301  0.3394
   86MOL0     C11522   9.626  10.678   0.318  0.7735 -0.5413 -0.5590
   86MOL0     O11523   9.969  10.570   0.289  0.2214 -0.4503 -0.2377
   86MOL0     C11524   9.807  10.367   0.039 -0.9584 -0.3594 -0.1065
   86MOL0     C11525   9.814  10.248  -0.025  0.1653  0.2032 -0.3785
   86MOL0     N11526   9.891   9.578   0.210 -0.2259  0.4633  0.3755
   86MOL0     N11527   9.949   9.474   0.244 -0.0831  0.5037 -0.2305
   86MOL0     C11528  10.479   8.782   0.538  0.0614 -0.8515 -0.4459
   86MOL0     C11529  10.440   8.765   0.673  0.0042 -0.0934  0.5066
   86MOL0     C11530  10.396   8.582   1.037  0.5704  0.1175 -0.2466
   86MOL0     C11531  10.377   8.448   1.074 -0.6497  0.8687 -0.1575
   86MOL0     C11532  10.294   8.420   1.192  0.0278  0.5600  0.1078
   86MOL0     C11533  10.221   8.521   1.265 -0.7004  0.6901 -0.2610
   86MOL0     O11534  10.127   8.515   1.371  0.1816  0.0203  0.0753
   86MOL0     C11535  10.076   8.395   1.431 -1.0497  0.0953  0.1259
   86MOL0     C11536  10.186   8.345   1.528  0.8360  1.4107  0.1484
   86MOL0     C11537  10.117   8.289   1.656  0.3978 -1.2866  0.9550
   86MOL0     C11538  10.177   8.160   1.707 -0.8571  0.8919 -0.3517
   86MOL0     C11539  10.147   8.160   1.851 -0.2117 -0.3115 -0.6347
   86MOL0     C11540  10.137   8.181   1.967 -0.6460 -0.2952  0.9651
   86MOL0     C11541  10.252   8.654   1.222 -0.1801  0.4692 -0.1362
   86MOL0     C11542  10.326   8.688   1.110 -0.5657 -0.3254 -0.2718
   86MOL0     H11543  10.710   8.893   0.830  1.8507  1.2431  0.8636
   86MOL0     H11544  10.765   8.961   0.589  2.0544 -2.5456 -1.5725
   86MOL0     H11545  10.767   9.018   0.371 -1.4623  0.1516  0.0233
   86MOL0     H11546  10.827   8.862   0.337  0.9103  1.0586  3.5561
   86MOL0     H11547  10.816   8.980   0.132 -0.3918  0.3279 -0.3006
   86MOL0     H11548  10.696   8.847   0.134  0.4441 -0.0283  2.1662
   86MOL0     H11549  10.638   9.144   0.197 -1.5384  0.5152 -0.7463
   86MOL0     H11550  10.618   9.090   0.031 -0.1850 -3.8395 -1.4558
   86MOL0     H11551  10.464   8.929   0.086  0.2502 -0.1771 -1.2265
   86MOL0     H11552  10.434   9.001   0.245 -1.4789 -0.4668 -1.1448
   86MOL0     H11553  10.414   9.222   0.118  3.6534 -1.9679  1.7398
   86MOL0     H11554  10.365   9.119  -0.012 -1.1522  4.2277 -0.1527
   86MOL0     H11555  10.177   9.042   0.113 -2.6864  3.3888 -1.9433
   86MOL0     H11556  10.230   9.117   0.273 -1.2559 -0.3875  0.9344
   86MOL0     H11557  10.119   9.258   0.016  2.5126  1.1878 -1.5769
   86MOL0     H11558  10.038   9.217   0.166 -1.1418  0.4060 -4.3410
   86MOL0     H11559  10.261   9.403   0.143 -0.7059 -2.2770  0.1686
   86MOL0     H11560  10.213   9.349   0.298  2.2419 -4.4512 -2.1837
   86MOL0     H11561  10.176   9.615   0.064  1.1715 -1.5821 -0.5925
   86MOL0     H11562   9.897   9.841   0.087 -0.7116 -0.2155 -1.7095
   86MOL0     H11563  10.036   9.797  -0.020 -1.0461  1.4873 -1.4770
   86MOL0     H11564   9.729   9.763  -0.032 -1.1119 -2.3270 -2.0751
   86MOL0     H11565   9.821   9.647  -0.114 -0.9112 -0.2456  0.0912
   86MOL0     H11566   9.758   9.818  -0.258 -1.1357  0.1364  1.4029
   86MOL0     H11567   9.934   9.845  -0.244  0.6446 -2.2116  1.3295
   86MOL0     H11568   9.723   9.998  -0.074 -0.8269 -0.4554 -0.4176
   86MOL0     H11569   9.787  10.065  -0.227  3.2015 -0.3563 -0.5592
   86MOL0     H11570  10.128  10.155   0.049  1.2808  1.2392 -0.0697
   86MOL0     H11571  10.252  10.305   0.166 -0.0419  0.6167  1.8706
   86MOL0     H11572  10.187  10.472   0.161 -1.7636  0.3431 -0.0741
   86MOL0     H11573  10.148  10.361   0.298 -2.5944 -1.2712 -0.1175
   86MOL0     H11574   9.870  10.840   0.148  0.7959 -1.2647  0.7789
   86MOL0     H11575   9.785  11.028   0.307 -0.5613 -0.5882 -0.9791
   86MOL0     H11576   9.722  11.030   0.614 -0.4708  1.6797  1.7168
   86MOL0     H11577   9.704  11.164   0.497 -0.4228  0.4529 -2.5564
   86MOL0     H11578   9.460  11.171   0.606  1.1234  0.9731 -1.8899
   86MOL0     H11579   9.554  11.089   0.740  1.7501 -2.8453 -0.4886
   86MOL0     H11580   9.545  11.342   0.778 -0.5938 -2.5480  1.3290
   86MOL0     H11581   9.610  11.352   0.604  6.3420  0.6592  0.3749
   86MOL0     H11582   9.808  11.247   0.687  0.4082  4.5565 -4.1300
   86MOL0     H11583   9.783  11.399   0.766  4.2546 -1.5515 -0.8020
   86MOL0     H11584   9.716  11.126   0.884 -2.3876  0.5924  1.2294
   86MOL0     H11585   9.671  11.284   0.952  0.5680 -0.4170  1.7081
   86MOL0     H11586   9.947  11.225   0.876 -0.3583  2.7190 -2.0344
   86MOL0     H11587   9.904  11.352   0.996  4.7158 -0.9873  0.6161
   86MOL0     H11588   9.850  11.066   1.039 -0.7576  0.4302  0.6839
   86MOL0     H11589   9.840  11.190   1.157  2.1863  4.5989  0.3895
   86MOL0     H11590  10.036  11.050   1.189  2.1160 -1.4315 -1.7140
   86MOL0     H11591  10.096  11.215   1.166 -1.6119 -0.8087  3.2431
   86MOL0     H11592   9.516  10.753   0.475  1.9154  0.7635  1.8937
   86MOL0     H11593   9.588  10.577   0.335  0.4460 -0.2466  0.5342
   86MOL0     H11594   9.716  10.422   0.015 -0.5271 -0.5630 -2.4231
   86MOL0     H11595   9.726  10.234  -0.087 -0.2418 -2.5502  0.6556
   86MOL0     H11596  10.420   8.736   0.460  0.4757  0.6462 -1.7064
   86MOL0     H11597  10.354   8.703   0.695  1.2430 -2.0035  0.1366
   86MOL0     H11598  10.417   8.357   1.032 -2.6286 -0.8520  1.4944
   86MOL0     H11599  10.276   8.317   1.223  0.4015 -0.9218 -4.0581
   86MOL0     H11600   9.983   8.425   1.479 -0.6950 -0.8640  1.4557
   86MOL0     H11601  10.050   8.317   1.358 -2.0206  0.6307 -0.1105
   86MOL0     H11602  10.251   8.430   1.551  0.1346  2.3063 -1.0257
   86MOL0     H11603  10.253   8.270   1.485  3.0995  3.9170 -0.9819
   86MOL0     H11604  10.013   8.263   1.635  1.0818 -1.9768 -1.9988
   86MOL0     H11605  10.122   8.369   1.731  0.4030 -0.8981  0.5474
   86MOL0     H11606  10.286   8.151   1.702 -1.0771 -2.3363 -2.6070
   86MOL0     H11607  10.125   8.077   1.658  2.6124 -1.9834  0.4391
   86MOL0     H11608  10.120   8.188   2.073  3.5066  2.5541  1.6730
   86MOL0     H11609  10.198   8.740   1.259  0.6755  0.9506  0.0049
   86MOL0     H11610  10.347   8.792   1.086  0.0710 -0.6810 -1.3372
   87MOL0     O11611  10.821   7.004   1.388  0.0903 -0.0632 -0.3673
   87MOL0     C11612  10.872   6.977   1.277  0.7431 -0.0330  0.3438
   87MOL0     O11613  10.990   6.928   1.257  0.5202  0.0772  0.3907
   87MOL0     C11614  11.089   6.983   1.328 -1.0799  0.1864 -0.3540
   87MOL0     C11615  11.195   6.900   1.365 -0.4407  0.3956  0.3146
   87MOL0     C11616  11.307   6.949   1.440 -0.4076  0.1650  0.2877
   87MOL0     C11617  11.304   7.080   1.481  0.6967 -0.4370 -0.2584
   87MOL0     O11618  11.394   7.143   1.568  0.3050 -0.6201 -0.5901
   87MOL0     C11619  11.526   7.145   1.520  0.8965 -0.6000  0.3821
   87MOL0     C11620  11.607   7.249   1.591 -0.6820  0.3744  0.7010
   87MOL0     C11621  11.532   7.396   1.592 -0.2960  0.3396  0.3243
   87MOL0     C11622  11.450   7.416   1.718  0.7558  0.5100 -1.3188
   87MOL0     C11623  11.420   7.575   1.728 -0.3946  0.3049 -0.5889
   87MOL0     C11624  11.390   7.628   1.869  0.2193  0.0586  0.6538
   87MOL0     C11625  11.289   7.550   1.940 -0.8896  0.1803  1.3606
   87MOL0     C11626  11.212   7.644   2.039 -0.5449 -0.1943 -0.2593
   87MOL0     N11627  11.221   7.573   2.172  0.3151  0.1304 -0.1649
   87MOL0     C11628  11.310   7.592   2.270 -0.1824 -0.8474 -0.3856
   87MOL0     C11629  11.279   7.516   2.373  0.5010 -0.2114  0.2883
   87MOL0     C11630  11.359   7.516   2.504  0.6666  0.1705 -0.0176
   87MOL0     C11631  11.470   7.410   2.506 -0.1626  0.1963 -0.2470
   87MOL0     C11632  11.419   7.271   2.519  0.2033 -0.0392 -0.0258
   87MOL0     C11633  11.453   7.226   2.670  0.2460 -0.4574 -0.6207
   87MOL0     O11634  11.365   7.113   2.710 -1.1557  0.2786  0.2953
   87MOL0     C11635  11.419   7.046   2.819  0.3157  0.2526 -0.1772
   87MOL0     C11636  11.521   7.098   2.899 -0.3406  0.7892 -0.1926
   87MOL0     C11637  11.572   7.028   3.007 -0.0636 -0.1044  0.8955
   87MOL0     C11638  11.693   7.075   3.079  0.7219  0.4183  0.7919
   87MOL0     C11639  11.520   6.899   3.027 -0.1884  0.2468 -0.2257
   87MOL0     C11640  11.563   6.793   3.131  0.4713  0.8771  0.7429
   87MOL0     O11641  11.498   6.673   3.141 -0.0567 -0.2711 -0.0358
   87MOL0     C11642  11.478   6.641   3.268 -0.2653 -0.0715  0.1127
   87MOL0     C11643  11.576   6.556   3.335 -0.3794  0.0200 -0.2683
   87MOL0     C11644  11.571   6.530   3.469  0.6210 -0.3986  2.0210
   87MOL0     C11645  11.463   6.580   3.547 -1.0560 -0.1368 -0.8432
   87MOL0     O11646  11.439   6.546   3.679 -1.0023  0.1664  0.6368
   87MOL0     C11647  11.542   6.494   3.760  0.4638  0.5532 -0.4043
   87MOL0     C11648  11.516   6.513   3.912 -0.1440  0.9969 -0.0051
   87MOL0     C11649  11.462   6.658   3.949  0.9709 -0.4209  0.5567
   87MOL0     C11650  11.474   6.682   4.100 -0.3838 -0.1795 -0.3318
   87MOL0     C11651  11.443   6.824   4.149  0.2273  0.2617 -0.3892
   87MOL0     C11652  11.302   6.863   4.125 -0.8204 -0.8501 -0.7644
   87MOL0     C11653  11.243   6.983   4.190 -0.7922 -0.0921 -0.2408
   87MOL0     C11654  11.330   7.111   4.158 -0.5536  0.3774 -0.5747
   87MOL0    Cl11655  11.268   7.252   4.252  0.0371  0.0501 -0.5586
   87MOL0     C11656  11.358   6.657   3.480 -0.1466  0.1157  0.7316
   87MOL0     C11657  11.367   6.685   3.339  0.5634  0.5553  0.8436
   87MOL0     O11658  11.659   6.821   3.200  0.4788  0.8595 -0.2294
   87MOL0     C11659  11.412   6.854   2.956  0.1986  0.1832  0.5392
   87MOL0     C11660  11.353   6.931   2.851 -0.1023  0.6097  0.2747
   87MOL0     N11661  11.164   7.444   2.335 -0.8178  0.5889  0.1608
   87MOL0     N11662  11.135   7.483   2.217  0.0718 -0.7062  0.6360
   87MOL0     C11663  11.197   7.162   1.447  0.7615  0.2136  0.0992
   87MOL0     C11664  11.096   7.119   1.368 -0.4752  0.6877 -0.5768
   87MOL0     C11665  10.775   6.980   1.167 -1.1783 -0.6064 -0.1963
   87MOL0     C11666  10.807   6.992   1.027 -0.0219  0.1477  0.5780
   87MOL0     C11667  10.707   6.976   0.935  0.2458 -0.6253  0.5990
   87MOL0     C11668  10.581   6.964   0.962  0.5210  0.1602  0.3966
   87MOL0     O11669  10.491   6.929   0.866 -0.5130  0.6353 -0.1770
   87MOL0     C11670  10.504   6.974   0.733  0.4900  0.1338 -0.2116
   87MOL0     C11671  10.381   6.959   0.640  0.7988  0.6496  0.3476
   87MOL0     C11672  10.434   6.905   0.497  0.4443 -0.4790 -0.9209
   87MOL0     C11673  10.413   6.755   0.489  0.3855 -0.3511 -0.6414
   87MOL0     C11674  10.482   6.705   0.368 -0.4227 -1.0017  0.1313
   87MOL0     C11675  10.513   6.660   0.259 -0.0812  0.0576 -0.7289
   87MOL0     C11676  10.544   6.945   1.101  0.2075  0.1645 -0.2142
   87MOL0     C11677  10.639   6.957   1.202 -0.2494  0.0010 -0.4006
   87MOL0     H11678  11.183   6.800   1.323 -1.2301  0.5208  0.2196
   87MOL0     H11679  11.381   6.881   1.481  0.9410  0.4385 -1.5499
   87MOL0     H11680  11.570   7.046   1.538  1.9042 -0.2651 -0.1220
   87MOL0     H11681  11.527   7.167   1.413  2.2169 -0.4353  0.4036
   87MOL0     H11682  11.635   7.228   1.694 -0.5445 -0.1453  0.5568
   87MOL0     H11683  11.694   7.256   1.525 -0.7751  1.9802  0.6919
   87MOL0     H11684  11.606   7.477   1.592  0.9078 -0.6859  1.7620
   87MOL0     H11685  11.464   7.404   1.507 -0.2514 -1.1102  0.1240
   87MOL0     H11686  11.351   7.370   1.712  1.2414 -0.3610 -2.9761
   87MOL0     H11687  11.504   7.371   1.802  0.3970 -1.5893 -2.1733
   87MOL0     H11688  11.496   7.642   1.687 -0.7901  1.8999  1.1392
   87MOL0     H11689  11.334   7.607   1.669 -2.5678  4.3489  3.9896
   87MOL0     H11690  11.484   7.631   1.924  2.0192 -3.8244 -1.7697
   87MOL0     H11691  11.353   7.729   1.847 -0.7779 -0.6960 -1.4824
   87MOL0     H11692  11.220   7.496   1.874 -1.3079  1.2651  0.8854
   87MOL0     H11693  11.337   7.461   1.982 -0.6394 -1.9528 -2.9059
   87MOL0     H11694  11.105   7.642   2.020 -1.1703  0.2161  2.6909
   87MOL0     H11695  11.270   7.737   2.045  1.7058 -1.2616 -3.0424
   87MOL0     H11696  11.381   7.673   2.257 -1.8693  1.1447  1.9578
   87MOL0     H11697  11.408   7.614   2.510 -1.4627  1.2612  0.6458
   87MOL0     H11698  11.287   7.519   2.587  1.8880 -3.5577  1.3923
   87MOL0     H11699  11.538   7.429   2.590 -0.9899 -2.0076  0.9925
   87MOL0     H11700  11.539   7.420   2.422  0.8586 -0.7688  0.4518
   87MOL0     H11701  11.460   7.210   2.438  3.9149  2.8507 -0.5907
   87MOL0     H11702  11.311   7.277   2.503  0.0950 -1.9795 -0.3236
   87MOL0     H11703  11.458   7.309   2.741  2.1972  0.9859 -2.3350
   87MOL0     H11704  11.560   7.203   2.672  0.0728 -1.5057  2.2271
   87MOL0     H11705  11.570   7.190   2.869 -0.2337  0.1624 -2.1344
   87MOL0     H11706  11.779   7.024   3.036 -1.5167 -1.6324 -1.5427
   87MOL0     H11707  11.709   7.183   3.069 -0.8170  0.8664  2.4215
   87MOL0     H11708  11.680   7.049   3.185  1.6729  0.5547  0.9522
   87MOL0     H11709  11.649   6.517   3.264  0.7469 -0.6078  1.1947
   87MOL0     H11710  11.649   6.475   3.520  0.8219 -1.4678  0.6212
   87MOL0     H11711  11.553   6.387   3.738 -1.9362 -0.4066  2.2831
   87MOL0     H11712  11.644   6.520   3.733 -0.1646  1.3316 -2.1574
   87MOL0     H11713  11.443   6.443   3.954  0.6271  0.0065 -0.2781
   87MOL0     H11714  11.608   6.477   3.959 -2.7121 -4.9782  1.3921
   87MOL0     H11715  11.362   6.675   3.909 -0.4146  0.5162  3.9875
   87MOL0     H11716  11.532   6.723   3.897 -1.7937  0.7581 -1.9800
   87MOL0     H11717  11.410   6.609   4.150  0.1954 -1.9562 -2.0653
   87MOL0     H11718  11.576   6.653   4.125 -0.0665  0.9666 -0.2092
   87MOL0     H11719  11.500   6.899   4.093 -3.8383  1.4326 -3.5075
   87MOL0     H11720  11.461   6.816   4.256 -0.8879 -2.7212 -0.3328
   87MOL0     H11721  11.290   6.876   4.017 -0.7793 -1.0605 -0.7947
   87MOL0     H11722  11.240   6.781   4.161 -1.3182  0.3545  1.3163
   87MOL0     H11723  11.230   6.974   4.298  0.9536  3.0390  0.3483
   87MOL0     H11724  11.140   6.995   4.154 -1.5605 -1.1198  1.5262
   87MOL0     H11725  11.322   7.125   4.050  4.6771 -1.8528 -1.5576
   87MOL0     H11726  11.438   7.102   4.173 -0.3976  3.7595  1.3134
   87MOL0     H11727  11.274   6.681   3.544  0.3865  1.4489  0.9629
   87MOL0     H11728  11.297   6.751   3.290  0.9643  0.2469 -0.1624
   87MOL0     H11729  11.373   6.754   2.970  3.8841 -1.2436  1.8139
   87MOL0     H11730  11.274   6.900   2.784 -0.2720  0.5222  0.5108
   87MOL0     H11731  11.183   7.267   1.474 -2.7884 -0.4784  1.4324
   87MOL0     H11732  11.021   7.191   1.338 -0.9741  0.9962  1.2837
   87MOL0     H11733  10.910   7.000   0.993  0.3202  2.5702  1.9571
   87MOL0     H11734  10.736   6.983   0.830  2.0427 -0.5823  1.0663
   87MOL0     H11735  10.541   7.077   0.727 -2.5872  1.2751 -1.1264
   87MOL0     H11736  10.587   6.916   0.690  0.6887  0.8218 -0.7913
   87MOL0     H11737  10.321   7.050   0.628  1.4627  1.2819  1.6022
   87MOL0     H11738  10.324   6.882   0.693  1.8131  1.6829  3.1446
   87MOL0     H11739  10.539   6.929   0.479  1.1413 -0.1937  2.7038
   87MOL0     H11740  10.362   6.953   0.430  1.0798  1.1587 -0.4896
   87MOL0     H11741  10.305   6.745   0.472  0.6929 -0.1725 -3.0031
   87MOL0     H11742  10.438   6.699   0.579 -0.7892 -0.7466 -0.5447
   87MOL0     H11743  10.535   6.640   0.156 -0.6619 -1.0826 -0.6462
   87MOL0     H11744  10.440   6.921   1.117  0.8654 -2.1964  0.9667
   87MOL0     H11745  10.606   6.953   1.305  2.4317  0.4632  0.5428
   88MOL0     O11746   7.137   9.810   5.210  0.2983 -0.8468  0.3091
   88MOL0     C11747   7.162   9.845   5.093  0.2127 -0.4570 -0.2979
   88MOL0     O11748   7.097   9.798   4.975  0.0720  0.2557  0.3035
   88MOL0     C11749   6.970   9.747   4.987  0.8035 -0.5823  0.1056
   88MOL0     C11750   6.950   9.614   4.962 -0.1920  0.0657  1.0389
   88MOL0     C11751   6.821   9.567   4.965  0.6193 -0.3570 -0.2018
   88MOL0     C11752   6.705   9.639   4.995 -0.2115  1.0497 -0.4253
   88MOL0     O11753   6.577   9.594   5.023 -0.8022  0.3469 -0.4146
   88MOL0     C11754   6.554   9.456   5.068 -0.1146 -0.8798  0.8638
   88MOL0     C11755   6.435   9.477   5.159 -0.5888 -0.2788 -0.3555
   88MOL0     C11756   6.403   9.346   5.238  0.7118 -0.0507 -0.3562
   88MOL0     C11757   6.486   9.315   5.357  0.1338 -1.0799 -0.1129
   88MOL0     C11758   6.428   9.205   5.445 -0.6463  0.2301  0.0479
   88MOL0     C11759   6.514   9.175   5.566  0.5337  0.2278  0.3075
   88MOL0     C11760   6.536   9.308   5.648 -0.5325 -0.6365  0.5633
   88MOL0     C11761   6.414   9.393   5.685 -0.8345  0.2998  1.1895
   88MOL0     N11762   6.307   9.336   5.772  0.2442 -0.0852  0.0961
   88MOL0     C11763   6.333   9.300   5.905  0.3256  0.4194  0.6351
   88MOL0     C11764   6.221   9.247   5.950 -0.4044  0.5169  0.0527
   88MOL0     C11765   6.173   9.188   6.079 -0.6266 -0.2935  0.5030
   88MOL0     C11766   6.241   9.247   6.202 -0.3509  0.7668  0.4052
   88MOL0     C11767   6.184   9.189   6.327 -0.0648  0.2276 -0.6033
   88MOL0     C11768   6.194   9.033   6.339  0.7379  0.1583  0.8943
   88MOL0     O11769   6.141   8.986   6.462 -0.5067 -0.9466  0.5421
   88MOL0     C11770   6.185   8.854   6.487 -1.0353 -0.0033 -0.3198
   88MOL0     C11771   6.091   8.749   6.488  0.5126 -0.8986 -0.1331
   88MOL0     C11772   6.118   8.618   6.526  1.0263  0.5777 -0.4739
   88MOL0     C11773   6.002   8.520   6.513 -0.7776  0.0488  0.7702
   88MOL0     C11774   6.245   8.594   6.581  0.8031 -0.6689  0.1261
   88MOL0     C11775   6.280   8.464   6.654  0.0759  1.1250 -0.1197
   88MOL0     O11776   6.223   8.343   6.619  0.0275  0.0848  0.2630
   88MOL0     C11777   6.228   8.236   6.705 -0.2359 -0.4276 -0.2255
   88MOL0     C11778   6.110   8.179   6.753 -0.1714 -0.8093 -0.6595
   88MOL0     C11779   6.116   8.077   6.844  0.6214 -1.3664 -0.3567
   88MOL0     C11780   6.235   8.010   6.878  0.7274  0.0661  0.1858
   88MOL0     O11781   6.230   7.909   6.970 -0.2183  1.1504 -0.9931
   88MOL0     C11782   6.353   7.867   7.023  0.1582  0.4359 -0.3211
   88MOL0     C11783   6.338   7.729   7.094  0.3997 -0.3862  0.2435
   88MOL0     C11784   6.226   7.730   7.214 -0.3884 -0.2177  0.7421
   88MOL0     C11785   6.229   7.604   7.298 -0.2264  0.3137  0.5545
   88MOL0     C11786   6.208   7.483   7.205  0.0531 -0.5546 -0.2821
   88MOL0     C11787   6.159   7.358   7.286 -0.0358  0.6064  0.5109
   88MOL0     C11788   6.019   7.370   7.366 -0.7567  0.1426  0.8699
   88MOL0     C11789   5.915   7.438   7.287  0.2987 -0.7901 -0.3831
   88MOL0    Cl11790   5.883   7.362   7.122  0.1842  0.4738  0.1115
   88MOL0     C11791   6.345   8.052   6.807  0.4264  0.3830 -0.9247
   88MOL0     C11792   6.345   8.171   6.729 -0.2594 -0.0943  0.5311
   88MOL0     O11793   6.364   8.476   6.739  0.3570 -0.3060 -0.0334
   88MOL0     C11794   6.338   8.702   6.591 -0.1112 -0.0239  0.7516
   88MOL0     C11795   6.310   8.831   6.543 -0.2854  0.0168  0.7840
   88MOL0     N11796   6.126   9.250   5.841 -0.0009  0.3371  0.3091
   88MOL0     N11797   6.183   9.292   5.736 -0.9094  0.7749  0.6965
   88MOL0     C11798   6.734   9.772   5.020 -0.3331  0.2818 -0.0960
   88MOL0     C11799   6.859   9.831   5.019  0.0220  0.2104 -0.0635
   88MOL0     C11800   7.273   9.933   5.082 -0.2790 -0.9798 -0.3411
   88MOL0     C11801   7.343  10.001   5.192 -0.1232  0.1653  0.2717
   88MOL0     C11802   7.447  10.091   5.161  0.0702  0.3504  0.3074
   88MOL0     C11803   7.457  10.150   5.035 -0.0825  0.2054  0.3443
   88MOL0     O11804   7.547  10.254   5.016  0.1283 -0.4216 -0.2730
   88MOL0     C11805   7.644  10.219   4.915 -0.0307  0.3756  1.6122
   88MOL0     C11806   7.755  10.321   4.914  0.3221  0.1620 -0.6625
   88MOL0     C11807   7.707  10.438   4.835 -0.9409 -0.3409 -0.5311
   88MOL0     C11808   7.775  10.564   4.878  0.2267 -0.9783 -0.5923
   88MOL0     C11809   7.922  10.564   4.883  0.1736 -0.0384 -0.0633
   88MOL0     C11810   8.043  10.570   4.900  0.4697 -0.8107  0.7242
   88MOL0     C11811   7.382  10.091   4.931  0.3107  0.2036 -0.1419
   88MOL0     C11812   7.295   9.987   4.952  0.5636  0.6509  0.5608
   88MOL0     H11813   7.034   9.551   4.938 -1.4139 -0.6835 -1.5781
   88MOL0     H11814   6.839   9.460   4.964  2.6853 -0.0540 -0.6888
   88MOL0     H11815   6.524   9.392   4.985 -0.6676 -0.7404  0.9582
   88MOL0     H11816   6.642   9.421   5.123 -0.0101  0.3735  1.5396
   88MOL0     H11817   6.477   9.549   5.230  1.4428 -1.4260 -0.3309
   88MOL0     H11818   6.351   9.509   5.097 -0.1868  2.4610  0.3774
   88MOL0     H11819   6.302   9.366   5.273  0.8479 -0.9369  0.6023
   88MOL0     H11820   6.392   9.258   5.173  1.4142  0.2020 -0.8274
   88MOL0     H11821   6.582   9.274   5.322  1.3371  0.6119  1.0502
   88MOL0     H11822   6.509   9.406   5.412  2.0433 -4.0381  4.6541
   88MOL0     H11823   6.332   9.229   5.492  0.1406  2.2252  0.7091
   88MOL0     H11824   6.400   9.117   5.386 -2.0479  1.3968 -1.1249
   88MOL0     H11825   6.468   9.096   5.625 -1.5758  3.2956  3.1103
   88MOL0     H11826   6.616   9.148   5.536  0.7521  0.9932  0.3385
   88MOL0     H11827   6.575   9.280   5.747 -1.7871  0.1523  1.3074
   88MOL0     H11828   6.610   9.369   5.595  0.8286 -1.1496  1.7782
   88MOL0     H11829   6.376   9.414   5.584  0.0899  1.0269  0.9783
   88MOL0     H11830   6.444   9.493   5.718  2.8284 -0.0034 -0.6350
   88MOL0     H11831   6.426   9.311   5.960  0.6480 -2.3097  0.7919
   88MOL0     H11832   6.067   9.211   6.091 -0.4832  1.5536 -1.2536
   88MOL0     H11833   6.196   9.081   6.073 -0.5252 -0.2585  0.2777
   88MOL0     H11834   6.230   9.355   6.215 -0.3229  0.7528  0.5510
   88MOL0     H11835   6.348   9.232   6.186 -0.0775  1.2583  1.5827
   88MOL0     H11836   6.078   9.212   6.340  0.1560  0.7649  0.3787
   88MOL0     H11837   6.234   9.229   6.416 -1.2540 -0.5619  0.4588
   88MOL0     H11838   6.299   9.002   6.332  0.1855 -1.9855  1.5829
   88MOL0     H11839   6.140   8.977   6.261 -1.5988  0.5367  2.1620
   88MOL0     H11840   5.995   8.772   6.443  1.6911 -2.5059 -3.8334
   88MOL0     H11841   6.038   8.423   6.548  2.0658  0.9561  0.5360
   88MOL0     H11842   5.918   8.558   6.572 -1.2510  0.7114 -0.2934
   88MOL0     H11843   5.969   8.498   6.411 -0.6551 -1.9726  1.1298
   88MOL0     H11844   6.028   8.233   6.707  1.0194  0.1498 -1.7410
   88MOL0     H11845   6.021   8.043   6.886  0.3655 -0.7881 -0.4621
   88MOL0     H11846   6.442   7.865   6.959 -2.0111  2.5369 -3.6767
   88MOL0     H11847   6.367   7.937   7.106  1.6775 -3.2343  2.8142
   88MOL0     H11848   6.303   7.655   7.021  0.0512 -0.6252  0.6440
   88MOL0     H11849   6.434   7.692   7.132  0.4159  1.4301  2.1620
   88MOL0     H11850   6.130   7.756   7.170  0.5562  2.6964  0.2072
   88MOL0     H11851   6.256   7.820   7.267  2.7734  0.5668 -2.0017
   88MOL0     H11852   6.318   7.596   7.360 -1.3803  1.3110  2.4044
   88MOL0     H11853   6.148   7.618   7.370 -2.8766 -2.1153 -1.6596
   88MOL0     H11854   6.303   7.457   7.158  0.0021  0.1599 -0.8126
   88MOL0     H11855   6.128   7.504   7.133 -0.0704 -2.3931 -0.7313
   88MOL0     H11856   6.147   7.277   7.213 -3.4896 -0.3032  1.9273
   88MOL0     H11857   6.248   7.336   7.347  0.1983 -1.1810 -0.4123
   88MOL0     H11858   6.037   7.429   7.456  1.1365  1.3114 -0.2010
   88MOL0     H11859   5.980   7.273   7.395 -2.3445  0.8988  1.3611
   88MOL0     H11860   5.928   7.546   7.280 -1.5374 -0.2220  2.7412
   88MOL0     H11861   5.821   7.414   7.338 -1.1408 -0.1703 -2.6022
   88MOL0     H11862   6.437   8.001   6.833 -0.6680 -2.6282 -2.4117
   88MOL0     H11863   6.443   8.205   6.698 -0.0793 -0.4854  0.6656
   88MOL0     H11864   6.438   8.674   6.622  2.1324  2.9830 -2.8373
   88MOL0     H11865   6.393   8.900   6.544  0.9063 -1.3641  0.1256
   88MOL0     H11866   6.661   9.841   5.060 -0.6151 -1.2135  2.1677
   88MOL0     H11867   6.870   9.937   5.039  1.2316 -0.1399  1.3127
   88MOL0     H11868   7.332   9.965   5.293 -0.0950  2.6455  1.2433
   88MOL0     H11869   7.509  10.124   5.244  1.1625 -0.8631 -0.0038
   88MOL0     H11870   7.689  10.121   4.935  0.0664  0.1845  0.5423
   88MOL0     H11871   7.607  10.217   4.812  2.3148  3.2645  0.5411
   88MOL0     H11872   7.837  10.283   4.852 -0.8276 -0.0050 -2.1461
   88MOL0     H11873   7.808  10.352   5.004  2.0083  0.3394 -1.6689
   88MOL0     H11874   7.599  10.457   4.841 -0.8555  0.2480 -0.7700
   88MOL0     H11875   7.733  10.418   4.730 -1.4711 -1.1153 -0.5236
   88MOL0     H11876   7.743  10.602   4.975  3.7879  0.7481  0.0865
   88MOL0     H11877   7.753  10.643   4.805 -0.4444 -2.1157 -1.6532
   88MOL0     H11878   8.149  10.589   4.898 -0.0010  2.4397  1.9660
   88MOL0     H11879   7.366  10.130   4.831 -1.2815  1.6368  0.6089
   88MOL0     H11880   7.240   9.946   4.869 -1.4571  1.2621  1.5363
   89MOL0     O11881   7.224   9.074   9.658  0.2331  0.6082  0.4070
   89MOL0     C11882   7.177   9.036   9.551  0.4329 -0.0212  0.6578
   89MOL0     O11883   7.248   9.011   9.438 -0.6342  0.2344 -0.3801
   89MOL0     C11884   7.371   9.073   9.427  0.0608 -0.0214 -0.5127
   89MOL0     C11885   7.390   9.209   9.394 -0.4661  0.0367 -0.0695
   89MOL0     C11886   7.515   9.271   9.376  0.4004  0.8093 -0.2830
   89MOL0     C11887   7.628   9.199   9.421 -0.6307 -1.0800 -0.2777
   89MOL0     O11888   7.743   9.269   9.434 -1.3697  0.1639 -0.1080
   89MOL0     C11889   7.818   9.248   9.557 -0.6070 -0.0683 -0.3476
   89MOL0     C11890   7.946   9.156   9.534  0.7287  0.1976 -0.5740
   89MOL0     C11891   8.015   9.123   9.669 -0.1301 -0.9481 -0.3006
   89MOL0     C11892   8.118   9.014   9.650 -0.7574 -0.2008  0.5442
   89MOL0     C11893   8.200   9.031   9.512  0.3816 -0.0985 -0.6705
   89MOL0     C11894   8.330   8.945   9.501 -0.3056 -0.2005 -0.8842
   89MOL0     C11895   8.307   8.792   9.507 -0.5708  0.1696  0.3537
   89MOL0     C11896   8.407   8.700   9.439  0.1529  0.2272 -0.4527
   89MOL0     N11897   8.339   8.591   9.362  0.0378  0.2193  0.2596
   89MOL0     C11898   8.336   8.462   9.404 -0.0824 -0.3423 -0.9131
   89MOL0     C11899   8.246   8.399   9.326 -0.7445 -0.2757  0.3458
   89MOL0     C11900   8.194   8.258   9.341  0.0171  0.9374  0.3424
   89MOL0     C11901   8.110   8.189   9.225 -0.2532 -0.1791  0.0484
   89MOL0     C11902   8.012   8.081   9.276 -0.8278 -0.1190  0.2791
   89MOL0     C11903   8.075   7.954   9.343  0.2545  0.0851 -0.1734
   89MOL0     O11904   7.980   7.848   9.329 -0.0600  0.0222 -0.0491
   89MOL0     C11905   7.965   7.775   9.219 -0.2822  0.1622  0.7754
   89MOL0     C11906   7.865   7.674   9.221 -0.0199 -0.6515  0.0607
   89MOL0     C11907   7.844   7.587   9.115  0.1860  0.5837 -0.1796
   89MOL0     C11908   7.719   7.506   9.117 -0.0292  0.0384 -0.2984
   89MOL0     C11909   7.933   7.591   9.003 -0.6475  0.8484 -0.0130
   89MOL0     C11910   7.916   7.515   8.875  0.4387  0.5926 -0.0442
   89MOL0     O11911   7.974   7.557   8.763  0.0787 -1.4602  0.1371
   89MOL0     C11912   7.978   7.482   8.644  0.3576  0.4769  0.0356
   89MOL0     C11913   8.083   7.498   8.549 -1.0430 -0.3645  1.1120
   89MOL0     C11914   8.068   7.454   8.411 -0.0533 -0.5378 -0.1463
   89MOL0     C11915   7.963   7.366   8.385  0.6080 -0.0581  0.4406
   89MOL0     O11916   7.937   7.313   8.259  0.0144  0.0608 -0.7295
   89MOL0     C11917   8.044   7.315   8.161  0.7370 -0.0269  0.2188
   89MOL0     C11918   7.971   7.278   8.023  0.0304  0.5189  0.7080
   89MOL0     C11919   8.053   7.316   7.880  0.5379 -0.5523 -0.2671
   89MOL0     C11920   8.167   7.215   7.874  0.3608  0.0233  0.8256
   89MOL0     C11921   8.268   7.261   7.778  0.1365 -0.5401  0.6212
   89MOL0     C11922   8.392   7.172   7.742 -0.1037 -0.0012 -0.0791
   89MOL0     C11923   8.495   7.186   7.859  0.1207  0.2059  0.2526
   89MOL0     C11924   8.636   7.170   7.812  0.0114  0.3592  0.8024
   89MOL0    Cl11925   8.738   7.169   7.962  0.2500 -0.2688  0.4285
   89MOL0     C11926   7.865   7.346   8.479 -0.4056  0.3527 -0.0241
   89MOL0     C11927   7.862   7.411   8.602  0.0912 -0.6993 -0.6616
   89MOL0     O11928   7.864   7.407   8.896 -0.3041 -0.3975  0.4125
   89MOL0     C11929   8.035   7.680   9.011  0.1172 -0.1121  0.8594
   89MOL0     C11930   8.056   7.782   9.110  0.0934  0.9776  0.3895
   89MOL0     N11931   8.207   8.489   9.230 -0.4306 -0.5893  0.1015
   89MOL0     N11932   8.256   8.604   9.253 -0.8856  0.2382  0.1246
   89MOL0     C11933   7.617   9.060   9.445  0.9016 -0.1777 -0.0381
   89MOL0     C11934   7.488   8.997   9.444  0.5870 -0.8440  0.2573
   89MOL0     C11935   7.029   9.006   9.544  0.4878  0.3063  0.5373
   89MOL0     C11936   6.934   9.065   9.633  0.1582  0.9381 -0.4115
   89MOL0     C11937   6.800   9.035   9.624 -0.2752 -0.0079 -0.6428
   89MOL0     C11938   6.749   8.948   9.522 -0.1751 -0.0282 -0.8356
   89MOL0     O11939   6.615   8.919   9.519 -0.3503 -1.0692  0.1072
   89MOL0     C11940   6.560   8.831   9.423 -0.2974 -0.0018 -0.0387
   89MOL0     C11941   6.417   8.825   9.436  0.7355  0.4957 -0.1534
   89MOL0     C11942   6.349   8.802   9.578 -0.6841 -0.6560 -0.0404
   89MOL0     C11943   6.329   8.652   9.613  0.1249 -0.2417  0.2517
   89MOL0     C11944   6.293   8.650   9.756  0.6780  0.2025  0.2875
   89MOL0     C11945   6.276   8.647   9.875  0.6270  0.2575 -0.0876
   89MOL0     C11946   6.846   8.886   9.442 -1.7165 -0.0330  0.0264
   89MOL0     C11947   6.983   8.917   9.440 -0.1480 -0.5688 -0.0179
   89MOL0     H11948   7.304   9.270   9.367  0.9394  3.8023  3.0862
   89MOL0     H11949   7.518   9.378   9.358  2.3258  1.2686  2.2935
   89MOL0     H11950   7.851   9.346   9.592 -0.5143  0.5792 -2.1513
   89MOL0     H11951   7.762   9.202   9.639  0.1914 -0.2647  0.1006
   89MOL0     H11952   7.912   9.062   9.489 -1.0557 -0.3562  1.7499
   89MOL0     H11953   8.015   9.204   9.464  0.1753  1.2603 -0.4060
   89MOL0     H11954   8.067   9.207   9.716 -2.0192 -0.8184  1.7323
   89MOL0     H11955   7.951   9.089   9.751  2.1444 -0.3193  1.8921
   89MOL0     H11956   8.192   9.026   9.730  2.4384 -0.4103 -2.1666
   89MOL0     H11957   8.077   8.913   9.656  0.3421 -0.9169 -2.4141
   89MOL0     H11958   8.137   9.012   9.425  1.3846  2.6537 -2.1136
   89MOL0     H11959   8.239   9.133   9.507  0.5677  0.1283  3.1742
   89MOL0     H11960   8.369   8.972   9.402 -0.0716  0.6196 -0.5733
   89MOL0     H11961   8.413   8.972   9.566  0.9505  0.0827 -2.5520
   89MOL0     H11962   8.317   8.775   9.615 -2.3945  3.6571  1.2153
   89MOL0     H11963   8.202   8.772   9.482 -0.1379  0.2140 -1.6032
   89MOL0     H11964   8.463   8.651   9.520 -0.4983  1.3189  0.6976
   89MOL0     H11965   8.478   8.755   9.378 -0.0393 -0.8170 -1.6683
   89MOL0     H11966   8.378   8.421   9.496  0.6437  4.1028  1.0074
   89MOL0     H11967   8.280   8.190   9.345 -0.2641  0.5754  0.2559
   89MOL0     H11968   8.129   8.249   9.428 -0.2977 -2.8021 -0.1182
   89MOL0     H11969   8.175   8.136   9.154  2.4490  2.3276  0.4584
   89MOL0     H11970   8.057   8.266   9.168 -1.4444  0.8544  2.4296
   89MOL0     H11971   7.951   8.039   9.195  2.5030 -0.5955 -2.2162
   89MOL0     H11972   7.951   8.132   9.350  1.3023  2.7580  0.2534
   89MOL0     H11973   8.088   7.971   9.451 -0.6456 -0.7492  0.0845
   89MOL0     H11974   8.172   7.939   9.295  0.5733  3.0376 -0.6214
   89MOL0     H11975   7.801   7.684   9.308  0.7170  1.6092  0.4132
   89MOL0     H11976   7.656   7.535   9.032 -1.3407 -1.4537  0.1294
   89MOL0     H11977   7.759   7.405   9.122  2.3812  0.8953 -0.8713
   89MOL0     H11978   7.660   7.536   9.204 -2.1445  1.9753 -2.2381
   89MOL0     H11979   8.165   7.565   8.574 -1.7192  1.6720 -1.6388
   89MOL0     H11980   8.159   7.473   8.355  1.7115 -3.5285  1.4559
   89MOL0     H11981   8.081   7.417   8.147 -0.9730  0.5242 -0.5013
   89MOL0     H11982   8.124   7.244   8.184  2.5894  1.5742 -0.8983
   89MOL0     H11983   7.944   7.172   8.014  0.8431  0.2569  1.2540
   89MOL0     H11984   7.880   7.333   7.999 -0.7978 -1.8957 -2.3605
   89MOL0     H11985   8.081   7.420   7.900 -2.7405 -0.1229  3.3545
   89MOL0     H11986   7.995   7.319   7.787  0.1532 -4.0972 -0.2886
   89MOL0     H11987   8.198   7.180   7.972 -1.2837 -1.9340  0.7038
   89MOL0     H11988   8.124   7.122   7.837 -0.3337  0.1429  1.3009
   89MOL0     H11989   8.305   7.361   7.801 -1.4891  0.8260 -2.1058
   89MOL0     H11990   8.215   7.287   7.686 -1.5734 -0.4121  1.5838
   89MOL0     H11991   8.369   7.067   7.724 -2.5024 -0.2023  3.3030
   89MOL0     H11992   8.452   7.219   7.663  0.4613 -0.1904  0.2310
   89MOL0     H11993   8.473   7.113   7.937 -0.9477  2.1857  1.9064
   89MOL0     H11994   8.480   7.286   7.903 -0.4191  0.4852 -0.5371
   89MOL0     H11995   8.667   7.242   7.736  2.5735 -1.8652 -0.4257
   89MOL0     H11996   8.656   7.071   7.770 -1.8202 -1.4940  3.8909
   89MOL0     H11997   7.778   7.285   8.458 -2.2728  1.3814  3.7851
   89MOL0     H11998   7.776   7.414   8.668  1.6905  0.0691  1.5060
   89MOL0     H11999   8.096   7.690   8.921 -4.5255  0.0279 -2.6274
   89MOL0     H12000   8.128   7.856   9.077  1.0254 -1.1250 -2.7358
   89MOL0     H12001   7.710   9.008   9.465  1.9437  1.3384 -0.7045
   89MOL0     H12002   7.458   8.897   9.474  0.7703 -0.3598  2.1412
   89MOL0     H12003   6.974   9.142   9.697  0.9107 -3.6655  5.5982
   89MOL0     H12004   6.740   9.084   9.700 -1.8180 -0.5262 -1.4823
   89MOL0     H12005   6.586   8.857   9.320  2.7731  4.8162  1.5978
   89MOL0     H12006   6.594   8.730   9.449 -2.6272 -0.7357  0.4083
   89MOL0     H12007   6.378   8.760   9.358  1.5130 -1.0000  0.6637
   89MOL0     H12008   6.383   8.925   9.408  1.6268  1.0445  0.6524
   89MOL0     H12009   6.256   8.859   9.570 -1.2504 -1.4626  0.5557
   89MOL0     H12010   6.408   8.844   9.659 -3.0806  0.7028  1.0950
   89MOL0     H12011   6.425   8.605   9.591  2.5279  3.5873  1.7049
   89MOL0     H12012   6.252   8.606   9.550 -1.7687  1.8892  0.8924
   89MOL0     H12013   6.252   8.655   9.979  1.8271  1.1595  0.1491
   89MOL0     H12014   6.819   8.821   9.359 -0.9752 -0.5207  0.1648
   89MOL0     H12015   7.052   8.856   9.382 -2.8668 -0.7657 -3.3536
   90MOL0     O12016   6.982   8.905   4.328  0.7475  0.5152 -0.4014
   90MOL0     C12017   7.099   8.911   4.285  0.0849  0.2857 -0.5473
   90MOL0     O12018   7.214   8.869   4.355 -0.3440 -0.6471  0.3097
   90MOL0     C12019   7.193   8.826   4.482 -0.9654  0.1298  0.9303
   90MOL0     C12020   7.205   8.922   4.587 -0.2956  0.0976 -0.0496
   90MOL0     C12021   7.207   8.887   4.721 -0.3735 -1.2164  0.6186
   90MOL0     C12022   7.203   8.748   4.746  0.7320 -0.0468 -0.5720
   90MOL0     O12023   7.190   8.708   4.874  0.5839  0.1572 -0.7730
   90MOL0     C12024   7.051   8.706   4.911  0.5577  0.2155  0.5464
   90MOL0     C12025   7.038   8.626   5.043 -0.4533 -0.4687 -0.4942
   90MOL0     C12026   6.896   8.643   5.103 -0.6111 -0.3523  0.2397
   90MOL0     C12027   6.895   8.627   5.252 -0.6652  0.9927  0.7358
   90MOL0     C12028   6.905   8.483   5.286 -0.6681 -0.5480 -0.0882
   90MOL0     C12029   6.939   8.460   5.437 -0.6673 -0.1020  1.1261
   90MOL0     C12030   6.948   8.306   5.470 -0.0340 -0.3841 -0.4248
   90MOL0     C12031   6.815   8.233   5.486  0.2773  0.3595 -0.2773
   90MOL0     N12032   6.725   8.301   5.581 -0.3403  0.1837 -0.1599
   90MOL0     C12033   6.614   8.368   5.552 -0.3787  0.1637 -0.1462
   90MOL0     C12034   6.563   8.422   5.666 -0.6928  0.0048 -0.2879
   90MOL0     C12035   6.441   8.515   5.685 -0.3475  0.0742  0.5435
   90MOL0     C12036   6.315   8.443   5.628 -0.1857  0.6598  0.3971
   90MOL0     C12037   6.267   8.316   5.704 -1.2319  0.7808 -0.0683
   90MOL0     C12038   6.183   8.230   5.612  0.4121 -0.4686  0.6712
   90MOL0     O12039   6.114   8.133   5.700 -1.5161  0.4075  0.2478
   90MOL0     C12040   6.041   8.018   5.675  0.7681 -0.2987  0.1282
   90MOL0     C12041   6.025   7.964   5.551  0.6352 -1.1012 -0.5634
   90MOL0     C12042   5.954   7.849   5.538  0.5010 -0.0303 -0.5721
   90MOL0     C12043   5.943   7.801   5.392  0.3724 -0.8233 -0.7066
   90MOL0     C12044   5.900   7.785   5.653  0.9462  0.2528  0.4356
   90MOL0     C12045   5.830   7.655   5.669  0.1381 -0.5863  1.1309
   90MOL0     O12046   5.739   7.640   5.773 -0.2610  0.1818 -0.5628
   90MOL0     C12047   5.659   7.528   5.767  0.0846 -0.2716  0.3257
   90MOL0     C12048   5.667   7.405   5.834 -0.9022 -0.4822 -0.7036
   90MOL0     C12049   5.577   7.304   5.829 -0.1502  0.4792  0.4282
   90MOL0     C12050   5.468   7.308   5.738  0.0067  0.1571  0.0824
   90MOL0     O12051   5.377   7.201   5.728 -0.7190 -0.2251 -0.3006
   90MOL0     C12052   5.414   7.066   5.730 -0.4535  0.5858  0.7217
   90MOL0     C12053   5.312   6.971   5.651  0.5307 -0.4013 -0.5647
   90MOL0     C12054   5.175   6.989   5.727  0.4407 -0.5191  0.0902
   90MOL0     C12055   5.086   6.869   5.720  1.3425  0.8417  0.6768
   90MOL0     C12056   5.040   6.819   5.581  0.5771 -0.4825 -0.0097
   90MOL0     C12057   4.920   6.902   5.527 -0.0816  0.8691  0.8418
   90MOL0     C12058   4.881   6.862   5.379 -0.1692 -0.2501 -0.4149
   90MOL0     C12059   4.798   6.728   5.393  0.5080  0.2509 -0.1139
   90MOL0    Cl12060   4.718   6.672   5.251 -0.3882  0.4039 -0.2251
   90MOL0     C12061   5.452   7.424   5.664 -0.2675 -0.4704  0.5957
   90MOL0     C12062   5.544   7.533   5.682  0.1646 -1.2170 -0.7835
   90MOL0     O12063   5.858   7.570   5.584 -0.7577 -0.5913 -0.3161
   90MOL0     C12064   5.909   7.851   5.777  0.4203  0.8248 -1.1006
   90MOL0     C12065   5.975   7.962   5.786 -1.0085  0.0087 -1.0280
   90MOL0     N12066   6.643   8.380   5.768 -0.1298 -0.1690  1.1401
   90MOL0     N12067   6.743   8.310   5.719  0.5367  0.2199 -0.0452
   90MOL0     C12068   7.187   8.650   4.649  0.2376 -0.4269  0.3172
   90MOL0     C12069   7.186   8.699   4.514  0.2923  0.7773  0.2012
   90MOL0     C12070   7.121   8.947   4.141 -0.9289 -0.0094  0.1877
   90MOL0     C12071   7.029   9.033   4.073  0.7107  0.5033  0.5588
   90MOL0     C12072   7.050   9.069   3.941 -0.5691 -0.0726 -0.0776
   90MOL0     C12073   7.158   9.020   3.871 -0.2701 -0.2356  0.7324
   90MOL0     O12074   7.179   9.052   3.740 -0.5678  0.8176  0.4185
   90MOL0     C12075   7.292   9.143   3.714  0.5585 -0.0113 -0.5226
   90MOL0     C12076   7.223   9.281   3.699  0.2647  0.3378 -0.3538
   90MOL0     C12077   7.116   9.292   3.588 -0.0259 -0.0181  0.0273
   90MOL0     C12078   7.147   9.220   3.449  0.4681 -0.6660 -1.0278
   90MOL0     C12079   7.266   9.267   3.373  0.9652 -0.5094 -0.5222
   90MOL0     C12080   7.353   9.325   3.309 -0.5130 -0.7224 -1.0839
   90MOL0     C12081   7.250   8.936   3.929  0.4876 -1.3622 -0.1162
   90MOL0     C12082   7.234   8.900   4.060 -0.0570 -0.4798 -0.8459
   90MOL0     H12083   7.224   9.026   4.560  0.7251 -0.4968 -1.7498
   90MOL0     H12084   7.229   8.954   4.803  3.8027  1.8558 -2.5867
   90MOL0     H12085   7.004   8.804   4.924  1.6127  0.5597  2.0782
   90MOL0     H12086   6.991   8.655   4.835  0.7384  0.7389  0.0457
   90MOL0     H12087   7.057   8.518   5.036  1.2063 -0.2797  0.6227
   90MOL0     H12088   7.111   8.675   5.107  0.8725 -0.4026 -2.0024
   90MOL0     H12089   6.862   8.743   5.076 -1.0852 -1.3055 -3.1942
   90MOL0     H12090   6.830   8.575   5.048 -3.8057  4.0553 -2.0548
   90MOL0     H12091   6.980   8.669   5.307 -1.3865  1.6436  1.3965
   90MOL0     H12092   6.810   8.680   5.298  0.1811  1.6225  1.6271
   90MOL0     H12093   6.810   8.433   5.266 -0.9186 -0.2847  0.4181
   90MOL0     H12094   6.976   8.433   5.219  0.5012  2.8766 -1.6503
   90MOL0     H12095   7.034   8.498   5.475  0.6537 -3.1674  1.2058
   90MOL0     H12096   6.873   8.496   5.516  2.1201 -1.1470  4.1571
   90MOL0     H12097   7.004   8.254   5.392 -1.1456 -2.7346  0.2720
   90MOL0     H12098   7.011   8.307   5.560 -1.6469  1.8734  0.7826
   90MOL0     H12099   6.844   8.137   5.530 -2.5316 -1.9210 -2.9337
   90MOL0     H12100   6.762   8.211   5.393  0.9971  1.0548 -0.8707
   90MOL0     H12101   6.573   8.376   5.452 -0.0419  0.3019 -0.2751
   90MOL0     H12102   6.412   8.550   5.784  1.6464  1.8145  0.5901
   90MOL0     H12103   6.462   8.593   5.611  2.3256 -2.4990 -1.7123
   90MOL0     H12104   6.327   8.406   5.525  3.0487 -1.6506  1.4426
   90MOL0     H12105   6.230   8.511   5.617  1.0442  2.2218  0.0317
   90MOL0     H12106   6.200   8.344   5.786 -1.7153 -1.3488  0.3029
   90MOL0     H12107   6.349   8.252   5.739  1.6329  2.7267 -2.6382
   90MOL0     H12108   6.255   8.175   5.551  1.5714 -1.7462  3.0922
   90MOL0     H12109   6.109   8.280   5.548 -0.2129 -1.4200  0.6213
   90MOL0     H12110   6.086   8.007   5.472 -1.7011  1.6066 -1.0470
   90MOL0     H12111   5.956   7.886   5.324 -1.2081  2.2394  2.5098
   90MOL0     H12112   6.020   7.730   5.360  1.5191 -0.6736  1.4996
   90MOL0     H12113   5.846   7.760   5.364  0.5099  0.2876 -3.1314
   90MOL0     H12114   5.756   7.398   5.897 -2.3031  1.4443  1.6684
   90MOL0     H12115   5.590   7.211   5.883 -0.3680 -0.1941 -0.6568
   90MOL0     H12116   5.517   7.070   5.694  0.0838  1.1726  2.2495
   90MOL0     H12117   5.423   7.029   5.832  0.6513  1.8974  1.1137
   90MOL0     H12118   5.304   7.019   5.553  2.3902  1.2733  0.0397
   90MOL0     H12119   5.338   6.866   5.637  2.6369  0.1138 -0.7917
   90MOL0     H12120   5.118   7.076   5.692 -2.2278 -1.8701  0.8304
   90MOL0     H12121   5.194   6.992   5.835  0.1602 -0.4317  0.1364
   90MOL0     H12122   5.129   6.786   5.776 -2.3216  0.7980  3.7692
   90MOL0     H12123   4.994   6.895   5.773  2.4569  1.4361  2.3966
   90MOL0     H12124   5.003   6.716   5.584 -0.3053 -0.3093 -2.7960
   90MOL0     H12125   5.130   6.827   5.519  0.7979  1.5464  0.5200
   90MOL0     H12126   4.831   6.890   5.590 -0.2021 -1.1683  0.3397
   90MOL0     H12127   4.935   7.010   5.520 -3.9657  1.8959  4.2775
   90MOL0     H12128   4.952   6.870   5.296  1.1022  1.6775  0.7714
   90MOL0     H12129   4.819   6.946   5.345 -1.6895 -2.6350 -4.2190
   90MOL0     H12130   4.722   6.767   5.461  3.4877  2.5414  2.1957
   90MOL0     H12131   4.846   6.642   5.441  3.0716  1.8194  0.3903
   90MOL0     H12132   5.373   7.430   5.590 -1.1056 -2.5797  1.2624
   90MOL0     H12133   5.525   7.622   5.623 -1.2903 -0.1674  1.1592
   90MOL0     H12134   5.877   7.801   5.868  0.6263 -1.6147 -2.2857
   90MOL0     H12135   5.986   8.003   5.886 -0.2135 -1.6007 -0.4167
   90MOL0     H12136   7.178   8.544   4.670 -0.9158 -0.1651  1.2548
   90MOL0     H12137   7.182   8.622   4.437 -1.4618  0.2513  0.7704
   90MOL0     H12138   6.935   9.069   4.113 -2.6416 -3.2848 -2.9643
   90MOL0     H12139   6.986   9.143   3.895 -0.0514 -0.0381 -0.7465
   90MOL0     H12140   7.364   9.162   3.794  2.0660  0.7020 -1.9820
   90MOL0     H12141   7.334   9.115   3.617  0.4599  3.0498 -1.5422
   90MOL0     H12142   7.306   9.344   3.667  0.3028  2.1525  2.8799
   90MOL0     H12143   7.196   9.313   3.800 -1.6748 -2.6536  0.2128
   90MOL0     H12144   7.105   9.400   3.575  2.3610  0.0364 -2.6966
   90MOL0     H12145   7.025   9.243   3.624  1.3164 -0.5280  2.9860
   90MOL0     H12146   7.062   9.220   3.380  0.7775  0.7641 -1.4508
   90MOL0     H12147   7.175   9.116   3.467  0.0841 -0.2121  3.0145
   90MOL0     H12148   7.423   9.371   3.242 -2.3964  2.0366 -1.3485
   90MOL0     H12149   7.339   8.912   3.872  0.3987 -0.0556 -0.8593
   90MOL0     H12150   7.312   8.841   4.106 -2.1177 -0.9330  2.3970
   91MOL0     O12151   0.803  10.785   3.062  0.5191  0.4704 -0.5218
   91MOL0     C12152   0.729  10.881   3.085  0.3279 -0.6362  0.5756
   91MOL0     O12153   0.697  10.980   2.995  0.4375 -0.2528  0.8738
   91MOL0     C12154   0.767  10.982   2.880 -0.3480 -0.1166 -0.2974
   91MOL0     C12155   0.882  11.064   2.871 -0.3044 -0.0911 -0.5301
   91MOL0     C12156   0.952  11.059   2.747 -0.5817 -0.5624 -0.3470
   91MOL0     C12157   0.906  10.980   2.643 -0.3897 -0.5554  0.2030
   91MOL0     O12158   0.974  10.984   2.523 -0.1357 -0.0304 -0.2527
   91MOL0     C12159   1.008  10.862   2.459 -0.0291 -0.2228 -0.8625
   91MOL0     C12160   1.086  10.882   2.338 -0.7088 -0.1766  0.1489
   91MOL0     C12161   1.002  10.874   2.206  1.1761 -0.0077 -0.8620
   91MOL0     C12162   0.910  10.995   2.193  0.4000  0.0345 -0.2594
   91MOL0     C12163   0.858  11.008   2.051 -0.6583 -0.1446  0.2838
   91MOL0     C12164   0.734  11.090   2.050  0.6329  0.3043 -0.0416
   91MOL0     C12165   0.748  11.242   2.078 -0.5358 -0.7147 -0.9292
   91MOL0     C12166   0.867  11.322   2.026  0.8673 -0.4820 -0.0832
   91MOL0     N12167   0.826  11.461   2.049  0.0915  0.0698 -0.6492
   91MOL0     C12168   0.807  11.536   1.940 -1.3053  0.9907  0.2291
   91MOL0     C12169   0.762  11.653   1.985 -0.7053  0.0997  0.1558
   91MOL0     C12170   0.703  11.761   1.900  0.6218 -0.9782  0.8585
   91MOL0     C12171   0.559  11.792   1.947 -0.6313  0.0085 -0.1366
   91MOL0     C12172   0.450  11.687   1.912  0.7450  0.2898 -0.4711
   91MOL0     C12173   0.315  11.749   1.899  0.1609  0.4327  0.1365
   91MOL0     O12174   0.292  11.822   1.778  0.4327 -0.2115 -0.2620
   91MOL0     C12175   0.162  11.857   1.749  0.9900 -0.6715  0.8678
   91MOL0     C12176   0.142  11.907   1.625  0.3450  0.0542 -0.3881
   91MOL0     C12177   0.015  11.943   1.586 -1.5105  0.2028  1.0564
   91MOL0     C12178   0.009  11.979   1.442 -0.5153 -0.0574 -0.2517
   91MOL0     C12179  -0.090  11.968   1.671  0.5754  0.6593  1.0912
   91MOL0     C12180  -0.223  12.027   1.633  0.6364 -0.1980 -0.6587
   91MOL0     O12181  -0.317  12.006   1.726 -0.6612  0.3445  0.2058
   91MOL0     C12182  -0.423  12.095   1.723  0.3958 -0.6055  0.1954
   91MOL0     C12183  -0.549  12.046   1.746 -0.8494 -0.2257 -1.2831
   91MOL0     C12184  -0.664  12.134   1.758 -1.5025  0.5535  0.4415
   91MOL0     C12185  -0.658  12.265   1.719 -0.6397  0.2904 -0.3391
   91MOL0     O12186  -0.755  12.358   1.712 -0.4286 -0.3343  0.3371
   91MOL0     C12187  -0.870  12.331   1.799  0.1772  0.4996  0.0487
   91MOL0     C12188  -0.970  12.438   1.790 -0.5244 -0.0037  0.3710
   91MOL0     C12189  -0.932  12.572   1.865 -0.3084 -0.4783 -0.8650
   91MOL0     C12190  -0.993  12.703   1.815 -0.2220  0.0449 -0.0497
   91MOL0     C12191  -1.145  12.704   1.811 -0.0300 -0.3728  0.7951
   91MOL0     C12192  -1.204  12.835   1.772  0.0668 -0.4352 -0.1516
   91MOL0     C12193  -1.199  12.880   1.628 -0.8541  0.8119  0.2282
   91MOL0     C12194  -1.304  12.814   1.547  0.2985  0.3637 -0.3940
   91MOL0    Cl12195  -1.254  12.661   1.474  0.3493  0.7121 -0.1337
   91MOL0     C12196  -0.528  12.311   1.680  0.2000  0.6209  0.0064
   91MOL0     C12197  -0.410  12.231   1.696 -0.2309 -0.3820 -0.0601
   91MOL0     O12198  -0.231  12.084   1.525  0.3712  0.5699 -0.1104
   91MOL0     C12199  -0.071  11.929   1.803 -0.3856 -1.1447 -0.4448
   91MOL0     C12200   0.056  11.884   1.848  0.4083 -0.2077 -0.3276
   91MOL0     N12201   0.761  11.643   2.128  0.1405 -0.2241  0.1324
   91MOL0     N12202   0.800  11.533   2.162  0.0192 -0.2688 -0.3707
   91MOL0     C12203   0.798  10.894   2.657 -0.5969 -0.8081  0.5522
   91MOL0     C12204   0.724  10.900   2.773 -0.0531 -0.6331 -0.1187
   91MOL0     C12205   0.665  10.881   3.223 -0.3128  0.1641  0.4292
   91MOL0     C12206   0.596  10.993   3.273  0.1351 -0.2736  0.0151
   91MOL0     C12207   0.537  10.998   3.398  0.2162  1.2140  0.1021
   91MOL0     C12208   0.561  10.887   3.487 -0.4097 -0.2143 -0.2416
   91MOL0     O12209   0.518  10.881   3.615  0.2964 -0.9526 -0.4306
   91MOL0     C12210   0.435  10.991   3.668  0.6839 -0.3554 -0.0976
   91MOL0     C12211   0.432  10.984   3.820  1.2203  0.1305  0.2187
   91MOL0     C12212   0.304  11.045   3.887  0.0525  0.4426  0.0222
   91MOL0     C12213   0.283  10.996   4.043 -0.5687  0.1558  0.2590
   91MOL0     C12214   0.151  11.025   4.081  1.0118 -0.5856 -0.3687
   91MOL0     C12215   0.051  11.046   4.137 -0.6401  0.5457 -0.2203
   91MOL0     C12216   0.633  10.768   3.434  0.5709 -0.8340 -0.5971
   91MOL0     C12217   0.675  10.769   3.300  0.3901  0.4994 -0.2089
   91MOL0     H12218   0.909  11.120   2.960 -2.5259  3.5291 -1.9200
   91MOL0     H12219   1.034  11.129   2.735 -1.5302  0.9648  1.4896
   91MOL0     H12220   1.057  10.800   2.534 -0.4357  1.0566  0.5073
   91MOL0     H12221   0.921  10.802   2.431 -0.9158  0.9141 -0.6366
   91MOL0     H12222   1.141  10.976   2.336 -2.5425  1.1059 -4.9179
   91MOL0     H12223   1.160  10.803   2.323 -1.5822 -1.6138  2.7495
   91MOL0     H12224   1.075  10.865   2.125  1.2186 -0.9981 -0.7236
   91MOL0     H12225   0.956  10.775   2.208  1.5743 -0.1844  0.0488
   91MOL0     H12226   0.820  10.980   2.255 -0.9022 -0.2919 -2.1441
   91MOL0     H12227   0.963  11.087   2.218 -0.1834 -0.1109  1.6967
   91MOL0     H12228   0.934  11.044   1.981  0.1827 -2.2517  0.0240
   91MOL0     H12229   0.831  10.913   2.004 -0.8803 -1.0865  2.2056
   91MOL0     H12230   0.706  11.088   1.944 -1.0084  2.9969  0.2571
   91MOL0     H12231   0.655  11.055   2.117 -0.6096  1.6840 -0.7507
   91MOL0     H12232   0.661  11.283   2.024 -0.3970 -1.5154 -1.7865
   91MOL0     H12233   0.726  11.251   2.184 -0.3087 -0.7813 -0.8775
   91MOL0     H12234   0.891  11.315   1.919 -2.8291 -0.9761 -0.9901
   91MOL0     H12235   0.959  11.296   2.081  0.0417 -0.0804  1.5338
   91MOL0     H12236   0.804  11.506   1.836 -1.7267 -0.6966  0.7043
   91MOL0     H12237   0.776  11.843   1.907  0.5387 -0.6178 -1.6897
   91MOL0     H12238   0.691  11.744   1.793 -1.5613  0.6642  0.7686
   91MOL0     H12239   0.539  11.891   1.904  0.5065  1.0412  1.5714
   91MOL0     H12240   0.555  11.805   2.055 -0.1886 -1.3118  0.0522
   91MOL0     H12241   0.448  11.595   1.971 -0.1569 -0.4581 -1.6137
   91MOL0     H12242   0.469  11.648   1.811 -2.2586 -2.5318 -0.1329
   91MOL0     H12243   0.308  11.802   1.995 -1.5258 -1.6200  1.2262
   91MOL0     H12244   0.239  11.671   1.904  0.2970  0.2479 -0.5776
   91MOL0     H12245   0.230  11.904   1.561  1.5642 -0.2803  1.2314
   91MOL0     H12246   0.088  11.922   1.392 -0.3076 -2.3864  2.4122
   91MOL0     H12247  -0.082  11.953   1.388 -0.6927  3.5738 -1.9668
   91MOL0     H12248   0.029  12.084   1.422  1.6141 -0.7840 -2.4076
   91MOL0     H12249  -0.562  11.943   1.778 -0.8279  0.4686  1.1410
   91MOL0     H12250  -0.753  12.084   1.795 -0.4343 -0.6855  1.4356
   91MOL0     H12251  -0.916  12.239   1.762 -1.3562  1.9014 -1.7136
   91MOL0     H12252  -0.851  12.321   1.906 -0.2871  2.5174  0.3444
   91MOL0     H12253  -0.975  12.458   1.683  3.5249 -0.0696  0.0056
   91MOL0     H12254  -1.071  12.409   1.821 -2.1090  4.0648 -0.3107
   91MOL0     H12255  -0.824  12.575   1.880 -0.1833 -3.7418 -0.1453
   91MOL0     H12256  -0.972  12.560   1.966 -2.5160  0.4134 -1.5807
   91MOL0     H12257  -0.969  12.783   1.885  0.9456 -1.2959  1.1345
   91MOL0     H12258  -0.932  12.721   1.726  1.1272 -1.0489  0.6203
   91MOL0     H12259  -1.176  12.681   1.913  1.8491  1.3571  1.8241
   91MOL0     H12260  -1.175  12.625   1.742 -0.3877  1.7534 -1.6347
   91MOL0     H12261  -1.307  12.847   1.805  0.2123 -0.9829  0.5289
   91MOL0     H12262  -1.158  12.913   1.833  0.5394 -2.2549  1.9494
   91MOL0     H12263  -1.096  12.890   1.595 -0.6213  2.3536  1.3402
   91MOL0     H12264  -1.243  12.980   1.627  3.5955  3.0083 -0.8524
   91MOL0     H12265  -1.327  12.881   1.463  0.4479 -0.2183 -0.9066
   91MOL0     H12266  -1.397  12.793   1.601  0.5178  2.3443  0.8408
   91MOL0     H12267  -0.503  12.416   1.675  1.5307  0.3085 -0.4792
   91MOL0     H12268  -0.314  12.278   1.680 -0.2630 -0.0474  0.6882
   91MOL0     H12269  -0.139  11.963   1.881 -0.6652 -1.3565 -0.5951
   91MOL0     H12270   0.071  11.867   1.954  0.5294  1.2619 -0.0960
   91MOL0     H12271   0.745  10.840   2.579 -0.5951  0.3168 -0.2413
   91MOL0     H12272   0.630  10.848   2.787  0.4505 -1.0822  1.8456
   91MOL0     H12273   0.595  11.086   3.218  1.0571 -0.0010  0.4356
   91MOL0     H12274   0.485  11.091   3.418 -1.3816  0.6382 -1.1664
   91MOL0     H12275   0.483  11.088   3.649  1.5926 -0.3479  1.9738
   91MOL0     H12276   0.331  10.986   3.633 -0.5039 -1.1187  3.2000
   91MOL0     H12277   0.526  11.020   3.861  1.8580 -2.0362  0.7666
   91MOL0     H12278   0.441  10.879   3.847  1.9738  1.0326  4.1329
   91MOL0     H12279   0.210  11.013   3.841 -0.2903  1.3025  0.0997
   91MOL0     H12280   0.304  11.153   3.871  0.1455  0.3907 -0.3360
   91MOL0     H12281   0.356  11.038   4.113  3.6958 -3.0954 -1.7424
   91MOL0     H12282   0.309  10.889   4.048 -0.6689  0.1671  1.5796
   91MOL0     H12283  -0.042  11.063   4.189 -0.2865  0.2399  0.5216
   91MOL0     H12284   0.654  10.683   3.498 -3.2751 -1.8878 -0.5172
   91MOL0     H12285   0.725  10.684   3.254 -2.0123 -1.1560  0.0371
   92MOL0     O12286   1.732   0.486   8.580 -0.3901  0.2727 -0.5782
   92MOL0     C12287   1.797   0.446   8.676 -0.3274  0.0379  0.2973
   92MOL0     O12288   1.894   0.354   8.685  0.6025  0.7442  0.4293
   92MOL0     C12289   1.916   0.288   8.565 -0.4036  0.1923 -0.0877
   92MOL0     C12290   1.894   0.157   8.556  0.1073  0.4563 -0.2840
   92MOL0     C12291   1.935   0.086   8.443 -0.1695  0.2096 -0.1291
   92MOL0     C12292   2.005   0.153   8.332  1.0076 -0.2983 -0.3726
   92MOL0     O12293   2.030   0.095   8.215  0.2021 -0.4336  0.8110
   92MOL0     C12294   2.027  -0.051   8.200 -0.7428  0.6857 -0.1268
   92MOL0     C12295   2.163  -0.119   8.213 -0.0381  0.5551 -1.1523
   92MOL0     C12296   2.272  -0.086   8.099 -0.6959  0.7779 -0.8538
   92MOL0     C12297   2.415  -0.106   8.160 -0.3024  0.0800  0.3317
   92MOL0     C12298   2.524  -0.070   8.060  0.1578 -0.4754 -0.1124
   92MOL0     C12299   2.528   0.076   8.020 -0.1747  0.2801 -0.3931
   92MOL0     C12300   2.640   0.104   7.931  0.1108 -0.6785  0.0043
   92MOL0     C12301   2.649   0.244   7.866 -0.0579 -0.5559  0.5138
   92MOL0     N12302   2.689   0.350   7.963 -0.5614  0.0908  0.5408
   92MOL0     C12303   2.802   0.352   8.040  0.5848  0.3052 -0.0472
   92MOL0     C12304   2.831   0.478   8.075  0.0057  0.6425 -0.4738
   92MOL0     C12305   2.931   0.537   8.165 -0.5488 -0.7009  0.6963
   92MOL0     C12306   2.889   0.546   8.311  0.4695 -0.2183 -0.6414
   92MOL0     C12307   2.976   0.653   8.365 -0.0212  0.6634 -0.4360
   92MOL0     C12308   2.934   0.676   8.515 -0.3239  0.2282  0.5621
   92MOL0     O12309   2.802   0.736   8.529 -0.4989  0.0567  0.5931
   92MOL0     C12310   2.689   0.665   8.581  0.7189 -0.5589 -0.1618
   92MOL0     C12311   2.576   0.747   8.586  0.0234  0.5731 -0.4586
   92MOL0     C12312   2.462   0.709   8.658  0.4030  0.4706 -0.0479
   92MOL0     C12313   2.350   0.809   8.666 -0.1996 -0.6252 -0.1594
   92MOL0     C12314   2.455   0.570   8.705 -0.0875  0.3966  0.3007
   92MOL0     C12315   2.336   0.502   8.755  0.2900  1.1639  0.4717
   92MOL0     O12316   2.353   0.410   8.854 -0.2832 -0.6526 -0.4782
   92MOL0     C12317   2.247   0.332   8.888  1.1523 -1.1805 -0.6268
   92MOL0     C12318   2.198   0.336   9.016 -0.2125  0.3048  0.7146
   92MOL0     C12319   2.100   0.245   9.059 -0.0496  0.2180 -1.1734
   92MOL0     C12320   2.035   0.161   8.969  0.5159 -0.1308 -0.6270
   92MOL0     O12321   1.934   0.065   8.981  0.6984 -0.6063  0.1844
   92MOL0     C12322   1.880   0.061   9.116  0.9137 -0.6522 -0.3603
   92MOL0     C12323   1.780   0.182   9.145 -0.7808  0.1208  0.4969
   92MOL0     C12324   1.640   0.154   9.072 -0.0018 -0.1025  0.2341
   92MOL0     C12325   1.550   0.042   9.132  0.6427 -0.1275  0.7629
   92MOL0     C12326   1.417   0.022   9.046  0.4271 -0.0939 -0.0151
   92MOL0     C12327   1.299  -0.027   9.129 -0.6110  0.0827 -0.0658
   92MOL0     C12328   1.175  -0.066   9.052 -0.3106 -0.2244  1.3841
   92MOL0     C12329   1.057  -0.136   9.124  0.0010  0.5688 -0.5889
   92MOL0    Cl12330   0.948  -0.205   9.006 -0.4540 -0.0634 -0.2714
   92MOL0     C12331   2.090   0.161   8.839  0.0755 -0.1988 -0.4530
   92MOL0     C12332   2.189   0.246   8.800 -0.1769  0.4370  0.4468
   92MOL0     O12333   2.239   0.520   8.687  0.7432 -0.0055  0.5415
   92MOL0     C12334   2.571   0.488   8.692  0.2407 -0.8959  0.0873
   92MOL0     C12335   2.688   0.536   8.628 -0.1075  0.7753  0.3955
   92MOL0     N12336   2.733   0.559   8.026  0.5092  0.4335  0.1083
   92MOL0     N12337   2.651   0.482   7.955 -0.5414 -0.2055 -0.8418
   92MOL0     C12338   2.032   0.289   8.348 -0.1410 -0.0746 -0.3227
   92MOL0     C12339   1.996   0.352   8.466  1.3758  0.3803  0.8703
   92MOL0     C12340   1.751   0.505   8.804  0.0599 -0.1970  0.0222
   92MOL0     C12341   1.616   0.556   8.825  0.1526  0.2131  0.6832
   92MOL0     C12342   1.578   0.599   8.949 -0.1205 -0.0903 -0.6231
   92MOL0     C12343   1.669   0.587   9.060 -0.2054  0.0290  0.7307
   92MOL0     O12344   1.642   0.612   9.195 -0.1270 -0.1128  0.4536
   92MOL0     C12345   1.507   0.648   9.238 -0.8743 -0.8173  0.4771
   92MOL0     C12346   1.425   0.517   9.252  0.5191  0.0897  0.0306
   92MOL0     C12347   1.491   0.430   9.356 -0.3417 -0.8052  0.8605
   92MOL0     C12348   1.380   0.342   9.412 -0.1022 -0.0613  0.1483
   92MOL0     C12349   1.460   0.246   9.498 -0.1704 -1.4072 -0.6797
   92MOL0     C12350   1.533   0.186   9.573  1.3207  0.4811 -0.8482
   92MOL0     C12351   1.798   0.550   9.036 -0.5540 -0.1394  0.0834
   92MOL0     C12352   1.836   0.495   8.915  0.7671  0.0701 -0.5447
   92MOL0     H12353   1.839   0.105   8.634 -2.7862  0.9707 -1.8433
   92MOL0     H12354   1.915  -0.020   8.435 -1.5077  0.6031 -3.3374
   92MOL0     H12355   1.957  -0.100   8.269 -0.2257  0.8525  0.5317
   92MOL0     H12356   1.985  -0.074   8.102 -1.5715 -0.9674  0.5740
   92MOL0     H12357   2.207  -0.117   8.313  1.1831  1.6719 -1.6843
   92MOL0     H12358   2.143  -0.226   8.203 -2.5510  1.0259 -1.9170
   92MOL0     H12359   2.272  -0.159   8.018  1.7376 -3.2806  2.3702
   92MOL0     H12360   2.255   0.016   8.065 -1.1734  2.1669  3.1171
   92MOL0     H12361   2.427  -0.034   8.242 -0.3790  1.4657 -0.8143
   92MOL0     H12362   2.427  -0.201   8.212 -4.7292 -0.4499  0.7845
   92MOL0     H12363   2.617  -0.095   8.110  0.1868 -2.6465 -1.1225
   92MOL0     H12364   2.512  -0.132   7.971 -3.2678  0.2510 -0.2903
   92MOL0     H12365   2.444   0.115   7.963 -2.1686 -1.4189  1.2134
   92MOL0     H12366   2.530   0.142   8.108 -3.9541 -1.4896  1.2142
   92MOL0     H12367   2.727   0.103   7.998  0.6634  3.4535 -0.4029
   92MOL0     H12368   2.669   0.032   7.853 -0.0374  0.4499 -1.1309
   92MOL0     H12369   2.549   0.263   7.826 -1.8211 -1.5065  4.0972
   92MOL0     H12370   2.722   0.248   7.784 -0.5483 -2.3007 -0.0367
   92MOL0     H12371   2.856   0.263   8.070 -3.7608 -1.8228  2.2972
   92MOL0     H12372   3.011   0.464   8.145 -2.0928 -1.9051 -1.5353
   92MOL0     H12373   2.959   0.635   8.125 -1.0241 -0.6840  0.4004
   92MOL0     H12374   2.907   0.453   8.365  1.0152 -0.6146 -1.4766
   92MOL0     H12375   2.782   0.570   8.313 -0.1478 -2.6452  1.3235
   92MOL0     H12376   2.952   0.742   8.306 -2.8350 -1.8032 -3.4578
   92MOL0     H12377   3.081   0.632   8.344  0.5616  2.4909  0.4776
   92MOL0     H12378   3.002   0.751   8.558 -0.3247  1.9342 -2.1585
   92MOL0     H12379   2.942   0.576   8.559  2.8580 -1.3961 -2.9970
   92MOL0     H12380   2.582   0.849   8.551 -1.0193  0.9482  0.3732
   92MOL0     H12381   2.312   0.815   8.769  1.8165 -0.5943  0.6308
   92MOL0     H12382   2.371   0.914   8.643 -2.3343 -0.1433 -0.1109
   92MOL0     H12383   2.275   0.773   8.596  1.1589 -0.2140 -1.8877
   92MOL0     H12384   2.247   0.411   9.076 -2.1135  2.6501 -0.4915
   92MOL0     H12385   2.076   0.252   9.165  3.2014  0.2007 -0.3420
   92MOL0     H12386   1.823  -0.031   9.127  0.1961 -0.0386  1.3063
   92MOL0     H12387   1.962   0.063   9.188  1.9149 -1.1373 -1.4389
   92MOL0     H12388   1.759   0.193   9.252 -0.6029  0.6188  0.4832
   92MOL0     H12389   1.835   0.267   9.104  0.3468  0.2149  2.1120
   92MOL0     H12390   1.666   0.134   8.968  0.5875  1.4166  0.0515
   92MOL0     H12391   1.594   0.253   9.081 -0.4242 -0.4370  2.2846
   92MOL0     H12392   1.609  -0.050   9.130  2.1185  0.8063 -0.0586
   92MOL0     H12393   1.526   0.068   9.236  1.9058  2.3740  0.5065
   92MOL0     H12394   1.427  -0.063   8.978  0.6396 -2.2141  2.4956
   92MOL0     H12395   1.398   0.119   9.000 -1.2844  0.4822  1.7953
   92MOL0     H12396   1.315  -0.121   9.184 -0.9115 -0.3034 -0.6266
   92MOL0     H12397   1.279   0.039   9.214 -0.7003 -1.3975  1.1098
   92MOL0     H12398   1.203  -0.146   8.982 -1.1853 -0.5061  1.3459
   92MOL0     H12399   1.133   0.014   8.991 -0.7901 -2.8032 -1.9786
   92MOL0     H12400   1.006  -0.064   9.188  1.2567 -0.2150  1.3900
   92MOL0     H12401   1.095  -0.216   9.189  1.7112  0.7501 -1.3106
   92MOL0     H12402   2.042   0.091   8.770 -2.2572  0.4764  0.3796
   92MOL0     H12403   2.211   0.221   8.696 -0.8388 -2.8135  0.9990
   92MOL0     H12404   2.563   0.386   8.728 -0.5428  0.2154  3.3771
   92MOL0     H12405   2.775   0.471   8.626 -0.0148  0.8147  1.7826
   92MOL0     H12406   2.084   0.341   8.268  1.1676  0.6228  0.9251
   92MOL0     H12407   2.037   0.453   8.470  1.0825  0.5007  0.8844
   92MOL0     H12408   1.545   0.549   8.743 -0.6566  1.2520  1.2700
   92MOL0     H12409   1.472   0.620   8.954 -0.2393 -0.5535 -1.1533
   92MOL0     H12410   1.509   0.712   9.326 -3.2185  0.0049 -0.0002
   92MOL0     H12411   1.459   0.711   9.163  0.0428 -0.5053  0.1379
   92MOL0     H12412   1.423   0.461   9.158 -0.4677 -2.1864  1.3074
   92MOL0     H12413   1.322   0.548   9.274  0.2643 -1.5945  1.4669
   92MOL0     H12414   1.538   0.491   9.434 -1.0847  0.2966  0.4773
   92MOL0     H12415   1.570   0.375   9.304 -0.8942 -1.3494  0.5856
   92MOL0     H12416   1.330   0.299   9.325 -0.9461  0.9223  0.1344
   92MOL0     H12417   1.309   0.406   9.464  0.5344 -1.0391  2.3165
   92MOL0     H12418   1.587   0.134   9.649 -3.2723  1.2603  3.4909
   92MOL0     H12419   1.856   0.549   9.128 -2.4340  0.4160  1.3159
   92MOL0     H12420   1.938   0.462   8.897  0.8124  0.2580 -0.6347
   93MOL0     O12421   5.875   1.673   5.688 -0.0427  0.6786  0.2893
   93MOL0     C12422   5.770   1.673   5.752  0.1925 -0.0216  1.1910
   93MOL0     O12423   5.649   1.654   5.702 -0.3723  0.0621 -0.2448
   93MOL0     C12424   5.640   1.658   5.563  0.3309  0.8901 -0.7770
   93MOL0     C12425   5.620   1.777   5.501  0.1273 -0.4088  1.1717
   93MOL0     C12426   5.611   1.778   5.362 -0.3632  0.3839  0.3718
   93MOL0     C12427   5.617   1.659   5.281 -0.7223 -0.5537 -0.7979
   93MOL0     O12428   5.587   1.655   5.148  0.1410  0.7345 -0.2506
   93MOL0     C12429   5.696   1.678   5.057  0.7361 -0.9559 -0.6426
   93MOL0     C12430   5.639   1.675   4.912  0.9646  0.1244 -0.4166
   93MOL0     C12431   5.737   1.728   4.816  0.0322  0.0248 -0.1218
   93MOL0     C12432   5.674   1.814   4.708  0.5442 -0.2160 -0.0836
   93MOL0     C12433   5.783   1.868   4.622 -0.4376 -1.1166 -1.0292
   93MOL0     C12434   5.742   1.993   4.536  0.9428  0.0826 -1.5582
   93MOL0     C12435   5.636   1.956   4.436  1.1233  0.0940 -0.2846
   93MOL0     C12436   5.589   2.084   4.365 -0.2465 -0.5840  0.1986
   93MOL0     N12437   5.497   2.049   4.248  0.1800  1.1601  0.2808
   93MOL0     C12438   5.460   2.151   4.160  1.0115 -0.8186  0.1683
   93MOL0     C12439   5.388   2.080   4.072  0.8181 -0.1540  0.8622
   93MOL0     C12440   5.327   2.144   3.959  0.6390  0.0144  0.2781
   93MOL0     C12441   5.211   2.235   4.001 -0.1604  0.2725  0.0467
   93MOL0     C12442   5.119   2.287   3.883  0.1746 -0.0339  0.3013
   93MOL0     C12443   5.033   2.400   3.940 -0.0498 -1.2593  0.1549
   93MOL0     O12444   5.113   2.513   3.972  0.2765 -0.9722  0.0700
   93MOL0     C12445   5.160   2.599   3.871 -0.0913  0.8989  0.6777
   93MOL0     C12446   5.224   2.711   3.914 -0.3788 -0.9604 -0.5039
   93MOL0     C12447   5.259   2.813   3.819 -0.6417 -0.1853 -0.1195
   93MOL0     C12448   5.301   2.933   3.889  0.0276  0.1149 -0.1414
   93MOL0     C12449   5.229   2.801   3.687  0.5139  0.6019 -0.4768
   93MOL0     C12450   5.247   2.913   3.596 -0.4312  0.2245  1.1894
   93MOL0     O12451   5.373   2.967   3.582  0.0344 -0.1238 -0.5595
   93MOL0     C12452   5.387   3.043   3.462 -0.0521  0.0079  0.1968
   93MOL0     C12453   5.312   3.165   3.448 -0.3067 -0.5718  1.3150
   93MOL0     C12454   5.321   3.246   3.334 -0.8417 -1.5780 -0.0619
   93MOL0     C12455   5.414   3.211   3.241  1.1427  0.1081 -0.1460
   93MOL0     O12456   5.415   3.276   3.121  0.3247 -0.7373 -0.5376
   93MOL0     C12457   5.489   3.398   3.118  0.8976  0.5054  0.0758
   93MOL0     C12458   5.519   3.403   2.961 -0.6550  0.8227 -0.4716
   93MOL0     C12459   5.569   3.539   2.912  0.1446 -0.8702 -0.4024
   93MOL0     C12460   5.565   3.546   2.759 -0.4723  0.4846  0.3409
   93MOL0     C12461   5.690   3.478   2.704  0.2703 -0.5443  0.4086
   93MOL0     C12462   5.663   3.442   2.561 -0.2823  0.2587 -0.5161
   93MOL0     C12463   5.785   3.360   2.510 -0.6265  0.3586 -0.1120
   93MOL0     C12464   5.833   3.418   2.377  0.5280  0.1017 -0.5017
   93MOL0    Cl12465   5.849   3.592   2.394 -0.4636 -0.0351 -0.0412
   93MOL0     C12466   5.491   3.104   3.254  0.7859  0.2830 -1.2813
   93MOL0     C12467   5.485   3.026   3.371 -0.5787 -1.2726 -0.3389
   93MOL0     O12468   5.149   2.950   3.530  0.8282  0.7957  0.6954
   93MOL0     C12469   5.152   2.692   3.648  0.4655 -0.0294 -0.6062
   93MOL0     C12470   5.126   2.585   3.738  0.8486  0.0098 -0.5064
   93MOL0     N12471   5.391   1.940   4.089  0.4742 -0.3764 -0.4654
   93MOL0     N12472   5.464   1.923   4.201  0.2314  0.0506 -0.1154
   93MOL0     C12473   5.643   1.539   5.343 -0.2067 -0.1093 -1.0352
   93MOL0     C12474   5.650   1.537   5.490 -0.1817 -0.4721  0.1091
   93MOL0     C12475   5.768   1.716   5.892  0.0905  0.7804 -0.7745
   93MOL0     C12476   5.660   1.691   5.972 -0.4137  0.2680 -0.2801
   93MOL0     C12477   5.656   1.720   6.111  0.9025 -0.1216  1.3039
   93MOL0     C12478   5.765   1.786   6.171 -0.4139  0.3692 -0.1073
   93MOL0     O12479   5.788   1.822   6.303 -0.7189  0.2115  0.2595
   93MOL0     C12480   5.675   1.810   6.384 -0.6936 -0.2493 -0.7118
   93MOL0     C12481   5.703   1.885   6.522 -0.8132 -0.1146  0.2965
   93MOL0     C12482   5.817   1.806   6.594  0.0774  0.4224  0.7110
   93MOL0     C12483   5.891   1.901   6.703  0.5736  1.2936 -0.6177
   93MOL0     C12484   5.826   1.897   6.830 -0.3809  0.0663 -0.8024
   93MOL0     C12485   5.774   1.903   6.938  0.3932  0.9660  0.4146
   93MOL0     C12486   5.864   1.830   6.085  0.2472 -0.1322  0.1508
   93MOL0     C12487   5.865   1.804   5.947  0.4266  0.8375  0.5568
   93MOL0     H12488   5.620   1.865   5.565 -1.0040  0.9739 -0.6454
   93MOL0     H12489   5.612   1.878   5.320  3.4581  1.2958  2.2252
   93MOL0     H12490   5.738   1.774   5.088 -0.5510 -1.2521  2.4021
   93MOL0     H12491   5.777   1.606   5.070  2.0910  0.9976  4.2347
   93MOL0     H12492   5.592   1.578   4.891  2.4097 -0.3900 -1.4267
   93MOL0     H12493   5.562   1.752   4.909 -0.0024 -0.7930  0.2177
   93MOL0     H12494   5.823   1.773   4.867  0.8385 -2.3220  0.7568
   93MOL0     H12495   5.782   1.645   4.760 -1.5504  1.6470 -4.1931
   93MOL0     H12496   5.594   1.766   4.650 -1.2033  0.7838  1.4097
   93MOL0     H12497   5.626   1.898   4.760  0.8048 -0.3706  0.4107
   93MOL0     H12498   5.863   1.910   4.683 -2.0410  1.7198 -0.6647
   93MOL0     H12499   5.818   1.784   4.561 -0.1384 -2.9697  1.5451
   93MOL0     H12500   5.717   2.078   4.600 -0.9291 -1.4139 -0.1932
   93MOL0     H12501   5.830   2.026   4.480 -0.5432 -0.9466 -4.7652
   93MOL0     H12502   5.673   1.871   4.378 -2.8252 -2.9624  1.2379
   93MOL0     H12503   5.545   1.909   4.475  0.8442 -1.4776 -2.6244
   93MOL0     H12504   5.672   2.142   4.323 -0.7206 -0.8480 -1.1356
   93MOL0     H12505   5.530   2.157   4.421  2.7558  1.4960  0.9120
   93MOL0     H12506   5.479   2.258   4.159 -2.5374  0.0570  3.4760
   93MOL0     H12507   5.406   2.198   3.905 -1.2587  1.1398 -1.5307
   93MOL0     H12508   5.281   2.071   3.892 -1.2683  1.1793  0.2618
   93MOL0     H12509   5.251   2.320   4.056 -3.3222  1.5351  0.6261
   93MOL0     H12510   5.153   2.184   4.079  0.3901  1.3551  1.1945
   93MOL0     H12511   5.050   2.211   3.846  2.0948 -0.2524 -3.3639
   93MOL0     H12512   5.175   2.321   3.795  2.0976 -0.9314  1.1103
   93MOL0     H12513   4.995   2.366   4.037  3.5857 -2.0975  1.4333
   93MOL0     H12514   4.942   2.421   3.882 -0.4308 -1.0195  0.8203
   93MOL0     H12515   5.251   2.728   4.018  1.0212 -0.9714 -0.8531
   93MOL0     H12516   5.362   2.997   3.825  0.5828 -1.2611 -1.0520
   93MOL0     H12517   5.218   2.989   3.932  0.9526  0.1083  1.7603
   93MOL0     H12518   5.357   2.909   3.980 -1.6895 -4.8696 -0.0565
   93MOL0     H12519   5.235   3.192   3.519 -0.5683  0.3199  0.7196
   93MOL0     H12520   5.269   3.340   3.316  1.1793 -0.6599 -1.5856
   93MOL0     H12521   5.419   3.477   3.146 -0.6634 -0.8008  0.0091
   93MOL0     H12522   5.578   3.402   3.181  0.5210  2.8690  0.5654
   93MOL0     H12523   5.605   3.336   2.946 -0.5069  0.8153  0.3546
   93MOL0     H12524   5.433   3.372   2.901  0.3343 -0.0291 -1.5198
   93MOL0     H12525   5.666   3.571   2.950 -0.2307 -0.1639 -0.0227
   93MOL0     H12526   5.487   3.606   2.940 -1.4373 -0.8800 -4.3353
   93MOL0     H12527   5.476   3.492   2.726 -0.4425  1.5826 -1.7077
   93MOL0     H12528   5.562   3.652   2.730 -3.1241  0.0493 -1.2950
   93MOL0     H12529   5.727   3.392   2.760 -0.3828 -0.8045  0.4558
   93MOL0     H12530   5.779   3.540   2.718  0.8807 -1.8708  2.8859
   93MOL0     H12531   5.580   3.370   2.557  1.4176 -1.8084 -0.5092
   93MOL0     H12532   5.638   3.528   2.498 -0.8554  1.1092  0.8368
   93MOL0     H12533   5.757   3.256   2.495 -0.0830  0.6467 -4.0907
   93MOL0     H12534   5.869   3.367   2.580 -1.2921 -0.4455  0.7989
   93MOL0     H12535   5.758   3.393   2.301 -1.2473 -1.6580  1.6894
   93MOL0     H12536   5.924   3.368   2.342 -0.0567 -1.3625 -0.0238
   93MOL0     H12537   5.572   3.073   3.188  1.9308 -4.7657  1.8902
   93MOL0     H12538   5.544   2.937   3.384 -0.0211 -0.9854 -0.8372
   93MOL0     H12539   5.111   2.693   3.548  1.4996 -2.6298 -1.1420
   93MOL0     H12540   5.060   2.510   3.694  0.2721  1.0481 -1.4662
   93MOL0     H12541   5.646   1.448   5.285  3.6643 -0.6274 -0.3013
   93MOL0     H12542   5.667   1.449   5.552  1.2948  0.4954  1.1838
   93MOL0     H12543   5.587   1.624   5.927  0.2105 -0.9627  0.4695
   93MOL0     H12544   5.578   1.672   6.169 -0.7624  2.7678  1.6209
   93MOL0     H12545   5.585   1.852   6.337 -1.1294 -1.6898 -1.2053
   93MOL0     H12546   5.649   1.710   6.418  0.4221 -1.0343 -2.0589
   93MOL0     H12547   5.619   1.899   6.591  2.6410  1.9752  4.5262
   93MOL0     H12548   5.734   1.990   6.513 -0.0557 -0.2226  1.4674
   93MOL0     H12549   5.892   1.771   6.522 -1.8564  0.5475 -1.4624
   93MOL0     H12550   5.770   1.715   6.633  1.2485 -1.9512 -2.9171
   93MOL0     H12551   5.908   2.000   6.660 -0.3055  0.7737 -2.2173
   93MOL0     H12552   5.995   1.868   6.708 -0.1532 -1.1040 -0.3100
   93MOL0     H12553   5.723   1.910   7.032  0.3328 -2.9174  0.8622
   93MOL0     H12554   5.933   1.900   6.132  0.9316 -0.2608 -0.6462
   93MOL0     H12555   5.940   1.851   5.884  0.1292 -1.0385 -1.3498
   94MOL0     O12556   6.466   3.269   0.265  0.0315 -0.6183  0.3453
   94MOL0     C12557   6.573   3.261   0.209 -0.6286  0.2014 -0.0893
   94MOL0     O12558   6.598   3.203   0.086  0.6318  0.1858 -0.0227
   94MOL0     C12559   6.495   3.130   0.021 -0.0917 -1.0155 -0.8171
   94MOL0     C12560   6.467   2.999   0.059 -0.4690  0.2212  0.2422
   94MOL0     C12561   6.366   2.937  -0.011 -0.1769  0.0358 -0.1118
   94MOL0     C12562   6.301   2.997  -0.119 -0.4438  0.4018  0.3891
   94MOL0     O12563   6.214   2.936  -0.202  0.5721 -1.1611 -0.0183
   94MOL0     C12564   6.090   2.908  -0.133 -0.4442 -0.3894 -0.5192
   94MOL0     C12565   6.007   2.813  -0.206 -0.0442  0.4524 -0.0598
   94MOL0     C12566   6.072   2.679  -0.224 -0.0660  0.2733  0.3430
   94MOL0     C12567   5.974   2.573  -0.291 -0.4626  0.1361 -0.0847
   94MOL0     C12568   5.946   2.610  -0.433 -0.6848 -0.0275  0.2128
   94MOL0     C12569   5.857   2.504  -0.492 -0.4535  0.2432 -0.1756
   94MOL0     C12570   5.719   2.490  -0.430 -0.1419  0.1756  0.0923
   94MOL0     C12571   5.701   2.361  -0.344 -0.4438 -0.9917  0.0835
   94MOL0     N12572   5.572   2.354  -0.273 -0.1547  0.1909  0.7993
   94MOL0     C12573   5.460   2.324  -0.343 -0.8399 -0.4118  0.0452
   94MOL0     C12574   5.351   2.348  -0.270  0.2866 -0.6646  0.4881
   94MOL0     C12575   5.208   2.318  -0.315 -0.5561  0.3055 -0.7968
   94MOL0     C12576   5.177   2.174  -0.277 -0.0127  0.2648 -0.2604
   94MOL0     C12577   5.169   2.075  -0.392 -0.7330 -0.7223 -0.1704
   94MOL0     C12578   5.084   1.951  -0.369 -0.3727  0.2790 -0.2890
   94MOL0     O12579   5.131   1.896  -0.244  0.0449 -0.0637 -0.9637
   94MOL0     C12580   5.038   1.819  -0.187  0.1588  0.0321 -0.2643
   94MOL0     C12581   5.022   1.690  -0.236  0.5744 -0.5623  1.1781
   94MOL0     C12582   4.956   1.589  -0.172 -0.3007  0.2798  0.1514
   94MOL0     C12583   4.956   1.456  -0.240  0.5975  0.5564 -0.6098
   94MOL0     C12584   4.871   1.634  -0.060 -0.5345 -0.0009 -0.1947
   94MOL0     C12585   4.791   1.547   0.023  0.8205  0.1587  0.5248
   94MOL0     O12586   4.738   1.593   0.137 -0.1943  0.7174  0.9703
   94MOL0     C12587   4.693   1.509   0.237  0.3434  0.4105 -0.6785
   94MOL0     C12588   4.732   1.537   0.365 -1.1222 -0.3446 -0.4086
   94MOL0     C12589   4.693   1.468   0.478  0.4066  0.1033  0.4422
   94MOL0     C12590   4.613   1.356   0.457  0.6041  0.2355  0.0600
   94MOL0     O12591   4.552   1.301   0.567 -0.7803  0.6131  0.6902
   94MOL0     C12592   4.567   1.156   0.571  0.7042 -0.3528 -0.1932
   94MOL0     C12593   4.481   1.096   0.702  0.1452 -0.2560  0.3695
   94MOL0     C12594   4.443   0.946   0.693 -0.2945  0.0709 -0.3729
   94MOL0     C12595   4.345   0.924   0.579  1.3266  0.5214  0.8040
   94MOL0     C12596   4.252   0.806   0.595  1.0924  0.8024  0.0087
   94MOL0     C12597   4.305   0.685   0.658 -0.4503  0.7169  0.4039
   94MOL0     C12598   4.370   0.598   0.545  0.1337  0.2763 -0.5355
   94MOL0     C12599   4.415   0.462   0.597 -0.8443 -0.5806 -0.9629
   94MOL0    Cl12600   4.560   0.504   0.707 -0.0425 -0.2142  0.2223
   94MOL0     C12601   4.570   1.329   0.331  0.8373  0.5538  0.7203
   94MOL0     C12602   4.601   1.410   0.214  1.0465 -0.3363 -0.6344
   94MOL0     O12603   4.777   1.435  -0.026 -1.3792  0.4289  0.2349
   94MOL0     C12604   4.878   1.774  -0.014 -0.2960  0.8779  0.2558
   94MOL0     C12605   4.970   1.863  -0.069 -0.5680 -0.3084 -0.1710
   94MOL0     N12606   5.398   2.409  -0.153 -0.3943 -0.2285 -0.1118
   94MOL0     N12607   5.525   2.404  -0.156  0.8892  0.0698 -0.0398
   94MOL0     C12608   6.321   3.133  -0.141 -1.1574 -0.6907  0.1388
   94MOL0     C12609   6.419   3.211  -0.067 -0.0551 -0.0347  0.0403
   94MOL0     C12610   6.690   3.313   0.285 -0.3267 -0.6139 -0.5964
   94MOL0     C12611   6.668   3.406   0.384  0.8602 -0.5547  0.0118
   94MOL0     C12612   6.781   3.471   0.445 -0.9065  0.2012  0.2138
   94MOL0     C12613   6.906   3.410   0.423  0.2522 -0.9852  0.1721
   94MOL0     O12614   7.009   3.466   0.493  0.1535 -0.4860 -0.2341
   94MOL0     C12615   7.121   3.387   0.542  0.5064  0.6238  0.0641
   94MOL0     C12616   7.164   3.447   0.680  0.6313  0.2457 -0.2377
   94MOL0     C12617   7.252   3.348   0.755  0.0193  0.7467 -0.7697
   94MOL0     C12618   7.301   3.407   0.885 -0.2575 -0.8438  0.4234
   94MOL0     C12619   7.353   3.297   0.965  0.1204 -0.0940  1.3644
   94MOL0     C12620   7.387   3.189   1.014  0.1675  0.3310  0.7205
   94MOL0     C12621   6.926   3.316   0.320  0.3563  0.0632  0.3065
   94MOL0     C12622   6.818   3.271   0.243 -0.0995  0.3886  0.0151
   94MOL0     H12623   6.497   2.952   0.152 -2.1312 -0.6965  0.3431
   94MOL0     H12624   6.348   2.831   0.004  0.5121 -0.2547 -1.1510
   94MOL0     H12625   6.113   2.881  -0.030  3.0764  1.0304 -0.8036
   94MOL0     H12626   6.028   2.997  -0.119 -1.2163 -1.0350  0.3339
   94MOL0     H12627   5.922   2.813  -0.138  1.2730 -0.3338  1.6747
   94MOL0     H12628   5.980   2.856  -0.303  2.3036  1.8883 -0.1650
   94MOL0     H12629   6.155   2.701  -0.292 -2.3026  4.2627 -1.4226
   94MOL0     H12630   6.107   2.643  -0.126 -0.7072  3.5672  1.9240
   94MOL0     H12631   6.017   2.473  -0.288  1.9752  1.1005 -0.6816
   94MOL0     H12632   5.890   2.564  -0.220  1.6956 -1.0506  2.4989
   94MOL0     H12633   5.900   2.709  -0.442  1.7151  1.3105  1.5921
   94MOL0     H12634   6.039   2.615  -0.491 -0.7996  1.4963  0.1175
   94MOL0     H12635   5.846   2.534  -0.597  1.4349  0.4970 -0.3255
   94MOL0     H12636   5.904   2.407  -0.477  1.2688  0.8689 -1.2758
   94MOL0     H12637   5.703   2.583  -0.373 -1.5868  0.6252 -0.9721
   94MOL0     H12638   5.634   2.493  -0.499 -3.1027 -0.1215  3.4232
   94MOL0     H12639   5.779   2.364  -0.267 -0.1397  1.9435 -0.2182
   94MOL0     H12640   5.728   2.274  -0.405  0.5380  1.0401 -2.5884
   94MOL0     H12641   5.449   2.306  -0.450 -0.1539  1.2141 -0.3234
   94MOL0     H12642   5.135   2.378  -0.260 -2.1219 -1.3769 -0.9502
   94MOL0     H12643   5.193   2.336  -0.422 -0.1610 -3.6658 -1.6815
   94MOL0     H12644   5.077   2.161  -0.234 -0.8556 -1.7770 -2.6131
   94MOL0     H12645   5.246   2.140  -0.200  0.4447 -0.9240 -1.1712
   94MOL0     H12646   5.273   2.044  -0.407 -1.2701 -2.7583 -0.0411
   94MOL0     H12647   5.135   2.113  -0.489 -1.6083 -3.1338 -0.8803
   94MOL0     H12648   5.100   1.884  -0.454  3.1469  0.2223  0.2631
   94MOL0     H12649   4.977   1.973  -0.368 -0.9934 -2.3855  0.0901
   94MOL0     H12650   5.068   1.671  -0.332 -2.9484 -0.8840 -0.6136
   94MOL0     H12651   4.995   1.386  -0.164 -1.3157  2.1851  2.0500
   94MOL0     H12652   4.858   1.433  -0.283  0.5428  1.8591 -1.2207
   94MOL0     H12653   5.033   1.440  -0.315  1.3607  2.2505 -0.2247
   94MOL0     H12654   4.799   1.622   0.360 -0.1306 -1.0990 -0.3400
   94MOL0     H12655   4.720   1.490   0.581  0.8257 -0.7608  0.5208
   94MOL0     H12656   4.524   1.121   0.477  0.2587  0.7284 -0.4086
   94MOL0     H12657   4.670   1.120   0.580  0.6690 -1.8383 -3.9252
   94MOL0     H12658   4.535   1.100   0.797 -2.2231  0.6251  1.7725
   94MOL0     H12659   4.394   1.160   0.720  1.3373  2.2518 -2.0189
   94MOL0     H12660   4.389   0.928   0.786 -3.6150  2.5746 -1.6363
   94MOL0     H12661   4.532   0.884   0.676  0.4236  1.0252 -0.2045
   94MOL0     H12662   4.285   1.015   0.567  3.0152  1.8193  1.7287
   94MOL0     H12663   4.422   0.921   0.502 -0.4686  0.6957 -1.1165
   94MOL0     H12664   4.187   0.780   0.511 -1.0002  1.3694  1.3604
   94MOL0     H12665   4.174   0.837   0.666 -0.7323 -5.2185  1.1880
   94MOL0     H12666   4.377   0.698   0.740 -1.7276 -2.6265  2.2423
   94MOL0     H12667   4.222   0.622   0.692 -0.5313  1.1342  1.0191
   94MOL0     H12668   4.454   0.642   0.490  0.9442 -0.1665  0.3108
   94MOL0     H12669   4.295   0.564   0.474  1.8444 -1.4435 -1.6395
   94MOL0     H12670   4.455   0.410   0.509  1.9294  1.6237 -1.1678
   94MOL0     H12671   4.328   0.416   0.645  1.1590 -2.8225  0.7819
   94MOL0     H12672   4.497   1.248   0.332 -0.7160  1.8957 -0.4681
   94MOL0     H12673   4.541   1.407   0.124 -0.2551  2.8514 -0.0194
   94MOL0     H12674   4.827   1.803   0.077  1.9270  0.2881  1.7732
   94MOL0     H12675   4.981   1.962  -0.026  0.5125 -0.8282  0.7982
   94MOL0     H12676   6.287   3.190  -0.227  1.3439  0.5377 -0.1093
   94MOL0     H12677   6.443   3.310  -0.104  1.1235  0.0117  0.8806
   94MOL0     H12678   6.568   3.438   0.411  0.8311 -0.3878 -0.2888
   94MOL0     H12679   6.776   3.554   0.515  3.8828 -1.1553  2.6095
   94MOL0     H12680   7.097   3.281   0.559  2.9942 -0.0619 -0.2632
   94MOL0     H12681   7.207   3.394   0.475  0.1571  1.6889 -0.2936
   94MOL0     H12682   7.072   3.452   0.738  0.3315 -2.1225 -0.4360
   94MOL0     H12683   7.224   3.538   0.666 -2.0282  1.7865 -2.9336
   94MOL0     H12684   7.339   3.326   0.693  0.1039  0.6810 -0.6264
   94MOL0     H12685   7.182   3.269   0.782 -3.1746  4.1000  1.9020
   94MOL0     H12686   7.226   3.447   0.954  0.4597  2.6332 -0.5986
   94MOL0     H12687   7.381   3.481   0.873 -0.0276 -1.2411 -0.5988
   94MOL0     H12688   7.410   3.094   1.057  0.9511  0.2579  0.1774
   94MOL0     H12689   7.030   3.285   0.324  1.1829  2.5822 -0.1741
   94MOL0     H12690   6.829   3.194   0.167 -2.8260  1.1175 -1.2525
   95MOL0     O12691  11.044   4.057   5.792  0.1282  0.1367 -1.1641
   95MOL0     C12692  11.045   3.956   5.867 -0.7170  0.5429 -0.4804
   95MOL0     O12693  11.040   3.815   5.822  0.0941 -0.6654 -0.3512
   95MOL0     C12694  11.076   3.784   5.696 -0.5593 -0.1744  0.1112
   95MOL0     C12695  11.010   3.827   5.578 -0.8821 -0.0558  0.5062
   95MOL0     C12696  11.045   3.772   5.448 -0.6499  0.0742 -0.0117
   95MOL0     C12697  11.144   3.677   5.442  0.1521 -1.1036 -0.4200
   95MOL0     O12698  11.164   3.628   5.320 -0.2328  0.1857  0.0143
   95MOL0     C12699  11.300   3.578   5.307  0.3385  0.5319  0.1472
   95MOL0     C12700  11.326   3.554   5.155 -0.1568 -0.1945 -0.6835
   95MOL0     C12701  11.478   3.544   5.119  0.6573  0.1454  0.3939
   95MOL0     C12702  11.485   3.541   4.968  0.0069  0.1849 -0.6645
   95MOL0     C12703  11.639   3.532   4.937  0.2908  0.1441 -0.2751
   95MOL0     C12704  11.660   3.518   4.784  0.7048 -0.8723 -0.5135
   95MOL0     C12705  11.800   3.550   4.751 -0.7164 -0.3919  0.5094
   95MOL0     C12706  11.898   3.455   4.826 -0.2086 -0.5534 -0.4909
   95MOL0     N12707  11.979   3.382   4.724  0.4146 -0.2940  0.3977
   95MOL0     C12708  11.942   3.262   4.664 -0.5066 -0.6103  0.1578
   95MOL0     C12709  12.035   3.254   4.565 -0.9792  0.2492  0.4590
   95MOL0     C12710  12.048   3.149   4.461  0.6590 -0.4821 -0.1669
   95MOL0     C12711  12.128   3.028   4.510 -0.0641 -0.6237  0.0511
   95MOL0     C12712  12.165   2.941   4.396  0.3954 -0.2769 -0.4868
   95MOL0     C12713  12.282   2.844   4.423  1.5524 -0.7171 -0.5663
   95MOL0     O12714  12.246   2.759   4.531 -0.3281 -0.0713 -0.2483
   95MOL0     C12715  12.346   2.702   4.606  0.2750  0.0799 -1.0023
   95MOL0     C12716  12.318   2.649   4.731 -0.4182  0.3689 -0.7574
   95MOL0     C12717  12.418   2.601   4.818  0.4958 -0.4304  0.1468
   95MOL0     C12718  12.373   2.555   4.954  0.1606  0.3903 -0.8579
   95MOL0     C12719  12.552   2.612   4.781 -0.2414  0.3145 -0.5420
   95MOL0     C12720  12.666   2.587   4.879 -0.1726 -0.0665 -0.2693
   95MOL0     O12721  12.789   2.589   4.824  0.1048  0.4604 -0.3004
   95MOL0     C12722  12.894   2.593   4.913 -0.2873  0.7438  0.5511
   95MOL0     C12723  12.953   2.715   4.942 -0.5706  0.0765  0.7378
   95MOL0     C12724  13.078   2.724   5.010  1.0209 -1.8737  0.7295
   95MOL0     C12725  13.137   2.608   5.049 -0.9116  1.6891 -0.0138
   95MOL0     O12726  13.252   2.613   5.121 -0.2505  0.6690  0.9919
   95MOL0     C12727  13.323   2.498   5.149  0.1090  0.3573 -0.6059
   95MOL0     C12728  13.460   2.532   5.215  0.7021  0.2330  0.2275
   95MOL0     C12729  13.451   2.598   5.348 -0.0864  0.0448 -0.4321
   95MOL0     C12730  13.359   2.531   5.454 -0.5376  0.0686  0.6460
   95MOL0     C12731  13.402   2.593   5.588  0.1286  0.5412 -0.4005
   95MOL0     C12732  13.374   2.740   5.591  0.4102  0.2638 -0.2552
   95MOL0     C12733  13.418   2.804   5.731  0.5943 -0.1115 -0.3393
   95MOL0     C12734  13.445   2.952   5.716 -0.0076 -0.3619 -0.4565
   95MOL0    Cl12735  13.532   3.010   5.852 -0.3992 -0.2715  0.2355
   95MOL0     C12736  13.074   2.481   5.022 -0.5313  0.1616  0.7295
   95MOL0     C12737  12.953   2.475   4.953  0.5853 -0.0196 -0.0287
   95MOL0     O12738  12.645   2.571   4.999  0.4345 -0.4795 -0.0933
   95MOL0     C12739  12.581   2.655   4.653 -0.1011  0.3214  0.1603
   95MOL0     C12740  12.477   2.692   4.564 -0.5469 -0.5434  0.2452
   95MOL0     N12741  12.122   3.358   4.566 -0.0543 -0.6623  0.5070
   95MOL0     N12742  12.090   3.434   4.660 -0.5216 -0.2407 -0.5055
   95MOL0     C12743  11.200   3.634   5.560 -0.0009 -0.1748  0.0222
   95MOL0     C12744  11.179   3.691   5.684  0.5314  0.0088 -0.2189
   95MOL0     C12745  11.049   3.968   6.019  0.2235 -0.7545 -0.6491
   95MOL0     C12746  11.093   4.092   6.071  0.0026 -0.9229 -0.3925
   95MOL0     C12747  11.080   4.114   6.210 -0.5993  0.7480  0.9821
   95MOL0     C12748  11.033   4.012   6.291 -0.8882  0.7923 -0.3142
   95MOL0     O12749  11.016   4.026   6.428  0.1954 -0.1180  0.3444
   95MOL0     C12750  11.040   4.140   6.510  0.6258  0.8649  0.0131
   95MOL0     C12751  10.969   4.114   6.650  0.8456  0.2860 -0.4650
   95MOL0     C12752  10.823   4.134   6.656 -0.7177 -0.5394  0.0852
   95MOL0     C12753  10.751   4.106   6.792 -1.1428  0.1748  0.1785
   95MOL0     C12754  10.795   3.976   6.846  0.0798  0.1566  0.2457
   95MOL0     C12755  10.839   3.869   6.875  0.2278  0.2006  0.0864
   95MOL0     C12756  11.009   3.887   6.244 -0.1883 -0.1825  0.2254
   95MOL0     C12757  11.008   3.865   6.105 -0.0341 -0.0475  0.3702
   95MOL0     H12758  10.926   3.896   5.580 -1.8708 -1.2118 -0.0476
   95MOL0     H12759  10.988   3.798   5.360 -2.7941  1.1405  1.5962
   95MOL0     H12760  11.369   3.653   5.348  2.9972 -1.7211  0.0594
   95MOL0     H12761  11.314   3.484   5.360 -1.5043 -0.3687 -0.8532
   95MOL0     H12762  11.283   3.456   5.132  0.6053 -0.3148 -1.6411
   95MOL0     H12763  11.293   3.643   5.100  1.1319  1.2941  0.8464
   95MOL0     H12764  11.527   3.633   5.160 -0.3560 -0.3818  2.9243
   95MOL0     H12765  11.533   3.458   5.159  5.0543  1.9579 -1.1085
   95MOL0     H12766  11.430   3.455   4.931  0.7340 -0.5312 -0.1108
   95MOL0     H12767  11.441   3.633   4.927 -1.3644 -0.5461 -0.9008
   95MOL0     H12768  11.696   3.624   4.952  0.5589  0.2473 -1.7611
   95MOL0     H12769  11.678   3.444   4.989 -2.0318 -1.9510 -1.9045
   95MOL0     H12770  11.647   3.417   4.744 -1.7040 -1.4416  1.4535
   95MOL0     H12771  11.598   3.590   4.730 -0.4987 -0.0565  1.8228
   95MOL0     H12772  11.806   3.544   4.642 -1.6905  0.6766  0.3768
   95MOL0     H12773  11.825   3.652   4.783 -2.3950 -0.1974  1.3247
   95MOL0     H12774  11.855   3.376   4.889  1.5408 -0.5759  0.7457
   95MOL0     H12775  11.964   3.516   4.888  1.0215 -2.0938 -0.1902
   95MOL0     H12776  11.862   3.195   4.696 -0.1145 -0.5468  1.3268
   95MOL0     H12777  11.944   3.119   4.441 -0.2195  0.2110  2.8137
   95MOL0     H12778  12.094   3.193   4.373  3.4008  0.2537  1.5256
   95MOL0     H12779  12.076   2.974   4.591  0.7025  2.1884  2.6053
   95MOL0     H12780  12.213   3.078   4.557 -0.7397  1.9024 -1.2614
   95MOL0     H12781  12.201   3.006   4.316  1.7189 -0.1505  0.1894
   95MOL0     H12782  12.078   2.889   4.354  0.4373 -1.7191  1.0881
   95MOL0     H12783  12.368   2.904   4.455  0.9240  1.3609 -2.4930
   95MOL0     H12784  12.294   2.775   4.339  2.5363 -0.1131 -0.9339
   95MOL0     H12785  12.215   2.659   4.764  0.0430  4.5557  0.0001
   95MOL0     H12786  12.417   2.616   5.034 -0.5264  0.4210 -0.4955
   95MOL0     H12787  12.265   2.566   4.966  0.3759  3.2676 -0.8561
   95MOL0     H12788  12.403   2.451   4.968 -1.8968 -0.1898 -0.5124
   95MOL0     H12789  12.899   2.800   4.901 -1.0062 -0.0002  1.1476
   95MOL0     H12790  13.121   2.820   5.036 -2.1797 -0.1342  0.1669
   95MOL0     H12791  13.259   2.435   5.211  0.9075 -0.5444 -0.6809
   95MOL0     H12792  13.355   2.452   5.055 -1.0054  0.7571 -1.2016
   95MOL0     H12793  13.508   2.434   5.225 -0.3167 -0.2469  0.5615
   95MOL0     H12794  13.509   2.601   5.146 -0.2923 -0.7351 -1.5300
   95MOL0     H12795  13.423   2.700   5.319 -1.0140  0.0467  0.4300
   95MOL0     H12796  13.554   2.601   5.384 -0.8722 -4.0022  2.9293
   95MOL0     H12797  13.254   2.561   5.441 -1.3826 -2.3107  1.3759
   95MOL0     H12798  13.369   2.422   5.456  0.1377  0.0117 -1.9669
   95MOL0     H12799  13.510   2.586   5.603  0.3140 -0.6173 -2.0641
   95MOL0     H12800  13.371   2.539   5.678  6.0479 -1.1057  1.0970
   95MOL0     H12801  13.438   2.776   5.510  0.2244 -2.0432 -1.5019
   95MOL0     H12802  13.271   2.766   5.566  0.6074  1.6566  0.2923
   95MOL0     H12803  13.511   2.750   5.752 -0.1320 -1.2134  0.1527
   95MOL0     H12804  13.333   2.803   5.799  1.4312  1.9383  0.8411
   95MOL0     H12805  13.351   3.009   5.713 -1.7232 -2.8414  1.8868
   95MOL0     H12806  13.512   2.965   5.631  2.8517 -2.0191  1.3821
   95MOL0     H12807  13.114   2.392   5.070  0.2089  0.1297  0.0787
   95MOL0     H12808  12.893   2.385   4.942 -1.1374  0.3664  4.0872
   95MOL0     H12809  12.681   2.666   4.612  0.8391  0.4986  2.4029
   95MOL0     H12810  12.503   2.704   4.460 -2.8534 -0.1313 -0.3547
   95MOL0     H12811  11.269   3.551   5.551 -0.7562 -0.7749 -0.2797
   95MOL0     H12812  11.228   3.656   5.775 -0.1798  1.9340  0.9742
   95MOL0     H12813  11.123   4.175   6.009  0.2992  1.9109  3.2179
   95MOL0     H12814  11.113   4.213   6.240  0.0199  1.4541 -1.7089
   95MOL0     H12815  11.145   4.146   6.540  0.2830 -0.5221  1.6099
   95MOL0     H12816  11.004   4.234   6.468  0.2202  1.0109  0.6779
   95MOL0     H12817  11.003   4.187   6.724 -0.6987  0.5668  0.0004
   95MOL0     H12818  11.001   4.015   6.682  2.5581 -0.9574 -5.1767
   95MOL0     H12819  10.778   4.054   6.596  2.5520 -2.0172 -0.6227
   95MOL0     H12820  10.792   4.227   6.606  0.1824 -0.2216  0.0927
   95MOL0     H12821  10.644   4.110   6.766 -0.5733  0.7368 -2.3888
   95MOL0     H12822  10.784   4.178   6.867 -0.9376  0.3111 -0.0401
   95MOL0     H12823  10.879   3.771   6.888  1.1424  0.8733  3.3135
   95MOL0     H12824  10.974   3.822   6.323 -0.5741  1.2929  1.3147
   95MOL0     H12825  10.960   3.777   6.065 -0.9369  1.0194 -1.0145
   96MOL0     O12826   2.913  11.092   4.515 -0.6095  0.3172 -0.3582
   96MOL0     C12827   2.798  11.055   4.536  0.7128 -0.4959 -0.0669
   96MOL0     O12828   2.682  11.128   4.495 -0.3440  0.5713 -0.0879
   96MOL0     C12829   2.700  11.255   4.444 -0.2687 -0.5207 -0.6106
   96MOL0     C12830   2.798  11.351   4.496  0.6170  0.2240  0.5204
   96MOL0     C12831   2.815  11.479   4.443  0.1687  0.3291  0.8084
   96MOL0     C12832   2.723  11.522   4.355 -0.3511 -0.0261  0.5382
   96MOL0     O12833   2.753  11.649   4.304 -0.6924 -0.8529  0.2138
   96MOL0     C12834   2.668  11.726   4.215  0.7483  0.7418  0.0524
   96MOL0     C12835   2.698  11.675   4.073  0.2946 -0.3974 -0.1044
   96MOL0     C12836   2.690  11.789   3.971  0.0448 -0.7706  0.1765
   96MOL0     C12837   2.733  11.731   3.839  0.4471 -0.3073 -0.0078
   96MOL0     C12838   2.794  11.847   3.764 -0.9229  0.2814  0.1245
   96MOL0     C12839   2.705  11.954   3.735  0.8837  0.2856 -0.9633
   96MOL0     C12840   2.759  12.060   3.651 -0.6427 -1.0979 -0.2596
   96MOL0     C12841   2.817  12.025   3.515 -0.0442 -0.1853  0.9025
   96MOL0     N12842   2.930  12.112   3.490  0.0125 -0.5771 -0.5627
   96MOL0     C12843   2.920  12.250   3.483  0.3035 -0.3982  0.2994
   96MOL0     C12844   3.052  12.297   3.469  0.2112 -0.1846 -0.0127
   96MOL0     C12845   3.087  12.438   3.450 -0.6080 -0.2244  0.2414
   96MOL0     C12846   3.197  12.487   3.553  0.0984  0.4432  1.9819
   96MOL0     C12847   3.194  12.640   3.560  0.4436 -0.0363 -0.0844
   96MOL0     C12848   3.218  12.715   3.433 -0.0570 -0.5598 -0.4620
   96MOL0     O12849   3.363  12.712   3.408 -0.6802  0.6326 -0.8494
   96MOL0     C12850   3.414  12.820   3.350 -0.5797  0.5348  0.6491
   96MOL0     C12851   3.477  12.819   3.224  0.4417 -0.8389  0.3328
   96MOL0     C12852   3.545  12.932   3.166 -0.7146 -1.1598 -0.1842
   96MOL0     C12853   3.623  12.908   3.041  0.6886  0.0724  0.9063
   96MOL0     C12854   3.548  13.055   3.246 -0.3475 -0.7363  0.9462
   96MOL0     C12855   3.601  13.176   3.191  0.0503 -0.3537  0.1396
   96MOL0     O12856   3.699  13.243   3.264  0.6633  0.3529  0.2137
   96MOL0     C12857   3.784  13.330   3.199 -0.0795 -0.0313 -0.3803
   96MOL0     C12858   3.814  13.332   3.063 -0.0231  0.8090 -0.1835
   96MOL0     C12859   3.904  13.439   3.017 -0.0722  0.7549 -0.2555
   96MOL0     C12860   3.978  13.521   3.114 -0.6251  0.4719  1.1429
   96MOL0     O12861   4.070  13.610   3.080  0.4648 -0.6176  0.1177
   96MOL0     C12862   4.133  13.588   2.952  0.6555 -0.4140  0.2275
   96MOL0     C12863   4.242  13.686   2.927 -0.1796  0.1547 -0.0788
   96MOL0     C12864   4.337  13.688   3.053  0.3120  0.0805  0.5091
   96MOL0     C12865   4.463  13.785   3.030 -0.5751 -0.8527 -0.3733
   96MOL0     C12866   4.528  13.792   3.171  0.0063  0.0724  0.1018
   96MOL0     C12867   4.640  13.897   3.165  0.1188 -0.0217  0.2215
   96MOL0     C12868   4.721  13.899   3.295 -0.5797  0.3594 -0.0482
   96MOL0     C12869   4.851  13.991   3.266  0.2053  0.6007  0.6130
   96MOL0    Cl12870   4.937  14.059   3.417  0.6609 -0.2001 -0.0099
   96MOL0     C12871   3.941  13.502   3.249  0.8636  0.5695  0.1832
   96MOL0     C12872   3.847  13.410   3.289 -0.4613  0.2959 -0.2906
   96MOL0     O12873   3.544  13.215   3.084 -0.1568 -0.1185 -0.1208
   96MOL0     C12874   3.480  13.058   3.367  0.1692  0.2246  0.5411
   96MOL0     C12875   3.413  12.945   3.416 -0.3588  1.0716  1.5110
   96MOL0     N12876   3.131  12.186   3.500 -0.0047 -0.3575  0.2852
   96MOL0     N12877   3.052  12.083   3.520 -0.4051 -0.2096 -0.6913
   96MOL0     C12878   2.619  11.445   4.314  0.1781 -0.1894 -0.0603
   96MOL0     C12879   2.600  11.308   4.361 -0.0700  0.5583 -0.2427
   96MOL0     C12880   2.771  10.936   4.617 -0.7382 -0.1484 -0.2983
   96MOL0     C12881   2.645  10.879   4.630 -0.3192 -0.3963 -1.3414
   96MOL0     C12882   2.607  10.772   4.712  0.0303  0.4410  0.1638
   96MOL0     C12883   2.706  10.703   4.777 -0.1770  0.2943  0.3246
   96MOL0     O12884   2.666  10.576   4.829  0.0588 -0.6428  0.3834
   96MOL0     C12885   2.739  10.458   4.831 -0.2160 -0.4709  0.1432
   96MOL0     C12886   2.646  10.335   4.864 -1.1060 -0.7458 -0.7888
   96MOL0     C12887   2.537  10.333   4.761 -0.0675  0.2224 -0.4869
   96MOL0     C12888   2.437  10.219   4.791 -0.3466 -0.6546 -0.0059
   96MOL0     C12889   2.500  10.102   4.837 -0.3401  0.1075  0.6089
   96MOL0     C12890   2.541   9.998   4.878 -0.6917  0.5526  0.4929
   96MOL0     C12891   2.840  10.754   4.767 -0.2695 -1.1298 -0.4650
   96MOL0     C12892   2.872  10.876   4.697  0.4301  0.0459  0.1608
   96MOL0     H12893   2.875  11.314   4.563  1.9111  0.8752 -0.5463
   96MOL0     H12894   2.879  11.558   4.480  0.5619 -0.6977  2.3876
   96MOL0     H12895   2.562  11.726   4.242  0.9306 -0.2551  0.8141
   96MOL0     H12896   2.693  11.830   4.241 -0.3052  1.6313 -2.1567
   96MOL0     H12897   2.799  11.634   4.067  0.1842 -0.4587 -2.8315
   96MOL0     H12898   2.625  11.599   4.045 -0.7853  0.5405  0.1072
   96MOL0     H12899   2.594  11.842   3.966  1.4003  1.6846 -2.8916
   96MOL0     H12900   2.757  11.866   4.009 -2.2155 -0.1675  3.3212
   96MOL0     H12901   2.815  11.659   3.845 -0.8274 -2.4805 -4.3715
   96MOL0     H12902   2.657  11.683   3.776  1.3659  1.5535 -2.7160
   96MOL0     H12903   2.878  11.886   3.822  2.1775 -3.1160 -1.6453
   96MOL0     H12904   2.829  11.790   3.677 -0.6149 -0.0950  0.4906
   96MOL0     H12905   2.620  11.914   3.680 -1.3337  3.8442 -0.4637
   96MOL0     H12906   2.670  12.003   3.827  3.5001 -0.1658  0.3707
   96MOL0     H12907   2.678  12.128   3.627  0.3643 -0.0306 -0.7512
   96MOL0     H12908   2.838  12.120   3.699  0.2921  1.4468 -4.4407
   96MOL0     H12909   2.733  12.038   3.447  1.2503  1.4018 -0.4910
   96MOL0     H12910   2.855  11.924   3.501  0.5669  0.3125 -1.4169
   96MOL0     H12911   2.822  12.298   3.486 -0.2016 -1.3394 -0.4584
   96MOL0     H12912   3.105  12.456   3.344 -1.4072 -1.0550 -0.0401
   96MOL0     H12913   3.000  12.504   3.458 -0.4134  0.1023 -0.2734
   96MOL0     H12914   3.296  12.466   3.511 -0.1146 -0.8964  2.1191
   96MOL0     H12915   3.186  12.440   3.651 -2.5547 -0.9405  1.1315
   96MOL0     H12916   3.256  12.670   3.645 -2.0878 -1.0432  2.2641
   96MOL0     H12917   3.098  12.681   3.594  0.4626 -0.5525  0.6245
   96MOL0     H12918   3.177  12.816   3.444  4.1560  1.8729 -3.9862
   96MOL0     H12919   3.168  12.663   3.351  0.7250 -2.2224  0.0778
   96MOL0     H12920   3.473  12.723   3.172 -0.8038 -0.9421  0.5756
   96MOL0     H12921   3.562  12.937   2.956 -1.5034 -2.9201  1.3054
   96MOL0     H12922   3.711  12.972   3.034 -0.6603  1.8965 -0.3017
   96MOL0     H12923   3.643  12.804   3.015 -2.0686 -0.0288 -1.2141
   96MOL0     H12924   3.774  13.272   2.982  0.5500  0.4306 -0.1918
   96MOL0     H12925   3.908  13.463   2.911 -1.9370  0.7236 -0.3581
   96MOL0     H12926   4.169  13.485   2.955 -0.8654 -0.9514  1.1084
   96MOL0     H12927   4.060  13.607   2.873 -0.2526  3.8554  1.8037
   96MOL0     H12928   4.297  13.655   2.838 -1.1729 -0.2835 -0.5575
   96MOL0     H12929   4.209  13.790   2.914 -0.5683 -0.0794 -1.0455
   96MOL0     H12930   4.389  13.593   3.069  4.7016  1.7077 -2.1298
   96MOL0     H12931   4.265  13.720   3.128  1.4255  1.7973  0.9166
   96MOL0     H12932   4.522  13.750   2.945 -0.6116 -3.1147  0.4687
   96MOL0     H12933   4.425  13.886   3.013 -1.4219 -0.4748  2.9636
   96MOL0     H12934   4.574  13.698   3.203  0.3372 -0.0082 -0.6141
   96MOL0     H12935   4.450  13.826   3.240 -2.0347 -0.7450 -1.7010
   96MOL0     H12936   4.717  13.858   3.097  0.3961 -0.0105  0.5234
   96MOL0     H12937   4.603  13.996   3.139 -0.6095  0.0389  1.4198
   96MOL0     H12938   4.749  13.803   3.338  1.2348  0.4629 -0.8955
   96MOL0     H12939   4.670  13.945   3.380 -0.1547 -0.6074  0.7408
   96MOL0     H12940   4.807  14.077   3.214 -0.2075 -0.3267 -0.5972
   96MOL0     H12941   4.919  13.938   3.199 -0.0698  0.5358  0.3802
   96MOL0     H12942   4.013  13.552   3.313  0.5177  2.3447 -0.7427
   96MOL0     H12943   3.829  13.385   3.393  1.9355  2.4128  0.7492
   96MOL0     H12944   3.475  13.146   3.431  0.0397  1.5345 -1.1733
   96MOL0     H12945   3.356  12.952   3.508  3.0913  2.8383  3.7590
   96MOL0     H12946   2.545  11.481   4.243 -1.3755 -1.1520  1.0106
   96MOL0     H12947   2.523  11.235   4.339 -0.5585  0.2470  2.2090
   96MOL0     H12948   2.563  10.914   4.568  1.5991  2.7109 -2.3419
   96MOL0     H12949   2.506  10.732   4.709  0.4824 -0.8684 -3.9072
   96MOL0     H12950   2.794  10.445   4.738  2.2075  0.7946  1.2849
   96MOL0     H12951   2.819  10.461   4.907  0.0341 -0.9059 -0.0982
   96MOL0     H12952   2.612  10.342   4.967  0.3504  0.2594 -0.3458
   96MOL0     H12953   2.706  10.244   4.861 -1.8534 -1.2818  0.0441
   96MOL0     H12954   2.586  10.310   4.666 -2.5867  1.4231 -2.1764
   96MOL0     H12955   2.482  10.426   4.750 -2.7199 -1.4008 -1.9622
   96MOL0     H12956   2.385  10.198   4.697  0.4178  0.4851 -0.7123
   96MOL0     H12957   2.371  10.253   4.871  1.5031 -1.8731  2.1571
   96MOL0     H12958   2.562   9.899   4.914 -2.3333 -0.2367 -0.5923
   96MOL0     H12959   2.921  10.712   4.825 -1.1047 -1.7773  0.2716
   96MOL0     H12960   2.968  10.922   4.716 -0.5896  2.1658  0.5011
   97MOL0     O12961   5.161   3.494   5.695  0.3334 -0.3742  0.4749
   97MOL0     C12962   5.263   3.445   5.749  0.1961 -0.3220  0.4076
   97MOL0     O12963   5.375   3.395   5.682  0.4988 -0.1567  0.2560
   97MOL0     C12964   5.365   3.382   5.552 -0.2371 -0.3919  0.7409
   97MOL0     C12965   5.283   3.292   5.483  0.8795  0.3895 -0.4321
   97MOL0     C12966   5.283   3.277   5.348  0.2843 -0.1879  0.5633
   97MOL0     C12967   5.379   3.350   5.275  0.6841  0.0855  0.4234
   97MOL0     O12968   5.384   3.344   5.142 -0.1981 -0.3270 -0.8624
   97MOL0     C12969   5.516   3.361   5.087  0.0523  0.3104  0.3409
   97MOL0     C12970   5.538   3.498   5.033 -0.4441 -0.5849  0.5812
   97MOL0     C12971   5.654   3.490   4.935  0.1692 -0.0503 -0.7337
   97MOL0     C12972   5.696   3.631   4.890  0.3645 -0.0704  0.0517
   97MOL0     C12973   5.784   3.711   4.987  0.2966  0.3652  0.0634
   97MOL0     C12974   5.934   3.671   4.959  0.3335 -0.0444 -0.3941
   97MOL0     C12975   6.019   3.708   5.083  0.1706 -0.4089  0.2086
   97MOL0     C12976   6.030   3.858   5.117 -1.0106 -0.3649 -0.7659
   97MOL0     N12977   6.064   3.925   4.990  0.2789 -0.0724 -0.6411
   97MOL0     C12978   5.979   3.999   4.932  0.9894  0.6974 -0.1564
   97MOL0     C12979   6.054   4.070   4.848  1.3652 -0.5932  0.0556
   97MOL0     C12980   6.000   4.170   4.742 -0.8924 -0.2840 -0.2011
   97MOL0     C12981   6.078   4.295   4.748  0.2167  0.2476  0.0071
   97MOL0     C12982   6.198   4.304   4.655 -0.0454  0.5370 -0.6333
   97MOL0     C12983   6.252   4.446   4.647 -0.3735  0.1938 -0.0436
   97MOL0     O12984   6.158   4.525   4.568 -0.3822 -0.0625  0.1766
   97MOL0     C12985   6.195   4.632   4.488 -1.1327  0.2996 -0.3351
   97MOL0     C12986   6.095   4.687   4.408 -0.4408  0.2793  0.4946
   97MOL0     C12987   6.131   4.786   4.310 -0.8173  0.1564 -0.0645
   97MOL0     C12988   6.019   4.840   4.227  0.5078 -0.2858 -0.2323
   97MOL0     C12989   6.259   4.832   4.300  0.1570  0.7382  0.7743
   97MOL0     C12990   6.305   4.926   4.202 -0.8420 -0.5018 -0.7544
   97MOL0     O12991   6.382   5.024   4.258  0.2431 -0.1105  0.7177
   97MOL0     C12992   6.426   5.125   4.168  0.1358 -0.0700 -0.7860
   97MOL0     C12993   6.559   5.146   4.158 -0.4808  0.2028 -0.3563
   97MOL0     C12994   6.607   5.255   4.093 -0.7750  0.3459 -0.2809
   97MOL0     C12995   6.527   5.352   4.051  0.1442 -0.5900 -0.8713
   97MOL0     O12996   6.589   5.478   4.018  0.0528  0.2073  0.6841
   97MOL0     C12997   6.514   5.558   3.928  0.4563  0.0685  1.1709
   97MOL0     C12998   6.595   5.585   3.789 -0.2063 -0.1358  0.1402
   97MOL0     C12999   6.500   5.665   3.699  1.0840  0.9644 -0.5753
   97MOL0     C13000   6.561   5.794   3.655  0.1170  0.3998 -0.4788
   97MOL0     C13001   6.489   5.886   3.555  0.0136  0.1628  0.2765
   97MOL0     C13002   6.559   6.028   3.541 -0.1280 -0.1323 -0.0015
   97MOL0     C13003   6.524   6.090   3.410 -0.1475 -0.4738  0.3322
   97MOL0     C13004   6.603   6.223   3.401  0.0707  1.1799 -0.5638
   97MOL0    Cl13005   6.571   6.303   3.246 -0.2948  0.6012  0.0800
   97MOL0     C13006   6.386   5.333   4.063  0.6664  0.0495 -0.7322
   97MOL0     C13007   6.339   5.218   4.113 -0.1396 -0.1644 -0.5176
   97MOL0     O13008   6.288   4.907   4.076 -0.4857  0.0589  0.1642
   97MOL0     C13009   6.362   4.789   4.394 -0.0488 -0.4552  0.0288
   97MOL0     C13010   6.326   4.684   4.485 -0.9342 -1.3002  0.4206
   97MOL0     N13011   6.179   4.015   4.843  0.8542  1.2605 -0.6299
   97MOL0     N13012   6.185   3.929   4.932 -0.2975  0.0855  0.8608
   97MOL0     C13013   5.467   3.436   5.346  1.4402  0.4441 -0.1125
   97MOL0     C13014   5.456   3.454   5.484 -0.1387 -0.7800  0.4604
   97MOL0     C13015   5.275   3.446   5.899 -0.5731 -1.1117  0.8397
   97MOL0     C13016   5.386   3.391   5.957 -0.4064  0.6246 -0.2575
   97MOL0     C13017   5.402   3.394   6.108  0.2263 -0.1576  0.8711
   97MOL0     C13018   5.320   3.474   6.186  0.0203  0.7942 -0.8623
   97MOL0     O13019   5.341   3.513   6.319 -0.2694  0.2186 -0.9810
   97MOL0     C13020   5.434   3.441   6.396  0.8973  0.7284  0.4470
   97MOL0     C13021   5.443   3.508   6.530  0.0577  0.0397  0.2240
   97MOL0     C13022   5.326   3.472   6.617  0.0167 -0.5610 -1.7968
   97MOL0     C13023   5.369   3.501   6.762 -0.2445  0.0518 -0.2243
   97MOL0     C13024   5.260   3.462   6.851 -0.4274 -1.0323 -0.0172
   97MOL0     C13025   5.177   3.423   6.938 -0.0559 -0.0149  0.7813
   97MOL0     C13026   5.205   3.520   6.128 -0.6053  0.2237  0.2037
   97MOL0     C13027   5.180   3.508   5.991  0.3251 -0.3716  0.0067
   97MOL0     H13028   5.201   3.238   5.529  2.5813 -3.0669 -1.1126
   97MOL0     H13029   5.222   3.217   5.282  1.3274 -1.7603  0.9507
   97MOL0     H13030   5.602   3.315   5.137  0.8820 -0.9102 -2.0493
   97MOL0     H13031   5.504   3.298   4.998 -2.5241 -1.2382  1.6462
   97MOL0     H13032   5.444   3.522   4.981 -0.8414 -2.3992  0.3845
   97MOL0     H13033   5.554   3.576   5.108 -2.9929  0.1240  0.4823
   97MOL0     H13034   5.729   3.425   4.980 -0.8719 -2.5214 -2.3821
   97MOL0     H13035   5.624   3.434   4.846  1.8520  2.0907 -2.8042
   97MOL0     H13036   5.752   3.631   4.796 -0.1662 -1.1759 -0.2767
   97MOL0     H13037   5.600   3.679   4.867  0.0625 -1.3373 -1.4813
   97MOL0     H13038   5.789   3.818   4.966  3.2663  0.3181  0.1212
   97MOL0     H13039   5.753   3.707   5.092 -4.5782  2.9146 -0.9649
   97MOL0     H13040   5.940   3.563   4.939 -1.9381 -0.6493  1.7968
   97MOL0     H13041   5.968   3.719   4.867  1.8772 -2.7829 -1.3855
   97MOL0     H13042   5.987   3.649   5.170  3.5380 -1.3427  0.9594
   97MOL0     H13043   6.117   3.671   5.052  0.0345  0.9350 -2.0153
   97MOL0     H13044   6.107   3.879   5.191 -2.5695 -2.7501  1.7036
   97MOL0     H13045   5.938   3.885   5.170  0.8826 -0.3918  2.7967
   97MOL0     H13046   5.874   4.017   4.954  0.7821  1.7698 -1.8485
   97MOL0     H13047   5.994   4.139   4.637 -0.7146  1.4053 -0.7392
   97MOL0     H13048   5.899   4.199   4.774 -0.5882  0.6185 -0.0249
   97MOL0     H13049   6.102   4.319   4.851 -0.8520  1.8350 -0.0700
   97MOL0     H13050   6.009   4.375   4.718  0.9646 -0.0095 -2.6726
   97MOL0     H13051   6.176   4.270   4.554 -1.6323  0.4678 -0.2792
   97MOL0     H13052   6.276   4.242   4.701 -0.9218 -1.0858 -1.2822
   97MOL0     H13053   6.355   4.452   4.610 -1.5835  2.4249 -3.6073
   97MOL0     H13054   6.243   4.481   4.750 -1.3083  1.1242 -0.4259
   97MOL0     H13055   5.993   4.650   4.418  0.1968 -2.9040 -2.5714
   97MOL0     H13056   6.033   4.946   4.201  2.0443  0.1535  2.1132
   97MOL0     H13057   6.000   4.778   4.138  1.8997 -1.2632  0.1340
   97MOL0     H13058   5.930   4.834   4.289  0.7650 -0.1892  0.1455
   97MOL0     H13059   6.627   5.075   4.203  0.8441  1.6603  0.0473
   97MOL0     H13060   6.716   5.258   4.091 -0.7268 -1.1415 -2.4456
   97MOL0     H13061   6.419   5.510   3.902  0.7806  0.0161  0.0416
   97MOL0     H13062   6.494   5.654   3.977  1.5390  1.2762 -0.6629
   97MOL0     H13063   6.696   5.628   3.798 -0.2143 -0.2618  0.8689
   97MOL0     H13064   6.622   5.493   3.737 -1.6573  0.4136 -1.7146
   97MOL0     H13065   6.402   5.680   3.745  1.1918  0.4498 -0.1622
   97MOL0     H13066   6.469   5.604   3.613  1.5096 -0.3770  0.1832
   97MOL0     H13067   6.573   5.847   3.750  0.8245  0.5103 -0.6247
   97MOL0     H13068   6.663   5.768   3.623 -0.0470 -1.4086  0.3345
   97MOL0     H13069   6.388   5.908   3.591 -0.0530  0.6495 -0.1956
   97MOL0     H13070   6.479   5.839   3.457 -1.0403  1.6288 -0.3525
   97MOL0     H13071   6.519   6.089   3.622  1.0390  0.3431  0.2378
   97MOL0     H13072   6.666   6.013   3.560 -0.6206 -2.9435  1.0003
   97MOL0     H13073   6.417   6.113   3.415 -0.5391 -2.0606 -0.2098
   97MOL0     H13074   6.538   6.024   3.323  2.5885  1.1243 -0.5755
   97MOL0     H13075   6.710   6.199   3.402  0.6490  3.5015  0.4790
   97MOL0     H13076   6.584   6.294   3.483 -0.5420  0.8390 -0.4072
   97MOL0     H13077   6.311   5.403   4.028 -1.6213 -1.6753  0.3936
   97MOL0     H13078   6.233   5.193   4.118  0.3651 -2.3147  1.9091
   97MOL0     H13079   6.462   4.828   4.407 -0.5955  0.3040  2.5980
   97MOL0     H13080   6.398   4.662   4.564 -2.8839 -3.3310  1.7354
   97MOL0     H13081   5.539   3.500   5.297  0.6992 -0.0412 -1.9182
   97MOL0     H13082   5.515   3.523   5.543 -0.4754 -0.2061  0.1418
   97MOL0     H13083   5.468   3.344   5.902  0.9961  1.4093  1.0751
   97MOL0     H13084   5.492   3.350   6.150  0.0620 -0.9717  0.3917
   97MOL0     H13085   5.400   3.337   6.400 -2.0146  1.3674 -2.9004
   97MOL0     H13086   5.537   3.451   6.361 -0.6260 -0.0462 -5.1644
   97MOL0     H13087   5.471   3.613   6.517 -0.4180  0.0432 -0.8468
   97MOL0     H13088   5.526   3.450   6.572 -0.9978  0.6194  3.3910
   97MOL0     H13089   5.308   3.364   6.614 -1.7788 -0.5202  1.9291
   97MOL0     H13090   5.250   3.535   6.571  0.4547  1.3263 -0.0762
   97MOL0     H13091   5.382   3.609   6.775  1.4515 -0.3058  1.4035
   97MOL0     H13092   5.466   3.453   6.776  1.1000  2.9379  1.4634
   97MOL0     H13093   5.100   3.399   7.008 -2.5923  4.1098 -0.2172
   97MOL0     H13094   5.139   3.580   6.191 -0.8121  1.2556 -0.9546
   97MOL0     H13095   5.091   3.556   5.952  1.3767  0.4534 -1.4523
   98MOL0     O13096   4.621   0.638  11.051  0.2539  0.1135  0.1080
   98MOL0     C13097   4.558   0.578  11.141  0.0721  0.2693  0.3311
   98MOL0     O13098   4.516   0.629  11.255 -0.2230  0.5365  0.9325
   98MOL0     C13099   4.480   0.758  11.261 -0.1150  0.7746  1.1826
   98MOL0     C13100   4.355   0.804  11.280 -0.5002 -0.7784  0.0201
   98MOL0     C13101   4.323   0.938  11.307 -0.4922 -0.2353 -1.0121
   98MOL0     C13102   4.423   1.033  11.322 -0.3813 -0.1741  0.2905
   98MOL0     O13103   4.386   1.158  11.358  0.7117 -0.2355 -0.1389
   98MOL0     C13104   4.475   1.270  11.339  0.2149  0.0328  0.1622
   98MOL0     C13105   4.520   1.292  11.193 -0.8693  0.3550 -0.4583
   98MOL0     C13106   4.542   1.435  11.157 -0.3457  0.0613 -0.3392
   98MOL0     C13107   4.604   1.446  11.018  0.2915 -1.2589 -0.4409
   98MOL0     C13108   4.663   1.588  10.989  0.0539 -1.2557 -0.4455
   98MOL0     C13109   4.566   1.705  11.017  0.2984  0.3119  0.4893
   98MOL0     C13110   4.629   1.844  10.983 -0.4934 -0.2744  0.3797
   98MOL0     C13111   4.664   1.858  10.831  0.2244  0.3400  0.4377
   98MOL0     N13112   4.775   1.956  10.824  0.5901 -1.1675  0.1410
   98MOL0     C13113   4.769   2.090  10.806 -0.1533  0.3643  0.2359
   98MOL0     C13114   4.900   2.130  10.783 -0.0842 -0.3721 -0.1529
   98MOL0     C13115   4.938   2.268  10.730 -0.6775  0.3357 -0.7875
   98MOL0     C13116   4.959   2.273  10.579  0.5533  0.2102  0.8795
   98MOL0     C13117   5.081   2.211  10.531 -0.7656 -0.2889 -0.4425
   98MOL0     C13118   5.119   2.254  10.390  0.5852  0.3556  0.7077
   98MOL0     O13119   5.166   2.386  10.383  0.1723 -0.1117 -0.0612
   98MOL0     C13120   5.215   2.426  10.264 -0.8668 -0.0094 -0.3746
   98MOL0     C13121   5.167   2.394  10.139  0.7665 -0.9481  0.4329
   98MOL0     C13122   5.233   2.451  10.022 -0.2567  0.0562 -0.7192
   98MOL0     C13123   5.163   2.429   9.889 -0.1119  0.3080 -0.1479
   98MOL0     C13124   5.357   2.528  10.041 -0.3645 -1.2703 -0.3363
   98MOL0     C13125   5.423   2.603   9.937  0.4292 -0.1937  0.3546
   98MOL0     O13126   5.344   2.664   9.838 -0.1336  0.1995  0.5387
   98MOL0     C13127   5.402   2.771   9.778  0.9093 -0.2810 -0.1819
   98MOL0     C13128   5.408   2.903   9.831 -0.8796 -0.0337  0.9309
   98MOL0     C13129   5.476   3.009   9.773  0.4031  0.1436 -0.2328
   98MOL0     C13130   5.534   2.983   9.645  0.0362 -0.3934 -0.4360
   98MOL0     O13131   5.600   3.087   9.576 -0.0906 -0.2854  0.1381
   98MOL0     C13132   5.709   3.043   9.490 -0.0282 -0.0773 -0.9772
   98MOL0     C13133   5.797   3.160   9.447 -1.2250  0.6692 -0.3361
   98MOL0     C13134   5.743   3.261   9.357 -0.6641 -0.2262  0.0617
   98MOL0     C13135   5.646   3.364   9.426 -0.7552  0.4706  0.2959
   98MOL0     C13136   5.638   3.479   9.321  0.8686  0.5827  0.5272
   98MOL0     C13137   5.550   3.592   9.376 -0.1068 -0.2599  0.6071
   98MOL0     C13138   5.597   3.669   9.497 -0.4657  0.2738  0.4676
   98MOL0     C13139   5.517   3.785   9.520  0.9914  0.0617 -0.1597
   98MOL0    Cl13140   5.593   3.929   9.433  0.2065  0.0983  0.1635
   98MOL0     C13141   5.514   2.860   9.582 -0.3163 -0.2850  0.2825
   98MOL0     C13142   5.452   2.755   9.649 -0.6183  0.0918 -0.5897
   98MOL0     O13143   5.545   2.612   9.941 -0.2708 -0.3722  0.4870
   98MOL0     C13144   5.407   2.542  10.174 -0.7042  0.8112 -1.2260
   98MOL0     C13145   5.328   2.498  10.282 -0.3645 -0.4613 -0.4279
   98MOL0     N13146   4.974   2.017  10.770  0.0586  0.2556  0.0117
   98MOL0     N13147   4.908   1.915  10.809  0.7363 -0.0919 -0.7177
   98MOL0     C13148   4.550   0.984  11.310 -0.4431 -0.5429  0.0556
   98MOL0     C13149   4.578   0.853  11.283  0.6127  0.2817 -0.5249
   98MOL0     C13150   4.505   0.447  11.098  0.5664  0.4551  0.7267
   98MOL0     C13151   4.391   0.390  11.162 -0.8491  0.2146 -0.9115
   98MOL0     C13152   4.338   0.274  11.119 -0.1866 -0.6335  0.3487
   98MOL0     C13153   4.398   0.201  11.022 -0.3331 -0.7209  0.0342
   98MOL0     O13154   4.323   0.087  10.989  0.1044 -0.5495  0.3139
   98MOL0     C13155   4.403  -0.029  11.006  0.1063  0.3097 -0.8826
   98MOL0     C13156   4.440  -0.062  11.150  0.1659  0.1626 -0.7635
   98MOL0     C13157   4.491  -0.206  11.171  0.0964 -0.0979  0.5262
   98MOL0     C13158   4.386  -0.312  11.167  0.1332  0.6667 -1.2740
   98MOL0     C13159   4.442  -0.437  11.200  0.4162 -0.1218  0.1804
   98MOL0     C13160   4.467  -0.554  11.241  0.1332 -0.8012 -0.0361
   98MOL0     C13161   4.516   0.245  10.961 -0.1771 -0.2426  0.1452
   98MOL0     C13162   4.571   0.371  10.997  0.5753 -0.4648 -0.4722
   98MOL0     H13163   4.266   0.743  11.271 -1.9904  1.0647  1.4741
   98MOL0     H13164   4.219   0.964  11.321 -0.5080  0.0815 -1.6722
   98MOL0     H13165   4.423   1.360  11.372 -0.1404  1.2119 -3.2917
   98MOL0     H13166   4.563   1.254  11.402  0.9113  1.2662 -0.4716
   98MOL0     H13167   4.611   1.235  11.174 -0.0266  0.4461  2.7311
   98MOL0     H13168   4.434   1.252  11.138 -0.3606 -0.1214 -0.9179
   98MOL0     H13169   4.458   1.506  11.154 -0.7260 -0.4058 -0.9634
   98MOL0     H13170   4.626   1.470  11.218  2.0834 -2.1199 -2.1898
   98MOL0     H13171   4.675   1.366  10.995 -0.5860 -2.1887  0.0456
   98MOL0     H13172   4.520   1.431  10.950  0.4740 -3.3683 -0.2720
   98MOL0     H13173   4.755   1.597  11.047  0.2845  1.8492 -1.1234
   98MOL0     H13174   4.690   1.599  10.884 -0.4804  0.6577 -0.4221
   98MOL0     H13175   4.476   1.678  10.962 -0.1429 -0.5945  1.6330
   98MOL0     H13176   4.541   1.702  11.123 -1.2818 -0.3824  0.1166
   98MOL0     H13177   4.560   1.922  11.016 -0.3710  0.3128 -0.6914
   98MOL0     H13178   4.724   1.853  11.035 -0.4664 -0.1808  0.3147
   98MOL0     H13179   4.586   1.903  10.768  0.2292 -0.1532  0.0696
   98MOL0     H13180   4.692   1.766  10.778  0.2216  1.3720 -1.4429
   98MOL0     H13181   4.685   2.158  10.797  0.7769  1.4364 -0.6788
   98MOL0     H13182   4.845   2.323  10.747  1.1189  3.5715 -0.8414
   98MOL0     H13183   5.012   2.303  10.801 -0.1662 -3.1667  0.6395
   98MOL0     H13184   4.962   2.381  10.560  1.2351  0.1251  0.4818
   98MOL0     H13185   4.879   2.230  10.519  0.5286  0.5460  0.6678
   98MOL0     H13186   5.073   2.102  10.540  2.1765 -0.8411 -3.0332
   98MOL0     H13187   5.157   2.230  10.607 -1.1385 -0.8909  0.0953
   98MOL0     H13188   5.022   2.241  10.342  0.2010  0.7156  1.3582
   98MOL0     H13189   5.196   2.187  10.350 -1.2699 -2.0553  0.9490
   98MOL0     H13190   5.076   2.338  10.120  0.7726 -0.5674 -0.8252
   98MOL0     H13191   5.135   2.325   9.908  0.6234  0.1930  0.3197
   98MOL0     H13192   5.062   2.473   9.889 -0.9447 -1.4896 -0.5749
   98MOL0     H13193   5.223   2.439   9.798  0.1715  3.8632  0.2786
   98MOL0     H13194   5.368   2.921   9.930 -1.2160  3.3686  0.2801
   98MOL0     H13195   5.474   3.104   9.824  2.6726  0.3054 -0.3225
   98MOL0     H13196   5.766   2.962   9.536 -1.3009  0.1674  1.1506
   98MOL0     H13197   5.666   3.003   9.398  0.8351 -0.8967 -1.0355
   98MOL0     H13198   5.842   3.214   9.530  3.3528  0.7436 -2.5400
   98MOL0     H13199   5.876   3.125   9.380 -2.2345  1.8508 -2.2391
   98MOL0     H13200   5.687   3.222   9.272 -0.2566  1.2496 -0.9271
   98MOL0     H13201   5.828   3.315   9.314 -0.2227  0.9289  2.2014
   98MOL0     H13202   5.552   3.309   9.435  0.9400 -2.5378  1.1594
   98MOL0     H13203   5.674   3.403   9.524  1.5870  3.0076 -1.2368
   98MOL0     H13204   5.593   3.444   9.228  1.0676  0.1428  0.5926
   98MOL0     H13205   5.737   3.518   9.296 -0.1117  1.4093 -2.4879
   98MOL0     H13206   5.545   3.659   9.290  0.8705  1.0184  1.5018
   98MOL0     H13207   5.454   3.549   9.403 -1.2035  0.5707 -1.7026
   98MOL0     H13208   5.703   3.691   9.486 -0.2331 -1.8117 -2.7940
   98MOL0     H13209   5.586   3.599   9.581  0.3359  0.2761  0.5837
   98MOL0     H13210   5.513   3.808   9.626  2.1012  0.6988 -0.2403
   98MOL0     H13211   5.412   3.773   9.491  0.1281  2.7332  1.4914
   98MOL0     H13212   5.544   2.843   9.479  0.1332 -1.9985  0.6705
   98MOL0     H13213   5.446   2.658   9.601  0.9209 -0.6497  0.5965
   98MOL0     H13214   5.499   2.590  10.205  1.6652 -2.9194 -1.8981
   98MOL0     H13215   5.348   2.534  10.383 -4.3680  0.0907  0.3684
   98MOL0     H13216   4.636   1.050  11.300 -2.0845  1.5243 -1.7072
   98MOL0     H13217   4.680   0.826  11.261 -0.3642 -2.5264 -2.1589
   98MOL0     H13218   4.353   0.447  11.246  0.5981 -0.2605  0.0997
   98MOL0     H13219   4.247   0.237  11.166 -0.9530 -0.8245 -1.2319
   98MOL0     H13220   4.344  -0.115  10.974  1.1764 -1.6676  1.9907
   98MOL0     H13221   4.493  -0.037  10.944  0.6475 -2.6946  0.1311
   98MOL0     H13222   4.348  -0.055  11.210 -0.2679 -0.3638 -1.3580
   98MOL0     H13223   4.515   0.011  11.182  1.0644 -1.0090 -0.1145
   98MOL0     H13224   4.549  -0.217  11.263  0.8141 -1.4362 -0.0482
   98MOL0     H13225   4.566  -0.220  11.092 -0.4620  1.6426 -0.3490
   98MOL0     H13226   4.344  -0.319  11.066  0.9672 -1.5660 -1.5312
   98MOL0     H13227   4.309  -0.287  11.240  0.9434 -0.7740  0.1362
   98MOL0     H13228   4.486  -0.652  11.281 -0.0490 -1.1071 -0.6782
   98MOL0     H13229   4.566   0.194  10.880 -2.4732  0.4138 -1.8026
   98MOL0     H13230   4.646   0.414  10.931  1.5628 -1.8151 -0.2679
   99MOL0     O13231   0.599  11.397   1.724  0.2736 -0.3396  0.1976
   99MOL0     C13232   0.502  11.412   1.653 -0.1119  0.0399 -0.3028
   99MOL0     O13233   0.382  11.342   1.659 -0.3841 -0.5274  0.1894
   99MOL0     C13234   0.353  11.239   1.748  0.0469 -0.0194  0.2310
   99MOL0     C13235   0.450  11.177   1.829 -0.2618 -0.0149  0.1980
   99MOL0     C13236   0.414  11.060   1.898  0.0942  0.2614  0.3108
   99MOL0     C13237   0.290  11.015   1.905  0.0216 -0.5781 -0.4346
   99MOL0     O13238   0.255  10.914   1.993 -0.1097 -0.1987 -0.1494
   99MOL0     C13239   0.311  10.783   1.965 -0.7926 -0.6264  0.5003
   99MOL0     C13240   0.266  10.679   2.068 -1.1383 -0.0299 -0.2121
   99MOL0     C13241   0.326  10.528   2.039  0.0013 -1.2591 -0.6386
   99MOL0     C13242   0.286  10.444   2.155  0.3520  0.8262 -0.0797
   99MOL0     C13243   0.254  10.297   2.104  0.1344  0.0878  0.2104
   99MOL0     C13244   0.371  10.224   2.053  0.3011  0.3459  0.0998
   99MOL0     C13245   0.337  10.111   1.974  0.8615 -0.0132  0.0503
   99MOL0     C13246   0.443  10.010   1.963 -0.4877  0.2095 -0.2829
   99MOL0     N13247   0.417   9.903   1.873 -0.1950  0.1531  0.0383
   99MOL0     C13248   0.519   9.838   1.798  0.3011 -0.2565  1.0116
   99MOL0     C13249   0.466   9.735   1.734  0.1147  0.3993 -0.0130
   99MOL0     C13250   0.524   9.635   1.635 -0.3004  0.1107  0.1382
   99MOL0     C13251   0.436   9.612   1.502 -0.2888  0.2288 -0.1187
   99MOL0     C13252   0.427   9.742   1.412  0.1406  0.0737  0.5595
   99MOL0     C13253   0.565   9.762   1.341  0.8502  1.5079 -0.2581
   99MOL0     O13254   0.582   9.898   1.305 -0.3106 -0.4983  0.1084
   99MOL0     C13255   0.713   9.936   1.276  0.2030 -0.1283 -0.0068
   99MOL0     C13256   0.737  10.073   1.257  0.8562 -0.2868 -0.4285
   99MOL0     C13257   0.859  10.118   1.188 -0.4126 -0.3105  0.1616
   99MOL0     C13258   0.860  10.262   1.142 -0.6425  0.6696 -0.2823
   99MOL0     C13259   0.972  10.038   1.194  1.0250 -0.2139 -0.1824
   99MOL0     C13260   1.117  10.088   1.161 -0.3775 -0.3475 -0.2281
   99MOL0     O13261   1.180   9.976   1.111 -1.2487  0.8499 -0.5043
   99MOL0     C13262   1.315   9.986   1.102  0.2930  0.1493  0.0354
   99MOL0     C13263   1.382  10.024   0.985  0.2453  0.1719 -0.1798
   99MOL0     C13264   1.520  10.036   0.974  0.0907  0.7482  0.5246
   99MOL0     C13265   1.599  10.009   1.086 -0.6285 -0.1096 -0.0117
   99MOL0     O13266   1.740   9.994   1.078 -0.2900  0.1818  0.0811
   99MOL0     C13267   1.822  10.071   0.981  1.0108  0.3213  0.4474
   99MOL0     C13268   1.964  10.050   1.030 -0.6937  0.4791  0.7670
   99MOL0     C13269   2.054  10.138   0.947 -0.3290 -0.7353 -0.0749
   99MOL0     C13270   2.064  10.283   1.014 -0.2315 -0.5155  0.3838
   99MOL0     C13271   2.147  10.387   0.934  1.2119 -0.8896 -0.0577
   99MOL0     C13272   2.104  10.529   0.988 -0.2149 -0.7662 -0.2439
   99MOL0     C13273   2.214  10.633   0.944  0.8157  0.9834  0.4374
   99MOL0     C13274   2.192  10.774   0.980  0.3854 -0.7413  0.3541
   99MOL0    Cl13275   2.085  10.874   0.875  0.0069 -0.0185 -0.2799
   99MOL0     C13276   1.537   9.982   1.207 -0.3705  0.1240 -0.0373
   99MOL0     C13277   1.392   9.968   1.216 -0.0619 -0.2840  0.3467
   99MOL0     O13278   1.166  10.198   1.173 -1.1583  0.5694  0.0962
   99MOL0     C13279   0.950   9.908   1.232 -0.0898  0.0521 -0.9914
   99MOL0     C13280   0.824   9.847   1.250  0.1214 -0.0111  0.2085
   99MOL0     N13281   0.337   9.719   1.788  0.4333 -0.4595  0.2638
   99MOL0     N13282   0.308   9.818   1.867  0.4795 -1.1383  0.3622
   99MOL0     C13283   0.197  11.084   1.828  1.7640 -0.1997  1.2343
   99MOL0     C13284   0.226  11.194   1.747  0.6713  0.5999 -0.6847
   99MOL0     C13285   0.506  11.525   1.553 -0.0684  0.1053  0.1600
   99MOL0     C13286   0.384  11.566   1.502  0.0587  0.1399 -0.0090
   99MOL0     C13287   0.380  11.671   1.415 -0.5458  0.5220 -0.6459
   99MOL0     C13288   0.490  11.742   1.382 -0.4684  0.4095 -0.4493
   99MOL0     O13289   0.496  11.837   1.284 -0.2192 -1.1099 -0.2629
   99MOL0     C13290   0.415  11.808   1.173 -0.3228 -0.1368 -0.2833
   99MOL0     C13291   0.508  11.830   1.047 -0.1871  0.3554 -0.4609
   99MOL0     C13292   0.417  11.884   0.935  0.3593  0.6356 -0.2094
   99MOL0     C13293   0.496  11.889   0.807  0.3251 -0.0989 -0.3836
   99MOL0     C13294   0.423  11.983   0.721  0.2623 -0.1029  0.2869
   99MOL0     C13295   0.355  12.049   0.648 -0.4080 -0.4577  0.6663
   99MOL0     C13296   0.611  11.700   1.428 -0.4960 -0.2347 -0.7378
   99MOL0     C13297   0.627  11.599   1.522 -0.2414 -0.0275 -0.0900
   99MOL0     H13298   0.556  11.203   1.825  0.2356 -1.9597 -0.1269
   99MOL0     H13299   0.493  11.009   1.951  0.7299  2.1307  1.2498
   99MOL0     H13300   0.282  10.751   1.864  1.3990  1.1683 -0.7857
   99MOL0     H13301   0.420  10.795   1.969 -0.3422 -3.9704  2.1209
   99MOL0     H13302   0.305  10.694   2.170 -2.8977 -4.1159  1.2635
   99MOL0     H13303   0.158  10.671   2.061 -1.4804  2.5111  1.1633
   99MOL0     H13304   0.264  10.485   1.959 -0.9711  0.7619 -1.0221
   99MOL0     H13305   0.430  10.544   2.011 -0.4541  2.1885 -0.8115
   99MOL0     H13306   0.361  10.448   2.235 -0.4657 -0.7717  0.7981
   99MOL0     H13307   0.186  10.467   2.193 -1.5005 -3.2776 -1.8740
   99MOL0     H13308   0.212  10.264   2.199  0.9901  3.5777  1.9623
   99MOL0     H13309   0.179  10.291   2.024 -1.3256 -2.9938  1.6600
   99MOL0     H13310   0.445  10.277   1.993 -1.0601  1.0977 -0.9895
   99MOL0     H13311   0.422  10.199   2.147  0.8844  2.4276  0.4003
   99MOL0     H13312   0.247  10.065   2.016  0.4895  0.2457 -0.4392
   99MOL0     H13313   0.313  10.146   1.873  0.4129  1.6187  0.6796
   99MOL0     H13314   0.458   9.968   2.062  1.2889  0.3768 -0.4595
   99MOL0     H13315   0.539  10.057   1.938 -0.2805 -0.6916 -1.2546
   99MOL0     H13316   0.623   9.864   1.781 -0.7175  3.2065 -1.0174
   99MOL0     H13317   0.627   9.661   1.607 -0.2963  1.0974  0.9759
   99MOL0     H13318   0.523   9.543   1.695 -0.9459 -0.9723 -1.4801
   99MOL0     H13319   0.345   9.571   1.546 -0.9922 -1.9419 -3.2818
   99MOL0     H13320   0.468   9.535   1.431  0.9787  0.4300  0.2097
   99MOL0     H13321   0.415   9.838   1.462 -1.9721  0.2903 -0.2538
   99MOL0     H13322   0.345   9.726   1.341 -2.5294  2.2984  2.9029
   99MOL0     H13323   0.574   9.695   1.256  0.4015 -0.4684  1.1872
   99MOL0     H13324   0.634   9.723   1.415  0.1403  0.2077 -0.2616
   99MOL0     H13325   0.658  10.143   1.282  0.2501 -1.2036  0.2611
   99MOL0     H13326   0.922  10.316   1.214 -2.4275  0.1301  1.7788
   99MOL0     H13327   0.901  10.271   1.041 -1.2502 -0.7541 -0.6816
   99MOL0     H13328   0.765  10.317   1.136 -1.4366 -0.5469  0.5894
   99MOL0     H13329   1.328  10.058   0.897 -2.1399  0.2783  1.2463
   99MOL0     H13330   1.570  10.068   0.883  2.1498 -1.9311  0.6108
   99MOL0     H13331   1.818  10.028   0.880  1.0382 -0.7704  0.8926
   99MOL0     H13332   1.784  10.173   0.975 -0.8079 -0.3441 -5.0746
   99MOL0     H13333   1.965  10.091   1.132 -3.5580  1.4089  0.5058
   99MOL0     H13334   2.003   9.948   1.021 -1.3129  0.0644  2.4984
   99MOL0     H13335   2.010  10.151   0.848 -0.9666 -2.3717 -0.0422
   99MOL0     H13336   2.150  10.086   0.941  1.5814  1.6662  4.3986
   99MOL0     H13337   1.962  10.322   1.026 -0.1217 -0.2396  0.4389
   99MOL0     H13338   2.102  10.262   1.115  0.1758  0.4817  0.4539
   99MOL0     H13339   2.129  10.378   0.827 -1.2659 -3.2441  0.4174
   99MOL0     H13340   2.252  10.380   0.963  0.5874 -1.1992  2.3513
   99MOL0     H13341   2.003  10.558   0.956 -0.1978 -0.5601 -0.1127
   99MOL0     H13342   2.105  10.518   1.097  1.3896 -0.9551 -0.2550
   99MOL0     H13343   2.223  10.643   0.835  2.8816  0.5326  0.5112
   99MOL0     H13344   2.315  10.609   0.980  0.6143  0.9526  0.9938
   99MOL0     H13345   2.290  10.820   0.994  2.2739 -4.0414 -1.0424
   99MOL0     H13346   2.132  10.761   1.071 -1.9205 -3.0157 -1.3390
   99MOL0     H13347   1.603   9.974   1.292 -1.5960  2.4641  1.2336
   99MOL0     H13348   1.343   9.951   1.311  0.9759 -3.1897  0.4619
   99MOL0     H13349   1.032   9.839   1.238  0.2634  0.5596  0.3842
   99MOL0     H13350   0.819   9.739   1.245  0.6430 -0.0156 -3.8043
   99MOL0     H13351   0.096  11.052   1.850  2.2780 -1.2233  2.2253
   99MOL0     H13352   0.136  11.235   1.700 -1.9586 -1.5890  2.0479
   99MOL0     H13353   0.288  11.528   1.537 -0.0096  1.0707  0.8681
   99MOL0     H13354   0.283  11.718   1.402 -2.4379 -1.6860  3.3903
   99MOL0     H13355   0.381  11.704   1.173 -0.0161 -0.2420 -0.7249
   99MOL0     H13356   0.317  11.854   1.157 -0.8911 -1.4817 -0.7825
   99MOL0     H13357   0.565  11.739   1.025 -0.8977 -0.1201 -0.4109
   99MOL0     H13358   0.577  11.913   1.059  1.5445 -1.0274 -0.4601
   99MOL0     H13359   0.383  11.984   0.963  2.9951  2.1836 -2.0629
   99MOL0     H13360   0.329  11.821   0.918  1.2849 -0.1611 -2.2545
   99MOL0     H13361   0.498  11.787   0.767 -2.2159 -1.4205  2.4783
   99MOL0     H13362   0.596  11.925   0.828  0.6016 -1.2133  0.2949
   99MOL0     H13363   0.292  12.113   0.590 -0.9505  0.1275  1.8510
   99MOL0     H13364   0.697  11.763   1.406 -0.7827  0.6302  0.4903
   99MOL0     H13365   0.721  11.574   1.571 -0.5595 -0.1662  0.4609
  100MOL0     O13366   2.834  10.176   5.240  0.2321 -0.1205  0.3756
  100MOL0     C13367   2.830  10.122   5.347  0.2249  1.3882  0.6029
  100MOL0     O13368   2.866  10.168   5.467 -0.4535 -0.0093 -0.1624
  100MOL0     C13369   2.890  10.300   5.483 -0.2065 -0.0043  0.3436
  100MOL0     C13370   3.013  10.346   5.473 -1.3663 -0.4815  0.0156
  100MOL0     C13371   3.030  10.485   5.470 -0.8330  0.0073  0.1004
  100MOL0     C13372   2.931  10.573   5.475  0.4609  0.4988 -0.3870
  100MOL0     O13373   2.966  10.703   5.492 -0.1778 -0.2960  0.0078
  100MOL0     C13374   2.872  10.812   5.459 -0.3702 -1.1882 -0.9545
  100MOL0     C13375   2.973  10.926   5.450 -0.0334 -0.6779  0.8183
  100MOL0     C13376   3.048  10.939   5.585 -0.8898 -0.2788  0.2530
  100MOL0     C13377   3.128  11.067   5.592  0.6576 -0.0723 -0.6863
  100MOL0     C13378   3.036  11.195   5.613  0.2503 -0.4892  0.0613
  100MOL0     C13379   3.116  11.323   5.662 -0.0916 -0.1564 -1.0144
  100MOL0     C13380   3.024  11.447   5.679 -0.3392  0.2113 -0.4934
  100MOL0     C13381   2.998  11.522   5.548  0.0858 -0.4065 -0.9410
  100MOL0     N13382   2.940  11.656   5.592  0.8923  0.3989  0.7010
  100MOL0     C13383   2.993  11.777   5.562 -0.2831 -0.3674 -1.0105
  100MOL0     C13384   2.897  11.864   5.590  0.1324  0.5818  0.4876
  100MOL0     C13385   2.895  12.009   5.569 -0.0162 -0.6597 -0.0115
  100MOL0     C13386   2.804  12.065   5.442  0.1111 -0.6040 -0.2705
  100MOL0     C13387   2.895  12.094   5.316 -0.6328  0.2230 -0.8853
  100MOL0     C13388   2.954  11.971   5.244  0.3575  0.1506 -0.3697
  100MOL0     O13389   2.851  11.887   5.199  0.6704 -0.6038  0.0959
  100MOL0     C13390   2.865  11.746   5.197  0.1961  1.2837  0.6117
  100MOL0     C13391   2.750  11.680   5.230 -0.4906 -0.1202 -0.8156
  100MOL0     C13392   2.760  11.543   5.230  0.3467 -0.2478  0.5753
  100MOL0     C13393   2.632  11.458   5.253  0.1734  0.1561  0.4775
  100MOL0     C13394   2.883  11.472   5.202  0.3992 -0.9446 -0.1782
  100MOL0     C13395   2.907  11.328   5.198 -0.0072  0.0510 -0.1235
  100MOL0     O13396   3.006  11.280   5.119  0.1675  0.6718 -0.3640
  100MOL0     C13397   3.021  11.135   5.124  0.2474 -0.4904  0.4829
  100MOL0     C13398   3.146  11.098   5.083  0.2042 -0.5377 -1.0409
  100MOL0     C13399   3.178  10.971   5.073 -0.5238  0.0298  0.4166
  100MOL0     C13400   3.084  10.866   5.080 -0.8516  0.2795 -0.1373
  100MOL0     O13401   3.132  10.734   5.064  0.9669 -0.7220 -0.2038
  100MOL0     C13402   3.056  10.609   5.092  1.2341  0.1741  0.0117
  100MOL0     C13403   3.157  10.517   5.158  0.5981 -0.2401 -0.3031
  100MOL0     C13404   3.281  10.490   5.076  0.9703 -0.3677 -0.9996
  100MOL0     C13405   3.261  10.379   4.975  0.8121  0.4651  0.2880
  100MOL0     C13406   3.390  10.349   4.904  1.3536 -0.4040 -0.4811
  100MOL0     C13407   3.521  10.343   4.977  0.0937  0.5806  0.1099
  100MOL0     C13408   3.531  10.239   5.089 -0.3136  0.9179  0.4002
  100MOL0     C13409   3.677  10.221   5.134  0.2977  0.4203  0.3020
  100MOL0    Cl13410   3.681  10.114   5.283  0.1955  0.2616  0.2528
  100MOL0     C13411   2.951  10.904   5.100 -0.7955 -0.3353 -0.1120
  100MOL0     C13412   2.917  11.034   5.120 -0.0652  0.2269 -0.2402
  100MOL0     O13413   2.839  11.266   5.278  0.5040 -0.8187  0.2025
  100MOL0     C13414   2.998  11.545   5.158 -0.0053 -0.5952 -0.8471
  100MOL0     C13415   2.984  11.689   5.162  0.0984 -0.3795  0.2924
  100MOL0     N13416   2.781  11.798   5.630 -0.4443 -0.2859 -0.3240
  100MOL0     N13417   2.809  11.681   5.630  0.0174 -0.2936 -0.2871
  100MOL0     C13418   2.800  10.519   5.470 -0.0710 -0.5152 -0.9751
  100MOL0     C13419   2.773  10.384   5.473  0.3473 -0.7967 -0.4840
  100MOL0     C13420   2.807   9.972   5.341  0.6339  0.0296  0.6743
  100MOL0     C13421   2.902   9.897   5.273  0.5062  0.2680  0.1928
  100MOL0     C13422   2.903   9.767   5.303  0.1985  0.7098  0.1333
  100MOL0     C13423   2.793   9.691   5.356 -0.7708  0.1037  0.8583
  100MOL0     O13424   2.797   9.553   5.344  0.5188  0.6920  0.3015
  100MOL0     C13425   2.677   9.473   5.328 -0.7378  0.8274  0.5858
  100MOL0     C13426   2.724   9.319   5.323  0.5548 -0.0991  0.6087
  100MOL0     C13427   2.611   9.213   5.357  0.1066  0.6829 -0.2494
  100MOL0     C13428   2.681   9.077   5.408  0.4011  0.2254 -0.1729
  100MOL0     C13429   2.756   9.037   5.292 -0.4362  0.8685 -0.9037
  100MOL0     C13430   2.829   9.005   5.203 -0.6398  0.6006  0.6485
  100MOL0     C13431   2.690   9.768   5.407  0.2270  0.0815 -0.5257
  100MOL0     C13432   2.696   9.911   5.403  0.1182  0.7063  0.3057
  100MOL0     H13433   3.100  10.282   5.481 -1.3340 -0.3202  1.1209
  100MOL0     H13434   3.129  10.529   5.471  0.4157 -2.5142 -1.1086
  100MOL0     H13435   2.816  10.811   5.364 -1.6956  4.5496 -0.5903
  100MOL0     H13436   2.809  10.827   5.547  0.9301 -0.2187 -0.1699
  100MOL0     H13437   3.047  10.908   5.371 -0.5550 -3.6300  0.8741
  100MOL0     H13438   2.927  11.020   5.417 -1.0070 -0.5706  2.3705
  100MOL0     H13439   2.978  10.942   5.669  0.0765 -0.4384  1.0906
  100MOL0     H13440   3.130  10.867   5.589  0.2145  0.7988 -1.3440
  100MOL0     H13441   3.206  11.056   5.667 -0.0036 -1.5512 -0.1703
  100MOL0     H13442   3.171  11.080   5.492 -2.6397 -2.5671 -2.6568
  100MOL0     H13443   2.983  11.210   5.519 -2.4413 -3.1250  0.9756
  100MOL0     H13444   2.960  11.179   5.691  2.4295 -1.6868  2.0914
  100MOL0     H13445   3.174  11.298   5.751 -3.3643  0.1575  1.4120
  100MOL0     H13446   3.180  11.355   5.580 -2.1410  3.5544 -1.3928
  100MOL0     H13447   2.928  11.406   5.713  0.8591 -3.8032 -1.3931
  100MOL0     H13448   3.061  11.518   5.754 -0.3406 -0.2380 -0.0563
  100MOL0     H13449   2.940  11.462   5.477  1.3952 -0.0328 -2.3955
  100MOL0     H13450   3.093  11.547   5.500  0.7101  0.5354  0.7215
  100MOL0     H13451   3.096  11.806   5.543  0.0830 -0.0678  1.1466
  100MOL0     H13452   2.836  12.046   5.653 -0.6318 -2.6744  0.5094
  100MOL0     H13453   2.991  12.061   5.573 -0.7156  0.7747  5.1920
  100MOL0     H13454   2.757  12.161   5.466 -0.0489 -0.8191  0.2786
  100MOL0     H13455   2.728  11.992   5.414  0.8390 -2.1891  1.6743
  100MOL0     H13456   2.976  12.163   5.343 -1.7074  0.8210  0.9827
  100MOL0     H13457   2.843  12.158   5.245 -0.9160  3.3042  1.8773
  100MOL0     H13458   3.014  11.918   5.319  1.2067 -0.9129 -1.7404
  100MOL0     H13459   3.026  11.999   5.167 -1.4055  0.1837 -2.0870
  100MOL0     H13460   2.656  11.731   5.249  1.6019  4.3341 -1.3546
  100MOL0     H13461   2.625  11.432   5.359  2.1467 -0.3251  0.5303
  100MOL0     H13462   2.543  11.508   5.214 -0.2177 -0.9357 -0.0528
  100MOL0     H13463   2.641  11.362   5.201 -0.6009 -0.2834  1.1242
  100MOL0     H13464   3.214  11.182   5.076  2.3171 -2.2278 -1.9943
  100MOL0     H13465   3.277  10.938   5.044 -1.0419 -1.2482  0.0301
  100MOL0     H13466   2.988  10.628   5.175  0.0173 -0.2542 -0.8554
  100MOL0     H13467   3.003  10.569   5.005  0.6430  0.2031  0.3570
  100MOL0     H13468   3.182  10.555   5.257 -1.6883  0.7037 -0.0306
  100MOL0     H13469   3.112  10.420   5.182  0.0651  0.4526  1.6846
  100MOL0     H13470   3.365  10.462   5.140  1.6179 -0.1896 -1.7724
  100MOL0     H13471   3.317  10.579   5.024 -0.0630 -1.3828 -3.5745
  100MOL0     H13472   3.219  10.288   5.019  0.7188  1.5289  2.5303
  100MOL0     H13473   3.190  10.427   4.906 -0.9613 -0.9022  1.0711
  100MOL0     H13474   3.394  10.419   4.820 -4.0412 -1.3585 -1.9308
  100MOL0     H13475   3.367  10.257   4.850 -1.5536  0.0218 -0.1255
  100MOL0     H13476   3.592  10.316   4.898 -0.9674 -0.1115 -0.6394
  100MOL0     H13477   3.545  10.444   5.012 -0.7987  2.2897 -3.6914
  100MOL0     H13478   3.489  10.147   5.047  0.4544  1.1288 -0.8725
  100MOL0     H13479   3.473  10.261   5.179  1.1891  2.4570  1.0520
  100MOL0     H13480   3.722  10.318   5.160 -3.2681  2.6844 -1.1929
  100MOL0     H13481   3.735  10.168   5.058 -0.3192  1.4137 -0.8961
  100MOL0     H13482   2.865  10.838   5.112 -0.2738 -0.8814  0.8055
  100MOL0     H13483   2.813  11.058   5.137 -0.6415 -2.0187 -0.3566
  100MOL0     H13484   3.097  11.507   5.135  0.9145  0.9858  0.2934
  100MOL0     H13485   3.068  11.756   5.148  0.9671 -0.6073  3.5444
  100MOL0     H13486   2.718  10.590   5.473 -0.7375 -1.1422  4.1274
  100MOL0     H13487   2.671  10.348   5.483  0.1576  0.2793  2.8165
  100MOL0     H13488   2.977   9.953   5.219  0.8626 -1.1254 -0.7990
  100MOL0     H13489   2.991   9.719   5.261 -0.5135 -0.7787  0.3007
  100MOL0     H13490   2.611   9.490   5.414 -0.6970 -1.8473  1.2498
  100MOL0     H13491   2.621   9.503   5.239  0.8663  2.6236  0.1358
  100MOL0     H13492   2.802   9.308   5.399 -0.5274 -0.5196  1.6878
  100MOL0     H13493   2.764   9.302   5.222 -2.1685  0.9590 -0.7481
  100MOL0     H13494   2.552   9.185   5.269  2.5775  2.5117 -2.6632
  100MOL0     H13495   2.533   9.241   5.429 -0.7783  4.4842 -2.4099
  100MOL0     H13496   2.614   8.994   5.434  2.8814 -1.9285 -0.2428
  100MOL0     H13497   2.748   9.092   5.493 -1.8723 -0.1549  1.7776
  100MOL0     H13498   2.893   8.968   5.125 -2.6230  0.4985 -1.0124
  100MOL0     H13499   2.606   9.719   5.457 -1.0385  0.6875 -1.9991
  100MOL0     H13500   2.625   9.972   5.458  0.4362  2.5261 -1.2037
  101MOL0     O13501   3.646   8.893  11.483  0.6216 -0.0158 -0.5960
  101MOL0     C13502   3.623   8.980  11.565 -0.5218  1.8167 -0.7463
  101MOL0     O13503   3.660   8.973  11.695 -0.0528  0.4865 -0.0630
  101MOL0     C13504   3.711   8.865  11.758  0.4417 -0.4089  0.0912
  101MOL0     C13505   3.671   8.866  11.893  0.0734  0.1155  0.5391
  101MOL0     C13506   3.705   8.766  11.989 -0.4893 -0.3648  0.6551
  101MOL0     C13507   3.789   8.661  11.945 -0.7908  0.7881  0.4654
  101MOL0     O13508   3.828   8.566  12.030 -0.0669  0.3145  0.3291
  101MOL0     C13509   3.961   8.606  12.080  0.4415  0.6986 -1.0755
  101MOL0     C13510   4.068   8.500  12.077  0.0108  0.5878 -0.1367
  101MOL0     C13511   4.084   8.414  12.208  0.3572 -0.4366  0.2640
  101MOL0     C13512   4.212   8.442  12.279 -0.1014  0.0935  0.1238
  101MOL0     C13513   4.342   8.424  12.198 -0.4911  0.2900  0.8750
  101MOL0     C13514   4.372   8.292  12.131  0.1553  1.0252 -0.1275
  101MOL0     C13515   4.368   8.178  12.228  0.0096  0.2161  0.0434
  101MOL0     C13516   4.486   8.173  12.334  0.1663 -0.3976  0.6956
  101MOL0     N13517   4.451   8.106  12.455  1.3215 -0.4325  0.1408
  101MOL0     C13518   4.379   7.990  12.470 -0.8154 -0.3349  0.6079
  101MOL0     C13519   4.375   7.969  12.600 -0.0680 -0.7130 -1.5604
  101MOL0     C13520   4.324   7.853  12.676  0.6835  1.0393  0.1186
  101MOL0     C13521   4.403   7.725  12.658 -0.5412 -0.6275 -0.2868
  101MOL0     C13522   4.348   7.624  12.758  0.1332  0.2229  0.1297
  101MOL0     C13523   4.426   7.496  12.758  0.0500  0.7276  1.2896
  101MOL0     O13524   4.459   7.475  12.895  0.0610 -0.0299 -0.1793
  101MOL0     C13525   4.504   7.351  12.943  0.2658  0.0907 -0.5604
  101MOL0     C13526   4.522   7.333  13.081  0.9366 -0.4299 -1.4843
  101MOL0     C13527   4.566   7.215  13.135  1.0052 -0.2502 -0.5728
  101MOL0     C13528   4.570   7.214  13.290 -1.1510 -0.2339  1.2719
  101MOL0     C13529   4.590   7.105  13.059  0.2898 -0.6185 -0.7133
  101MOL0     C13530   4.624   6.962  13.108  0.6550  0.3153  0.5981
  101MOL0     O13531   4.611   6.858  13.015  0.0549 -0.7880 -0.1948
  101MOL0     C13532   4.616   6.726  13.051  0.2980 -0.0044 -0.4732
  101MOL0     C13533   4.696   6.637  12.980  0.4944  0.5082  0.0093
  101MOL0     C13534   4.701   6.501  13.005  0.2554  0.1665 -0.1107
  101MOL0     C13535   4.624   6.456  13.108 -0.1169 -0.1714  0.0145
  101MOL0     O13536   4.634   6.320  13.138  0.1967 -0.0028  0.5026
  101MOL0     C13537   4.587   6.257  13.254  1.0372 -0.8885  0.9118
  101MOL0     C13538   4.624   6.107  13.266  0.7373  0.3109  0.8210
  101MOL0     C13539   4.542   6.028  13.158 -0.0184 -0.0433 -0.8310
  101MOL0     C13540   4.543   5.873  13.181 -0.1368 -0.3468  0.3657
  101MOL0     C13541   4.416   5.811  13.095 -0.1987  0.2861 -0.2852
  101MOL0     C13542   4.461   5.757  12.962 -0.5988  0.3819  0.2117
  101MOL0     C13543   4.542   5.629  12.978  0.1400  0.0563  0.9112
  101MOL0     C13544   4.452   5.509  12.989  0.1325  0.3302 -0.1070
  101MOL0    Cl13545   4.421   5.480  13.155  0.2355  0.0130 -0.3062
  101MOL0     C13546   4.556   6.541  13.187  0.0080  0.4733 -0.1762
  101MOL0     C13547   4.539   6.669  13.155  0.3639  0.1720  0.4096
  101MOL0     O13548   4.648   6.940  13.226  0.0964 -0.4132  0.1782
  101MOL0     C13549   4.592   7.122  12.920  0.3923 -0.2792  0.0089
  101MOL0     C13550   4.550   7.250  12.862  0.9543 -0.4704  0.8349
  101MOL0     N13551   4.447   8.068  12.669 -0.3326  0.1689  0.6058
  101MOL0     N13552   4.473   8.155  12.580  0.2163  0.5216  0.4950
  101MOL0     C13553   3.827   8.650  11.812 -0.0068  0.3949 -1.0177
  101MOL0     C13554   3.787   8.750  11.722  0.6795 -0.2360 -0.2818
  101MOL0     C13555   3.540   9.097  11.529 -0.9883 -0.0089 -0.9191
  101MOL0     C13556   3.510   9.203  11.626 -0.2337 -0.4639 -0.7630
  101MOL0     C13557   3.419   9.303  11.592  0.5083  0.1451  0.4543
  101MOL0     C13558   3.350   9.316  11.468  0.1848 -0.3728 -0.2497
  101MOL0     O13559   3.255   9.414  11.454 -0.0794 -0.6259  0.2974
  101MOL0     C13560   3.263   9.499  11.331 -0.2954  0.9931 -0.2266
  101MOL0     C13561   3.191   9.625  11.358  1.0185 -0.9111  0.2553
  101MOL0     C13562   3.203   9.732  11.250 -0.0586  0.4679  0.8154
  101MOL0     C13563   3.181   9.878  11.297  0.4012 -0.2279 -0.6762
  101MOL0     C13564   3.046   9.897  11.362 -0.2044  0.1179 -0.2724
  101MOL0     C13565   2.937   9.910  11.414 -0.1721 -0.2948  0.3047
  101MOL0     C13566   3.372   9.207  11.379  0.3066 -0.3271 -0.3238
  101MOL0     C13567   3.469   9.110  11.406 -0.0692 -0.8748 -1.0395
  101MOL0     H13568   3.595   8.942  11.911 -0.4919 -0.9731  3.3120
  101MOL0     H13569   3.671   8.768  12.092 -2.3636 -1.4255  0.1076
  101MOL0     H13570   4.004   8.698  12.039  0.9937  1.9755  2.0888
  101MOL0     H13571   3.939   8.637  12.182  0.1612 -3.4990  0.3345
  101MOL0     H13572   4.048   8.426  11.998 -0.8734 -0.5330  1.0971
  101MOL0     H13573   4.159   8.541  12.031  0.6189 -2.5589 -2.1203
  101MOL0     H13574   3.999   8.436  12.273 -0.6870 -2.8010 -0.2137
  101MOL0     H13575   4.079   8.309  12.178  2.8837 -0.9137  1.2945
  101MOL0     H13576   4.215   8.538  12.333  1.6635  1.4681 -2.2097
  101MOL0     H13577   4.217   8.363  12.354 -3.5279  0.0730  0.4992
  101MOL0     H13578   4.352   8.492  12.113  0.7277 -3.4778 -2.2753
  101MOL0     H13579   4.421   8.449  12.269 -0.7763  1.2094  0.8862
  101MOL0     H13580   4.301   8.274  12.050  0.7253 -0.7930 -0.2821
  101MOL0     H13581   4.468   8.294  12.079 -0.4071  1.0658 -1.1932
  101MOL0     H13582   4.280   8.169  12.292  1.1680  1.0822  1.8477
  101MOL0     H13583   4.377   8.088  12.168  3.6847  0.5573 -0.1497
  101MOL0     H13584   4.512   8.274  12.367  1.1124  0.2431 -1.7600
  101MOL0     H13585   4.572   8.123  12.288 -0.0250 -1.1964  1.1895
  101MOL0     H13586   4.346   7.922  12.391 -0.3458 -2.1640  1.9303
  101MOL0     H13587   4.335   7.880  12.782 -0.9055  3.3523 -0.2457
  101MOL0     H13588   4.222   7.824  12.647  2.3288 -3.7706 -1.8781
  101MOL0     H13589   4.506   7.750  12.685 -1.5727  2.4793  1.3601
  101MOL0     H13590   4.401   7.681  12.558  0.0799 -0.2724 -0.4568
  101MOL0     H13591   4.243   7.598  12.738 -0.9376  4.6048 -0.9550
  101MOL0     H13592   4.335   7.664  12.859 -1.1359 -0.4114  0.2434
  101MOL0     H13593   4.520   7.503  12.701  1.1830 -4.4118  2.0784
  101MOL0     H13594   4.378   7.410  12.711  1.5296 -0.1646  1.3357
  101MOL0     H13595   4.506   7.425  13.136 -1.7642 -1.8488  0.3032
  101MOL0     H13596   4.496   7.146  13.333 -0.1803 -0.2165  3.0787
  101MOL0     H13597   4.670   7.184  13.323 -0.7485  0.4829  0.7236
  101MOL0     H13598   4.553   7.310  13.341 -1.4256 -0.2169  1.1476
  101MOL0     H13599   4.759   6.687  12.907 -1.6614 -1.8010 -3.7714
  101MOL0     H13600   4.772   6.441  12.949 -1.2643 -2.0668  0.2167
  101MOL0     H13601   4.636   6.309  13.337  0.4595 -1.4173  1.6032
  101MOL0     H13602   4.480   6.282  13.258  1.5590  2.9888 -2.4503
  101MOL0     H13603   4.730   6.087  13.247  0.9192  4.2704 -4.5190
  101MOL0     H13604   4.592   6.068  13.363 -2.5924  0.0105 -0.2888
  101MOL0     H13605   4.575   6.041  13.055 -2.0830 -0.5036 -1.5968
  101MOL0     H13606   4.439   6.066  13.154 -0.0125  0.0881  0.0590
  101MOL0     H13607   4.634   5.834  13.136 -0.0036  3.6238 -3.4903
  101MOL0     H13608   4.521   5.835  13.281 -1.1723 -1.9243 -0.4239
  101MOL0     H13609   4.328   5.874  13.083  0.5828  1.4687  0.0186
  101MOL0     H13610   4.377   5.727  13.154 -1.5772  1.0070 -0.1258
  101MOL0     H13611   4.379   5.732  12.895 -0.2943  0.8911 -0.3641
  101MOL0     H13612   4.515   5.835  12.907  0.2679 -1.8699 -2.2860
  101MOL0     H13613   4.615   5.642  13.058  2.0044  0.0549 -0.7281
  101MOL0     H13614   4.599   5.626  12.885 -1.5543  0.9834 -0.2172
  101MOL0     H13615   4.506   5.424  12.947  1.6852  0.9734  0.5123
  101MOL0     H13616   4.361   5.539  12.936  0.2457 -1.1232 -1.1924
  101MOL0     H13617   4.506   6.495  13.272 -0.2639 -0.3847 -0.7844
  101MOL0     H13618   4.484   6.725  13.230  2.2837  1.4790  0.9206
  101MOL0     H13619   4.632   7.046  12.854  0.8089 -0.1577  0.1216
  101MOL0     H13620   4.560   7.271  12.756  3.6478 -0.6058  0.9919
  101MOL0     H13621   3.889   8.563  11.792  0.2022  0.0096  1.1126
  101MOL0     H13622   3.807   8.745  11.615  0.8362 -1.1378 -0.2267
  101MOL0     H13623   3.554   9.203  11.725  1.7289 -0.9502 -1.5900
  101MOL0     H13624   3.404   9.372  11.674 -0.3420 -0.8939  1.1897
  101MOL0     H13625   3.368   9.529  11.326 -0.0337  0.4591  1.3540
  101MOL0     H13626   3.233   9.447  11.239 -1.5997 -0.7382  1.1070
  101MOL0     H13627   3.252   9.675  11.433  1.4910  0.0112 -0.7093
  101MOL0     H13628   3.085   9.609  11.376  0.3495  2.2997 -0.3647
  101MOL0     H13629   3.121   9.711  11.181 -0.3606  2.2696  0.5846
  101MOL0     H13630   3.301   9.731  11.201 -0.2443 -0.2436  0.4411
  101MOL0     H13631   3.184   9.926  11.199 -1.8455 -0.0262 -0.6977
  101MOL0     H13632   3.265   9.888  11.367  0.2470  1.6773 -0.7086
  101MOL0     H13633   2.844   9.917  11.466  0.3998  0.1458  1.3009
  101MOL0     H13634   3.321   9.199  11.283  0.8193  0.9119 -0.7161
  101MOL0     H13635   3.492   9.045  11.322  0.8991 -0.0551 -1.4320
  102MOL0     O13636   9.580   1.231   0.983 -0.8116 -0.0097 -0.1661
  102MOL0     C13637   9.564   1.243   0.863 -0.0658 -0.7753  0.5462
  102MOL0     O13638   9.561   1.361   0.801 -0.1429 -0.8170 -0.1388
  102MOL0     C13639   9.598   1.482   0.858  0.6259 -0.8948 -0.9622
  102MOL0     C13640   9.542   1.608   0.820  0.4341 -0.2364 -0.2527
  102MOL0     C13641   9.609   1.727   0.847  0.9240 -0.8749 -0.1504
  102MOL0     C13642   9.718   1.737   0.936 -0.1523  0.9785 -0.2806
  102MOL0     O13643   9.779   1.855   0.954 -1.0621 -0.2356  0.0276
  102MOL0     C13644   9.927   1.870   0.942 -0.0830  0.9576  0.1618
  102MOL0     C13645   9.974   2.007   0.884 -0.2112 -0.6417  0.3386
  102MOL0     C13646   9.893   2.019   0.750  0.1982 -0.0815  1.2649
  102MOL0     C13647   9.936   2.130   0.648  0.6462 -0.5361 -1.2705
  102MOL0     C13648   9.902   2.275   0.678  0.4206 -0.2262 -0.1925
  102MOL0     C13649   9.949   2.383   0.574 -0.2975  0.4862  0.4171
  102MOL0     C13650   9.870   2.507   0.614 -0.1061  0.0935 -0.4137
  102MOL0     C13651   9.925   2.634   0.546 -0.4408 -0.2279 -0.0513
  102MOL0     N13652   9.846   2.757   0.556  0.2593  0.3891 -0.6327
  102MOL0     C13653   9.740   2.790   0.469  0.1941  0.0834 -0.0549
  102MOL0     C13654   9.708   2.912   0.507  0.0441 -0.0228 -0.8723
  102MOL0     C13655   9.612   3.005   0.443 -0.3521 -0.4024 -0.3859
  102MOL0     C13656   9.637   3.007   0.284 -0.5264  0.2728  0.1662
  102MOL0     C13657   9.780   3.073   0.246  0.2538  0.7298  0.1537
  102MOL0     C13658   9.804   3.092   0.097 -0.2117  0.4846  0.6837
  102MOL0     O13659   9.711   3.183   0.040  0.2100  0.1030  0.1845
  102MOL0     C13660   9.726   3.198  -0.089  0.0475 -0.6310  0.4255
  102MOL0     C13661   9.798   3.306  -0.129  0.3204 -0.2609  0.5726
  102MOL0     C13662   9.812   3.335  -0.267  0.5299  0.4979  0.2731
  102MOL0     C13663   9.900   3.456  -0.296  0.7517 -0.5376  0.9545
  102MOL0     C13664   9.735   3.265  -0.359  0.2131  0.8706 -0.5872
  102MOL0     C13665   9.741   3.286  -0.510  0.0319  0.4675 -0.4583
  102MOL0     O13666   9.857   3.338  -0.569  0.2261  0.8257  0.1328
  102MOL0     C13667   9.877   3.344  -0.703 -0.2558  0.4532  0.6496
  102MOL0     C13668   9.981   3.421  -0.760  0.7898  0.0844 -0.2690
  102MOL0     C13669  10.017   3.413  -0.897 -0.7403  0.1601  0.7950
  102MOL0     C13670   9.936   3.343  -0.987 -0.4060 -0.1228  0.3850
  102MOL0     O13671   9.967   3.343  -1.126  0.2947 -1.2198 -0.1471
  102MOL0     C13672   9.865   3.320  -1.229 -1.1389  0.1764 -0.1385
  102MOL0     C13673   9.927   3.277  -1.363  0.7629 -0.0009  0.2636
  102MOL0     C13674  10.006   3.150  -1.340  0.1544  0.0631  0.0125
  102MOL0     C13675  10.064   3.096  -1.462 -0.1667  0.5347  1.2383
  102MOL0     C13676  10.178   3.000  -1.422 -0.7854  1.0739  0.5239
  102MOL0     C13677  10.116   2.901  -1.311  0.4036  0.7870  0.4708
  102MOL0     C13678  10.209   2.778  -1.302  0.3508 -0.5640 -0.2905
  102MOL0     C13679  10.175   2.707  -1.175 -0.5394  1.0223 -0.5678
  102MOL0    Cl13680  10.269   2.556  -1.157  0.3750 -0.4664  0.0277
  102MOL0     C13681   9.851   3.254  -0.932  1.0470  0.1658  1.3941
  102MOL0     C13682   9.821   3.249  -0.797 -0.7224 -0.2868 -0.5480
  102MOL0     O13683   9.630   3.265  -0.567  0.2066  0.1527 -0.4564
  102MOL0     C13684   9.656   3.160  -0.315  0.0155  0.3860  0.0460
  102MOL0     C13685   9.659   3.122  -0.179  0.4973  0.2427 -0.0864
  102MOL0     N13686   9.797   2.957   0.614  0.4580 -0.4235  0.0871
  102MOL0     N13687   9.876   2.865   0.646  0.4206 -0.5995  0.6897
  102MOL0     C13688   9.754   1.611   0.994  1.0177 -1.3341  0.1055
  102MOL0     C13689   9.707   1.487   0.955  0.2682  0.2577 -0.6676
  102MOL0     C13690   9.520   1.124   0.780 -0.0817  0.1351 -0.5257
  102MOL0     C13691   9.496   1.001   0.840 -0.2423  1.0436  0.4124
  102MOL0     C13692   9.454   0.887   0.767 -0.7513 -0.3285  0.1020
  102MOL0     C13693   9.446   0.903   0.633 -0.4778 -0.1395 -0.1792
  102MOL0     O13694   9.402   0.787   0.565  0.8547 -0.0584 -0.2619
  102MOL0     C13695   9.364   0.811   0.432  0.7273  0.9783  0.8829
  102MOL0     C13696   9.254   0.706   0.411  0.4677 -0.5794 -0.1328
  102MOL0     C13697   9.195   0.699   0.279 -0.1520 -0.2930  0.8125
  102MOL0     C13698   9.301   0.704   0.167  0.3695 -0.3890 -0.1990
  102MOL0     C13699   9.231   0.664   0.048  1.0480 -0.0923  0.2522
  102MOL0     C13700   9.181   0.624  -0.062 -0.8140 -0.9107 -0.1440
  102MOL0     C13701   9.476   1.024   0.573  0.7247 -0.0522  0.1236
  102MOL0     C13702   9.516   1.134   0.645  0.5130  0.3394 -0.6526
  102MOL0     H13703   9.455   1.608   0.754  0.5313  5.1121 -0.7917
  102MOL0     H13704   9.562   1.814   0.802 -0.7024 -1.9561 -0.6231
  102MOL0     H13705   9.958   1.859   1.047 -1.1853 -1.0096  0.3368
  102MOL0     H13706   9.964   1.790   0.877 -0.4052  2.2582 -1.6792
  102MOL0     H13707   9.939   2.090   0.946 -0.3567  0.6498 -1.3940
  102MOL0     H13708  10.080   2.025   0.865 -0.8734  4.1537 -0.0380
  102MOL0     H13709   9.906   1.929   0.689 -2.0323  0.9946 -1.0409
  102MOL0     H13710   9.787   2.038   0.770  0.5615  1.3296  2.0021
  102MOL0     H13711  10.042   2.114   0.630  0.1386 -2.2289 -3.0518
  102MOL0     H13712   9.878   2.107   0.558 -0.0807  2.6599 -1.7723
  102MOL0     H13713   9.797   2.296   0.699  0.5124  1.0431 -0.9432
  102MOL0     H13714   9.946   2.308   0.772  0.7854  2.4950 -1.2237
  102MOL0     H13715  10.057   2.394   0.568  0.1796 -3.4342 -1.8068
  102MOL0     H13716   9.913   2.346   0.477 -0.3551 -1.1066  1.0039
  102MOL0     H13717   9.770   2.490   0.572  0.4483 -0.2498 -1.6487
  102MOL0     H13718   9.863   2.521   0.722  2.7190 -0.3932 -0.0961
  102MOL0     H13719   9.932   2.607   0.441 -0.8515  0.4315 -0.2594
  102MOL0     H13720  10.027   2.658   0.577  0.2133  0.2471 -2.3785
  102MOL0     H13721   9.688   2.722   0.401 -1.4182 -0.9569  2.1096
  102MOL0     H13722   9.509   2.970   0.450 -1.4164  1.9763 -2.5704
  102MOL0     H13723   9.629   3.106   0.481  2.3982 -1.2318  0.8777
  102MOL0     H13724   9.560   3.066   0.234  0.3561  2.4434  1.2617
  102MOL0     H13725   9.629   2.909   0.235  1.3271  0.7875 -1.2672
  102MOL0     H13726   9.857   3.000   0.273 -3.1330 -3.1169  0.4742
  102MOL0     H13727   9.784   3.172   0.292 -3.4701  0.0047  2.5462
  102MOL0     H13728   9.799   2.996   0.046  0.7434  0.9475 -0.3288
  102MOL0     H13729   9.906   3.127   0.079  0.5691 -2.4656 -1.3839
  102MOL0     H13730   9.828   3.386  -0.062  1.0085  1.4433 -1.6249
  102MOL0     H13731   9.924   3.516  -0.207 -1.0498  3.3697 -0.9660
  102MOL0     H13732   9.994   3.433  -0.346 -0.1045  0.0203 -0.9817
  102MOL0     H13733   9.840   3.522  -0.359 -0.0862 -4.0396 -2.2783
  102MOL0     H13734  10.042   3.480  -0.692  0.4910 -1.6448  1.6091
  102MOL0     H13735  10.110   3.460  -0.927 -0.3915 -0.0739  1.4952
  102MOL0     H13736   9.784   3.255  -1.192 -2.4712  0.9790 -1.5296
  102MOL0     H13737   9.823   3.418  -1.252  0.9103  0.4820 -3.1164
  102MOL0     H13738   9.844   3.257  -1.431  1.5983  3.4839 -2.0384
  102MOL0     H13739   9.985   3.348  -1.422 -0.4640  1.1979  0.4502
  102MOL0     H13740   9.934   3.084  -1.291  0.1090 -1.4379 -1.9542
  102MOL0     H13741  10.087   3.174  -1.271 -1.2980 -2.6523  2.8783
  102MOL0     H13742   9.987   3.041  -1.517  0.5392 -0.6158  1.3631
  102MOL0     H13743  10.121   3.161  -1.529  2.3711 -3.3610 -0.7694
  102MOL0     H13744  10.265   3.056  -1.388  1.2768 -2.0847  0.8758
  102MOL0     H13745  10.216   2.946  -1.510  0.6096  0.3130  1.5494
  102MOL0     H13746  10.101   2.955  -1.217  3.5209  0.5277  1.2139
  102MOL0     H13747  10.027   2.854  -1.354  2.0977 -2.0671 -0.2115
  102MOL0     H13748  10.312   2.813  -1.294  1.4206 -3.6710  0.6559
  102MOL0     H13749  10.210   2.712  -1.389  0.9483 -1.6618  0.5337
  102MOL0     H13750  10.069   2.680  -1.182 -0.3604  0.2570 -0.4461
  102MOL0     H13751  10.196   2.773  -1.091  0.6983 -1.2912  1.0435
  102MOL0     H13752   9.790   3.189  -0.994  4.3032 -0.6943 -1.1845
  102MOL0     H13753   9.743   3.178  -0.772 -1.2219  0.5283  0.2861
  102MOL0     H13754   9.600   3.112  -0.395  2.2833  0.0773 -1.4386
  102MOL0     H13755   9.596   3.046  -0.135  1.0714 -1.1445 -1.5415
  102MOL0     H13756   9.834   1.610   1.067  1.3224 -2.6377 -0.2314
  102MOL0     H13757   9.743   1.394   0.999  0.3139  0.7518  0.3751
  102MOL0     H13758   9.515   0.996   0.946  0.8498  0.2729  0.2020
  102MOL0     H13759   9.430   0.795   0.820  0.6275 -2.4117 -2.6410
  102MOL0     H13760   9.317   0.909   0.417  0.6896  0.6867 -1.2133
  102MOL0     H13761   9.447   0.791   0.363 -0.9260 -0.2753 -0.8754
  102MOL0     H13762   9.171   0.733   0.477  0.8723  0.8932 -0.1986
  102MOL0     H13763   9.303   0.615   0.449 -0.1848  0.1922  2.8003
  102MOL0     H13764   9.120   0.777   0.268 -1.7181 -1.9815 -1.1037
  102MOL0     H13765   9.136   0.607   0.280  1.2061 -1.3098 -2.1532
  102MOL0     H13766   9.384   0.637   0.192 -0.3407  0.0736  4.2911
  102MOL0     H13767   9.337   0.807   0.168 -2.5778  0.7453  1.4692
  102MOL0     H13768   9.131   0.592  -0.151 -0.0361  1.7225 -1.6524
  102MOL0     H13769   9.473   1.028   0.465 -1.8430 -2.2255  0.0126
  102MOL0     H13770   9.535   1.231   0.601 -3.0083 -0.1968 -3.8045
  103MOL0     O13771   7.878  10.879   7.159 -0.5186  0.4551 -0.6394
  103MOL0     C13772   7.969  10.805   7.196 -0.5489 -0.0425  0.8658
  103MOL0     O13773   8.067  10.761   7.113 -0.0280 -0.0242  0.0919
  103MOL0     C13774   8.089  10.807   6.984 -0.3564 -1.1282  0.0803
  103MOL0     C13775   8.052  10.935   6.930  0.6537  0.7823 -0.5408
  103MOL0     C13776   8.105  10.972   6.806  0.0072  0.4056 -0.9899
  103MOL0     C13777   8.192  10.895   6.734 -1.2806 -0.4351  0.2142
  103MOL0     O13778   8.236  10.952   6.619  0.3754 -0.5980  0.8287
  103MOL0     C13779   8.352  10.898   6.562  0.0502  0.5507 -0.6576
  103MOL0     C13780   8.383  10.970   6.432  0.3289 -0.1067  0.3560
  103MOL0     C13781   8.495  10.897   6.355  0.1773  0.5529 -1.2771
  103MOL0     C13782   8.539  10.985   6.233  0.1841 -1.0566 -0.3995
  103MOL0     C13783   8.658  10.915   6.160  0.4987  0.1235 -1.0519
  103MOL0     C13784   8.710  11.014   6.052  0.9674 -0.3822 -0.6937
  103MOL0     C13785   8.828  10.954   5.979  0.3303  0.0895  0.1201
  103MOL0     C13786   8.789  10.855   5.869  0.0481  0.0361  0.3929
  103MOL0     N13787   8.739  10.926   5.747  0.3032 -0.1964 -0.5316
  103MOL0     C13788   8.645  10.882   5.659  0.0942  0.1703  0.2492
  103MOL0     C13789   8.621  10.985   5.573 -0.0170  0.1388 -0.8932
  103MOL0     C13790   8.520  10.965   5.458 -0.3194 -0.1370  0.3705
  103MOL0     C13791   8.512  11.075   5.351  0.0269 -0.7734  0.6730
  103MOL0     C13792   8.619  11.068   5.236 -0.3312  0.3297 -0.1739
  103MOL0     C13793   8.754  11.127   5.286  0.9619 -0.4278 -0.0313
  103MOL0     O13794   8.854  11.123   5.184  0.3546 -0.4588  0.3918
  103MOL0     C13795   8.912  11.010   5.136 -0.7183  0.7692 -0.2999
  103MOL0     C13796   8.928  10.892   5.219  0.2401 -0.3429  0.0131
  103MOL0     C13797   9.001  10.776   5.175 -0.0262 -0.2514 -1.0011
  103MOL0     C13798   9.000  10.663   5.278 -0.2375  0.3149  0.8948
  103MOL0     C13799   9.088  10.786   5.061 -0.6552 -0.3661 -0.3665
  103MOL0     C13800   9.184  10.675   5.019 -0.5296  0.0719  0.9875
  103MOL0     O13801   9.242  10.700   4.903 -0.7506  0.9513  0.4958
  103MOL0     C13802   9.315  10.608   4.830 -0.3502  0.1753  0.7215
  103MOL0     C13803   9.280  10.476   4.800  0.7250  1.0149 -0.0596
  103MOL0     C13804   9.364  10.391   4.725  0.2339 -0.3150 -0.1575
  103MOL0     C13805   9.497  10.436   4.681 -0.1189  0.1027  0.5068
  103MOL0     O13806   9.562  10.344   4.604 -0.3355  0.1563 -0.0294
  103MOL0     C13807   9.670  10.394   4.530 -0.3695 -0.7065  0.2687
  103MOL0     C13808   9.702  10.294   4.420  0.0162 -0.5117  0.9876
  103MOL0     C13809   9.575  10.291   4.319  0.0333  0.0309 -0.2831
  103MOL0     C13810   9.600  10.221   4.180  0.2105  0.8056 -0.8891
  103MOL0     C13811   9.568  10.066   4.195 -0.0351 -0.8124 -1.1897
  103MOL0     C13812   9.536  10.011   4.059 -0.2461 -0.6643 -0.3499
  103MOL0     C13813   9.520   9.856   4.068  0.3598 -0.4133 -0.5211
  103MOL0     C13814   9.455   9.808   3.944 -0.5342 -0.6991  0.2246
  103MOL0    Cl13815   9.379   9.653   3.994  0.1980  0.1293  0.0455
  103MOL0     C13816   9.522  10.573   4.708 -0.0260 -0.2641  0.7688
  103MOL0     C13817   9.442  10.653   4.784  1.1770  0.2305  0.1895
  103MOL0     O13818   9.216  10.585   5.092 -0.0805  0.6111 -0.5264
  103MOL0     C13819   9.076  10.907   4.988  0.2035 -0.5287  0.3899
  103MOL0     C13820   8.989  11.014   5.017  0.3486 -0.3765  0.5393
  103MOL0     N13821   8.699  11.092   5.611  0.3067 -0.1766  0.2238
  103MOL0     N13822   8.774  11.055   5.712 -0.4501 -0.0299  0.0324
  103MOL0     C13823   8.238  10.775   6.796 -0.4704  0.0687  0.0235
  103MOL0     C13824   8.190  10.728   6.921  0.3288  0.5987  0.2041
  103MOL0     C13825   7.968  10.760   7.335 -0.1329  0.7094  0.3088
  103MOL0     C13826   7.899  10.833   7.427  0.2784  0.0210  1.1712
  103MOL0     C13827   7.899  10.795   7.567 -1.0284  0.0858  0.0423
  103MOL0     C13828   7.947  10.673   7.608 -0.5639 -0.0111 -0.2798
  103MOL0     O13829   7.945  10.618   7.731 -0.0540  0.1791 -0.1345
  103MOL0     C13830   7.842  10.527   7.751  0.5538 -0.4093  0.6312
  103MOL0     C13831   7.734  10.571   7.853  0.6502 -0.2796 -0.6820
  103MOL0     C13832   7.630  10.460   7.889 -0.1284 -0.2690  0.5350
  103MOL0     C13833   7.516  10.510   7.977  0.7771 -0.4199  0.2494
  103MOL0     C13834   7.393  10.438   7.947  0.9311 -0.0505  1.3279
  103MOL0     C13835   7.292  10.377   7.910 -0.1479 -0.0293 -0.3060
  103MOL0     C13836   8.030  10.594   7.516 -0.2384 -0.2621  0.2348
  103MOL0     C13837   8.041  10.644   7.379 -0.9118 -0.1764 -0.4551
  103MOL0     H13838   7.980  11.003   6.975 -1.5121 -1.1362 -0.9236
  103MOL0     H13839   8.070  11.064   6.761 -2.1438 -0.5141 -1.3500
  103MOL0     H13840   8.433  10.924   6.630  1.8493 -1.3674 -1.9385
  103MOL0     H13841   8.341  10.790   6.543 -1.2937  0.8337 -1.6189
  103MOL0     H13842   8.291  10.979   6.375  0.2691 -0.2948  0.4217
  103MOL0     H13843   8.413  11.070   6.463 -1.2985  1.4155 -2.5924
  103MOL0     H13844   8.581  10.872   6.418  0.3294  0.3767 -1.5532
  103MOL0     H13845   8.460  10.802   6.312 -2.1395  0.5987  0.3395
  103MOL0     H13846   8.452  10.993   6.168 -0.9880 -1.4646  1.0697
  103MOL0     H13847   8.579  11.084   6.260 -1.1195 -0.6787  0.2364
  103MOL0     H13848   8.738  10.886   6.228 -1.8760  0.2686  2.0419
  103MOL0     H13849   8.615  10.831   6.104 -1.3495  0.8781 -0.8283
  103MOL0     H13850   8.631  11.035   5.980  1.3320  1.4170 -0.6177
  103MOL0     H13851   8.739  11.105   6.106 -1.1109 -2.5910  4.9452
  103MOL0     H13852   8.886  11.041   5.946 -2.0971  2.7708  2.3456
  103MOL0     H13853   8.887  10.905   6.057  1.2613 -0.1737 -0.7344
  103MOL0     H13854   8.715  10.788   5.914 -0.1247 -0.3371 -0.4199
  103MOL0     H13855   8.878  10.797   5.840 -2.0000 -2.8860 -0.5083
  103MOL0     H13856   8.614  10.778   5.652 -2.4092  0.8884 -0.4534
  103MOL0     H13857   8.528  10.870   5.406  3.8043  1.5902 -2.7061
  103MOL0     H13858   8.425  10.958   5.513  1.1537  0.3564  3.1543
  103MOL0     H13859   8.525  11.169   5.406  1.6342 -0.9367  0.6417
  103MOL0     H13860   8.412  11.084   5.310  0.8868  0.6575 -1.2513
  103MOL0     H13861   8.580  11.125   5.151 -2.4107 -1.8263 -0.7648
  103MOL0     H13862   8.632  10.964   5.207 -3.9908 -0.3380  0.1615
  103MOL0     H13863   8.776  11.067   5.375 -2.9839 -0.6824  0.9649
  103MOL0     H13864   8.750  11.233   5.312  1.5200 -0.9170  2.2190
  103MOL0     H13865   8.874  10.882   5.312  3.4622 -2.6814  1.8200
  103MOL0     H13866   8.967  10.569   5.234  1.5028 -1.3927  3.0090
  103MOL0     H13867   9.106  10.657   5.302 -0.4631  1.0806  2.1673
  103MOL0     H13868   8.959  10.670   5.379  2.5701 -0.3877  2.1823
  103MOL0     H13869   9.185  10.447   4.843  0.2913  2.8512  0.3073
  103MOL0     H13870   9.336  10.291   4.694  1.1326 -0.0987 -1.7830
  103MOL0     H13871   9.642  10.493   4.493  2.4273  0.0918  0.0766
  103MOL0     H13872   9.758  10.411   4.592 -0.8828 -1.5208  1.2509
  103MOL0     H13873   9.797  10.312   4.370 -0.9384  1.0298 -0.3501
  103MOL0     H13874   9.728  10.197   4.465  0.0421 -1.0317 -0.1258
  103MOL0     H13875   9.549  10.396   4.303 -0.2517  0.4306  2.3367
  103MOL0     H13876   9.495  10.238   4.371  0.5754  0.8160  1.4233
  103MOL0     H13877   9.544  10.262   4.096  1.9809 -0.4424 -2.7678
  103MOL0     H13878   9.707  10.223   4.160  0.2014  0.7669 -0.9358
  103MOL0     H13879   9.484  10.036   4.258 -0.1954  1.0846 -0.4387
  103MOL0     H13880   9.660  10.016   4.225  0.5088  0.6581 -0.3087
  103MOL0     H13881   9.442  10.062   4.035  1.0278  1.4637 -1.0409
  103MOL0     H13882   9.604  10.043   3.980 -0.1667  3.0785  1.0431
  103MOL0     H13883   9.447   9.838   4.148  1.1024  1.9492  0.7606
  103MOL0     H13884   9.608   9.797   4.095 -0.3371 -0.9520  0.6576
  103MOL0     H13885   9.515   9.808   3.853 -1.5736 -0.7403 -0.4874
  103MOL0     H13886   9.374   9.876   3.916  1.9881  2.7496  0.6463
  103MOL0     H13887   9.621  10.610   4.686  0.4323 -0.4392  2.4182
  103MOL0     H13888   9.452  10.756   4.817 -0.3205  0.2226  0.7770
  103MOL0     H13889   9.139  10.907   4.899 -2.4557 -2.3351 -1.6762
  103MOL0     H13890   8.993  11.106   4.959 -2.4435 -0.1757  0.5179
  103MOL0     H13891   8.294  10.696   6.747 -1.9060 -1.5313  0.7958
  103MOL0     H13892   8.217  10.641   6.980  1.5371  0.1160 -0.9924
  103MOL0     H13893   7.844  10.925   7.409 -1.5916 -1.2012  0.3280
  103MOL0     H13894   7.841  10.849   7.640 -1.4069  1.1925 -1.0419
  103MOL0     H13895   7.788  10.490   7.664  0.3049 -0.6417  0.8826
  103MOL0     H13896   7.886  10.434   7.785 -1.7903 -1.8886 -0.1211
  103MOL0     H13897   7.694  10.664   7.812  2.1635  0.5185 -0.3750
  103MOL0     H13898   7.781  10.606   7.945  0.0997 -2.0372  0.3286
  103MOL0     H13899   7.688  10.396   7.956  0.6410  0.1553  0.2915
  103MOL0     H13900   7.603  10.391   7.808 -2.3121  1.8026 -0.6407
  103MOL0     H13901   7.480  10.608   7.944 -0.8523 -1.2797 -0.6575
  103MOL0     H13902   7.531  10.506   8.086 -1.7317  0.8893  0.7209
  103MOL0     H13903   7.210  10.332   7.858 -2.1417  4.1015 -1.1781
  103MOL0     H13904   8.096  10.512   7.540  1.2916 -0.2998 -3.4191
  103MOL0     H13905   8.098  10.578   7.314 -2.3690 -0.8497 -1.0903
  104MOL0     O13906   3.148   1.422   8.513 -0.4966  0.3563 -0.0571
  104MOL0     C13907   3.165   1.386   8.392 -0.0207  1.4418 -1.7020
  104MOL0     O13908   3.288   1.368   8.330  0.0996 -0.2496  0.4763
  104MOL0     C13909   3.408   1.368   8.395 -0.6409 -0.5155 -0.1337
  104MOL0     C13910   3.527   1.354   8.317 -0.6391  0.1251 -0.0977
  104MOL0     C13911   3.651   1.372   8.374 -0.0029 -0.6699  0.3899
  104MOL0     C13912   3.672   1.385   8.514 -0.5670  0.8403  0.8247
  104MOL0     O13913   3.790   1.378   8.579  0.4881 -0.5757 -0.4291
  104MOL0     C13914   3.911   1.332   8.519 -0.3980 -0.0845  0.0785
  104MOL0     C13915   3.930   1.176   8.518  0.3148  0.4580 -0.0223
  104MOL0     C13916   3.839   1.109   8.414  0.2251 -0.4662 -0.0574
  104MOL0     C13917   3.861   0.957   8.421  0.3821  0.4855  0.2777
  104MOL0     C13918   3.821   0.874   8.542  0.6163 -0.3258  0.6751
  104MOL0     C13919   3.672   0.909   8.584 -0.2120  0.7774 -0.0041
  104MOL0     C13920   3.644   0.872   8.736  0.3311 -0.0244  0.3424
  104MOL0     C13921   3.699   0.998   8.819  0.2709 -0.1451 -0.1289
  104MOL0     N13922   3.608   1.104   8.857 -0.5946 -0.2443  0.1529
  104MOL0     C13923   3.645   1.216   8.922  0.3695  0.2286  0.8845
  104MOL0     C13924   3.526   1.275   8.949 -0.4877  0.5477  0.1620
  104MOL0     C13925   3.500   1.385   9.051  1.6343  0.2774  1.0078
  104MOL0     C13926   3.386   1.493   9.007  0.0297 -1.0772  0.9561
  104MOL0     C13927   3.316   1.557   9.128 -0.2862  0.1832  0.0724
  104MOL0     C13928   3.195   1.646   9.089  0.5807 -0.6937  0.5596
  104MOL0     O13929   3.093   1.567   9.010  0.0297 -0.0464 -0.6422
  104MOL0     C13930   2.999   1.647   8.944  0.3955 -0.1878 -0.5165
  104MOL0     C13931   2.941   1.588   8.834  0.1816  0.2500  0.5536
  104MOL0     C13932   2.839   1.656   8.752 -0.0178 -0.5646 -0.8323
  104MOL0     C13933   2.769   1.568   8.651  0.4764 -0.2078 -0.1230
  104MOL0     C13934   2.803   1.790   8.789  0.4182  0.7492  1.3532
  104MOL0     C13935   2.704   1.874   8.707  0.8260 -0.0654  0.1605
  104MOL0     O13936   2.640   1.816   8.597  0.5617  0.2002 -0.3149
  104MOL0     C13937   2.564   1.885   8.509  0.0184  0.5322 -0.0791
  104MOL0     C13938   2.472   1.986   8.529 -0.5548  0.8999  0.0528
  104MOL0     C13939   2.399   2.048   8.424  0.8415 -0.3758  0.3690
  104MOL0     C13940   2.417   2.002   8.290 -0.0993 -0.3643 -0.1026
  104MOL0     O13941   2.351   2.053   8.179 -0.3023 -0.5188 -0.5367
  104MOL0     C13942   2.210   2.074   8.188 -0.5485 -0.0321  0.3705
  104MOL0     C13943   2.186   2.223   8.216  0.2534  1.0094 -0.0093
  104MOL0     C13944   2.036   2.240   8.205  0.4323  0.0316 -0.2971
  104MOL0     C13945   2.001   2.389   8.213 -0.9363 -0.6454  0.1955
  104MOL0     C13946   1.853   2.432   8.207 -0.2585  0.4251  0.7204
  104MOL0     C13947   1.834   2.582   8.214 -0.3500  0.9980 -0.1126
  104MOL0     C13948   1.691   2.609   8.161  0.0715  0.2335  0.6485
  104MOL0     C13949   1.635   2.748   8.158 -0.1275 -0.5489 -0.1212
  104MOL0    Cl13950   1.703   2.823   8.005 -0.0083 -0.4125  0.2738
  104MOL0     C13951   2.509   1.901   8.264  0.2365  0.0469  0.6578
  104MOL0     C13952   2.576   1.842   8.377  0.2808  0.0427 -0.2570
  104MOL0     O13953   2.691   1.990   8.745  0.2942  0.8166 -0.3640
  104MOL0     C13954   2.862   1.843   8.905 -0.1475  0.3277 -0.5888
  104MOL0     C13955   2.962   1.777   8.975  0.1784  0.2411 -0.2410
  104MOL0     N13956   3.426   1.206   8.894  0.5558  0.6387  0.1068
  104MOL0     N13957   3.471   1.107   8.825  0.1606  0.6984 -0.0531
  104MOL0     C13958   3.555   1.392   8.593  1.2681  0.1286 -0.0181
  104MOL0     C13959   3.431   1.387   8.543  0.0843  0.3306  0.9363
  104MOL0     C13960   3.037   1.374   8.321  0.0284 -0.0575 -0.4745
  104MOL0     C13961   3.035   1.354   8.179 -1.0753  0.1793 -1.0433
  104MOL0     C13962   2.917   1.375   8.099  1.1018 -0.0303 -0.5524
  104MOL0     C13963   2.795   1.404   8.165 -0.0215 -0.8256  0.1143
  104MOL0     O13964   2.694   1.440   8.082 -0.6924 -0.0443 -0.1785
  104MOL0     C13965   2.567   1.478   8.130 -0.4584 -0.6262  0.2255
  104MOL0     C13966   2.476   1.486   8.011 -0.4767  0.1523 -0.2709
  104MOL0     C13967   2.327   1.482   8.037 -0.2984 -0.3448 -0.5768
  104MOL0     C13968   2.230   1.503   7.923 -0.4221 -1.0275  0.6571
  104MOL0     C13969   2.234   1.638   7.876  0.3826  0.5121  1.1946
  104MOL0     C13970   2.249   1.744   7.829  0.2725 -0.0015 -0.2857
  104MOL0     C13971   2.795   1.414   8.302  0.0676 -0.0511 -0.5841
  104MOL0     C13972   2.910   1.388   8.384 -0.4364  0.1922 -0.3554
  104MOL0     H13973   3.527   1.347   8.209  0.9447  2.5369 -0.3410
  104MOL0     H13974   3.733   1.372   8.303  1.0406 -2.2669  1.5161
  104MOL0     H13975   3.919   1.369   8.416 -1.4858  0.1968  0.0797
  104MOL0     H13976   3.996   1.371   8.574 -0.2150  0.1867 -0.3936
  104MOL0     H13977   4.031   1.141   8.497 -0.7261 -2.9358 -0.0458
  104MOL0     H13978   3.897   1.149   8.620  1.7710 -0.5515  0.2109
  104MOL0     H13979   3.732   1.130   8.427 -0.0258 -1.9298  0.3600
  104MOL0     H13980   3.873   1.139   8.315 -1.8414  0.1474 -0.6254
  104MOL0     H13981   3.803   0.918   8.337  1.8840 -1.3250  0.0205
  104MOL0     H13982   3.969   0.950   8.406  0.2841 -1.7319  0.3190
  104MOL0     H13983   3.843   0.771   8.510  1.1480 -1.1131  3.3666
  104MOL0     H13984   3.891   0.886   8.625 -1.5512 -2.2013  2.9080
  104MOL0     H13985   3.642   1.013   8.568 -0.5802  0.5006 -1.2098
  104MOL0     H13986   3.605   0.850   8.522  2.4823 -0.9161 -1.5183
  104MOL0     H13987   3.539   0.850   8.759 -0.5755  1.2003 -2.2209
  104MOL0     H13988   3.702   0.785   8.769  1.3307  0.1301 -0.9266
  104MOL0     H13989   3.779   1.052   8.769  1.0334 -0.4105  0.7653
  104MOL0     H13990   3.740   0.954   8.910 -0.5285 -0.1650  0.2366
  104MOL0     H13991   3.747   1.244   8.948  0.3513  2.4702 -1.1878
  104MOL0     H13992   3.475   1.337   9.146 -0.5447  0.7521  0.7277
  104MOL0     H13993   3.587   1.447   9.072  0.6187  2.2395 -0.2815
  104MOL0     H13994   3.322   1.461   8.924  1.9243 -0.1984 -0.9534
  104MOL0     H13995   3.440   1.575   8.959 -1.7404 -0.7276 -0.5458
  104MOL0     H13996   3.389   1.622   9.178 -0.6343  0.4765  0.2079
  104MOL0     H13997   3.274   1.484   9.198  0.2902  1.4162  1.7660
  104MOL0     H13998   3.238   1.723   9.024 -1.2422 -0.0683  0.0068
  104MOL0     H13999   3.162   1.695   9.182 -0.7592  3.7858 -1.9905
  104MOL0     H14000   2.953   1.481   8.815 -4.2864 -0.3941  0.1571
  104MOL0     H14001   2.830   1.478   8.642  0.1871 -0.2220 -3.1643
  104MOL0     H14002   2.677   1.533   8.699 -0.8814  2.1312 -0.8199
  104MOL0     H14003   2.754   1.621   8.556 -1.3315  1.4846  1.0215
  104MOL0     H14004   2.460   2.018   8.632  2.2901 -0.5429  0.9633
  104MOL0     H14005   2.329   2.129   8.443 -1.1233 -1.1370 -2.9131
  104MOL0     H14006   2.173   2.050   8.088  1.2350  1.8806 -0.8346
  104MOL0     H14007   2.163   2.004   8.257 -0.3190  0.1030  0.6657
  104MOL0     H14008   2.224   2.254   8.314  0.0870 -1.7229  1.0048
  104MOL0     H14009   2.236   2.280   8.137  1.9538 -0.0253  0.2712
  104MOL0     H14010   1.979   2.187   8.281  0.4764  0.2292 -0.1247
  104MOL0     H14011   1.997   2.195   8.113  1.7790  0.0843 -0.9339
  104MOL0     H14012   2.035   2.424   8.311 -1.9461  0.7311  0.0855
  104MOL0     H14013   2.061   2.437   8.135 -2.9426 -1.1690 -1.7815
  104MOL0     H14014   1.814   2.378   8.293  2.6886 -0.4271  1.6284
  104MOL0     H14015   1.805   2.396   8.116 -1.7489  1.5719  1.0154
  104MOL0     H14016   1.846   2.608   8.319 -0.2262 -1.5999  0.6023
  104MOL0     H14017   1.898   2.638   8.146 -0.6420 -1.3633 -2.5072
  104MOL0     H14018   1.627   2.549   8.227 -2.0389 -0.0738 -1.5535
  104MOL0     H14019   1.683   2.566   8.061  1.9084 -2.5561  1.5666
  104MOL0     H14020   1.673   2.805   8.243 -0.8803  0.7645 -0.6264
  104MOL0     H14021   1.525   2.753   8.164 -0.1143 -1.3093  1.0594
  104MOL0     H14022   2.524   1.867   8.163 -0.8004 -0.2423  0.5958
  104MOL0     H14023   2.636   1.753   8.366 -0.4349 -0.2656 -1.9991
  104MOL0     H14024   2.830   1.940   8.944  2.2633  0.5676  1.0130
  104MOL0     H14025   3.012   1.826   9.058 -3.6115  1.3866  1.6090
  104MOL0     H14026   3.565   1.408   8.699  0.2229 -1.9425  0.4355
  104MOL0     H14027   3.349   1.397   8.613  0.1626  1.0056  0.9425
  104MOL0     H14028   3.135   1.341   8.138 -0.8449  0.5669 -0.6219
  104MOL0     H14029   2.904   1.372   7.992 -0.5783 -1.2959 -0.3490
  104MOL0     H14030   2.536   1.399   8.200 -0.8573 -1.8259 -1.2380
  104MOL0     H14031   2.580   1.572   8.183  0.4046  0.0473 -1.1235
  104MOL0     H14032   2.502   1.402   7.946 -0.5303  0.0487 -0.1609
  104MOL0     H14033   2.504   1.563   7.939  3.5300 -5.7065 -6.1220
  104MOL0     H14034   2.294   1.538   8.125 -2.7892 -1.2267 -0.8584
  104MOL0     H14035   2.306   1.375   8.051  2.0641 -0.9508 -1.2054
  104MOL0     H14036   2.130   1.463   7.943 -0.3517 -1.5691 -0.0236
  104MOL0     H14037   2.275   1.444   7.842  2.4661 -1.4467  2.4023
  104MOL0     H14038   2.248   1.839   7.780 -0.0030 -0.5928 -1.4870
  104MOL0     H14039   2.700   1.424   8.355  0.0924  1.5792 -0.8010
  104MOL0     H14040   2.906   1.383   8.492  0.3344  0.9441 -0.2771
  105MOL0     O14041   0.573   8.987   1.536 -0.0490  0.7561 -0.2691
  105MOL0     C14042   0.678   8.969   1.606  0.5392 -0.1757  0.4562
  105MOL0     O14043   0.687   8.957   1.736  0.0052 -1.1185 -0.1291
  105MOL0     C14044   0.595   8.998   1.828  0.3156 -0.0971 -0.1326
  105MOL0     C14045   0.637   8.994   1.959 -0.3166 -0.4044  0.4792
  105MOL0     C14046   0.555   9.027   2.063  0.1400 -0.2725  0.3423
  105MOL0     C14047   0.424   9.056   2.037 -0.3122 -0.6084 -0.4840
  105MOL0     O14048   0.338   9.093   2.143 -0.1175  0.4004 -0.0869
  105MOL0     C14049   0.381   9.091   2.285  0.6626 -0.5807  0.7573
  105MOL0     C14050   0.434   9.238   2.305 -0.5965 -0.0933 -0.6488
  105MOL0     C14051   0.445   9.271   2.456  1.2017  0.6288  0.0243
  105MOL0     C14052   0.515   9.178   2.552 -0.0990  0.3128  0.5619
  105MOL0     C14053   0.521   9.231   2.704  0.3770  0.1371  0.2011
  105MOL0     C14054   0.557   9.120   2.798 -0.5823  0.5607  0.2284
  105MOL0     C14055   0.689   9.045   2.762  0.4691 -0.0398 -0.5736
  105MOL0     C14056   0.716   8.934   2.881 -0.0451  0.0567 -0.4691
  105MOL0     N14057   0.606   8.834   2.866  0.1929 -0.5480  0.4536
  105MOL0     C14058   0.587   8.750   2.754  1.1174  0.6890 -0.9483
  105MOL0     C14059   0.474   8.687   2.794  0.2293 -1.0354 -0.0943
  105MOL0     C14060   0.427   8.555   2.726 -0.5229  0.3899  0.3753
  105MOL0     C14061   0.375   8.575   2.585 -0.0762 -0.0727 -0.3603
  105MOL0     C14062   0.475   8.624   2.490  0.0066 -0.9500 -0.0648
  105MOL0     C14063   0.451   8.769   2.446  0.0466 -0.0679 -0.3424
  105MOL0     O14064   0.575   8.828   2.432  0.5305 -0.2238  0.2775
  105MOL0     C14065   0.652   8.785   2.319 -0.1623 -0.6218 -0.2509
  105MOL0     C14066   0.609   8.726   2.208 -0.7571 -0.1616 -0.6868
  105MOL0     C14067   0.701   8.681   2.107 -0.0469 -0.7812 -0.6832
  105MOL0     C14068   0.655   8.594   1.990 -0.1527 -0.1283 -0.2612
  105MOL0     C14069   0.840   8.717   2.118 -0.0383  0.3308 -0.1341
  105MOL0     C14070   0.945   8.684   2.011  0.4368 -0.0818 -0.2494
  105MOL0     O14071   0.939   8.574   1.931  0.2018 -0.0149 -0.4826
  105MOL0     C14072   1.015   8.565   1.817 -0.3867 -0.3571 -0.8335
  105MOL0     C14073   1.118   8.474   1.822  0.2966 -0.4739 -0.1446
  105MOL0     C14074   1.196   8.451   1.711 -0.3632  0.1789  0.0692
  105MOL0     C14075   1.171   8.513   1.592 -0.7822 -0.2337  0.1341
  105MOL0     O14076   1.257   8.488   1.489 -0.1695 -0.0521 -0.5513
  105MOL0     C14077   1.222   8.540   1.362  0.0611 -0.9698 -0.2686
  105MOL0     C14078   1.308   8.495   1.246 -0.1282 -0.1893 -0.7735
  105MOL0     C14079   1.433   8.583   1.230 -0.8448 -0.0456 -1.0423
  105MOL0     C14080   1.536   8.525   1.134 -0.2941 -0.5335  0.3545
  105MOL0     C14081   1.674   8.590   1.142 -0.3298 -0.1268 -0.2548
  105MOL0     C14082   1.767   8.544   1.038  0.1719  0.1657 -0.0380
  105MOL0     C14083   1.908   8.588   1.062  0.0930  0.3004  0.8344
  105MOL0     C14084   1.983   8.620   0.938  0.0878 -0.0549 -0.2858
  105MOL0    Cl14085   2.152   8.653   0.983 -0.0335 -0.5323 -0.4521
  105MOL0     C14086   1.068   8.606   1.586 -0.6830  0.5742 -0.4105
  105MOL0     C14087   0.985   8.630   1.700 -0.2442  0.6807  0.9377
  105MOL0     O14088   1.026   8.774   1.991  0.5509 -0.0206 -0.5475
  105MOL0     C14089   0.880   8.799   2.230 -0.1283 -0.8898 -0.1414
  105MOL0     C14090   0.785   8.830   2.323  0.6046 -0.4274 -0.4293
  105MOL0     N14091   0.427   8.735   2.911  0.0554  0.1063 -0.0862
  105MOL0     N14092   0.512   8.818   2.957  0.4979 -0.1049 -0.1444
  105MOL0     C14093   0.382   9.081   1.908 -0.2787  0.5522 -0.1184
  105MOL0     C14094   0.470   9.058   1.804 -0.1596 -0.1773  0.4238
  105MOL0     C14095   0.800   8.942   1.527 -0.2704  1.2440  1.1435
  105MOL0     C14096   0.922   8.939   1.599  1.1992  0.5510  0.3339
  105MOL0     C14097   1.042   8.901   1.542  0.0209  0.0142  0.5361
  105MOL0     C14098   1.049   8.884   1.403  0.4978 -0.6176  0.0476
  105MOL0     O14099   1.172   8.894   1.347 -0.0906  0.4924 -0.3304
  105MOL0     C14100   1.217   9.029   1.348 -1.2140 -0.4795 -0.4397
  105MOL0     C14101   1.362   9.025   1.310  0.4296  0.8007 -0.2452
  105MOL0     C14102   1.419   9.173   1.299  0.6465 -0.2835  0.7968
  105MOL0     C14103   1.383   9.229   1.166 -0.7771  0.2428 -0.5812
  105MOL0     C14104   1.454   9.169   1.050  0.6607 -0.9461 -0.4276
  105MOL0     C14105   1.533   9.114   0.968  0.2195  1.2341 -0.5368
  105MOL0     C14106   0.929   8.881   1.330  0.1232 -0.3426  0.7468
  105MOL0     C14107   0.798   8.907   1.390 -0.2821  0.1063 -0.3234
  105MOL0     H14108   0.741   8.963   1.970 -0.1825  0.1730  0.8920
  105MOL0     H14109   0.591   9.029   2.166 -1.1853  2.5349  0.8650
  105MOL0     H14110   0.286   9.074   2.335  0.1605  0.2461  0.1170
  105MOL0     H14111   0.454   9.016   2.317 -0.5495 -1.4322  1.5923
  105MOL0     H14112   0.532   9.253   2.257 -0.7434  0.7041 -0.7156
  105MOL0     H14113   0.372   9.316   2.260  1.2098  3.7244  2.8437
  105MOL0     H14114   0.504   9.362   2.467  2.0133  0.1787 -0.5010
  105MOL0     H14115   0.341   9.284   2.488  1.3073  1.1381  0.1647
  105MOL0     H14116   0.482   9.074   2.554  2.2201 -0.4501  1.1963
  105MOL0     H14117   0.619   9.177   2.518  0.3385 -0.3328  1.8473
  105MOL0     H14118   0.594   9.312   2.708 -0.1849  0.6521  0.0938
  105MOL0     H14119   0.426   9.280   2.723  0.9863  0.7836  1.7489
  105MOL0     H14120   0.567   9.162   2.898 -1.9620 -0.0907  0.6725
  105MOL0     H14121   0.483   9.039   2.799  0.2853 -0.3042 -1.4143
  105MOL0     H14122   0.697   8.994   2.666 -1.1573 -3.3464  0.8802
  105MOL0     H14123   0.758   9.130   2.766 -1.1383  1.4098  4.8683
  105MOL0     H14124   0.733   8.982   2.977  0.3456  2.5906 -1.7265
  105MOL0     H14125   0.809   8.881   2.857 -1.0025 -3.6719  3.0199
  105MOL0     H14126   0.660   8.727   2.678  1.6549 -0.2936 -0.1651
  105MOL0     H14127   0.515   8.490   2.726 -1.1683 -0.4957 -0.0435
  105MOL0     H14128   0.355   8.511   2.796 -0.0813 -2.3176 -0.7623
  105MOL0     H14129   0.286   8.638   2.579  1.5504  2.5076  0.8531
  105MOL0     H14130   0.336   8.477   2.554  2.2777 -0.7990 -1.2245
  105MOL0     H14131   0.477   8.556   2.404  0.9612 -0.9861 -0.0180
  105MOL0     H14132   0.578   8.614   2.524 -0.4780  0.0497  1.9076
  105MOL0     H14133   0.399   8.837   2.513 -0.4499  1.6903 -2.3807
  105MOL0     H14134   0.399   8.768   2.350  2.3519  0.3453 -1.6737
  105MOL0     H14135   0.504   8.699   2.200 -1.5213  2.5846 -0.9163
  105MOL0     H14136   0.691   8.492   2.001 -2.4751 -1.0603 -0.7033
  105MOL0     H14137   0.546   8.595   1.983 -0.0735  0.8064 -1.7324
  105MOL0     H14138   0.677   8.635   1.891 -0.8099  0.8037 -0.0306
  105MOL0     H14139   1.143   8.415   1.910  1.4792  0.9013  0.4852
  105MOL0     H14140   1.275   8.377   1.715 -1.4369 -0.9667  1.3331
  105MOL0     H14141   1.119   8.511   1.342  0.5747 -0.7472 -4.0875
  105MOL0     H14142   1.235   8.649   1.363 -1.8607 -0.6510 -2.1036
  105MOL0     H14143   1.339   8.391   1.261 -0.9104 -0.7000 -2.3913
  105MOL0     H14144   1.253   8.501   1.152  1.9095  0.9587 -1.9597
  105MOL0     H14145   1.472   8.575   1.332 -2.6627 -0.9495 -0.3746
  105MOL0     H14146   1.399   8.685   1.208  0.4585  0.4271 -0.9346
  105MOL0     H14147   1.564   8.419   1.136  2.8310  0.1946  0.3210
  105MOL0     H14148   1.514   8.560   1.032 -2.2924  0.7763  1.1857
  105MOL0     H14149   1.711   8.562   1.241  0.4948 -1.9762 -1.0441
  105MOL0     H14150   1.651   8.696   1.153 -2.2273 -0.6542  1.3505
  105MOL0     H14151   1.767   8.435   1.035 -0.5087  0.1544  0.4227
  105MOL0     H14152   1.728   8.583   0.943 -0.1049  0.7953  0.3270
  105MOL0     H14153   1.961   8.518   1.127 -1.5292 -0.7951  1.0347
  105MOL0     H14154   1.900   8.678   1.124 -0.9303  1.3008 -0.6903
  105MOL0     H14155   1.929   8.701   0.889 -2.0384 -0.7050  0.8654
  105MOL0     H14156   1.966   8.533   0.874 -0.0228 -2.3872  2.7098
  105MOL0     H14157   1.050   8.656   1.491 -1.5224 -0.0221 -0.5781
  105MOL0     H14158   0.905   8.702   1.687 -0.3490  0.2450 -1.2243
  105MOL0     H14159   0.980   8.837   2.246 -1.0400  1.1025  1.2201
  105MOL0     H14160   0.828   8.889   2.404 -0.0900 -1.4043  0.7017
  105MOL0     H14161   0.280   9.115   1.891 -0.6850  0.5494  2.0537
  105MOL0     H14162   0.436   9.078   1.703  1.1176 -0.9046 -0.1802
  105MOL0     H14163   0.934   8.961   1.705  4.5226  1.7485 -0.1825
  105MOL0     H14164   1.128   8.917   1.607 -0.2563 -0.5852  1.0550
  105MOL0     H14165   1.166   9.093   1.275 -1.5348  0.9300  0.9526
  105MOL0     H14166   1.206   9.070   1.449  1.6621 -1.3477  0.3014
  105MOL0     H14167   1.382   8.977   1.213  3.4246 -1.4267  1.3254
  105MOL0     H14168   1.422   8.967   1.381 -1.2342 -1.8989 -0.8768
  105MOL0     H14169   1.526   9.180   1.318  0.7675 -2.4409  1.1832
  105MOL0     H14170   1.368   9.226   1.380  0.0390 -0.7513  0.7233
  105MOL0     H14171   1.395   9.338   1.162  1.3940 -0.0124 -3.0743
  105MOL0     H14172   1.277   9.204   1.152 -0.5911  0.3572 -2.3381
  105MOL0     H14173   1.606   9.083   0.895  0.2176  1.6029 -0.6952
  105MOL0     H14174   0.957   8.865   1.227  2.1671  0.1995  1.1689
  105MOL0     H14175   0.702   8.913   1.340 -1.4873  2.0527  1.9789
  106MOL0     O14176   7.448   6.040   1.696  0.0484 -0.6890  0.2134
  106MOL0     C14177   7.562   6.088   1.687  0.0731  0.6262  0.2407
  106MOL0     O14178   7.608   6.182   1.606 -1.0580  0.3264 -0.3366
  106MOL0     C14179   7.520   6.257   1.526  0.5277  0.4710 -0.4390
  106MOL0     C14180   7.527   6.398   1.513 -0.0229  0.0031 -0.5776
  106MOL0     C14181   7.453   6.467   1.413  0.2760 -0.5296 -0.5788
  106MOL0     C14182   7.366   6.399   1.324  0.6336 -0.7116  0.0922
  106MOL0     O14183   7.315   6.463   1.213  1.2904  0.4369  0.3036
  106MOL0     C14184   7.349   6.407   1.086 -0.9338 -0.0466 -0.6306
  106MOL0     C14185   7.354   6.513   0.987  0.0016 -0.2984  0.2165
  106MOL0     C14186   7.362   6.467   0.837  0.0696  0.8378  0.1321
  106MOL0     C14187   7.506   6.429   0.788 -0.0580  0.2765  0.2150
  106MOL0     C14188   7.589   6.549   0.740 -0.3168 -1.3820 -0.8109
  106MOL0     C14189   7.736   6.530   0.715  0.5971  0.4137  0.0436
  106MOL0     C14190   7.761   6.423   0.608  0.1748  0.5686 -0.5666
  106MOL0     C14191   7.906   6.431   0.564  0.0449  0.6229  0.5532
  106MOL0     N14192   7.966   6.561   0.535  0.5676 -0.1659 -0.2624
  106MOL0     C14193   7.927   6.651   0.438 -0.0848 -0.0998 -0.4560
  106MOL0     C14194   8.015   6.753   0.446 -0.3219 -0.8420 -0.4256
  106MOL0     C14195   8.007   6.873   0.362 -0.8196  0.3177  0.1431
  106MOL0     C14196   7.987   7.003   0.443 -0.4849  0.1831  0.4003
  106MOL0     C14197   7.858   7.000   0.528  0.3001 -0.6728 -0.1266
  106MOL0     C14198   7.832   7.124   0.614 -0.3969 -0.0838  0.5117
  106MOL0     O14199   7.796   7.244   0.535 -0.6638  0.0765 -0.4862
  106MOL0     C14200   7.672   7.285   0.495 -1.2609 -0.2368  0.0454
  106MOL0     C14201   7.558   7.209   0.520  0.5557 -0.0594 -0.4069
  106MOL0     C14202   7.429   7.245   0.480 -0.2458 -0.6270  0.6883
  106MOL0     C14203   7.316   7.139   0.493  0.9373 -0.3673  0.1443
  106MOL0     C14204   7.420   7.360   0.394  0.2485 -0.2932  0.1086
  106MOL0     C14205   7.285   7.419   0.350  0.1766  0.7369 -0.3070
  106MOL0     O14206   7.293   7.524   0.248  0.1907 -0.3240  0.1456
  106MOL0     C14207   7.194   7.613   0.257  0.1502 -0.0811 -0.4681
  106MOL0     C14208   7.206   7.734   0.325 -0.0557  0.0341 -0.9343
  106MOL0     C14209   7.095   7.815   0.349  0.8560 -0.1187 -0.7875
  106MOL0     C14210   6.967   7.786   0.294 -0.4667  0.6850  0.1168
  106MOL0     O14211   6.849   7.850   0.321 -0.1968 -0.1031  0.4872
  106MOL0     C14212   6.857   7.968   0.409  0.1911  0.0801  0.3004
  106MOL0     C14213   6.734   8.046   0.424  0.3472 -0.1297 -0.5664
  106MOL0     C14214   6.614   7.969   0.483 -0.2161  0.3029 -0.1559
  106MOL0     C14215   6.494   8.050   0.526 -0.9198  0.7600  0.5762
  106MOL0     C14216   6.429   8.123   0.414 -0.5610  0.0342 -0.0014
  106MOL0     C14217   6.330   8.234   0.451 -0.5781  0.3387  0.2916
  106MOL0     C14218   6.216   8.208   0.548  0.0167  1.0502 -0.0189
  106MOL0     C14219   6.107   8.315   0.551  0.5647  0.6168 -0.5427
  106MOL0    Cl14220   6.014   8.327   0.398 -0.1331 -0.3985 -0.1884
  106MOL0     C14221   6.957   7.670   0.216  0.2365  0.1541  0.1108
  106MOL0     C14222   7.076   7.593   0.193  0.0868  0.8604  1.0641
  106MOL0     O14223   7.176   7.371   0.395  0.1134  0.0866  0.4622
  106MOL0     C14224   7.542   7.435   0.353 -0.4695  1.1474  0.0606
  106MOL0     C14225   7.661   7.395   0.414  0.5372  0.6532  0.2163
  106MOL0     N14226   8.099   6.730   0.554  0.0893  0.1457  0.2185
  106MOL0     N14227   8.069   6.619   0.599 -0.0626  0.5680  0.1079
  106MOL0     C14228   7.353   6.263   1.345 -0.4807 -0.0299  0.6989
  106MOL0     C14229   7.428   6.193   1.437 -0.4520 -0.1944 -0.0910
  106MOL0     C14230   7.666   6.029   1.772 -0.1608  0.0385 -1.3407
  106MOL0     C14231   7.799   5.999   1.721  0.7423 -1.0081  0.2428
  106MOL0     C14232   7.904   5.958   1.801 -0.8199 -0.2808 -0.3514
  106MOL0     C14233   7.874   5.924   1.932  0.1485  0.0503 -0.0617
  106MOL0     O14234   7.983   5.887   2.002 -0.1487 -0.3282 -0.2042
  106MOL0     C14235   7.969   5.799   2.117  0.6506 -0.1219  0.0596
  106MOL0     C14236   8.106   5.756   2.169 -0.0136  0.7897  0.6650
  106MOL0     C14237   8.175   5.878   2.240 -1.5028  0.6922  0.2102
  106MOL0     C14238   8.320   5.865   2.227  0.2567 -0.0523  0.4896
  106MOL0     C14239   8.373   5.759   2.305  0.1823 -0.3831  0.5331
  106MOL0     C14240   8.420   5.679   2.373  0.1424 -0.3650 -0.2026
  106MOL0     C14241   7.739   5.935   1.982 -1.2923  0.5011  0.8181
  106MOL0     C14242   7.642   5.988   1.902  0.0025 -0.5660  0.7008
  106MOL0     H14243   7.611   6.444   1.564  1.2534  0.8960 -3.3457
  106MOL0     H14244   7.477   6.570   1.387 -1.3454  0.0902  0.2653
  106MOL0     H14245   7.449   6.364   1.092 -0.5766  0.8585  0.1401
  106MOL0     H14246   7.268   6.335   1.067 -0.6534 -0.2832 -0.9418
  106MOL0     H14247   7.259   6.567   0.995 -0.7928 -1.4372 -1.1101
  106MOL0     H14248   7.437   6.582   1.000  0.2964  0.6523 -4.6912
  106MOL0     H14249   7.305   6.374   0.828 -0.9020  1.4267  0.1007
  106MOL0     H14250   7.323   6.544   0.771 -4.7066 -1.6678 -0.3700
  106MOL0     H14251   7.547   6.362   0.864 -2.4692  0.9904  2.3187
  106MOL0     H14252   7.494   6.369   0.698  1.5834  0.4387 -0.1404
  106MOL0     H14253   7.541   6.597   0.654 -0.9059 -2.7611 -1.2971
  106MOL0     H14254   7.586   6.621   0.821 -1.7764  0.0553 -2.0752
  106MOL0     H14255   7.775   6.629   0.687  1.5741 -0.0655 -0.3301
  106MOL0     H14256   7.788   6.499   0.806  1.5195 -2.2722 -1.2993
  106MOL0     H14257   7.729   6.325   0.645 -1.1847  1.4875  0.8294
  106MOL0     H14258   7.687   6.436   0.529 -0.6281 -1.8356 -0.3013
  106MOL0     H14259   7.901   6.374   0.471  1.3244  1.4809 -0.0688
  106MOL0     H14260   7.965   6.384   0.643  3.1052 -0.6372 -2.2757
  106MOL0     H14261   7.858   6.632   0.357 -1.8853  0.5787  0.8532
  106MOL0     H14262   8.106   6.888   0.319 -0.2928 -1.4894  0.6180
  106MOL0     H14263   7.933   6.874   0.281 -0.6039  0.3887 -0.0536
  106MOL0     H14264   7.994   7.090   0.377  1.8579 -0.0518  0.2379
  106MOL0     H14265   8.062   7.014   0.522 -0.8042 -1.9806  1.0655
  106MOL0     H14266   7.847   6.909   0.587 -2.6197  0.0330  0.5584
  106MOL0     H14267   7.773   7.003   0.459 -4.1494 -0.3811  4.7767
  106MOL0     H14268   7.930   7.147   0.656 -0.3442 -0.7679  0.7765
  106MOL0     H14269   7.760   7.107   0.695  1.1300 -1.5179  1.6280
  106MOL0     H14270   7.566   7.106   0.555  0.4645 -0.6526 -2.0511
  106MOL0     H14271   7.247   7.155   0.576  3.8326 -3.4207  3.5146
  106MOL0     H14272   7.249   7.135   0.407 -2.1032 -3.9917  2.3471
  106MOL0     H14273   7.374   7.047   0.502  1.5732 -0.0699 -0.7311
  106MOL0     H14274   7.304   7.745   0.370  0.4381 -1.3160 -1.6358
  106MOL0     H14275   7.104   7.903   0.412 -2.0153 -1.0201  1.1195
  106MOL0     H14276   6.887   7.929   0.506 -4.4094 -1.5963  1.2820
  106MOL0     H14277   6.942   8.032   0.382  2.8597 -2.2062  2.6056
  106MOL0     H14278   6.750   8.124   0.500 -0.1994  2.0014 -2.5330
  106MOL0     H14279   6.716   8.083   0.323  0.8623  0.6734 -0.3723
  106MOL0     H14280   6.656   7.902   0.558 -0.8922  0.6740  0.5675
  106MOL0     H14281   6.565   7.904   0.409 -1.3242  1.2610 -0.2951
  106MOL0     H14282   6.425   7.975   0.565  0.7070 -1.3274 -0.3593
  106MOL0     H14283   6.516   8.115   0.611 -0.4039  1.4348 -0.0598
  106MOL0     H14284   6.362   8.053   0.363 -0.3026 -0.1384 -0.1071
  106MOL0     H14285   6.502   8.161   0.341  1.1013  0.4984  1.8294
  106MOL0     H14286   6.392   8.307   0.504 -0.5132 -2.0017  3.7786
  106MOL0     H14287   6.288   8.282   0.362 -3.0262  0.5421  1.4393
  106MOL0     H14288   6.252   8.189   0.650 -0.5264 -3.1008 -0.4054
  106MOL0     H14289   6.180   8.107   0.524 -1.4544  1.5803 -0.1115
  106MOL0     H14290   6.147   8.413   0.578 -0.1907 -0.0996  4.1216
  106MOL0     H14291   6.030   8.283   0.622  0.9143  1.4079  0.2136
  106MOL0     H14292   6.857   7.656   0.177  0.0026  2.1092 -0.0954
  106MOL0     H14293   7.063   7.496   0.146 -5.0023 -0.0861  3.6328
  106MOL0     H14294   7.532   7.528   0.297 -0.6268  3.0956  3.1032
  106MOL0     H14295   7.747   7.458   0.392  1.1763 -0.7516 -1.6117
  106MOL0     H14296   7.279   6.235   1.271  0.6246  3.0909 -1.8307
  106MOL0     H14297   7.423   6.085   1.446 -0.7535 -0.2522 -0.8328
  106MOL0     H14298   7.817   6.029   1.618  0.8211  1.7933  0.9954
  106MOL0     H14299   8.002   5.964   1.753  1.4547  1.6215  3.9333
  106MOL0     H14300   7.901   5.842   2.192 -1.8117  1.6990 -2.9609
  106MOL0     H14301   7.917   5.712   2.077 -2.0680  1.4285 -0.0528
  106MOL0     H14302   8.161   5.723   2.080  0.2322  1.3758  0.5979
  106MOL0     H14303   8.088   5.666   2.230  0.7228 -0.3814 -0.7872
  106MOL0     H14304   8.151   5.877   2.347  0.6643  0.1533  0.7344
  106MOL0     H14305   8.142   5.971   2.193 -0.7117  1.9087  1.9402
  106MOL0     H14306   8.380   5.953   2.250 -0.9897  0.9501  0.0524
  106MOL0     H14307   8.339   5.837   2.123 -0.1957 -0.4001  0.4962
  106MOL0     H14308   8.465   5.606   2.438 -0.9632 -0.9442 -0.0569
  106MOL0     H14309   7.717   5.897   2.082  0.1087 -1.2200  0.5169
  106MOL0     H14310   7.545   5.980   1.948 -0.1572  1.3051  0.7505
  107MOL0     O14311   2.239   4.815   9.773  0.6950 -0.5645 -0.7200
  107MOL0     C14312   2.135   4.856   9.827  0.9588  0.8372  0.6427
  107MOL0     O14313   2.127   4.942   9.933  0.1842  0.3486 -1.3928
  107MOL0     C14314   2.234   5.000   9.991  0.1599 -0.8700 -0.8905
  107MOL0     C14315   2.287   5.117   9.934  0.9665 -0.7042  0.2269
  107MOL0     C14316   2.387   5.203  10.002  0.1697 -0.5986 -0.0793
  107MOL0     C14317   2.441   5.157  10.121  0.5407  0.0261 -0.1142
  107MOL0     O14318   2.542   5.222  10.177 -0.9946  0.5362 -0.2505
  107MOL0     C14319   2.671   5.154  10.174  0.8878 -0.0842  0.2028
  107MOL0     C14320   2.781   5.265  10.168  0.4168  1.5213  0.0677
  107MOL0     C14321   2.784   5.301  10.018  0.4265  0.5091  0.5704
  107MOL0     C14322   2.880   5.421   9.999 -0.5013  0.2607 -0.6161
  107MOL0     C14323   2.851   5.503   9.877  0.3027  0.0824  0.2965
  107MOL0     C14324   2.955   5.614   9.855  0.0707 -0.1630  0.1088
  107MOL0     C14325   3.090   5.556   9.815  0.4593  0.0704  0.1688
  107MOL0     C14326   3.177   5.619   9.716  0.1974 -0.2038 -0.0950
  107MOL0     N14327   3.252   5.740   9.758  0.6410  0.7593  0.6658
  107MOL0     C14328   3.351   5.791   9.677 -0.2305  0.9253 -0.7218
  107MOL0     C14329   3.402   5.892   9.758 -0.2358  0.8563  0.2085
  107MOL0     C14330   3.519   5.969   9.716 -0.3514  0.7065 -1.0978
  107MOL0     C14331   3.631   5.982   9.831  0.3569  0.1861  0.0877
  107MOL0     C14332   3.726   6.091   9.788  0.4091 -0.5153  0.2098
  107MOL0     C14333   3.823   6.129   9.895 -1.0498 -0.5567 -0.3963
  107MOL0     O14334   3.876   6.270   9.883 -0.6468 -0.3909 -0.2622
  107MOL0     C14335   4.001   6.287   9.948  0.2841 -0.7519  0.7804
  107MOL0     C14336   4.055   6.212  10.051 -0.0193 -0.2344 -0.0489
  107MOL0     C14337   4.183   6.243  10.107  0.2252 -0.7477 -0.5718
  107MOL0     C14338   4.248   6.160  10.219  0.6572  1.0550 -0.1963
  107MOL0     C14339   4.255   6.357  10.065  0.4229 -1.0456  0.9298
  107MOL0     C14340   4.388   6.409  10.118 -0.3397  0.0443 -0.4801
  107MOL0     O14341   4.419   6.544  10.102  0.5405 -0.0911  0.2444
  107MOL0     C14342   4.537   6.607  10.143 -0.0234 -0.1772  1.1252
  107MOL0     C14343   4.536   6.739  10.164  0.4212 -0.0533 -0.2470
  107MOL0     C14344   4.650   6.805  10.197  0.6739  0.2547 -0.2018
  107MOL0     C14345   4.776   6.746  10.213  0.5019 -0.0780 -0.2870
  107MOL0     O14346   4.887   6.828  10.258 -0.2530  0.0068 -0.1761
  107MOL0     C14347   5.009   6.813  10.191  0.3238  0.7829 -0.3428
  107MOL0     C14348   5.077   6.944  10.169 -0.8147 -0.0911  0.6771
  107MOL0     C14349   5.214   6.905  10.099 -0.1338 -0.1743 -0.1967
  107MOL0     C14350   5.255   7.030  10.003  0.2092  0.3798 -0.1897
  107MOL0     C14351   5.402   7.051   9.960 -0.2960  0.8923 -0.4616
  107MOL0     C14352   5.453   6.933   9.872  0.2834 -0.1849 -0.3729
  107MOL0     C14353   5.611   6.939   9.837  0.4591  0.5961 -0.4515
  107MOL0     C14354   5.639   7.035   9.713 -0.6222 -0.3383 -0.6532
  107MOL0    Cl14355   5.558   6.960   9.570 -0.0279  0.2303 -0.3381
  107MOL0     C14356   4.785   6.612  10.180  0.9102  0.1239  0.6384
  107MOL0     C14357   4.664   6.543  10.151 -0.2673  0.2960  0.1347
  107MOL0     O14358   4.468   6.327  10.159 -0.6153  0.7327 -0.3102
  107MOL0     C14359   4.190   6.431   9.956 -0.6917  0.5465 -1.0781
  107MOL0     C14360   4.066   6.400   9.908 -0.2439 -0.9530 -0.9196
  107MOL0     N14361   3.341   5.886   9.881 -0.2052  0.1318 -0.6562
  107MOL0     N14362   3.249   5.794   9.879  0.1989 -0.1716  0.7045
  107MOL0     C14363   2.388   5.049  10.190 -0.0286  0.6687  1.6599
  107MOL0     C14364   2.286   4.971  10.116 -0.4215  1.0766 -0.3055
  107MOL0     C14365   2.010   4.802   9.770  0.4331 -0.2586  0.0697
  107MOL0     C14366   1.892   4.886   9.772 -0.1838  0.1109  0.5802
  107MOL0     C14367   1.782   4.853   9.690 -0.1836  0.1486 -0.6430
  107MOL0     C14368   1.780   4.733   9.609 -0.5559 -0.9141  0.4037
  107MOL0     O14369   1.676   4.696   9.530  0.0536  0.2586  0.0393
  107MOL0     C14370   1.588   4.587   9.579  0.3424 -0.3635 -0.0453
  107MOL0     C14371   1.463   4.574   9.481  0.3042 -0.1201  0.5537
  107MOL0     C14372   1.391   4.440   9.506  0.8366 -0.2035 -0.1247
  107MOL0     C14373   1.238   4.456   9.496 -0.0089  0.0143 -0.4720
  107MOL0     C14374   1.175   4.527   9.612 -0.8089 -0.2891  0.7121
  107MOL0     C14375   1.122   4.586   9.701  0.2796 -0.7375  0.7110
  107MOL0     C14376   1.895   4.649   9.616  0.4514  0.6522  0.7391
  107MOL0     C14377   2.009   4.688   9.689  0.2033 -0.0434  0.9977
  107MOL0     H14378   2.241   5.143   9.839  0.6101 -4.4364 -0.7652
  107MOL0     H14379   2.431   5.287   9.950 -0.0419 -0.9329 -0.8205
  107MOL0     H14380   2.690   5.101  10.268 -1.4444  0.1485  0.8672
  107MOL0     H14381   2.675   5.090  10.085  2.2113  1.9320 -1.2794
  107MOL0     H14382   2.763   5.352  10.231  3.3366  1.6622  0.8653
  107MOL0     H14383   2.876   5.220  10.199 -1.0183 -1.2236  0.8245
  107MOL0     H14384   2.821   5.222   9.954  1.9830 -3.0218  5.2619
  107MOL0     H14385   2.686   5.336   9.983  0.0818 -0.7514  0.2131
  107MOL0     H14386   2.865   5.495  10.078  0.7699  2.5584 -2.3848
  107MOL0     H14387   2.985   5.390   9.997 -0.4120  0.5669 -0.7940
  107MOL0     H14388   2.833   5.448   9.785 -1.1384  1.9767 -0.6264
  107MOL0     H14389   2.759   5.562   9.885 -0.4510 -0.8686 -0.9692
  107MOL0     H14390   2.921   5.681   9.776  0.6319  0.2274  0.1879
  107MOL0     H14391   2.962   5.666   9.951  0.6766 -0.2159  0.0974
  107MOL0     H14392   3.142   5.545   9.911  1.7818 -1.6452 -0.6938
  107MOL0     H14393   3.053   5.465   9.768 -4.2827  3.2089 -2.9963
  107MOL0     H14394   3.105   5.660   9.645 -1.3888 -0.1699  1.4736
  107MOL0     H14395   3.243   5.537   9.686  0.7342  0.1276  0.1752
  107MOL0     H14396   3.389   5.752   9.583  1.6972  1.0830 -0.0686
  107MOL0     H14397   3.571   5.931   9.627 -1.7117 -0.1937 -1.5425
  107MOL0     H14398   3.483   6.070   9.696  2.4316  1.7709 -1.2850
  107MOL0     H14399   3.675   5.882   9.840 -0.9239 -0.6437 -2.1752
  107MOL0     H14400   3.581   6.008   9.925 -0.5969  1.1186 -0.6488
  107MOL0     H14401   3.658   6.176   9.779 -2.5338 -2.9084 -3.5130
  107MOL0     H14402   3.778   6.081   9.692 -2.1584  2.5977 -1.7313
  107MOL0     H14403   3.904   6.056   9.897 -1.5832 -1.1877 -1.0742
  107MOL0     H14404   3.774   6.114   9.992 -2.2541  0.5578 -0.8051
  107MOL0     H14405   3.997   6.126  10.083 -0.9822  0.5497  0.3647
  107MOL0     H14406   4.259   6.205  10.318  1.1241 -1.3660  0.9367
  107MOL0     H14407   4.178   6.075  10.224 -0.6050  1.5285 -4.7926
  107MOL0     H14408   4.337   6.105  10.188 -0.8545 -1.5682 -0.2666
  107MOL0     H14409   4.451   6.800  10.136  2.6618  1.7019 -3.9710
  107MOL0     H14410   4.648   6.912  10.216  0.7876  0.0512  0.9750
  107MOL0     H14411   5.076   6.744  10.243  1.2341  3.0052  1.6226
  107MOL0     H14412   5.001   6.765  10.093  0.9478 -2.6361  1.1274
  107MOL0     H14413   5.012   7.013  10.113 -4.5705 -3.5647  0.2813
  107MOL0     H14414   5.097   6.991  10.265  2.5505 -3.6134  1.9367
  107MOL0     H14415   5.212   6.814  10.038 -0.9078  0.6376 -1.4402
  107MOL0     H14416   5.291   6.886  10.174  1.0978 -0.2762 -1.4410
  107MOL0     H14417   5.199   7.027   9.909  0.9970 -2.5335 -0.6693
  107MOL0     H14418   5.227   7.119  10.059 -0.4266 -1.3363  2.4169
  107MOL0     H14419   5.469   7.078  10.042 -0.9139 -0.5264  0.5486
  107MOL0     H14420   5.408   7.145   9.904 -1.1560  0.4289 -1.3587
  107MOL0     H14421   5.420   6.833   9.902 -3.9764  1.0090 -0.4578
  107MOL0     H14422   5.394   6.933   9.780  0.4457 -2.9097 -0.5482
  107MOL0     H14423   5.643   6.837   9.812 -0.3535 -0.5139  2.6854
  107MOL0     H14424   5.675   6.971   9.920  1.9739 -0.6498 -1.0835
  107MOL0     H14425   5.744   7.055   9.689 -1.4391  2.4878 -2.3317
  107MOL0     H14426   5.596   7.135   9.722 -0.5255 -0.2934 -0.6775
  107MOL0     H14427   4.881   6.561  10.187  0.8474 -0.0491  0.2951
  107MOL0     H14428   4.688   6.443  10.118  1.4924  0.4573  0.7786
  107MOL0     H14429   4.241   6.521   9.923  0.4317  0.3537  0.0843
  107MOL0     H14430   4.009   6.473   9.853 -0.0349 -0.6816 -0.7751
  107MOL0     H14431   2.419   5.008  10.286 -0.2146  0.9178  1.8308
  107MOL0     H14432   2.240   4.882  10.156  0.8920 -0.6572 -2.3572
  107MOL0     H14433   1.896   4.972   9.838 -0.2981  1.9226 -1.6613
  107MOL0     H14434   1.693   4.914   9.683 -0.8562 -0.2782  2.5507
  107MOL0     H14435   1.640   4.492   9.590 -0.6806 -0.7176  2.1337
  107MOL0     H14436   1.561   4.611   9.682  1.7824  1.3829 -0.0119
  107MOL0     H14437   1.504   4.580   9.380 -1.6475  3.3269 -0.1729
  107MOL0     H14438   1.389   4.652   9.499 -0.8481 -1.5297  2.4134
  107MOL0     H14439   1.404   4.403   9.608 -2.2897  0.1840  0.5086
  107MOL0     H14440   1.424   4.360   9.439  1.7053  0.9927 -1.2007
  107MOL0     H14441   1.191   4.358   9.487 -1.4758  0.5278  1.0033
  107MOL0     H14442   1.212   4.502   9.400  2.6698 -2.8175 -2.7316
  107MOL0     H14443   1.073   4.636   9.781  1.3105  0.4759  0.6191
  107MOL0     H14444   1.893   4.551   9.569  2.3576  1.3587 -0.9556
  107MOL0     H14445   2.104   4.636   9.677 -0.0489 -1.1495  3.2019
  108MOL0     O14446   3.342   2.842   6.650  0.6499  0.4452 -0.0713
  108MOL0     C14447   3.377   2.840   6.771  0.2527  0.0225 -0.1812
  108MOL0     O14448   3.299   2.865   6.883 -0.5859  0.2698 -0.0806
  108MOL0     C14449   3.173   2.882   6.858 -0.1580 -0.1158 -0.2581
  108MOL0     C14450   3.089   2.765   6.835 -0.7944 -0.0190 -0.2796
  108MOL0     C14451   2.956   2.787   6.788  0.7904  0.4420  0.0225
  108MOL0     C14452   2.890   2.912   6.806  0.2660 -0.8561 -0.6029
  108MOL0     O14453   2.758   2.914   6.778  0.7256  0.8585 -0.5121
  108MOL0     C14454   2.663   3.008   6.834 -0.5289  0.1163  0.5911
  108MOL0     C14455   2.539   2.935   6.864 -0.3655  0.2335 -0.8113
  108MOL0     C14456   2.548   2.824   6.969 -0.2022  0.6869  0.7053
  108MOL0     C14457   2.619   2.872   7.102 -0.7242  0.4369  0.0537
  108MOL0     C14458   2.641   2.746   7.196  1.1677 -0.3781 -0.2531
  108MOL0     C14459   2.743   2.636   7.155 -1.1402 -0.0316  0.5939
  108MOL0     C14460   2.886   2.677   7.167 -0.0715 -0.6696  0.2754
  108MOL0     C14461   2.981   2.561   7.131 -1.0447  0.5622  0.5312
  108MOL0     N14462   3.120   2.581   7.139 -0.2055 -0.5193  0.7721
  108MOL0     C14463   3.184   2.687   7.196  0.5530  0.1676 -0.2296
  108MOL0     C14464   3.314   2.651   7.215  0.2014  0.1028  0.3692
  108MOL0     C14465   3.432   2.739   7.256  0.5000 -0.7428 -0.4688
  108MOL0     C14466   3.403   2.806   7.390  0.5686 -0.1025 -0.0073
  108MOL0     C14467   3.315   2.931   7.386 -1.0641 -0.8125 -0.5211
  108MOL0     C14468   3.270   2.987   7.522  0.8595  0.5649  0.0652
  108MOL0     O14469   3.379   3.013   7.606 -0.2150 -0.1458 -0.5860
  108MOL0     C14470   3.364   3.086   7.721 -0.1562 -0.3638  0.4293
  108MOL0     C14471   3.244   3.143   7.768 -0.1774 -0.5390  0.2318
  108MOL0     C14472   3.245   3.209   7.893 -0.5115 -0.3184  0.6629
  108MOL0     C14473   3.109   3.240   7.935  0.0565  0.9950 -1.2012
  108MOL0     C14474   3.368   3.232   7.970  1.2832  0.3395  0.6415
  108MOL0     C14475   3.381   3.298   8.104  0.5702  0.5340 -0.2976
  108MOL0     O14476   3.488   3.264   8.174 -0.1654 -0.5477  0.1048
  108MOL0     C14477   3.518   3.343   8.279 -0.0583  0.4239  0.4243
  108MOL0     C14478   3.461   3.321   8.401  0.4191  0.6021 -0.2447
  108MOL0     C14479   3.489   3.402   8.510 -0.3900  1.0157  0.0599
  108MOL0     C14480   3.579   3.509   8.505  0.0391  0.3911 -0.5787
  108MOL0     O14481   3.618   3.581   8.618 -0.4451 -0.7463 -0.4677
  108MOL0     C14482   3.565   3.565   8.752  0.2914 -0.6905  0.4042
  108MOL0     C14483   3.593   3.429   8.821 -0.1020  0.7027 -1.0964
  108MOL0     C14484   3.695   3.457   8.927  0.4684 -0.3686  0.3574
  108MOL0     C14485   3.730   3.323   8.992 -0.1856 -1.1866  0.6625
  108MOL0     C14486   3.806   3.354   9.121 -0.5239 -0.0774  0.1852
  108MOL0     C14487   3.958   3.340   9.107  0.3093 -0.2265 -0.1729
  108MOL0     C14488   4.023   3.361   9.251  0.3094 -0.2064  0.2626
  108MOL0     C14489   4.037   3.238   9.335 -0.3034  0.7456  0.7848
  108MOL0    Cl14490   4.127   3.118   9.252  0.2154 -0.1057 -0.2644
  108MOL0     C14491   3.626   3.542   8.380 -0.3501  0.8823 -0.0274
  108MOL0     C14492   3.607   3.455   8.273  1.1203  0.2077 -0.0067
  108MOL0     O14493   3.295   3.378   8.148 -0.1445 -0.0764 -0.2177
  108MOL0     C14494   3.485   3.175   7.908  0.4859 -0.2590 -0.0908
  108MOL0     C14495   3.479   3.116   7.784  0.3174 -0.7659 -0.3205
  108MOL0     N14496   3.321   2.518   7.166 -0.7374 -0.5299  1.0365
  108MOL0     N14497   3.206   2.482   7.125 -0.5086 -0.6503 -0.8076
  108MOL0     C14498   2.971   3.021   6.841 -0.9499  0.1572 -0.3891
  108MOL0     C14499   3.112   3.007   6.876  0.1235 -0.5814  0.8297
  108MOL0     C14500   3.508   2.791   6.792 -0.2168  0.7999  0.1135
  108MOL0     C14501   3.547   2.721   6.908  1.0174 -0.5183  0.3187
  108MOL0     C14502   3.682   2.687   6.923  0.3391 -0.8751  0.6360
  108MOL0     C14503   3.780   2.708   6.823  0.5623  0.2937  0.6580
  108MOL0     O14504   3.908   2.667   6.858 -0.2914  0.1974 -0.1716
  108MOL0     C14505   4.026   2.726   6.803  0.1186  0.0450 -0.6508
  108MOL0     C14506   4.137   2.681   6.888 -0.2509 -0.9742  0.4073
  108MOL0     C14507   4.141   2.741   7.030 -0.2097 -0.0975  0.5648
  108MOL0     C14508   4.147   2.624   7.131 -0.2784 -0.0179 -0.4982
  108MOL0     C14509   4.011   2.607   7.190  0.5888  0.0964  0.1540
  108MOL0     C14510   3.892   2.593   7.225  0.0941  1.3348 -0.1503
  108MOL0     C14511   3.746   2.787   6.711 -0.2430  0.1906 -0.0464
  108MOL0     C14512   3.608   2.818   6.692 -0.2131  0.3000 -0.9795
  108MOL0     H14513   3.138   2.669   6.840  0.8841  0.4707 -4.1784
  108MOL0     H14514   2.892   2.707   6.754  1.7983 -0.0971 -0.6395
  108MOL0     H14515   2.699   3.057   6.925 -0.2187 -0.0974  0.5844
  108MOL0     H14516   2.629   3.078   6.756 -0.3669 -1.8474 -1.3412
  108MOL0     H14517   2.459   3.003   6.893 -2.6586 -1.6958 -2.2916
  108MOL0     H14518   2.500   2.896   6.769 -2.2887  4.5734 -2.0268
  108MOL0     H14519   2.447   2.797   7.000 -0.5835 -0.3238 -1.2365
  108MOL0     H14520   2.607   2.747   6.918 -0.1678  1.4187 -0.4153
  108MOL0     H14521   2.719   2.914   7.088 -0.1729 -1.0400 -0.6201
  108MOL0     H14522   2.575   2.957   7.156  0.4049 -0.6285  2.8894
  108MOL0     H14523   2.689   2.786   7.286  0.7863 -1.6012  0.5217
  108MOL0     H14524   2.545   2.705   7.228  0.9555  1.1904  1.2984
  108MOL0     H14525   2.734   2.565   7.238 -0.4633 -2.4258 -1.2787
  108MOL0     H14526   2.719   2.604   7.054  0.6052  0.2404  0.0609
  108MOL0     H14527   2.911   2.761   7.100  1.6537 -1.6963 -0.4340
  108MOL0     H14528   2.903   2.707   7.271 -0.8848  1.4486 -0.1626
  108MOL0     H14529   2.964   2.525   7.029  1.0945 -0.2475  0.4028
  108MOL0     H14530   2.958   2.474   7.192  0.5406  0.8241  1.5758
  108MOL0     H14531   3.138   2.784   7.209  1.2408  0.3185  1.4352
  108MOL0     H14532   3.518   2.674   7.271  3.1107  2.9932  2.8856
  108MOL0     H14533   3.458   2.809   7.176 -2.2101 -0.7321 -1.4636
  108MOL0     H14534   3.503   2.822   7.434 -0.3990 -5.2461  5.2183
  108MOL0     H14535   3.356   2.730   7.453  2.2881 -0.5960  0.7713
  108MOL0     H14536   3.229   2.908   7.322  1.1011 -3.5290 -2.7320
  108MOL0     H14537   3.380   3.010   7.345  0.9936 -1.1511  1.8489
  108MOL0     H14538   3.203   2.912   7.564  1.7461  0.2890  1.0123
  108MOL0     H14539   3.212   3.078   7.504 -1.7204 -0.8567  0.7506
  108MOL0     H14540   3.152   3.129   7.711 -1.1686 -1.7353  2.0054
  108MOL0     H14541   3.070   3.324   7.877  0.4080  1.4673 -0.7648
  108MOL0     H14542   3.032   3.162   7.926 -0.0080  0.6619  1.2961
  108MOL0     H14543   3.099   3.266   8.041 -2.8317  3.8582 -1.9672
  108MOL0     H14544   3.383   3.246   8.413 -1.0487  2.0931 -0.0923
  108MOL0     H14545   3.438   3.378   8.603  0.3970  2.7387  0.9957
  108MOL0     H14546   3.614   3.647   8.805  1.3444  1.4246 -3.4949
  108MOL0     H14547   3.462   3.602   8.749  1.0358  1.9980 -5.3097
  108MOL0     H14548   3.499   3.386   8.857  1.2357 -1.5471 -0.0610
  108MOL0     H14549   3.635   3.357   8.750 -2.9706 -0.7311 -1.4755
  108MOL0     H14550   3.663   3.523   9.008  0.2064  0.7244 -0.6236
  108MOL0     H14551   3.788   3.507   8.897  0.1925  1.9199  2.9029
  108MOL0     H14552   3.634   3.272   8.999 -0.2163 -1.9660 -3.1693
  108MOL0     H14553   3.793   3.267   8.922 -1.5034  1.8572 -3.4001
  108MOL0     H14554   3.772   3.280   9.195  2.1185  0.1866  1.7759
  108MOL0     H14555   3.791   3.452   9.166  0.8234  0.4988 -0.5770
  108MOL0     H14556   3.981   3.243   9.063 -1.3291 -0.4944 -0.4998
  108MOL0     H14557   3.989   3.426   9.046  0.8702  0.6309  1.2783
  108MOL0     H14558   3.970   3.438   9.307 -3.7067 -1.3698 -1.5919
  108MOL0     H14559   4.122   3.405   9.235 -0.7461  2.6626  0.9860
  108MOL0     H14560   3.937   3.200   9.356 -0.8244  2.1873  1.0301
  108MOL0     H14561   4.083   3.260   9.432 -0.3088  0.6026  0.8211
  108MOL0     H14562   3.691   3.629   8.376  0.6452  0.1099 -1.4004
  108MOL0     H14563   3.660   3.457   8.179  0.0059 -3.0497 -0.8184
  108MOL0     H14564   3.582   3.183   7.957  0.8382  1.9547 -1.0313
  108MOL0     H14565   3.571   3.075   7.743  0.2022 -0.5694 -0.7790
  108MOL0     H14566   2.923   3.116   6.863 -1.3836 -0.0524 -0.4231
  108MOL0     H14567   3.169   3.093   6.907  0.4400 -1.8123  4.0443
  108MOL0     H14568   3.469   2.702   6.981  0.3412 -0.1512 -0.2932
  108MOL0     H14569   3.696   2.636   7.018 -1.3204  0.1281  1.4581
  108MOL0     H14570   4.036   2.686   6.702  1.3906  0.9877 -0.9300
  108MOL0     H14571   4.017   2.835   6.799  4.0864  0.4696 -3.4625
  108MOL0     H14572   4.228   2.699   6.830 -1.2253 -0.1773 -0.9298
  108MOL0     H14573   4.149   2.573   6.897 -1.9330 -1.1319  1.2326
  108MOL0     H14574   4.064   2.817   7.045 -2.0409 -2.3442  3.7647
  108MOL0     H14575   4.238   2.788   7.043  0.1077 -0.6868  0.3627
  108MOL0     H14576   4.209   2.655   7.216 -2.1019  0.9944  0.5229
  108MOL0     H14577   4.183   2.528   7.092  0.0678  0.5972 -1.7325
  108MOL0     H14578   3.791   2.587   7.259  0.2576  0.9645  0.2742
  108MOL0     H14579   3.827   2.818   6.646 -2.0846  0.3292 -2.4052
  108MOL0     H14580   3.582   2.867   6.599 -0.9638  1.6332 -0.0964
  109MOL0     O14581  10.557   7.536  11.473 -0.5687 -0.0160 -0.1730
  109MOL0     C14582  10.674   7.505  11.441 -0.9774  0.5227  0.4453
  109MOL0     O14583  10.717   7.466  11.318  0.0077  0.0907 -0.3406
  109MOL0     C14584  10.625   7.428  11.222  0.0199  0.4260 -0.0561
  109MOL0     C14585  10.568   7.299  11.227 -0.0975  0.0459  0.1719
  109MOL0     C14586  10.488   7.260  11.123  0.2206 -0.1303  0.4243
  109MOL0     C14587  10.467   7.339  11.009  0.1606 -0.3438 -0.5391
  109MOL0     O14588  10.409   7.297  10.886  0.8485 -0.9042  0.1872
  109MOL0     C14589  10.356   7.164  10.873 -0.3575 -0.6157 -0.4723
  109MOL0     C14590  10.318   7.141  10.724  0.0832  0.7608  0.3639
  109MOL0     C14591  10.454   7.146  10.637 -0.1708  0.1826 -0.3132
  109MOL0     C14592  10.440   7.099  10.495 -0.2738  0.2815 -0.4492
  109MOL0     C14593  10.562   7.117  10.409 -0.1476 -0.1133 -0.7360
  109MOL0     C14594  10.583   7.018  10.289  0.4852 -0.9492  0.4302
  109MOL0     C14595  10.598   6.873  10.342 -0.4328  0.3415  1.1836
  109MOL0     C14596  10.614   6.772  10.218  0.7349  0.3240  0.2951
  109MOL0     N14597  10.657   6.642  10.248 -0.4068 -0.1755  0.3475
  109MOL0     C14598  10.783   6.587  10.259 -0.1336 -0.7433  0.5690
  109MOL0     C14599  10.761   6.460  10.307 -0.3453 -0.0775 -0.4560
  109MOL0     C14600  10.861   6.357  10.339 -0.0623 -0.0179  0.3970
  109MOL0     C14601  10.827   6.222  10.274  0.3504 -0.2449  0.8012
  109MOL0     C14602  10.923   6.105  10.301 -0.2503  0.4867  0.1942
  109MOL0     C14603  11.039   6.110  10.201  0.2269 -0.1834 -0.2259
  109MOL0     O14604  11.102   5.977  10.205 -0.1570 -0.5601 -0.7801
  109MOL0     C14605  11.133   5.930  10.081 -0.2794 -0.1679 -0.1828
  109MOL0     C14606  11.266   5.917  10.036 -0.1356 -1.0325  0.1063
  109MOL0     C14607  11.284   5.887   9.901 -0.7250 -0.1354 -0.1797
  109MOL0     C14608  11.430   5.875   9.849  0.5265  0.4561 -0.0021
  109MOL0     C14609  11.177   5.862   9.811 -0.4011 -0.0588  0.7630
  109MOL0     C14610  11.185   5.821   9.673 -0.7619 -0.0538 -0.5028
  109MOL0     O14611  11.127   5.700   9.642  0.1420  0.1626  0.6665
  109MOL0     C14612  11.127   5.650   9.511  0.1879 -0.5352  0.5885
  109MOL0     C14613  11.079   5.732   9.402 -0.2740 -0.3468 -1.1742
  109MOL0     C14614  11.071   5.676   9.276  0.4351 -0.2466 -0.4249
  109MOL0     C14615  11.120   5.544   9.244  1.0479  0.5646 -0.5945
  109MOL0     O14616  11.123   5.511   9.110  0.9069  0.4758  0.1267
  109MOL0     C14617  11.188   5.393   9.056 -1.8407 -1.9896  0.0820
  109MOL0     C14618  11.187   5.386   8.903 -0.3482  0.6889  0.3048
  109MOL0     C14619  11.261   5.252   8.855  0.0141 -1.1391 -0.0179
  109MOL0     C14620  11.263   5.237   8.695  0.0337  0.4366 -1.2980
  109MOL0     C14621  11.329   5.104   8.642  1.2454 -1.0394 -0.7344
  109MOL0     C14622  11.262   4.980   8.711 -0.7263 -0.2901  0.5146
  109MOL0     C14623  11.114   4.969   8.677 -0.4475 -0.0978  1.4093
  109MOL0     C14624  11.096   4.920   8.538  0.5830  0.1626 -0.2903
  109MOL0    Cl14625  11.083   4.737   8.543  0.3372  0.1997 -0.3319
  109MOL0     C14626  11.186   5.481   9.353 -0.7283  0.0622  0.2007
  109MOL0     C14627  11.178   5.533   9.484 -0.5377 -0.1943 -0.1848
  109MOL0     O14628  11.252   5.883   9.589 -0.3300  0.0593  0.2375
  109MOL0     C14629  11.043   5.866   9.862  0.4349 -0.1677  0.3284
  109MOL0     C14630  11.028   5.910   9.996  0.7780 -1.6158 -0.6560
  109MOL0     N14631  10.622   6.440  10.302  0.0553  0.7187 -0.2851
  109MOL0     N14632  10.563   6.545  10.276 -0.7993  0.2875  0.3648
  109MOL0     C14633  10.530   7.463  11.003  0.2214  0.3869 -0.0900
  109MOL0     C14634  10.599   7.511  11.110  0.0177 -0.2667  0.3885
  109MOL0     C14635  10.781   7.533  11.542  0.0440  0.4128 -0.6056
  109MOL0     C14636  10.759   7.632  11.644 -0.2464  1.2838  0.4725
  109MOL0     C14637  10.860   7.663  11.742 -0.0285  0.2715 -0.1459
  109MOL0     C14638  10.973   7.586  11.758  0.2314  1.5121  0.6612
  109MOL0     O14639  11.056   7.609  11.867 -0.1844 -0.5162  0.0181
  109MOL0     C14640  11.179   7.534  11.866  0.3070 -0.2211 -1.0271
  109MOL0     C14641  11.241   7.544  12.006 -0.7148 -0.5406 -0.0312
  109MOL0     C14642  11.378   7.456  12.033  0.5305 -1.7011  0.1838
  109MOL0     C14643  11.335   7.324  12.063 -0.0250 -0.1169 -0.3301
  109MOL0     C14644  11.449   7.237  12.076  0.0246 -0.1115  0.1555
  109MOL0     C14645  11.553   7.169  12.110  0.6616  0.4124  1.3387
  109MOL0     C14646  10.988   7.489  11.660 -0.2862  0.5587  0.5455
  109MOL0     C14647  10.896   7.459  11.561  0.0196 -0.1386  0.1407
  109MOL0     H14648  10.593   7.228  11.305 -0.5395 -1.1020 -0.7040
  109MOL0     H14649  10.440   7.163  11.117 -0.9046  0.4884 -1.9657
  109MOL0     H14650  10.436   7.093  10.896 -0.9600 -0.9792  0.5800
  109MOL0     H14651  10.276   7.157  10.948 -1.7035  2.5615 -1.4532
  109MOL0     H14652  10.270   7.044  10.714  3.1507 -0.6755 -2.4575
  109MOL0     H14653  10.231   7.200  10.692 -1.0264 -1.4856 -0.9765
  109MOL0     H14654  10.506   7.242  10.646  0.0720  0.0486 -0.2757
  109MOL0     H14655  10.526   7.078  10.684 -3.5121 -3.0517  0.6345
  109MOL0     H14656  10.412   6.994  10.506  0.0002  0.3640  1.4868
  109MOL0     H14657  10.362   7.149  10.437  0.2683  0.9963 -0.5788
  109MOL0     H14658  10.550   7.218  10.369 -0.2395  0.8582  1.5902
  109MOL0     H14659  10.656   7.113  10.466 -1.5376 -0.4575  1.6570
  109MOL0     H14660  10.495   7.020  10.224 -1.3399 -2.3296  2.6914
  109MOL0     H14661  10.682   7.042  10.249  1.0861  0.5255  2.5866
  109MOL0     H14662  10.682   6.864  10.411  0.5169  0.0456  0.0068
  109MOL0     H14663  10.504   6.844  10.390  0.5567 -2.5714  1.5830
  109MOL0     H14664  10.678   6.808  10.136  0.6031  0.9376  0.4536
  109MOL0     H14665  10.511   6.754  10.186  0.2277  1.6858  1.0998
  109MOL0     H14666  10.883   6.625  10.243 -0.5207 -0.5662 -1.6739
  109MOL0     H14667  10.956   6.393  10.297  1.6100 -1.6109  2.5698
  109MOL0     H14668  10.856   6.352  10.449 -0.4186  0.5074  0.4092
  109MOL0     H14669  10.802   6.227  10.168  0.1702  1.2751  0.8990
  109MOL0     H14670  10.727   6.192  10.307 -1.1323  1.4664 -1.7772
  109MOL0     H14671  10.867   6.014  10.280 -1.6631  1.7191 -1.8132
  109MOL0     H14672  10.960   6.103  10.404  1.6622  1.2376 -0.4210
  109MOL0     H14673  11.110   6.186  10.236 -0.4729  0.3203  0.1134
  109MOL0     H14674  10.998   6.154  10.110  1.4399  1.3686 -0.0653
  109MOL0     H14675  11.337   5.937  10.115 -1.5135 -2.5521  1.8239
  109MOL0     H14676  11.503   5.917   9.920  1.5503 -2.1938  0.6274
  109MOL0     H14677  11.454   5.771   9.826  2.9053  1.2652 -1.5765
  109MOL0     H14678  11.449   5.938   9.762  2.6572  0.0651  0.1165
  109MOL0     H14679  11.048   5.833   9.426  3.7748  0.6225  0.8306
  109MOL0     H14680  11.022   5.724   9.191 -0.5035 -1.3737 -0.5410
  109MOL0     H14681  11.296   5.401   9.076 -1.6890  1.5596 -1.3576
  109MOL0     H14682  11.151   5.301   9.101 -1.9550 -2.1270 -0.2951
  109MOL0     H14683  11.081   5.389   8.877 -0.3974  1.7021  0.5792
  109MOL0     H14684  11.231   5.481   8.871  0.5526  1.6149  3.8349
  109MOL0     H14685  11.211   5.167   8.901  0.2007 -0.5560  1.3239
  109MOL0     H14686  11.366   5.255   8.887 -0.0642 -5.0646  1.1704
  109MOL0     H14687  11.160   5.239   8.658 -0.2308  0.3042 -0.5994
  109MOL0     H14688  11.318   5.321   8.653 -2.8898  3.7114  0.8459
  109MOL0     H14689  11.437   5.099   8.662  0.9640 -0.7032  0.9766
  109MOL0     H14690  11.324   5.096   8.533 -2.4189  0.8529 -0.8539
  109MOL0     H14691  11.310   4.894   8.664  3.1040  0.5842  2.4823
  109MOL0     H14692  11.274   4.968   8.819  0.7449  0.8763  0.5027
  109MOL0     H14693  11.053   5.059   8.682  1.3027  1.0847  2.6844
  109MOL0     H14694  11.069   4.899   8.748  1.1019 -0.7738  1.7807
  109MOL0     H14695  11.169   4.970   8.474  1.9796 -1.4102  0.0073
  109MOL0     H14696  10.996   4.944   8.500 -0.5929 -0.1504  2.4158
  109MOL0     H14697  11.225   5.381   9.343  1.7573  0.7134  2.2877
  109MOL0     H14698  11.210   5.477   9.571 -1.1053 -0.0152  0.1437
  109MOL0     H14699  10.964   5.841   9.791  0.8980 -0.2247 -0.1665
  109MOL0     H14700  10.923   5.922  10.023  1.3702  0.1247  1.1464
  109MOL0     H14701  10.510   7.524  10.915  4.0755  1.2252 -0.5383
  109MOL0     H14702  10.645   7.610  11.118  1.4767 -0.9205  0.4672
  109MOL0     H14703  10.668   7.691  11.654 -1.3855 -0.3316  0.1762
  109MOL0     H14704  10.852   7.741  11.817  1.2401  1.0565 -0.8023
  109MOL0     H14705  11.161   7.431  11.835 -0.1812  0.1314 -1.9723
  109MOL0     H14706  11.247   7.575  11.791  1.2365 -1.0773 -0.6760
  109MOL0     H14707  11.160   7.504  12.069 -2.0316 -0.8597 -1.8503
  109MOL0     H14708  11.254   7.652  12.016  0.0678 -0.5107 -1.2326
  109MOL0     H14709  11.437   7.491  12.118  1.9195 -0.2974 -1.3100
  109MOL0     H14710  11.442   7.462  11.945 -1.5681 -0.8862 -1.3765
  109MOL0     H14711  11.274   7.299  11.977 -2.2099  2.5834  0.2896
  109MOL0     H14712  11.268   7.322  12.149 -3.6411  0.7580 -2.9132
  109MOL0     H14713  11.637   7.103  12.126  0.1808 -0.1331  1.6465
  109MOL0     H14714  11.074   7.424  11.658 -0.2745  0.5602 -2.0776
  109MOL0     H14715  10.889   7.378  11.489 -2.9364 -1.0072  1.2467
  110MOL0     O14716   7.786   1.158   2.121 -0.0738  0.0717  0.6355
  110MOL0     C14717   7.732   1.216   2.206  0.4307 -0.5264 -0.0823
  110MOL0     O14718   7.632   1.165   2.291  0.7164 -0.1254 -0.5798
  110MOL0     C14719   7.558   1.054   2.269  0.0390 -0.0388 -0.6399
  110MOL0     C14720   7.610   0.951   2.185  0.2894 -0.1709 -1.4957
  110MOL0     C14721   7.533   0.833   2.178 -0.5499  0.5445 -0.6192
  110MOL0     C14722   7.412   0.817   2.245 -0.3323 -0.4936  0.6170
  110MOL0     O14723   7.341   0.704   2.229 -0.2804  0.7419  0.0667
  110MOL0     C14724   7.339   0.606   2.335 -0.7640  0.5479 -0.7324
  110MOL0     C14725   7.214   0.519   2.301 -0.9890  1.3128  0.1355
  110MOL0     C14726   7.094   0.603   2.333 -0.1312 -0.0972  0.5861
  110MOL0     C14727   6.954   0.551   2.269  0.5676 -0.4930 -0.6235
  110MOL0     C14728   6.924   0.409   2.329 -0.3065  0.2099 -0.3300
  110MOL0     C14729   6.914   0.402   2.478 -0.1428  0.0234  0.4447
  110MOL0     C14730   6.833   0.277   2.528 -0.7046 -0.6489 -0.0787
  110MOL0     C14731   6.800   0.288   2.676  0.5818 -0.6248  0.3147
  110MOL0     N14732   6.821   0.167   2.750 -0.3049  0.8525 -0.0427
  110MOL0     C14733   6.916   0.072   2.735 -0.6280  0.3426  0.5986
  110MOL0     C14734   6.889  -0.009   2.839  0.2170  0.3438 -0.0697
  110MOL0     C14735   6.963  -0.135   2.874 -0.4907  0.2946  0.7988
  110MOL0     C14736   7.033  -0.131   3.005  0.9458  0.3419 -0.4588
  110MOL0     C14737   7.125  -0.250   3.032 -0.2934 -0.3636  0.0944
  110MOL0     C14738   7.170  -0.246   3.178 -0.4947  0.8285 -0.2091
  110MOL0     O14739   7.052  -0.242   3.261  0.4390  0.1721 -0.2886
  110MOL0     C14740   7.068  -0.272   3.394 -0.0945  0.1704  0.3113
  110MOL0     C14741   7.181  -0.312   3.460 -0.4056 -0.0220 -0.0900
  110MOL0     C14742   7.178  -0.335   3.600 -0.3319  0.0230 -0.1870
  110MOL0     C14743   7.317  -0.358   3.669 -0.3795  0.3880  0.4940
  110MOL0     C14744   7.062  -0.288   3.677  0.4426  0.6176  0.0458
  110MOL0     C14745   7.058  -0.282   3.828  1.0130  0.0600  0.2244
  110MOL0     O14746   6.945  -0.223   3.894  0.0003  0.2012  0.4452
  110MOL0     C14747   6.920  -0.251   4.028  0.5885 -0.5515  0.5217
  110MOL0     C14748   6.908  -0.380   4.081 -0.4692  0.4697 -0.2462
  110MOL0     C14749   6.874  -0.410   4.209  0.0736 -0.6465 -0.0281
  110MOL0     C14750   6.871  -0.295   4.296 -0.4137 -0.5446  0.0347
  110MOL0     O14751   6.855  -0.310   4.434 -0.1901 -0.4373 -0.4835
  110MOL0     C14752   6.965  -0.382   4.481 -0.3930 -0.1936 -0.7827
  110MOL0     C14753   6.956  -0.387   4.640  0.9600  0.1297  0.5771
  110MOL0     C14754   6.883  -0.514   4.673 -0.0794  0.6171 -0.5350
  110MOL0     C14755   6.869  -0.539   4.823 -1.0466 -0.2427 -0.1104
  110MOL0     C14756   6.739  -0.615   4.860 -0.5551  0.9592  0.0897
  110MOL0     C14757   6.707  -0.741   4.780 -0.0683  0.5919 -0.4881
  110MOL0     C14758   6.813  -0.856   4.791 -0.4768 -0.5244 -0.1343
  110MOL0     C14759   6.761  -0.990   4.746  0.8120  0.2431 -0.9530
  110MOL0    Cl14760   6.861  -1.119   4.831 -0.0134 -0.0255  0.1420
  110MOL0     C14761   6.888  -0.164   4.246 -0.1667 -0.1525  0.7197
  110MOL0     C14762   6.916  -0.138   4.114 -0.4294 -0.1371 -0.6304
  110MOL0     O14763   7.146  -0.337   3.888 -0.1438 -0.3854  0.3463
  110MOL0     C14764   6.945  -0.250   3.604 -0.8725  0.3390  0.7048
  110MOL0     C14765   6.948  -0.240   3.462  0.1403  0.9861  0.0188
  110MOL0     N14766   6.764   0.027   2.900  0.4114 -0.0685 -0.7090
  110MOL0     N14767   6.734   0.138   2.855  1.1299 -0.9362 -0.4903
  110MOL0     C14768   7.382   0.916   2.345 -0.5362  1.0472  0.1725
  110MOL0     C14769   7.455   1.038   2.362  0.0906  0.4305 -0.0996
  110MOL0     C14770   7.777   1.349   2.252  0.4040 -0.3450 -0.1547
  110MOL0     C14771   7.893   1.400   2.199  0.0577 -0.7834  0.0084
  110MOL0     C14772   7.947   1.517   2.250  0.1186 -0.1738  0.6118
  110MOL0     C14773   7.893   1.577   2.359 -0.1029 -0.3346  0.2422
  110MOL0     O14774   7.947   1.680   2.417 -1.0031 -0.4217 -0.0515
  110MOL0     C14775   8.085   1.671   2.458 -0.1490 -0.0032  0.2167
  110MOL0     C14776   8.166   1.766   2.366 -0.1761 -0.6930  0.1778
  110MOL0     C14777   8.303   1.776   2.430 -0.3253  0.2949 -0.3362
  110MOL0     C14778   8.410   1.832   2.332  0.0970  0.6504 -0.1457
  110MOL0     C14779   8.525   1.884   2.406  0.2541 -0.0883  0.1694
  110MOL0     C14780   8.627   1.895   2.474  0.2525 -0.0619 -0.2738
  110MOL0     C14781   7.779   1.528   2.411  0.3268 -0.2620 -1.1354
  110MOL0     C14782   7.712   1.422   2.355  0.5814  0.0432  0.5214
  110MOL0     H14783   7.693   0.958   2.116 -1.8944  1.0196 -4.2378
  110MOL0     H14784   7.565   0.758   2.105 -1.0441 -0.1101 -0.1789
  110MOL0     H14785   7.436   0.555   2.342 -0.8964  0.0742 -2.0202
  110MOL0     H14786   7.326   0.667   2.424 -1.3505  0.8150 -0.9973
  110MOL0     H14787   7.213   0.480   2.199 -0.3389  0.6546  0.3711
  110MOL0     H14788   7.228   0.430   2.363  0.9666  1.9971  0.7501
  110MOL0     H14789   7.089   0.613   2.442  0.9887 -4.1926  1.1842
  110MOL0     H14790   7.097   0.701   2.285 -0.1676  0.6695  2.0761
  110MOL0     H14791   6.869   0.610   2.304  0.7751  0.6185 -1.8794
  110MOL0     H14792   6.958   0.550   2.160 -0.8097 -2.8633 -0.7053
  110MOL0     H14793   6.827   0.392   2.281 -0.4886 -0.1128  0.1510
  110MOL0     H14794   6.997   0.338   2.288 -1.3605 -1.9813  1.3632
  110MOL0     H14795   7.009   0.385   2.528 -0.2936 -2.9855 -0.1179
  110MOL0     H14796   6.875   0.497   2.517  0.4313  0.7359 -0.6695
  110MOL0     H14797   6.735   0.277   2.481  0.1540  0.4647 -1.9848
  110MOL0     H14798   6.886   0.189   2.491  1.4121 -0.7857  2.8483
  110MOL0     H14799   6.699   0.327   2.689 -0.3700 -2.8550  0.1104
  110MOL0     H14800   6.874   0.355   2.720  2.7025  0.6634 -4.5064
  110MOL0     H14801   7.000   0.081   2.668 -0.3183 -2.0595  0.6103
  110MOL0     H14802   6.889  -0.213   2.893 -0.8020 -0.4048 -2.5943
  110MOL0     H14803   7.030  -0.167   2.794  0.9640  1.5486  1.4713
  110MOL0     H14804   6.951  -0.139   3.077  0.1077  0.2824 -1.3887
  110MOL0     H14805   7.084  -0.039   3.033  0.7282 -0.1864  1.8630
  110MOL0     H14806   7.217  -0.242   2.973  0.6129  1.6555  1.6525
  110MOL0     H14807   7.074  -0.345   3.015  0.0856 -0.4794 -0.4046
  110MOL0     H14808   7.233  -0.157   3.185 -3.1908  3.1059 -2.5077
  110MOL0     H14809   7.228  -0.338   3.196 -4.1732 -1.4515  1.2828
  110MOL0     H14810   7.274  -0.330   3.408 -1.1841 -2.4481 -0.7672
  110MOL0     H14811   7.324  -0.449   3.730 -4.1707 -0.1254  0.3633
  110MOL0     H14812   7.392  -0.374   3.591 -0.2750 -2.5107  1.0666
  110MOL0     H14813   7.346  -0.270   3.727  0.6310  3.3178 -3.9798
  110MOL0     H14814   6.913  -0.468   4.016 -0.4043  0.8207 -0.7255
  110MOL0     H14815   6.878  -0.510   4.252 -0.8533  0.4996  2.9388
  110MOL0     H14816   6.965  -0.484   4.442  0.7233 -0.0225 -1.2687
  110MOL0     H14817   7.056  -0.326   4.455  0.3301 -0.2215  1.4069
  110MOL0     H14818   7.062  -0.380   4.668  0.7725  2.8670  0.8783
  110MOL0     H14819   6.902  -0.306   4.690  0.5944  0.1087  0.2241
  110MOL0     H14820   6.942  -0.601   4.644  1.3779 -0.3884  4.5211
  110MOL0     H14821   6.792  -0.520   4.612  0.2896  1.4643 -1.1911
  110MOL0     H14822   6.947  -0.605   4.860 -1.3076 -0.2363  0.4647
  110MOL0     H14823   6.880  -0.442   4.874 -0.2431 -1.0472  1.3154
  110MOL0     H14824   6.654  -0.546   4.861 -1.6610 -0.3650  1.1934
  110MOL0     H14825   6.740  -0.649   4.964 -0.7715  1.8080  0.3751
  110MOL0     H14826   6.608  -0.777   4.810 -0.3386  1.0881 -0.7651
  110MOL0     H14827   6.684  -0.718   4.676  0.5191  2.9264 -0.1656
  110MOL0     H14828   6.854  -0.871   4.892 -1.5328  2.2802  0.8337
  110MOL0     H14829   6.897  -0.818   4.732 -0.6991  1.6948  0.8398
  110MOL0     H14830   6.780  -1.012   4.640 -2.6569 -1.9528 -1.2620
  110MOL0     H14831   6.656  -0.987   4.774  0.8666  3.8206 -0.6602
  110MOL0     H14832   6.906  -0.085   4.318  1.2487  2.1176 -1.9074
  110MOL0     H14833   6.938  -0.038   4.078  1.7796 -0.5507 -0.5475
  110MOL0     H14834   6.855  -0.215   3.654 -0.9146  0.3281  0.6374
  110MOL0     H14835   6.871  -0.185   3.408 -0.4198  1.9072  1.6717
  110MOL0     H14836   7.303   0.881   2.410 -2.2262 -2.1809 -3.2275
  110MOL0     H14837   7.438   1.108   2.442 -0.7487  0.2065 -0.0782
  110MOL0     H14838   7.936   1.355   2.110  0.1084  0.9166 -0.8836
  110MOL0     H14839   8.036   1.558   2.202 -0.2691 -0.6973 -0.6054
  110MOL0     H14840   8.089   1.713   2.559  2.4476 -1.5537  0.8493
  110MOL0     H14841   8.118   1.567   2.466  2.0821  0.5468 -1.0475
  110MOL0     H14842   8.118   1.864   2.372 -0.5413 -0.7092 -1.7529
  110MOL0     H14843   8.161   1.733   2.261  0.4865 -3.0581  0.8231
  110MOL0     H14844   8.321   1.674   2.466 -0.7440  1.3141  3.0828
  110MOL0     H14845   8.300   1.847   2.513 -0.3806  0.9477 -0.8922
  110MOL0     H14846   8.365   1.907   2.266  2.0584  0.3385 -1.9482
  110MOL0     H14847   8.457   1.764   2.260  1.5243  0.2153  1.1488
  110MOL0     H14848   8.706   1.893   2.545 -0.8194  1.8530  1.0746
  110MOL0     H14849   7.733   1.592   2.485 -1.7205 -1.3471 -1.3920
  110MOL0     H14850   7.616   1.399   2.398  0.2827  2.8266  1.5090
  111MOL0     O14851  10.756   5.281   1.848  0.4636 -0.5778 -0.3279
  111MOL0     C14852  10.707   5.366   1.922 -0.6084  0.0543 -0.6713
  111MOL0     O14853  10.764   5.482   1.965 -0.5658 -0.6302  0.1017
  111MOL0     C14854  10.899   5.498   1.978  0.5611 -0.5750 -0.8753
  111MOL0     C14855  10.995   5.415   1.921  0.6375  0.0828 -0.1742
  111MOL0     C14856  11.132   5.434   1.941 -0.0386 -0.2031  0.0678
  111MOL0     C14857  11.180   5.537   2.026  0.2130 -0.4024  0.3220
  111MOL0     O14858  11.316   5.553   2.037  0.2279  0.4772 -0.2285
  111MOL0     C14859  11.384   5.630   2.140 -0.1476  0.2356 -0.6069
  111MOL0     C14860  11.496   5.708   2.083  1.3121  0.2214  1.1946
  111MOL0     C14861  11.548   5.801   2.183  1.0761 -0.4217 -0.0919
  111MOL0     C14862  11.690   5.851   2.143  0.9241 -0.5793 -0.1539
  111MOL0     C14863  11.756   5.933   2.249  0.7633  0.8620  0.4228
  111MOL0     C14864  11.680   6.056   2.292 -0.0453 -0.9202 -0.7332
  111MOL0     C14865  11.760   6.146   2.383  0.8708 -0.3073 -0.2809
  111MOL0     C14866  11.661   6.263   2.427 -0.1182  0.7667 -0.4854
  111MOL0     N14867  11.529   6.216   2.458  1.0080 -0.8036 -0.2151
  111MOL0     C14868  11.502   6.139   2.565 -0.4332 -0.1957 -0.3680
  111MOL0     C14869  11.368   6.123   2.559 -0.2138 -1.2217 -0.6340
  111MOL0     C14870  11.286   6.021   2.637  0.7407 -0.3319  0.2618
  111MOL0     C14871  11.254   5.890   2.552 -0.3584  0.4914 -0.0731
  111MOL0     C14872  11.382   5.807   2.529  0.2211 -0.2536 -0.6117
  111MOL0     C14873  11.399   5.689   2.624 -0.4761  0.6121  0.3785
  111MOL0     O14874  11.536   5.635   2.628  0.2440 -0.0933  0.4013
  111MOL0     C14875  11.562   5.513   2.672 -0.3688  0.3531  0.1232
  111MOL0     C14876  11.684   5.449   2.630 -0.2366  0.4616  1.0598
  111MOL0     C14877  11.712   5.317   2.677 -1.1572  0.0349 -0.5467
  111MOL0     C14878  11.846   5.267   2.626 -0.4320  0.2093  0.1841
  111MOL0     C14879  11.629   5.252   2.766  0.7334 -0.1474 -0.1556
  111MOL0     C14880  11.665   5.126   2.838  0.8162  0.0696  0.1601
  111MOL0     O14881  11.557   5.071   2.897  0.5498  0.0561 -0.9676
  111MOL0     C14882  11.578   4.938   2.932 -0.6788 -0.5894  0.1004
  111MOL0     C14883  11.559   4.825   2.852  0.3772  0.7862  0.7538
  111MOL0     C14884  11.586   4.699   2.906  0.1143  0.3237  0.3788
  111MOL0     C14885  11.621   4.683   3.032 -0.1867  0.4416  0.1370
  111MOL0     O14886  11.649   4.548   3.059  0.0028  1.0498 -1.0876
  111MOL0     C14887  11.745   4.527   3.164 -1.0375 -0.3488  0.2488
  111MOL0     C14888  11.805   4.382   3.172 -0.0524 -0.4742 -0.3680
  111MOL0     C14889  11.866   4.335   3.029  0.8572 -0.4331 -0.7500
  111MOL0     C14890  12.001   4.402   2.984  0.5535  0.6223  0.3868
  111MOL0     C14891  12.026   4.350   2.844  0.6294  0.6434 -0.1907
  111MOL0     C14892  11.944   4.391   2.728  0.3552  0.0704 -0.1696
  111MOL0     C14893  11.941   4.272   2.630 -0.4810  0.0083  0.6406
  111MOL0     C14894  11.811   4.189   2.657 -0.1083  0.5689 -0.5961
  111MOL0    Cl14895  11.812   4.085   2.798  0.3842 -0.3094 -0.0459
  111MOL0     C14896  11.628   4.796   3.109 -0.9313  0.8697 -1.0293
  111MOL0     C14897  11.604   4.917   3.061  0.3926 -0.9835 -0.4067
  111MOL0     O14898  11.776   5.093   2.860  0.2121 -0.7407  0.2084
  111MOL0     C14899  11.504   5.310   2.798  1.0841 -0.3598 -0.3677
  111MOL0     C14900  11.478   5.441   2.753  0.1563 -0.2931 -0.9626
  111MOL0     N14901  11.316   6.186   2.449 -1.1695  0.1194  0.7216
  111MOL0     N14902  11.418   6.247   2.391  0.3854  0.4092  0.2738
  111MOL0     C14903  11.084   5.622   2.087 -0.5226 -0.8266  0.3745
  111MOL0     C14904  10.946   5.599   2.070 -0.0945  0.8705 -0.2187
  111MOL0     C14905  10.569   5.359   1.964  1.0117 -0.0741 -0.9834
  111MOL0     C14906  10.507   5.463   2.040  0.4108 -0.6207 -0.8745
  111MOL0     C14907  10.371   5.466   2.069  1.3921  0.4835  0.3086
  111MOL0     C14908  10.289   5.359   2.033 -0.1148 -0.6688 -1.0443
  111MOL0     O14909  10.157   5.365   2.048 -0.5527 -1.1863  0.0839
  111MOL0     C14910  10.115   5.364   2.188  0.0243 -0.1659  0.8704
  111MOL0     C14911   9.966   5.366   2.205 -0.0163  0.0812  0.0389
  111MOL0     C14912   9.889   5.278   2.107 -1.8719  0.8241 -0.2222
  111MOL0     C14913   9.743   5.272   2.130  0.4949 -0.1573 -0.0342
  111MOL0     C14914   9.677   5.217   2.008  0.5955 -0.2253  0.5022
  111MOL0     C14915   9.638   5.168   1.899  0.2863  0.1516 -0.1093
  111MOL0     C14916  10.344   5.246   1.967 -0.1177 -0.4608 -0.8067
  111MOL0     C14917  10.479   5.247   1.934 -1.2849  0.4973 -0.2686
  111MOL0     H14918  10.995   5.330   1.853  0.4893  0.3493 -0.5080
  111MOL0     H14919  11.198   5.361   1.895 -0.0695 -1.0860  1.3467
  111MOL0     H14920  11.318   5.707   2.181  1.1706  1.0197  0.1187
  111MOL0     H14921  11.416   5.568   2.224 -0.8225  0.8374  0.1001
  111MOL0     H14922  11.569   5.629   2.062  1.8065  0.3805  2.2230
  111MOL0     H14923  11.481   5.756   1.986  4.8865  2.1013  1.4283
  111MOL0     H14924  11.488   5.891   2.197  1.9005  0.1619 -0.2342
  111MOL0     H14925  11.550   5.746   2.278  0.4129  0.5465  0.4995
  111MOL0     H14926  11.754   5.770   2.108 -0.4382 -0.5864 -2.9443
  111MOL0     H14927  11.671   5.912   2.054  0.8884 -0.0674  0.2039
  111MOL0     H14928  11.772   5.876   2.341  1.4300 -1.5950 -1.1393
  111MOL0     H14929  11.851   5.966   2.206  1.1447 -2.3394 -1.5078
  111MOL0     H14930  11.652   6.113   2.203 -0.8860 -2.0037 -1.1750
  111MOL0     H14931  11.587   6.034   2.343 -2.7787  3.6686 -3.0153
  111MOL0     H14932  11.791   6.106   2.481  2.3939  0.5566 -0.3763
  111MOL0     H14933  11.848   6.192   2.337  0.5748  1.3385  0.7189
  111MOL0     H14934  11.646   6.326   2.339  0.4699  1.9819  0.2582
  111MOL0     H14935  11.699   6.328   2.507 -2.1642  0.8735  0.4609
  111MOL0     H14936  11.577   6.084   2.620  1.1728  0.9150 -1.3620
  111MOL0     H14937  11.341   5.996   2.729 -0.1772  1.4100  1.3430
  111MOL0     H14938  11.191   6.059   2.676  0.1472 -2.4239  1.0168
  111MOL0     H14939  11.198   5.910   2.459  2.2425  2.0731 -1.4177
  111MOL0     H14940  11.189   5.823   2.610 -0.8539  0.2277 -0.9047
  111MOL0     H14941  11.474   5.866   2.526  0.2909 -0.3965 -1.9193
  111MOL0     H14942  11.373   5.755   2.433 -3.0331 -2.8010  0.8763
  111MOL0     H14943  11.331   5.609   2.596 -0.5518  0.5528  0.7253
  111MOL0     H14944  11.376   5.712   2.728  3.2738 -3.0679  2.3083
  111MOL0     H14945  11.742   5.504   2.557 -0.9157 -0.2169 -0.0111
  111MOL0     H14946  11.866   5.314   2.529 -0.4026 -0.5267 -0.1740
  111MOL0     H14947  11.931   5.290   2.690 -1.3132  2.1985  0.7114
  111MOL0     H14948  11.852   5.161   2.601  0.4963  0.1360  0.6717
  111MOL0     H14949  11.520   4.848   2.754  2.4676 -0.6008 -0.4935
  111MOL0     H14950  11.568   4.601   2.864  0.3578 -0.3033  1.6904
  111MOL0     H14951  11.825   4.601   3.161 -2.1727  0.9943  1.3642
  111MOL0     H14952  11.686   4.550   3.253 -0.3627 -1.8445  1.1163
  111MOL0     H14953  11.860   4.367   3.265 -1.8065  3.4939  1.5723
  111MOL0     H14954  11.713   4.327   3.194 -1.8876  2.8532  1.0670
  111MOL0     H14955  11.779   4.350   2.963  0.4442 -1.6219 -0.4985
  111MOL0     H14956  11.873   4.227   3.042  1.2245 -0.5489 -1.8332
  111MOL0     H14957  11.986   4.510   2.973 -0.2422  0.5597  0.7962
  111MOL0     H14958  12.075   4.371   3.059  1.9835  0.3174 -1.0881
  111MOL0     H14959  12.014   4.241   2.849  1.9995  0.5039  0.4120
  111MOL0     H14960  12.129   4.352   2.807 -0.1714 -2.2407 -3.0622
  111MOL0     H14961  11.845   4.436   2.736  1.6676  3.2429 -0.4714
  111MOL0     H14962  12.000   4.464   2.669 -0.0579 -0.4874 -1.2909
  111MOL0     H14963  12.023   4.200   2.634 -1.5556 -1.6027 -2.6456
  111MOL0     H14964  11.938   4.297   2.523 -0.1710 -1.5942  0.2210
  111MOL0     H14965  11.784   4.127   2.571 -0.6962  1.2739 -0.9289
  111MOL0     H14966  11.725   4.256   2.673 -0.4929 -0.1270  0.3978
  111MOL0     H14967  11.639   4.789   3.217  0.9025 -1.0671 -1.2846
  111MOL0     H14968  11.595   5.006   3.123 -3.5084 -1.0596 -0.6326
  111MOL0     H14969  11.429   5.270   2.866 -0.3804 -0.2203 -1.8249
  111MOL0     H14970  11.391   5.489   2.795  2.6032  2.5716  1.3106
  111MOL0     H14971  11.114   5.706   2.149  3.4015 -2.7000  1.3320
  111MOL0     H14972  10.872   5.659   2.123 -1.8239  0.5188 -2.1337
  111MOL0     H14973  10.568   5.550   2.063  0.7232 -0.2179 -3.0566
  111MOL0     H14974  10.309   5.550   2.100 -0.0516 -0.0632 -0.9858
  111MOL0     H14975  10.164   5.282   2.241  1.8480  2.4942  3.6124
  111MOL0     H14976  10.164   5.443   2.246  1.4845 -0.2878 -0.1376
  111MOL0     H14977   9.922   5.466   2.198 -0.3712 -0.0506  0.3287
  111MOL0     H14978   9.941   5.340   2.308 -2.9610 -2.9663 -1.2439
  111MOL0     H14979   9.933   5.178   2.112  1.5416  2.1309 -1.4084
  111MOL0     H14980   9.913   5.308   2.005  2.1138  0.6463  0.4984
  111MOL0     H14981   9.706   5.375   2.136  3.5527  1.1896 -1.6743
  111MOL0     H14982   9.708   5.222   2.221 -3.2107  3.5779  0.8609
  111MOL0     H14983   9.608   5.130   1.803  1.8761 -0.4117 -0.4187
  111MOL0     H14984  10.273   5.168   1.942  0.8107 -0.5170 -3.6344
  111MOL0     H14985  10.525   5.164   1.880 -1.1840  1.3175 -1.4712
  112MOL0     O14986   6.760   3.497   2.131 -0.3851  0.2985 -0.1013
  112MOL0     C14987   6.658   3.502   2.074  0.6942  0.0341  0.2266
  112MOL0     O14988   6.616   3.604   1.997 -0.8256  0.8912  0.0170
  112MOL0     C14989   6.689   3.719   1.997 -1.0807  0.3408  0.0970
  112MOL0     C14990   6.634   3.838   2.030  0.5340 -0.4683  0.1550
  112MOL0     C14991   6.702   3.958   2.026  0.4786  0.5916 -0.3202
  112MOL0     C14992   6.841   3.964   1.987  0.5462  0.5062 -0.9014
  112MOL0     O14993   6.916   4.069   2.010 -0.5128  0.2421 -0.2532
  112MOL0     C14994   6.854   4.197   2.023 -0.9318  0.3886 -0.2567
  112MOL0     C14995   6.825   4.232   2.166 -0.4876  0.1733  0.5000
  112MOL0     C14996   6.946   4.309   2.222  0.8695 -0.6092  0.9310
  112MOL0     C14997   6.944   4.314   2.377 -0.5808  0.6550 -0.1387
  112MOL0     C14998   7.081   4.338   2.434 -1.1726  0.5632 -0.1999
  112MOL0     C14999   7.163   4.452   2.371 -0.4243  0.5240  0.0126
  112MOL0     C15000   7.305   4.456   2.421  0.0453 -0.2924 -0.4261
  112MOL0     C15001   7.366   4.327   2.398 -0.6377 -0.0930 -0.7485
  112MOL0     N15002   7.513   4.341   2.406 -0.1497  0.2796  1.0268
  112MOL0     C15003   7.574   4.320   2.526  0.1194  0.2662 -0.0423
  112MOL0     C15004   7.709   4.319   2.499  0.3000  0.3893 -0.0603
  112MOL0     C15005   7.810   4.313   2.613  1.2361  0.3363  0.8174
  112MOL0     C15006   7.860   4.164   2.632 -1.1197  0.0301 -0.1325
  112MOL0     C15007   7.927   4.106   2.507 -1.0958  0.3969 -1.3087
  112MOL0     C15008   8.013   3.982   2.545  1.0048 -0.4914 -0.7885
  112MOL0     O15009   7.926   3.897   2.615  0.5121  0.1959 -0.1322
  112MOL0     C15010   7.970   3.775   2.669  0.0996  0.4048  0.5797
  112MOL0     C15011   8.109   3.730   2.673  0.4903 -0.0028  0.1827
  112MOL0     C15012   8.146   3.599   2.702 -0.4488  0.8767  0.4563
  112MOL0     C15013   8.301   3.576   2.722  0.9096  0.6260  0.4085
  112MOL0     C15014   8.048   3.498   2.722  0.9056 -0.4834 -0.2110
  112MOL0     C15015   8.069   3.354   2.746  0.1314 -0.4027  0.5397
  112MOL0     O15016   7.969   3.281   2.796 -0.2435 -0.5200  0.2098
  112MOL0     C15017   7.983   3.138   2.785  0.3740 -0.2304 -0.0765
  112MOL0     C15018   8.041   3.064   2.895 -0.6915 -0.8021  0.8017
  112MOL0     C15019   8.046   2.921   2.895 -0.1456 -0.3598  0.1134
  112MOL0     C15020   7.996   2.849   2.787  0.5757  1.0013 -1.0949
  112MOL0     O15021   7.996   2.712   2.809  0.1339 -0.1774  0.3312
  112MOL0     C15022   7.902   2.634   2.727  0.7509 -0.2104 -0.7880
  112MOL0     C15023   7.904   2.490   2.780 -0.0867  0.0659  0.1840
  112MOL0     C15024   7.826   2.387   2.699 -0.3622 -0.3523 -0.3050
  112MOL0     C15025   7.778   2.263   2.788 -0.2680 -0.1560  0.7837
  112MOL0     C15026   7.725   2.151   2.701 -0.0045 -0.0011 -0.5893
  112MOL0     C15027   7.684   2.029   2.785 -0.1807  0.5347  0.2793
  112MOL0     C15028   7.594   1.924   2.713 -0.2086  0.1866 -0.2440
  112MOL0     C15029   7.575   1.797   2.781  0.9608 -0.0957 -0.6283
  112MOL0    Cl15030   7.482   1.824   2.937 -0.2233  0.4200  0.6295
  112MOL0     C15031   7.950   2.918   2.672  0.0721 -0.0241 -0.1477
  112MOL0     C15032   7.937   3.063   2.675  0.3068  0.0343 -0.5001
  112MOL0     O15033   8.180   3.313   2.705 -0.4336  0.4392  0.1540
  112MOL0     C15034   7.916   3.540   2.725  0.9507  0.1897  0.0041
  112MOL0     C15035   7.878   3.676   2.699 -0.2899 -0.5474  0.1999
  112MOL0     N15036   7.723   4.333   2.363  0.3308  0.0070  0.4450
  112MOL0     N15037   7.598   4.345   2.304 -0.5276  0.8227  0.3914
  112MOL0     C15038   6.899   3.840   1.951 -0.4284 -0.1597 -0.5166
  112MOL0     C15039   6.819   3.719   1.959 -0.6316  0.2469  0.6651
  112MOL0     C15040   6.564   3.387   2.086  0.3364 -0.2960  0.1268
  112MOL0     C15041   6.601   3.278   2.154 -0.0368  0.8294  0.0668
  112MOL0     C15042   6.523   3.161   2.153 -1.1356  0.3126 -0.4177
  112MOL0     C15043   6.404   3.147   2.077 -0.5269 -0.4465  0.3586
  112MOL0     O15044   6.324   3.037   2.065  1.5804 -0.5575  0.5836
  112MOL0     C15045   6.364   2.909   2.111  0.3141  0.3218 -0.3236
  112MOL0     C15046   6.305   2.807   2.015 -0.7623 -0.4466  0.1880
  112MOL0     C15047   6.150   2.790   2.013 -1.1104 -0.4998  0.5686
  112MOL0     C15048   6.118   2.675   1.918  0.1562 -0.2191  0.5196
  112MOL0     C15049   5.988   2.679   1.856  0.1955  0.9492  0.8777
  112MOL0     C15050   5.883   2.681   1.797  1.2598  1.2452 -0.3857
  112MOL0     C15051   6.368   3.263   2.017  0.5633  0.2232  0.3111
  112MOL0     C15052   6.442   3.379   2.014  0.7295 -0.5340 -0.0504
  112MOL0     H15053   6.532   3.837   2.065  0.0653  2.5077 -0.7721
  112MOL0     H15054   6.659   4.052   2.058  0.6600  0.6957 -0.3770
  112MOL0     H15055   6.932   4.258   1.978 -1.3341  1.8934  1.0224
  112MOL0     H15056   6.772   4.215   1.952 -1.3038 -1.0531 -0.2409
  112MOL0     H15057   6.732   4.289   2.164 -0.5003  0.1968 -2.0893
  112MOL0     H15058   6.816   4.138   2.221  2.8148 -1.3948 -1.3652
  112MOL0     H15059   7.045   4.275   2.192 -0.1805 -2.7231 -0.3659
  112MOL0     H15060   6.941   4.415   2.197  1.8650 -0.9943 -1.0954
  112MOL0     H15061   6.886   4.401   2.409  2.0109  1.7291  2.0740
  112MOL0     H15062   6.886   4.234   2.423 -1.7197  1.6232  0.1447
  112MOL0     H15063   7.067   4.353   2.541 -1.7446  2.9675 -0.5570
  112MOL0     H15064   7.129   4.241   2.417 -2.2737 -0.2792  1.2810
  112MOL0     H15065   7.154   4.456   2.262 -0.9489 -1.3669 -0.0438
  112MOL0     H15066   7.100   4.535   2.404 -1.7052  0.1534 -1.3793
  112MOL0     H15067   7.362   4.536   2.373  1.6666 -2.0060 -1.4891
  112MOL0     H15068   7.311   4.491   2.525  0.1547 -0.9022 -0.2238
  112MOL0     H15069   7.335   4.301   2.297 -0.0719  1.7370 -1.4339
  112MOL0     H15070   7.342   4.251   2.473 -1.3090 -0.2688 -1.1373
  112MOL0     H15071   7.532   4.291   2.621  0.2072 -1.2885 -0.4488
  112MOL0     H15072   7.898   4.372   2.588 -0.0504  2.1890  0.4782
  112MOL0     H15073   7.753   4.362   2.693 -1.6828  1.2467 -1.5944
  112MOL0     H15074   7.792   4.085   2.665  0.9425 -2.4427 -1.4876
  112MOL0     H15075   7.930   4.181   2.715 -3.1651  2.7639  1.1976
  112MOL0     H15076   7.983   4.183   2.453  0.3632 -0.5836 -1.2359
  112MOL0     H15077   7.852   4.083   2.431 -0.7690  2.7811 -2.4402
  112MOL0     H15078   8.096   4.006   2.611  0.9447 -1.6413 -0.2589
  112MOL0     H15079   8.057   3.932   2.458  1.7416 -1.7779  0.2809
  112MOL0     H15080   8.175   3.813   2.650 -2.2358  1.2870 -4.3567
  112MOL0     H15081   8.350   3.673   2.728  2.1801  0.0981 -0.9398
  112MOL0     H15082   8.314   3.524   2.818 -0.9115  1.1660  1.0049
  112MOL0     H15083   8.340   3.506   2.648 -3.2662  0.3516 -1.8412
  112MOL0     H15084   8.090   3.130   2.965  0.2338  0.4341 -0.9470
  112MOL0     H15085   8.095   2.875   2.980  0.7622 -0.6597 -0.5433
  112MOL0     H15086   7.805   2.679   2.748 -0.1251 -2.1101 -0.6301
  112MOL0     H15087   7.919   2.635   2.619 -1.3891  0.4017 -1.1622
  112MOL0     H15088   8.010   2.467   2.797  0.5541  1.1427 -1.9097
  112MOL0     H15089   7.842   2.496   2.869 -3.7266 -1.1637 -2.0634
  112MOL0     H15090   7.897   2.352   2.624  3.2422  0.7494  2.3217
  112MOL0     H15091   7.740   2.432   2.649 -0.7543 -2.1462 -1.3226
  112MOL0     H15092   7.858   2.219   2.849  2.0646  1.4298 -0.9633
  112MOL0     H15093   7.706   2.303   2.860  0.6196 -1.3385  2.4026
  112MOL0     H15094   7.803   2.128   2.627  1.8848  2.1038  0.5943
  112MOL0     H15095   7.640   2.193   2.646  0.7592  0.6110 -1.3356
  112MOL0     H15096   7.773   1.975   2.817  0.3113  1.5544  0.6699
  112MOL0     H15097   7.630   2.060   2.875 -1.6257 -3.9112  1.1759
  112MOL0     H15098   7.634   1.901   2.614 -1.4759 -0.9578 -0.5174
  112MOL0     H15099   7.496   1.971   2.711 -0.0128  0.6157 -2.5622
  112MOL0     H15100   7.671   1.760   2.819  2.1305  1.7287 -1.6691
  112MOL0     H15101   7.525   1.725   2.716 -0.7435 -0.6899  1.2541
  112MOL0     H15102   7.897   2.871   2.590 -1.0719  2.1689 -0.7662
  112MOL0     H15103   7.890   3.115   2.593  0.6330  0.0495 -0.6762
  112MOL0     H15104   7.838   3.465   2.728 -1.1455  2.2787  0.7242
  112MOL0     H15105   7.774   3.706   2.702 -0.1796  0.4233 -2.5042
  112MOL0     H15106   7.006   3.834   1.934  1.0133  3.2086  4.8571
  112MOL0     H15107   6.856   3.623   1.925  1.6219  1.3757 -0.3149
  112MOL0     H15108   6.692   3.266   2.212 -0.7530 -0.5667  0.9658
  112MOL0     H15109   6.556   3.079   2.216 -1.1117 -0.0527 -0.9006
  112MOL0     H15110   6.474   2.910   2.114  0.4878  2.3730 -3.2370
  112MOL0     H15111   6.326   2.886   2.211  1.5178 -0.5894 -0.0505
  112MOL0     H15112   6.353   2.710   2.033  0.5276  0.2261  0.4914
  112MOL0     H15113   6.340   2.834   1.916  1.8503  1.2782  1.4645
  112MOL0     H15114   6.099   2.880   1.979 -0.2144 -0.4177 -0.6422
  112MOL0     H15115   6.101   2.768   2.108  0.5071  0.7569  1.7483
  112MOL0     H15116   6.134   2.579   1.968  1.1789  0.7741  2.2270
  112MOL0     H15117   6.193   2.682   1.838  0.5838  0.2431  0.9480
  112MOL0     H15118   5.788   2.691   1.747  1.0620 -0.4483 -0.3987
  112MOL0     H15119   6.279   3.279   1.958  1.2768 -0.5775 -1.0237
  112MOL0     H15120   6.401   3.458   1.951  1.8790 -0.1549 -0.3424
  113MOL0     O15121   6.567   2.973   0.481  0.5099 -0.5436 -0.0061
  113MOL0     C15122   6.505   3.047   0.562  0.2499 -0.0083  0.9233
  113MOL0     O15123   6.371   3.038   0.591  0.1225  0.0648 -0.3937
  113MOL0     C15124   6.290   2.972   0.500 -0.2402  0.3328 -0.9818
  113MOL0     C15125   6.198   2.887   0.561  0.0139 -0.1368  0.0131
  113MOL0     C15126   6.108   2.812   0.490  0.4297  0.0463  0.2107
  113MOL0     C15127   6.126   2.812   0.356 -0.1324  0.0093  0.6273
  113MOL0     O15128   6.056   2.733   0.271 -0.6042  0.2257  0.1673
  113MOL0     C15129   6.058   2.598   0.296  0.2730  0.9806  0.2577
  113MOL0     C15130   6.191   2.539   0.318 -0.3528  0.4027 -0.4122
  113MOL0     C15131   6.176   2.385   0.369  0.1595 -0.4788 -0.0050
  113MOL0     C15132   6.210   2.372   0.519 -0.4582 -0.0121  0.0296
  113MOL0     C15133   6.198   2.226   0.571  0.4631  0.3043 -0.0730
  113MOL0     C15134   6.334   2.155   0.540  0.0176  0.2932 -0.1565
  113MOL0     C15135   6.348   2.024   0.619 -0.4489  0.2631  0.0408
  113MOL0     C15136   6.250   1.913   0.579  0.3888 -1.6711  0.9750
  113MOL0     N15137   6.278   1.800   0.657 -0.2489  0.5880 -0.0545
  113MOL0     C15138   6.209   1.766   0.772 -0.5070 -0.1040 -0.1687
  113MOL0     C15139   6.268   1.659   0.806 -0.3758  1.6537 -1.0312
  113MOL0     C15140   6.259   1.601   0.940  0.0330  0.2215  0.2160
  113MOL0     C15141   6.171   1.478   0.962 -0.0683 -0.5160 -0.5151
  113MOL0     C15142   6.215   1.369   1.067  0.3531  0.5258  0.4917
  113MOL0     C15143   6.224   1.436   1.209 -0.6026  0.9676  0.6480
  113MOL0     O15144   6.118   1.526   1.237  0.7229 -0.0703 -1.0381
  113MOL0     C15145   5.981   1.488   1.222 -0.3866 -0.3560  0.2303
  113MOL0     C15146   5.922   1.356   1.228  0.2062 -0.4824 -0.4648
  113MOL0     C15147   5.781   1.325   1.236  0.5230  0.0508  0.3102
  113MOL0     C15148   5.732   1.192   1.278  0.0331  0.2173  1.1776
  113MOL0     C15149   5.693   1.434   1.231 -0.8690 -0.0121 -0.6540
  113MOL0     C15150   5.548   1.412   1.250 -0.2215 -0.2898 -0.7911
  113MOL0     O15151   5.496   1.344   1.360  0.3034  0.3201  0.5054
  113MOL0     C15152   5.364   1.320   1.348 -0.5486  0.8651 -0.0099
  113MOL0     C15153   5.265   1.418   1.369 -0.2702  0.3709  0.5879
  113MOL0     C15154   5.130   1.395   1.333 -0.0748  0.6924  1.7887
  113MOL0     C15155   5.093   1.274   1.270  0.0976 -0.3912 -0.8142
  113MOL0     O15156   4.971   1.257   1.214 -0.4299 -0.5662  1.1376
  113MOL0     C15157   4.855   1.335   1.243 -0.3804  0.1673 -0.0374
  113MOL0     C15158   4.795   1.271   1.372  0.4138 -0.0831 -0.2615
  113MOL0     C15159   4.673   1.349   1.435 -0.1710  0.5259  0.1987
  113MOL0     C15160   4.719   1.481   1.501  0.4441 -0.1197 -0.0407
  113MOL0     C15161   4.635   1.505   1.626  0.5996  0.5543 -0.2960
  113MOL0     C15162   4.706   1.445   1.748  0.1397  0.1125  0.5640
  113MOL0     C15163   4.604   1.408   1.863  0.3204 -0.1449 -0.0864
  113MOL0     C15164   4.666   1.341   1.984  0.5111  0.3217  0.0510
  113MOL0    Cl15165   4.711   1.175   1.944 -0.0177  0.6755  0.1787
  113MOL0     C15166   5.193   1.176   1.275 -0.1523  0.7315  0.1337
  113MOL0     C15167   5.323   1.197   1.303 -0.2667 -0.3159  0.1170
  113MOL0     O15168   5.483   1.433   1.146  0.6138 -0.9676  0.6514
  113MOL0     C15169   5.749   1.568   1.219  0.9134 -0.7614  0.0685
  113MOL0     C15170   5.885   1.588   1.212 -0.5438 -0.1691 -0.5053
  113MOL0     N15171   6.358   1.623   0.707  1.0871  0.8344  0.9500
  113MOL0     N15172   6.360   1.703   0.613  0.3313 -0.4009  0.6456
  113MOL0     C15173   6.199   2.911   0.287 -0.4386  0.2920 -0.3194
  113MOL0     C15174   6.292   2.993   0.365 -0.2311 -0.4794  0.3038
  113MOL0     C15175   6.573   3.148   0.639 -0.4433 -0.4403 -0.3973
  113MOL0     C15176   6.508   3.255   0.704  0.1077  0.1417  0.0562
  113MOL0     C15177   6.580   3.339   0.787  0.2847 -0.6068  0.4948
  113MOL0     C15178   6.725   3.330   0.785  0.3244 -0.1842 -0.2771
  113MOL0     O15179   6.814   3.425   0.837  0.5785 -0.5099  0.3925
  113MOL0     C15180   6.772   3.546   0.909  1.2990  0.2336  0.1254
  113MOL0     C15181   6.745   3.658   0.807 -0.0478  0.4913 -0.1699
  113MOL0     C15182   6.874   3.711   0.742  0.1000 -0.8162  0.2600
  113MOL0     C15183   6.839   3.804   0.624  0.6470  0.5106 -0.8507
  113MOL0     C15184   6.811   3.942   0.677 -0.4818 -0.4576 -0.3256
  113MOL0     C15185   6.786   4.055   0.713 -0.0741 -0.7155  1.1520
  113MOL0     C15186   6.792   3.222   0.718  0.7087 -1.6144  0.1084
  113MOL0     C15187   6.712   3.133   0.652 -1.1500 -0.4283 -0.6443
  113MOL0     H15188   6.187   2.878   0.669 -0.9382  0.3023 -0.0359
  113MOL0     H15189   6.044   2.746   0.547  0.0465  3.2646  3.9428
  113MOL0     H15190   6.008   2.575   0.391  1.5792 -4.7430 -0.0464
  113MOL0     H15191   6.004   2.539   0.221  2.2133  1.7563 -1.8771
  113MOL0     H15192   6.252   2.530   0.228  2.0381  3.0015  0.7890
  113MOL0     H15193   6.253   2.602   0.382  1.5593  0.3608 -2.1221
  113MOL0     H15194   6.071   2.359   0.355  1.0582 -3.7914 -1.4487
  113MOL0     H15195   6.238   2.312   0.316 -0.8588 -1.2339 -0.1963
  113MOL0     H15196   6.307   2.419   0.539  0.1664 -1.3580  0.2589
  113MOL0     H15197   6.144   2.437   0.577 -1.5940 -0.0477 -1.2002
  113MOL0     H15198   6.178   2.222   0.678  0.2971  0.0363 -0.1154
  113MOL0     H15199   6.129   2.172   0.506  1.2627 -0.9003  0.0365
  113MOL0     H15200   6.331   2.131   0.434 -3.7523  0.2662 -0.1813
  113MOL0     H15201   6.415   2.221   0.574 -0.4550  0.2227  1.1642
  113MOL0     H15202   6.450   1.993   0.592 -2.1299 -5.5354 -1.1677
  113MOL0     H15203   6.335   2.044   0.725  1.3423  1.3251  0.1112
  113MOL0     H15204   6.265   1.883   0.475 -3.5170  0.2428 -0.3360
  113MOL0     H15205   6.149   1.954   0.581  1.5387  1.5537 -0.3566
  113MOL0     H15206   6.134   1.822   0.827  0.2358 -1.6002  2.5803
  113MOL0     H15207   6.358   1.557   0.948 -1.4093 -2.9336  3.2405
  113MOL0     H15208   6.255   1.680   1.016  0.8753  2.1628 -1.6371
  113MOL0     H15209   6.168   1.425   0.866  0.1044 -1.3185 -0.0822
  113MOL0     H15210   6.067   1.508   0.981 -0.0100 -0.5810 -0.0982
  113MOL0     H15211   6.315   1.332   1.045  0.5061 -0.5838  2.7919
  113MOL0     H15212   6.142   1.288   1.066  2.5567 -1.6736  3.1047
  113MOL0     H15213   6.319   1.489   1.209  1.1026 -1.7593 -1.7247
  113MOL0     H15214   6.237   1.368   1.294 -0.9918 -0.8387 -0.6786
  113MOL0     H15215   5.985   1.268   1.220 -1.4690 -1.7997  0.2485
  113MOL0     H15216   5.805   1.117   1.307  1.5495  0.9784 -0.4652
  113MOL0     H15217   5.663   1.188   1.363  0.3406 -2.3848  1.3855
  113MOL0     H15218   5.676   1.151   1.193  0.9217 -1.0859  1.2015
  113MOL0     H15219   5.298   1.515   1.403 -1.1769  0.8662  0.0978
  113MOL0     H15220   5.055   1.470   1.357 -0.6992  0.6409  0.1448
  113MOL0     H15221   4.884   1.440   1.247  1.2714 -0.0808 -2.6472
  113MOL0     H15222   4.786   1.327   1.158 -2.2227 -0.6887  1.4549
  113MOL0     H15223   4.765   1.168   1.354  1.8639 -1.1439  2.7294
  113MOL0     H15224   4.876   1.273   1.445  1.4330  0.0153 -1.3599
  113MOL0     H15225   4.624   1.273   1.498  1.1876 -1.2558 -0.7984
  113MOL0     H15226   4.602   1.369   1.355  2.4463 -3.0856 -3.4208
  113MOL0     H15227   4.820   1.483   1.543  0.1429  0.1658  0.6894
  113MOL0     H15228   4.702   1.563   1.430  0.3474 -1.3272 -1.4705
  113MOL0     H15229   4.541   1.461   1.593 -0.2786  2.4223 -0.4272
  113MOL0     H15230   4.625   1.611   1.652 -1.8797 -0.1904  2.2691
  113MOL0     H15231   4.744   1.350   1.710 -0.9720 -0.3452  0.5627
  113MOL0     H15232   4.771   1.525   1.786  0.5709  1.4677 -2.6836
  113MOL0     H15233   4.516   1.350   1.834  0.7260 -0.3416 -0.9557
  113MOL0     H15234   4.573   1.507   1.898  2.3124  0.5589 -0.1559
  113MOL0     H15235   4.598   1.340   2.070  1.3052 -0.4602  0.6788
  113MOL0     H15236   4.748   1.405   2.020  3.1858 -1.3102 -2.7289
  113MOL0     H15237   5.166   1.078   1.237  0.2392  0.6893 -0.0491
  113MOL0     H15238   5.408   1.130   1.292  1.6377  2.2075 -1.6544
  113MOL0     H15239   5.689   1.658   1.220 -0.1609 -1.4527  2.1672
  113MOL0     H15240   5.921   1.690   1.212 -2.0019  0.4041 -2.7017
  113MOL0     H15241   6.202   2.923   0.180  0.8222  0.9442 -0.2360
  113MOL0     H15242   6.357   3.053   0.302 -2.6182  0.4046 -1.4818
  113MOL0     H15243   6.404   3.278   0.681  0.3892  1.0091 -0.3756
  113MOL0     H15244   6.530   3.420   0.839  0.1166  0.9924 -1.9502
  113MOL0     H15245   6.673   3.543   0.954  0.7404  1.8864 -0.8663
  113MOL0     H15246   6.842   3.583   0.985  1.1559  2.6044 -0.8121
  113MOL0     H15247   6.701   3.745   0.857 -3.0604 -0.0928 -1.5464
  113MOL0     H15248   6.668   3.624   0.737 -0.0140  2.7169 -1.3898
  113MOL0     H15249   6.933   3.630   0.699 -2.3053 -2.7660  0.4088
  113MOL0     H15250   6.941   3.755   0.817 -0.1777 -0.5712  0.3655
  113MOL0     H15251   6.751   3.771   0.569 -0.1641  0.2434  0.5666
  113MOL0     H15252   6.927   3.799   0.559  1.3991  1.5623  0.0492
  113MOL0     H15253   6.751   4.153   0.737  0.2944 -0.5070  0.8551
  113MOL0     H15254   6.900   3.215   0.715  0.9153 -1.4108  3.3563
  113MOL0     H15255   6.761   3.050   0.601  1.2727 -0.5095  1.6394
  114MOL0     O15256   5.120   4.078   1.558 -0.0681 -1.1046 -0.0432
  114MOL0     C15257   5.048   4.065   1.459 -0.0614 -0.3550 -0.2891
  114MOL0     O15258   5.039   3.951   1.392  0.0191  0.4170  0.4960
  114MOL0     C15259   5.149   3.871   1.371 -0.0539 -0.5473 -0.6236
  114MOL0     C15260   5.132   3.732   1.335  0.1963 -0.0285  0.3144
  114MOL0     C15261   5.244   3.649   1.335 -0.8345  0.6987 -0.8603
  114MOL0     C15262   5.374   3.690   1.348 -0.2743 -0.1190 -0.2977
  114MOL0     O15263   5.484   3.613   1.340  0.5269  0.3129  0.5584
  114MOL0     C15264   5.489   3.513   1.228  0.4001 -0.2937 -0.5722
  114MOL0     C15265   5.621   3.436   1.246  0.3637 -0.3840 -0.0384
  114MOL0     C15266   5.634   3.327   1.140  0.0199  0.3956  0.1175
  114MOL0     C15267   5.767   3.242   1.154  0.4057 -0.2398  0.6341
  114MOL0     C15268   5.884   3.332   1.202 -0.4499 -0.0003  0.1468
  114MOL0     C15269   6.012   3.257   1.200  0.2035  0.8894  0.0175
  114MOL0     C15270   6.129   3.347   1.225 -0.1187  0.0829  0.0825
  114MOL0     C15271   6.161   3.443   1.106 -0.6678 -0.4020  0.3697
  114MOL0     N15272   6.289   3.517   1.126 -0.0358  0.5245  0.7498
  114MOL0     C15273   6.329   3.632   1.188 -0.1452  0.3899 -0.3577
  114MOL0     C15274   6.462   3.630   1.192  0.8537 -0.2334  0.2220
  114MOL0     C15275   6.532   3.751   1.244 -0.1762 -0.0528  0.5953
  114MOL0     C15276   6.586   3.741   1.383 -0.3384 -0.1691 -0.2919
  114MOL0     C15277   6.583   3.869   1.461  0.4338  0.5619 -0.2707
  114MOL0     C15278   6.662   3.854   1.584  0.5613  0.7124  0.1256
  114MOL0     O15279   6.608   3.746   1.674 -0.0453 -0.0442 -0.0840
  114MOL0     C15280   6.480   3.772   1.717 -0.5523 -0.1512  0.6918
  114MOL0     C15281   6.387   3.674   1.697 -0.6334  0.2477  0.1849
  114MOL0     C15282   6.252   3.688   1.729 -0.7359  0.3317  1.1101
  114MOL0     C15283   6.168   3.563   1.695  1.0652  0.5759  0.2830
  114MOL0     C15284   6.210   3.816   1.785 -0.0770  0.3571  0.3039
  114MOL0     C15285   6.076   3.848   1.826  0.4832 -0.1437 -0.2373
  114MOL0     O15286   6.056   3.960   1.904  0.2399  0.0765  0.5185
  114MOL0     C15287   5.946   3.970   1.981 -0.0800 -0.7605 -0.4648
  114MOL0     C15288   5.916   4.104   2.017 -0.2632  0.5766  0.4157
  114MOL0     C15289   5.824   4.139   2.119  0.0781  0.5959 -1.0237
  114MOL0     C15290   5.752   4.041   2.178  0.2682 -0.3192  1.1490
  114MOL0     O15291   5.662   4.075   2.276  0.3043 -0.0947 -0.7069
  114MOL0     C15292   5.687   4.018   2.408  0.7981 -0.1360  0.3062
  114MOL0     C15293   5.583   4.018   2.510  0.6260 -0.2171  0.4336
  114MOL0     C15294   5.539   4.161   2.538 -0.4939  0.0788 -0.2256
  114MOL0     C15295   5.475   4.167   2.670  0.9707  0.6471  0.0457
  114MOL0     C15296   5.415   4.307   2.713  0.5944 -0.1899  0.0449
  114MOL0     C15297   5.540   4.398   2.747  0.4730  1.4822  1.1476
  114MOL0     C15298   5.492   4.537   2.803 -0.3126  0.0165 -0.2915
  114MOL0     C15299   5.477   4.540   2.954 -0.7780  0.6791 -0.0235
  114MOL0    Cl15300   5.341   4.438   3.006  0.0383 -0.2320 -0.5055
  114MOL0     C15301   5.772   3.904   2.136  0.0648  0.2850 -0.9152
  114MOL0     C15302   5.873   3.865   2.043 -0.1992 -0.0755 -0.5116
  114MOL0     O15303   5.989   3.769   1.790  0.2436  0.6513 -0.1604
  114MOL0     C15304   6.303   3.924   1.793  0.3882  0.6531  0.5392
  114MOL0     C15305   6.429   3.900   1.757  0.3297 -0.3460  0.1548
  114MOL0     N15306   6.506   3.524   1.122  0.2595 -0.0984 -0.0004
  114MOL0     N15307   6.395   3.467   1.075 -1.0235  0.0164  0.2389
  114MOL0     C15308   5.384   3.821   1.380  0.3309  0.6825 -0.2192
  114MOL0     C15309   5.279   3.912   1.396 -0.9062  1.1899  0.2936
  114MOL0     C15310   4.967   4.176   1.409 -0.3892  0.8020  0.5914
  114MOL0     C15311   4.957   4.288   1.495 -0.0411  0.8829  0.9207
  114MOL0     C15312   4.891   4.404   1.448  0.0909  0.4053 -0.3386
  114MOL0     C15313   4.846   4.413   1.312 -0.0242  0.1096 -0.2284
  114MOL0     O15314   4.788   4.522   1.257 -0.3649 -0.0732  0.2460
  114MOL0     C15315   4.722   4.621   1.345  0.2530 -0.9321  0.0082
  114MOL0     C15316   4.642   4.713   1.260 -0.0599 -1.0840 -0.4723
  114MOL0     C15317   4.726   4.830   1.205 -0.1929  0.4826  0.3176
  114MOL0     C15318   4.648   4.926   1.124  0.8210  0.2146  0.5444
  114MOL0     C15319   4.594   5.040   1.210 -0.2408  0.8604 -0.3856
  114MOL0     C15320   4.563   5.139   1.273 -0.5249 -0.1174 -1.2014
  114MOL0     C15321   4.856   4.301   1.237 -0.0570  0.1866  0.1731
  114MOL0     C15322   4.916   4.181   1.282  0.4520  0.3062  0.2812
  114MOL0     H15323   5.036   3.684   1.317  0.8368 -1.1165 -0.3924
  114MOL0     H15324   5.234   3.542   1.321 -2.5426 -0.0463  4.0462
  114MOL0     H15325   5.399   3.454   1.245  1.7137 -2.5281 -0.9845
  114MOL0     H15326   5.482   3.558   1.129 -0.2527  1.7552  0.3449
  114MOL0     H15327   5.698   3.512   1.234 -0.0178  0.0304  0.1079
  114MOL0     H15328   5.627   3.393   1.347  0.2447  0.1549  0.2009
  114MOL0     H15329   5.548   3.260   1.147  0.0757  0.4957  2.7144
  114MOL0     H15330   5.650   3.371   1.041  2.9150 -2.3779 -0.8349
  114MOL0     H15331   5.751   3.164   1.230  1.8233 -0.0435  1.1627
  114MOL0     H15332   5.790   3.199   1.056  0.6002 -1.6549  1.2696
  114MOL0     H15333   5.882   3.420   1.137  0.1526  0.6298  0.9574
  114MOL0     H15334   5.871   3.354   1.308  4.7063 -1.3121  1.3285
  114MOL0     H15335   6.005   3.190   1.286  0.1077  0.5870 -0.2224
  114MOL0     H15336   6.016   3.217   1.098  0.4502  1.8729 -0.3732
  114MOL0     H15337   6.103   3.401   1.317 -2.3851 -0.1054 -0.3932
  114MOL0     H15338   6.219   3.287   1.240 -0.2904 -0.1611  0.1236
  114MOL0     H15339   6.084   3.519   1.092  0.9239  1.3748  0.8669
  114MOL0     H15340   6.170   3.377   1.019  1.5650  0.6901 -0.2926
  114MOL0     H15341   6.267   3.711   1.231 -0.5918 -1.3394  2.4818
  114MOL0     H15342   6.610   3.784   1.174 -2.7800 -0.7447 -2.8792
  114MOL0     H15343   6.457   3.830   1.252  1.1737  1.4209 -0.7201
  114MOL0     H15344   6.689   3.703   1.388 -0.7784 -1.2403  2.4945
  114MOL0     H15345   6.535   3.663   1.441 -1.2970  2.3310  2.4572
  114MOL0     H15346   6.488   3.919   1.482  1.1067  1.3557  1.0044
  114MOL0     H15347   6.633   3.940   1.394  0.9408 -0.6879 -1.2456
  114MOL0     H15348   6.665   3.950   1.637  2.0025  1.1038 -0.6204
  114MOL0     H15349   6.764   3.836   1.548 -0.0929  0.2211 -1.5923
  114MOL0     H15350   6.441   3.592   1.651 -0.5279 -0.6113  1.7631
  114MOL0     H15351   6.229   3.473   1.689  2.0522  1.2186  0.3526
  114MOL0     H15352   6.104   3.551   1.783  1.4173 -0.1009  0.4512
  114MOL0     H15353   6.114   3.589   1.603  0.1650 -1.2716  0.2447
  114MOL0     H15354   5.972   4.193   1.989  0.1871  0.3644  0.6356
  114MOL0     H15355   5.803   4.239   2.156 -0.6140 -0.7613  2.7015
  114MOL0     H15356   5.728   3.917   2.399 -0.4544 -0.5511 -1.1626
  114MOL0     H15357   5.769   4.077   2.451  2.4781 -3.2479  1.6830
  114MOL0     H15358   5.496   3.968   2.465  0.4666  1.5475 -1.3936
  114MOL0     H15359   5.620   3.961   2.596 -3.0367  1.1936  3.2134
  114MOL0     H15360   5.485   4.209   2.456  0.3386  2.2361  0.4030
  114MOL0     H15361   5.622   4.232   2.545 -0.4474 -0.0024  0.0861
  114MOL0     H15362   5.388   4.103   2.651 -0.1216  2.7334 -2.8711
  114MOL0     H15363   5.539   4.123   2.747  0.1874 -0.0548  0.3171
  114MOL0     H15364   5.356   4.285   2.804 -4.9876  1.5645 -2.6950
  114MOL0     H15365   5.343   4.347   2.642 -0.2206 -0.1884  0.8438
  114MOL0     H15366   5.600   4.342   2.820  0.8062 -1.1251 -0.9812
  114MOL0     H15367   5.597   4.418   2.656  2.0596  0.3726  1.8608
  114MOL0     H15368   5.405   4.568   2.745  1.1067  1.0548 -1.9653
  114MOL0     H15369   5.574   4.608   2.792  0.9185 -0.4561  3.8585
  114MOL0     H15370   5.460   4.643   2.989  1.5027  1.7687 -1.8550
  114MOL0     H15371   5.570   4.506   3.001 -1.0791 -1.0044 -0.6051
  114MOL0     H15372   5.727   3.821   2.190  0.2309 -0.1961 -1.4918
  114MOL0     H15373   5.892   3.761   2.018  5.5288 -0.5468  3.6765
  114MOL0     H15374   6.268   4.023   1.820 -2.1491  0.2884 -1.1268
  114MOL0     H15375   6.501   3.978   1.777 -0.6684 -0.3648  4.9714
  114MOL0     H15376   5.482   3.866   1.395 -1.1542  3.4228  2.5321
  114MOL0     H15377   5.311   4.010   1.429  1.1985  0.8584 -0.5837
  114MOL0     H15378   4.997   4.285   1.596  0.4543  0.0579  0.7062
  114MOL0     H15379   4.887   4.492   1.513  2.1730 -0.5332  1.1706
  114MOL0     H15380   4.656   4.558   1.406  0.6884  0.0370  1.5269
  114MOL0     H15381   4.793   4.679   1.403  1.6086  0.7735 -3.0907
  114MOL0     H15382   4.569   4.763   1.325  0.2544 -0.7334 -0.3842
  114MOL0     H15383   4.593   4.662   1.177 -1.5815 -2.2621  1.0542
  114MOL0     H15384   4.805   4.780   1.148  0.1742  0.1064  1.1318
  114MOL0     H15385   4.768   4.885   1.290 -0.8426  3.3958 -1.1197
  114MOL0     H15386   4.573   4.867   1.072  1.5963  1.3519 -2.0038
  114MOL0     H15387   4.700   4.976   1.042  1.5718 -0.2925  0.6958
  114MOL0     H15388   4.556   5.220   1.343  1.8114  0.2017 -1.2389
  114MOL0     H15389   4.823   4.297   1.134  1.5563 -3.0590 -0.3375
  114MOL0     H15390   4.927   4.098   1.212 -1.2045  1.6998 -1.7539
  115MOL0     O15391   9.035   5.818   2.665 -0.6393 -0.2797  0.1212
  115MOL0     C15392   9.109   5.801   2.572 -0.0668  0.7588 -0.4942
  115MOL0     O15393   9.153   5.892   2.477  0.1534  0.5041 -0.0957
  115MOL0     C15394   9.117   6.022   2.489  0.0314 -0.8119 -1.0435
  115MOL0     C15395   9.139   6.101   2.372  0.6185 -0.2767  0.3333
  115MOL0     C15396   9.099   6.233   2.367 -0.2666 -0.0103  1.3204
  115MOL0     C15397   9.066   6.295   2.482  0.2537  0.6532  0.3971
  115MOL0     O15398   9.049   6.430   2.498 -0.1233 -0.7289  0.5039
  115MOL0     C15399   9.086   6.525   2.399 -0.5812 -0.1615 -0.3335
  115MOL0     C15400   9.104   6.661   2.467  0.3929  0.3010  0.6685
  115MOL0     C15401   9.106   6.777   2.362  0.1176  0.3617 -0.1213
  115MOL0     C15402   9.211   6.758   2.253  0.2238 -1.0397 -0.8280
  115MOL0     C15403   9.353   6.747   2.290 -0.6532  0.8911 -0.2773
  115MOL0     C15404   9.445   6.736   2.172  0.3175 -0.1265  0.3315
  115MOL0     C15405   9.583   6.683   2.222 -0.8964  0.2323 -0.3547
  115MOL0     C15406   9.679   6.677   2.104  0.1662  0.3169  0.4566
  115MOL0     N15407   9.821   6.635   2.143 -0.3119  0.0138  1.2033
  115MOL0     C15408   9.895   6.529   2.094  0.2897  0.5709 -0.3810
  115MOL0     C15409   9.998   6.505   2.192  0.4549  0.5356  0.3440
  115MOL0     C15410  10.096   6.382   2.194  0.1196  0.1797  0.0472
  115MOL0     C15411  10.225   6.400   2.284 -0.2692 -1.2163 -0.0404
  115MOL0     C15412  10.287   6.262   2.324  0.7391 -0.6250  0.9701
  115MOL0     C15413  10.289   6.171   2.196 -0.2890 -0.3866  0.6469
  115MOL0     O15414  10.380   6.059   2.211 -0.7562 -0.6372 -0.0310
  115MOL0     C15415  10.388   5.980   2.103  0.0394  0.0740 -0.3844
  115MOL0     C15416  10.509   5.935   2.073 -0.5050  0.4427  0.1617
  115MOL0     C15417  10.533   5.860   1.953 -0.3224  0.1639 -0.8803
  115MOL0     C15418  10.677   5.834   1.912  0.7890 -0.3422 -0.3268
  115MOL0     C15419  10.431   5.811   1.877 -0.1387 -0.1246 -0.4629
  115MOL0     C15420  10.439   5.728   1.753  0.0584  0.5091 -0.5705
  115MOL0     O15421  10.356   5.766   1.647  0.8655  0.0852  0.5544
  115MOL0     C15422  10.407   5.768   1.521 -1.0945 -0.2957  0.3097
  115MOL0     C15423  10.315   5.749   1.416 -0.0907  0.2154 -0.7729
  115MOL0     C15424  10.354   5.748   1.283  0.5969  0.5589 -0.0512
  115MOL0     C15425  10.483   5.802   1.253 -0.4361 -0.4230 -1.2451
  115MOL0     O15426  10.533   5.788   1.127  0.1152  0.1148 -0.4953
  115MOL0     C15427  10.650   5.713   1.112  0.3861 -0.8372 -0.3742
  115MOL0     C15428  10.615   5.583   1.047 -0.2755 -0.8662 -0.0991
  115MOL0     C15429  10.524   5.601   0.937  0.7733  0.9316  0.8351
  115MOL0     C15430  10.467   5.467   0.875  0.5629  0.2818 -0.2180
  115MOL0     C15431  10.408   5.501   0.740  0.1667  0.0810 -0.4317
  115MOL0     C15432  10.327   5.389   0.675  0.5106 -0.7484  0.5884
  115MOL0     C15433  10.303   5.427   0.524  0.2944  0.9117 -0.6269
  115MOL0     C15434  10.232   5.318   0.451  0.3746 -0.1416 -0.7487
  115MOL0    Cl15435  10.310   5.163   0.461  0.1428  0.1968  0.3296
  115MOL0     C15436  10.569   5.840   1.357 -0.6019 -0.3686  0.2629
  115MOL0     C15437  10.539   5.823   1.492  0.6799  0.3160  0.1007
  115MOL0     O15438  10.527   5.646   1.745 -0.0178 -0.1428  0.5244
  115MOL0     C15439  10.303   5.848   1.914  0.2912 -0.3026 -0.1364
  115MOL0     C15440  10.279   5.934   2.023  0.4313 -0.1915  0.7177
  115MOL0     N15441   9.991   6.607   2.287  0.7467 -1.0602  0.5596
  115MOL0     N15442   9.882   6.684   2.260  0.0550  0.4547 -0.1083
  115MOL0     C15443   9.040   6.226   2.597 -0.1190  0.3196  0.4639
  115MOL0     C15444   9.073   6.091   2.610 -0.1124 -0.1092  0.9087
  115MOL0     C15445   9.160   5.664   2.556 -0.3462 -0.3477 -0.4367
  115MOL0     C15446   9.124   5.548   2.632  0.8886  0.8499  0.0212
  115MOL0     C15447   9.154   5.413   2.594 -0.3997  0.0621  0.6835
  115MOL0     C15448   9.240   5.394   2.478 -0.2689  0.5964 -0.0401
  115MOL0     O15449   9.281   5.258   2.444  0.5307  0.1353  1.0814
  115MOL0     C15450   9.318   5.254   2.300 -0.1617  0.7606  0.1660
  115MOL0     C15451   9.341   5.097   2.278  0.3872 -0.5052 -0.0956
  115MOL0     C15452   9.319   5.065   2.129 -0.0151  0.3465 -0.2487
  115MOL0     C15453   9.273   4.919   2.130  0.3489  0.8277  0.0708
  115MOL0     C15454   9.275   4.854   2.005 -0.0857 -0.0225  0.5634
  115MOL0     C15455   9.280   4.804   1.896 -0.3628 -0.3534 -0.3867
  115MOL0     C15456   9.272   5.508   2.398 -0.4562  0.4404 -0.0332
  115MOL0     C15457   9.229   5.643   2.437  0.8059  0.1299  0.2882
  115MOL0     H15458   9.176   6.057   2.280 -3.9426 -2.6663 -0.6832
  115MOL0     H15459   9.112   6.281   2.270 -1.8782  1.0804  1.6259
  115MOL0     H15460   9.179   6.488   2.355 -0.1955 -3.3506  2.6604
  115MOL0     H15461   9.003   6.531   2.329  2.5106  2.0749 -4.1728
  115MOL0     H15462   9.018   6.686   2.531  0.3433 -0.2814  0.8410
  115MOL0     H15463   9.198   6.651   2.521  0.5755 -3.0517 -0.0180
  115MOL0     H15464   9.015   6.786   2.301 -1.0401  1.7681  1.7000
  115MOL0     H15465   9.125   6.876   2.403 -2.4069  0.6792  0.4735
  115MOL0     H15466   9.168   6.672   2.201  0.7591 -1.4421 -0.6068
  115MOL0     H15467   9.195   6.848   2.192  0.3431 -1.0527 -0.8769
  115MOL0     H15468   9.384   6.835   2.346  2.7889 -0.0349 -0.5035
  115MOL0     H15469   9.372   6.662   2.357  1.1411  2.5594  1.4555
  115MOL0     H15470   9.412   6.652   2.109 -1.8397 -1.6576  3.2469
  115MOL0     H15471   9.457   6.831   2.119 -1.2914  0.3115  0.6923
  115MOL0     H15472   9.620   6.761   2.289  1.0549 -1.6835  0.9115
  115MOL0     H15473   9.588   6.597   2.289 -1.5962  0.3253 -0.1754
  115MOL0     H15474   9.694   6.780   2.073  1.1537  0.0265 -0.0874
  115MOL0     H15475   9.647   6.622   2.015  4.3634  1.9719 -2.3747
  115MOL0     H15476   9.877   6.470   2.004 -0.0081  1.7103 -1.0844
  115MOL0     H15477  10.033   6.308   2.245  0.3565  0.8114  1.2865
  115MOL0     H15478  10.130   6.355   2.094  2.7164  0.9525  0.6537
  115MOL0     H15479  10.192   6.452   2.375 -0.6538 -3.2208  1.0024
  115MOL0     H15480  10.302   6.458   2.232  2.3355 -2.0751  2.6033
  115MOL0     H15481  10.228   6.219   2.405  0.3419 -1.8551  0.0663
  115MOL0     H15482  10.391   6.278   2.353  0.7985 -1.5671  1.3188
  115MOL0     H15483  10.317   6.226   2.105  0.6627  1.0745  1.7729
  115MOL0     H15484  10.186   6.135   2.187 -0.5852  0.6288 -0.2332
  115MOL0     H15485  10.587   5.975   2.137 -0.6602 -2.0541  2.0439
  115MOL0     H15486  10.687   5.863   1.807 -2.2773  1.7964 -0.1687
  115MOL0     H15487  10.741   5.899   1.971 -1.0270  0.0081  1.3842
  115MOL0     H15488  10.701   5.728   1.927  0.6229  0.0709  4.6917
  115MOL0     H15489  10.214   5.726   1.451  0.9817 -3.0645  0.5945
  115MOL0     H15490  10.281   5.721   1.207 -1.0629  1.5745  1.1275
  115MOL0     H15491  10.715   5.759   1.037 -1.6021  0.2321 -1.5227
  115MOL0     H15492  10.697   5.680   1.205  1.9443 -0.2154 -0.9093
  115MOL0     H15493  10.707   5.529   1.023  0.3825 -1.4847  3.3110
  115MOL0     H15494  10.565   5.514   1.116  3.2981 -2.4828  1.1022
  115MOL0     H15495  10.576   5.647   0.853  1.2681  0.6682  0.9950
  115MOL0     H15496  10.431   5.653   0.962 -2.7297 -2.9531 -2.6025
  115MOL0     H15497  10.537   5.384   0.861 -1.6792 -1.4550 -1.7475
  115MOL0     H15498  10.392   5.432   0.946  2.8728 -2.5516  1.0304
  115MOL0     H15499  10.493   5.529   0.676 -0.8792 -0.9023 -2.3342
  115MOL0     H15500  10.344   5.589   0.754 -0.9920 -1.1594  2.9639
  115MOL0     H15501  10.386   5.297   0.684 -0.3432 -1.2813  0.8299
  115MOL0     H15502  10.236   5.364   0.730 -0.3242  0.1239 -0.3658
  115MOL0     H15503  10.401   5.433   0.475  1.9536  0.2319  2.3575
  115MOL0     H15504  10.241   5.517   0.518  0.3136  0.9304 -0.5459
  115MOL0     H15505  10.234   5.356   0.348  0.8440  4.1481  0.6537
  115MOL0     H15506  10.127   5.308   0.480 -0.1135 -1.5699 -2.7947
  115MOL0     H15507  10.667   5.877   1.329  0.2231 -1.6118  1.3560
  115MOL0     H15508  10.591   5.861   1.579  0.5878  0.8677 -0.0805
  115MOL0     H15509  10.208   5.809   1.878 -2.2337  0.4304  4.8667
  115MOL0     H15510  10.174   5.940   2.048 -0.7934 -4.0264 -2.4548
  115MOL0     H15511   9.017   6.276   2.690 -0.6444  0.0296  0.4937
  115MOL0     H15512   9.063   6.041   2.706  1.4621 -0.0377  1.1221
  115MOL0     H15513   9.063   5.570   2.718 -1.2144  1.1203 -1.4595
  115MOL0     H15514   9.130   5.327   2.657  0.5594 -0.0507  0.9203
  115MOL0     H15515   9.243   5.303   2.238 -1.3964  0.9387  1.7296
  115MOL0     H15516   9.416   5.298   2.278  0.1856  0.6678  1.4168
  115MOL0     H15517   9.278   5.038   2.345  1.5133  0.5336  1.9505
  115MOL0     H15518   9.442   5.074   2.314 -0.1139  0.1580  1.8654
  115MOL0     H15519   9.409   5.062   2.067 -1.1842 -3.3315 -2.0721
  115MOL0     H15520   9.250   5.135   2.079 -2.2361 -1.0967  0.6239
  115MOL0     H15521   9.178   4.895   2.177 -0.3863  0.1436 -1.6831
  115MOL0     H15522   9.346   4.859   2.185 -0.9422 -0.5901  0.2815
  115MOL0     H15523   9.299   4.751   1.805 -2.4395  0.7227 -1.5200
  115MOL0     H15524   9.334   5.507   2.309  2.0960  1.7553  1.6155
  115MOL0     H15525   9.259   5.717   2.363  3.0257 -0.9110  0.0798
  116MOL0     O15526   8.429   6.314  11.181 -0.5819  0.1993  0.4867
  116MOL0     C15527   8.520   6.234  11.145 -0.2123 -0.3623  0.8882
  116MOL0     O15528   8.639   6.237  11.204 -0.4725  0.7354 -0.3717
  116MOL0     C15529   8.659   6.280  11.330  0.4536  0.2000  0.0806
  116MOL0     C15530   8.564   6.261  11.430  0.0493 -0.4491  0.3640
  116MOL0     C15531   8.608   6.304  11.558  0.2948  0.6295  0.1075
  116MOL0     C15532   8.735   6.351  11.585  0.0136  0.4496  0.3083
  116MOL0     O15533   8.762   6.370  11.718 -0.7471 -1.0245  0.0696
  116MOL0     C15534   8.888   6.421  11.758  0.5036  0.4054  1.0477
  116MOL0     C15535   8.903   6.416  11.907  0.3482 -0.0651  0.3048
  116MOL0     C15536   8.807   6.499  11.992 -0.2277 -0.1834  0.5902
  116MOL0     C15537   8.855   6.510  12.127  0.1664  0.2348 -0.2175
  116MOL0     C15538   8.778   6.611  12.214  1.2147 -0.1671  0.2677
  116MOL0     C15539   8.609   6.603  12.201  0.1730  0.0282 -0.1366
  116MOL0     C15540   8.542   6.677  12.318  0.2772 -0.1310  0.7115
  116MOL0     C15541   8.396   6.625  12.324  0.2459 -0.7652  0.6495
  116MOL0     N15542   8.391   6.480  12.349 -0.2456 -0.0106  0.3657
  116MOL0     C15543   8.306   6.391  12.293 -0.9702 -0.1044  0.6854
  116MOL0     C15544   8.312   6.292  12.385  0.2832  0.4923  0.5499
  116MOL0     C15545   8.236   6.156  12.375  0.1935  0.1365  0.6193
  116MOL0     C15546   8.304   6.044  12.287  0.3192 -1.0813  0.2035
  116MOL0     C15547   8.450   6.061  12.288  0.2141  0.4794  0.3828
  116MOL0     C15548   8.510   5.954  12.199  0.3571 -0.2359  0.0623
  116MOL0     O15549   8.649   5.976  12.191  0.3976 -0.2763 -0.2689
  116MOL0     C15550   8.696   5.925  12.075  0.1873 -0.1729 -0.1630
  116MOL0     C15551   8.701   5.785  12.059  0.7781  0.9394  0.7451
  116MOL0     C15552   8.759   5.732  11.947 -0.4230  0.0206 -0.0334
  116MOL0     C15553   8.781   5.585  11.932 -0.0973  0.4360  0.0542
  116MOL0     C15554   8.812   5.812  11.840  0.5537  0.3255  0.1178
  116MOL0     C15555   8.856   5.760  11.707  0.4103 -0.4784 -0.2818
  116MOL0     O15556   8.935   5.853  11.639 -0.0549 -0.3472 -0.1760
  116MOL0     C15557   8.975   5.832  11.505 -0.5519  0.5319 -0.7815
  116MOL0     C15558   8.926   5.929  11.414  0.0865  0.0301 -0.1919
  116MOL0     C15559   8.938   5.895  11.284  0.0569  0.8771  0.0373
  116MOL0     C15560   9.003   5.778  11.234  0.4739  0.0062  0.3003
  116MOL0     O15561   8.999   5.741  11.097  1.1515  0.9465 -0.5892
  116MOL0     C15562   8.917   5.623  11.058 -0.2077  0.1544  0.3113
  116MOL0     C15563   8.945   5.581  10.912  0.6817  0.4356  0.2742
  116MOL0     C15564   8.822   5.503  10.853 -0.4392  0.8445  0.4618
  116MOL0     C15565   8.780   5.373  10.931 -0.4013 -0.2839 -0.7479
  116MOL0     C15566   8.652   5.309  10.897  0.2542  1.1032 -0.0572
  116MOL0     C15567   8.661   5.204  10.778 -1.4148 -0.3991  0.4656
  116MOL0     C15568   8.525   5.139  10.771  0.3586  0.5026  0.3843
  116MOL0     C15569   8.500   5.058  10.646  0.2814  0.0991 -0.6544
  116MOL0    Cl15570   8.495   5.153  10.501 -0.0103  0.0647  0.2730
  116MOL0     C15571   9.052   5.689  11.327  0.8039 -0.6735 -1.2228
  116MOL0     C15572   9.043   5.718  11.467  1.2025 -0.3990  0.4359
  116MOL0     O15573   8.804   5.658  11.661  0.3537 -0.4740 -0.2490
  116MOL0     C15574   8.796   5.949  11.854  0.3368 -0.4364 -0.2634
  116MOL0     C15575   8.744   6.009  11.974  0.4043  1.1488  0.0849
  116MOL0     N15576   8.400   6.322  12.488  0.1835  0.6272 -0.0753
  116MOL0     N15577   8.449   6.440  12.467  0.2218  0.2600  0.5246
  116MOL0     C15578   8.825   6.368  11.486 -0.4754  1.7830 -1.2040
  116MOL0     C15579   8.783   6.329  11.361 -0.2740 -0.4158  0.7318
  116MOL0     C15580   8.490   6.122  11.058 -0.3653  0.5410 -0.5356
  116MOL0     C15581   8.348   6.095  11.025  0.7360 -0.1433 -0.4891
  116MOL0     C15582   8.304   5.986  10.950 -0.2354 -0.3542 -0.0632
  116MOL0     C15583   8.399   5.904  10.903  0.6375  0.8832  0.2006
  116MOL0     O15584   8.362   5.790  10.845 -0.1892  0.5278  0.5277
  116MOL0     C15585   8.226   5.745  10.842  0.2255 -0.0359  0.2020
  116MOL0     C15586   8.212   5.600  10.791  1.0057  0.0709 -0.7821
  116MOL0     C15587   8.311   5.503  10.848 -1.2455  0.1570 -0.5437
  116MOL0     C15588   8.294   5.468  10.992  0.0394 -0.1569 -0.7608
  116MOL0     C15589   8.167   5.395  11.027 -0.5116 -0.8594  0.4423
  116MOL0     C15590   8.066   5.345  11.052 -0.3024 -0.0040  0.0183
  116MOL0     C15591   8.532   5.926  10.928  0.1137 -0.1160  0.5450
  116MOL0     C15592   8.589   6.032  10.999 -0.3964  0.3814 -0.1027
  116MOL0     H15593   8.463   6.228  11.409 -1.8058  2.3956  3.8136
  116MOL0     H15594   8.547   6.288  11.647  1.3158 -0.9034  0.5860
  116MOL0     H15595   8.968   6.357  11.719  0.5985  0.6505  0.8399
  116MOL0     H15596   8.908   6.523  11.723  1.5345  0.0792  0.6445
  116MOL0     H15597   8.897   6.310  11.934  2.5476 -0.6461 -1.1847
  116MOL0     H15598   9.009   6.439  11.920  0.1056  0.1485  2.1063
  116MOL0     H15599   8.798   6.601  11.954 -3.6431 -0.3123  0.7654
  116MOL0     H15600   8.706   6.459  11.989 -0.4142  0.1817  1.6505
  116MOL0     H15601   8.844   6.414  12.179 -3.1885  0.6048 -0.0081
  116MOL0     H15602   8.960   6.540  12.121 -0.2808  1.7955 -0.7867
  116MOL0     H15603   8.804   6.596  12.319 -1.9736 -1.4325  1.0043
  116MOL0     H15604   8.808   6.715  12.203  0.8541 -0.1450 -0.5239
  116MOL0     H15605   8.571   6.640  12.105 -3.8942  1.4038  1.7804
  116MOL0     H15606   8.573   6.499  12.193 -3.3382  1.0792  0.0106
  116MOL0     H15607   8.595   6.652  12.411 -1.2008  0.8382  1.8541
  116MOL0     H15608   8.549   6.785  12.304 -2.3963  0.1016  0.6638
  116MOL0     H15609   8.341   6.625  12.230 -2.8508 -2.1687  2.3115
  116MOL0     H15610   8.341   6.680  12.401 -2.2242 -1.2956 -0.6321
  116MOL0     H15611   8.258   6.388  12.196 -0.3896 -2.2604  0.4240
  116MOL0     H15612   8.227   6.112  12.475 -2.8940  1.1873  0.9294
  116MOL0     H15613   8.141   6.184  12.328 -0.3179  3.5775  3.3074
  116MOL0     H15614   8.253   6.041  12.190  0.9957  0.9647 -0.2612
  116MOL0     H15615   8.278   5.945  12.326 -0.3236 -1.7754 -1.8417
  116MOL0     H15616   8.481   6.041  12.391  1.8527 -0.7417 -0.3015
  116MOL0     H15617   8.486   6.155  12.244  1.7864 -0.6738 -0.9314
  116MOL0     H15618   8.466   5.947  12.099  0.0415 -0.8287  0.2395
  116MOL0     H15619   8.500   5.853  12.239 -0.6084 -0.5282 -0.8617
  116MOL0     H15620   8.667   5.716  12.135  1.2106  1.2458  1.2313
  116MOL0     H15621   8.738   5.535  11.845  0.7600 -1.5491  0.7292
  116MOL0     H15622   8.880   5.540  11.926 -1.2950 -2.2401 -4.5662
  116MOL0     H15623   8.745   5.533  12.021  4.2337 -0.9544  1.2379
  116MOL0     H15624   8.894   6.026  11.451 -2.9222 -0.8063 -0.3917
  116MOL0     H15625   8.903   5.968  11.212  0.9873  2.6327  1.2769
  116MOL0     H15626   8.947   5.542  11.126 -0.2393  1.4654  1.9739
  116MOL0     H15627   8.810   5.638  11.072 -0.1177  1.5139 -0.3411
  116MOL0     H15628   8.968   5.660  10.840 -1.6661 -0.6443 -1.7940
  116MOL0     H15629   9.031   5.513  10.913  1.8795  1.8636  2.3396
  116MOL0     H15630   8.854   5.468  10.755 -0.2779  0.6754  0.5750
  116MOL0     H15631   8.737   5.572  10.847 -0.5031  0.7367  0.1017
  116MOL0     H15632   8.861   5.300  10.926  0.7757  0.7312  1.6175
  116MOL0     H15633   8.766   5.399  11.036  1.6272 -3.6669  0.5231
  116MOL0     H15634   8.568   5.376  10.877 -0.5031  0.4860  0.9513
  116MOL0     H15635   8.616   5.242  10.976  1.8955  2.4329  1.9045
  116MOL0     H15636   8.692   5.258  10.688  1.6860 -1.5631  0.7033
  116MOL0     H15637   8.739   5.128  10.790 -0.6228  0.3264  0.0157
  116MOL0     H15638   8.448   5.215  10.788  2.2354  1.9091  3.4457
  116MOL0     H15639   8.507   5.068  10.852 -1.9108  2.4055  1.7018
  116MOL0     H15640   8.406   5.004  10.661  0.4652  0.6670  3.9542
  116MOL0     H15641   8.576   4.980  10.637  0.4656 -0.0177  1.4344
  116MOL0     H15642   9.113   5.604  11.296  1.0395 -1.6397  1.6140
  116MOL0     H15643   9.070   5.641  11.539 -1.4054 -2.0507 -0.2136
  116MOL0     H15644   8.831   6.025  11.785 -0.4486  0.6802  0.5172
  116MOL0     H15645   8.745   6.116  11.986 -0.0474  1.2740 -0.8995
  116MOL0     H15646   8.929   6.396  11.494 -0.3760  1.2553 -0.5722
  116MOL0     H15647   8.861   6.348  11.287 -0.8374  0.0609  0.2444
  116MOL0     H15648   8.264   6.159  11.053 -0.5155 -1.4241 -1.1805
  116MOL0     H15649   8.196   5.988  10.938 -0.2283 -1.8205 -0.5934
  116MOL0     H15650   8.177   5.765  10.938 -2.7309 -1.6219 -0.8487
  116MOL0     H15651   8.172   5.813  10.776 -0.3271  1.1469  1.8109
  116MOL0     H15652   8.223   5.592  10.683  0.4671 -2.6626 -0.7238
  116MOL0     H15653   8.109   5.565  10.809 -0.2609  2.2815 -3.0912
  116MOL0     H15654   8.415   5.536  10.835 -1.4404  1.0320  0.0405
  116MOL0     H15655   8.303   5.415  10.783  1.2444  0.4412 -1.3348
  116MOL0     H15656   8.298   5.560  11.051  4.4862 -2.5184  3.2285
  116MOL0     H15657   8.376   5.399  11.012  1.2668  1.4168 -0.0797
  116MOL0     H15658   7.975   5.298  11.082  0.5364  0.0861  3.0620
  116MOL0     H15659   8.607   5.859  10.887  0.4415  1.8168 -2.3315
  116MOL0     H15660   8.694   6.059  10.996 -0.3495  0.2258  0.1190
  117MOL0     O15661   8.938   9.368   5.169 -0.1021 -0.7774 -0.4172
  117MOL0     C15662   8.946   9.300   5.267 -0.4140  0.7694 -0.2058
  117MOL0     O15663   8.962   9.351   5.394  0.4838 -0.0840 -0.0301
  117MOL0     C15664   8.950   9.489   5.406  1.7300 -1.3172  0.3671
  117MOL0     C15665   9.049   9.554   5.469 -0.0333  0.1892  0.3609
  117MOL0     C15666   9.034   9.697   5.499 -0.0896  0.2710  0.7853
  117MOL0     C15667   8.925   9.766   5.447  0.4745 -0.3595 -0.5407
  117MOL0     O15668   8.910   9.906   5.447  0.3045  0.9238 -0.8131
  117MOL0     C15669   9.004   9.983   5.519  0.7500 -0.2560 -0.7167
  117MOL0     C15670   8.947  10.107   5.579 -0.6681  0.7209  0.4860
  117MOL0     C15671   9.069  10.190   5.647 -0.1283  0.0590  1.2451
  117MOL0     C15672   9.121  10.303   5.563  1.1270  0.3441  0.2956
  117MOL0     C15673   9.236  10.367   5.615 -0.0303  0.0827 -0.5438
  117MOL0     C15674   9.247  10.508   5.561 -0.3561  1.3485  0.6219
  117MOL0     C15675   9.332  10.587   5.661  0.3049 -0.0268  1.0178
  117MOL0     C15676   9.348  10.739   5.604 -0.3067  0.4903 -0.2367
  117MOL0     N15677   9.446  10.747   5.497 -0.5213 -0.4678  0.4361
  117MOL0     C15678   9.418  10.727   5.362 -0.2260  1.4163  0.6543
  117MOL0     C15679   9.538  10.745   5.301  0.1894  0.8644 -0.2945
  117MOL0     C15680   9.577  10.749   5.162 -0.4527 -0.3248  0.8565
  117MOL0     C15681   9.704  10.825   5.138  0.2960 -0.0938 -0.0018
  117MOL0     C15682   9.752  10.838   4.993  0.7131  0.6647  0.6532
  117MOL0     C15683   9.869  10.940   4.976 -0.2990 -1.0219  0.1855
  117MOL0     O15684   9.949  10.895   4.860 -0.0898 -0.2737 -0.7098
  117MOL0     C15685  10.078  10.852   4.883  0.5047  0.4126 -0.5860
  117MOL0     C15686  10.174  10.923   4.963  0.1765 -0.1745 -0.4790
  117MOL0     C15687  10.300  10.870   4.987  0.7304  0.1816  1.0515
  117MOL0     C15688  10.398  10.939   5.083 -0.3006  0.0135 -0.3498
  117MOL0     C15689  10.337  10.751   4.913  0.5311  0.6470 -0.2080
  117MOL0     C15690  10.464  10.687   4.916  0.1119 -0.8351  0.0602
  117MOL0     O15691  10.531  10.681   5.041  0.1819  0.1711  0.5948
  117MOL0     C15692  10.655  10.629   5.067 -0.4296 -0.0141 -0.3840
  117MOL0     C15693  10.740  10.677   5.171  0.6888  0.4237 -0.5401
  117MOL0     C15694  10.865  10.635   5.193  0.7494  0.2922 -0.4297
  117MOL0     C15695  10.918  10.536   5.111  0.8361 -0.2126  0.1332
  117MOL0     O15696  11.050  10.492   5.125  0.0025 -0.2508 -0.1591
  117MOL0     C15697  11.154  10.588   5.136 -0.1849  0.5747 -0.2133
  117MOL0     C15698  11.294  10.528   5.120  0.0465  0.4239 -0.0651
  117MOL0     C15699  11.322  10.454   4.989 -0.5956  0.1867 -0.4964
  117MOL0     C15700  11.454  10.389   4.991  0.2170 -0.2628 -1.3005
  117MOL0     C15701  11.482  10.288   4.870 -0.4988 -0.1695  0.5275
  117MOL0     C15702  11.500  10.355   4.733 -0.8077  0.7339 -0.1119
  117MOL0     C15703  11.510  10.254   4.608 -0.3741  0.8953  0.0421
  117MOL0     C15704  11.651  10.240   4.564 -0.6717  0.9077 -0.1402
  117MOL0    Cl15705  11.733  10.111   4.659  0.0335  0.0673  0.3509
  117MOL0     C15706  10.835  10.478   5.009 -1.1352 -0.5276 -0.8624
  117MOL0     C15707  10.710  10.527   4.987  0.5062 -0.1793 -0.2922
  117MOL0     O15708  10.519  10.670   4.804  0.1338  0.4315 -0.0795
  117MOL0     C15709  10.237  10.687   4.836 -0.3794 -0.4851 -0.6939
  117MOL0     C15710  10.109  10.728   4.820  0.4990  0.1109  0.0569
  117MOL0     N15711   9.630  10.783   5.396  0.2088 -0.1294  0.2272
  117MOL0     N15712   9.576  10.777   5.510 -0.5432  0.0948 -0.4387
  117MOL0     C15713   8.825   9.693   5.384 -0.0492  0.2012 -0.6581
  117MOL0     C15714   8.836   9.557   5.371 -0.7484 -0.0120  0.4898
  117MOL0     C15715   8.979   9.159   5.246 -1.0840 -0.0043  0.5012
  117MOL0     C15716   8.984   9.119   5.110 -0.5356 -0.2786  0.2520
  117MOL0     C15717   9.010   8.982   5.084 -0.3457  0.1261  0.5288
  117MOL0     C15718   9.049   8.897   5.192 -1.1208 -0.6130  0.0405
  117MOL0     O15719   9.051   8.764   5.178  0.3722  0.2270  0.2173
  117MOL0     C15720   9.033   8.699   5.053 -0.3598 -1.4214 -0.2396
  117MOL0     C15721   9.092   8.553   5.066  1.4114  0.6879 -0.2989
  117MOL0     C15722   9.243   8.556   5.098 -0.1138  0.2146 -0.9502
  117MOL0     C15723   9.313   8.418   5.103  1.0727  0.6557  0.4011
  117MOL0     C15724   9.250   8.333   5.201  0.8422 -0.7694  0.5109
  117MOL0     C15725   9.190   8.250   5.262  0.2823 -0.1622 -0.5425
  117MOL0     C15726   9.041   8.938   5.326 -0.2542 -0.1944 -0.1640
  117MOL0     C15727   8.996   9.068   5.352 -0.2757 -0.8669  0.2753
  117MOL0     H15728   9.145   9.511   5.496 -1.3092 -1.7117  2.1631
  117MOL0     H15729   9.116   9.758   5.536  0.8698 -1.1994  1.1962
  117MOL0     H15730   9.054   9.936   5.604  2.6199  1.8420 -0.5558
  117MOL0     H15731   9.079  10.009   5.443  1.6883 -3.1154 -0.8890
  117MOL0     H15732   8.897  10.182   5.516  1.5173  1.9642  0.1516
  117MOL0     H15733   8.879  10.078   5.659  3.1992 -2.6486  2.9084
  117MOL0     H15734   9.042  10.211   5.750 -1.6677  2.3001  0.4415
  117MOL0     H15735   9.152  10.117   5.647  0.3681  0.5290 -1.3421
  117MOL0     H15736   9.154  10.282   5.461 -0.8095  1.2866 -0.5724
  117MOL0     H15737   9.036  10.371   5.556 -1.7858 -2.5208  3.5845
  117MOL0     H15738   9.224  10.380   5.723  0.8628  3.7099 -0.7324
  117MOL0     H15739   9.320  10.298   5.603 -1.5194 -1.8966 -0.1473
  117MOL0     H15740   9.288  10.508   5.459  0.7781  0.1855  1.0520
  117MOL0     H15741   9.149  10.555   5.566 -0.7060  0.6620  0.3932
  117MOL0     H15742   9.264  10.598   5.746 -0.3172 -0.6612  0.6118
  117MOL0     H15743   9.432  10.549   5.683 -0.2365 -0.2388  3.3175
  117MOL0     H15744   9.378  10.805   5.686 -0.4867  0.8714 -0.4724
  117MOL0     H15745   9.248  10.771   5.573 -0.1502 -1.0614 -2.5538
  117MOL0     H15746   9.325  10.702   5.311 -1.0387 -0.3713  2.8359
  117MOL0     H15747   9.567  10.648   5.123 -1.5362  0.4271 -0.9287
  117MOL0     H15748   9.504  10.817   5.117  1.0501  2.9238  2.9469
  117MOL0     H15749   9.791  10.774   5.182  1.3471  0.1865 -1.6591
  117MOL0     H15750   9.695  10.930   5.168 -1.9386  0.5853 -2.6318
  117MOL0     H15751   9.679  10.857   4.915  2.7708  2.7712 -0.9074
  117MOL0     H15752   9.799  10.744   4.961  1.1108  1.6106 -1.7237
  117MOL0     H15753   9.922  10.936   5.072  3.3802  0.1793 -1.6160
  117MOL0     H15754   9.845  11.046   4.978 -0.7816 -1.1360  1.2891
  117MOL0     H15755  10.142  11.008   5.022 -0.9186  0.0123 -1.3124
  117MOL0     H15756  10.391  10.880   5.175 -2.1762 -1.4413 -1.3728
  117MOL0     H15757  10.502  10.943   5.048 -0.4557  0.1340 -0.7970
  117MOL0     H15758  10.364  11.037   5.120 -0.0731 -0.1013  0.1798
  117MOL0     H15759  10.701  10.762   5.226 -1.3699 -1.7179  1.5845
  117MOL0     H15760  10.918  10.691   5.269  0.2666  2.2946 -1.4978
  117MOL0     H15761  11.150  10.659   5.053  3.6524  0.7330 -0.4447
  117MOL0     H15762  11.142  10.640   5.232  0.6553 -0.8048  0.6673
  117MOL0     H15763  11.362  10.611   5.142  1.0323 -0.8632  2.0416
  117MOL0     H15764  11.303  10.454   5.200  2.3997  1.3540  0.6032
  117MOL0     H15765  11.324  10.517   4.900  1.7013 -2.2391 -2.3029
  117MOL0     H15766  11.246  10.375   4.993 -0.2390 -0.1099  0.7353
  117MOL0     H15767  11.533  10.463   5.007  0.9185 -1.2580  0.1051
  117MOL0     H15768  11.476  10.332   5.082  0.6698  0.2644 -1.0695
  117MOL0     H15769  11.404  10.211   4.871  1.6746 -2.4963  0.4626
  117MOL0     H15770  11.578  10.240   4.889 -0.8781 -1.1116  0.1368
  117MOL0     H15771  11.405  10.404   4.712 -1.0623 -0.2334 -1.2767
  117MOL0     H15772  11.590  10.417   4.747 -1.3293  1.9574 -1.9100
  117MOL0     H15773  11.450  10.311   4.535 -3.0226 -0.3036  1.1472
  117MOL0     H15774  11.468  10.154   4.620  2.7301 -0.6994 -1.4594
  117MOL0     H15775  11.704  10.335   4.570 -3.0417  2.3381 -0.3378
  117MOL0     H15776  11.644  10.195   4.465  0.9249 -1.4048  0.7097
  117MOL0     H15777  10.871  10.401   4.942 -0.6607  0.8436 -2.2477
  117MOL0     H15778  10.661  10.482   4.901  2.4671 -0.5921 -1.2416
  117MOL0     H15779  10.260  10.592   4.789 -2.9138 -1.1665 -0.7053
  117MOL0     H15780  10.041  10.677   4.753  0.7426  0.4241 -0.4264
  117MOL0     H15781   8.732   9.739   5.353 -1.3145 -1.4497  0.5240
  117MOL0     H15782   8.754   9.511   5.317 -0.9703  0.7000  0.2089
  117MOL0     H15783   8.963   9.176   5.020  1.0833  1.1347  0.7327
  117MOL0     H15784   8.990   8.943   4.985  3.2643 -1.6451  0.3569
  117MOL0     H15785   8.933   8.702   5.008 -0.4652  1.0648  0.0531
  117MOL0     H15786   9.100   8.741   4.978  0.8868 -0.3478  1.4252
  117MOL0     H15787   9.081   8.502   4.970 -0.6621 -1.5019  1.0026
  117MOL0     H15788   9.044   8.484   5.135  5.4778 -2.0137  0.2164
  117MOL0     H15789   9.263   8.597   5.197 -2.9046 -1.8378  0.5910
  117MOL0     H15790   9.302   8.611   5.024 -0.5874  0.5408 -1.0943
  117MOL0     H15791   9.421   8.420   5.121  1.2564 -1.2235 -0.1924
  117MOL0     H15792   9.289   8.367   5.009 -0.4368  3.4634 -0.8702
  117MOL0     H15793   9.147   8.180   5.331  2.4244 -1.5732 -0.5380
  117MOL0     H15794   9.064   8.864   5.402  0.4648 -0.4658 -0.6284
  117MOL0     H15795   8.976   9.095   5.455 -0.9934  0.7509 -0.2540
  118MOL0     O15796   9.001   2.895   9.263  0.4304 -0.1896 -0.5650
  118MOL0     C15797   9.000   2.779   9.249 -0.3662  0.4316  0.0179
  118MOL0     O15798   9.114   2.698   9.241  0.0794 -0.1276  0.3392
  118MOL0     C15799   9.235   2.749   9.290  0.1195 -0.0411  0.8014
  118MOL0     C15800   9.285   2.673   9.393  0.5837 -0.0785  0.4281
  118MOL0     C15801   9.404   2.705   9.451  0.1878 -0.3465 -0.2825
  118MOL0     C15802   9.488   2.815   9.400  0.0362  0.3633 -1.4474
  118MOL0     O15803   9.605   2.861   9.457  1.0901 -0.3752 -0.2578
  118MOL0     C15804   9.674   2.782   9.555  1.1814  1.1108 -0.1812
  118MOL0     C15805   9.748   2.890   9.633 -0.3998  0.1423  0.5898
  118MOL0     C15806   9.840   2.842   9.748 -0.4354 -0.0036  0.2477
  118MOL0     C15807   9.750   2.782   9.852  0.5007 -0.0012 -0.7869
  118MOL0     C15808   9.788   2.785  10.003  0.1452 -0.1908  0.7347
  118MOL0     C15809   9.674   2.726  10.089  0.4237  0.6190  0.0273
  118MOL0     C15810   9.721   2.723  10.238 -0.0800  0.2063 -0.5889
  118MOL0     C15811   9.704   2.871  10.309  0.1220 -0.4623 -0.4645
  118MOL0     N15812   9.771   2.866  10.434 -0.1228  0.2624 -0.9387
  118MOL0     C15813   9.753   2.776  10.542  0.2657 -0.8903  0.7117
  118MOL0     C15814   9.873   2.784  10.609  1.2124  0.1049 -0.6282
  118MOL0     C15815   9.921   2.701  10.720 -0.2529 -0.4012  0.2648
  118MOL0     C15816  10.007   2.580  10.655  0.8358 -0.1163  0.7442
  118MOL0     C15817  10.103   2.502  10.756  0.7181 -0.8774  0.0393
  118MOL0     C15818  10.025   2.383  10.814  0.2636  0.1791 -0.8213
  118MOL0     O15819   9.972   2.288  10.720  0.6532 -1.0436  0.1212
  118MOL0     C15820  10.059   2.200  10.671  0.2223  0.5911  0.3462
  118MOL0     C15821  10.105   2.086  10.738  0.6638  0.8689 -0.2088
  118MOL0     C15822  10.195   1.990  10.676  0.9379  0.2583 -0.3400
  118MOL0     C15823  10.248   1.892  10.771 -0.1105  0.3560 -0.3926
  118MOL0     C15824  10.242   2.019  10.546  0.5305 -0.0594 -0.1109
  118MOL0     C15825  10.342   1.936  10.485 -0.3057 -0.9912 -0.2924
  118MOL0     O15826  10.385   1.982  10.364 -0.1460 -0.0731 -0.6997
  118MOL0     C15827  10.448   1.891  10.277 -0.0946  0.7834 -0.0455
  118MOL0     C15828  10.367   1.838  10.172 -0.4699  0.9930  1.1247
  118MOL0     C15829  10.432   1.768  10.079 -0.0293  0.3545  0.2860
  118MOL0     C15830  10.572   1.754  10.063  0.2103 -0.4768 -1.5028
  118MOL0     O15831  10.639   1.686   9.973  0.1304  0.3066  0.1505
  118MOL0     C15832  10.591   1.716   9.839 -0.1131 -0.6650  0.6389
  118MOL0     C15833  10.694   1.695   9.737 -1.3823 -0.4103 -0.5621
  118MOL0     C15834  10.815   1.790   9.757 -0.8338  0.4818  0.6320
  118MOL0     C15835  10.794   1.939   9.705  0.5236  0.0622  0.2076
  118MOL0     C15836  10.910   2.039   9.701 -0.0285 -1.2890 -0.6752
  118MOL0     C15837  10.871   2.172   9.646 -0.0170  0.7670  1.2835
  118MOL0     C15838  10.782   2.251   9.739 -0.3250 -0.5075 -0.8796
  118MOL0     C15839  10.739   2.370   9.673  0.8037  0.9387 -0.4719
  118MOL0    Cl15840  10.873   2.494   9.668 -0.5178 -0.0492  0.1249
  118MOL0     C15841  10.648   1.800  10.179 -0.0082 -0.7638  0.1969
  118MOL0     C15842  10.587   1.866  10.285 -1.7342 -0.5050  0.3896
  118MOL0     O15843  10.391   1.837  10.544  0.1622  0.5239 -0.5964
  118MOL0     C15844  10.188   2.132  10.481  0.5164  0.2468 -0.4108
  118MOL0     C15845  10.102   2.222  10.544  0.3503 -0.1649 -0.0126
  118MOL0     N15846   9.945   2.888  10.552 -0.0187 -0.1506 -0.5301
  118MOL0     N15847   9.892   2.928  10.442  0.4158 -0.8666  0.3797
  118MOL0     C15848   9.427   2.891   9.301  0.2096  0.5879 -0.2923
  118MOL0     C15849   9.305   2.863   9.245  0.0721  0.1425 -0.3275
  118MOL0     C15850   8.876   2.708   9.241  0.9937  0.3350  0.0185
  118MOL0     C15851   8.759   2.773   9.269  0.8308 -0.2648 -0.4235
  118MOL0     C15852   8.638   2.714   9.270 -0.3024 -0.4618  0.6260
  118MOL0     C15853   8.624   2.578   9.239 -0.2057 -0.9788 -0.0794
  118MOL0     O15854   8.494   2.528   9.238  0.2642 -0.5731 -0.2241
  118MOL0     C15855   8.473   2.399   9.178 -1.4106 -0.0659  0.5329
  118MOL0     C15856   8.463   2.296   9.291  0.3789  0.3169  0.0985
  118MOL0     C15857   8.543   2.168   9.261 -0.2583 -0.2097 -0.5008
  118MOL0     C15858   8.474   2.067   9.165  0.0995  0.2159 -0.3486
  118MOL0     C15859   8.370   1.991   9.232  0.4213 -0.0331 -0.9786
  118MOL0     C15860   8.274   1.921   9.255 -0.5441 -0.4333 -0.5085
  118MOL0     C15861   8.741   2.509   9.213 -1.1178  0.6098 -0.6010
  118MOL0     C15862   8.864   2.571   9.210 -0.4187  0.6404  0.1883
  118MOL0     H15863   9.231   2.587   9.430 -0.0947 -1.3303 -3.0289
  118MOL0     H15864   9.424   2.638   9.534  1.0477  1.9279  1.4395
  118MOL0     H15865   9.612   2.717   9.617  0.7516 -1.3373 -2.9069
  118MOL0     H15866   9.736   2.711   9.498 -3.2390 -2.4430 -1.1582
  118MOL0     H15867   9.813   2.939   9.560 -1.6481  0.2732 -0.4655
  118MOL0     H15868   9.676   2.959   9.678 -1.0957 -1.6177  2.3037
  118MOL0     H15869   9.905   2.766   9.703 -1.1761 -0.5910  0.1589
  118MOL0     H15870   9.902   2.918   9.798 -0.1951 -1.4391  2.2375
  118MOL0     H15871   9.657   2.840   9.847  0.9311  1.4230  3.5043
  118MOL0     H15872   9.731   2.675   9.839 -1.0550  0.4216 -2.3677
  118MOL0     H15873   9.879   2.727  10.018 -1.1317 -2.2425  0.9283
  118MOL0     H15874   9.805   2.887  10.038  1.0652 -0.7389  1.9526
  118MOL0     H15875   9.586   2.790  10.071 -1.1957 -1.2581  0.8732
  118MOL0     H15876   9.654   2.624  10.057  2.9760 -0.5756  1.8885
  118MOL0     H15877   9.665   2.642  10.286  0.0457 -1.9593 -3.7506
  118MOL0     H15878   9.828   2.699  10.234 -0.4395 -1.4451 -1.1354
  118MOL0     H15879   9.598   2.881  10.333 -1.1721 -0.6363 -5.0529
  118MOL0     H15880   9.734   2.952  10.242  2.3090  0.4503  1.4676
  118MOL0     H15881   9.669   2.707  10.552 -1.0470 -0.1801 -3.5327
  118MOL0     H15882   9.991   2.760  10.781  0.1650 -0.8542  0.2294
  118MOL0     H15883   9.836   2.660  10.774  0.2490 -2.7272 -0.5958
  118MOL0     H15884  10.058   2.624  10.569 -1.6466 -1.4879 -1.5776
  118MOL0     H15885   9.942   2.507  10.606  1.2369 -0.0698  0.1370
  118MOL0     H15886  10.134   2.568  10.838  2.8512  0.4620 -1.7297
  118MOL0     H15887  10.194   2.491  10.696 -0.6395  0.7358 -2.4894
  118MOL0     H15888   9.943   2.418  10.877  1.8092  1.1490  0.7543
  118MOL0     H15889  10.089   2.340  10.892 -1.4944  1.8432  1.6957
  118MOL0     H15890  10.071   2.071  10.840 -2.7263 -1.0127 -1.4080
  118MOL0     H15891  10.356   1.898  10.786 -0.4098 -0.2797  2.6943
  118MOL0     H15892  10.205   1.897  10.872  0.3080 -1.2464 -0.1173
  118MOL0     H15893  10.213   1.795  10.735 -0.6319 -0.1113  1.2725
  118MOL0     H15894  10.260   1.854  10.166 -1.1259 -2.9236 -0.1906
  118MOL0     H15895  10.363   1.721  10.009  0.4237 -1.9975  1.3021
  118MOL0     H15896  10.521   1.636   9.813 -0.6642 -0.3782  1.2033
  118MOL0     H15897  10.556   1.820   9.837 -0.0144 -0.6235  1.1731
  118MOL0     H15898  10.736   1.595   9.719  0.3574  0.5512 -2.2290
  118MOL0     H15899  10.642   1.729   9.647 -0.6804 -3.5468 -2.2953
  118MOL0     H15900  10.909   1.753   9.715  0.3059  1.9739  1.7481
  118MOL0     H15901  10.840   1.790   9.863 -1.9754  1.4561  0.9256
  118MOL0     H15902  10.736   1.945   9.613  0.6249  0.6986  0.1830
  118MOL0     H15903  10.716   1.981   9.769  1.9779  2.7294  0.3851
  118MOL0     H15904  10.989   2.007   9.633  2.2740  1.3523  0.5868
  118MOL0     H15905  10.962   2.051   9.797  0.2760  2.3671 -1.1598
  118MOL0     H15906  10.965   2.224   9.627  0.2911  0.3392  1.6158
  118MOL0     H15907  10.824   2.160   9.548 -1.3601 -2.1434  2.1462
  118MOL0     H15908  10.842   2.273   9.828  3.6735 -3.3417 -2.5932
  118MOL0     H15909  10.700   2.190   9.780  0.5673 -1.0978  0.0758
  118MOL0     H15910  10.653   2.413   9.727  1.4310  0.5966  0.8383
  118MOL0     H15911  10.689   2.348   9.578 -2.0313  1.1452  0.8484
  118MOL0     H15912  10.756   1.794  10.180  0.3075  2.3176 -1.2115
  118MOL0     H15913  10.636   1.905  10.374 -2.5298  0.1851  0.5365
  118MOL0     H15914  10.198   2.141  10.374  1.8074  0.0267 -0.3282
  118MOL0     H15915  10.058   2.302  10.485 -0.0832 -0.5784 -0.2641
  118MOL0     H15916   9.491   2.971   9.267  0.6806  0.4540  0.2692
  118MOL0     H15917   9.273   2.928   9.164 -1.4964  0.3502  0.4230
  118MOL0     H15918   8.753   2.881   9.280 -0.4476 -0.0485 -2.5537
  118MOL0     H15919   8.550   2.765   9.307 -0.8815 -0.5416 -0.5942
  118MOL0     H15920   8.380   2.402   9.120  0.0877 -2.6564 -2.3178
  118MOL0     H15921   8.553   2.373   9.108 -1.3049  0.9388  0.2662
  118MOL0     H15922   8.362   2.263   9.319 -0.1959  3.1151  1.6199
  118MOL0     H15923   8.501   2.346   9.380  0.3519  2.4158 -1.0165
  118MOL0     H15924   8.548   2.112   9.355  0.3270  2.1716  0.9600
  118MOL0     H15925   8.643   2.199   9.227 -0.0837 -1.5882 -1.3321
  118MOL0     H15926   8.546   2.014   9.103  0.5800  1.9645 -1.3547
  118MOL0     H15927   8.422   2.122   9.086  1.1056  1.6317 -0.0502
  118MOL0     H15928   8.191   1.857   9.277 -2.1306  2.5221  3.0341
  118MOL0     H15929   8.729   2.404   9.190 -2.0446  1.0362 -2.2079
  118MOL0     H15930   8.952   2.513   9.183  0.2005  1.8940 -0.5611
  119MOL0     O15931   1.091   1.533  11.231 -0.8522 -0.2323 -0.7630
  119MOL0     C15932   1.034   1.523  11.341 -0.3397  0.4251  0.1778
  119MOL0     O15933   1.087   1.568  11.458  1.3728 -0.1353  0.4331
  119MOL0     C15934   1.202   1.638  11.455  0.0519 -0.9273  0.7879
  119MOL0     C15935   1.213   1.768  11.413 -0.4443 -0.1677 -0.2765
  119MOL0     C15936   1.332   1.852  11.427  0.7809 -0.4658 -0.5527
  119MOL0     C15937   1.447   1.791  11.479  0.2521 -0.6155  0.4775
  119MOL0     O15938   1.568   1.842  11.474 -0.0197  0.2415  0.0903
  119MOL0     C15939   1.660   1.789  11.377  0.2682  0.5489  0.5266
  119MOL0     C15940   1.797   1.784  11.441  0.3339 -0.0900 -0.0402
  119MOL0     C15941   1.899   1.834  11.339  0.5225  0.4575  0.2412
  119MOL0     C15942   2.033   1.842  11.411  0.1694 -0.0747  0.2196
  119MOL0     C15943   2.135   1.919  11.321 -0.0858  0.4645 -0.4017
  119MOL0     C15944   2.259   1.959  11.401 -0.2149  0.0448  0.3267
  119MOL0     C15945   2.379   2.022  11.327  0.1823 -0.3416 -0.1192
  119MOL0     C15946   2.474   2.102  11.419 -0.2417 -0.2150  0.4234
  119MOL0     N15947   2.581   2.156  11.342 -0.9403  0.3903 -0.7387
  119MOL0     C15948   2.688   2.085  11.294  0.7361  0.4620  0.2229
  119MOL0     C15949   2.746   2.159  11.198  1.2329 -0.2549 -0.1473
  119MOL0     C15950   2.877   2.139  11.130  0.8050  0.9438 -0.7075
  119MOL0     C15951   2.988   2.215  11.195  0.6723  0.0410 -0.5313
  119MOL0     C15952   3.116   2.183  11.127  0.3013 -0.6219 -0.7443
  119MOL0     C15953   3.243   2.254  11.172  0.5347  0.1475  0.0271
  119MOL0     O15954   3.288   2.225  11.306  0.4831 -0.0012  0.5442
  119MOL0     C15955   3.404   2.293  11.342  0.2381  0.6005 -0.6219
  119MOL0     C15956   3.529   2.279  11.279 -1.1561 -0.0567 -0.7199
  119MOL0     C15957   3.652   2.341  11.328 -0.3510  0.0868 -0.1374
  119MOL0     C15958   3.779   2.292  11.260 -0.5886  0.5751  0.1501
  119MOL0     C15959   3.647   2.439  11.429 -0.0807  0.0532  0.1632
  119MOL0     C15960   3.766   2.505  11.495  0.4289  0.6385 -0.1199
  119MOL0     O15961   3.736   2.630  11.557 -0.4551 -0.2737  0.2901
  119MOL0     C15962   3.837   2.705  11.588 -0.1170  0.3054  0.3470
  119MOL0     C15963   3.905   2.676  11.705 -0.1674  0.7432  0.7977
  119MOL0     C15964   4.017   2.759  11.745  0.8432 -0.1281 -0.5021
  119MOL0     C15965   4.053   2.867  11.671  1.5186  0.6183  0.3054
  119MOL0     O15966   4.177   2.926  11.709  0.1365  0.4682  0.6842
  119MOL0     C15967   4.222   3.039  11.643 -0.0253  0.0630  1.2397
  119MOL0     C15968   4.361   3.086  11.686 -0.2259 -0.1127 -0.0056
  119MOL0     C15969   4.369   3.140  11.837  0.5070  0.1673 -0.4436
  119MOL0     C15970   4.499   3.214  11.867  0.2851  0.2800 -0.5711
  119MOL0     C15971   4.516   3.235  12.017  0.0486 -0.2901 -0.0116
  119MOL0     C15972   4.632   3.325  12.050  0.9828  0.2494  0.1006
  119MOL0     C15973   4.633   3.383  12.193  0.0967 -0.6639 -0.2978
  119MOL0     C15974   4.770   3.450  12.206 -0.1321  0.6471  0.1473
  119MOL0    Cl15975   4.821   3.492  12.364  0.4532 -0.3909 -0.2763
  119MOL0     C15976   3.982   2.896  11.558  0.2705  0.2058  1.3254
  119MOL0     C15977   3.878   2.818  11.512  0.2105  0.6126  1.1305
  119MOL0     O15978   3.876   2.450  11.494  0.5701  0.5365  0.3721
  119MOL0     C15979   3.515   2.466  11.478 -0.6321 -0.0330 -0.0627
  119MOL0     C15980   3.394   2.399  11.440  0.2268 -0.9872 -0.3047
  119MOL0     N15981   2.675   2.276  11.196  0.6338  0.0687  1.0549
  119MOL0     N15982   2.582   2.275  11.284 -0.2845  0.6381  0.2121
  119MOL0     C15983   1.440   1.659  11.531 -0.2623  0.2788  0.1401
  119MOL0     C15984   1.316   1.590  11.525  0.3214 -0.1460  1.4945
  119MOL0     C15985   0.902   1.458  11.345  1.5128  0.2679  0.3327
  119MOL0     C15986   0.843   1.400  11.223  0.2975  0.0229  0.0291
  119MOL0     C15987   0.716   1.348  11.226 -0.8602 -0.7396 -0.3670
  119MOL0     C15988   0.643   1.343  11.349 -0.1236  0.1700  0.3674
  119MOL0     O15989   0.528   1.269  11.350  0.2929  0.2259 -1.3288
  119MOL0     C15990   0.506   1.171  11.456  0.4752  0.1897 -0.6546
  119MOL0     C15991   0.418   1.056  11.396  0.5359 -0.5669  0.3755
  119MOL0     C15992   0.479   0.976  11.269 -0.1437  0.3436  0.2195
  119MOL0     C15993   0.613   0.928  11.280 -0.2822  0.2166 -0.3106
  119MOL0     C15994   0.611   0.820  11.374 -0.3189 -0.3359  0.4527
  119MOL0     C15995   0.606   0.742  11.468 -0.5116  0.6955  0.7216
  119MOL0     C15996   0.704   1.400  11.467  0.5390  0.0018  0.4584
  119MOL0     C15997   0.828   1.462  11.460  0.3660  0.7692 -0.1330
  119MOL0     H15998   1.136   1.821  11.358 -0.6344  1.3259  1.3353
  119MOL0     H15999   1.336   1.956  11.397 -1.1006  0.1678  1.1039
  119MOL0     H16000   1.626   1.692  11.337  0.3737  0.8600 -0.3491
  119MOL0     H16001   1.654   1.862  11.295 -2.8585  3.3067  2.9262
  119MOL0     H16002   1.797   1.850  11.528  2.2828  2.7390 -2.0159
  119MOL0     H16003   1.821   1.686  11.484 -2.9161 -0.6142  0.8047
  119MOL0     H16004   1.913   1.765  11.255  0.0249  0.0485  0.4854
  119MOL0     H16005   1.864   1.930  11.300 -0.0451  1.9143  3.9737
  119MOL0     H16006   2.022   1.892  11.508  2.8054  0.2789  0.4026
  119MOL0     H16007   2.059   1.739  11.436 -1.7356 -0.3617  1.2370
  119MOL0     H16008   2.173   1.848  11.246 -1.6789  0.4612 -1.2603
  119MOL0     H16009   2.091   2.001  11.264  0.9997  0.9908 -0.5014
  119MOL0     H16010   2.221   2.034  11.470  0.9119  2.4805 -1.5460
  119MOL0     H16011   2.310   1.876  11.451 -0.8761  0.0810  1.0769
  119MOL0     H16012   2.438   1.950  11.269  1.0558  1.4340 -1.5156
  119MOL0     H16013   2.339   2.083  11.245  1.2690 -0.0115 -0.4230
  119MOL0     H16014   2.519   2.039  11.496  0.9568 -0.5614 -0.5278
  119MOL0     H16015   2.404   2.166  11.474  0.0121  0.2661  0.1913
  119MOL0     H16016   2.723   1.991  11.336  1.0403  0.4421 -0.0730
  119MOL0     H16017   2.906   2.038  11.161 -2.7511 -0.5198 -1.5904
  119MOL0     H16018   2.867   2.139  11.021 -0.5096  0.8434 -0.6029
  119MOL0     H16019   2.988   2.204  11.303 -0.8452 -1.5536 -0.6564
  119MOL0     H16020   2.969   2.322  11.182 -1.3686 -0.3322 -0.9814
  119MOL0     H16021   3.098   2.190  11.019 -0.0678 -1.1314 -0.7217
  119MOL0     H16022   3.145   2.079  11.148 -1.6531 -0.7674  1.5401
  119MOL0     H16023   3.224   2.361  11.156 -0.8294 -0.3087 -1.7287
  119MOL0     H16024   3.324   2.231  11.102  0.2160 -2.6413  0.4797
  119MOL0     H16025   3.537   2.207  11.198 -0.4355 -1.9050  0.9319
  119MOL0     H16026   3.818   2.375  11.200 -0.0004 -0.5047 -0.9999
  119MOL0     H16027   3.870   2.279  11.319 -1.4855  4.0756  2.6397
  119MOL0     H16028   3.767   2.203  11.198 -2.7322 -0.4290  1.8345
  119MOL0     H16029   3.863   2.604  11.775 -0.1973 -3.3085 -2.9275
  119MOL0     H16030   4.066   2.748  11.841 -0.6236  2.7952  0.7052
  119MOL0     H16031   4.216   3.014  11.536  0.2230 -0.3238  1.3130
  119MOL0     H16032   4.160   3.123  11.675  0.7838  0.6184  1.3974
  119MOL0     H16033   4.424   2.996  11.687 -0.0624 -0.0218  2.0242
  119MOL0     H16034   4.403   3.164  11.622  0.5246  2.0494  2.9338
  119MOL0     H16035   4.357   3.055  11.904  1.0204  2.4276  2.7235
  119MOL0     H16036   4.290   3.215  11.848  0.6977  0.2830  0.1863
  119MOL0     H16037   4.586   3.163  11.824 -0.1495 -0.5388 -0.5082
  119MOL0     H16038   4.497   3.309  11.812  0.2646  0.4917 -0.2074
  119MOL0     H16039   4.525   3.140  12.071  1.4266  0.6859  1.5992
  119MOL0     H16040   4.428   3.283  12.061 -0.0829  0.4156 -1.0285
  119MOL0     H16041   4.729   3.279  12.028 -0.4590 -2.2819 -1.4890
  119MOL0     H16042   4.626   3.413  11.986 -1.8427 -0.1004 -0.2521
  119MOL0     H16043   4.635   3.294  12.257 -2.6087 -0.3715  0.3178
  119MOL0     H16044   4.548   3.445  12.221 -1.9942 -2.3343 -2.5283
  119MOL0     H16045   4.780   3.533  12.135  0.0049  0.5444  0.0458
  119MOL0     H16046   4.849   3.378  12.180  1.9979  2.8563  0.0780
  119MOL0     H16047   4.001   2.984  11.496 -2.8529 -0.0846 -0.2379
  119MOL0     H16048   3.828   2.838  11.418  0.2877  0.5166  1.0683
  119MOL0     H16049   3.526   2.523  11.570  3.4450 -2.6067  1.3176
  119MOL0     H16050   3.309   2.419  11.503 -0.2716  1.4173 -1.6229
  119MOL0     H16051   1.522   1.619  11.588 -1.3974 -2.8442 -0.2509
  119MOL0     H16052   1.321   1.485  11.550  0.6868 -0.8047 -1.0605
  119MOL0     H16053   0.905   1.385  11.135  2.4577  1.3422  1.2048
  119MOL0     H16054   0.669   1.289  11.149  0.3998  0.0099 -1.7647
  119MOL0     H16055   0.604   1.137  11.490 -0.3811  0.8677  2.9411
  119MOL0     H16056   0.455   1.207  11.546  1.0926  0.8727 -0.5761
  119MOL0     H16057   0.328   1.107  11.360  1.9666  1.8653 -0.0439
  119MOL0     H16058   0.379   0.987  11.470 -2.2193 -0.7113 -1.0929
  119MOL0     H16059   0.474   1.052  11.190 -0.5412 -0.6323 -0.7209
  119MOL0     H16060   0.412   0.896  11.236 -0.9275  0.6217  1.0598
  119MOL0     H16061   0.674   1.012  11.316 -0.7276  0.3232  0.2076
  119MOL0     H16062   0.642   0.896  11.179 -1.4237  0.3579 -0.6899
  119MOL0     H16063   0.601   0.675  11.552 -0.1484  0.7291  0.7726
  119MOL0     H16064   0.642   1.397  11.556  0.4466 -0.0282  0.3940
  119MOL0     H16065   0.875   1.513  11.543  1.8390  0.2450 -0.6217
  120MOL0     O16066  10.806   1.294   2.920 -0.0350 -0.4582  0.3369
  120MOL0     C16067  10.748   1.312   2.816 -0.3762 -0.7382  0.2914
  120MOL0     O16068  10.807   1.311   2.695  0.4450 -0.0671  0.2409
  120MOL0     C16069  10.941   1.277   2.671  0.7524 -0.2699  1.0731
  120MOL0     C16070  10.964   1.162   2.595  0.2235 -0.2614  0.1659
  120MOL0     C16071  11.093   1.121   2.563  0.2405  0.7403  0.2936
  120MOL0     C16072  11.201   1.204   2.608 -0.7733 -0.8552  0.4092
  120MOL0     O16073  11.331   1.167   2.599  0.4504 -0.5263 -0.3968
  120MOL0     C16074  11.377   1.051   2.512  0.4734 -0.6148  0.0674
  120MOL0     C16075  11.349   1.079   2.360  0.3603  0.0382 -0.5693
  120MOL0     C16076  11.434   1.203   2.316  0.5069  0.5674 -0.7426
  120MOL0     C16077  11.569   1.157   2.273  0.2923  0.3902  0.1657
  120MOL0     C16078  11.592   1.112   2.123 -0.0577  1.0799  0.1626
  120MOL0     C16079  11.728   1.045   2.109 -0.5570  0.4395 -0.9023
  120MOL0     C16080  11.847   1.131   2.142 -0.9157 -0.0664 -0.1865
  120MOL0     C16081  11.976   1.051   2.125  0.0554  0.5391  0.0085
  120MOL0     N16082  12.048   1.036   2.255 -0.0123  0.1217  1.1095
  120MOL0     C16083  12.026   0.933   2.344  0.0563  0.2314  0.1876
  120MOL0     C16084  12.114   0.963   2.437 -0.2152  1.4449  0.4988
  120MOL0     C16085  12.140   0.876   2.557 -0.6077 -0.1363  0.2135
  120MOL0     C16086  12.065   0.927   2.681 -0.0857  0.2041 -0.1389
  120MOL0     C16087  12.159   0.984   2.787  0.1941 -0.6172  0.0519
  120MOL0     C16088  12.240   1.107   2.732 -0.8123  0.3651 -0.2723
  120MOL0     O16089  12.301   1.175   2.842 -0.4938 -0.3676 -0.2218
  120MOL0     C16090  12.308   1.314   2.828  0.2455 -0.1151  0.1123
  120MOL0     C16091  12.287   1.396   2.942  0.1510 -0.6071  0.4208
  120MOL0     C16092  12.336   1.530   2.956  0.7335 -0.2521  0.1300
  120MOL0     C16093  12.327   1.585   3.093  0.5309 -0.0703  0.1998
  120MOL0     C16094  12.393   1.585   2.836  0.1187 -0.9241 -1.1243
  120MOL0     C16095  12.463   1.710   2.836  0.1770 -0.2605  0.6489
  120MOL0     O16096  12.479   1.775   2.717  0.1383 -0.3547 -0.3566
  120MOL0     C16097  12.535   1.903   2.706  0.1565 -0.2081 -0.1109
  120MOL0     C16098  12.620   1.958   2.801 -0.0687 -1.1257  0.0053
  120MOL0     C16099  12.675   2.081   2.774  0.3358 -0.1136  0.4164
  120MOL0     C16100  12.634   2.159   2.660 -0.8220  0.3850  0.0414
  120MOL0     O16101  12.688   2.282   2.632  0.5938 -0.8301  0.3330
  120MOL0     C16102  12.662   2.378   2.744  0.8990  0.3487 -0.6342
  120MOL0     C16103  12.708   2.516   2.694 -0.5786 -0.3925  0.4236
  120MOL0     C16104  12.856   2.540   2.676 -1.0930  0.1807  0.8167
  120MOL0     C16105  12.906   2.584   2.534 -0.3399 -0.0990  0.2412
  120MOL0     C16106  13.056   2.615   2.517 -0.7651 -0.2409 -0.1548
  120MOL0     C16107  13.147   2.489   2.510 -0.3753  0.1170 -1.2862
  120MOL0     C16108  13.282   2.511   2.450 -0.8145  0.5832 -0.1154
  120MOL0     C16109  13.385   2.406   2.484  0.0684  0.4101  0.1191
  120MOL0    Cl16110  13.448   2.416   2.653  0.2536 -0.4393 -0.3008
  120MOL0     C16111  12.541   2.107   2.569  0.4748  0.8830  0.8305
  120MOL0     C16112  12.503   1.972   2.587 -0.2061 -0.3206  0.1884
  120MOL0     O16113  12.457   1.764   2.945  0.2877  0.7242  0.8151
  120MOL0     C16114  12.398   1.510   2.710 -0.3578 -0.0116 -0.4379
  120MOL0     C16115  12.360   1.377   2.711  0.3583 -0.6595  0.0188
  120MOL0     N16116  12.197   1.069   2.400  0.0190  0.4657 -0.7401
  120MOL0     N16117  12.155   1.111   2.295 -0.1413 -0.6592  0.3389
  120MOL0     C16118  11.174   1.326   2.673 -0.0117 -0.0160  0.6537
  120MOL0     C16119  11.051   1.360   2.700  0.3470 -0.6035  0.4512
  120MOL0     C16120  10.602   1.331   2.818  0.4816  0.1885 -0.6391
  120MOL0     C16121  10.536   1.325   2.939 -0.8139 -0.5818 -0.1819
  120MOL0     C16122  10.393   1.335   2.950  0.2411 -0.0314 -0.0654
  120MOL0     C16123  10.317   1.359   2.834 -0.2233 -0.1767 -0.6991
  120MOL0     O16124  10.185   1.378   2.841 -0.1822 -0.1309 -0.2817
  120MOL0     C16125  10.103   1.344   2.959 -0.0382  0.1972  0.1523
  120MOL0     C16126   9.954   1.331   2.912 -0.6867 -0.4825  0.1484
  120MOL0     C16127   9.856   1.290   3.007 -0.4176  0.3930 -0.6975
  120MOL0     C16128   9.890   1.166   3.086 -0.4359  0.7507 -0.8661
  120MOL0     C16129   9.983   1.195   3.195 -0.7153  0.3234 -1.3773
  120MOL0     C16130  10.056   1.229   3.284 -0.8427 -0.6742 -0.6512
  120MOL0     C16131  10.385   1.381   2.715 -0.2683  1.1570 -0.2304
  120MOL0     C16132  10.527   1.359   2.701 -0.6317  1.6401 -0.1835
  120MOL0     H16133  10.876   1.117   2.550  0.6314 -1.4502  0.5173
  120MOL0     H16134  11.103   1.040   2.491  0.1442  1.7812 -0.9275
  120MOL0     H16135  11.484   1.033   2.524  0.2373 -4.2643 -1.8924
  120MOL0     H16136  11.322   0.960   2.539  0.6591 -0.2255  1.9309
  120MOL0     H16137  11.369   0.985   2.307  1.7775  1.3779 -2.5460
  120MOL0     H16138  11.242   1.092   2.345  0.0956 -0.3962  0.7966
  120MOL0     H16139  11.392   1.246   2.225 -2.3002  1.1214  0.7047
  120MOL0     H16140  11.438   1.288   2.386 -0.8585  2.5492 -2.9330
  120MOL0     H16141  11.634   1.242   2.295 -0.9207  1.9205 -1.7510
  120MOL0     H16142  11.590   1.066   2.329  0.8548  0.6205  0.3351
  120MOL0     H16143  11.517   1.040   2.091  1.1159 -0.8485  1.5509
  120MOL0     H16144  11.584   1.206   2.068 -0.0717  2.6813  2.7543
  120MOL0     H16145  11.729   0.952   2.167  1.5249  1.6376  1.1441
  120MOL0     H16146  11.737   1.017   2.004 -2.3187  0.4847 -1.0980
  120MOL0     H16147  11.857   1.225   2.088  2.8963  0.3874  1.0378
  120MOL0     H16148  11.844   1.165   2.246  1.9703  0.9391 -0.3415
  120MOL0     H16149  12.047   1.086   2.049  1.4014 -3.4833 -0.8539
  120MOL0     H16150  11.959   0.952   2.082  1.9327  0.7155 -1.2759
  120MOL0     H16151  11.953   0.853   2.346 -0.5299  0.7258 -0.5237
  120MOL0     H16152  12.118   0.774   2.526  1.3346 -0.9232  1.2122
  120MOL0     H16153  12.246   0.876   2.582 -0.7718 -3.5461  1.3531
  120MOL0     H16154  12.009   0.844   2.725  0.4305 -0.4212 -0.6388
  120MOL0     H16155  11.987   0.999   2.656 -0.9223 -1.1263 -1.5146
  120MOL0     H16156  12.229   0.907   2.820 -2.6089 -1.7777  3.9834
  120MOL0     H16157  12.102   1.025   2.870  0.4759  0.6585 -0.3664
  120MOL0     H16158  12.184   1.171   2.663  0.1966  0.4109 -1.0685
  120MOL0     H16159  12.324   1.064   2.677 -0.7606 -0.9599  0.7989
  120MOL0     H16160  12.238   1.356   3.030 -2.7272  1.2545 -0.1872
  120MOL0     H16161  12.281   1.520   3.168 -1.4353  2.2212  1.1266
  120MOL0     H16162  12.422   1.607   3.141 -0.5842 -2.2999  3.8236
  120MOL0     H16163  12.263   1.672   3.072 -0.9730 -1.5536 -1.8843
  120MOL0     H16164  12.651   1.896   2.883 -1.4822 -0.8567  0.7819
  120MOL0     H16165  12.748   2.126   2.841  2.3743 -4.0333  1.1647
  120MOL0     H16166  12.558   2.388   2.774  0.8033 -1.4909 -0.2340
  120MOL0     H16167  12.721   2.347   2.830  2.4342  2.4419 -0.8576
  120MOL0     H16168  12.655   2.544   2.602 -0.1997 -2.8657 -0.6158
  120MOL0     H16169  12.679   2.577   2.781  0.2386  1.8487 -0.7958
  120MOL0     H16170  12.913   2.450   2.701 -0.0656 -1.0625 -4.8321
  120MOL0     H16171  12.883   2.621   2.744  0.6971  1.9492 -1.8162
  120MOL0     H16172  12.872   2.522   2.450  0.1233  1.2827 -1.0162
  120MOL0     H16173  12.853   2.679   2.524  0.2495  0.5871  2.8836
  120MOL0     H16174  13.088   2.687   2.593  1.2816 -0.7913 -0.4443
  120MOL0     H16175  13.052   2.662   2.419  2.5313  1.3757  0.3662
  120MOL0     H16176  13.161   2.445   2.609 -1.2166  0.0730 -1.1751
  120MOL0     H16177  13.085   2.420   2.452  0.5041 -1.1190 -0.7926
  120MOL0     H16178  13.333   2.607   2.467  0.5594 -0.3422  1.1911
  120MOL0     H16179  13.268   2.516   2.342 -0.7358  0.2550 -0.1412
  120MOL0     H16180  13.466   2.428   2.414  1.4018 -0.1944  1.4205
  120MOL0     H16181  13.351   2.304   2.467  0.9528  0.4051 -1.8134
  120MOL0     H16182  12.514   2.165   2.482 -0.7406  0.4612  0.9134
  120MOL0     H16183  12.438   1.935   2.509 -2.0923  0.4030  1.3476
  120MOL0     H16184  12.419   1.554   2.613 -1.5799  0.3385 -0.5629
  120MOL0     H16185  12.377   1.326   2.617 -1.3871  0.4718 -0.9498
  120MOL0     H16186  11.244   1.396   2.716  0.3598 -1.2946  2.2280
  120MOL0     H16187  11.031   1.455   2.749  1.7328 -0.7716  1.4335
  120MOL0     H16188  10.586   1.293   3.029 -0.9707 -1.4515 -0.3996
  120MOL0     H16189  10.357   1.317   3.051  0.1548 -0.8767 -0.2432
  120MOL0     H16190  10.126   1.245   2.998  0.3447 -0.0279 -0.6262
  120MOL0     H16191  10.117   1.422   3.035  0.6245  1.0501 -0.8274
  120MOL0     H16192   9.957   1.247   2.842  1.1756 -1.1102  0.9330
  120MOL0     H16193   9.917   1.421   2.861 -0.2584 -1.3507 -1.8150
  120MOL0     H16194   9.761   1.272   2.954  0.2048 -1.1271 -1.3663
  120MOL0     H16195   9.829   1.359   3.087  1.1627 -1.8603  1.9500
  120MOL0     H16196   9.932   1.085   3.025 -0.2350  0.1822  0.0087
  120MOL0     H16197   9.796   1.123   3.124  1.3670 -3.7852 -0.9380
  120MOL0     H16198  10.122   1.266   3.360  0.1558 -2.3077 -0.6840
  120MOL0     H16199  10.329   1.395   2.623 -0.3229  0.0593 -0.3704
  120MOL0     H16200  10.589   1.355   2.612 -0.0563 -0.6299  0.2405
  121MOL0     O16201   9.800  10.423  10.494 -0.1687 -0.0379 -0.0009
  121MOL0     C16202   9.886  10.371  10.426  0.4034 -0.3741  0.6243
  121MOL0     O16203  10.024  10.356  10.462 -0.7894 -0.7300  0.0500
  121MOL0     C16204  10.059  10.380  10.594  0.7452  0.6724  0.1519
  121MOL0     C16205   9.980  10.336  10.706 -1.2223  0.3679 -0.0146
  121MOL0     C16206  10.019  10.365  10.840 -0.3478  0.2543 -0.0430
  121MOL0     C16207  10.128  10.447  10.862 -0.3944  0.0793 -1.4244
  121MOL0     O16208  10.190  10.480  10.984 -0.4378 -0.2717 -0.3848
  121MOL0     C16209  10.163  10.400  11.097  0.1533  0.4458  0.3289
  121MOL0     C16210  10.248  10.450  11.222  0.4547 -0.0584 -1.4427
  121MOL0     C16211  10.208  10.602  11.250 -0.5315  0.0154 -0.3954
  121MOL0     C16212  10.284  10.662  11.371  0.0493 -0.0398 -0.2623
  121MOL0     C16213  10.263  10.809  11.373 -0.6843  0.0967 -0.0005
  121MOL0     C16214  10.333  10.893  11.485 -0.8785 -0.0904 -0.5705
  121MOL0     C16215  10.230  10.961  11.582  0.7251  0.3990  0.0792
  121MOL0     C16216  10.277  11.001  11.731 -0.4755  0.7258  0.5666
  121MOL0     N16217  10.172  10.990  11.822 -0.6132  0.9388 -0.8633
  121MOL0     C16218  10.133  10.865  11.870  0.3861  0.0592  0.3373
  121MOL0     C16219  10.044  10.894  11.965 -0.2801  0.3880 -0.8592
  121MOL0     C16220   9.962  10.796  12.051 -0.0829  0.2488  0.6706
  121MOL0     C16221  10.046  10.732  12.162 -0.5877 -1.1064  1.2072
  121MOL0     C16222   9.946  10.662  12.253 -0.7003 -0.0991  0.0402
  121MOL0     C16223  10.005  10.640  12.395  0.1294 -0.1625  1.2919
  121MOL0     O16224   9.900  10.663  12.485 -0.5581  0.1353  0.2653
  121MOL0     C16225   9.938  10.669  12.619 -0.3487 -0.7572 -0.3816
  121MOL0     C16226   9.902  10.784  12.690 -1.6785 -0.1662 -0.4613
  121MOL0     C16227   9.905  10.792  12.826  0.1754  0.3903  0.3464
  121MOL0     C16228   9.872  10.926  12.885  0.1611  0.3957 -0.4527
  121MOL0     C16229   9.962  10.695  12.910  0.3804  0.5756  1.0782
  121MOL0     C16230   9.973  10.701  13.052 -0.0845  0.3762  0.4134
  121MOL0     O16231  10.081  10.645  13.111  0.5423  0.3434 -0.1998
  121MOL0     C16232  10.096  10.650  13.248 -0.1160 -0.6959  0.3667
  121MOL0     C16233  10.113  10.768  13.326 -0.5959  0.1011  0.2680
  121MOL0     C16234  10.089  10.759  13.468 -1.0058  0.0121  0.7984
  121MOL0     C16235  10.071  10.634  13.532 -0.4075 -0.1735 -0.3959
  121MOL0     O16236  10.043  10.633  13.663  0.5763  0.0269 -0.1041
  121MOL0     C16237  10.084  10.740  13.756 -0.3586  0.4850  0.5173
  121MOL0     C16238  10.010  10.700  13.885 -0.2725  0.7929  0.6545
  121MOL0     C16239  10.043  10.787  13.998  0.5497 -0.6518 -0.3516
  121MOL0     C16240  10.006  10.942  13.993 -0.3162  0.9495 -0.2626
  121MOL0     C16241   9.959  10.999  14.127 -0.1558 -0.2402 -0.1096
  121MOL0     C16242   9.894  11.131  14.094  0.3083 -0.1802  0.8331
  121MOL0     C16243   9.825  11.226  14.208 -0.9903 -0.7161 -0.1887
  121MOL0     C16244   9.926  11.238  14.326 -0.1791 -0.5137 -0.2671
  121MOL0    Cl16245   9.913  11.092  14.428  0.0789  0.5013 -0.1109
  121MOL0     C16246  10.070  10.523  13.456  0.2355  0.2865  0.6424
  121MOL0     C16247  10.084  10.530  13.322 -0.5367  0.2206  0.5797
  121MOL0     O16248   9.877  10.740  13.118 -0.6195 -0.1685  0.2581
  121MOL0     C16249  10.008  10.585  12.833  0.1245 -0.6779 -0.3062
  121MOL0     C16250   9.987  10.566  12.698 -0.4023 -0.7099 -0.4208
  121MOL0     N16251  10.037  11.034  11.981 -0.1330  0.9062  0.1085
  121MOL0     N16252  10.113  11.086  11.900  0.3462 -0.6242 -0.6940
  121MOL0     C16253  10.197  10.507  10.756 -0.2079 -0.1334 -0.4690
  121MOL0     C16254  10.170  10.473  10.624  0.0973  0.1072 -0.0439
  121MOL0     C16255   9.840  10.285  10.307 -0.6893 -0.1434  0.2193
  121MOL0     C16256   9.933  10.203  10.239  0.6366  0.3846 -0.5276
  121MOL0     C16257   9.880  10.131  10.133 -0.2660 -0.2687 -1.0093
  121MOL0     C16258   9.750  10.124  10.096 -0.3256  0.6993 -0.3199
  121MOL0     O16259   9.711  10.050   9.986 -0.2834 -0.2725  0.0895
  121MOL0     C16260   9.570  10.023   9.965 -1.0960  0.6998 -0.6834
  121MOL0     C16261   9.546   9.925   9.857  0.5065  0.6269  0.5121
  121MOL0     C16262   9.607   9.784   9.897  0.2191  0.6699  0.4881
  121MOL0     C16263   9.496   9.698   9.958 -0.0049  0.7400  0.6829
  121MOL0     C16264   9.532   9.550   9.976 -1.1733 -0.0478 -0.1032
  121MOL0     C16265   9.552   9.428   9.988 -0.3367 -0.3657  1.0085
  121MOL0     C16266   9.660  10.192  10.174  0.1666 -1.4183  0.5303
  121MOL0     C16267   9.707  10.276  10.276  0.1547  0.2337 -0.4590
  121MOL0     H16268   9.898  10.268  10.684  0.2654 -1.0203 -1.5555
  121MOL0     H16269   9.966  10.323  10.925 -2.2454 -0.3219 -1.4341
  121MOL0     H16270  10.056  10.411  11.118 -0.1554  1.7439 -1.6967
  121MOL0     H16271  10.192  10.298  11.073  2.7899  0.9365  1.1581
  121MOL0     H16272  10.209  10.406  11.314 -1.6674 -1.9314 -3.1369
  121MOL0     H16273  10.355  10.429  11.214  0.0017 -3.4498 -0.2877
  121MOL0     H16274  10.234  10.664  11.164 -2.8603 -0.0652 -1.2280
  121MOL0     H16275  10.101  10.617  11.266 -0.5678  0.5078 -1.0713
  121MOL0     H16276  10.238  10.623  11.462 -2.3850  1.8564 -0.5785
  121MOL0     H16277  10.391  10.646  11.354 -0.0414  0.7186 -1.6435
  121MOL0     H16278  10.312  10.848  11.283  0.4061  1.7599  1.2686
  121MOL0     H16279  10.157  10.835  11.375 -1.3773 -2.4732  0.7985
  121MOL0     H16280  10.401  10.827  11.541 -1.5538  1.3991  2.1360
  121MOL0     H16281  10.406  10.963  11.442 -0.0824  2.2243  3.9515
  121MOL0     H16282  10.196  11.051  11.531  2.0304  0.1774 -1.2448
  121MOL0     H16283  10.146  10.892  11.597  1.9491 -1.2349 -0.3161
  121MOL0     H16284  10.318  11.102  11.725 -1.0458  0.9019 -0.6880
  121MOL0     H16285  10.355  10.931  11.762 -1.5122 -0.0849  1.4298
  121MOL0     H16286  10.157  10.768  11.828 -0.8828  0.0112 -0.3401
  121MOL0     H16287   9.871  10.842  12.090  1.0721  0.8040  2.8826
  121MOL0     H16288   9.926  10.716  11.985  4.4354 -1.0547 -0.5960
  121MOL0     H16289  10.112  10.805  12.208 -2.2231  1.1371  0.1812
  121MOL0     H16290  10.107  10.659  12.106 -0.3706  2.3650 -3.7173
  121MOL0     H16291   9.919  10.566  12.209 -1.9768  0.0101  0.5457
  121MOL0     H16292   9.860  10.729  12.266  1.6200  3.9058 -2.7724
  121MOL0     H16293  10.094  10.700  12.418  0.0913  0.1933  0.5296
  121MOL0     H16294  10.047  10.539  12.394 -1.1406 -0.7053  0.2655
  121MOL0     H16295   9.872  10.866  12.625 -0.8677  2.0323  1.7805
  121MOL0     H16296   9.962  10.960  12.937  0.5564 -0.1700 -0.7584
  121MOL0     H16297   9.846  10.994  12.803 -3.2432 -0.6532 -0.4118
  121MOL0     H16298   9.785  10.922  12.951 -0.1345  0.6840 -0.8150
  121MOL0     H16299  10.138  10.861  13.275 -0.0540  0.4456  1.1230
  121MOL0     H16300  10.099  10.858  13.512 -2.0224  0.7816 -0.6222
  121MOL0     H16301  10.192  10.749  13.770 -0.0816  2.5773 -2.0385
  121MOL0     H16302  10.054  10.843  13.731 -1.6958 -0.7948 -4.0501
  121MOL0     H16303   9.904  10.688  13.860 -0.8308  1.4510  2.5734
  121MOL0     H16304  10.046  10.601  13.913 -0.9667  0.1842 -0.5339
  121MOL0     H16305  10.152  10.782  14.006  0.3489 -2.2346  2.5554
  121MOL0     H16306  10.005  10.742  14.089  0.6433  1.3295  0.7281
  121MOL0     H16307  10.086  11.006  13.954 -2.3030  2.3690 -2.2961
  121MOL0     H16308   9.925  10.946  13.920 -0.7449 -3.0071 -0.2173
  121MOL0     H16309  10.048  11.005  14.190 -1.4015  1.5092  1.6132
  121MOL0     H16310   9.886  10.935  14.179 -1.3671  0.6037 -0.7265
  121MOL0     H16311   9.963  11.204  14.052 -1.0777  0.3926 -0.5197
  121MOL0     H16312   9.819  11.104  14.019  1.7710  0.2061 -0.8190
  121MOL0     H16313   9.724  11.197  14.238 -1.7135  0.8496 -0.9884
  121MOL0     H16314   9.817  11.330  14.176  0.1490 -0.4254  0.4031
  121MOL0     H16315   9.895  11.316  14.395 -2.5956 -1.8112  0.2502
  121MOL0     H16316  10.022  11.260  14.279 -0.2458  1.0758  0.2888
  121MOL0     H16317  10.040  10.426  13.494  1.9531 -0.1907  0.8644
  121MOL0     H16318  10.072  10.443  13.258  2.4538  1.9805 -2.6871
  121MOL0     H16319  10.055  10.508  12.893  0.9216 -0.1488 -0.2289
  121MOL0     H16320  10.002  10.473  12.643  1.4874  0.7581 -2.5573
  121MOL0     H16321  10.276  10.576  10.785  0.1086 -2.3731  5.2626
  121MOL0     H16322  10.245  10.514  10.557  0.6793 -1.7146 -0.5586
  121MOL0     H16323  10.036  10.200  10.274  0.2577  0.5550  0.6669
  121MOL0     H16324   9.943  10.068  10.070  4.0967  0.1472  2.4279
  121MOL0     H16325   9.536   9.971  10.055  4.2346  0.0871  1.3207
  121MOL0     H16326   9.509  10.111   9.943  1.6512  3.0126  0.3514
  121MOL0     H16327   9.596   9.961   9.766  0.0962  0.6154  0.2827
  121MOL0     H16328   9.439   9.920   9.835  0.6256 -1.9166  0.1112
  121MOL0     H16329   9.695   9.798   9.960  0.3040  2.1731  0.0788
  121MOL0     H16330   9.655   9.740   9.809  1.1666  0.3571  1.1470
  121MOL0     H16331   9.410   9.700   9.891 -0.0056  1.8131  0.6847
  121MOL0     H16332   9.472   9.727  10.061  3.8386 -0.6636  2.1472
  121MOL0     H16333   9.578   9.325   9.999  1.6091  0.1995  2.2390
  121MOL0     H16334   9.552  10.201  10.173  0.2833  1.6755  2.5158
  121MOL0     H16335   9.639  10.328  10.342 -0.0017 -1.4194  0.7447
  122MOL0     O16336   5.883  10.739   2.036 -0.5848  0.1175  0.2332
  122MOL0     C16337   5.881  10.857   1.995 -0.2491  0.3774 -0.6392
  122MOL0     O16338   5.793  10.919   1.920 -0.6839 -0.9948  0.2532
  122MOL0     C16339   5.674  10.851   1.899  0.7923 -0.1963 -0.1197
  122MOL0     C16340   5.601  10.795   2.001  0.5793 -0.6354  0.1392
  122MOL0     C16341   5.486  10.728   1.974 -0.0318 -0.3748  0.8896
  122MOL0     C16342   5.439  10.720   1.844 -0.2249 -0.8774 -0.3401
  122MOL0     O16343   5.328  10.642   1.827  0.2344  0.4159  1.4279
  122MOL0     C16344   5.257  10.649   1.700  0.7639 -0.5970 -0.3040
  122MOL0     C16345   5.116  10.583   1.696 -0.3459  0.5359 -0.3989
  122MOL0     C16346   5.058  10.603   1.556 -0.1179  0.2168 -0.4921
  122MOL0     C16347   4.914  10.540   1.556  0.7092  0.0824 -0.0792
  122MOL0     C16348   4.868  10.540   1.402  1.0061  0.6095  0.2219
  122MOL0     C16349   4.707  10.536   1.372 -1.8537  0.8534 -0.6808
  122MOL0     C16350   4.670  10.402   1.421 -0.2918 -0.4883  0.2674
  122MOL0     C16351   4.531  10.351   1.398  0.4290  0.3293  0.0739
  122MOL0     N16352   4.422  10.443   1.434 -0.4041  0.4122  0.0122
  122MOL0     C16353   4.325  10.482   1.346 -0.7151  0.0998  0.0351
  122MOL0     C16354   4.219  10.524   1.416  0.5484  0.2210 -0.4358
  122MOL0     C16355   4.085  10.583   1.374  0.7880 -0.2478 -0.2628
  122MOL0     C16356   3.983  10.480   1.331 -0.4162 -0.5747  0.0890
  122MOL0     C16357   3.839  10.509   1.356  0.2507 -0.4211  0.4112
  122MOL0     C16358   3.798  10.500   1.504  1.0306 -0.5697 -0.5349
  122MOL0     O16359   3.784  10.363   1.544  0.6135 -0.4526 -0.7933
  122MOL0     C16360   3.726  10.346   1.664 -0.7650  0.9131 -1.1384
  122MOL0     C16361   3.640  10.241   1.681 -0.7695  0.3270 -0.1390
  122MOL0     C16362   3.569  10.222   1.798 -0.3869 -0.1761  0.1167
  122MOL0     C16363   3.470  10.115   1.802  1.0238  0.1646 -0.0192
  122MOL0     C16364   3.605  10.297   1.912  0.0612  0.0623  0.0423
  122MOL0     C16365   3.552  10.281   2.061 -0.3028  0.6443  0.7418
  122MOL0     O16366   3.621  10.361   2.144  0.8419 -0.0237 -0.5017
  122MOL0     C16367   3.576  10.368   2.267  0.6789  0.3155  0.8977
  122MOL0     C16368   3.441  10.375   2.310 -0.1796 -1.0302 -0.0962
  122MOL0     C16369   3.415  10.382   2.448 -0.8729  0.3461 -1.1431
  122MOL0     C16370   3.514  10.384   2.549 -0.4932 -0.4204 -0.2266
  122MOL0     O16371   3.493  10.354   2.683  0.2691 -0.4817  0.1234
  122MOL0     C16372   3.518  10.454   2.788  0.0087  0.5598  0.4861
  122MOL0     C16373   3.394  10.542   2.806  0.3259  1.9611 -1.2143
  122MOL0     C16374   3.395  10.653   2.919 -0.2201 -0.1402  0.7146
  122MOL0     C16375   3.371  10.591   3.055 -0.8558  0.4521  0.4571
  122MOL0     C16376   3.236  10.531   3.080  0.7120 -0.3820 -0.1503
  122MOL0     C16377   3.233  10.457   3.206 -0.6369 -0.6287 -1.1246
  122MOL0     C16378   3.200  10.506   3.345 -0.0020 -0.3159  0.6511
  122MOL0     C16379   3.189  10.657   3.370 -0.6560 -0.8078  0.1040
  122MOL0    Cl16380   3.351  10.729   3.407  0.1970 -0.2814 -0.5751
  122MOL0     C16381   3.651  10.389   2.500  0.2654 -0.4805  0.1366
  122MOL0     C16382   3.670  10.374   2.365 -0.5980 -0.0199  0.4413
  122MOL0     O16383   3.461  10.207   2.086 -0.4010  0.2160  0.0589
  122MOL0     C16384   3.711  10.395   1.894  0.3763  0.4353 -0.1938
  122MOL0     C16385   3.776  10.420   1.773  0.8297 -0.1026  0.3553
  122MOL0     N16386   4.250  10.507   1.553  0.6127  0.2720  0.6460
  122MOL0     N16387   4.372  10.461   1.562  0.0705  0.6171 -0.8671
  122MOL0     C16388   5.516  10.768   1.738  0.0538 -0.9737  0.3360
  122MOL0     C16389   5.633  10.833   1.769 -0.5675  0.4002 -0.3031
  122MOL0     C16390   6.004  10.916   2.038  0.1462 -0.4687  0.2300
  122MOL0     C16391   6.109  10.852   2.110  0.3280  0.5623 -0.4670
  122MOL0     C16392   6.225  10.922   2.133 -0.6066  0.1925  0.9600
  122MOL0     C16393   6.248  11.047   2.068 -0.1604 -0.5205  1.0334
  122MOL0     O16394   6.372  11.116   2.080  0.4944  0.7009  0.6421
  122MOL0     C16395   6.422  11.200   1.976  0.8469 -0.1568 -0.4561
  122MOL0     C16396   6.566  11.252   2.004 -0.1560  0.2556  0.7826
  122MOL0     C16397   6.590  11.299   2.149 -0.0805 -0.1989 -0.0712
  122MOL0     C16398   6.573  11.199   2.260 -0.0768 -0.6092  0.3126
  122MOL0     C16399   6.641  11.068   2.228  0.3167  0.3518 -0.9692
  122MOL0     C16400   6.694  10.967   2.191 -0.4130  0.2412 -0.7047
  122MOL0     C16401   6.145  11.112   1.998  0.5428  0.0302  0.8295
  122MOL0     C16402   6.022  11.048   1.989  0.4344  0.0707 -0.3576
  122MOL0     H16403   5.633  10.809   2.103  1.0557  4.1965 -0.4606
  122MOL0     H16404   5.420  10.688   2.050 -0.6585 -0.5769  0.2526
  122MOL0     H16405   5.240  10.753   1.671 -1.7825  0.0704  3.0012
  122MOL0     H16406   5.308  10.611   1.611 -2.3043  0.4331 -2.6587
  122MOL0     H16407   5.114  10.476   1.719  0.2144  0.2571 -1.5500
  122MOL0     H16408   5.059  10.628   1.778  1.1344 -1.8710  2.1512
  122MOL0     H16409   5.050  10.705   1.515 -0.4058  0.9393  1.2670
  122MOL0     H16410   5.123  10.534   1.501 -1.8128 -1.8728  0.0045
  122MOL0     H16411   4.922  10.440   1.599  0.7710  0.2886  0.3932
  122MOL0     H16412   4.850  10.604   1.616  2.1602  3.4208 -1.7848
  122MOL0     H16413   4.906  10.628   1.349 -1.3685  1.5414 -0.0437
  122MOL0     H16414   4.919  10.461   1.345  0.4174  2.6458 -3.4135
  122MOL0     H16415   4.664  10.626   1.417  0.5505  2.5932 -1.6787
  122MOL0     H16416   4.699  10.543   1.263 -3.3768  1.1186 -0.5778
  122MOL0     H16417   4.739  10.336   1.368 -0.2214 -0.0482 -0.1969
  122MOL0     H16418   4.696  10.396   1.527 -0.4366  2.8341  0.5801
  122MOL0     H16419   4.521  10.252   1.444 -0.7773  0.0165 -0.8077
  122MOL0     H16420   4.531  10.333   1.290 -1.4654 -0.3629  0.1459
  122MOL0     H16421   4.321  10.472   1.238 -2.8239  2.1800 -0.1594
  122MOL0     H16422   4.045  10.653   1.449  1.7827 -0.3433  0.3815
  122MOL0     H16423   4.106  10.654   1.294 -4.0396  1.7565 -0.0971
  122MOL0     H16424   4.001  10.387   1.387  2.8417 -1.3536 -1.9893
  122MOL0     H16425   4.002  10.464   1.225  0.0737  0.3299  0.0305
  122MOL0     H16426   3.779  10.430   1.311  0.1779 -0.8617  1.2495
  122MOL0     H16427   3.816  10.605   1.311  0.0096 -1.8774 -2.8139
  122MOL0     H16428   3.698  10.545   1.504  2.1979  2.3042  1.3558
  122MOL0     H16429   3.863  10.565   1.562 -1.2435 -0.0163  1.5541
  122MOL0     H16430   3.603  10.192   1.591 -3.2219 -0.2198  1.0783
  122MOL0     H16431   3.497  10.047   1.883  0.7484 -5.0402 -3.7837
  122MOL0     H16432   3.368  10.154   1.810  1.0334  0.5424 -1.4445
  122MOL0     H16433   3.469  10.063   1.706 -0.7162 -0.9035  0.5137
  122MOL0     H16434   3.348  10.372   2.253 -0.9675 -0.0347  1.0860
  122MOL0     H16435   3.314  10.364   2.484 -0.4422  0.6507  0.2953
  122MOL0     H16436   3.537  10.411   2.887  0.1144  2.0202  1.1236
  122MOL0     H16437   3.603  10.511   2.751  1.5713 -2.4026 -0.8000
  122MOL0     H16438   3.350  10.575   2.711 -0.8988  1.9232 -0.6838
  122MOL0     H16439   3.309  10.482   2.841  1.6361  0.5962 -0.2442
  122MOL0     H16440   3.321  10.726   2.886  0.8074 -0.1591 -1.8885
  122MOL0     H16441   3.488  10.711   2.917 -0.6736  0.5784 -0.7760
  122MOL0     H16442   3.442  10.509   3.050  1.2672  2.2562 -0.5534
  122MOL0     H16443   3.397  10.670   3.125 -0.6907  0.5687  0.2656
  122MOL0     H16444   3.194  10.462   3.006 -0.1133 -0.6223  0.5269
  122MOL0     H16445   3.162  10.612   3.083  0.9725 -0.1807  0.9943
  122MOL0     H16446   3.153  10.383   3.197 -4.1140  2.3154  2.0164
  122MOL0     H16447   3.324  10.399   3.219  0.5968  1.4812  0.1351
  122MOL0     H16448   3.264  10.467   3.424  0.0216  0.4263  1.0073
  122MOL0     H16449   3.103  10.459   3.365  0.7082 -2.2922 -0.2645
  122MOL0     H16450   3.127  10.677   3.458  1.6527 -1.9519  2.1512
  122MOL0     H16451   3.146  10.719   3.291 -0.8770  4.8024  4.0221
  122MOL0     H16452   3.732  10.386   2.573 -0.4633  0.0957  0.9888
  122MOL0     H16453   3.774  10.374   2.333 -0.7644  1.2145 -0.1782
  122MOL0     H16454   3.761  10.445   1.977  0.8846 -2.8964  1.6962
  122MOL0     H16455   3.866  10.481   1.775  0.4393  0.4990  2.5617
  122MOL0     H16456   5.488  10.733   1.640  0.2814 -0.2858  0.0179
  122MOL0     H16457   5.705  10.878   1.700  0.1744 -3.8965 -2.6751
  122MOL0     H16458   6.106  10.754   2.157 -2.1558  1.2935  1.1104
  122MOL0     H16459   6.314  10.887   2.184  0.3918  1.7346  0.3336
  122MOL0     H16460   6.423  11.153   1.878  2.8339 -0.9938 -0.0901
  122MOL0     H16461   6.370  11.296   1.982  0.0643 -0.6546  2.0058
  122MOL0     H16462   6.567  11.343   1.943 -0.0642  0.7116  1.4643
  122MOL0     H16463   6.640  11.180   1.968  0.8810 -0.0372  3.2999
  122MOL0     H16464   6.529  11.382   2.186  1.0076 -0.6699  3.1123
  122MOL0     H16465   6.692  11.341   2.150 -0.3169  0.3883 -0.0451
  122MOL0     H16466   6.465  11.188   2.276 -0.2342 -1.2166 -1.0402
  122MOL0     H16467   6.609  11.238   2.356 -0.0470  2.2943 -0.7821
  122MOL0     H16468   6.733  10.871   2.163 -0.9591 -0.6600  1.4550
  122MOL0     H16469   6.158  11.213   1.960 -0.8376 -0.4739 -1.0988
  122MOL0     H16470   5.957  11.105   1.923  2.5394  2.0090 -0.8879
  123MOL0     O16471   7.996   7.439   4.451  0.5608 -0.4472 -0.3215
  123MOL0     C16472   7.927   7.346   4.485  0.1983 -0.3873  0.6729
  123MOL0     O16473   7.804   7.314   4.437 -0.5589 -0.4122  0.1103
  123MOL0     C16474   7.754   7.403   4.340  0.9539  0.4889 -0.5876
  123MOL0     C16475   7.819   7.442   4.214  0.2388 -1.1258  0.1844
  123MOL0     C16476   7.746   7.512   4.116 -1.1468 -1.1214  0.0800
  123MOL0     C16477   7.616   7.558   4.137 -0.0303  0.1947 -0.0290
  123MOL0     O16478   7.551   7.627   4.036 -0.0769 -0.1541 -0.4438
  123MOL0     C16479   7.536   7.550   3.919 -0.8021 -0.0547  0.4816
  123MOL0     C16480   7.467   7.650   3.813  0.8213 -0.2930 -0.5095
  123MOL0     C16481   7.333   7.712   3.863 -0.2733  0.9310  0.4451
  123MOL0     C16482   7.288   7.839   3.779  0.1685  0.5617 -0.4869
  123MOL0     C16483   7.134   7.854   3.799 -0.2215  0.4858 -0.4806
  123MOL0     C16484   7.100   7.993   3.738  0.9053  0.6092  0.5475
  123MOL0     C16485   6.950   8.008   3.759  0.2196  0.3570 -0.5109
  123MOL0     C16486   6.918   8.052   3.905  0.0018  0.4827 -0.5587
  123MOL0     N16487   6.778   8.120   3.925 -0.3282 -0.3560 -0.1521
  123MOL0     C16488   6.724   8.216   3.849  1.0295 -0.9999 -0.3208
  123MOL0     C16489   6.600   8.222   3.906 -0.0086  0.1308  0.2506
  123MOL0     C16490   6.490   8.304   3.865  0.5178  0.0309 -0.9897
  123MOL0     C16491   6.401   8.243   3.764  0.2384  0.4832  0.8750
  123MOL0     C16492   6.313   8.129   3.815 -0.6559 -0.0846  0.3658
  123MOL0     C16493   6.197   8.102   3.721  0.2581 -0.5576 -0.1751
  123MOL0     O16494   6.110   8.224   3.725 -0.1333 -0.0210  0.0307
  123MOL0     C16495   6.014   8.251   3.827 -0.8976 -0.3019  1.1310
  123MOL0     C16496   5.966   8.161   3.927 -0.0990 -0.0838 -0.1211
  123MOL0     C16497   5.901   8.210   4.038 -0.7995 -0.0961  0.4283
  123MOL0     C16498   5.851   8.112   4.130  0.3912  0.3523 -0.4322
  123MOL0     C16499   5.870   8.346   4.041  0.2709 -0.6453 -0.6604
  123MOL0     C16500   5.811   8.403   4.168  0.1245 -0.2240 -0.9398
  123MOL0     O16501   5.696   8.477   4.147 -0.2681 -0.3389 -0.2420
  123MOL0     C16502   5.606   8.478   4.247 -0.6733  0.2070 -0.8635
  123MOL0     C16503   5.536   8.362   4.282 -0.2284 -0.1946  0.3006
  123MOL0     C16504   5.437   8.362   4.385 -0.5330 -0.2915  0.5917
  123MOL0     C16505   5.406   8.476   4.456 -0.3288 -0.0382 -0.9869
  123MOL0     O16506   5.308   8.471   4.550  0.0887 -0.0908 -0.5898
  123MOL0     C16507   5.316   8.564   4.664  0.1441 -0.2278 -0.7397
  123MOL0     C16508   5.320   8.487   4.790  0.6894 -0.3115 -0.0850
  123MOL0     C16509   5.449   8.400   4.815  0.4650 -0.0878  0.4162
  123MOL0     C16510   5.433   8.319   4.953 -0.4075 -1.2793 -1.3209
  123MOL0     C16511   5.474   8.399   5.082  0.7723 -0.7832 -0.2215
  123MOL0     C16512   5.458   8.316   5.205  1.0697 -0.1753 -0.5878
  123MOL0     C16513   5.486   8.408   5.338 -0.4613  0.2246  0.7362
  123MOL0     C16514   5.483   8.323   5.461  0.3142 -0.2204 -0.2196
  123MOL0    Cl16515   5.491   8.434   5.597  0.2405  0.8677  0.3040
  123MOL0     C16516   5.474   8.588   4.416 -0.0390 -0.5900  0.9814
  123MOL0     C16517   5.562   8.596   4.310 -0.0691  0.0128  0.7045
  123MOL0     O16518   5.859   8.376   4.279  0.4603 -0.1909 -0.4118
  123MOL0     C16519   5.887   8.431   3.935  0.1083 -0.7863  0.2397
  123MOL0     C16520   5.973   8.382   3.835  0.1381 -0.4513  0.3516
  123MOL0     N16521   6.605   8.150   4.018  0.6916  0.1824 -0.7533
  123MOL0     N16522   6.704   8.081   4.032 -0.5630 -0.8573 -0.1120
  123MOL0     C16523   7.550   7.528   4.257  0.7107  0.4655 -1.0601
  123MOL0     C16524   7.623   7.455   4.350  0.6429 -0.2661 -0.2894
  123MOL0     C16525   7.972   7.266   4.600  0.2478 -0.3121 -0.0398
  123MOL0     C16526   7.900   7.160   4.652  0.1446  0.7318  1.3255
  123MOL0     C16527   7.931   7.081   4.760 -1.0782 -0.9325 -1.4530
  123MOL0     C16528   8.044   7.122   4.840  0.0449  0.0413  0.5337
  123MOL0     O16529   8.067   7.064   4.960  0.0180 -0.0414 -0.5567
  123MOL0     C16530   8.115   6.924   4.962 -0.2410 -1.0176 -0.1608
  123MOL0     C16531   8.263   6.909   4.932  0.4073 -0.5779 -0.8239
  123MOL0     C16532   8.291   6.760   4.981 -0.6791  0.7943 -0.8145
  123MOL0     C16533   8.423   6.716   4.916 -1.0474  0.8329  0.2303
  123MOL0     C16534   8.532   6.776   4.983 -0.8299 -0.2602 -0.1237
  123MOL0     C16535   8.620   6.836   5.043  0.1094  0.1689  0.2852
  123MOL0     C16536   8.124   7.225   4.789  0.5567  0.2681 -0.2693
  123MOL0     C16537   8.096   7.297   4.667 -0.1485  1.0637  0.4764
  123MOL0     H16538   7.917   7.398   4.196 -0.1171 -2.1408  0.6273
  123MOL0     H16539   7.799   7.550   4.030 -0.9783  0.5731  0.8864
  123MOL0     H16540   7.634   7.517   3.885 -1.1906  0.8382 -1.6445
  123MOL0     H16541   7.473   7.463   3.936  2.0439 -2.0907  1.2933
  123MOL0     H16542   7.543   7.728   3.800  0.8061  0.1303  1.5113
  123MOL0     H16543   7.461   7.593   3.720  0.5699 -1.0304 -0.0507
  123MOL0     H16544   7.266   7.627   3.846 -0.1686  0.8905  0.2255
  123MOL0     H16545   7.332   7.741   3.968 -1.9616 -1.0827  1.0692
  123MOL0     H16546   7.338   7.927   3.821 -2.2614  0.4878  3.0090
  123MOL0     H16547   7.307   7.825   3.672 -1.4735 -1.1166 -0.6011
  123MOL0     H16548   7.079   7.783   3.737 -1.5157  1.1960 -0.1778
  123MOL0     H16549   7.096   7.842   3.901 -3.2107  0.7971 -1.4714
  123MOL0     H16550   7.159   8.076   3.778  1.2962  1.2647 -1.3223
  123MOL0     H16551   7.126   7.978   3.633  0.0783 -1.7825  0.6189
  123MOL0     H16552   6.904   8.088   3.700 -2.5086  1.5125  2.8321
  123MOL0     H16553   6.893   7.921   3.725  0.2926  0.6589 -1.4420
  123MOL0     H16554   6.993   8.129   3.925  1.0023 -0.6907  0.3289
  123MOL0     H16555   6.926   7.958   3.960 -1.6561  0.5726 -0.1021
  123MOL0     H16556   6.769   8.258   3.759 -0.3993  0.1969 -0.5048
  123MOL0     H16557   6.431   8.322   3.955  0.2206 -3.1948 -0.4005
  123MOL0     H16558   6.533   8.397   3.828 -0.6293  1.0874  0.2194
  123MOL0     H16559   6.452   8.192   3.681  0.3690 -1.6984  2.2128
  123MOL0     H16560   6.333   8.320   3.726 -1.3809 -0.0582  2.5580
  123MOL0     H16561   6.271   8.152   3.913  1.6590  0.7183  1.2278
  123MOL0     H16562   6.371   8.037   3.824  0.1333  0.3366 -0.3231
  123MOL0     H16563   6.144   8.010   3.749  0.5076 -0.0626  2.1302
  123MOL0     H16564   6.238   8.088   3.621 -0.1858  2.5496 -0.8967
  123MOL0     H16565   5.985   8.054   3.927 -1.4276 -0.4336  3.0551
  123MOL0     H16566   5.903   8.135   4.224  0.4755  2.1088 -0.8774
  123MOL0     H16567   5.746   8.128   4.159  0.1598 -2.3100  0.4975
  123MOL0     H16568   5.863   8.008   4.100  1.9305  0.7298 -1.2177
  123MOL0     H16569   5.561   8.262   4.248  2.6921  0.9802 -1.3565
  123MOL0     H16570   5.390   8.267   4.405  5.3993 -3.9865 -0.4810
  123MOL0     H16571   5.409   8.622   4.664 -0.0225  0.6610 -6.4439
  123MOL0     H16572   5.235   8.637   4.662 -0.0426 -0.4101  0.0113
  123MOL0     H16573   5.303   8.554   4.875 -0.1182 -2.1863  1.2854
  123MOL0     H16574   5.231   8.423   4.788  0.6094 -0.2025 -2.4615
  123MOL0     H16575   5.537   8.465   4.812 -0.4421  1.1872  0.6113
  123MOL0     H16576   5.460   8.328   4.733  1.0883  1.4389 -0.8657
  123MOL0     H16577   5.331   8.282   4.971 -0.3725  0.4062  4.5940
  123MOL0     H16578   5.487   8.224   4.947  1.7556 -0.3353  1.3276
  123MOL0     H16579   5.419   8.493   5.090  2.1867 -0.0106  0.9241
  123MOL0     H16580   5.575   8.441   5.088  0.4270 -0.2057  2.4432
  123MOL0     H16581   5.352   8.290   5.210  0.2194  3.0450  2.3467
  123MOL0     H16582   5.518   8.225   5.209  1.2606 -0.0322 -0.0197
  123MOL0     H16583   5.406   8.482   5.331  1.9329  2.9188 -0.5052
  123MOL0     H16584   5.575   8.471   5.337 -2.7380  3.7118 -0.3935
  123MOL0     H16585   5.566   8.251   5.462 -0.2445 -1.0747 -3.4320
  123MOL0     H16586   5.393   8.261   5.467  0.0131  0.2738  0.4672
  123MOL0     H16587   5.468   8.675   4.481 -1.6360 -1.5572  2.2041
  123MOL0     H16588   5.608   8.691   4.284  1.5611 -1.2468 -1.4301
  123MOL0     H16589   5.859   8.534   3.954  1.0263 -0.7436  1.4755
  123MOL0     H16590   6.008   8.449   3.758 -3.8650  0.9390 -0.4627
  123MOL0     H16591   7.441   7.530   4.267  0.7866  0.8786 -0.2181
  123MOL0     H16592   7.566   7.431   4.439  2.3546  1.1842  1.2985
  123MOL0     H16593   7.816   7.116   4.599  0.2172 -0.6541  2.3160
  123MOL0     H16594   7.872   7.003   4.807  2.0585 -1.0909  2.8074
  123MOL0     H16595   8.088   6.881   5.059 -0.2059  0.2358  0.4210
  123MOL0     H16596   8.058   6.861   4.893 -1.9057 -0.7213  0.8794
  123MOL0     H16597   8.315   6.987   4.988  0.0909 -2.4799  2.3967
  123MOL0     H16598   8.281   6.912   4.824  0.5972 -0.2803 -0.7840
  123MOL0     H16599   8.214   6.688   4.952 -0.3992  0.2792 -0.2960
  123MOL0     H16600   8.297   6.746   5.090 -0.9649 -2.0361 -1.0904
  123MOL0     H16601   8.424   6.737   4.809  1.8482 -2.2251 -0.5071
  123MOL0     H16602   8.419   6.607   4.915 -3.6625  0.8893 -0.1559
  123MOL0     H16603   8.701   6.867   5.107  0.6863  0.2650 -0.4745
  123MOL0     H16604   8.210   7.255   4.849  0.0286  0.9402  0.1655
  123MOL0     H16605   8.165   7.377   4.641  0.7693  0.1738  0.0592
  124MOL0     O16606   4.169   9.363  11.029 -0.1050 -0.0740 -0.9757
  124MOL0     C16607   4.261   9.300  10.978 -0.9084 -0.4816 -0.3361
  124MOL0     O16608   4.283   9.296  10.849 -0.9015  0.3108  1.1110
  124MOL0     C16609   4.197   9.323  10.746 -0.8386 -1.0165 -0.2110
  124MOL0     C16610   4.060   9.351  10.753  0.1567 -0.0947  0.4599
  124MOL0     C16611   3.990   9.355  10.634  0.0780  0.0969 -0.2915
  124MOL0     C16612   4.050   9.326  10.509  0.2842 -0.2097  0.4064
  124MOL0     O16613   3.989   9.324  10.388  0.7617  0.2358 -0.6966
  124MOL0     C16614   3.858   9.380  10.383 -0.1574 -0.2130 -0.7556
  124MOL0     C16615   3.814   9.408  10.241 -0.1539 -0.1494 -0.0435
  124MOL0     C16616   3.868   9.538  10.180 -0.2896 -0.0781 -0.5694
  124MOL0     C16617   4.021   9.542  10.172 -0.1961  0.5054  0.0117
  124MOL0     C16618   4.077   9.646  10.070 -0.0602 -0.2333 -0.5302
  124MOL0     C16619   4.222   9.615  10.051 -0.0586  0.5970 -0.0867
  124MOL0     C16620   4.291   9.703   9.943  0.3449  0.6775  0.8593
  124MOL0     C16621   4.436   9.685   9.952 -0.9537  0.5128  0.0998
  124MOL0     N16622   4.512   9.795   9.877  0.0810  0.2784 -0.6179
  124MOL0     C16623   4.480   9.833   9.756  1.0462  0.0423  0.6803
  124MOL0     C16624   4.574   9.917   9.716 -0.4556 -1.3585 -0.3636
  124MOL0     C16625   4.579   9.999   9.585 -0.8816 -0.3868 -0.1906
  124MOL0     C16626   4.462   9.988   9.488 -0.1300 -0.5487 -0.7423
  124MOL0     C16627   4.363  10.105   9.526 -0.1272  0.1482 -1.0836
  124MOL0     C16628   4.320  10.106   9.678  0.7704 -0.2687  0.7602
  124MOL0     O16629   4.241   9.992   9.714 -0.5565 -0.2860  0.3353
  124MOL0     C16630   4.108   9.983   9.679 -0.6135 -1.2455 -1.1416
  124MOL0     C16631   4.033   9.871   9.710  0.2553 -0.4415 -0.7098
  124MOL0     C16632   3.897   9.864   9.706  0.0097 -0.0453  0.2794
  124MOL0     C16633   3.826   9.739   9.783  0.5401 -1.2338  0.2700
  124MOL0     C16634   3.822   9.970   9.646 -0.5461 -0.4403  0.9232
  124MOL0     C16635   3.681   9.970   9.614 -0.4351 -0.2527  0.0043
  124MOL0     O16636   3.601   9.921   9.708 -0.4973 -0.1232  0.7581
  124MOL0     C16637   3.475   9.899   9.682 -0.0562  0.8106  0.2416
  124MOL0     C16638   3.426   9.790   9.607  0.8633  0.2454 -0.5799
  124MOL0     C16639   3.292   9.758   9.589 -1.1548 -0.3322  0.2874
  124MOL0     C16640   3.200   9.842   9.644  1.1226  1.1757 -1.0495
  124MOL0     O16641   3.070   9.810   9.615 -0.4907 -0.1106 -0.3071
  124MOL0     C16642   2.973   9.883   9.697 -0.9462 -0.0510  0.5157
  124MOL0     C16643   2.834   9.838   9.675 -0.1425  0.1813  0.1954
  124MOL0     C16644   2.807   9.824   9.527 -0.3369 -0.1486 -0.6047
  124MOL0     C16645   2.656   9.811   9.494  1.3479  0.3027 -0.3685
  124MOL0     C16646   2.632   9.796   9.344  0.4816  0.2033  0.8176
  124MOL0     C16647   2.489   9.777   9.307 -0.9917 -0.3815 -0.5553
  124MOL0     C16648   2.492   9.758   9.150  0.2289  0.4286  0.7170
  124MOL0     C16649   2.354   9.709   9.111  0.3247 -0.8580 -0.6519
  124MOL0    Cl16650   2.325   9.735   8.932 -0.1939  0.1904  0.2535
  124MOL0     C16651   3.243   9.962   9.708  0.5516 -0.6532  1.1860
  124MOL0     C16652   3.382   9.983   9.732  0.7151 -0.4453  0.2288
  124MOL0     O16653   3.638  10.019   9.510 -0.1096 -0.5651  0.4208
  124MOL0     C16654   3.893  10.080   9.598 -1.0905  0.1993  0.1469
  124MOL0     C16655   4.031  10.087   9.618 -0.3462 -0.6990 -0.1870
  124MOL0     N16656   4.679   9.905   9.809  0.1842 -0.2988 -1.0152
  124MOL0     N16657   4.638   9.831   9.902 -0.4689  0.2291  0.4311
  124MOL0     C16658   4.179   9.289  10.501  0.3992 -0.3498 -0.3736
  124MOL0     C16659   4.255   9.295  10.621  0.0227 -0.5011 -0.6303
  124MOL0     C16660   4.365   9.237  11.063 -0.2803  1.0712 -0.3879
  124MOL0     C16661   4.484   9.180  11.010  0.7770  0.4740 -0.3927
  124MOL0     C16662   4.589   9.140  11.096  0.6330  0.8107  0.0231
  124MOL0     C16663   4.574   9.147  11.237 -0.1610 -1.0283 -0.2770
  124MOL0     O16664   4.691   9.110  11.309  0.1954  0.3001 -0.4224
  124MOL0     C16665   4.682   9.098  11.452  0.8579  0.5964  0.0914
  124MOL0     C16666   4.709   9.230  11.525  0.1844 -0.6247 -0.3327
  124MOL0     C16667   4.739   9.219  11.675 -0.1259 -0.8741 -0.1312
  124MOL0     C16668   4.884   9.199  11.701 -1.2533  0.1958  0.7965
  124MOL0     C16669   4.915   9.135  11.831  0.1544  0.2286 -0.3562
  124MOL0     C16670   4.944   9.076  11.931 -0.1877 -0.0154  0.1428
  124MOL0     C16671   4.449   9.175  11.293  0.0449  0.1386 -0.4831
  124MOL0     C16672   4.345   9.230  11.207 -0.5698 -0.1298 -0.0411
  124MOL0     H16673   3.993   9.373  10.836 -1.5023 -0.4002 -0.7438
  124MOL0     H16674   3.886   9.386  10.641  0.0664 -0.1065  0.4377
  124MOL0     H16675   3.792   9.306  10.429 -1.2651  0.5580 -1.0559
  124MOL0     H16676   3.856   9.473  10.440 -1.0759 -1.7867  1.9343
  124MOL0     H16677   3.830   9.320  10.178 -0.9543 -0.7364  0.5424
  124MOL0     H16678   3.705   9.415  10.234 -0.3463 -3.1857 -1.8788
  124MOL0     H16679   3.829   9.534  10.078 -2.3830 -0.9857  0.1953
  124MOL0     H16680   3.837   9.629  10.233  0.5759  0.1880 -0.5100
  124MOL0     H16681   4.066   9.560  10.271  0.0858 -2.7419  0.5954
  124MOL0     H16682   4.066   9.445  10.148 -0.6668 -0.5655  2.9402
  124MOL0     H16683   4.020   9.614   9.983 -1.2455 -2.3917  0.9475
  124MOL0     H16684   4.054   9.747  10.107 -0.7834 -1.7296  3.6110
  124MOL0     H16685   4.270   9.626  10.148  0.1020  2.5097 -0.3336
  124MOL0     H16686   4.243   9.511  10.024 -3.9877 -0.6348  0.8865
  124MOL0     H16687   4.250   9.667   9.848  1.2947 -0.1777  0.7574
  124MOL0     H16688   4.265   9.809   9.959  0.8187  1.3324 -2.1330
  124MOL0     H16689   4.464   9.585   9.919  0.5788  1.3690 -1.3639
  124MOL0     H16690   4.460   9.684  10.059  0.2624  1.1778 -0.1501
  124MOL0     H16691   4.385   9.807   9.711  2.0514  2.0366 -3.0188
  124MOL0     H16692   4.597  10.104   9.608  1.5199 -0.4043 -1.6473
  124MOL0     H16693   4.669   9.963   9.534 -0.8794  0.4836 -0.8253
  124MOL0     H16694   4.410   9.893   9.496  0.6394 -0.9816 -0.8199
  124MOL0     H16695   4.494  10.003   9.384  3.6153 -4.2642 -0.3639
  124MOL0     H16696   4.271  10.091   9.468  0.0985  0.0400 -1.4169
  124MOL0     H16697   4.411  10.197   9.493 -1.4140  2.5980  3.1510
  124MOL0     H16698   4.256  10.194   9.690 -0.8260 -1.5695  2.2906
  124MOL0     H16699   4.401  10.126   9.749 -0.2953  1.3677  1.5866
  124MOL0     H16700   4.083   9.783   9.749  1.5897  0.5041 -0.1935
  124MOL0     H16701   3.904   9.667   9.812  1.9740  0.0687 -0.2085
  124MOL0     H16702   3.761   9.779   9.862  0.3361  0.1830 -0.5901
  124MOL0     H16703   3.759   9.686   9.715 -1.1286  1.9571 -0.7909
  124MOL0     H16704   3.497   9.722   9.563  0.7268  0.7627 -1.6260
  124MOL0     H16705   3.265   9.669   9.533  0.9100  0.8038 -2.7972
  124MOL0     H16706   2.987   9.869   9.804  2.5671 -1.1025  0.0385
  124MOL0     H16707   2.971   9.993   9.690 -2.7750  0.0669  2.1505
  124MOL0     H16708   2.835   9.739   9.720  1.0924  0.5298  1.0008
  124MOL0     H16709   2.755   9.894   9.725 -2.2643 -0.3663 -2.3304
  124MOL0     H16710   2.868   9.749   9.477 -2.6872 -2.0386 -0.8590
  124MOL0     H16711   2.836   9.925   9.497  1.5904 -0.5867 -0.3366
  124MOL0     H16712   2.620   9.716   9.536  0.8614  0.5059 -0.3223
  124MOL0     H16713   2.589   9.878   9.547  3.0756  0.0738  2.2986
  124MOL0     H16714   2.688   9.705   9.318  1.0272  0.3663  1.3794
  124MOL0     H16715   2.670   9.881   9.288 -0.7123 -1.0820 -2.1397
  124MOL0     H16716   2.445   9.689   9.355 -0.4865 -1.8598 -2.6457
  124MOL0     H16717   2.432   9.864   9.341  0.2748  0.1105  0.3854
  124MOL0     H16718   2.565   9.689   9.108  1.6275 -0.4603  4.2754
  124MOL0     H16719   2.503   9.858   9.106  0.6176  0.8194  1.6828
  124MOL0     H16720   2.278   9.769   9.162  0.3471 -0.8751 -0.5980
  124MOL0     H16721   2.344   9.602   9.133  0.0103 -0.9449 -1.2228
  124MOL0     H16722   3.174  10.033   9.752 -0.0502 -0.7285  0.3898
  124MOL0     H16723   3.408  10.065   9.797  1.7990 -1.1718  0.7469
  124MOL0     H16724   3.843  10.167   9.555 -0.5000 -0.3724 -1.8042
  124MOL0     H16725   4.073  10.182   9.586  2.6879 -1.2543  1.7908
  124MOL0     H16726   4.231   9.266  10.408  0.3752 -2.0854  0.0183
  124MOL0     H16727   4.362   9.281  10.610  0.3832  0.1285  1.5307
  124MOL0     H16728   4.498   9.173  10.902 -1.1664 -0.8544 -0.6221
  124MOL0     H16729   4.675   9.096  11.046 -0.8000 -2.2830  0.0419
  124MOL0     H16730   4.587   9.056  11.488  1.9457 -0.6851  1.6270
  124MOL0     H16731   4.748   9.016  11.482 -2.5503 -2.1918  0.6316
  124MOL0     H16732   4.617   9.289  11.528 -1.4173 -2.9863 -0.1601
  124MOL0     H16733   4.787   9.285  11.472 -1.3907 -1.2883 -3.5905
  124MOL0     H16734   4.687   9.137  11.726  0.2043 -0.4551  0.9150
  124MOL0     H16735   4.710   9.314  11.719  1.9345  1.3652 -3.2340
  124MOL0     H16736   4.937   9.294  11.714 -1.8679  0.7479 -0.5363
  124MOL0     H16737   4.931   9.144  11.619  0.1552  1.7265  0.5221
  124MOL0     H16738   4.967   9.044  12.031 -0.2624 -1.8646 -0.4105
  124MOL0     H16739   4.431   9.178  11.400  2.9504  3.2234  0.1097
  124MOL0     H16740   4.255   9.268  11.254  0.1658 -1.1976  2.3763
  125MOL0     O16741   7.987   3.989   0.009 -0.0644 -0.9014 -0.5373
  125MOL0     C16742   7.972   4.102  -0.045  0.2817 -0.0405  0.2434
  125MOL0     O16743   8.035   4.211  -0.006 -0.3590 -0.6936  0.7281
  125MOL0     C16744   8.108   4.214   0.108 -0.9025 -1.0280  0.2659
  125MOL0     C16745   8.057   4.242   0.234  0.1986  0.5909  0.2820
  125MOL0     C16746   8.143   4.228   0.345 -0.0083  0.1806 -0.1393
  125MOL0     C16747   8.268   4.179   0.341  0.3297 -0.5447  0.8017
  125MOL0     O16748   8.336   4.183   0.461  0.2462 -0.3107  0.1933
  125MOL0     C16749   8.471   4.228   0.453 -1.7063 -0.5662 -0.7630
  125MOL0     C16750   8.499   4.350   0.539  0.2518 -0.5652 -0.8267
  125MOL0     C16751   8.453   4.325   0.689  0.8595 -0.0283  0.6013
  125MOL0     C16752   8.483   4.447   0.782 -0.7413 -0.7794  0.0180
  125MOL0     C16753   8.462   4.402   0.925  0.3515 -0.2989  0.0365
  125MOL0     C16754   8.587   4.341   1.003  0.9849  0.0784  0.1724
  125MOL0     C16755   8.560   4.279   1.140 -0.2272 -0.5431  0.1428
  125MOL0     C16756   8.518   4.402   1.232 -0.6955  0.1842 -0.8105
  125MOL0     N16757   8.625   4.510   1.235  0.7057  0.5342  0.0238
  125MOL0     C16758   8.744   4.495   1.300 -0.0590 -0.7890 -0.3927
  125MOL0     C16759   8.803   4.617   1.295 -0.4940 -0.2291 -0.1911
  125MOL0     C16760   8.929   4.666   1.366 -0.6763 -0.1694  0.1801
  125MOL0     C16761   8.894   4.724   1.499 -0.0463 -0.7202 -0.6221
  125MOL0     C16762   9.013   4.779   1.573  0.2345 -0.4123 -0.6521
  125MOL0     C16763   8.962   4.856   1.699 -1.1089 -0.3115  0.5404
  125MOL0     O16764   8.919   4.989   1.653  0.1906 -0.1850  0.1516
  125MOL0     C16765   8.947   5.096   1.735  0.1832  0.2570  0.4957
  125MOL0     C16766   8.918   5.216   1.687 -0.0669 -0.4451 -0.1989
  125MOL0     C16767   8.931   5.340   1.755 -0.4012  0.0072 -0.6178
  125MOL0     C16768   8.887   5.467   1.689  0.3383  0.8081  1.1813
  125MOL0     C16769   8.986   5.334   1.887  0.6884  1.0629  0.3317
  125MOL0     C16770   8.988   5.458   1.976  0.2833 -0.7656  0.3690
  125MOL0     O16771   8.908   5.571   1.959 -0.7015  0.2748 -0.2316
  125MOL0     C16772   8.862   5.646   2.067 -0.8764 -0.3371 -0.0045
  125MOL0     C16773   8.857   5.610   2.205 -0.7416  0.5747  0.5074
  125MOL0     C16774   8.807   5.686   2.305  0.7169  0.3197  0.2921
  125MOL0     C16775   8.751   5.811   2.265 -0.3365 -0.1950 -0.6827
  125MOL0     O16776   8.687   5.888   2.359 -0.1004 -0.6573  0.1239
  125MOL0     C16777   8.753   5.893   2.486  0.1498 -0.0878  0.2565
  125MOL0     C16778   8.673   5.996   2.569  0.5313  0.9354  0.1852
  125MOL0     C16779   8.703   5.984   2.722  1.0901  0.7131  1.1676
  125MOL0     C16780   8.748   6.112   2.793  0.3685  0.2351 -0.2072
  125MOL0     C16781   8.785   6.108   2.940 -0.1853  0.7613 -0.4497
  125MOL0     C16782   8.893   5.998   2.979 -0.1736  0.0824 -0.3380
  125MOL0     C16783   8.837   5.862   3.016  0.3242 -0.6954 -0.3179
  125MOL0     C16784   8.807   5.852   3.173  0.7190 -0.3111 -0.7204
  125MOL0    Cl16785   8.962   5.791   3.253  0.1444 -0.2086  0.2294
  125MOL0     C16786   8.777   5.865   2.137  0.3239 -0.1761 -0.2952
  125MOL0     C16787   8.830   5.780   2.043  0.0698  0.2783  0.2774
  125MOL0     O16788   9.071   5.445   2.067 -0.1105  0.2940 -0.6630
  125MOL0     C16789   9.017   5.205   1.943 -1.0955 -0.1032 -0.1848
  125MOL0     C16790   9.002   5.090   1.867  0.6241 -0.9781 -0.4808
  125MOL0     N16791   8.708   4.702   1.234 -0.5858 -0.9271  0.4901
  125MOL0     N16792   8.602   4.638   1.194 -0.6540  0.0060  0.3762
  125MOL0     C16793   8.319   4.141   0.215 -0.5011  0.4184 -0.2595
  125MOL0     C16794   8.236   4.149   0.108  0.3019  0.7425  0.3945
  125MOL0     C16795   7.885   4.103  -0.163  0.1336  0.4559  0.1069
  125MOL0     C16796   7.868   4.213  -0.239  0.3957 -0.7160 -0.5335
  125MOL0     C16797   7.786   4.223  -0.354  0.6604 -0.5250  0.0375
  125MOL0     C16798   7.728   4.104  -0.401  0.2686 -0.9290 -0.3763
  125MOL0     O16799   7.633   4.109  -0.504 -1.1052 -0.3060 -0.4848
  125MOL0     C16800   7.695   4.110  -0.631  0.2630 -0.3478  1.0209
  125MOL0     C16801   7.612   4.023  -0.740 -1.0444  0.3563  0.0360
  125MOL0     C16802   7.615   3.861  -0.724  0.3955  0.2344 -0.6462
  125MOL0     C16803   7.484   3.818  -0.642 -0.2453  0.0007  0.4436
  125MOL0     C16804   7.370   3.831  -0.728 -0.3268  0.3735 -0.5084
  125MOL0     C16805   7.274   3.832  -0.805  0.2520 -0.5020 -0.1906
  125MOL0     C16806   7.732   3.997  -0.322 -0.6632  0.8505 -0.7911
  125MOL0     C16807   7.803   3.998  -0.205  0.6416 -0.7050 -0.1758
  125MOL0     H16808   7.964   4.295   0.250  0.8577  1.2152  2.4094
  125MOL0     H16809   8.101   4.254   0.441 -1.3265 -2.1162 -0.0307
  125MOL0     H16810   8.535   4.144   0.484  1.3771  2.3038  1.3450
  125MOL0     H16811   8.500   4.248   0.350 -3.2012  0.1979 -1.0543
  125MOL0     H16812   8.608   4.357   0.535  0.2192 -0.5033 -3.3204
  125MOL0     H16813   8.449   4.438   0.497 -2.5220 -0.7300  1.8223
  125MOL0     H16814   8.349   4.295   0.671  1.0084  0.1463 -0.6219
  125MOL0     H16815   8.510   4.244   0.735 -1.7651 -1.6968  1.1691
  125MOL0     H16816   8.590   4.468   0.776 -0.9152  0.8018  1.5202
  125MOL0     H16817   8.426   4.536   0.753  0.3123 -0.5504 -1.4809
  125MOL0     H16818   8.426   4.491   0.977 -2.0012 -1.1328 -0.0377
  125MOL0     H16819   8.378   4.336   0.946  0.3608  0.1326  1.4921
  125MOL0     H16820   8.634   4.265   0.940  0.8797 -0.8945  1.2364
  125MOL0     H16821   8.667   4.414   1.016  0.7801  0.3937 -0.2965
  125MOL0     H16822   8.471   4.215   1.132  1.2452 -2.6484 -0.1831
  125MOL0     H16823   8.651   4.232   1.177  0.3379  0.6002  0.2408
  125MOL0     H16824   8.505   4.357   1.332  0.5899  0.5526 -0.4579
  125MOL0     H16825   8.424   4.436   1.188 -1.0296 -2.0375 -1.9583
  125MOL0     H16826   8.794   4.407   1.340  0.6744 -0.7523 -1.1957
  125MOL0     H16827   8.996   4.582   1.388  0.2274  0.9386  1.8785
  125MOL0     H16828   8.987   4.731   1.300 -0.0686 -0.7499  0.1272
  125MOL0     H16829   8.840   4.652   1.561 -3.9833  2.8102  0.5373
  125MOL0     H16830   8.823   4.807   1.490  0.3252  0.4127  4.2254
  125MOL0     H16831   9.068   4.855   1.517 -0.4138  0.2923 -0.3424
  125MOL0     H16832   9.073   4.688   1.587 -0.6369 -1.1289 -1.4682
  125MOL0     H16833   9.042   4.858   1.774  1.4611 -2.2686 -1.9657
  125MOL0     H16834   8.869   4.808   1.733 -1.3349 -2.2427 -2.4181
  125MOL0     H16835   8.863   5.211   1.594  2.5831  2.7506 -2.1547
  125MOL0     H16836   8.872   5.441   1.584 -0.3479 -0.8339  1.6459
  125MOL0     H16837   8.795   5.507   1.733 -1.2652 -0.1136 -1.1151
  125MOL0     H16838   8.972   5.534   1.697 -0.2996  1.9070 -0.6934
  125MOL0     H16839   8.873   5.508   2.239  1.0660  0.8329  0.5020
  125MOL0     H16840   8.804   5.643   2.405 -2.0470  1.0356  0.5779
  125MOL0     H16841   8.744   5.792   2.526 -4.0575 -0.0627 -0.2200
  125MOL0     H16842   8.858   5.923   2.476  1.1216 -2.3706  2.4478
  125MOL0     H16843   8.686   6.097   2.528 -1.8254  1.2294  0.0411
  125MOL0     H16844   8.564   5.994   2.558  0.4386 -0.7474  1.1806
  125MOL0     H16845   8.782   5.908   2.717 -1.6780 -2.5255  2.5829
  125MOL0     H16846   8.624   5.931   2.776  1.6752 -1.2074  0.2606
  125MOL0     H16847   8.830   6.158   2.737 -1.2672  2.4222 -0.9181
  125MOL0     H16848   8.667   6.185   2.789  2.9858  3.5040  1.3893
  125MOL0     H16849   8.693   6.092   2.996  0.2485  0.6724  0.2554
  125MOL0     H16850   8.821   6.205   2.977  4.4469 -0.5770 -0.7886
  125MOL0     H16851   8.961   5.984   2.894 -0.1911  0.3047 -0.3911
  125MOL0     H16852   8.957   6.024   3.064 -0.4177 -0.1519 -0.0810
  125MOL0     H16853   8.915   5.793   2.982  1.3500  1.1431 -1.9211
  125MOL0     H16854   8.745   5.851   2.958  0.8172  2.5747 -1.9514
  125MOL0     H16855   8.717   5.791   3.183 -1.3334  2.7534  1.5909
  125MOL0     H16856   8.778   5.949   3.215  1.5124 -0.6640  0.7126
  125MOL0     H16857   8.759   5.970   2.116  0.5542 -0.0109  0.3188
  125MOL0     H16858   8.845   5.820   1.943  3.1493  1.0843  0.9674
  125MOL0     H16859   9.042   5.187   2.047 -2.6415  0.6413  0.3473
  125MOL0     H16860   9.011   5.006   1.934 -3.0760  0.3681  2.0277
  125MOL0     H16861   8.418   4.097   0.219  0.5958  2.7605  2.1742
  125MOL0     H16862   8.265   4.117   0.009 -1.7123  3.4690 -1.2385
  125MOL0     H16863   7.904   4.309  -0.202 -0.8780  0.1557 -1.4779
  125MOL0     H16864   7.768   4.318  -0.404 -1.2256  0.4766  2.3812
  125MOL0     H16865   7.692   4.214  -0.665  0.6995 -0.9398 -0.9538
  125MOL0     H16866   7.798   4.075  -0.636 -0.1497 -1.4746 -2.6985
  125MOL0     H16867   7.669   4.044  -0.831  0.3342 -3.1782 -0.0699
  125MOL0     H16868   7.509   4.061  -0.745 -0.8972  0.6046 -1.7295
  125MOL0     H16869   7.699   3.830  -0.661 -1.4884  2.2704  3.2388
  125MOL0     H16870   7.609   3.800  -0.815 -1.7048  0.5559 -0.7738
  125MOL0     H16871   7.472   3.881  -0.553  0.4946  2.3691 -1.0356
  125MOL0     H16872   7.490   3.715  -0.604 -2.7015 -0.0354  0.8986
  125MOL0     H16873   7.180   3.822  -0.854  0.9613 -0.3700 -1.6488
  125MOL0     H16874   7.669   3.911  -0.343 -1.7471  0.6966  2.4551
  125MOL0     H16875   7.813   3.900  -0.158 -2.5866  0.2444  2.8928
  126MOL0     O16876   4.211   1.085   9.872 -0.0233  0.2553  0.3019
  126MOL0     C16877   4.271   1.131   9.778  0.0463 -0.3947  0.0207
  126MOL0     O16878   4.339   1.054   9.686 -0.3508 -0.2230 -0.3597
  126MOL0     C16879   4.340   0.918   9.688  0.6969 -0.6543  0.7814
  126MOL0     C16880   4.449   0.843   9.695 -0.7004  0.2031  1.0268
  126MOL0     C16881   4.449   0.700   9.680  0.4079  0.7833  0.9249
  126MOL0     C16882   4.334   0.640   9.646 -0.4187 -0.1170  0.8219
  126MOL0     O16883   4.322   0.505   9.627 -0.1604 -0.3280 -0.2386
  126MOL0     C16884   4.379   0.431   9.745 -0.1061  0.7827  0.0909
  126MOL0     C16885   4.308   0.298   9.771 -1.2912  0.1155  0.1635
  126MOL0     C16886   4.265   0.280   9.923 -0.4724 -0.0860 -0.3913
  126MOL0     C16887   4.237   0.134   9.945  0.2372 -0.9684  0.3020
  126MOL0     C16888   4.173   0.115  10.075  0.3350  0.6191  0.2170
  126MOL0     C16889   4.034   0.166  10.083  0.4291 -1.2272  0.0762
  126MOL0     C16890   3.939   0.056  10.038  0.3364 -0.3041  0.4356
  126MOL0     C16891   3.791   0.102  10.055 -1.2455 -0.7487  0.2507
  126MOL0     N16892   3.700  -0.004  10.084  0.6180  0.1848  0.5897
  126MOL0     C16893   3.703  -0.095  10.191 -0.4517 -0.9134  0.2340
  126MOL0     C16894   3.580  -0.152  10.197 -1.8574  0.5647  0.5723
  126MOL0     C16895   3.553  -0.269  10.290 -0.1949  0.0191  0.3596
  126MOL0     C16896   3.441  -0.361  10.256  0.3379  0.2388  0.0052
  126MOL0     C16897   3.494  -0.490  10.182 -0.7280 -0.1318 -0.1120
  126MOL0     C16898   3.580  -0.459  10.056 -0.0271 -0.5029  0.3137
  126MOL0     O16899   3.722  -0.419  10.091  0.5994  0.5392  0.7042
  126MOL0     C16900   3.808  -0.381   9.990  0.8816  0.5559  0.5638
  126MOL0     C16901   3.772  -0.385   9.854 -0.4253 -0.0294  0.6347
  126MOL0     C16902   3.861  -0.343   9.745  0.1843  0.2274  1.0866
  126MOL0     C16903   3.815  -0.358   9.598  0.0159 -0.4326 -0.6599
  126MOL0     C16904   3.978  -0.278   9.780 -0.6662  0.0061  0.0452
  126MOL0     C16905   4.080  -0.216   9.676 -0.4878  0.1043  0.3578
  126MOL0     O16906   4.198  -0.163   9.729  0.0592 -0.2153 -0.1510
  126MOL0     C16907   4.291  -0.121   9.641 -0.4928 -0.3814  0.4530
  126MOL0     C16908   4.404  -0.193   9.651 -0.5469 -0.5906 -0.1703
  126MOL0     C16909   4.514  -0.155   9.582 -0.4319 -0.2654 -0.2313
  126MOL0     C16910   4.515  -0.033   9.507 -0.2648  0.3443  0.4926
  126MOL0     O16911   4.624   0.008   9.425 -0.1634  0.3671  0.1357
  126MOL0     C16912   4.752  -0.045   9.440  0.2015  0.2239 -0.2213
  126MOL0     C16913   4.767  -0.174   9.360 -0.2242 -1.0504 -0.1554
  126MOL0     C16914   4.884  -0.252   9.401  0.0495  0.2575  0.7383
  126MOL0     C16915   5.018  -0.201   9.341 -0.0809 -0.4033  0.7184
  126MOL0     C16916   5.147  -0.256   9.406  1.5263 -0.0655 -0.1344
  126MOL0     C16917   5.161  -0.414   9.390  0.2690 -0.1613 -0.2957
  126MOL0     C16918   5.293  -0.457   9.439 -0.7467  0.0077 -0.0004
  126MOL0     C16919   5.333  -0.596   9.391  0.0466 -1.2755 -0.8606
  126MOL0    Cl16920   5.405  -0.684   9.536  0.0143 -0.2584 -0.5370
  126MOL0     C16921   4.400   0.044   9.517 -0.3291  0.0262  0.3918
  126MOL0     C16922   4.290   0.010   9.589  0.4452 -0.2243  0.7168
  126MOL0     O16923   4.042  -0.199   9.563  0.1637  0.2937 -0.6128
  126MOL0     C16924   4.018  -0.276   9.915 -0.0260 -1.0819  1.0484
  126MOL0     C16925   3.937  -0.339  10.012  1.3587  0.2118 -0.1167
  126MOL0     N16926   3.500  -0.108  10.092  0.7043 -1.0917  0.7823
  126MOL0     N16927   3.567  -0.020  10.035 -0.1570 -0.8755 -0.1132
  126MOL0     C16928   4.210   0.708   9.641  0.2697 -0.0154  0.4246
  126MOL0     C16929   4.219   0.846   9.669  0.4154 -0.2027 -0.2565
  126MOL0     C16930   4.273   1.272   9.743 -0.6146 -0.3511  0.2578
  126MOL0     C16931   4.340   1.307   9.632 -0.2764 -0.7768 -0.8883
  126MOL0     C16932   4.355   1.442   9.590 -0.9685 -1.0335  0.2082
  126MOL0     C16933   4.320   1.546   9.676  0.1271  0.4721 -0.7208
  126MOL0     O16934   4.335   1.684   9.656 -0.6121 -0.5643  0.2869
  126MOL0     C16935   4.408   1.732   9.545 -0.1049 -0.0776  0.0530
  126MOL0     C16936   4.560   1.721   9.569  0.8165 -0.6748 -0.6491
  126MOL0     C16937   4.641   1.827   9.499  0.8047  0.5283  0.2470
  126MOL0     C16938   4.774   1.845   9.573  0.3218  0.0884  0.0735
  126MOL0     C16939   4.867   1.957   9.519  0.5799  1.0158 -1.1155
  126MOL0     C16940   4.926   2.053   9.496 -0.5243 -0.8179  0.4386
  126MOL0     C16941   4.259   1.510   9.801  0.1581  0.2509 -0.3546
  126MOL0     C16942   4.248   1.377   9.835  0.9072  0.8183  0.7291
  126MOL0     H16943   4.548   0.883   9.717  0.1601 -1.0618 -0.3316
  126MOL0     H16944   4.533   0.632   9.687 -1.1489 -2.0261 -3.2665
  126MOL0     H16945   4.485   0.413   9.729  0.3052  4.7517 -3.4430
  126MOL0     H16946   4.362   0.483   9.840 -2.6478  1.7033 -0.7593
  126MOL0     H16947   4.219   0.289   9.709 -1.3871  3.0896 -0.2759
  126MOL0     H16948   4.382   0.225   9.736  1.8907  1.8708  2.6009
  126MOL0     H16949   4.349   0.315   9.983 -0.2205 -0.7445 -0.3501
  126MOL0     H16950   4.178   0.342   9.945 -0.5637  0.7267 -2.7455
  126MOL0     H16951   4.173   0.099   9.864  0.3598 -1.2679  0.3342
  126MOL0     H16952   4.330   0.076   9.951  1.2718  0.5881 -0.1464
  126MOL0     H16953   4.171   0.007  10.092  0.7091  0.3583 -1.2616
  126MOL0     H16954   4.238   0.164  10.149  0.6950 -0.1465  0.4155
  126MOL0     H16955   4.014   0.195  10.186  1.5424  1.0128 -0.2720
  126MOL0     H16956   4.017   0.257  10.024  2.8542 -0.5204  0.3622
  126MOL0     H16957   3.954   0.027   9.934 -1.8112  2.2021 -0.6701
  126MOL0     H16958   3.949  -0.034  10.099 -0.5154  0.6697  2.0765
  126MOL0     H16959   3.758   0.168   9.974 -1.1978 -0.4429  0.4811
  126MOL0     H16960   3.791   0.165  10.144 -2.7939 -2.6429  1.6876
  126MOL0     H16961   3.790  -0.106  10.254  1.2362 -1.3736 -2.0515
  126MOL0     H16962   3.644  -0.329  10.300 -1.1070 -1.3751  0.5084
  126MOL0     H16963   3.539  -0.225  10.389 -0.1648  0.4994  0.1587
  126MOL0     H16964   3.365  -0.318  10.190 -0.7072 -3.3548 -1.4223
  126MOL0     H16965   3.371  -0.376  10.339 -0.5647  1.7293 -0.4605
  126MOL0     H16966   3.401  -0.537  10.147  0.1307  0.1427 -3.0196
  126MOL0     H16967   3.547  -0.553  10.254  0.5232 -0.0472 -0.9409
  126MOL0     H16968   3.524  -0.380  10.005 -2.2402 -2.1079  0.1110
  126MOL0     H16969   3.578  -0.543   9.986 -0.7906 -2.0444  2.1022
  126MOL0     H16970   3.673  -0.424   9.831 -0.9102 -1.2394  4.1912
  126MOL0     H16971   3.873  -0.441   9.556 -0.0957  0.3684 -2.5088
  126MOL0     H16972   3.709  -0.384   9.596 -0.1681  0.0193  1.3762
  126MOL0     H16973   3.828  -0.272   9.531  0.1980  1.0221  1.1543
  126MOL0     H16974   4.400  -0.279   9.717  0.1286  0.0472  0.7317
  126MOL0     H16975   4.592  -0.230   9.582  0.8949  1.0484  1.3163
  126MOL0     H16976   4.824   0.033   9.413  1.2365 -1.3026 -2.1843
  126MOL0     H16977   4.779  -0.061   9.544  3.7659 -0.7487 -1.1480
  126MOL0     H16978   4.676  -0.233   9.372  0.8289 -2.4112  1.5638
  126MOL0     H16979   4.779  -0.142   9.256  2.5627  1.1491  0.7106
  126MOL0     H16980   4.869  -0.355   9.367  3.9052 -0.7405  1.6524
  126MOL0     H16981   4.892  -0.255   9.510 -0.6876  0.0507  0.7973
  126MOL0     H16982   5.023  -0.225   9.235 -0.9168  0.2429  0.5246
  126MOL0     H16983   5.021  -0.092   9.356  3.0353 -0.5010  1.5618
  126MOL0     H16984   5.144  -0.224   9.511  0.5733  1.6718 -0.6618
  126MOL0     H16985   5.223  -0.187   9.367 -1.8871  2.3248 -3.1326
  126MOL0     H16986   5.076  -0.460   9.442 -1.9336  2.3695 -1.4510
  126MOL0     H16987   5.151  -0.428   9.282  0.0901  1.2190 -0.4743
  126MOL0     H16988   5.296  -0.436   9.546 -2.6262  1.6205 -0.1941
  126MOL0     H16989   5.362  -0.378   9.408  0.4698  0.8379  4.1968
  126MOL0     H16990   5.409  -0.595   9.312  0.6844  0.4682 -0.2944
  126MOL0     H16991   5.250  -0.651   9.348  0.0580  0.6409 -3.5988
  126MOL0     H16992   4.403   0.138   9.462 -0.1591 -0.9860 -1.4180
  126MOL0     H16993   4.205   0.078   9.586  0.1221 -0.5033  2.5844
  126MOL0     H16994   4.117  -0.247   9.950 -0.5702  1.0661  0.9553
  126MOL0     H16995   3.974  -0.354  10.113  1.8130  0.0824 -0.3053
  126MOL0     H16996   4.110   0.670   9.619  1.0688 -2.1676  0.2724
  126MOL0     H16997   4.131   0.909   9.663  0.2348 -0.0835  2.3634
  126MOL0     H16998   4.370   1.230   9.561  2.9855  0.2093 -0.7553
  126MOL0     H16999   4.403   1.463   9.495 -1.2342  0.8603  0.4511
  126MOL0     H17000   4.380   1.688   9.449  1.5794 -1.7537  0.2681
  126MOL0     H17001   4.390   1.840   9.547  3.0817  0.5470 -0.0225
  126MOL0     H17002   4.608   1.633   9.525 -0.4471 -0.0615 -3.4768
  126MOL0     H17003   4.581   1.720   9.676  1.5736 -3.1586 -0.7556
  126MOL0     H17004   4.598   1.928   9.495  1.9857  1.0733  0.9714
  126MOL0     H17005   4.669   1.804   9.396  0.3973  0.2859  0.1862
  126MOL0     H17006   4.825   1.749   9.565 -1.5638 -0.9467 -0.2375
  126MOL0     H17007   4.754   1.862   9.679 -0.7182 -2.0499  0.2804
  126MOL0     H17008   4.964   2.152   9.479  0.4427 -1.1487  0.6040
  126MOL0     H17009   4.222   1.589   9.865 -0.1382  0.0959 -0.3334
  126MOL0     H17010   4.212   1.364   9.936 -0.0189  0.8961  0.4129
  127MOL0     O17011   3.239   5.326   9.894  0.0159 -0.0309  0.9189
  127MOL0     C17012   3.259   5.245   9.983  0.4852 -0.3219 -0.5165
  127MOL0     O17013   3.367   5.232  10.072  0.2942 -0.1032  0.1730
  127MOL0     C17014   3.460   5.332  10.086  0.5647  0.2818  0.1174
  127MOL0     C17015   3.442   5.464  10.043  0.8682 -0.7033 -0.1771
  127MOL0     C17016   3.549   5.556  10.059  0.7838 -0.0653  0.3813
  127MOL0     C17017   3.670   5.519  10.118 -1.7995  0.5301  0.7833
  127MOL0     O17018   3.773   5.612  10.145  0.3238  1.4332  0.4825
  127MOL0     C17019   3.746   5.749  10.170 -0.0114  0.0677 -0.1337
  127MOL0     C17020   3.771   5.772  10.315  0.0870  0.2563 -0.2634
  127MOL0     C17021   3.650   5.734  10.401 -0.3019 -0.4498  0.1591
  127MOL0     C17022   3.676   5.737  10.547 -0.5874  0.4518 -1.0605
  127MOL0     C17023   3.703   5.880  10.605  0.0950  0.9018  0.1997
  127MOL0     C17024   3.692   5.886  10.757  0.1308  0.4187  0.2713
  127MOL0     C17025   3.815   5.848  10.831 -0.8164  1.2105  0.0885
  127MOL0     C17026   3.941   5.928  10.796 -1.3918  0.7913  0.0998
  127MOL0     N17027   3.917   6.075  10.800  0.7226  0.7554 -0.3444
  127MOL0     C17028   3.885   6.157  10.912  0.1878 -0.5691  0.1657
  127MOL0     C17029   3.830   6.263  10.854 -0.8213 -0.7329 -0.3637
  127MOL0     C17030   3.768   6.383  10.905  0.2490  0.1733 -0.4400
  127MOL0     C17031   3.643   6.354  10.976  0.3200  1.5602 -0.3285
  127MOL0     C17032   3.583   6.492  11.007  0.7837 -0.6407  0.3034
  127MOL0     C17033   3.447   6.480  11.091 -0.5981  0.3443  0.1026
  127MOL0     O17034   3.341   6.403  11.035 -0.1869 -0.5313  0.8006
  127MOL0     C17035   3.268   6.460  10.937  0.6876  0.6450  0.5120
  127MOL0     C17036   3.149   6.515  10.959 -0.2048  0.3950 -0.7008
  127MOL0     C17037   3.082   6.599  10.861  0.6713  0.2105  0.2096
  127MOL0     C17038   2.968   6.670  10.900  0.1405 -0.1035 -0.2333
  127MOL0     C17039   3.132   6.599  10.729 -1.0975 -0.7073 -0.6415
  127MOL0     C17040   3.059   6.642  10.615  0.1890  0.2431  0.9717
  127MOL0     O17041   3.139   6.690  10.507 -1.2483  0.5201 -0.0584
  127MOL0     C17042   3.118   6.807  10.444 -0.4135 -0.0490  0.8958
  127MOL0     C17043   3.202   6.850  10.335  0.3998  0.3218  0.2277
  127MOL0     C17044   3.185   6.969  10.271 -0.2661 -1.2302  0.4879
  127MOL0     C17045   3.080   7.053  10.314  0.8392  0.4798  0.9710
  127MOL0     O17046   3.048   7.166  10.252  0.5608 -0.7198 -0.1896
  127MOL0     C17047   3.105   7.220  10.126 -0.1980  0.5156  0.9443
  127MOL0     C17048   3.073   7.125  10.005  0.1031  0.0574 -0.4215
  127MOL0     C17049   3.148   7.181   9.880  0.0253  0.2124 -0.7875
  127MOL0     C17050   3.059   7.244   9.778  0.6486  0.8483 -1.0783
  127MOL0     C17051   3.142   7.273   9.649  0.1207 -0.1830  0.1951
  127MOL0     C17052   3.227   7.400   9.675 -0.5089 -0.1440  0.2486
  127MOL0     C17053   3.264   7.481   9.547 -0.8930 -0.3544  0.3753
  127MOL0     C17054   3.327   7.618   9.573  0.9590  0.3640 -0.7676
  127MOL0    Cl17055   3.487   7.615   9.647 -0.0363  0.2121  0.0386
  127MOL0     C17056   2.997   7.009  10.415  0.3158  0.8947  1.0905
  127MOL0     C17057   3.014   6.889  10.479  0.6346  0.1038 -0.3782
  127MOL0     O17058   2.940   6.643  10.622  0.2195  0.3922 -0.4085
  127MOL0     C17059   3.258   6.534  10.704 -0.4556  0.0025  0.0560
  127MOL0     C17060   3.323   6.469  10.811  0.1048 -0.3525 -0.3605
  127MOL0     N17061   3.843   6.256  10.718 -0.2294 -0.5717  0.1425
  127MOL0     N17062   3.887   6.141  10.688 -0.8792 -0.6935  0.4360
  127MOL0     C17063   3.692   5.385  10.156 -0.2420 -0.4098  0.1090
  127MOL0     C17064   3.583   5.297  10.133  0.2426  0.4784 -0.2796
  127MOL0     C17065   3.150   5.142  10.005 -0.5799 -0.6037  1.2128
  127MOL0     C17066   3.111   5.086  10.124 -0.7299 -0.2019  0.4965
  127MOL0     C17067   3.009   4.989  10.139 -0.7614  0.1913 -0.1672
  127MOL0     C17068   2.941   4.949  10.028 -0.1130 -0.1748  0.2914
  127MOL0     O17069   2.837   4.863  10.054  0.0515 -0.2749  0.5027
  127MOL0     C17070   2.756   4.822   9.949 -0.0631 -0.4574  0.6076
  127MOL0     C17071   2.650   4.726  10.005 -0.1300  0.3545  0.4229
  127MOL0     C17072   2.571   4.643   9.896 -0.3444 -1.3675 -0.1934
  127MOL0     C17073   2.470   4.547   9.957 -0.4865  0.5666 -0.6841
  127MOL0     C17074   2.363   4.603  10.037  1.2113  0.1221  0.2966
  127MOL0     C17075   2.270   4.638  10.099  0.5849 -1.2861 -0.3628
  127MOL0     C17076   2.974   5.004   9.900  0.0160 -0.1955  0.5940
  127MOL0     C17077   3.078   5.092   9.887  0.1175 -0.3827 -0.3482
  127MOL0     H17078   3.348   5.506  10.010  1.1185 -0.4963 -0.6241
  127MOL0     H17079   3.517   5.656  10.031 -0.5598 -1.1069 -2.1896
  127MOL0     H17080   3.817   5.817  10.121  0.2994 -0.0982  0.0795
  127MOL0     H17081   3.642   5.782  10.164  0.1798  1.7557  3.6449
  127MOL0     H17082   3.864   5.719  10.339  0.7902  1.2696 -0.6776
  127MOL0     H17083   3.786   5.878  10.338  2.1397 -0.0932  0.2197
  127MOL0     H17084   3.579   5.816  10.385 -0.1995 -0.3475  0.2225
  127MOL0     H17085   3.607   5.639  10.368  0.1578 -0.6421  0.1084
  127MOL0     H17086   3.590   5.694  10.599 -0.4107  3.0297  1.6722
  127MOL0     H17087   3.767   5.679  10.563 -0.8395 -0.2527 -2.1113
  127MOL0     H17088   3.800   5.916  10.570  2.2762 -1.4848  3.2799
  127MOL0     H17089   3.619   5.941  10.570  0.4280  0.8025 -0.8104
  127MOL0     H17090   3.666   5.989  10.784  1.5820  1.1099 -0.7850
  127MOL0     H17091   3.609   5.824  10.792 -0.7958  2.8048  2.6943
  127MOL0     H17092   3.806   5.860  10.939 -0.6533 -1.0490  0.3964
  127MOL0     H17093   3.832   5.741  10.815 -1.3306  0.8856  1.5632
  127MOL0     H17094   3.978   5.897  10.698 -1.5659  1.9598 -0.3560
  127MOL0     H17095   4.015   5.904  10.874 -1.8484 -1.8145 -0.1769
  127MOL0     H17096   3.888   6.129  11.016  2.8090 -0.0018  0.3086
  127MOL0     H17097   3.825   6.430  10.985  1.7283  1.9604 -2.4238
  127MOL0     H17098   3.751   6.445  10.816 -3.7843 -3.0335 -2.3099
  127MOL0     H17099   3.668   6.293  11.063  2.0817  0.7978 -1.3119
  127MOL0     H17100   3.580   6.293  10.911 -1.0630  3.4841 -0.8826
  127MOL0     H17101   3.556   6.553  10.920 -2.1449 -0.2708  1.3419
  127MOL0     H17102   3.651   6.549  11.071  1.1893  1.4763 -1.8681
  127MOL0     H17103   3.412   6.583  11.098 -2.3805  0.0801 -2.8590
  127MOL0     H17104   3.464   6.439  11.191  1.7812 -1.1237 -0.8238
  127MOL0     H17105   3.110   6.512  11.060  3.3256  1.7568  0.8775
  127MOL0     H17106   2.931   6.740  10.824  1.6912 -1.4154 -2.2934
  127MOL0     H17107   2.891   6.603  10.940  0.8959  0.3269  2.1086
  127MOL0     H17108   2.991   6.735  10.986 -2.0854  0.0230  0.3477
  127MOL0     H17109   3.292   6.793  10.315 -0.2087 -0.4967 -0.2203
  127MOL0     H17110   3.250   7.003  10.191 -1.7317 -1.3679 -0.8006
  127MOL0     H17111   3.068   7.317  10.093 -0.0424 -0.4428 -2.4676
  127MOL0     H17112   3.211   7.234  10.150  0.0382  0.4021  0.0135
  127MOL0     H17113   3.109   7.024  10.028 -1.8248 -1.1218 -2.2047
  127MOL0     H17114   2.964   7.115   9.998  0.2282 -0.4359 -2.0416
  127MOL0     H17115   3.181   7.089   9.831  1.5300 -0.7288  1.7550
  127MOL0     H17116   3.238   7.237   9.909  0.6817 -1.3005  0.2301
  127MOL0     H17117   2.981   7.175   9.745 -0.0280  0.0230  1.8938
  127MOL0     H17118   3.014   7.335   9.819 -1.9358 -1.4000  1.4799
  127MOL0     H17119   3.067   7.277   9.569  0.9503 -2.6112 -0.8015
  127MOL0     H17120   3.200   7.189   9.610 -2.1772 -2.3043  1.0999
  127MOL0     H17121   3.168   7.470   9.735 -3.9827 -1.9164 -0.7673
  127MOL0     H17122   3.318   7.373   9.728  0.9627 -1.0156 -2.5373
  127MOL0     H17123   3.171   7.514   9.500 -1.1115 -0.0571  1.0032
  127MOL0     H17124   3.321   7.422   9.475 -1.2513 -1.0179  0.6200
  127MOL0     H17125   3.266   7.674   9.644  2.0826  1.2841 -0.4991
  127MOL0     H17126   3.318   7.674   9.479 -2.1744 -2.5151 -2.3909
  127MOL0     H17127   2.911   7.071  10.441 -1.2283 -0.8529  0.4157
  127MOL0     H17128   2.948   6.859  10.560  0.4287  1.0643 -0.1846
  127MOL0     H17129   3.304   6.533  10.606  3.1090  2.3743  1.4993
  127MOL0     H17130   3.418   6.418  10.801  0.4795  0.5024 -1.4226
  127MOL0     H17131   3.785   5.348  10.198  1.2910  1.0469 -1.8040
  127MOL0     H17132   3.595   5.196  10.171  0.7737  0.9373  0.8243
  127MOL0     H17133   3.185   5.096  10.203  0.9281 -3.4820 -0.4685
  127MOL0     H17134   2.987   4.928  10.226  1.1517 -0.4667 -0.0960
  127MOL0     H17135   2.709   4.904   9.893  1.3333  2.1243  2.9601
  127MOL0     H17136   2.820   4.766   9.881  0.2926 -0.4312  0.9205
  127MOL0     H17137   2.581   4.785  10.067 -1.5585  0.4371 -1.1694
  127MOL0     H17138   2.698   4.651  10.067 -1.3228 -0.3975  0.4765
  127MOL0     H17139   2.645   4.600   9.828  0.6925  1.6227 -1.1376
  127MOL0     H17140   2.525   4.718   9.830  0.3597  1.4731  2.3348
  127MOL0     H17141   2.520   4.471  10.019 -0.2007 -0.4275 -2.0802
  127MOL0     H17142   2.425   4.485   9.879  0.0980  2.6034 -2.7530
  127MOL0     H17143   2.182   4.668  10.151  2.9707  2.3409  2.0701
  127MOL0     H17144   2.923   4.973   9.809  1.2639  0.1039 -0.2291
  127MOL0     H17145   3.098   5.121   9.784 -2.5082  1.1612 -0.5013
  128MOL0     O17146   0.038   1.506   8.950  0.3038  0.2515  0.2693
  128MOL0     C17147   0.060   1.608   9.019  0.5004  0.2197  0.2487
  128MOL0     O17148  -0.000   1.626   9.146  0.0484 -0.6470  0.1182
  128MOL0     C17149  -0.112   1.553   9.185  0.0052  0.8710  0.1999
  128MOL0     C17150  -0.206   1.502   9.102 -0.9043  0.1813  0.4210
  128MOL0     C17151  -0.331   1.444   9.146 -1.2078 -0.2546  0.8713
  128MOL0     C17152  -0.340   1.413   9.279  0.2805  0.5313 -0.1409
  128MOL0     O17153  -0.451   1.348   9.321 -0.0666 -0.4894 -0.5627
  128MOL0     C17154  -0.503   1.380   9.457 -0.1005  1.5844 -0.1173
  128MOL0     C17155  -0.635   1.309   9.487  0.9470 -0.0099 -0.9342
  128MOL0     C17156  -0.673   1.322   9.641 -0.2315  0.2926  0.5529
  128MOL0     C17157  -0.820   1.288   9.670 -1.6480 -0.5540 -0.2128
  128MOL0     C17158  -0.878   1.319   9.805  0.5244 -0.3870 -0.1103
  128MOL0     C17159  -1.037   1.299   9.781 -0.1808 -0.7231 -0.1894
  128MOL0     C17160  -1.119   1.377   9.881 -0.2315  0.3895 -0.0949
  128MOL0     C17161  -1.250   1.303   9.922  0.4263  0.0874 -0.8496
  128MOL0     N17162  -1.345   1.391   9.987  0.4750  0.2068  0.6996
  128MOL0     C17163  -1.466   1.347  10.029  0.1223  1.1118  1.2665
  128MOL0     C17164  -1.530   1.460  10.065  0.2450  0.4091 -0.4955
  128MOL0     C17165  -1.669   1.475  10.117 -0.1620  0.9250  0.3990
  128MOL0     C17166  -1.744   1.577  10.034  0.3834  0.1019 -0.0851
  128MOL0     C17167  -1.874   1.603  10.112 -0.5804  0.7728  0.2249
  128MOL0     C17168  -1.965   1.681  10.008  0.6064  1.3035 -0.0130
  128MOL0     O17169  -1.897   1.775   9.934  1.2450 -0.1636  0.0801
  128MOL0     C17170  -1.975   1.841   9.836  0.9275 -0.4722 -0.5607
  128MOL0     C17171  -2.028   1.778   9.726  0.8763 -0.1210 -0.8193
  128MOL0     C17172  -2.107   1.842   9.630  0.2438 -0.2433 -0.1523
  128MOL0     C17173  -2.161   1.752   9.521  0.1880 -0.1644  0.5913
  128MOL0     C17174  -2.140   1.978   9.655  0.7145 -0.6167  0.9754
  128MOL0     C17175  -2.210   2.056   9.553 -0.0535  0.1111 -0.2913
  128MOL0     O17176  -2.243   1.998   9.433 -0.0747  0.3743  0.0427
  128MOL0     C17177  -2.325   2.062   9.344  0.4158  0.1027  0.0943
  128MOL0     C17178  -2.294   2.172   9.259 -0.5124 -0.2892  0.9278
  128MOL0     C17179  -2.380   2.242   9.180 -0.5683  1.2373 -0.1434
  128MOL0     C17180  -2.514   2.196   9.171 -0.5720  0.9861  0.3980
  128MOL0     O17181  -2.601   2.245   9.081  0.2383  0.1063  0.1356
  128MOL0     C17182  -2.591   2.199   8.949 -0.3683 -0.6620  0.2986
  128MOL0     C17183  -2.700   2.261   8.871  0.3380 -0.4417  0.5881
  128MOL0     C17184  -2.685   2.414   8.871 -0.3212  0.6017  1.0642
  128MOL0     C17185  -2.807   2.480   8.817  1.0054 -0.1725 -0.7457
  128MOL0     C17186  -2.806   2.634   8.816 -0.0397 -0.6956  0.9545
  128MOL0     C17187  -2.943   2.688   8.787 -0.2622 -0.6493  0.2356
  128MOL0     C17188  -3.034   2.674   8.909  0.7432  0.4612 -0.5015
  128MOL0     C17189  -3.175   2.724   8.894 -0.4035 -0.1457 -1.4104
  128MOL0    Cl17190  -3.266   2.669   9.046  0.1314  0.2853  0.0362
  128MOL0     C17191  -2.554   2.083   9.252  0.1496  0.0472  0.3133
  128MOL0     C17192  -2.458   2.010   9.324 -0.5497 -0.0525 -0.1525
  128MOL0     O17193  -2.238   2.171   9.586 -0.2509 -0.2304 -0.0475
  128MOL0     C17194  -2.090   2.048   9.769 -1.2110  0.0637 -0.2234
  128MOL0     C17195  -1.998   1.980   9.855  0.3432  0.0242 -0.2930
  128MOL0     N17196  -1.457   1.568  10.021 -0.2281 -0.0686  0.1529
  128MOL0     N17197  -1.352   1.521   9.974 -0.5569  0.0265 -0.2311
  128MOL0     C17198  -0.244   1.467   9.370  0.3220 -0.7083 -0.4574
  128MOL0     C17199  -0.134   1.531   9.320 -1.0388 -0.8204 -1.2665
  128MOL0     C17200   0.162   1.707   8.983  1.0394 -0.2114  0.4215
  128MOL0     C17201   0.239   1.704   8.859 -0.3230  0.0710 -0.5130
  128MOL0     C17202   0.339   1.802   8.835 -0.7332 -0.3943 -1.0542
  128MOL0     C17203   0.376   1.893   8.937 -0.9105 -0.7866  0.1630
  128MOL0     O17204   0.484   1.982   8.927  0.1538  0.7618  0.5595
  128MOL0     C17205   0.510   2.032   8.790 -0.7933  0.5822 -0.7127
  128MOL0     C17206   0.613   2.146   8.809  0.0482  0.4962 -0.6232
  128MOL0     C17207   0.689   2.196   8.688  0.1510 -0.3135  0.0960
  128MOL0     C17208   0.713   2.350   8.681  0.7812  0.3930 -0.1891
  128MOL0     C17209   0.853   2.372   8.638 -0.1169 -0.0285 -0.2559
  128MOL0     C17210   0.973   2.379   8.616  0.8525  0.1695 -0.3292
  128MOL0     C17211   0.294   1.906   9.053 -0.1734 -1.2141 -0.0043
  128MOL0     C17212   0.191   1.813   9.077 -0.6264 -0.5240  0.6640
  128MOL0     H17213  -0.196   1.517   8.995  3.4075 -2.4153  0.2338
  128MOL0     H17214  -0.403   1.409   9.073 -1.1439  0.5575  0.4054
  128MOL0     H17215  -0.434   1.334   9.529 -1.0547  0.8882  0.3756
  128MOL0     H17216  -0.502   1.489   9.465  3.8044  1.7255 -0.4911
  128MOL0     H17217  -0.710   1.364   9.430  1.9628  0.3866 -1.9172
  128MOL0     H17218  -0.640   1.203   9.460  0.0371 -0.7700  1.8818
  128MOL0     H17219  -0.611   1.250   9.694  0.2454 -2.5557 -3.4350
  128MOL0     H17220  -0.639   1.421   9.673  0.3442  0.6015 -0.8950
  128MOL0     H17221  -0.873   1.347   9.594  0.9860  2.8699  0.3827
  128MOL0     H17222  -0.824   1.184   9.636 -0.7217  0.1096 -2.5791
  128MOL0     H17223  -0.835   1.270   9.892 -3.1528 -1.1590  1.4610
  128MOL0     H17224  -0.861   1.427   9.816 -0.1531 -0.0410 -1.9157
  128MOL0     H17225  -1.073   1.326   9.681  0.4757  1.7878  0.1984
  128MOL0     H17226  -1.055   1.193   9.799 -2.1844 -0.0540  2.2944
  128MOL0     H17227  -1.068   1.417   9.969  3.4706  0.3322 -2.0014
  128MOL0     H17228  -1.140   1.469   9.826  0.9510  0.8204  0.1542
  128MOL0     H17229  -1.218   1.224   9.991 -0.0111  0.5905 -0.0589
  128MOL0     H17230  -1.294   1.259   9.832  0.5693 -1.1644 -0.3311
  128MOL0     H17231  -1.492   1.245  10.053  0.1807  0.8639  0.2950
  128MOL0     H17232  -1.722   1.380  10.114  2.3033 -0.5318 -1.2114
  128MOL0     H17233  -1.650   1.499  10.222  0.8037 -1.1804  0.7609
  128MOL0     H17234  -1.760   1.555   9.928 -1.3755  4.6873 -1.0145
  128MOL0     H17235  -1.687   1.670  10.036  0.6783  0.1274 -3.5318
  128MOL0     H17236  -1.868   1.673  10.196 -0.7210  3.1912 -1.6478
  128MOL0     H17237  -1.915   1.508  10.147  3.9437 -2.1945 -1.6289
  128MOL0     H17238  -2.054   1.724  10.055 -0.7847 -2.4269  1.1457
  128MOL0     H17239  -2.008   1.604   9.943 -0.0767 -0.5245  2.4492
  128MOL0     H17240  -1.995   1.676   9.712  0.5675 -0.0639 -2.1145
  128MOL0     H17241  -2.122   1.784   9.424 -2.3924  1.7782  0.1016
  128MOL0     H17242  -2.148   1.646   9.545  0.4621  0.3817  3.0845
  128MOL0     H17243  -2.270   1.756   9.516  0.2634  0.8392 -0.6862
  128MOL0     H17244  -2.192   2.209   9.256 -0.9585  1.0021 -2.4858
  128MOL0     H17245  -2.344   2.326   9.120 -3.8071  0.0838 -4.1851
  128MOL0     H17246  -2.493   2.236   8.918 -0.6645 -1.4189 -1.6984
  128MOL0     H17247  -2.594   2.091   8.934 -0.0251 -0.8413  1.4643
  128MOL0     H17248  -2.706   2.223   8.768  0.1926 -1.3391  0.9247
  128MOL0     H17249  -2.789   2.228   8.925 -0.4922  2.3431  1.0931
  128MOL0     H17250  -2.601   2.425   8.802 -1.1976 -0.1450 -0.1781
  128MOL0     H17251  -2.657   2.455   8.969  0.2494 -0.0727  1.1913
  128MOL0     H17252  -2.822   2.447   8.714 -2.1760  1.6216 -1.0081
  128MOL0     H17253  -2.890   2.445   8.879  2.6278 -1.1939  0.9488
  128MOL0     H17254  -2.736   2.661   8.736 -1.2405 -0.9394 -0.2196
  128MOL0     H17255  -2.767   2.679   8.908 -1.1129 -1.0575  1.6003
  128MOL0     H17256  -2.938   2.797   8.773  0.0745 -0.2998  2.5999
  128MOL0     H17257  -2.994   2.638   8.705  0.0300  0.4725 -0.6506
  128MOL0     H17258  -2.988   2.723   8.995  1.5417  0.4178 -0.8949
  128MOL0     H17259  -3.045   2.567   8.929  0.2127  0.9870  2.4428
  128MOL0     H17260  -3.216   2.689   8.798 -2.5125 -1.9209  0.0295
  128MOL0     H17261  -3.173   2.833   8.887  0.4441 -0.1181 -0.8237
  128MOL0     H17262  -2.652   2.043   9.228  0.5107 -0.7019  0.0506
  128MOL0     H17263  -2.476   1.917   9.378 -0.4116 -0.5111 -0.8777
  128MOL0     H17264  -2.094   2.152   9.798  2.5602  0.0357  1.0487
  128MOL0     H17265  -1.958   2.027   9.944 -0.5005  1.3313 -0.5752
  128MOL0     H17266  -0.250   1.464   9.479  0.3974 -2.2259 -0.4875
  128MOL0     H17267  -0.047   1.570   9.372 -2.3149  1.7028 -0.8295
  128MOL0     H17268   0.233   1.621   8.790  0.5086 -2.3006  2.0895
  128MOL0     H17269   0.405   1.780   8.751  1.7266 -0.9974  0.9058
  128MOL0     H17270   0.554   1.959   8.721 -0.3146  0.0127  0.1734
  128MOL0     H17271   0.420   2.067   8.739 -0.7740  0.4585 -0.8335
  128MOL0     H17272   0.687   2.103   8.878  0.1489  0.1142 -0.9627
  128MOL0     H17273   0.554   2.226   8.854  0.4080  0.8622 -0.8026
  128MOL0     H17274   0.635   2.166   8.597  1.2659  2.2935 -1.5439
  128MOL0     H17275   0.783   2.143   8.677  0.2842 -0.4184  1.5812
  128MOL0     H17276   0.700   2.391   8.781 -1.7809  3.7743 -1.7200
  128MOL0     H17277   0.643   2.396   8.611 -0.0661 -2.9247 -1.7602
  128MOL0     H17278   1.079   2.370   8.605  0.7352  0.8430 -2.3167
  128MOL0     H17279   0.324   1.976   9.130  1.2099  0.8508 -2.2543
  128MOL0     H17280   0.136   1.814   9.171 -1.2562 -0.1201  0.2974
  129MOL0     O17281   3.463  10.823   5.630  0.2723  0.1316  0.3112
  129MOL0     C17282   3.436  10.736   5.709  0.9713  0.3271 -0.0600
  129MOL0     O17283   3.457  10.740   5.839  0.1947 -0.2289 -0.3242
  129MOL0     C17284   3.508  10.864   5.882 -0.2677  0.5355  0.2465
  129MOL0     C17285   3.428  10.985   5.902  0.1115  1.1149  0.5126
  129MOL0     C17286   3.488  11.105   5.939 -0.2428  0.1180  0.5266
  129MOL0     C17287   3.622  11.114   5.957  0.8341  0.1073 -1.3430
  129MOL0     O17288   3.677  11.229   5.996  0.1455  0.5235  0.3351
  129MOL0     C17289   3.808  11.239   6.047 -0.1882 -1.5273 -0.2319
  129MOL0     C17290   3.805  11.374   6.123  0.9969 -1.5369 -0.0325
  129MOL0     C17291   3.803  11.492   6.025  0.5464 -0.7571  0.7046
  129MOL0     C17292   3.764  11.624   6.081 -1.0350 -0.3513  0.5452
  129MOL0     C17293   3.847  11.740   6.021  0.2430  0.0044 -0.8275
  129MOL0     C17294   3.847  11.878   6.097 -0.1450  0.6579 -0.2886
  129MOL0     C17295   3.723  11.970   6.067 -0.4371  0.6169  0.2187
  129MOL0     C17296   3.771  12.114   6.081 -0.8335  0.0503  0.7218
  129MOL0     N17297   3.806  12.159   5.950  0.3780 -0.1827  0.2312
  129MOL0     C17298   3.733  12.244   5.871 -0.9759  0.2310  0.4906
  129MOL0     C17299   3.804  12.261   5.761  0.1773 -0.4438  0.0305
  129MOL0     C17300   3.774  12.357   5.659 -0.2774  0.1018  0.1578
  129MOL0     C17301   3.630  12.353   5.602 -0.8082  0.3267  0.7804
  129MOL0     C17302   3.633  12.409   5.466 -0.9430 -0.2941 -0.9473
  129MOL0     C17303   3.712  12.334   5.363 -1.0611  1.4960 -0.2968
  129MOL0     O17304   3.622  12.270   5.263  0.2255  0.7063  0.4301
  129MOL0     C17305   3.575  12.147   5.288  0.2228  0.6756 -0.6537
  129MOL0     C17306   3.594  12.064   5.402  0.5579 -0.2384  0.4730
  129MOL0     C17307   3.525  11.952   5.427  0.5766  0.2372 -0.0999
  129MOL0     C17308   3.571  11.871   5.558  0.6209  0.0283 -0.7827
  129MOL0     C17309   3.429  11.916   5.338 -0.2466  0.3318 -0.4120
  129MOL0     C17310   3.344  11.789   5.355 -0.6123 -0.0142  0.7715
  129MOL0     O17311   3.413  11.688   5.422 -0.4701 -0.0307  0.1795
  129MOL0     C17312   3.401  11.553   5.386  0.8053 -0.2495  0.4874
  129MOL0     C17313   3.378  11.511   5.254 -0.2458 -0.6037  0.3482
  129MOL0     C17314   3.397  11.382   5.209 -0.6023  0.8284  0.8139
  129MOL0     C17315   3.427  11.282   5.297 -0.2666  0.6526 -0.2451
  129MOL0     O17316   3.414  11.152   5.254  0.2331  0.4165 -0.6472
  129MOL0     C17317   3.480  11.056   5.340  0.1256 -0.4842  0.6308
  129MOL0     C17318   3.489  10.920   5.283  0.1324 -0.1042 -0.3529
  129MOL0     C17319   3.610  10.943   5.181 -0.3996  1.0800  1.2048
  129MOL0     C17320   3.632  10.801   5.117  0.3438  1.0276 -0.2961
  129MOL0     C17321   3.751  10.809   5.022  0.8558 -0.0291 -0.7366
  129MOL0     C17322   3.821  10.675   5.018 -0.2932 -0.2293 -0.5559
  129MOL0     C17323   3.949  10.677   5.114  0.2359  0.6231  0.6057
  129MOL0     C17324   4.035  10.557   5.084  0.3481  0.1586 -0.1357
  129MOL0    Cl17325   4.203  10.610   5.116  0.0522 -0.4970 -0.0956
  129MOL0     C17326   3.464  11.320   5.433  0.0122  0.2382  0.2248
  129MOL0     C17327   3.450  11.456   5.472 -0.5273  0.4572 -0.0213
  129MOL0     O17328   3.235  11.777   5.300 -0.9121 -0.4694  0.3004
  129MOL0     C17329   3.409  11.991   5.220  0.2353  0.3190 -0.4944
  129MOL0     C17330   3.488  12.105   5.194  0.9721  0.9229 -0.0408
  129MOL0     N17331   3.915  12.179   5.770  0.5450  0.1466  0.0056
  129MOL0     N17332   3.916  12.119   5.881  0.1642  0.7649  1.4695
  129MOL0     C17333   3.697  10.996   5.936  0.2337 -0.0679  0.2013
  129MOL0     C17334   3.646  10.875   5.899  0.2339  0.6393 -0.3292
  129MOL0     C17335   3.415  10.599   5.654  0.9354  0.8037  0.7641
  129MOL0     C17336   3.452  10.556   5.520  0.3229 -0.7496 -0.1643
  129MOL0     C17337   3.434  10.429   5.475 -0.0683 -0.1822 -0.1725
  129MOL0     C17338   3.380  10.326   5.557 -0.0556 -0.4438 -0.3622
  129MOL0     O17339   3.361  10.209   5.491 -0.4343  0.6977 -0.5161
  129MOL0     C17340   3.289  10.100   5.559 -0.9227 -0.1418 -1.1924
  129MOL0     C17341   3.207  10.013   5.460  0.0127  0.2904 -0.5893
  129MOL0     C17342   3.277   9.894   5.396 -1.0263 -0.5512  0.4526
  129MOL0     C17343   3.369   9.946   5.284 -0.7311 -0.1405 -1.1315
  129MOL0     C17344   3.290   9.969   5.160 -1.0443 -0.0421  0.1826
  129MOL0     C17345   3.231   9.986   5.058  0.3670 -0.6549  0.1530
  129MOL0     C17346   3.336  10.359   5.692 -0.3931  0.1623  0.5765
  129MOL0     C17347   3.362  10.492   5.733 -0.1120 -0.4922 -0.7451
  129MOL0     H17348   3.321  10.973   5.895  0.2692 -3.3465  2.7107
  129MOL0     H17349   3.418  11.184   5.965  1.3144  1.5831  0.4508
  129MOL0     H17350   3.829  11.158   6.117  0.6131 -0.0658  1.2934
  129MOL0     H17351   3.890  11.242   5.974 -0.7718 -0.3979 -0.8671
  129MOL0     H17352   3.721  11.372   6.193  2.9312  0.3709  2.5448
  129MOL0     H17353   3.894  11.373   6.187  1.9727  0.3531 -1.2966
  129MOL0     H17354   3.904  11.497   5.985  0.3181  0.9108  0.2658
  129MOL0     H17355   3.726  11.472   5.950 -1.7574  0.3026  2.6363
  129MOL0     H17356   3.664  11.653   6.047 -1.3547 -0.8753  1.0198
  129MOL0     H17357   3.760  11.628   6.190 -1.6172 -1.2395  0.5645
  129MOL0     H17358   3.951  11.707   6.015 -0.2737 -1.3975 -3.0417
  129MOL0     H17359   3.819  11.754   5.916  0.2916  0.9654 -0.7254
  129MOL0     H17360   3.852  11.857   6.204 -1.0711  0.4588 -0.2770
  129MOL0     H17361   3.938  11.934   6.075 -0.8351  1.3971 -1.3747
  129MOL0     H17362   3.662  11.940   5.981 -2.4781 -0.3364  1.9199
  129MOL0     H17363   3.657  11.962   6.154  1.1791  2.2970  1.6951
  129MOL0     H17364   3.856  12.115   6.151 -1.1731 -2.7104  1.2994
  129MOL0     H17365   3.692  12.173   6.127 -1.4385 -1.4765  1.7376
  129MOL0     H17366   3.645  12.301   5.897  0.1459  2.1293  0.2775
  129MOL0     H17367   3.778  12.460   5.697 -1.5947  0.0412  0.5033
  129MOL0     H17368   3.847  12.348   5.578  1.0858  1.4246  1.1697
  129MOL0     H17369   3.569  12.415   5.669  0.8668  3.4826 -0.4019
  129MOL0     H17370   3.584  12.254   5.605  1.9986 -1.0715  0.7811
  129MOL0     H17371   3.678  12.509   5.471 -1.1164 -0.2128 -0.9874
  129MOL0     H17372   3.533  12.431   5.427 -0.5552  1.8023 -0.9110
  129MOL0     H17373   3.763  12.253   5.416 -1.4108  0.2484 -1.7902
  129MOL0     H17374   3.789  12.392   5.311 -1.3800  0.9361 -1.4209
  129MOL0     H17375   3.683  12.083   5.462  2.0330 -2.0953 -1.0015
  129MOL0     H17376   3.609  11.951   5.624  0.7959 -1.2447  0.7279
  129MOL0     H17377   3.492  11.820   5.613  0.2376  1.7698  0.4001
  129MOL0     H17378   3.657  11.804   5.544  0.5166 -0.2820  0.0240
  129MOL0     H17379   3.345  11.594   5.192 -0.0061 -1.0850 -0.4419
  129MOL0     H17380   3.393  11.357   5.104 -1.2320 -1.3013  1.2879
  129MOL0     H17381   3.583  11.086   5.361  0.2234  0.0859 -0.5892
  129MOL0     H17382   3.414  11.047   5.427  0.8785 -0.2722  1.2324
  129MOL0     H17383   3.528  10.856   5.362 -0.7215  1.4664  1.4223
  129MOL0     H17384   3.401  10.896   5.222 -0.3098 -4.5972  1.6921
  129MOL0     H17385   3.705  10.977   5.224  0.8248 -1.3005  0.5663
  129MOL0     H17386   3.586  11.017   5.104  1.8259  2.3552  1.6343
  129MOL0     H17387   3.649  10.725   5.194  1.0358  2.3250  0.8654
  129MOL0     H17388   3.550  10.758   5.058  0.5281 -2.6028  1.7599
  129MOL0     H17389   3.815  10.889   5.060 -2.6712  2.8586 -0.3001
  129MOL0     H17390   3.718  10.840   4.922  1.7853  0.3784 -0.9294
  129MOL0     H17391   3.758  10.593   5.053  2.5129 -1.2796  2.5542
  129MOL0     H17392   3.856  10.654   4.917  1.8343  1.1512 -0.1630
  129MOL0     H17393   3.920  10.678   5.219 -0.6363  5.0374  0.5002
  129MOL0     H17394   4.015  10.762   5.096  0.8522 -0.2620 -1.7290
  129MOL0     H17395   4.039  10.527   4.979 -0.0021 -1.7253  0.3537
  129MOL0     H17396   4.002  10.475   5.148 -0.5285  2.0735  2.0309
  129MOL0     H17397   3.469  11.250   5.516 -1.4173 -0.4539 -0.2468
  129MOL0     H17398   3.482  11.490   5.570  2.1713  1.3755 -1.1061
  129MOL0     H17399   3.339  11.966   5.141  1.2018  1.1024 -1.6302
  129MOL0     H17400   3.473  12.156   5.100  1.2600 -3.4895 -2.7469
  129MOL0     H17401   3.801  11.009   5.967 -1.0931  2.2318  4.5654
  129MOL0     H17402   3.712  10.791   5.883  0.4943  0.4765  1.3920
  129MOL0     H17403   3.502  10.625   5.452 -0.3805 -0.1917 -0.1308
  129MOL0     H17404   3.468  10.419   5.372  2.0965  0.0145  0.4731
  129MOL0     H17405   3.368  10.042   5.608  0.0883  2.2625  0.2190
  129MOL0     H17406   3.222  10.142   5.635 -0.5105  1.0294 -1.4498
  129MOL0     H17407   3.174  10.074   5.376 -0.1522  0.1765 -0.6076
  129MOL0     H17408   3.115   9.988   5.514  0.5266  2.2979  1.3953
  129MOL0     H17409   3.205   9.825   5.351 -1.5466  0.6079 -0.5728
  129MOL0     H17410   3.332   9.843   5.476  0.4094 -0.7959 -0.6332
  129MOL0     H17411   3.451   9.877   5.264  1.0982  2.2591 -2.4890
  129MOL0     H17412   3.419  10.035   5.324 -1.9597  0.4921 -0.9609
  129MOL0     H17413   3.184  10.001   4.962 -0.4581 -4.2951 -0.1991
  129MOL0     H17414   3.299  10.286   5.764  0.8023  0.8448  1.9468
  129MOL0     H17415   3.336  10.519   5.835  0.9887 -0.6302 -0.4207
  130MOL0     O17416   5.024   8.165   3.768  0.5458  0.6361  0.0075
  130MOL0     C17417   4.935   8.232   3.821  0.0289 -0.5276  0.6357
  130MOL0     O17418   4.847   8.198   3.926 -0.3740  0.1064  0.6208
  130MOL0     C17419   4.865   8.083   3.998  0.1785  0.3376  0.1146
  130MOL0     C17420   4.749   8.022   4.044  0.5552 -0.5264 -0.5024
  130MOL0     C17421   4.760   7.909   4.123 -0.7218  0.4710  1.1258
  130MOL0     C17422   4.885   7.858   4.156  0.9731  0.5187  0.2865
  130MOL0     O17423   4.900   7.769   4.261 -0.0913  0.6141 -0.8067
  130MOL0     C17424   4.789   7.685   4.300 -0.4002  0.1170 -0.2964
  130MOL0     C17425   4.844   7.556   4.359  0.2739  0.5315  0.4320
  130MOL0     C17426   4.896   7.569   4.507 -0.6384 -0.2833  0.4901
  130MOL0     C17427   5.048   7.584   4.506 -0.1347 -0.0735 -1.0466
  130MOL0     C17428   5.112   7.574   4.650 -0.6202  0.1703 -0.0252
  130MOL0     C17429   5.266   7.586   4.651 -0.0308  0.9206 -0.1176
  130MOL0     C17430   5.325   7.545   4.784  0.3118  0.5643 -0.5275
  130MOL0     C17431   5.266   7.604   4.910  0.2421  0.7569 -0.4831
  130MOL0     N17432   5.317   7.535   5.022 -1.3290 -0.7770  0.7290
  130MOL0     C17433   5.453   7.538   5.054 -0.6508 -0.1887 -0.3737
  130MOL0     C17434   5.463   7.487   5.184  0.0558 -0.0158  0.0557
  130MOL0     C17435   5.585   7.506   5.273  0.0191 -0.0506 -0.4573
  130MOL0     C17436   5.690   7.399   5.227  0.1904  0.1269 -0.3930
  130MOL0     C17437   5.661   7.266   5.297 -1.4843  1.1132 -0.7755
  130MOL0     C17438   5.745   7.262   5.432  0.1305 -0.5009  0.4416
  130MOL0     O17439   5.781   7.131   5.468 -0.7038 -0.3103  0.1298
  130MOL0     C17440   5.867   7.122   5.575  0.3964  0.2736 -0.1966
  130MOL0     C17441   5.929   7.227   5.641 -0.3391 -0.5278  0.3767
  130MOL0     C17442   6.015   7.216   5.746  0.6334  0.3280 -0.1897
  130MOL0     C17443   6.082   7.346   5.790  0.5775 -1.3051 -0.4480
  130MOL0     C17444   6.029   7.080   5.805 -0.3143 -1.3442  0.4852
  130MOL0     C17445   6.106   7.054   5.927 -0.0023  0.3071  0.0389
  130MOL0     O17446   6.139   6.924   5.948 -0.6106  0.8326  0.3332
  130MOL0     C17447   6.229   6.900   6.049  0.1060 -0.1201  0.0371
  130MOL0     C17448   6.364   6.930   6.028  0.2653 -0.6261 -0.0351
  130MOL0     C17449   6.449   6.893   6.131 -0.6852 -1.0207  0.7519
  130MOL0     C17450   6.410   6.836   6.251 -0.0337  0.0256  0.2345
  130MOL0     O17451   6.511   6.778   6.328 -0.2646 -0.0246 -0.0028
  130MOL0     C17452   6.485   6.698   6.443  1.4606 -0.6363  0.4469
  130MOL0     C17453   6.477   6.797   6.564  0.1581 -0.9231 -0.1363
  130MOL0     C17454   6.588   6.901   6.567  0.1072  0.4959  0.0197
  130MOL0     C17455   6.547   7.041   6.520 -0.8041 -0.3420 -0.8275
  130MOL0     C17456   6.668   7.133   6.480  0.5037  0.7318  0.1786
  130MOL0     C17457   6.741   7.091   6.354  0.4352  0.8038  1.5119
  130MOL0     C17458   6.819   7.206   6.285 -0.9779  0.0277 -0.1485
  130MOL0     C17459   6.911   7.288   6.377  0.6410  0.1100  1.2921
  130MOL0    Cl17460   6.982   7.423   6.287 -0.3188  0.3118  0.7737
  130MOL0     C17461   6.277   6.823   6.274  0.5678 -0.3300  0.4414
  130MOL0     C17462   6.182   6.860   6.173 -0.5851 -0.0001 -0.0723
  130MOL0     O17463   6.111   7.145   6.016  0.3199 -0.8406  0.4879
  130MOL0     C17464   5.965   6.974   5.740 -0.3122  0.7821  0.3627
  130MOL0     C17465   5.879   6.993   5.632  1.0849  0.5904 -0.3097
  130MOL0     N17466   5.337   7.438   5.221  1.2120 -0.5693  0.4416
  130MOL0     N17467   5.252   7.477   5.120 -0.4129 -1.1721 -0.8237
  130MOL0     C17468   4.995   7.920   4.108 -0.8784 -0.1238 -0.0755
  130MOL0     C17469   4.989   8.021   4.013  0.2997  0.3910  0.0832
  130MOL0     C17470   4.928   8.370   3.769  0.2523  0.0293  1.2773
  130MOL0     C17471   4.991   8.417   3.649  0.1763  0.2381  0.1854
  130MOL0     C17472   4.980   8.553   3.612  0.1485 -0.9657  0.4001
  130MOL0     C17473   4.902   8.642   3.691  0.1395 -0.2073  0.8891
  130MOL0     O17474   4.898   8.775   3.660  0.6146  0.4495  1.3130
  130MOL0     C17475   4.853   8.806   3.526 -1.1013  0.1578  0.5251
  130MOL0     C17476   4.962   8.852   3.429 -1.2281  0.2996 -0.5225
  130MOL0     C17477   4.912   8.882   3.287 -1.5780 -0.3040  0.4738
  130MOL0     C17478   4.850   8.758   3.220 -0.8331 -0.1195 -0.1498
  130MOL0     C17479   4.780   8.817   3.097 -1.3095  0.9742 -0.0485
  130MOL0     C17480   4.734   8.849   2.986  0.0249  0.3257 -0.0190
  130MOL0     C17481   4.836   8.592   3.801  0.1441 -0.7013 -0.2971
  130MOL0     C17482   4.852   8.461   3.840 -0.1556  0.3039  0.8074
  130MOL0     H17483   4.650   8.063   4.026  0.5396 -0.1034  0.4891
  130MOL0     H17484   4.665   7.866   4.153 -0.8374  0.6117  0.9603
  130MOL0     H17485   4.728   7.735   4.376 -0.8156  4.1789 -3.0148
  130MOL0     H17486   4.719   7.662   4.219  1.1665 -0.4597 -1.5182
  130MOL0     H17487   4.768   7.477   4.356  2.3807 -1.6048  0.7738
  130MOL0     H17488   4.926   7.513   4.300 -1.2235  1.1354 -2.2910
  130MOL0     H17489   4.860   7.658   4.558 -1.5640 -0.9706  1.0528
  130MOL0     H17490   4.871   7.476   4.558 -0.0320 -2.7081 -3.2410
  130MOL0     H17491   5.086   7.500   4.448 -2.2913 -1.9487  0.0829
  130MOL0     H17492   5.069   7.681   4.461  0.0247 -0.0059 -0.8304
  130MOL0     H17493   5.064   7.639   4.724  2.0001  2.0009  0.2527
  130MOL0     H17494   5.095   7.472   4.685  2.6777  0.5103  3.2055
  130MOL0     H17495   5.290   7.513   4.573 -0.7655  1.5500 -0.9609
  130MOL0     H17496   5.303   7.680   4.609 -1.4075 -0.0338 -3.8292
  130MOL0     H17497   5.303   7.438   4.782  0.9429  0.4219 -0.1094
  130MOL0     H17498   5.433   7.562   4.785 -0.0437  3.4667 -1.2582
  130MOL0     H17499   5.158   7.592   4.928 -0.0628  2.6668 -0.8924
  130MOL0     H17500   5.292   7.709   4.917  1.9056  0.3394 -0.0538
  130MOL0     H17501   5.534   7.575   4.993 -0.4124 -0.8763 -0.4738
  130MOL0     H17502   5.631   7.602   5.248 -0.4249  0.0689 -0.8216
  130MOL0     H17503   5.552   7.495   5.377  1.2089 -0.0800 -0.0695
  130MOL0     H17504   5.792   7.434   5.246  0.0219  0.3959  0.0458
  130MOL0     H17505   5.688   7.374   5.121  1.6283 -1.7546 -0.0431
  130MOL0     H17506   5.695   7.182   5.235  0.3791  0.6267  0.7850
  130MOL0     H17507   5.556   7.240   5.314 -1.0273  0.6121  1.7922
  130MOL0     H17508   5.671   7.307   5.499  1.6262  0.4953  1.4836
  130MOL0     H17509   5.838   7.317   5.414  0.1769  0.7491  3.8685
  130MOL0     H17510   5.909   7.327   5.604 -1.2542  0.0492  2.3007
  130MOL0     H17511   6.142   7.385   5.708  0.7984 -0.0194  0.3044
  130MOL0     H17512   6.007   7.423   5.809  0.5775 -0.9692 -1.7100
  130MOL0     H17513   6.149   7.341   5.876 -0.7592 -2.5062  0.5843
  130MOL0     H17514   6.400   6.975   5.936  1.4410 -0.2859  0.5776
  130MOL0     H17515   6.554   6.915   6.121 -1.2880  1.7950 -0.3974
  130MOL0     H17516   6.398   6.632   6.434  0.1030  1.1302  0.0001
  130MOL0     H17517   6.573   6.635   6.449  1.0659 -1.7934 -3.2069
  130MOL0     H17518   6.379   6.844   6.572  1.1222  1.3758 -1.0772
  130MOL0     H17519   6.486   6.727   6.648 -0.7067 -1.5895 -0.5886
  130MOL0     H17520   6.678   6.862   6.520 -0.0263  1.8286 -1.4220
  130MOL0     H17521   6.617   6.922   6.671 -1.5352 -1.0939  0.8619
  130MOL0     H17522   6.483   7.030   6.432 -1.4284  2.8542 -0.8708
  130MOL0     H17523   6.483   7.099   6.586 -2.4859  2.5750 -4.6726
  130MOL0     H17524   6.734   7.125   6.567 -1.5896 -1.8008  1.6669
  130MOL0     H17525   6.628   7.235   6.470 -2.2800 -0.3671 -0.5975
  130MOL0     H17526   6.803   7.002   6.368  0.6878  0.8804  0.9117
  130MOL0     H17527   6.669   7.059   6.278  1.2250 -2.3462  1.9398
  130MOL0     H17528   6.744   7.271   6.239 -0.8917  0.5752  0.4817
  130MOL0     H17529   6.876   7.169   6.200 -1.5369 -0.4825 -0.3121
  130MOL0     H17530   6.987   7.217   6.410 -0.3341 -2.4055 -1.4733
  130MOL0     H17531   6.840   7.317   6.455 -1.7989 -3.0106  0.4620
  130MOL0     H17532   6.250   6.803   6.377 -0.6134 -2.1073 -0.1634
  130MOL0     H17533   6.077   6.860   6.203 -1.1459 -4.2676 -1.4595
  130MOL0     H17534   5.974   6.874   5.780  0.2673  1.5801  2.3670
  130MOL0     H17535   5.839   6.905   5.582  4.6774 -1.3633 -0.0485
  130MOL0     H17536   5.094   7.883   4.132 -1.9487 -0.8813  3.8236
  130MOL0     H17537   5.077   8.060   3.963 -0.8680  3.0145 -0.0468
  130MOL0     H17538   5.056   8.357   3.588 -2.2838 -2.7736  0.2944
  130MOL0     H17539   5.035   8.592   3.527  0.0891  1.1899  1.2797
  130MOL0     H17540   4.793   8.730   3.476  0.0248  0.7125 -1.7868
  130MOL0     H17541   4.782   8.887   3.541 -0.5528  0.3732  2.1488
  130MOL0     H17542   5.041   8.778   3.425  0.7877  2.2126  1.3491
  130MOL0     H17543   5.014   8.937   3.474  0.3352  0.1169 -1.8838
  130MOL0     H17544   5.004   8.909   3.234 -1.1854  2.9268  2.5122
  130MOL0     H17545   4.854   8.975   3.286 -0.7951  0.1859 -0.5178
  130MOL0     H17546   4.775   8.707   3.282 -1.6875 -0.6803 -1.5834
  130MOL0     H17547   4.920   8.680   3.187 -1.7301 -0.4601 -1.3258
  130MOL0     H17548   4.670   8.861   2.901 -0.3220 -1.6970 -0.1077
  130MOL0     H17549   4.762   8.653   3.851  0.8986 -0.7494  0.8994
  130MOL0     H17550   4.808   8.429   3.934 -1.5503 -1.7610 -0.4485
  131MOL0     O17551   7.669   1.166   7.386  0.5855  0.1517 -0.4559
  131MOL0     C17552   7.651   1.078   7.460 -0.7298  0.4327 -0.1352
  131MOL0     O17553   7.666   0.946   7.437 -0.1147 -0.1423 -0.6506
  131MOL0     C17554   7.693   0.892   7.313  0.4165  0.3753 -0.6442
  131MOL0     C17555   7.767   0.954   7.207  0.0185 -0.4544 -0.4383
  131MOL0     C17556   7.777   0.895   7.082  0.5722  0.3991  0.5239
  131MOL0     C17557   7.732   0.763   7.063 -0.9029  0.0378 -0.8259
  131MOL0     O17558   7.735   0.708   6.940  0.5031  0.5375  0.1658
  131MOL0     C17559   7.603   0.705   6.877 -0.2245  0.2888 -0.8396
  131MOL0     C17560   7.520   0.833   6.890  0.0248 -0.2091 -0.0567
  131MOL0     C17561   7.371   0.819   6.840 -0.2661 -0.6225  0.1629
  131MOL0     C17562   7.299   0.746   6.954 -0.6609  1.0247  0.0011
  131MOL0     C17563   7.181   0.654   6.896  0.7439  0.0896  0.0807
  131MOL0     C17564   7.100   0.595   7.007 -0.6929 -0.0163 -0.8001
  131MOL0     C17565   6.967   0.537   6.949 -0.4177 -0.2143 -0.3235
  131MOL0     C17566   6.893   0.460   7.066 -0.1863 -0.5823 -0.2507
  131MOL0     N17567   6.814   0.365   6.992 -0.0290  0.2221 -0.7229
  131MOL0     C17568   6.863   0.246   6.960  0.6544 -0.6148 -0.0745
  131MOL0     C17569   6.760   0.184   6.894  0.4394 -0.6496 -0.1281
  131MOL0     C17570   6.766   0.045   6.831 -0.1450  0.4709 -1.0155
  131MOL0     C17571   6.836  -0.058   6.930 -0.8139 -0.7877  0.4340
  131MOL0     C17572   6.763  -0.093   7.057  0.0313  0.2065 -0.7004
  131MOL0     C17573   6.837  -0.199   7.137 -0.9987 -0.3056  0.3122
  131MOL0     O17574   6.984  -0.181   7.142  0.7328  0.6422 -0.4813
  131MOL0     C17575   7.038  -0.067   7.194 -0.1305 -1.5056 -1.2359
  131MOL0     C17576   6.971   0.038   7.263 -0.2183  0.5112 -0.3154
  131MOL0     C17577   7.041   0.138   7.340  0.1720 -0.7109  0.4240
  131MOL0     C17578   6.947   0.238   7.414 -0.2087  0.6315  0.2498
  131MOL0     C17579   7.184   0.147   7.333  0.7962 -0.1076 -0.3975
  131MOL0     C17580   7.255   0.244   7.419 -0.5580  0.3070  0.5742
  131MOL0     O17581   7.217   0.371   7.402 -0.5950  0.3433 -0.3511
  131MOL0     C17582   7.260   0.464   7.493  0.4396 -0.6140  1.1704
  131MOL0     C17583   7.377   0.539   7.484  0.1553 -0.8537 -0.6501
  131MOL0     C17584   7.418   0.633   7.585 -0.2751  0.2319  0.7204
  131MOL0     C17585   7.339   0.651   7.694  0.0340  1.0153  0.1113
  131MOL0     O17586   7.380   0.734   7.794  0.2377  0.1378  0.5155
  131MOL0     C17587   7.351   0.701   7.933  0.6327 -0.1353  0.2418
  131MOL0     C17588   7.228   0.776   7.984  0.6054 -0.1141  0.9037
  131MOL0     C17589   7.225   0.793   8.136  0.9871 -0.3246  0.4341
  131MOL0     C17590   7.096   0.849   8.182  0.7927 -0.2875 -0.3032
  131MOL0     C17591   7.107   0.880   8.337  0.3116 -0.8947  0.0474
  131MOL0     C17592   6.972   0.941   8.382 -0.2315  0.2152  0.4369
  131MOL0     C17593   6.973   0.995   8.526  0.5370  0.2681 -0.1291
  131MOL0     C17594   6.826   1.014   8.564 -0.2387  0.0885 -0.1212
  131MOL0    Cl17595   6.833   1.017   8.741 -0.6313 -0.1722 -0.2111
  131MOL0     C17596   7.216   0.577   7.705  0.2569 -0.2970 -0.6222
  131MOL0     C17597   7.180   0.479   7.607  0.2713  0.6792  0.0821
  131MOL0     O17598   7.367   0.205   7.459 -0.4187  0.0510 -0.1353
  131MOL0     C17599   7.246   0.048   7.254  0.1470 -0.8699  0.5438
  131MOL0     C17600   7.174  -0.052   7.194  0.3738  0.2100  0.0129
  131MOL0     N17601   6.648   0.268   6.892  0.8145  0.5318  0.2449
  131MOL0     N17602   6.688   0.377   6.945  0.1228 -0.8367 -0.0098
  131MOL0     C17603   7.670   0.702   7.172  0.9336 -0.6923  0.6768
  131MOL0     C17604   7.643   0.762   7.293 -0.1806 -1.1801  0.7450
  131MOL0     C17605   7.630   1.125   7.602 -0.5583  0.3898 -0.5449
  131MOL0     C17606   7.668   1.251   7.647  0.4792 -0.3975  0.6820
  131MOL0     C17607   7.624   1.298   7.771 -0.7735  0.1971 -1.0676
  131MOL0     C17608   7.544   1.220   7.853  0.2394  0.3579 -0.1325
  131MOL0     O17609   7.506   1.261   7.979  0.9467 -0.2966 -0.4378
  131MOL0     C17610   7.429   1.168   8.060  0.1332  0.6282  0.1757
  131MOL0     C17611   7.393   1.251   8.189  0.0400  0.6831  1.3888
  131MOL0     C17612   7.519   1.286   8.272  0.5388 -0.3686  0.1742
  131MOL0     C17613   7.599   1.178   8.337  0.8992 -0.0035 -0.0838
  131MOL0     C17614   7.499   1.115   8.432  0.4758 -0.1304 -0.4230
  131MOL0     C17615   7.413   1.064   8.506  0.1935  0.9503  0.1200
  131MOL0     C17616   7.514   1.086   7.806 -0.3130  1.0274 -0.3041
  131MOL0     C17617   7.554   1.044   7.684 -0.5200 -0.5436 -0.0701
  131MOL0     H17618   7.823   1.046   7.224 -0.1505 -0.2671 -0.8889
  131MOL0     H17619   7.837   0.947   7.007  3.3913 -2.2946  0.6952
  131MOL0     H17620   7.609   0.683   6.770  1.9463  0.5326 -0.7992
  131MOL0     H17621   7.546   0.619   6.915 -0.9731  1.7111  1.4304
  131MOL0     H17622   7.501   0.869   6.991 -0.9223 -1.9903  0.4393
  131MOL0     H17623   7.574   0.913   6.838  3.8064 -3.1793 -1.1169
  131MOL0     H17624   7.331   0.920   6.822 -0.3476 -0.4760  1.1100
  131MOL0     H17625   7.377   0.763   6.747  1.1957  1.5752 -1.1485
  131MOL0     H17626   7.366   0.680   7.011 -1.6546  0.9402  1.1025
  131MOL0     H17627   7.249   0.820   7.016  0.1966  0.3672  1.5367
  131MOL0     H17628   7.116   0.696   6.819  1.1108 -3.7080 -2.5887
  131MOL0     H17629   7.236   0.576   6.843 -0.7173 -0.2520 -0.9971
  131MOL0     H17630   7.154   0.534   7.080 -1.9985  2.1020  2.1448
  131MOL0     H17631   7.076   0.677   7.075 -0.2206 -2.8770  3.2058
  131MOL0     H17632   6.898   0.619   6.926 -2.0619 -1.5103 -0.1254
  131MOL0     H17633   6.986   0.479   6.859  1.2353  0.9060 -0.7571
  131MOL0     H17634   6.823   0.526   7.119 -3.2950 -1.5998 -2.7828
  131MOL0     H17635   6.967   0.409   7.128 -0.2665 -3.8156 -2.5511
  131MOL0     H17636   6.963   0.210   6.979  0.8363 -0.0576  0.0164
  131MOL0     H17637   6.665   0.016   6.801 -1.0834 -0.8837  2.8319
  131MOL0     H17638   6.824   0.058   6.739 -1.0423 -2.4651 -2.0880
  131MOL0     H17639   6.935  -0.016   6.953  0.4104 -3.0321 -0.5247
  131MOL0     H17640   6.867  -0.150   6.882  5.3923  1.1384 -0.1260
  131MOL0     H17641   6.670  -0.145   7.032 -0.0818  0.0174  0.0903
  131MOL0     H17642   6.747  -0.008   7.123 -1.8898  2.0670 -3.3344
  131MOL0     H17643   6.806  -0.296   7.099 -2.6727  0.6697 -0.9229
  131MOL0     H17644   6.807  -0.205   7.242  2.2083 -2.8387  1.2744
  131MOL0     H17645   6.865   0.032   7.281  0.2360  1.5277  3.8921
  131MOL0     H17646   6.846   0.196   7.408 -0.8471  2.1397 -4.9377
  131MOL0     H17647   6.983   0.256   7.515  1.4447  4.4568 -0.8560
  131MOL0     H17648   6.958   0.337   7.369 -0.5206  1.5654  2.1590
  131MOL0     H17649   7.428   0.526   7.390  0.2308 -4.1718 -0.2626
  131MOL0     H17650   7.501   0.700   7.566  0.2824 -0.9119 -1.0505
  131MOL0     H17651   7.342   0.593   7.949  1.6794 -0.2113  0.3851
  131MOL0     H17652   7.439   0.741   7.984  1.1337 -1.4362  0.4330
  131MOL0     H17653   7.240   0.878   7.945 -0.6495 -0.1884  0.2588
  131MOL0     H17654   7.139   0.727   7.943  0.0893  0.4033  1.3871
  131MOL0     H17655   7.309   0.855   8.168  0.6460 -0.9967  2.8670
  131MOL0     H17656   7.242   0.691   8.172 -0.9123 -0.5252  0.8683
  131MOL0     H17657   7.075   0.943   8.130  4.1855  1.3455  1.0333
  131MOL0     H17658   7.022   0.775   8.151  0.7540  0.2009 -1.4360
  131MOL0     H17659   7.189   0.946   8.363 -1.8654  1.6151  0.9934
  131MOL0     H17660   7.125   0.784   8.386  1.1935 -1.6229 -1.6047
  131MOL0     H17661   6.949   1.021   8.311 -1.5958 -1.6759 -1.3432
  131MOL0     H17662   6.897   0.863   8.372 -1.0339  1.1218 -1.0107
  131MOL0     H17663   7.029   1.087   8.511  5.2038 -2.3128 -0.1875
  131MOL0     H17664   7.030   0.935   8.597 -1.1541 -0.4661  0.6697
  131MOL0     H17665   6.768   0.926   8.532 -0.1210  0.2112 -0.6844
  131MOL0     H17666   6.771   1.095   8.516 -2.5971 -1.7058 -0.6630
  131MOL0     H17667   7.150   0.581   7.791 -1.9131  0.6263 -2.2336
  131MOL0     H17668   7.095   0.415   7.625  0.7066  0.4670  1.5745
  131MOL0     H17669   7.354   0.056   7.247  0.1206  1.5012  1.8861
  131MOL0     H17670   7.239  -0.131   7.156  1.8156  1.7450 -0.8038
  131MOL0     H17671   7.619   0.606   7.160  0.0036 -0.1725  0.3767
  131MOL0     H17672   7.581   0.720   7.371 -4.3715  1.8285 -0.6212
  131MOL0     H17673   7.732   1.326   7.602  0.1205  1.0609  2.4797
  131MOL0     H17674   7.646   1.404   7.781 -0.8266 -0.0274  2.5455
  131MOL0     H17675   7.335   1.162   8.005 -1.0269  1.9678  1.8892
  131MOL0     H17676   7.480   1.076   8.089 -0.8004  0.7680  2.5261
  131MOL0     H17677   7.316   1.192   8.240 -1.8599  0.8060 -1.1321
  131MOL0     H17678   7.349   1.346   8.158  1.2630  1.5354  2.2090
  131MOL0     H17679   7.481   1.345   8.356  1.2036 -0.2631  0.4066
  131MOL0     H17680   7.585   1.354   8.216  0.5837 -0.4028  0.1854
  131MOL0     H17681   7.686   1.211   8.394  1.6391 -2.0241  0.0426
  131MOL0     H17682   7.642   1.119   8.256  1.8076  3.4384 -2.3276
  131MOL0     H17683   7.334   1.034   8.573  0.7104  1.9693  1.2223
  131MOL0     H17684   7.446   1.019   7.856 -1.5999 -0.4227 -3.6509
  131MOL0     H17685   7.519   0.946   7.651 -0.3470 -0.8867  0.7357
  132MOL0     O17686   7.432   8.779   7.513 -0.6514  0.0734  0.4407
  132MOL0     C17687   7.329   8.718   7.515  0.7007 -0.3414 -0.1613
  132MOL0     O17688   7.228   8.745   7.421  0.4338 -0.6809  0.0722
  132MOL0     C17689   7.248   8.797   7.300  0.0522  0.4591 -0.3777
  132MOL0     C17690   7.138   8.853   7.241  0.3991  0.3967  0.2597
  132MOL0     C17691   7.139   8.888   7.108 -0.6188  0.3559  0.5437
  132MOL0     C17692   7.250   8.866   7.024  1.3136  0.3745 -0.9119
  132MOL0     O17693   7.247   8.904   6.896  0.3207 -0.2085  0.4713
  132MOL0     C17694   7.262   9.051   6.882  0.8202  0.3371  0.3982
  132MOL0     C17695   7.373   9.088   6.786  0.0707 -0.5984  0.0509
  132MOL0     C17696   7.503   9.017   6.822 -0.6358  0.3920  0.6754
  132MOL0     C17697   7.635   9.088   6.786 -0.8759 -0.4082 -0.3164
  132MOL0     C17698   7.763   9.007   6.833 -0.2557 -0.0428  0.3305
  132MOL0     C17699   7.769   8.861   6.784 -0.6762 -1.0260  0.6360
  132MOL0     C17700   7.899   8.800   6.823  0.6102  1.0631  0.4529
  132MOL0     C17701   7.916   8.654   6.778 -0.4354 -0.4487 -0.0155
  132MOL0     N17702   8.040   8.591   6.817  0.7479  0.3063 -0.5678
  132MOL0     C17703   8.130   8.633   6.917 -1.0173 -0.4962  0.1233
  132MOL0     C17704   8.246   8.575   6.887  0.8519  0.3141  0.2254
  132MOL0     C17705   8.381   8.576   6.949  0.1139  0.6382 -0.8218
  132MOL0     C17706   8.360   8.542   7.104 -0.1428 -0.0627  0.2592
  132MOL0     C17707   8.481   8.510   7.194  0.7375 -0.0791  0.5004
  132MOL0     C17708   8.453   8.494   7.340 -0.6663 -0.4287  0.0902
  132MOL0     O17709   8.576   8.443   7.405  0.3641 -0.1440  0.3118
  132MOL0     C17710   8.545   8.388   7.525 -0.3295  0.1320  0.7840
  132MOL0     C17711   8.521   8.460   7.638 -0.1665  0.3678  0.7768
  132MOL0     C17712   8.492   8.406   7.763 -0.3950 -0.3663  0.3922
  132MOL0     C17713   8.435   8.497   7.865  0.0485 -0.7448  0.4883
  132MOL0     C17714   8.511   8.267   7.785 -0.2508  1.0824  0.5875
  132MOL0     C17715   8.475   8.191   7.903 -0.0387 -0.4473 -0.0391
  132MOL0     O17716   8.458   8.054   7.898 -0.0803  0.2506  0.7578
  132MOL0     C17717   8.489   7.968   8.013 -0.1938 -0.0655 -0.3697
  132MOL0     C17718   8.567   7.847   8.001 -0.2274  0.4830  0.0515
  132MOL0     C17719   8.594   7.764   8.113 -0.8337  0.1535  0.3676
  132MOL0     C17720   8.549   7.798   8.239  0.8676  0.4751 -0.2812
  132MOL0     O17721   8.584   7.718   8.345 -0.1158 -0.4277  0.6863
  132MOL0     C17722   8.505   7.603   8.361  0.0770 -0.9798 -0.2234
  132MOL0     C17723   8.599   7.485   8.391  0.3593 -0.9709  0.0259
  132MOL0     C17724   8.537   7.346   8.405  0.5844 -1.0607  0.3662
  132MOL0     C17725   8.465   7.323   8.549 -0.0190 -0.3349 -0.1305
  132MOL0     C17726   8.347   7.223   8.526  0.3859  0.0857 -0.6334
  132MOL0     C17727   8.276   7.193   8.660 -0.6729 -0.6296 -0.4178
  132MOL0     C17728   8.149   7.119   8.637  0.0651  0.1794 -0.3091
  132MOL0     C17729   8.096   7.072   8.771 -0.1487 -0.2190  0.3730
  132MOL0    Cl17730   8.190   6.946   8.842  0.2127  0.0861  0.1452
  132MOL0     C17731   8.469   7.902   8.256  1.6598  0.7900  0.4628
  132MOL0     C17732   8.441   7.994   8.148  0.3762 -0.2510  0.5667
  132MOL0     O17733   8.467   8.267   8.000 -0.1923 -0.3268 -0.0644
  132MOL0     C17734   8.551   8.193   7.668 -0.1012  0.8885  0.4595
  132MOL0     C17735   8.564   8.249   7.541  0.3123  1.0058 -0.1794
  132MOL0     N17736   8.229   8.507   6.772 -0.7364  0.0746  0.0502
  132MOL0     N17737   8.106   8.502   6.744  0.5210  0.2038 -0.4783
  132MOL0     C17738   7.368   8.822   7.086  0.3032  0.2175 -0.2732
  132MOL0     C17739   7.361   8.777   7.217 -0.0579 -0.3242  0.0239
  132MOL0     C17740   7.319   8.594   7.592 -0.2974 -1.2314 -0.2938
  132MOL0     C17741   7.366   8.589   7.723  0.6597  0.5353  0.6085
  132MOL0     C17742   7.351   8.455   7.781 -0.3867  0.9061 -0.7340
  132MOL0     C17743   7.307   8.344   7.706  0.1958  0.2790 -1.2952
  132MOL0     O17744   7.291   8.230   7.783  0.4450  0.6661  0.2221
  132MOL0     C17745   7.273   8.104   7.710  0.3844  1.3022  0.2068
  132MOL0     C17746   7.243   7.977   7.810  0.3730 -0.1493 -0.7239
  132MOL0     C17747   7.094   7.973   7.855 -0.6893  0.2828  0.6285
  132MOL0     C17748   7.076   7.918   7.996 -0.5800  0.7578 -0.5394
  132MOL0     C17749   7.120   7.778   8.012  0.3320  0.7105 -1.0513
  132MOL0     C17750   7.158   7.664   8.035  0.0135  0.1099 -0.3836
  132MOL0     C17751   7.269   8.362   7.570  1.3926 -0.6329 -0.3189
  132MOL0     C17752   7.277   8.489   7.515 -0.9929 -0.5330  0.0944
  132MOL0     H17753   7.046   8.854   7.298 -0.5495  1.9155 -1.1646
  132MOL0     H17754   7.054   8.939   7.063 -1.0943 -1.8007 -1.1614
  132MOL0     H17755   7.172   9.095   6.838  2.3703  2.7427 -0.5256
  132MOL0     H17756   7.271   9.098   6.980  2.8887 -1.9148  1.3748
  132MOL0     H17757   7.339   9.062   6.685  2.0312  1.5367 -1.2710
  132MOL0     H17758   7.389   9.196   6.782  1.0713 -0.7611 -1.7824
  132MOL0     H17759   7.511   8.994   6.929  2.2825 -3.1811 -0.1119
  132MOL0     H17760   7.507   8.917   6.778 -0.2024  0.7854 -0.2005
  132MOL0     H17761   7.648   9.106   6.679  2.1249 -1.0114 -0.1386
  132MOL0     H17762   7.636   9.183   6.841 -0.1168 -1.2046  1.1027
  132MOL0     H17763   7.854   9.063   6.812 -0.0337  0.5130  2.5949
  132MOL0     H17764   7.757   9.010   6.942  1.5737  3.1981  0.4619
  132MOL0     H17765   7.689   8.789   6.803 -0.0470 -1.8962  0.0869
  132MOL0     H17766   7.768   8.865   6.674 -4.9994 -1.3629  0.5006
  132MOL0     H17767   7.984   8.855   6.781  0.3354 -0.5073 -2.3546
  132MOL0     H17768   7.904   8.794   6.932 -2.3622 -1.8874  0.5787
  132MOL0     H17769   7.895   8.645   6.671 -0.9890  0.9227 -0.0487
  132MOL0     H17770   7.844   8.589   6.827 -1.1108  0.4685  0.2386
  132MOL0     H17771   8.125   8.696   7.005  4.0661 -2.5083  2.2142
  132MOL0     H17772   8.448   8.504   6.899 -0.4632  0.6640 -1.6413
  132MOL0     H17773   8.438   8.669   6.944  2.1484 -0.5522 -1.1046
  132MOL0     H17774   8.284   8.463   7.112 -0.3468 -0.0558 -1.2746
  132MOL0     H17775   8.315   8.634   7.142 -1.4600 -0.2341 -0.8037
  132MOL0     H17776   8.557   8.589   7.179  1.3425 -1.1379 -2.9174
  132MOL0     H17777   8.529   8.417   7.163  1.4091 -0.4839  2.5472
  132MOL0     H17778   8.363   8.431   7.334 -0.2051 -0.9679 -2.8022
  132MOL0     H17779   8.430   8.595   7.373 -1.8359  0.5442 -3.2785
  132MOL0     H17780   8.504   8.567   7.629 -1.7310  0.1679  1.0851
  132MOL0     H17781   8.351   8.450   7.916 -0.1805 -0.2809  0.5325
  132MOL0     H17782   8.504   8.529   7.944  3.0724 -0.9538 -1.8459
  132MOL0     H17783   8.388   8.586   7.823 -1.5323 -1.8319 -0.1319
  132MOL0     H17784   8.616   7.819   7.909 -0.5706 -1.2418  0.3592
  132MOL0     H17785   8.659   7.679   8.094 -0.5517 -0.3406  3.1991
  132MOL0     H17786   8.440   7.610   8.449  1.7989 -2.6892  1.2729
  132MOL0     H17787   8.446   7.585   8.271 -2.0039  0.6205  0.7340
  132MOL0     H17788   8.667   7.469   8.306  1.1851 -3.4764  1.0634
  132MOL0     H17789   8.649   7.505   8.486  0.3999 -1.4332  0.1039
  132MOL0     H17790   8.615   7.270   8.398  0.3160 -1.3434  0.3894
  132MOL0     H17791   8.472   7.327   8.319  0.4459 -0.2604  0.2911
  132MOL0     H17792   8.539   7.289   8.623 -0.3682  3.2203  2.1117
  132MOL0     H17793   8.429   7.417   8.592  0.5037  0.1369 -0.7129
  132MOL0     H17794   8.373   7.127   8.481  0.8372 -0.4373  0.6862
  132MOL0     H17795   8.269   7.276   8.470  0.2493 -1.6683 -2.2196
  132MOL0     H17796   8.346   7.131   8.716 -1.2989  0.6053  1.8497
  132MOL0     H17797   8.271   7.289   8.713  1.5507 -0.7665  0.1498
  132MOL0     H17798   8.161   7.031   8.573 -1.2287 -0.7512  0.6872
  132MOL0     H17799   8.079   7.198   8.609 -2.7612 -0.3593  4.2776
  132MOL0     H17800   7.994   7.043   8.744 -0.2227  1.8168 -1.8962
  132MOL0     H17801   8.078   7.158   8.836 -1.7245 -1.1699  1.2562
  132MOL0     H17802   8.436   7.935   8.353 -2.1068 -0.7730 -0.1154
  132MOL0     H17803   8.374   8.079   8.162 -1.3906 -1.4884 -0.1180
  132MOL0     H17804   8.560   8.086   7.680 -1.9430  0.7086  0.4886
  132MOL0     H17805   8.579   8.179   7.459 -2.5476 -0.9072  0.7746
  132MOL0     H17806   7.449   8.791   7.022  1.8171 -1.8258  2.4061
  132MOL0     H17807   7.455   8.732   7.248  1.9194  2.3742 -1.6310
  132MOL0     H17808   7.403   8.676   7.775 -0.8178  0.9798  0.9612
  132MOL0     H17809   7.395   8.425   7.876  1.2005 -0.6292 -1.9000
  132MOL0     H17810   7.186   8.129   7.648  0.9891 -0.5701 -1.4656
  132MOL0     H17811   7.351   8.082   7.638  1.6107  4.6454  0.3255
  132MOL0     H17812   7.310   7.984   7.897  0.1091 -0.4096 -0.4963
  132MOL0     H17813   7.258   7.885   7.753 -2.6241  0.0912 -2.0487
  132MOL0     H17814   7.029   7.915   7.788  2.5842 -1.8635 -0.9211
  132MOL0     H17815   7.063   8.076   7.839  1.3909  0.6776 -1.2885
  132MOL0     H17816   6.970   7.920   8.025  0.2557  0.5511  3.0029
  132MOL0     H17817   7.133   7.972   8.073  1.3700 -2.1054  0.1732
  132MOL0     H17818   7.173   7.561   8.057 -0.7606  0.6879  3.6298
  132MOL0     H17819   7.236   8.282   7.504  2.2082 -1.8493  0.7007
  132MOL0     H17820   7.234   8.502   7.417 -1.1888 -1.0269  0.1076
  133MOL0     O17821   8.022   0.399   1.046 -0.5084 -0.3496 -0.1770
  133MOL0     C17822   8.005   0.466   1.146 -0.7716 -0.8192  0.0697
  133MOL0     O17823   7.920   0.437   1.254  0.1013 -0.0660 -0.6998
  133MOL0     C17824   7.859   0.311   1.253 -0.4845 -0.1204 -0.2012
  133MOL0     C17825   7.727   0.299   1.283 -0.6214 -0.3660 -1.3626
  133MOL0     C17826   7.657   0.182   1.288  0.0392  0.2708  0.6011
  133MOL0     C17827   7.737   0.058   1.274 -0.3125 -0.9238 -0.1682
  133MOL0     O17828   7.671  -0.062   1.293  0.2037  0.0614  0.0904
  133MOL0     C17829   7.531  -0.074   1.323  0.0399  0.7512  0.2155
  133MOL0     C17830   7.440  -0.072   1.194  0.0696  0.2645  0.1424
  133MOL0     C17831   7.425  -0.220   1.134 -0.1227  0.4441  0.2676
  133MOL0     C17832   7.482  -0.230   0.990  0.2554 -0.0661  0.3629
  133MOL0     C17833   7.423  -0.347   0.916  0.0253  0.5521  0.7313
  133MOL0     C17834   7.515  -0.462   0.925  0.4012 -0.0800 -0.0840
  133MOL0     C17835   7.452  -0.587   0.866  0.9746 -0.2579  0.6025
  133MOL0     C17836   7.482  -0.588   0.716 -0.1488  0.1731 -0.2049
  133MOL0     N17837   7.436  -0.714   0.661  0.6175  0.8537  0.0190
  133MOL0     C17838   7.511  -0.826   0.647 -0.3564  0.6392  0.1093
  133MOL0     C17839   7.421  -0.920   0.598 -0.0458 -0.6728  0.4804
  133MOL0     C17840   7.463  -1.061   0.551  0.6553  0.8694  0.7791
  133MOL0     C17841   7.553  -1.049   0.418 -0.5246 -0.7926 -0.5753
  133MOL0     C17842   7.485  -1.024   0.284  0.7527  0.3963  0.5048
  133MOL0     C17843   7.482  -0.881   0.239  0.6168  0.1154  0.1071
  133MOL0     O17844   7.617  -0.849   0.192 -0.0993 -0.3113  0.0185
  133MOL0     C17845   7.640  -0.718   0.151  0.3908 -0.5169  0.3457
  133MOL0     C17846   7.540  -0.623   0.125  1.4176 -0.4943 -0.0164
  133MOL0     C17847   7.578  -0.492   0.091  0.0993  0.8716  0.5219
  133MOL0     C17848   7.478  -0.395   0.057  0.0744  0.3312 -0.6268
  133MOL0     C17849   7.719  -0.458   0.065 -0.0102 -0.3006 -0.6884
  133MOL0     C17850   7.759  -0.318   0.031 -0.7632 -0.5200  0.4540
  133MOL0     O17851   7.718  -0.206   0.108  0.5207  0.2605 -0.6031
  133MOL0     C17852   7.764  -0.082   0.069  0.8968 -0.3827  0.6497
  133MOL0     C17853   7.902  -0.050   0.068  0.4127 -0.0512  0.2455
  133MOL0     C17854   7.948   0.076   0.012  0.5969 -0.0899 -0.6578
  133MOL0     C17855   7.852   0.167  -0.029  0.1869  0.4346 -0.7111
  133MOL0     O17856   7.909   0.282  -0.072 -0.0561 -0.5322 -0.2700
  133MOL0     C17857   7.825   0.394  -0.110 -0.0219  0.0524 -0.9587
  133MOL0     C17858   7.922   0.501  -0.126 -0.2523  1.2412 -0.1844
  133MOL0     C17859   7.866   0.623  -0.200  0.8878  0.1998  0.9888
  133MOL0     C17860   7.965   0.739  -0.194  1.3323  0.6498 -0.5040
  133MOL0     C17861   7.914   0.862  -0.259 -0.7817  1.0097  0.2610
  133MOL0     C17862   8.019   0.981  -0.254 -0.0107 -0.1857  0.1904
  133MOL0     C17863   7.976   1.111  -0.332 -0.3814  0.8349  0.4079
  133MOL0     C17864   8.088   1.216  -0.320 -0.1607  0.6832 -0.5467
  133MOL0    Cl17865   8.093   1.273  -0.157 -0.5461 -0.2426 -0.2724
  133MOL0     C17866   7.714   0.140  -0.009  0.8314 -0.3652  0.8573
  133MOL0     C17867   7.670   0.018   0.031 -0.2356 -0.9257 -1.4241
  133MOL0     O17868   7.846  -0.318  -0.055  1.0906 -0.1281  0.5947
  133MOL0     C17869   7.813  -0.566   0.086 -0.6967 -0.3421  0.9145
  133MOL0     C17870   7.780  -0.689   0.125  1.0423 -0.8331  0.6261
  133MOL0     N17871   7.302  -0.860   0.571  0.6611 -0.4404  0.2781
  133MOL0     N17872   7.314  -0.738   0.602 -0.6114  0.2290 -1.1187
  133MOL0     C17873   7.872   0.066   1.255  0.3290  0.6959  0.0516
  133MOL0     C17874   7.931   0.192   1.249 -0.0401 -0.1949  0.3721
  133MOL0     C17875   8.079   0.584   1.147 -0.1072 -0.3994  1.4148
  133MOL0     C17876   8.189   0.599   1.234  0.7381 -0.6256 -0.6461
  133MOL0     C17877   8.257   0.721   1.234  0.0671 -0.0418 -0.2579
  133MOL0     C17878   8.222   0.831   1.164 -0.3432 -1.0313  0.7356
  133MOL0     O17879   8.303   0.942   1.185  0.1436 -0.3038  0.7464
  133MOL0     C17880   8.306   1.052   1.088  0.5471 -0.0344  0.0823
  133MOL0     C17881   8.182   1.148   1.103 -0.3275  0.0565 -0.2189
  133MOL0     C17882   8.161   1.192   1.247 -0.3885  0.3726 -0.2554
  133MOL0     C17883   8.279   1.280   1.301  0.0084  0.2992 -0.0643
  133MOL0     C17884   8.274   1.412   1.246  0.2508 -0.0353 -0.6369
  133MOL0     C17885   8.247   1.520   1.196 -0.6141 -0.5173  0.1869
  133MOL0     C17886   8.115   0.813   1.074  0.9034 -0.8359  0.1596
  133MOL0     C17887   8.040   0.698   1.066  0.7261  0.4408  0.0539
  133MOL0     H17888   7.676   0.393   1.303  0.7679  0.4375 -1.4293
  133MOL0     H17889   7.554   0.180   1.322  0.4010  0.3223  1.7267
  133MOL0     H17890   7.518  -0.174   1.365 -0.5093 -0.5681 -2.8076
  133MOL0     H17891   7.494   0.004   1.390 -0.1182  1.3361 -0.5461
  133MOL0     H17892   7.349  -0.029   1.237  2.9838  3.0808  4.3099
  133MOL0     H17893   7.488  -0.013   1.116 -0.7418  0.6719 -0.0614
  133MOL0     H17894   7.484  -0.291   1.192  2.0511  1.0553 -1.0697
  133MOL0     H17895   7.322  -0.257   1.139  0.3066 -0.6211  2.8043
  133MOL0     H17896   7.459  -0.135   0.940  1.6338  0.5631  0.8909
  133MOL0     H17897   7.591  -0.236   0.994  0.2857 -1.9679 -1.4528
  133MOL0     H17898   7.327  -0.372   0.963 -1.2461  2.4291 -0.6759
  133MOL0     H17899   7.404  -0.320   0.811 -0.8182 -2.2631  0.0722
  133MOL0     H17900   7.610  -0.451   0.873 -1.0047  0.6962 -2.6155
  133MOL0     H17901   7.551  -0.476   1.028 -0.4011 -2.2294 -0.0471
  133MOL0     H17902   7.510  -0.664   0.919  0.0475  0.0664  2.1429
  133MOL0     H17903   7.347  -0.596   0.896  1.3932 -1.2503  1.8887
  133MOL0     H17904   7.589  -0.571   0.708  0.4992 -1.2236  3.3370
  133MOL0     H17905   7.432  -0.501   0.674 -0.1963  0.0847 -0.3321
  133MOL0     H17906   7.614  -0.849   0.672 -0.3246  1.8165  1.1561
  133MOL0     H17907   7.524  -1.112   0.626  1.2829  0.1671 -0.1792
  133MOL0     H17908   7.378  -1.127   0.530  1.3119 -0.6667  2.6628
  133MOL0     H17909   7.595  -1.150   0.414  0.2136 -0.4389 -3.2391
  133MOL0     H17910   7.631  -0.976   0.439 -3.2333  2.0201  0.4345
  133MOL0     H17911   7.385  -1.069   0.287  0.4752  0.5732 -2.7862
  133MOL0     H17912   7.534  -1.077   0.202 -0.5770  2.4654 -1.7592
  133MOL0     H17913   7.444  -0.807   0.311 -1.0194  0.0607 -0.6582
  133MOL0     H17914   7.418  -0.874   0.151  0.7098  0.6285  0.0778
  133MOL0     H17915   7.439  -0.656   0.148  0.9395 -0.2702 -1.6234
  133MOL0     H17916   7.499  -0.331  -0.030 -1.1453  3.0848  0.9574
  133MOL0     H17917   7.377  -0.431   0.040 -1.6039  4.8176 -1.5498
  133MOL0     H17918   7.470  -0.327   0.143  0.3838  0.1293 -0.4364
  133MOL0     H17919   7.976  -0.123   0.099 -1.5886 -2.4229 -0.2515
  133MOL0     H17920   8.050   0.112   0.006  2.3625 -4.4883 -0.4684
  133MOL0     H17921   7.771   0.366  -0.201  0.6875 -3.9362 -0.3284
  133MOL0     H17922   7.747   0.413  -0.036  2.4297  3.2664  1.0129
  133MOL0     H17923   7.945   0.535  -0.025 -2.9035  0.1837  0.8660
  133MOL0     H17924   8.015   0.472  -0.175 -0.5431  0.1728 -0.1469
  133MOL0     H17925   7.772   0.665  -0.164 -0.7760 -1.0189 -1.6324
  133MOL0     H17926   7.836   0.600  -0.303 -0.5512  2.8122  0.7302
  133MOL0     H17927   7.972   0.760  -0.087 -4.1499 -2.8290  0.9333
  133MOL0     H17928   8.064   0.707  -0.228  0.3792 -0.8867 -2.0090
  133MOL0     H17929   7.823   0.894  -0.206  1.2463  2.3014  3.2066
  133MOL0     H17930   7.882   0.838  -0.361 -0.1002 -0.2001  0.3240
  133MOL0     H17931   8.051   1.006  -0.153  0.9716  2.9333 -0.7705
  133MOL0     H17932   8.104   0.949  -0.315 -1.3217 -2.6634 -0.4921
  133MOL0     H17933   7.884   1.154  -0.291 -0.9799  1.5148 -1.5572
  133MOL0     H17934   7.968   1.068  -0.432  0.5363  2.3433 -0.3395
  133MOL0     H17935   8.077   1.300  -0.389  1.5366 -0.8353 -2.7906
  133MOL0     H17936   8.181   1.164  -0.342  0.2717  1.0472  0.3879
  133MOL0     H17937   7.647   0.215  -0.051 -0.7511 -1.8939  0.4989
  133MOL0     H17938   7.562   0.007   0.035 -0.1552 -1.3519  0.5914
  133MOL0     H17939   7.921  -0.569   0.074 -1.0187 -1.2285 -3.4700
  133MOL0     H17940   7.866  -0.753   0.140  5.2636  3.9882 -0.3249
  133MOL0     H17941   7.931  -0.026   1.257 -2.5042 -1.2993 -1.1692
  133MOL0     H17942   8.037   0.190   1.224  0.5868 -0.8096  2.8537
  133MOL0     H17943   8.231   0.510   1.281  1.3071 -1.1330 -2.0508
  133MOL0     H17944   8.342   0.727   1.302 -0.3170 -2.6323  0.5796
  133MOL0     H17945   8.388   1.123   1.098 -0.0059  0.7583 -0.8140
  133MOL0     H17946   8.317   1.022   0.983  0.0720  1.6497 -0.4798
  133MOL0     H17947   8.091   1.098   1.068 -1.5888  1.6671  0.6022
  133MOL0     H17948   8.197   1.240   1.046  1.9801  0.1961  0.5303
  133MOL0     H17949   8.150   1.107   1.316 -1.1134  1.1993  0.6771
  133MOL0     H17950   8.073   1.253   1.267  0.5728  3.0044 -3.2872
  133MOL0     H17951   8.380   1.239   1.297  1.1343  2.4432  3.0331
  133MOL0     H17952   8.265   1.298   1.408  3.5868  2.5400  0.1665
  133MOL0     H17953   8.216   1.618   1.166 -1.2517 -0.3879  1.2052
  133MOL0     H17954   8.079   0.889   1.006 -0.3931  0.2814  2.0162
  133MOL0     H17955   7.949   0.680   1.008  0.4045 -1.0893  0.9612
  134MOL0     O17956   1.472   3.809   3.929  0.3588  0.0791 -0.4745
  134MOL0     C17957   1.351   3.807   3.913 -0.0634 -0.1338 -0.9593
  134MOL0     O17958   1.259   3.814   4.003  0.4358  0.0908 -0.2677
  134MOL0     C17959   1.301   3.834   4.134 -0.4467 -0.3108  0.1505
  134MOL0     C17960   1.246   3.937   4.203  0.2852 -1.4004  0.5536
  134MOL0     C17961   1.272   3.955   4.342 -0.2339  0.2507 -0.2415
  134MOL0     C17962   1.364   3.866   4.408 -1.0966  0.1306  0.4200
  134MOL0     O17963   1.403   3.905   4.534  0.6535  0.7930  0.2594
  134MOL0     C17964   1.468   3.820   4.635  0.5367  1.0863  0.0127
  134MOL0     C17965   1.386   3.803   4.767 -0.4002 -0.4696  0.5314
  134MOL0     C17966   1.474   3.737   4.872 -0.0587 -0.1125  0.2626
  134MOL0     C17967   1.405   3.705   5.004  0.4187 -0.4875 -0.3896
  134MOL0     C17968   1.488   3.645   5.114 -0.2022  1.4465 -0.2724
  134MOL0     C17969   1.425   3.613   5.254 -0.1035 -0.1843  0.2632
  134MOL0     C17970   1.534   3.559   5.342  0.1916  0.0091 -0.7973
  134MOL0     C17971   1.627   3.667   5.398  0.3171  0.3998  0.7718
  134MOL0     N17972   1.565   3.788   5.440  0.8708 -0.0093  0.2068
  134MOL0     C17973   1.515   3.886   5.361 -0.1228 -1.0511  0.2468
  134MOL0     C17974   1.480   3.984   5.446  0.3834  1.5587 -0.1759
  134MOL0     C17975   1.414   4.107   5.408  0.1645 -0.0114  0.5837
  134MOL0     C17976   1.335   4.178   5.519 -0.1160  0.1514  0.6262
  134MOL0     C17977   1.217   4.104   5.581 -0.7119  0.8440  0.9603
  134MOL0     C17978   1.158   4.174   5.702  0.1374  0.1837  0.2836
  134MOL0     O17979   1.139   4.314   5.686 -0.0113 -0.6117 -0.5004
  134MOL0     C17980   1.108   4.404   5.788  0.7423 -0.1738 -0.6164
  134MOL0     C17981   1.119   4.542   5.765 -0.4035 -0.1919 -0.0170
  134MOL0     C17982   1.101   4.633   5.875  0.0461 -0.1513  0.4249
  134MOL0     C17983   1.100   4.776   5.827 -0.1498 -0.2658 -1.1338
  134MOL0     C17984   1.074   4.587   6.006 -0.4162 -0.8900  0.4757
  134MOL0     C17985   1.035   4.681   6.128 -0.0664  0.6163  1.2567
  134MOL0     O17986   0.949   4.623   6.219 -0.1304  0.2637 -0.5303
  134MOL0     C17987   0.885   4.698   6.320  0.5179  0.3801 -0.6962
  134MOL0     C17988   0.814   4.614   6.407  0.1101 -1.1986 -0.6530
  134MOL0     C17989   0.737   4.671   6.509 -0.4017 -0.4060 -0.0617
  134MOL0     C17990   0.755   4.807   6.545  0.5795 -0.2977  0.3826
  134MOL0     O17991   0.705   4.868   6.652  0.0646  0.4609  0.7514
  134MOL0     C17992   0.643   4.790   6.750  0.7992 -0.0465 -0.6158
  134MOL0     C17993   0.610   4.875   6.874  0.2020 -0.1642  0.0500
  134MOL0     C17994   0.491   4.971   6.862 -0.0548  0.5244  0.2562
  134MOL0     C17995   0.524   5.106   6.920 -0.1374  0.9261 -0.8705
  134MOL0     C17996   0.424   5.213   6.898 -0.2392  0.6869 -0.3034
  134MOL0     C17997   0.443   5.277   6.763 -0.6349 -0.4363 -0.1544
  134MOL0     C17998   0.343   5.395   6.732 -0.9481 -0.3769  0.3636
  134MOL0     C17999   0.371   5.515   6.830 -0.0313 -0.3401  0.1192
  134MOL0    Cl18000   0.532   5.582   6.792  0.1370 -0.0145 -0.1110
  134MOL0     C18001   0.839   4.885   6.469 -0.0749 -0.4077  0.6879
  134MOL0     C18002   0.890   4.837   6.354 -0.0973  0.2580  0.4623
  134MOL0     O18003   1.067   4.799   6.126  0.8464 -0.6449  0.1554
  134MOL0     C18004   1.077   4.452   6.026 -0.6815  0.4552 -0.5080
  134MOL0     C18005   1.098   4.358   5.924  0.7905  0.0087  0.9857
  134MOL0     N18006   1.517   3.942   5.580  0.7698  0.2382 -0.1780
  134MOL0     N18007   1.564   3.825   5.569  0.6628 -0.4127 -0.3366
  134MOL0     C18008   1.410   3.751   4.341 -0.3044 -0.0288  0.8958
  134MOL0     C18009   1.372   3.741   4.203 -0.4685 -0.0572  0.0612
  134MOL0     C18010   1.307   3.788   3.765 -0.8401 -0.4709 -1.1482
  134MOL0     C18011   1.413   3.775   3.669  0.3456  0.4727 -0.0325
  134MOL0     C18012   1.374   3.777   3.529 -0.0835  0.3141  0.0378
  134MOL0     C18013   1.244   3.780   3.504  0.0446 -0.4487  0.2711
  134MOL0     O18014   1.197   3.759   3.372  0.0817 -0.4829 -0.2775
  134MOL0     C18015   1.179   3.866   3.285 -0.0733  0.0212  0.1195
  134MOL0     C18016   1.111   3.834   3.154 -0.2599  0.2411  0.4214
  134MOL0     C18017   0.963   3.807   3.170 -0.3182 -0.9162 -0.0241
  134MOL0     C18018   0.901   3.733   3.041 -0.4492 -0.0791  0.1004
  134MOL0     C18019   0.958   3.768   2.909 -0.3188  0.1596  0.2195
  134MOL0     C18020   1.018   3.780   2.800  0.1392  0.2294  0.0127
  134MOL0     C18021   1.150   3.795   3.595  0.2736  0.0766  1.3736
  134MOL0     C18022   1.172   3.799   3.725 -0.9631  0.1447  0.6835
  134MOL0     H18023   1.202   4.025   4.157  0.3364 -0.5347  2.1028
  134MOL0     H18024   1.223   4.034   4.398 -1.5698  0.4508 -1.6288
  134MOL0     H18025   1.486   3.719   4.599 -1.2458  0.6106  0.3538
  134MOL0     H18026   1.567   3.865   4.653  1.2718  0.4209 -2.1089
  134MOL0     H18027   1.333   3.896   4.792  2.3378  2.0900 -2.2005
  134MOL0     H18028   1.310   3.727   4.750  1.1778 -2.2039  0.8442
  134MOL0     H18029   1.505   3.638   4.835 -0.8684 -0.3034  0.0799
  134MOL0     H18030   1.564   3.796   4.890  0.4160 -0.1325 -1.7937
  134MOL0     H18031   1.381   3.802   5.047  0.1992 -1.5808  2.1345
  134MOL0     H18032   1.321   3.638   4.983  0.7115 -0.5734 -1.3815
  134MOL0     H18033   1.515   3.546   5.076 -2.2028 -0.1017  2.0746
  134MOL0     H18034   1.585   3.695   5.114 -0.1168  1.3076 -1.1736
  134MOL0     H18035   1.353   3.689   5.287  0.5633  0.9166 -0.7146
  134MOL0     H18036   1.371   3.519   5.239  0.8146 -0.7022  0.1420
  134MOL0     H18037   1.492   3.509   5.430  0.3269  0.1002 -0.6813
  134MOL0     H18038   1.584   3.472   5.299  2.5293  1.7093 -1.6998
  134MOL0     H18039   1.697   3.703   5.322 -0.3422 -0.4866 -0.2781
  134MOL0     H18040   1.677   3.614   5.479  2.1815 -1.9070 -1.7085
  134MOL0     H18041   1.512   3.890   5.252  1.3642 -0.3112  0.2089
  134MOL0     H18042   1.483   4.184   5.372  2.4663 -1.3413  1.9657
  134MOL0     H18043   1.350   4.084   5.322  1.2518 -1.8586  0.2173
  134MOL0     H18044   1.287   4.265   5.475 -0.3997 -0.7410 -0.8913
  134MOL0     H18045   1.400   4.223   5.595 -2.3383  3.8956  0.5304
  134MOL0     H18046   1.254   4.006   5.610  1.6241  1.3696 -0.0502
  134MOL0     H18047   1.138   4.094   5.506  0.8398  2.5870 -1.0416
  134MOL0     H18048   1.223   4.158   5.789  0.0162 -3.0150 -0.0854
  134MOL0     H18049   1.061   4.126   5.717 -0.0906  0.0330 -1.4577
  134MOL0     H18050   1.151   4.561   5.664  1.6485 -2.4432  0.1191
  134MOL0     H18051   1.005   4.820   5.860 -1.3495 -0.9316 -3.4749
  134MOL0     H18052   1.177   4.842   5.867 -1.1031 -0.0744  0.4944
  134MOL0     H18053   1.099   4.779   5.718 -2.2885  0.3758 -1.1482
  134MOL0     H18054   0.805   4.508   6.388 -0.4092 -0.8748 -2.3484
  134MOL0     H18055   0.685   4.597   6.570  1.1958 -0.9271  0.7222
  134MOL0     H18056   0.552   4.745   6.707 -0.8108  2.1820  0.2865
  134MOL0     H18057   0.721   4.718   6.777 -2.6566 -3.1591  2.1063
  134MOL0     H18058   0.592   4.818   6.965  1.7028  2.4307  2.1131
  134MOL0     H18059   0.704   4.931   6.881  0.5163 -0.6439 -0.2914
  134MOL0     H18060   0.403   4.936   6.918 -1.0600  0.9384 -1.0095
  134MOL0     H18061   0.471   4.978   6.755 -3.6748  0.2234  0.7647
  134MOL0     H18062   0.525   5.103   7.029  0.4157  4.1031 -0.6991
  134MOL0     H18063   0.624   5.137   6.891  0.8935 -1.7125 -0.4206
  134MOL0     H18064   0.433   5.280   6.983 -2.2582 -2.0396  2.2718
  134MOL0     H18065   0.329   5.163   6.917  0.4123 -0.6732 -0.4574
  134MOL0     H18066   0.542   5.323   6.758 -1.8920  2.4093 -2.5302
  134MOL0     H18067   0.431   5.208   6.679  1.5299 -0.7338 -0.2804
  134MOL0     H18068   0.244   5.353   6.752 -1.2665  1.1845  2.4298
  134MOL0     H18069   0.354   5.427   6.628  1.8865  0.2177  0.7611
  134MOL0     H18070   0.353   5.488   6.934  2.0139  0.6823  0.8076
  134MOL0     H18071   0.300   5.596   6.814 -0.1068 -0.5523 -0.6722
  134MOL0     H18072   0.871   4.988   6.485  1.4125  0.2767 -4.5148
  134MOL0     H18073   0.960   4.904   6.305  0.2332 -0.2027  0.2965
  134MOL0     H18074   1.098   4.404   6.121 -0.6117 -2.2995 -1.8077
  134MOL0     H18075   1.106   4.251   5.945  0.4477  0.0649  1.4016
  134MOL0     H18076   1.472   3.682   4.396  2.6180  1.2632 -0.5489
  134MOL0     H18077   1.403   3.651   4.149 -0.6767 -0.2051  0.1857
  134MOL0     H18078   1.517   3.761   3.696 -0.3793 -0.4882  2.4990
  134MOL0     H18079   1.444   3.773   3.446  1.5787  0.0697  1.3883
  134MOL0     H18080   1.111   3.940   3.328  1.4143 -0.7481  4.2357
  134MOL0     H18081   1.273   3.921   3.274 -1.6375  2.8989  0.1916
  134MOL0     H18082   1.152   3.744   3.107 -0.5392 -3.7017  6.6830
  134MOL0     H18083   1.118   3.913   3.079 -0.4310 -0.5863 -0.4875
  134MOL0     H18084   0.906   3.896   3.199 -0.1058 -1.7121  3.3167
  134MOL0     H18085   0.952   3.741   3.256  1.3374 -2.6879 -1.0945
  134MOL0     H18086   0.794   3.755   3.044 -0.0269  2.2634 -0.1999
  134MOL0     H18087   0.914   3.626   3.062 -1.1829  0.1913  2.0951
  134MOL0     H18088   1.055   3.781   2.699  1.9671  0.7974  0.6396
  134MOL0     H18089   1.046   3.799   3.564  0.5720 -3.2990 -0.6049
  134MOL0     H18090   1.088   3.819   3.791 -0.2186  1.7830  1.1952
  135MOL0     O18091   9.536   8.509  10.189 -0.8365  0.2760  1.0748
  135MOL0     C18092   9.438   8.534  10.109 -0.5352 -0.1042  0.2053
  135MOL0     O18093   9.425   8.646  10.039 -0.2551 -0.2899 -0.2016
  135MOL0     C18094   9.514   8.755  10.042 -0.7948 -0.2037 -0.3502
  135MOL0     C18095   9.469   8.870   9.975 -0.5193 -0.3091  0.8854
  135MOL0     C18096   9.544   8.988   9.973  0.3169  0.6112  0.2691
  135MOL0     C18097   9.667   8.994  10.040  0.5008  0.8987 -0.2677
  135MOL0     O18098   9.717   9.120  10.030  0.3679  0.0371  0.8882
  135MOL0     C18099   9.859   9.123  10.031  0.2012 -1.0657  0.4557
  135MOL0     C18100   9.911   9.262   9.973  0.5131 -0.0245 -0.1953
  135MOL0     C18101   9.895   9.275   9.814  0.6683 -0.2979  0.7957
  135MOL0     C18102   9.976   9.177   9.735  0.4006  0.9601 -1.1660
  135MOL0     C18103   9.917   9.166   9.592 -0.0274 -0.5801  0.5411
  135MOL0     C18104   9.945   9.282   9.511  0.1762 -0.1882 -0.1886
  135MOL0     C18105   9.885   9.259   9.370 -0.3111  0.2167 -0.3321
  135MOL0     C18106   9.966   9.153   9.299 -0.0274 -0.8034 -0.4664
  135MOL0     N18107   9.903   9.114   9.173  0.1952 -0.3079 -0.4983
  135MOL0     C18108   9.967   9.093   9.051  0.2027  0.2996 -0.6104
  135MOL0     C18109   9.886   9.017   8.978 -0.2586 -0.2726  0.9680
  135MOL0     C18110   9.915   8.961   8.845  0.0897  0.0537 -0.3316
  135MOL0     C18111   9.920   9.065   8.730 -1.1239  1.0464 -0.9501
  135MOL0     C18112   9.810   9.170   8.713 -0.4680  0.9502 -0.2208
  135MOL0     C18113   9.809   9.219   8.570 -0.1229 -0.9112 -0.3314
  135MOL0     O18114   9.918   9.302   8.534 -1.2394 -0.2049  0.0262
  135MOL0     C18115   9.913   9.366   8.415 -0.9677  0.2668 -0.2042
  135MOL0     C18116   9.991   9.482   8.404  0.8754 -0.3497  0.0158
  135MOL0     C18117  10.025   9.539   8.278 -0.7734 -0.2702 -0.2703
  135MOL0     C18118  10.112   9.668   8.293 -0.4953  0.5932 -0.8181
  135MOL0     C18119   9.971   9.484   8.162 -0.2391 -0.1269 -0.2866
  135MOL0     C18120   9.999   9.544   8.024  0.2865 -0.9840  0.1782
  135MOL0     O18121  10.012   9.682   8.020 -0.2512  0.6226 -0.4648
  135MOL0     C18122  10.008   9.759   7.903 -0.5849  0.1616 -0.2836
  135MOL0     C18123  10.086   9.727   7.793 -0.4726  1.0740 -0.0850
  135MOL0     C18124  10.080   9.796   7.672  0.2796 -0.9824  0.5981
  135MOL0     C18125  10.015   9.920   7.668 -0.8234  0.8524  0.5680
  135MOL0     O18126  10.025   9.995   7.553 -0.3577  0.4421  0.0559
  135MOL0     C18127  10.092  10.117   7.580  0.0027  0.2825  0.4607
  135MOL0     C18128  10.077  10.225   7.478  0.0182 -0.4100  0.5144
  135MOL0     C18129   9.929  10.273   7.466  0.2437 -0.2845 -0.2967
  135MOL0     C18130   9.929  10.402   7.379 -0.5082  0.1300  0.6565
  135MOL0     C18131   9.790  10.458   7.360 -0.7434 -0.3240 -0.1919
  135MOL0     C18132   9.752  10.524   7.487  0.1459 -0.0738 -0.5017
  135MOL0     C18133   9.627  10.615   7.463 -0.2557 -0.6418 -0.4796
  135MOL0     C18134   9.518  10.565   7.381  1.0512  0.2356  0.3719
  135MOL0    Cl18135   9.471  10.399   7.452 -0.2427 -0.1750  0.0060
  135MOL0     C18136   9.938   9.960   7.781  0.2431  0.3819  0.5520
  135MOL0     C18137   9.931   9.877   7.891 -1.2772 -0.2247 -0.4051
  135MOL0     O18138   9.986   9.482   7.920  0.1774  0.3363 -0.5033
  135MOL0     C18139   9.886   9.377   8.173 -1.1388  0.1619 -0.2720
  135MOL0     C18140   9.860   9.317   8.295 -0.3345 -0.8608 -1.2648
  135MOL0     N18141   9.776   8.996   9.055  0.2371 -0.4100  0.4257
  135MOL0     N18142   9.786   9.044   9.169 -0.3686  0.2273 -0.1120
  135MOL0     C18143   9.717   8.886  10.112  0.6025  0.5540  0.2178
  135MOL0     C18144   9.641   8.760  10.113  0.3198 -0.1129 -0.2571
  135MOL0     C18145   9.347   8.425  10.092  0.2276  0.1592 -0.8178
  135MOL0     C18146   9.267   8.421   9.987 -0.5596  0.6084 -0.3746
  135MOL0     C18147   9.160   8.328   9.970 -0.8498  0.0981  0.3777
  135MOL0     C18148   9.150   8.224  10.055  0.0289  0.6468  0.4728
  135MOL0     O18149   9.055   8.127  10.044 -0.2495  0.4443 -0.0823
  135MOL0     C18150   8.963   8.118   9.936 -0.0910  0.6335  0.5739
  135MOL0     C18151   8.891   7.987   9.946 -0.6471  0.2542  0.6023
  135MOL0     C18152   8.764   7.975   9.869  0.2969 -0.1552  0.3274
  135MOL0     C18153   8.675   7.851   9.889  0.0566 -1.1384  0.3300
  135MOL0     C18154   8.716   7.737   9.802  0.2107 -0.1736 -0.8485
  135MOL0     C18155   8.747   7.642   9.729  0.0721 -0.3277  0.3039
  135MOL0     C18156   9.237   8.214  10.163  1.0017  0.1017 -0.1982
  135MOL0     C18157   9.332   8.318  10.182  0.5007 -0.0227  0.7766
  135MOL0     H18158   9.369   8.857   9.934 -0.3790 -0.1868  0.4916
  135MOL0     H18159   9.514   9.075   9.916  0.1568  2.4038  2.9109
  135MOL0     H18160   9.888   9.115  10.137  3.0436  2.6472  0.1449
  135MOL0     H18161   9.903   9.038   9.979 -1.1481 -0.7849 -1.2120
  135MOL0     H18162   9.848   9.338  10.021  1.2550 -0.6720  1.9144
  135MOL0     H18163  10.014   9.285  10.003 -0.0723 -0.5653  2.4849
  135MOL0     H18164   9.789   9.270   9.787  0.7008  0.0277  0.6077
  135MOL0     H18165   9.933   9.372   9.781 -0.3182 -0.5046 -1.0676
  135MOL0     H18166  10.084   9.196   9.740  0.1202  2.3593  0.9684
  135MOL0     H18167   9.964   9.077   9.777 -2.1355  1.4394 -0.5608
  135MOL0     H18168   9.946   9.073   9.542  0.1250 -0.8965  1.2038
  135MOL0     H18169   9.809   9.157   9.607 -0.6189  0.7028 -2.4277
  135MOL0     H18170   9.896   9.376   9.540  2.5089  0.4103  2.1935
  135MOL0     H18171  10.048   9.319   9.518 -0.1534  0.5606  0.9751
  135MOL0     H18172   9.784   9.218   9.380 -1.0983  1.6523 -1.9089
  135MOL0     H18173   9.875   9.360   9.330 -0.5935 -0.2520 -1.4753
  135MOL0     H18174   9.957   9.059   9.353 -0.0724 -1.2099 -1.1732
  135MOL0     H18175  10.073   9.171   9.280 -0.1720  0.6092 -0.0372
  135MOL0     H18176  10.072   9.108   9.031  0.4299 -0.9208 -0.4294
  135MOL0     H18177  10.010   8.908   8.852  0.5739  0.3939 -3.1349
  135MOL0     H18178   9.843   8.880   8.832  2.2827 -1.9611 -0.4763
  135MOL0     H18179   9.918   8.997   8.645  3.9536 -0.7428  0.0644
  135MOL0     H18180  10.014   9.119   8.742 -1.5635  1.9701 -1.5332
  135MOL0     H18181   9.817   9.251   8.786 -2.4932 -1.8763  3.4591
  135MOL0     H18182   9.718   9.121   8.746  0.8352 -1.7201 -0.2725
  135MOL0     H18183   9.721   9.283   8.563  1.6578  1.6416 -0.9861
  135MOL0     H18184   9.810   9.141   8.493  0.8760 -1.9345  0.6770
  135MOL0     H18185  10.024   9.515   8.502  0.7826 -3.3421  1.1448
  135MOL0     H18186  10.040   9.750   8.285  0.6581  1.7570  0.2368
  135MOL0     H18187  10.161   9.670   8.391  0.9027  3.4782 -1.4601
  135MOL0     H18188  10.195   9.673   8.221  0.5538 -0.9446  0.2176
  135MOL0     H18189  10.148   9.638   7.803 -1.1112  0.8168  2.2500
  135MOL0     H18190  10.139   9.743   7.598  2.5310 -0.2362  1.7604
  135MOL0     H18191  10.075  10.163   7.677  2.9246  1.5127  0.5037
  135MOL0     H18192  10.200  10.104   7.595  0.2862  2.2541  0.4412
  135MOL0     H18193  10.144  10.306   7.508  0.3466 -0.7720  0.7655
  135MOL0     H18194  10.115  10.191   7.381 -2.0530 -0.5733 -0.2744
  135MOL0     H18195   9.873  10.279   7.559 -1.7291  0.7817 -1.4795
  135MOL0     H18196   9.869  10.195   7.418  0.1406 -1.4136  1.5619
  135MOL0     H18197   9.987  10.482   7.427 -2.1202  0.2021  2.6110
  135MOL0     H18198   9.968  10.391   7.277  1.7703  0.6741  1.4002
  135MOL0     H18199   9.720  10.380   7.328 -3.4396  1.7936  0.1366
  135MOL0     H18200   9.803  10.539   7.288 -1.3726 -1.1862 -1.3130
  135MOL0     H18201   9.731  10.442   7.556 -3.4577  0.7440 -0.4083
  135MOL0     H18202   9.828  10.595   7.520 -1.4689  2.6963 -2.3149
  135MOL0     H18203   9.662  10.707   7.415 -1.8705 -0.8181 -2.1297
  135MOL0     H18204   9.591  10.637   7.564  3.4578 -3.0442  1.5930
  135MOL0     H18205   9.529  10.550   7.273 -4.5915 -1.2922 -0.3482
  135MOL0     H18206   9.437  10.639   7.388 -0.7729 -1.8079  4.8804
  135MOL0     H18207   9.883  10.053   7.777  1.4137  1.0383 -2.0100
  135MOL0     H18208   9.872   9.912   7.976  0.3196  0.0068  0.6476
  135MOL0     H18209   9.848   9.337   8.080 -0.3508  0.5821 -0.7923
  135MOL0     H18210   9.804   9.224   8.295 -0.3687 -0.8409 -1.0309
  135MOL0     H18211   9.810   8.892  10.167 -0.3866  2.4964  1.7730
  135MOL0     H18212   9.693   8.682  10.167  2.4092  2.4189  1.6573
  135MOL0     H18213   9.269   8.501   9.914  0.8427  0.3924 -0.5883
  135MOL0     H18214   9.093   8.325   9.884 -1.1265 -2.7776  0.6026
  135MOL0     H18215   8.894   8.202   9.942  1.6681  2.1241  0.5912
  135MOL0     H18216   9.030   8.134   9.851  1.9683  2.0338  2.3382
  135MOL0     H18217   8.868   7.957  10.048  0.8851 -0.3988  0.7738
  135MOL0     H18218   8.958   7.912   9.904 -0.6083  1.2676 -1.2561
  135MOL0     H18219   8.778   7.994   9.762  0.2359  3.2609  0.8131
  135MOL0     H18220   8.715   8.068   9.899 -0.7402  0.0189 -1.7371
  135MOL0     H18221   8.571   7.882   9.872  0.6596  1.0408  0.2899
  135MOL0     H18222   8.683   7.810   9.990  1.9489 -1.8553 -0.0680
  135MOL0     H18223   8.776   7.562   9.664 -0.4517  2.2063 -3.3794
  135MOL0     H18224   9.225   8.134  10.235 -1.0147 -0.0600 -0.6620
  135MOL0     H18225   9.407   8.309  10.260  2.2137  1.8666 -0.5522
  136MOL0     O18226  10.405  11.353   4.111 -0.3188  1.1127  0.1709
  136MOL0     C18227  10.470  11.356   4.006  0.3323  0.3056 -0.4881
  136MOL0     O18228  10.420  11.346   3.884 -0.6003 -0.8736 -0.3856
  136MOL0     C18229  10.292  11.311   3.873 -0.0477  0.3108 -0.0585
  136MOL0     C18230  10.268  11.194   3.791  1.1889 -0.3273 -0.3510
  136MOL0     C18231  10.132  11.155   3.763  0.0124  0.5181 -0.5142
  136MOL0     C18232  10.029  11.220   3.828 -0.3037  0.8334 -0.9208
  136MOL0     O18233   9.906  11.175   3.802  0.1778  0.1272 -0.0451
  136MOL0     C18234   9.883  11.052   3.867  0.2978 -0.5006 -0.5789
  136MOL0     C18235   9.798  11.068   3.995  0.2162  0.7255 -0.1264
  136MOL0     C18236   9.874  11.114   4.127 -0.0399  0.6472  0.3313
  136MOL0     C18237  10.003  11.025   4.139  0.9217  0.4088 -0.1102
  136MOL0     C18238  10.092  11.036   4.266  1.0974 -1.1930 -0.1183
  136MOL0     C18239  10.162  11.177   4.280 -0.2804  0.3976 -0.2619
  136MOL0     C18240  10.227  11.190   4.419 -0.3953 -0.9685  0.0348
  136MOL0     C18241  10.361  11.116   4.423 -0.0143  0.2828 -0.3788
  136MOL0     N18242  10.426  11.132   4.557  0.7836  0.5212 -0.4054
  136MOL0     C18243  10.486  11.017   4.611  1.0235  0.5744 -0.0566
  136MOL0     C18244  10.580  11.074   4.689  0.2869 -0.3770 -0.2099
  136MOL0     C18245  10.678  11.008   4.768 -0.0393  0.8913 -0.3564
  136MOL0     C18246  10.824  11.075   4.764  0.6353  0.3948  0.0503
  136MOL0     C18247  10.915  10.991   4.859 -0.2952 -1.0976 -0.0094
  136MOL0     C18248  10.947  10.857   4.811 -0.4476  0.6076  0.2823
  136MOL0     O18249  11.077  10.813   4.843 -0.1568  0.3489  0.5894
  136MOL0     C18250  11.186  10.843   4.768 -0.0538 -0.7599 -0.4688
  136MOL0     C18251  11.313  10.808   4.827  0.5642  0.1639  1.1450
  136MOL0     C18252  11.430  10.852   4.760  0.3346  0.0416 -0.1342
  136MOL0     C18253  11.552  10.822   4.848 -0.4108 -1.2309  0.5957
  136MOL0     C18254  11.427  10.916   4.642 -0.4866 -0.1130  0.2420
  136MOL0     C18255  11.552  10.963   4.568 -0.6462  0.8454 -0.0473
  136MOL0     O18256  11.668  10.895   4.597 -0.2696 -0.2496  0.1374
  136MOL0     C18257  11.791  10.894   4.524  0.2841 -0.0373  0.8380
  136MOL0     C18258  11.887  10.793   4.552  0.5067 -0.8297  0.4568
  136MOL0     C18259  12.011  10.802   4.489 -0.6999 -0.4635 -0.1987
  136MOL0     C18260  12.049  10.899   4.395 -1.2526  0.4734 -0.4105
  136MOL0     O18261  12.173  10.907   4.325  0.7987 -0.1526  0.2864
  136MOL0     C18262  12.249  10.790   4.316 -0.7357 -0.0955 -0.0528
  136MOL0     C18263  12.371  10.825   4.217  0.3607  0.3791 -0.4003
  136MOL0     C18264  12.483  10.726   4.167 -0.0751  0.6315 -0.7307
  136MOL0     C18265  12.434  10.579   4.209 -0.4182 -0.4288  0.1877
  136MOL0     C18266  12.478  10.485   4.093 -0.6940 -0.7141  0.7639
  136MOL0     C18267  12.635  10.464   4.086  0.0952 -1.1332 -0.1268
  136MOL0     C18268  12.696  10.409   4.224 -0.6670 -0.3222  0.2983
  136MOL0     C18269  12.831  10.350   4.190  0.3506  0.0984 -0.3072
  136MOL0    Cl18270  12.922  10.481   4.095  0.0239 -0.5851  0.0167
  136MOL0     C18271  11.958  10.997   4.373 -0.3568 -0.1273  0.5557
  136MOL0     C18272  11.833  10.997   4.429  1.0188  0.7111 -0.1115
  136MOL0     O18273  11.540  11.047   4.480 -0.0252  0.1005 -0.1907
  136MOL0     C18274  11.307  10.949   4.587  0.0656  0.5932  0.2277
  136MOL0     C18275  11.185  10.918   4.649 -0.0040 -0.5806  0.6075
  136MOL0     N18276  10.570  11.218   4.681  0.1139  0.6018  0.2890
  136MOL0     N18277  10.475  11.252   4.606  0.3415  0.4889 -1.0665
  136MOL0     C18278  10.053  11.324   3.911  0.1519 -0.5790  1.0749
  136MOL0     C18279  10.181  11.383   3.923  0.6147  1.2385  0.1741
  136MOL0     C18280  10.617  11.386   4.026 -0.5391  0.1129  0.1530
  136MOL0     C18281  10.682  11.333   4.146 -0.9494  0.3860 -0.7608
  136MOL0     C18282  10.825  11.359   4.167  0.6959  0.2307 -0.0931
  136MOL0     C18283  10.889  11.434   4.065 -0.2613  0.9148 -0.6327
  136MOL0     O18284  11.020  11.467   4.060  0.3685 -0.2578 -0.2077
  136MOL0     C18285  11.109  11.430   4.167 -0.4728  0.2211  0.1177
  136MOL0     C18286  11.242  11.491   4.155 -0.8784  0.6213 -0.9094
  136MOL0     C18287  11.309  11.431   4.029 -0.2766 -0.8031  1.0015
  136MOL0     C18288  11.449  11.492   4.016 -0.2943 -0.2315 -0.9036
  136MOL0     C18289  11.547  11.426   4.105 -0.5645 -0.1561 -0.2028
  136MOL0     C18290  11.632  11.356   4.161  0.6762  0.5407 -0.0199
  136MOL0     C18291  10.824  11.472   3.948 -0.4207  0.3557  1.4099
  136MOL0     C18292  10.690  11.448   3.925  0.4787 -0.1747  0.3699
  136MOL0     H18293  10.348  11.136   3.747  1.9226  0.1291  0.3467
  136MOL0     H18294  10.100  11.070   3.703  1.1157 -0.1616 -0.1569
  136MOL0     H18295   9.805  11.012   3.802 -1.0107  0.8275  0.1149
  136MOL0     H18296   9.966  10.982   3.885  1.7858  0.4180 -3.1831
  136MOL0     H18297   9.727  11.150   3.979 -1.4723  0.0056  2.8285
  136MOL0     H18298   9.734  10.982   4.016  1.0473  0.2980  0.7378
  136MOL0     H18299   9.907  11.218   4.120 -0.7059  1.0507  2.5725
  136MOL0     H18300   9.808  11.104   4.214  0.2519 -0.3625  0.4479
  136MOL0     H18301   9.981  10.918   4.124  1.4384  0.0735  1.3544
  136MOL0     H18302  10.067  11.046   4.053  2.0020  1.0143  0.8188
  136MOL0     H18303  10.021  11.020   4.347 -0.4452  2.1757 -0.6494
  136MOL0     H18304  10.167  10.958   4.281  1.0615 -0.6139  4.8871
  136MOL0     H18305  10.231  11.185   4.196  0.2438  2.5564  0.3121
  136MOL0     H18306  10.091  11.259   4.268 -0.4865  0.5675  1.8252
  136MOL0     H18307  10.259  11.294   4.429  3.0516 -1.9751  0.6448
  136MOL0     H18308  10.159  11.167   4.501  0.1906  1.3226  1.2286
  136MOL0     H18309  10.428  11.160   4.349 -0.1251 -1.6913 -1.7149
  136MOL0     H18310  10.330  11.014   4.401  0.9927 -0.2362  0.5051
  136MOL0     H18311  10.460  10.912   4.607  2.2875  0.2831 -1.8982
  136MOL0     H18312  10.646  10.998   4.872  0.1033  2.3962 -0.1401
  136MOL0     H18313  10.683  10.902   4.741 -0.9417  1.2252 -1.9413
  136MOL0     H18314  10.816  11.182   4.784  0.5371  1.1816 -3.5959
  136MOL0     H18315  10.865  11.069   4.663  1.5785 -2.4300  0.5063
  136MOL0     H18316  10.878  10.982   4.962 -1.9632  1.7538 -0.2539
  136MOL0     H18317  11.008  11.047   4.865  0.6578 -2.4307 -1.7122
  136MOL0     H18318  10.936  10.866   4.702 -1.7513 -0.1326  0.3331
  136MOL0     H18319  10.889  10.785   4.870  2.4805  0.3242  3.1197
  136MOL0     H18320  11.307  10.749   4.918 -2.1889 -3.7322 -1.2179
  136MOL0     H18321  11.619  10.759   4.790 -1.7794 -1.7156 -0.5149
  136MOL0     H18322  11.599  10.918   4.874 -3.1962  0.6702 -0.9286
  136MOL0     H18323  11.528  10.776   4.944 -2.4221  0.0621  0.7588
  136MOL0     H18324  11.873  10.706   4.615  2.9237 -3.2157 -2.0188
  136MOL0     H18325  12.090  10.736   4.524 -0.5920  0.9292  2.4831
  136MOL0     H18326  12.280  10.764   4.417  2.8037 -1.9507 -1.4263
  136MOL0     H18327  12.196  10.705   4.273  0.6583 -0.0279 -2.0951
  136MOL0     H18328  12.309  10.850   4.131 -4.0975 -0.9913  2.0413
  136MOL0     H18329  12.419  10.912   4.262 -0.4052  0.0969  1.0465
  136MOL0     H18330  12.581  10.752   4.208  0.3850 -0.9674 -0.7479
  136MOL0     H18331  12.491  10.730   4.058 -4.7826 -1.9784 -1.4314
  136MOL0     H18332  12.470  10.540   4.305 -0.0740 -1.6954 -0.4479
  136MOL0     H18333  12.327  10.564   4.200  0.0402 -3.3797 -1.4689
  136MOL0     H18334  12.454  10.519   3.992  3.0373  0.3620  0.0632
  136MOL0     H18335  12.429  10.387   4.089 -1.1976 -0.4749 -3.5068
  136MOL0     H18336  12.660  10.392   4.008  0.0555 -0.2016 -1.0177
  136MOL0     H18337  12.684  10.556   4.054  1.4525 -2.6377 -2.6088
  136MOL0     H18338  12.639  10.327   4.267  1.0414 -1.0144  1.3790
  136MOL0     H18339  12.711  10.482   4.304  0.6250  0.3901 -0.5413
  136MOL0     H18340  12.822  10.257   4.133 -1.4477  0.2484 -0.3365
  136MOL0     H18341  12.885  10.327   4.282  0.5592  1.7675  0.0177
  136MOL0     H18342  11.981  11.076   4.302 -0.5490  0.2277  0.8822
  136MOL0     H18343  11.771  11.085   4.430 -0.8493 -0.5068 -1.7263
  136MOL0     H18344  11.299  10.990   4.487 -0.7034 -5.6005 -2.7471
  136MOL0     H18345  11.096  10.930   4.588  0.4430 -0.6696 -0.0800
  136MOL0     H18346   9.972  11.375   3.962  0.4039  0.3726  0.5525
  136MOL0     H18347  10.204  11.472   3.980  1.2492  1.5439 -0.5465
  136MOL0     H18348  10.634  11.298   4.236  1.7897 -2.7554 -0.3495
  136MOL0     H18349  10.886  11.328   4.251  3.4755  2.7912 -0.9768
  136MOL0     H18350  11.060  11.467   4.258 -3.6180 -2.1356 -0.4827
  136MOL0     H18351  11.117  11.324   4.191  3.7626  0.9127  3.0435
  136MOL0     H18352  11.300  11.471   4.246  2.2959 -2.7393 -3.3516
  136MOL0     H18353  11.227  11.597   4.134 -1.7781  0.4511 -1.1631
  136MOL0     H18354  11.247  11.458   3.943  1.2048  0.9917  0.4178
  136MOL0     H18355  11.308  11.323   4.046 -0.4351 -1.1038 -0.7478
  136MOL0     H18356  11.458  11.601   4.022  1.8196 -0.2814 -2.1413
  136MOL0     H18357  11.480  11.466   3.915  0.8641  1.1015 -0.9270
  136MOL0     H18358  11.715  11.308   4.208 -0.9620  0.8586  3.5125
  136MOL0     H18359  10.886  11.524   3.875  0.1508  1.0977  2.3876
  136MOL0     H18360  10.650  11.485   3.831 -1.1832  1.6491  1.7260
  137MOL0     O18361   6.206  10.596  11.275 -0.7568 -0.8311  0.3966
  137MOL0     C18362   6.102  10.645  11.235  0.8222  0.0486  0.3180
  137MOL0     O18363   5.999  10.584  11.173  0.4200  0.0965 -0.2826
  137MOL0     C18364   6.019  10.457  11.138 -0.0983  0.3933  0.8391
  137MOL0     C18365   6.000  10.427  11.000  0.9227  0.4977 -0.1593
  137MOL0     C18366   5.994  10.284  10.963 -0.3276 -1.1639  0.0066
  137MOL0     C18367   6.035  10.186  11.044  1.2391  0.3400 -0.7321
  137MOL0     O18368   6.037  10.057  11.012 -0.3149  0.2406 -0.4503
  137MOL0     C18369   6.159   9.988  11.031 -0.1712  0.0630  0.2604
  137MOL0     C18370   6.154   9.907  11.161 -0.3560 -0.4067 -0.2524
  137MOL0     C18371   6.293   9.920  11.231  0.3628 -0.8816 -0.6557
  137MOL0     C18372   6.314   9.833  11.353  0.0675 -0.8189 -0.9957
  137MOL0     C18373   6.449   9.847  11.432  0.6202 -0.1246 -0.1275
  137MOL0     C18374   6.573   9.804  11.353 -0.1096  0.6716  0.5923
  137MOL0     C18375   6.688   9.801  11.455 -0.0181  0.0442 -0.2783
  137MOL0     C18376   6.825   9.738  11.414 -0.5105  0.0807 -0.5946
  137MOL0     N18377   6.815   9.587  11.411  0.0323 -0.2713 -0.3233
  137MOL0     C18378   6.829   9.499  11.516 -0.8451  0.7404 -0.5704
  137MOL0     C18379   6.834   9.371  11.468  0.0617  0.1394  0.0591
  137MOL0     C18380   6.854   9.240  11.549 -0.7674 -0.1747  0.7957
  137MOL0     C18381   6.713   9.206  11.595 -0.1519 -0.2868 -0.5840
  137MOL0     C18382   6.700   9.071  11.670 -0.2776  0.3628  0.7632
  137MOL0     C18383   6.734   8.947  11.597 -0.5239 -0.3783  0.7933
  137MOL0     O18384   6.648   8.921  11.481  0.0924 -0.1429 -0.9420
  137MOL0     C18385   6.720   8.850  11.388  0.3612 -0.1469 -0.7066
  137MOL0     C18386   6.780   8.918  11.278 -0.3174  1.6004  0.7323
  137MOL0     C18387   6.865   8.849  11.195  0.3585 -0.2692 -0.2222
  137MOL0     C18388   6.938   8.934  11.088 -0.0191 -0.3180  0.0906
  137MOL0     C18389   6.887   8.709  11.219 -0.0820  0.3654  0.5118
  137MOL0     C18390   6.966   8.623  11.125 -0.0723 -1.2110  0.0839
  137MOL0     O18391   7.015   8.500  11.175 -0.3365 -1.0076 -0.0799
  137MOL0     C18392   7.060   8.409  11.074 -0.4141  0.0486 -0.3502
  137MOL0     C18393   7.185   8.416  11.003 -0.0860  0.1924 -0.3500
  137MOL0     C18394   7.227   8.311  10.916  1.0990  0.5193 -1.7477
  137MOL0     C18395   7.138   8.204  10.881 -0.2091  0.6295  0.3189
  137MOL0     O18396   7.177   8.083  10.812 -0.4705 -0.2500  0.0013
  137MOL0     C18397   7.085   8.019  10.726 -0.3361  0.3838  0.5791
  137MOL0     C18398   7.100   7.868  10.746  0.1341 -0.6317  0.1384
  137MOL0     C18399   6.981   7.793  10.677  0.0956  1.0898 -0.8104
  137MOL0     C18400   7.008   7.636  10.668  0.2473 -0.0745 -0.0489
  137MOL0     C18401   6.999   7.589  10.527 -0.0202 -0.1149 -0.8495
  137MOL0     C18402   7.031   7.441  10.501  0.3760 -0.5203  0.1620
  137MOL0     C18403   7.000   7.388  10.361  0.5202 -0.0331 -0.3577
  137MOL0     C18404   6.852   7.382  10.333  1.0518  0.5179  0.5457
  137MOL0    Cl18405   6.803   7.526  10.248 -0.2124 -0.4937  0.4594
  137MOL0     C18406   7.011   8.216  10.939 -0.1819 -0.2041  0.6186
  137MOL0     C18407   6.971   8.310  11.030  0.8068  0.0293 -0.2557
  137MOL0     O18408   6.996   8.669  11.011 -0.4537 -0.6900 -0.5758
  137MOL0     C18409   6.823   8.644  11.325 -0.0105  0.1003  0.5082
  137MOL0     C18410   6.743   8.719  11.411  0.4935 -0.0749  0.6019
  137MOL0     N18411   6.811   9.379  11.332 -0.4396 -0.9552  0.2202
  137MOL0     N18412   6.797   9.503  11.301  0.5986 -0.3298  0.5305
  137MOL0     C18413   6.076  10.226  11.168 -0.5114  0.2298  0.1914
  137MOL0     C18414   6.065  10.350  11.222  0.4490 -0.2287 -0.2949
  137MOL0     C18415   6.097  10.793  11.239 -0.0444 -0.4175  0.6003
  137MOL0     C18416   6.191  10.872  11.304 -0.0590 -0.3671 -0.5515
  137MOL0     C18417   6.177  11.006  11.314 -0.1548 -0.3719  0.0258
  137MOL0     C18418   6.065  11.068  11.257 -0.8490 -0.2715  0.2794
  137MOL0     O18419   6.051  11.200  11.281  0.1828 -0.6439 -0.2420
  137MOL0     C18420   5.929  11.264  11.232 -0.1377  0.5426  0.4891
  137MOL0     C18421   5.920  11.405  11.281  0.5182  0.6250  0.3750
  137MOL0     C18422   5.906  11.410  11.438  0.2004 -0.4955  0.1120
  137MOL0     C18423   5.896  11.552  11.484 -0.6581 -0.5836 -0.0473
  137MOL0     C18424   5.932  11.567  11.623 -0.6009  0.2572 -0.7978
  137MOL0     C18425   5.938  11.617  11.735  0.6740  0.6440  0.1583
  137MOL0     C18426   5.970  10.991  11.199 -0.8626  1.0450 -0.1180
  137MOL0     C18427   5.986  10.853  11.184 -0.0589 -0.2125 -0.3420
  137MOL0     H18428   5.958  10.496  10.928 -1.5694  1.2652  1.8445
  137MOL0     H18429   5.970  10.252  10.862  2.1037 -0.3295 -0.9074
  137MOL0     H18430   6.177   9.916  10.951 -0.8334 -0.1189  0.2723
  137MOL0     H18431   6.232  10.070  11.036 -0.8552  0.6789  0.2317
  137MOL0     H18432   6.071   9.923  11.230  0.9074  1.6469  0.8877
  137MOL0     H18433   6.136   9.800  11.145  1.4829 -1.0508  1.5934
  137MOL0     H18434   6.368   9.883  11.160 -0.3784 -4.2252  0.1516
  137MOL0     H18435   6.307  10.026  11.254 -0.6125 -0.3080 -2.4508
  137MOL0     H18436   6.239   9.867  11.425  2.0198  0.1788  0.6506
  137MOL0     H18437   6.295   9.728  11.330 -1.6242 -1.3047  2.0425
  137MOL0     H18438   6.463   9.953  11.455  2.6997  0.0750 -1.9402
  137MOL0     H18439   6.451   9.776  11.515  1.4256 -0.1620 -0.1711
  137MOL0     H18440   6.573   9.708  11.301  1.0045  1.2527 -0.5416
  137MOL0     H18441   6.590   9.877  11.273 -1.3355  1.4005  0.9679
  137MOL0     H18442   6.703   9.907  11.479  0.0131  0.4656 -2.0299
  137MOL0     H18443   6.661   9.738  11.541  0.5892 -2.4200 -1.7797
  137MOL0     H18444   6.897   9.765  11.492 -0.5862  1.3679 -0.9391
  137MOL0     H18445   6.867   9.783  11.323  3.1939 -0.8281  0.4990
  137MOL0     H18446   6.851   9.530  11.618 -0.0396  3.9032 -1.5973
  137MOL0     H18447   6.896   9.152  11.499  1.0076 -0.5659  2.7944
  137MOL0     H18448   6.927   9.260  11.628  2.1546  0.2532 -1.7942
  137MOL0     H18449   6.639   9.203  11.514  0.8129  1.4249 -1.5921
  137MOL0     H18450   6.685   9.290  11.659  0.2645 -1.0471  0.6280
  137MOL0     H18451   6.595   9.069  11.700 -0.5372 -0.2827 -0.1471
  137MOL0     H18452   6.757   9.073  11.764 -0.0187  1.9815  0.6005
  137MOL0     H18453   6.721   8.861  11.662 -0.7820 -0.5746  0.4837
  137MOL0     H18454   6.838   8.950  11.562 -0.4305  0.7434  1.1108
  137MOL0     H18455   6.755   9.021  11.258  2.3789  2.2728  0.3442
  137MOL0     H18456   6.887   8.925  10.992  0.9004 -0.8700 -0.3601
  137MOL0     H18457   6.944   9.042  11.100  1.8202 -0.1271 -1.8765
  137MOL0     H18458   7.042   8.899  11.084  0.7186  1.5421  1.5506
  137MOL0     H18459   7.254   8.499  11.017 -0.4400  0.2709  1.1664
  137MOL0     H18460   7.325   8.312  10.870  1.7033 -0.3423 -0.5452
  137MOL0     H18461   6.980   8.046  10.738 -0.2459  1.0122  0.0564
  137MOL0     H18462   7.117   8.044  10.624  0.7511  0.8862  1.0190
  137MOL0     H18463   7.196   7.834  10.705  0.7461  1.4366 -0.2644
  137MOL0     H18464   7.108   7.849  10.853 -1.1979  0.5134  0.4519
  137MOL0     H18465   6.961   7.830  10.576 -1.8111  0.1993 -0.7984
  137MOL0     H18466   6.887   7.829  10.720 -1.3748  1.1005 -3.7577
  137MOL0     H18467   7.101   7.614  10.721 -1.3474 -3.7638  1.5851
  137MOL0     H18468   6.941   7.582  10.736  2.6171 -1.4200  1.3852
  137MOL0     H18469   7.067   7.653  10.470  2.1310  0.8941  2.6027
  137MOL0     H18470   6.895   7.604  10.495 -1.7285 -4.4413  1.8561
  137MOL0     H18471   7.139   7.425  10.509  0.6311 -0.2981 -2.2977
  137MOL0     H18472   6.990   7.377  10.581  2.6588 -1.2635  0.8335
  137MOL0     H18473   7.046   7.292  10.336  2.4432  1.4167 -2.8345
  137MOL0     H18474   7.050   7.450  10.287  1.0753 -1.7433 -1.4748
  137MOL0     H18475   6.786   7.373  10.420 -1.2368  1.7259 -0.9658
  137MOL0     H18476   6.831   7.290  10.277  0.7595  0.2579  1.0737
  137MOL0     H18477   6.930   8.150  10.910  1.8937 -2.4214 -0.5198
  137MOL0     H18478   6.871   8.299  11.071  1.3213  1.2421  1.4691
  137MOL0     H18479   6.828   8.536  11.331  1.0069 -0.0457 -1.7050
  137MOL0     H18480   6.696   8.676  11.499 -2.4926  0.0846 -0.7886
  137MOL0     H18481   6.117  10.149  11.233 -1.8774 -0.1114  0.6807
  137MOL0     H18482   6.091  10.374  11.325  0.4147  1.4746 -0.6503
  137MOL0     H18483   6.275  10.820  11.348 -1.2232 -1.5341  0.3928
  137MOL0     H18484   6.259  11.063  11.357  1.0860 -2.7810  1.0131
  137MOL0     H18485   5.949  11.276  11.125  0.7353  0.7988  0.6729
  137MOL0     H18486   5.832  11.213  11.234 -1.5484  3.0421 -0.0461
  137MOL0     H18487   5.833  11.460  11.243 -0.8279 -0.6053  1.5805
  137MOL0     H18488   6.020  11.437  11.251  1.8079  0.7112  4.2194
  137MOL0     H18489   6.001  11.376  11.479  0.2857 -0.5073 -0.0974
  137MOL0     H18490   5.820  11.352  11.472 -2.1710  2.6850  0.0100
  137MOL0     H18491   5.794  11.590  11.476  0.0434  1.9863  1.8257
  137MOL0     H18492   5.962  11.617  11.425 -1.4396  0.9599  0.7358
  137MOL0     H18493   5.936  11.663  11.831 -0.7138 -0.2119  0.5698
  137MOL0     H18494   5.881  11.025  11.147 -1.8741 -1.3955 -0.1062
  137MOL0     H18495   5.916  10.798  11.122  0.6879  0.2493 -1.6338
  138MOL0     O18496   7.915  11.491   9.789  0.8642  0.0718  0.2896
  138MOL0     C18497   7.928  11.380   9.835 -0.0145  0.5201 -0.0020
  138MOL0     O18498   8.037  11.325   9.906  0.4327  0.4387  0.8711
  138MOL0     C18499   8.141  11.407   9.934  0.1818  1.1013 -0.4387
  138MOL0     C18500   8.271  11.381   9.899  0.4306  0.5516 -0.1143
  138MOL0     C18501   8.382  11.451   9.940  0.1551 -0.0191  0.1466
  138MOL0     C18502   8.359  11.566  10.022 -0.4457  0.6489 -0.4659
  138MOL0     O18503   8.459  11.653  10.063 -0.5878  0.1060 -0.1325
  138MOL0     C18504   8.584  11.603  10.108 -0.1164 -0.4063 -0.4725
  138MOL0     C18505   8.694  11.707  10.093  0.3889 -0.0686  0.2332
  138MOL0     C18506   8.837  11.659  10.115  0.2885  0.7167 -0.9174
  138MOL0     C18507   8.925  11.775  10.157 -0.9140 -0.5221 -0.3542
  138MOL0     C18508   9.069  11.747  10.137 -0.7679  0.1271  0.4792
  138MOL0     C18509   9.159  11.867  10.167 -0.5193  0.1693  0.5151
  138MOL0     C18510   9.281  11.823  10.251 -0.0108 -0.2918  0.1101
  138MOL0     C18511   9.387  11.940  10.248 -0.2408  0.2158 -0.3250
  138MOL0     N18512   9.496  11.902  10.345 -0.1243 -0.2174  0.3598
  138MOL0     C18513   9.611  11.838  10.306  0.5736  0.1585  0.1660
  138MOL0     C18514   9.660  11.771  10.410 -0.0933 -0.1645  0.5813
  138MOL0     C18515   9.788  11.700  10.411  0.0109 -0.1385 -0.5588
  138MOL0     C18516   9.905  11.769  10.499 -0.1319 -0.7090  1.1681
  138MOL0     C18517   9.962  11.898  10.427 -0.0565  0.1305  0.7553
  138MOL0     C18518  10.112  11.905  10.455  0.3522  0.6688  0.1867
  138MOL0     O18519  10.189  11.794  10.390  0.1582  0.0300 -0.2087
  138MOL0     C18520  10.324  11.812  10.374 -0.0140 -0.2986 -0.1264
  138MOL0     C18521  10.384  11.720  10.296  0.1317  0.0223 -0.1664
  138MOL0     C18522  10.523  11.723  10.264  1.5434 -0.1235 -0.1456
  138MOL0     C18523  10.569  11.619  10.173  0.7032  0.8465  0.3250
  138MOL0     C18524  10.596  11.830  10.313  0.4114  0.2946  0.1227
  138MOL0     C18525  10.733  11.866  10.259  0.6867 -0.1736  0.0068
  138MOL0     O18526  10.823  11.936  10.331  0.2765  0.5780 -0.5082
  138MOL0     C18527  10.912  12.007  10.256 -0.0257 -0.6192 -0.6638
  138MOL0     C18528  10.876  12.091  10.151 -0.1151 -0.0276 -0.2951
  138MOL0     C18529  10.971  12.139  10.061  1.2801  0.7909 -0.1753
  138MOL0     C18530  11.113  12.126  10.084  0.1586  1.1997 -0.5126
  138MOL0     O18531  11.206  12.165   9.985 -0.1032 -0.6717 -0.0888
  138MOL0     C18532  11.340  12.110  10.000 -0.4329 -0.7475  1.2834
  138MOL0     C18533  11.446  12.159   9.886 -0.6550 -1.0018 -0.2477
  138MOL0     C18534  11.594  12.130   9.925  0.6379 -1.5156  0.1863
  138MOL0     C18535  11.666  12.247   9.986  1.1093 -0.3659 -0.8816
  138MOL0     C18536  11.799  12.200  10.049 -0.1785 -0.7901 -0.4702
  138MOL0     C18537  11.853  12.290  10.163 -0.7845 -0.6622  0.9213
  138MOL0     C18538  11.955  12.203  10.246 -0.0667 -0.1021 -0.0910
  138MOL0     C18539  12.052  12.288  10.323  0.0093 -0.1954  0.2215
  138MOL0    Cl18540  12.192  12.346  10.232 -0.6232  0.0503  0.0312
  138MOL0     C18541  11.149  12.056  10.203 -0.4962  0.0085  0.3394
  138MOL0     C18542  11.049  11.997  10.285 -0.2509 -0.1242  0.3456
  138MOL0     O18543  10.743  11.828  10.145  0.2319  0.1031  0.5184
  138MOL0     C18544  10.543  11.913  10.410 -0.7980  0.0211 -0.3049
  138MOL0     C18545  10.405  11.906  10.431  0.0821  0.0387  0.1723
  138MOL0     N18546   9.568  11.788  10.514 -0.4614  0.1033  0.0221
  138MOL0     N18547   9.475  11.862  10.474 -0.5105 -0.5826 -0.5532
  138MOL0     C18548   8.234  11.587  10.064  0.1507 -0.6429  0.4129
  138MOL0     C18549   8.123  11.508  10.029 -0.3741  0.5174  0.7140
  138MOL0     C18550   7.805  11.307   9.818 -0.1523  1.0217 -1.0177
  138MOL0     C18551   7.757  11.223   9.923  0.2969  0.1294  0.5238
  138MOL0     C18552   7.634  11.155   9.912 -0.5070  0.2383 -0.2142
  138MOL0     C18553   7.549  11.172   9.803  0.0992  0.2407 -0.6383
  138MOL0     O18554   7.422  11.117   9.799  0.6038  0.3147 -0.4301
  138MOL0     C18555   7.347  11.079   9.924 -0.5523 -0.2034 -0.7725
  138MOL0     C18556   7.213  11.019   9.884  0.1673  0.6833 -0.0064
  138MOL0     C18557   7.158  10.910   9.980  0.0146  0.6520  0.6198
  138MOL0     C18558   7.109  10.955  10.123 -0.0580  0.1853 -0.3877
  138MOL0     C18559   6.970  11.004  10.123  0.2330  0.2689 -1.2205
  138MOL0     C18560   6.859  11.048  10.128  0.5374 -0.1558 -0.2090
  138MOL0     C18561   7.597  11.254   9.700  0.1476 -0.7619 -0.5706
  138MOL0     C18562   7.721  11.318   9.706  0.1490  0.1630 -0.4722
  138MOL0     H18563   8.292  11.304   9.826  1.7870  1.1547 -0.4037
  138MOL0     H18564   8.481  11.445   9.896 -0.8187  0.0468 -2.1802
  138MOL0     H18565   8.578  11.568  10.212  2.3857 -0.7980 -0.4023
  138MOL0     H18566   8.623  11.513  10.061 -1.9006 -2.0755  1.0762
  138MOL0     H18567   8.700  11.727   9.986 -0.1784 -1.2105 -0.0275
  138MOL0     H18568   8.673  11.792  10.158  0.7869  0.7028 -0.6254
  138MOL0     H18569   8.851  11.585  10.195  1.9040  0.2996 -1.5464
  138MOL0     H18570   8.872  11.623  10.018 -2.0793 -2.5468 -0.7532
  138MOL0     H18571   8.912  11.871  10.107  2.8545  1.7438  2.4406
  138MOL0     H18572   8.907  11.800  10.262  4.1284  1.9073  0.2245
  138MOL0     H18573   9.083  11.662  10.204  0.8081  0.8684  1.1254
  138MOL0     H18574   9.090  11.719  10.033 -1.0381  3.4150 -0.5899
  138MOL0     H18575   9.188  11.924  10.079  0.7134  0.3340  1.0140
  138MOL0     H18576   9.090  11.933  10.221 -3.0169  1.1737 -3.4395
  138MOL0     H18577   9.246  11.786  10.348 -2.0194  1.3995  0.1206
  138MOL0     H18578   9.334  11.745  10.196 -1.7749 -0.1549 -1.9225
  138MOL0     H18579   9.344  12.037  10.273 -1.5582 -0.3742 -0.2256
  138MOL0     H18580   9.442  11.948  10.153 -1.4417 -0.4003 -1.0985
  138MOL0     H18581   9.654  11.839  10.207 -1.3526  3.2016 -0.7890
  138MOL0     H18582   9.766  11.602  10.454 -2.1398  1.2175  1.6498
  138MOL0     H18583   9.836  11.672  10.316 -1.5578 -4.1553 -0.3646
  138MOL0     H18584   9.991  11.704  10.519  0.4871 -0.0568  0.6508
  138MOL0     H18585   9.857  11.782  10.597  2.9759 -2.3003  3.0440
  138MOL0     H18586   9.904  11.975  10.478  0.4605  0.4787  0.8238
  138MOL0     H18587   9.938  11.902  10.320 -0.6715  4.5685  0.8600
  138MOL0     H18588  10.127  11.906  10.563  1.2402 -0.8806  0.1010
  138MOL0     H18589  10.149  12.001  10.417  0.5612  0.1496 -0.9814
  138MOL0     H18590  10.317  11.645  10.255 -1.2105  0.3296  1.3540
  138MOL0     H18591  10.533  11.620  10.070  2.7486 -1.1257 -0.4954
  138MOL0     H18592  10.678  11.605  10.169  0.5357 -0.1636 -2.6732
  138MOL0     H18593  10.536  11.528  10.225  4.3871  0.9625  3.3545
  138MOL0     H18594  10.770  12.113  10.151 -0.1288 -0.0681  0.7944
  138MOL0     H18595  10.945  12.194   9.971 -1.3427 -1.8418 -1.1965
  138MOL0     H18596  11.381  12.138  10.098 -0.6480 -1.9285  1.7354
  138MOL0     H18597  11.337  12.000   9.992  2.0714 -0.7423 -1.8343
  138MOL0     H18598  11.421  12.102   9.796  0.2774 -1.9483  0.0667
  138MOL0     H18599  11.436  12.267   9.871 -1.0317 -1.1702 -1.2903
  138MOL0     H18600  11.649  12.105   9.834  2.4556  1.5706  0.2693
  138MOL0     H18601  11.601  12.044   9.992  1.2000 -0.4633  1.5401
  138MOL0     H18602  11.681  12.326   9.912  2.0122  0.0992 -0.2217
  138MOL0     H18603  11.599  12.283  10.064  1.0357  0.0549 -1.1367
  138MOL0     H18604  11.873  12.184   9.969  2.1397 -1.4083  1.6767
  138MOL0     H18605  11.784  12.100  10.092 -0.3575 -1.0977 -1.2284
  138MOL0     H18606  11.908  12.368  10.108 -1.0078 -1.1043  0.0514
  138MOL0     H18607  11.782  12.334  10.233 -0.7832  2.1953 -0.7096
  138MOL0     H18608  12.011  12.146  10.171  1.4540  0.9182  0.2269
  138MOL0     H18609  11.899  12.134  10.310 -0.7253  0.9471  0.4830
  138MOL0     H18610  12.093  12.219  10.398 -0.0201 -0.7539 -0.2691
  138MOL0     H18611  12.002  12.370  10.377 -2.5598 -0.1451 -2.0227
  138MOL0     H18612  11.248  12.014  10.215  0.0291  0.2738 -2.5250
  138MOL0     H18613  11.092  11.926  10.355  1.9529  1.7604  0.9948
  138MOL0     H18614  10.601  11.977  10.476 -0.7513  1.5918 -1.7882
  138MOL0     H18615  10.357  11.981  10.492  2.1692  0.4060  1.4781
  138MOL0     H18616   8.225  11.672  10.132 -0.3644 -1.5404  1.5074
  138MOL0     H18617   8.022  11.504  10.069  0.5935 -2.1932  3.2191
  138MOL0     H18618   7.821  11.201  10.008  1.5930 -1.7273 -0.8389
  138MOL0     H18619   7.598  11.088   9.990  1.1056 -0.7755 -0.2951
  138MOL0     H18620   7.396  11.005   9.987  0.2914  0.8882 -0.1009
  138MOL0     H18621   7.327  11.172   9.979 -3.3906 -2.0876  1.6759
  138MOL0     H18622   7.227  10.985   9.781  2.6534  1.1947  0.1015
  138MOL0     H18623   7.148  11.106   9.877  1.0340  1.3449 -0.0629
  138MOL0     H18624   7.240  10.839   9.990  0.0312  0.6162  0.2438
  138MOL0     H18625   7.079  10.850   9.933  1.8371 -0.9661 -0.4931
  138MOL0     H18626   7.174  11.023  10.178  0.9450  0.1363 -1.4660
  138MOL0     H18627   7.103  10.866  10.185  1.3008  1.9253  2.4138
  138MOL0     H18628   6.760  11.090  10.133  1.3910  1.8816  0.8163
  138MOL0     H18629   7.536  11.287   9.616  0.4448 -1.9225 -1.2763
  138MOL0     H18630   7.745  11.386   9.625 -2.5564 -0.8803 -2.2817
  139MOL0     O18631   8.172   4.331   5.406  0.0814 -0.4456  0.3087
  139MOL0     C18632   8.242   4.372   5.494 -0.6520 -0.3281 -0.8099
  139MOL0     O18633   8.308   4.496   5.495  0.0383 -0.1997 -1.1204
  139MOL0     C18634   8.286   4.572   5.382 -0.4517 -0.2998 -0.1835
  139MOL0     C18635   8.324   4.528   5.257 -0.4867 -0.1193 -0.1649
  139MOL0     C18636   8.287   4.599   5.143  0.0456  0.5482  0.0754
  139MOL0     C18637   8.224   4.725   5.151 -0.2629 -0.4029 -0.3278
  139MOL0     O18638   8.192   4.795   5.039  0.5301  0.3118  0.2940
  139MOL0     C18639   8.068   4.747   4.977 -0.1899 -1.4634 -1.1219
  139MOL0     C18640   8.033   4.834   4.854  0.3751  0.4107  0.5228
  139MOL0     C18641   8.148   4.820   4.755  0.3005  0.3405 -0.4210
  139MOL0     C18642   8.133   4.919   4.645  0.9987 -0.0330 -0.4281
  139MOL0     C18643   8.192   4.873   4.514 -0.7449 -0.4219  0.4331
  139MOL0     C18644   8.161   4.958   4.389  0.5170  0.0777  0.0558
  139MOL0     C18645   8.233   5.090   4.392 -0.1331 -0.5780  0.5840
  139MOL0     C18646   8.234   5.170   4.255  0.4808  0.7080 -0.1547
  139MOL0     N18647   8.099   5.184   4.199 -0.6724  0.6245  0.3452
  139MOL0     C18648   8.035   5.304   4.187  0.3484 -0.0765  1.2073
  139MOL0     C18649   7.930   5.287   4.103  0.6866  1.5269 -0.9373
  139MOL0     C18650   7.875   5.403   4.036 -0.2220 -0.0881 -0.2277
  139MOL0     C18651   7.745   5.378   3.958 -0.3379 -0.2061 -0.2909
  139MOL0     C18652   7.689   5.508   3.912  1.1591 -0.6126  0.3884
  139MOL0     C18653   7.568   5.494   3.813  0.1684 -1.0622  0.3790
  139MOL0     O18654   7.443   5.487   3.886  0.3034  0.1407  0.0897
  139MOL0     C18655   7.325   5.468   3.811 -0.4190  0.0917 -0.0150
  139MOL0     C18656   7.212   5.458   3.889  0.6539 -0.0004  0.3099
  139MOL0     C18657   7.086   5.439   3.829  0.2004  1.2435  0.7555
  139MOL0     C18658   6.975   5.419   3.923 -0.3122 -0.0478  0.5167
  139MOL0     C18659   7.072   5.440   3.683 -0.1212 -0.9159 -0.0374
  139MOL0     C18660   6.948   5.420   3.614 -0.1579  0.3973 -0.2071
  139MOL0     O18661   6.954   5.452   3.481 -0.5158  0.3506  0.1095
  139MOL0     C18662   6.841   5.448   3.401 -0.5690  0.0524 -0.0396
  139MOL0     C18663   6.845   5.397   3.269 -0.1490  0.2699 -0.8852
  139MOL0     C18664   6.735   5.397   3.186  0.2203 -1.3751  0.0504
  139MOL0     C18665   6.610   5.444   3.224 -0.4977  0.4596 -0.6608
  139MOL0     O18666   6.509   5.442   3.136 -0.0977  0.3012 -0.4791
  139MOL0     C18667   6.511   5.348   3.028 -0.5899  0.5313  0.0122
  139MOL0     C18668   6.379   5.348   2.948  0.3151  0.2039 -1.2508
  139MOL0     C18669   6.337   5.483   2.883  1.5407 -0.0266  1.1908
  139MOL0     C18670   6.224   5.551   2.975 -0.3717  0.5267  0.7342
  139MOL0     C18671   6.125   5.642   2.891 -0.4840 -0.7200  0.4525
  139MOL0     C18672   6.034   5.721   2.983 -1.5006 -0.1093  0.1154
  139MOL0     C18673   5.936   5.638   3.072  0.1095  0.4192 -0.0741
  139MOL0     C18674   5.811   5.622   2.979 -0.7086  0.3682  0.1237
  139MOL0    Cl18675   5.754   5.446   2.995  0.5650 -0.0228 -0.6069
  139MOL0     C18676   6.600   5.502   3.353 -0.1014 -0.3992  0.2913
  139MOL0     C18677   6.716   5.504   3.434 -0.9758 -0.0620  0.0537
  139MOL0     O18678   6.849   5.370   3.674  0.8301 -0.6035 -0.2499
  139MOL0     C18679   7.194   5.451   3.615 -0.5898  0.6877 -0.3170
  139MOL0     C18680   7.315   5.472   3.671  1.0675 -0.0487 -0.6478
  139MOL0     N18681   7.930   5.150   4.063 -0.0018  0.0998 -0.4348
  139MOL0     N18682   8.032   5.095   4.127  0.2055 -0.6544 -0.8053
  139MOL0     C18683   8.203   4.779   5.281 -0.4471 -0.2791 -0.5578
  139MOL0     C18684   8.232   4.699   5.394 -1.2152 -0.1756 -0.2468
  139MOL0     C18685   8.258   4.281   5.601 -0.2498  0.9042  1.2236
  139MOL0     C18686   8.314   4.331   5.718  0.0318 -0.4781 -0.2461
  139MOL0     C18687   8.294   4.260   5.838  0.3161 -0.5070  0.2515
  139MOL0     C18688   8.228   4.134   5.847  0.4366  0.0082  0.2070
  139MOL0     O18689   8.223   4.068   5.967  0.0905  0.3524  0.2945
  139MOL0     C18690   8.125   4.111   6.061  0.4923 -0.7981 -0.7525
  139MOL0     C18691   8.093   4.014   6.168 -0.1573  0.2813  0.3556
  139MOL0     C18692   8.223   3.953   6.227 -0.1928 -0.0762  0.6721
  139MOL0     C18693   8.349   4.037   6.257  0.1870 -0.4490  0.1001
  139MOL0     C18694   8.321   4.121   6.380  0.0067  0.2146  0.1655
  139MOL0     C18695   8.288   4.168   6.487  0.3249 -0.4197 -0.1451
  139MOL0     C18696   8.171   4.083   5.730 -0.4089 -0.2440  1.1404
  139MOL0     C18697   8.182   4.157   5.600  0.8545  0.0471 -0.1591
  139MOL0     H18698   8.380   4.436   5.246  1.8199  1.0874  0.6692
  139MOL0     H18699   8.317   4.565   5.044 -0.1224  0.6724 -0.0207
  139MOL0     H18700   8.075   4.641   4.950 -3.0609 -1.6078 -1.5744
  139MOL0     H18701   7.980   4.755   5.041 -1.0352 -2.9854 -2.0488
  139MOL0     H18702   7.933   4.808   4.816 -0.2500  1.6958  1.2303
  139MOL0     H18703   8.023   4.940   4.878  0.9600  0.9513 -1.4081
  139MOL0     H18704   8.251   4.820   4.791  0.8729 -0.3975 -1.9519
  139MOL0     H18705   8.129   4.718   4.723 -1.6898  0.4502  0.2432
  139MOL0     H18706   8.028   4.941   4.624  0.0552 -0.9441  2.7437
  139MOL0     H18707   8.175   5.018   4.663  1.4587  0.0558 -1.8541
  139MOL0     H18708   8.301   4.874   4.526 -0.9141 -0.5627  2.4805
  139MOL0     H18709   8.155   4.770   4.505  1.5249 -1.4622  1.9877
  139MOL0     H18710   8.184   4.908   4.295 -0.5995 -1.1396  0.3936
  139MOL0     H18711   8.053   4.976   4.386  0.1652 -1.5762  1.0943
  139MOL0     H18712   8.191   5.158   4.466 -0.1626 -0.7250  0.7041
  139MOL0     H18713   8.339   5.074   4.412  0.3158 -0.6210 -1.5162
  139MOL0     H18714   8.299   5.121   4.181 -1.2020 -0.6507 -0.8030
  139MOL0     H18715   8.274   5.271   4.271  2.7535  0.2838 -2.4106
  139MOL0     H18716   8.080   5.399   4.212 -3.2228  1.6497  1.7642
  139MOL0     H18717   7.852   5.480   4.110 -3.5087  0.2462 -1.4151
  139MOL0     H18718   7.949   5.440   3.965  1.1094  1.8029  2.0214
  139MOL0     H18719   7.670   5.321   4.014 -3.5016  0.0394 -3.8172
  139MOL0     H18720   7.770   5.318   3.870  1.8949 -0.3239  0.3743
  139MOL0     H18721   7.767   5.566   3.862  1.5118 -0.9576  0.5365
  139MOL0     H18722   7.659   5.570   3.997 -0.8237  0.2943 -0.8795
  139MOL0     H18723   7.580   5.417   3.736  0.4509 -3.0066  2.2421
  139MOL0     H18724   7.566   5.588   3.758  1.6622 -1.4456 -0.3961
  139MOL0     H18725   7.229   5.472   3.996 -2.0634  1.7830  0.6222
  139MOL0     H18726   6.941   5.315   3.918  1.5626 -0.8496  2.6915
  139MOL0     H18727   6.999   5.434   4.028  1.3153 -0.9111  0.2967
  139MOL0     H18728   6.889   5.482   3.898  0.0955  0.0826 -0.6116
  139MOL0     H18729   6.938   5.368   3.220 -1.7977 -1.7607 -3.0700
  139MOL0     H18730   6.744   5.360   3.085 -3.1671 -3.0786  0.2406
  139MOL0     H18731   6.592   5.376   2.960  0.7489  0.1006  1.3820
  139MOL0     H18732   6.526   5.247   3.067 -1.0614  0.5203  0.1680
  139MOL0     H18733   6.386   5.281   2.862  3.3879  0.8806 -1.6557
  139MOL0     H18734   6.305   5.307   3.017  0.3706 -1.4942 -2.1622
  139MOL0     H18735   6.276   5.467   2.793  2.6385  1.3062  0.1707
  139MOL0     H18736   6.417   5.555   2.861  1.2682 -0.8399 -3.7610
  139MOL0     H18737   6.162   5.474   3.021  0.4250 -2.8332 -3.2780
  139MOL0     H18738   6.279   5.603   3.054 -1.0042  1.7071  0.4278
  139MOL0     H18739   6.058   5.583   2.828 -0.1539 -1.9641  1.2412
  139MOL0     H18740   6.181   5.707   2.822 -1.2656 -0.5029  0.0081
  139MOL0     H18741   6.116   5.765   3.040 -0.2826 -0.9164 -0.9411
  139MOL0     H18742   5.986   5.798   2.924  2.3408  2.2561 -0.2500
  139MOL0     H18743   5.920   5.698   3.162  0.8999 -1.0283  1.0774
  139MOL0     H18744   5.967   5.540   3.110 -1.1949  1.0933  3.0364
  139MOL0     H18745   5.832   5.645   2.874 -1.4966  1.5427  0.2132
  139MOL0     H18746   5.735   5.693   3.014 -1.2333 -0.9030  1.6928
  139MOL0     H18747   6.510   5.555   3.382  1.0795  0.1677  3.3920
  139MOL0     H18748   6.720   5.559   3.528  4.2674 -2.3867  1.5288
  139MOL0     H18749   7.189   5.471   3.509 -1.8692  0.6213 -0.2864
  139MOL0     H18750   7.398   5.479   3.602  0.5047 -0.0432 -1.3451
  139MOL0     H18751   8.167   4.881   5.293  1.4348  0.3430  0.1078
  139MOL0     H18752   8.202   4.736   5.491 -2.2510 -0.3549 -0.4786
  139MOL0     H18753   8.347   4.434   5.726 -3.2033  0.5842  1.2297
  139MOL0     H18754   8.337   4.295   5.931  2.5742  1.0015 -1.2605
  139MOL0     H18755   8.169   4.199   6.108 -2.0387  0.1730 -0.0354
  139MOL0     H18756   8.040   4.157   6.010 -0.3886 -0.3775  1.0099
  139MOL0     H18757   8.037   3.928   6.129  0.3452 -1.0867  2.4419
  139MOL0     H18758   8.033   4.071   6.240  0.1263  1.5069 -0.3514
  139MOL0     H18759   8.271   3.891   6.151 -2.9072 -0.1871 -1.0713
  139MOL0     H18760   8.187   3.895   6.313 -0.0922 -0.0390  0.7399
  139MOL0     H18761   8.381   4.097   6.172 -1.6089  1.8415  0.9448
  139MOL0     H18762   8.430   3.965   6.275  1.4677  0.4088 -1.8707
  139MOL0     H18763   8.255   4.220   6.574 -1.6278  2.4676 -2.4146
  139MOL0     H18764   8.109   3.994   5.725  1.0433 -1.2415 -1.3053
  139MOL0     H18765   8.129   4.124   5.512 -0.2659  1.6170 -0.1157
  140MOL0     O18766   5.122   4.796  11.479  0.0769  0.0760 -0.1586
  140MOL0     C18767   5.243   4.821  11.468 -0.7202  0.0972  0.7146
  140MOL0     O18768   5.303   4.940  11.494  0.0573  0.6132  0.0529
  140MOL0     C18769   5.231   5.055  11.497  0.2099 -0.2620  0.4756
  140MOL0     C18770   5.301   5.153  11.434  0.1676  0.1837  0.2334
  140MOL0     C18771   5.245   5.285  11.419 -0.7059  1.5690  0.5785
  140MOL0     C18772   5.120   5.320  11.473 -0.1812  0.6359  0.6350
  140MOL0     O18773   5.054   5.438  11.457 -0.0551 -0.0453  0.4332
  140MOL0     C18774   5.119   5.550  11.400  0.6077 -0.4610 -0.3550
  140MOL0     C18775   5.172   5.626  11.526 -0.2777  0.0753  0.3839
  140MOL0     C18776   5.320   5.591  11.568  0.2219  0.1810  0.2285
  140MOL0     C18777   5.349   5.677  11.697  0.4699 -0.4497 -0.0347
  140MOL0     C18778   5.476   5.628  11.754  0.2393 -0.0097 -0.1237
  140MOL0     C18779   5.523   5.733  11.852 -0.3572 -0.5216 -0.9677
  140MOL0     C18780   5.642   5.682  11.923  0.4547  0.7291 -0.1230
  140MOL0     C18781   5.700   5.782  12.024  0.6361  0.0967  0.5372
  140MOL0     N18782   5.748   5.910  11.988  1.0793  0.6842 -0.6330
  140MOL0     C18783   5.813   5.946  11.875 -0.3888 -0.7523 -0.2128
  140MOL0     C18784   5.822   6.080  11.886 -0.1612  0.1605 -0.2028
  140MOL0     C18785   5.903   6.158  11.782  1.2501  0.3064 -1.1331
  140MOL0     C18786   5.923   6.304  11.829  0.1250 -0.0541  0.1728
  140MOL0     C18787   6.023   6.371  11.730  1.0300  1.4880  0.4929
  140MOL0     C18788   6.029   6.513  11.769 -0.4578  0.2360 -0.2870
  140MOL0     O18789   6.081   6.605  11.668 -0.1370  0.5301 -0.3012
  140MOL0     C18790   6.207   6.592  11.630  0.3713  0.7398  0.3958
  140MOL0     C18791   6.305   6.566  11.718 -1.0597 -0.0829 -1.1486
  140MOL0     C18792   6.438   6.571  11.686 -1.1381  0.4571  0.2421
  140MOL0     C18793   6.543   6.551  11.796  0.8811  0.4131  0.7837
  140MOL0     C18794   6.476   6.598  11.553  1.4015 -0.3557 -0.1081
  140MOL0     C18795   6.619   6.616  11.507 -0.2805  0.6116  0.8584
  140MOL0     O18796   6.637   6.719  11.418  0.6158  0.0148  0.9424
  140MOL0     C18797   6.763   6.748  11.364 -0.9829  0.5577 -0.4350
  140MOL0     C18798   6.864   6.815  11.434  0.3323 -0.4327 -0.1734
  140MOL0     C18799   6.984   6.846  11.373 -0.2621  0.8863  0.5975
  140MOL0     C18800   7.014   6.801  11.239 -0.4292 -0.0976  0.7299
  140MOL0     O18801   7.137   6.821  11.174 -0.8868 -0.3869  0.4100
  140MOL0     C18802   7.219   6.935  11.206  1.0304 -0.4152  0.8990
  140MOL0     C18803   7.368   6.892  11.215  0.6515  0.5825  0.0392
  140MOL0     C18804   7.401   6.798  11.337  0.4164 -0.6067  0.5483
  140MOL0     C18805   7.361   6.652  11.317  0.2351  0.1300 -0.9697
  140MOL0     C18806   7.472   6.566  11.355  1.1599 -0.3892  0.7184
  140MOL0     C18807   7.438   6.415  11.357  0.3177  0.1201  0.4210
  140MOL0     C18808   7.558   6.335  11.407  0.4478  0.3877  0.5879
  140MOL0     C18809   7.532   6.189  11.355 -0.4100 -0.5196 -0.8415
  140MOL0    Cl18810   7.683   6.101  11.367 -0.2641  0.0319 -0.2102
  140MOL0     C18811   6.914   6.741  11.172  0.3649 -0.6928 -0.2038
  140MOL0     C18812   6.785   6.713  11.230 -0.1808 -0.4061 -0.1189
  140MOL0     O18813   6.707   6.537  11.539 -0.1164  0.4709  0.0262
  140MOL0     C18814   6.373   6.631  11.459 -0.2902 -0.0286  0.0292
  140MOL0     C18815   6.238   6.618  11.499  0.3546 -0.1275  0.1378
  140MOL0     N18816   5.772   6.124  12.005  0.8424  0.1969 -0.8358
  140MOL0     N18817   5.720   6.023  12.063  0.0819 -0.5557  0.0899
  140MOL0     C18818   5.052   5.220  11.541 -0.0410  0.2036  0.4388
  140MOL0     C18819   5.109   5.089  11.555  0.6559  0.4958 -0.6479
  140MOL0     C18820   5.339   4.715  11.434 -0.1184  0.4742 -1.0293
  140MOL0     C18821   5.475   4.740  11.414  0.5054 -0.1238  0.5315
  140MOL0     C18822   5.559   4.632  11.375 -0.1442  0.0103 -0.1808
  140MOL0     C18823   5.510   4.502  11.372 -0.6356 -1.5343  0.8923
  140MOL0     O18824   5.574   4.392  11.326 -0.6286  0.0539  0.1244
  140MOL0     C18825   5.680   4.413  11.229 -0.7415  0.1315  1.0737
  140MOL0     C18826   5.742   4.280  11.190 -0.6333  0.3985 -0.9445
  140MOL0     C18827   5.660   4.198  11.085  0.0205 -0.1122 -0.0579
  140MOL0     C18828   5.566   4.098  11.143  0.3055  1.1863 -0.0222
  140MOL0     C18829   5.499   4.022  11.043 -0.1325 -1.1717  0.6910
  140MOL0     C18830   5.419   3.966  10.963 -0.8480 -0.3836 -0.4759
  140MOL0     C18831   5.373   4.481  11.399  1.0654  0.4594 -0.2460
  140MOL0     C18832   5.286   4.587  11.420 -0.7552  0.4403 -0.0748
  140MOL0     H18833   5.404   5.132  11.404 -0.5284  0.4117 -2.6000
  140MOL0     H18834   5.309   5.364  11.378  1.4261 -0.1254  0.4358
  140MOL0     H18835   5.200   5.532  11.330  0.5325 -2.0415 -0.0701
  140MOL0     H18836   5.047   5.623  11.361  1.7305  2.1473  2.0695
  140MOL0     H18837   5.164   5.735  11.522  1.4477  0.2454  0.7932
  140MOL0     H18838   5.103   5.609  11.609  0.4041  1.3535  1.2531
  140MOL0     H18839   5.316   5.486  11.600 -4.3506 -0.8690 -2.7324
  140MOL0     H18840   5.397   5.612  11.493  0.0081 -1.1585 -0.3998
  140MOL0     H18841   5.350   5.784  11.672 -0.7681 -0.1298  1.1593
  140MOL0     H18842   5.267   5.669  11.769  0.9159 -2.9432  0.2778
  140MOL0     H18843   5.448   5.537  11.806 -3.8477  1.7226  1.0950
  140MOL0     H18844   5.549   5.615  11.673 -0.4486 -1.5291 -0.5258
  140MOL0     H18845   5.551   5.828  11.805 -1.2625 -0.5690 -1.6339
  140MOL0     H18846   5.436   5.748  11.917  0.4566  1.3634 -0.2395
  140MOL0     H18847   5.621   5.584  11.965  2.1710 -0.8800 -2.7228
  140MOL0     H18848   5.726   5.659  11.857  0.0487 -2.6916  0.3667
  140MOL0     H18849   5.789   5.730  12.062 -0.5694 -1.8994  0.7610
  140MOL0     H18850   5.631   5.798  12.107 -2.1389  0.2048 -1.6403
  140MOL0     H18851   5.835   5.871  11.799 -2.9043  0.8809 -2.7370
  140MOL0     H18852   6.000   6.108  11.769  2.8165  3.0568 -0.7875
  140MOL0     H18853   5.851   6.153  11.686  0.9411  0.1906 -0.9592
  140MOL0     H18854   5.943   6.322  11.934 -2.2227 -0.7292  0.8028
  140MOL0     H18855   5.824   6.349  11.820 -0.1573 -0.4621  1.1264
  140MOL0     H18856   5.976   6.371  11.632  1.2216  1.9345  0.3998
  140MOL0     H18857   6.121   6.323  11.719 -1.1784 -3.0979 -1.9711
  140MOL0     H18858   6.090   6.505  11.860  3.2702 -1.9636 -2.6826
  140MOL0     H18859   5.929   6.549  11.794  0.4829  2.7354  0.2024
  140MOL0     H18860   6.281   6.567  11.824 -1.2913  1.9738 -1.1730
  140MOL0     H18861   6.612   6.635  11.812 -1.1016  1.7340  3.1679
  140MOL0     H18862   6.504   6.534  11.897  2.3456 -1.6167  1.0623
  140MOL0     H18863   6.594   6.457  11.774 -1.8055 -1.4657  2.1196
  140MOL0     H18864   6.859   6.832  11.541  3.7998 -0.4526  0.1097
  140MOL0     H18865   7.059   6.900  11.430  1.2831  0.0776 -0.5965
  140MOL0     H18866   7.209   7.010  11.128 -1.4101 -0.1507  1.3871
  140MOL0     H18867   7.193   6.983  11.301  0.7990  1.6620 -0.1606
  140MOL0     H18868   7.404   6.861  11.117  0.0998  0.1092 -0.0180
  140MOL0     H18869   7.420   6.986  11.231  3.4253 -1.0237  1.1598
  140MOL0     H18870   7.356   6.837  11.429 -1.5228  1.5455 -1.1777
  140MOL0     H18871   7.509   6.804  11.350  0.6347 -1.3426 -0.7300
  140MOL0     H18872   7.272   6.635  11.378 -1.2198 -0.2661 -3.1091
  140MOL0     H18873   7.335   6.625  11.215 -0.3380  1.5991 -1.2454
  140MOL0     H18874   7.516   6.590  11.452  1.8428 -0.9965  0.5711
  140MOL0     H18875   7.560   6.577  11.291  1.6623 -1.8065  1.1153
  140MOL0     H18876   7.345   6.397  11.412  1.1320 -2.2957  1.1255
  140MOL0     H18877   7.399   6.388  11.258 -3.1102  2.8062  0.8475
  140MOL0     H18878   7.573   6.338  11.515  1.7290 -1.9948  0.5574
  140MOL0     H18879   7.648   6.373  11.357 -1.6876  2.2450 -2.1530
  140MOL0     H18880   7.502   6.183  11.250  1.3015 -3.1588 -1.2855
  140MOL0     H18881   7.454   6.127  11.400  1.0869  0.2383  3.1879
  140MOL0     H18882   6.936   6.716  11.069 -1.4666  0.7669 -0.9904
  140MOL0     H18883   6.715   6.658  11.168 -1.3431 -1.6105  2.1470
  140MOL0     H18884   6.399   6.664  11.359  3.8747  0.2883  1.0332
  140MOL0     H18885   6.163   6.648  11.426 -0.8760 -0.5048  1.2024
  140MOL0     H18886   4.956   5.240  11.588 -0.4030 -0.6215  0.0530
  140MOL0     H18887   5.055   5.009  11.606  1.9244 -0.4819 -0.8010
  140MOL0     H18888   5.521   4.838  11.413  0.6393 -0.1849  0.6075
  140MOL0     H18889   5.666   4.646  11.364 -0.4884  2.5275 -1.1489
  140MOL0     H18890   5.646   4.475  11.145  0.4965 -0.3293  0.1855
  140MOL0     H18891   5.752   4.478  11.278 -0.5188  0.3316  0.4961
  140MOL0     H18892   5.764   4.211  11.271  1.9037 -0.9829 -2.6863
  140MOL0     H18893   5.836   4.315  11.145  1.0723 -2.4047  0.1435
  140MOL0     H18894   5.730   4.144  11.021 -2.6416 -2.3323 -1.3426
  140MOL0     H18895   5.611   4.279  11.030  0.0114  2.8310  3.8713
  140MOL0     H18896   5.489   4.140  11.209  0.7247  0.5379  0.8890
  140MOL0     H18897   5.628   4.023  11.193 -2.1862 -0.7725  0.3623
  140MOL0     H18898   5.359   3.892  10.915 -0.7231 -1.0517  0.3743
  140MOL0     H18899   5.347   4.376  11.383 -4.2356  1.5671 -0.7974
  140MOL0     H18900   5.179   4.568  11.417 -0.6340 -0.3352  0.1964
  141MOL0     O18901   7.076   9.732   1.604  0.3904  0.6410  0.6214
  141MOL0     C18902   7.131   9.653   1.675  0.5791  0.6174  0.5328
  141MOL0     O18903   7.257   9.594   1.634  0.5247 -0.3821 -0.9654
  141MOL0     C18904   7.285   9.610   1.504  0.2537 -0.2434  0.2584
  141MOL0     C18905   7.237   9.509   1.414 -0.2553 -0.1952 -0.3330
  141MOL0     C18906   7.267   9.516   1.278 -0.8897 -0.0005 -0.1046
  141MOL0     C18907   7.343   9.615   1.220 -0.1477  0.4314  0.9081
  141MOL0     O18908   7.383   9.614   1.088  0.3642 -0.1105  0.4508
  141MOL0     C18909   7.317   9.540   0.986 -0.2461  0.3202 -0.3741
  141MOL0     C18910   7.370   9.392   0.968 -0.4473 -0.3124 -0.6198
  141MOL0     C18911   7.516   9.377   0.948 -0.4948  0.7065  0.2756
  141MOL0     C18912   7.567   9.232   0.954  0.5364 -0.4200  0.7294
  141MOL0     C18913   7.721   9.226   0.969 -0.2028 -0.3260 -0.2989
  141MOL0     C18914   7.766   9.088   0.913 -0.4751 -0.7126  0.1291
  141MOL0     C18915   7.914   9.065   0.931 -0.0483  0.0564  0.5546
  141MOL0     C18916   7.960   8.918   0.910  0.1582 -1.1720 -0.1180
  141MOL0     N18917   8.099   8.895   0.960  0.2219  0.1992 -0.6384
  141MOL0     C18918   8.211   8.980   0.937  0.0459 -0.1436  0.2750
  141MOL0     C18919   8.313   8.930   1.010  0.5874 -0.2710 -0.3865
  141MOL0     C18920   8.439   9.008   1.016 -1.0459 -0.5407 -0.0302
  141MOL0     C18921   8.521   8.972   0.889  0.3612  0.4360 -0.2642
  141MOL0     C18922   8.668   9.022   0.886  0.2185  0.2079 -0.0231
  141MOL0     C18923   8.773   8.937   0.961  0.4830 -0.3827 -0.4460
  141MOL0     O18924   8.910   8.981   0.929  0.0293 -0.0964 -0.1457
  141MOL0     C18925   8.957   9.111   0.964  0.2688  0.4749 -0.0961
  141MOL0     C18926   8.888   9.190   1.058  0.4553  0.1344  0.4971
  141MOL0     C18927   8.927   9.331   1.081 -0.0677 -0.2981  0.7284
  141MOL0     C18928   8.837   9.418   1.161  0.6857  0.4569  0.1953
  141MOL0     C18929   9.047   9.371   1.024  1.0188 -0.1272 -0.7826
  141MOL0     C18930   9.096   9.512   1.018  0.5615  0.2660  0.4392
  141MOL0     O18931   9.163   9.548   0.910  0.1151 -0.5874  0.4948
  141MOL0     C18932   9.227   9.670   0.901  0.7578 -0.3686 -0.0908
  141MOL0     C18933   9.294   9.735   1.008 -0.0174  0.6171 -0.1809
  141MOL0     C18934   9.340   9.865   0.982 -0.2068 -0.4462  0.7662
  141MOL0     C18935   9.334   9.923   0.851 -0.6538 -0.1366 -0.2200
  141MOL0     O18936   9.400  10.045   0.828 -0.1961 -0.2114 -0.7150
  141MOL0     C18937   9.439  10.127   0.941  0.6907 -0.6859  0.6356
  141MOL0     C18938   9.515  10.255   0.899  0.4142  0.2230 -0.6864
  141MOL0     C18939   9.504  10.309   0.759  0.2489 -0.0462 -0.1672
  141MOL0     C18940   9.640  10.365   0.717 -0.0737  0.5688 -1.0181
  141MOL0     C18941   9.649  10.418   0.570 -0.0493 -1.2346 -0.3032
  141MOL0     C18942   9.684  10.304   0.465  0.0674 -0.2666 -0.0234
  141MOL0     C18943   9.833  10.281   0.484 -0.0832 -0.4287  1.3223
  141MOL0     C18944   9.884  10.163   0.406  0.4253 -0.3572 -0.3439
  141MOL0    Cl18945  10.041  10.134   0.460  0.1102 -0.2367  0.2802
  141MOL0     C18946   9.269   9.848   0.751 -0.3097 -0.5594 -0.5100
  141MOL0     C18947   9.218   9.723   0.779  0.2418  0.0029  0.2487
  141MOL0     O18948   9.054   9.594   1.102  0.1716  0.3456 -0.6006
  141MOL0     C18949   9.119   9.283   0.933  0.6507 -0.0749 -0.7139
  141MOL0     C18950   9.073   9.146   0.914 -0.0591 -0.8882  0.1912
  141MOL0     N18951   8.274   8.816   1.074  0.2419  0.5034 -0.5178
  141MOL0     N18952   8.150   8.793   1.038  0.4086 -0.2161  0.9555
  141MOL0     C18953   7.399   9.707   1.313  0.1325  0.4307  0.5159
  141MOL0     C18954   7.367   9.712   1.448  0.0563  0.0710 -1.0203
  141MOL0     C18955   7.073   9.623   1.806 -0.7807 -0.5597  0.2650
  141MOL0     C18956   6.944   9.667   1.844 -1.0766 -0.7942 -0.2279
  141MOL0     C18957   6.907   9.638   1.974  0.4544 -1.2819 -0.7021
  141MOL0     C18958   6.981   9.567   2.065 -0.6496  0.0651  0.9945
  141MOL0     O18959   6.930   9.530   2.190  0.6181 -0.3564  0.1359
  141MOL0     C18960   6.792   9.539   2.222  0.1487  0.7442 -0.0265
  141MOL0     C18961   6.751   9.664   2.293  1.6153  0.2554  0.2156
  141MOL0     C18962   6.822   9.691   2.427 -0.2433 -0.4885 -0.0219
  141MOL0     C18963   6.776   9.601   2.547  0.5441  0.1798 -0.4479
  141MOL0     C18964   6.853   9.626   2.660  0.4616 -0.0465 -0.0673
  141MOL0     C18965   6.909   9.645   2.765  0.3114  0.4562  0.1349
  141MOL0     C18966   7.112   9.537   2.027  0.1026  0.3906 -0.1927
  141MOL0     C18967   7.154   9.566   1.895 -0.2502 -0.3987  0.2327
  141MOL0     H18968   7.188   9.434   1.475 -0.1784 -0.1615 -0.2294
  141MOL0     H18969   7.236   9.436   1.212  1.8210 -1.1240 -0.1611
  141MOL0     H18970   7.211   9.517   1.004  0.4392 -3.3345 -0.2267
  141MOL0     H18971   7.332   9.586   0.888  0.8428 -1.0232 -0.8772
  141MOL0     H18972   7.341   9.347   1.063 -2.6206 -2.0665 -2.0159
  141MOL0     H18973   7.313   9.336   0.894  1.6309 -1.8571 -1.1375
  141MOL0     H18974   7.550   9.405   0.848  0.9108  1.9411  1.0586
  141MOL0     H18975   7.560   9.445   1.021 -1.7852  4.2880 -1.9884
  141MOL0     H18976   7.529   9.173   1.039  0.5348 -2.0236 -0.3425
  141MOL0     H18977   7.528   9.199   0.857  1.3369  2.4662 -0.6557
  141MOL0     H18978   7.768   9.303   0.907  1.4045 -0.2257  0.9665
  141MOL0     H18979   7.764   9.251   1.067 -1.5189  1.5865 -0.1510
  141MOL0     H18980   7.716   9.016   0.977 -1.2256 -0.4093 -0.1113
  141MOL0     H18981   7.726   9.069   0.813  0.8627  0.6278 -0.7207
  141MOL0     H18982   7.971   9.135   0.868  0.7931  0.8488  2.1315
  141MOL0     H18983   7.948   9.086   1.033  0.6680  1.0475  0.1345
  141MOL0     H18984   7.954   8.888   0.805  2.1969  0.0101 -0.6177
  141MOL0     H18985   7.883   8.873   0.974  0.4540  1.9312  2.7210
  141MOL0     H18986   8.219   9.072   0.880  0.7419  1.2613  2.5198
  141MOL0     H18987   8.422   9.116   1.019 -0.0873 -0.4064  1.2882
  141MOL0     H18988   8.506   8.965   1.091  0.2689 -1.5734 -1.7417
  141MOL0     H18989   8.476   9.019   0.801 -1.2664  1.7515  1.2157
  141MOL0     H18990   8.516   8.864   0.870  0.4348  0.7242 -2.1812
  141MOL0     H18991   8.680   9.122   0.929 -0.7451 -0.7823  2.7321
  141MOL0     H18992   8.688   9.023   0.778  1.3992  1.1325  0.1826
  141MOL0     H18993   8.758   8.834   0.927  1.0198 -0.7913  0.5187
  141MOL0     H18994   8.753   8.930   1.068 -2.9450 -3.8045 -1.1120
  141MOL0     H18995   8.798   9.148   1.102 -2.1964  0.9756 -3.4853
  141MOL0     H18996   8.757   9.359   1.208  1.0213 -2.1968 -2.2455
  141MOL0     H18997   8.893   9.465   1.242  2.3440 -1.1360  0.0283
  141MOL0     H18998   8.794   9.496   1.098  0.0987  0.9776  1.2101
  141MOL0     H18999   9.315   9.685   1.102  0.6372  0.8934 -0.1764
  141MOL0     H19000   9.402   9.908   1.060 -1.3536  1.2670  0.8021
  141MOL0     H19001   9.351  10.155   1.000  1.0258  0.1249  0.7718
  141MOL0     H19002   9.505  10.069   1.006  1.5407 -0.2557  0.1683
  141MOL0     H19003   9.485  10.329   0.974  2.2653  2.1984 -1.7756
  141MOL0     H19004   9.621  10.232   0.918  1.0678  1.4232 -2.5793
  141MOL0     H19005   9.427  10.385   0.747 -1.0613 -0.8833  2.1330
  141MOL0     H19006   9.476  10.224   0.695  1.6229 -0.4315 -0.2900
  141MOL0     H19007   9.663  10.453   0.778  3.7401 -1.7050  1.2331
  141MOL0     H19008   9.722  10.297   0.738 -0.0578  0.4448 -1.4601
  141MOL0     H19009   9.721  10.501   0.564 -1.5111 -0.0375 -3.6192
  141MOL0     H19010   9.553  10.463   0.542  0.3366 -1.8222 -2.8593
  141MOL0     H19011   9.615  10.219   0.468 -1.5311  0.8838 -1.9190
  141MOL0     H19012   9.674  10.354   0.368  3.2112  0.1572 -0.2482
  141MOL0     H19013   9.864  10.267   0.588  1.0614  0.2465  1.0950
  141MOL0     H19014   9.873  10.374   0.442  0.1040 -0.9204  0.3847
  141MOL0     H19015   9.882  10.192   0.300 -2.9189 -0.5274 -0.4235
  141MOL0     H19016   9.835  10.069   0.430  1.9115 -1.6955 -2.2908
  141MOL0     H19017   9.241   9.899   0.659 -3.2884  0.3892  0.7984
  141MOL0     H19018   9.167   9.668   0.701  0.5776 -2.1920  1.4849
  141MOL0     H19019   9.213   9.315   0.888  1.8590 -0.8750  1.1375
  141MOL0     H19020   9.121   9.079   0.843  1.9310  0.3936  0.2351
  141MOL0     H19021   7.463   9.773   1.256  0.2226 -0.1084 -0.0209
  141MOL0     H19022   7.412   9.789   1.510  0.0163 -0.5884 -0.1514
  141MOL0     H19023   6.885   9.720   1.770  1.6775  3.6614  0.4160
  141MOL0     H19024   6.804   9.666   1.992  1.7662  3.2770  1.0435
  141MOL0     H19025   6.730   9.508   2.137  2.0006  1.5730 -1.7493
  141MOL0     H19026   6.777   9.453   2.287  1.7455  0.9896  0.7007
  141MOL0     H19027   6.647   9.662   2.327  2.4872  0.4926  3.1916
  141MOL0     H19028   6.762   9.746   2.222 -2.2865 -1.1518 -2.3241
  141MOL0     H19029   6.791   9.793   2.448 -1.7488 -0.2144 -2.9855
  141MOL0     H19030   6.931   9.688   2.415 -0.1425 -2.7831  0.9573
  141MOL0     H19031   6.767   9.494   2.530 -1.1049 -0.5596  3.8502
  141MOL0     H19032   6.677   9.632   2.580  0.6364 -1.4571  1.5652
  141MOL0     H19033   6.958   9.658   2.859  1.7471  2.8367 -0.8515
  141MOL0     H19034   7.166   9.478   2.100 -0.1633  1.5875  1.0191
  141MOL0     H19035   7.255   9.540   1.865 -1.2548 -1.3315 -2.7122
  142MOL0     O19036   4.113   7.875   0.682  0.8486  0.4859  0.0085
  142MOL0     C19037   4.085   7.848   0.563  0.1831 -0.4820  0.3389
  142MOL0     O19038   3.958   7.875   0.501 -0.7730  0.1014 -0.0644
  142MOL0     C19039   3.874   7.961   0.569 -0.2266 -0.7221 -0.8212
  142MOL0     C19040   3.741   7.942   0.539  0.1979  1.0825  0.7865
  142MOL0     C19041   3.641   8.032   0.584  0.8789  0.0862  0.5478
  142MOL0     C19042   3.670   8.143   0.665 -0.5698  0.1750 -0.1790
  142MOL0     O19043   3.572   8.214   0.716 -0.4160  0.1636 -0.4604
  142MOL0     C19044   3.589   8.287   0.842 -0.1477  0.6475  0.5787
  142MOL0     C19045   3.660   8.424   0.836  1.1870  0.3379 -0.1586
  142MOL0     C19046   3.726   8.448   0.964  0.4121 -0.8629 -0.2821
  142MOL0     C19047   3.813   8.584   0.966  0.1190  0.3979  0.6126
  142MOL0     C19048   3.728   8.709   0.929  0.8365 -0.0913 -0.3785
  142MOL0     C19049   3.811   8.834   0.939  0.6362 -0.1362  0.0790
  142MOL0     C19050   3.737   8.947   0.872 -0.1881  0.3403 -0.7056
  142MOL0     C19051   3.810   9.083   0.885 -0.3561  0.6194  0.2266
  142MOL0     N19052   3.921   9.082   0.781 -0.8756 -0.0846  0.2966
  142MOL0     C19053   3.913   9.104   0.644 -0.0087 -1.1797 -0.5013
  142MOL0     C19054   4.041   9.096   0.596  0.0106  0.1492  0.8532
  142MOL0     C19055   4.086   9.097   0.446  0.2634 -0.1195  0.0747
  142MOL0     C19056   3.983   9.055   0.333  0.5147 -0.3497  0.1100
  142MOL0     C19057   3.925   9.179   0.258 -0.1361  0.3412 -0.0357
  142MOL0     C19058   3.863   9.297   0.348 -0.2840 -0.8676  0.3691
  142MOL0     O19059   3.789   9.381   0.255 -0.1697 -0.4102  0.4961
  142MOL0     C19060   3.761   9.511   0.295 -0.2146  0.0464  0.0905
  142MOL0     C19061   3.700   9.593   0.203  0.0601 -0.5646  0.5393
  142MOL0     C19062   3.702   9.732   0.204 -0.5145 -0.4367  0.1223
  142MOL0     C19063   3.649   9.798   0.077 -0.3448  0.2452 -0.0255
  142MOL0     C19064   3.752   9.800   0.318 -0.2885  0.2770 -0.7875
  142MOL0     C19065   3.745   9.948   0.339  0.6891 -1.2692 -0.5536
  142MOL0     O19066   3.696  10.022   0.242 -0.5741 -0.0519  0.0962
  142MOL0     C19067   3.650  10.146   0.270  0.9277 -0.2431 -0.4708
  142MOL0     C19068   3.562  10.167   0.379  1.1504 -0.0054  0.2893
  142MOL0     C19069   3.513  10.299   0.391  0.9205  0.8426  0.3092
  142MOL0     C19070   3.543  10.404   0.302  0.4882  0.3347  0.8718
  142MOL0     O19071   3.477  10.528   0.312  0.6297  0.5810  0.7088
  142MOL0     C19072   3.426  10.589   0.189 -0.0710  0.6808  0.2423
  142MOL0     C19073   3.364  10.730   0.213  0.3543 -0.1197 -0.1951
  142MOL0     C19074   3.452  10.823   0.302 -0.2241 -0.1140  0.0388
  142MOL0     C19075   3.394  10.961   0.345 -0.1717  0.5094 -0.6509
  142MOL0     C19076   3.490  11.045   0.434  0.3065 -0.6703 -0.3664
  142MOL0     C19077   3.423  11.170   0.496 -0.0973 -0.9565 -0.6012
  142MOL0     C19078   3.386  11.285   0.394 -0.6766  0.2505 -0.2790
  142MOL0     C19079   3.310  11.387   0.474  0.2064 -0.5394  0.5628
  142MOL0    Cl19080   3.271  11.526   0.368 -0.2749 -0.0071  0.0210
  142MOL0     C19081   3.611  10.372   0.185  0.1681  0.0569 -1.9930
  142MOL0     C19082   3.662  10.241   0.169 -0.6983 -0.4512  0.1033
  142MOL0     O19083   3.790   9.989   0.445  0.1513 -0.3869 -0.3952
  142MOL0     C19084   3.795   9.713   0.425  0.1275 -0.3973 -1.1130
  142MOL0     C19085   3.812   9.576   0.408  0.2396 -0.5002 -0.5396
  142MOL0     N19086   4.124   9.049   0.699 -0.7875 -0.2977  0.1998
  142MOL0     N19087   4.053   9.048   0.809  0.0738 -0.2297 -0.0818
  142MOL0     C19088   3.808   8.157   0.701 -0.3856  0.6203 -0.1341
  142MOL0     C19089   3.907   8.070   0.652 -0.7939  0.0800 -1.2279
  142MOL0     C19090   4.179   7.772   0.474 -0.3148 -1.1017 -0.6072
  142MOL0     C19091   4.144   7.721   0.345 -0.4865  0.2744 -0.8523
  142MOL0     C19092   4.227   7.630   0.280  0.3537 -0.4682  0.0019
  142MOL0     C19093   4.359   7.618   0.320 -0.0420 -0.2135 -0.2464
  142MOL0     O19094   4.441   7.547   0.229 -0.4711 -0.2559 -0.4042
  142MOL0     C19095   4.579   7.590   0.233 -0.1995 -0.3309  1.0319
  142MOL0     C19096   4.643   7.583   0.103  0.0505 -0.8765  0.6830
  142MOL0     C19097   4.726   7.715   0.065  0.0013  0.4308 -0.6844
  142MOL0     C19098   4.776   7.703  -0.089 -0.2184  0.7399  0.6424
  142MOL0     C19099   4.885   7.795  -0.119 -0.3783  0.0362  0.2411
  142MOL0     C19100   4.975   7.876  -0.132  0.0427 -0.4970  0.3608
  142MOL0     C19101   4.402   7.682   0.437  0.1259 -0.5770  0.5153
  142MOL0     C19102   4.316   7.751   0.512  0.4628 -0.2211  0.2968
  142MOL0     H19103   3.709   7.848   0.494  3.9348  1.1868 -2.6207
  142MOL0     H19104   3.542   8.004   0.551  1.6320 -1.3532 -0.6376
  142MOL0     H19105   3.490   8.307   0.884  0.4915  2.5404  1.2855
  142MOL0     H19106   3.647   8.220   0.905 -0.1650 -0.5937 -0.6614
  142MOL0     H19107   3.732   8.438   0.754 -0.2840  2.0870 -1.2345
  142MOL0     H19108   3.585   8.498   0.805  0.0253 -1.3467 -1.5533
  142MOL0     H19109   3.649   8.441   1.042 -0.8389  0.7177 -1.3257
  142MOL0     H19110   3.797   8.369   0.990  1.8009  0.0789 -1.0656
  142MOL0     H19111   3.864   8.589   1.063 -0.9643 -1.4717  1.3340
  142MOL0     H19112   3.905   8.585   0.907 -0.1752  2.1636  0.1244
  142MOL0     H19113   3.700   8.719   0.824  0.9656  5.3666 -0.1806
  142MOL0     H19114   3.641   8.703   0.995  1.4475  0.6549  0.5269
  142MOL0     H19115   3.827   8.856   1.044  0.5476 -2.0276  0.5334
  142MOL0     H19116   3.902   8.818   0.879 -0.1146  0.7550 -1.3561
  142MOL0     H19117   3.713   8.920   0.769  1.4622 -2.6740 -0.4113
  142MOL0     H19118   3.649   8.957   0.936 -0.3526 -2.1407 -0.4397
  142MOL0     H19119   3.855   9.088   0.985 -1.3470 -3.0072  1.0050
  142MOL0     H19120   3.743   9.169   0.879 -0.6286  0.4874  1.2528
  142MOL0     H19121   3.821   9.134   0.594  1.9429 -0.0063 -3.7309
  142MOL0     H19122   4.112   9.201   0.421  2.4044 -0.9499 -1.4293
  142MOL0     H19123   4.183   9.050   0.430  1.4098  1.8958  0.7475
  142MOL0     H19124   3.907   8.989   0.376 -0.2316  0.2020 -0.3233
  142MOL0     H19125   4.037   9.007   0.251 -2.4535  0.0779 -2.3197
  142MOL0     H19126   3.850   9.145   0.186  1.7153 -3.4438 -0.4382
  142MOL0     H19127   4.005   9.225   0.198 -0.4973  2.0778  0.7572
  142MOL0     H19128   3.940   9.352   0.403 -0.2795 -0.2363 -0.2508
  142MOL0     H19129   3.798   9.261   0.428 -2.5356  0.7232 -0.6543
  142MOL0     H19130   3.652   9.551   0.115  0.0535  0.2219  0.1568
  142MOL0     H19131   3.726   9.845   0.015 -0.4976  0.3500 -0.1356
  142MOL0     H19132   3.597   9.727   0.012  0.2562  0.8129 -1.1475
  142MOL0     H19133   3.568   9.869   0.098 -0.0347  0.2683  1.1694
  142MOL0     H19134   3.547  10.088   0.452  1.5883 -1.4305 -1.1059
  142MOL0     H19135   3.443  10.324   0.470 -0.5726 -1.6546 -0.1099
  142MOL0     H19136   3.517  10.608   0.131  0.4276 -0.4585  0.6392
  142MOL0     H19137   3.364  10.510   0.145 -0.0264  1.8434 -2.0920
  142MOL0     H19138   3.366  10.782   0.117  0.6894  1.5688  0.6817
  142MOL0     H19139   3.256  10.726   0.233  0.4985 -1.2035  0.4343
  142MOL0     H19140   3.537  10.852   0.241 -1.4565  2.4636 -0.5827
  142MOL0     H19141   3.491  10.761   0.384 -2.4652 -1.1492  0.4087
  142MOL0     H19142   3.369  11.025   0.260 -0.5270  2.7431  1.0467
  142MOL0     H19143   3.302  10.943   0.401  2.8305 -1.0981  4.4260
  142MOL0     H19144   3.579  11.077   0.379  0.4895 -1.7970 -0.7549
  142MOL0     H19145   3.529  10.984   0.516 -0.1259 -0.4265  0.0256
  142MOL0     H19146   3.335  11.148   0.558 -0.9136 -1.1822 -1.7954
  142MOL0     H19147   3.486  11.223   0.568 -1.3737 -1.9053  1.2991
  142MOL0     H19148   3.328  11.236   0.315  0.9258 -1.9149 -0.2111
  142MOL0     H19149   3.471  11.328   0.339 -0.5663 -2.3512 -2.3458
  142MOL0     H19150   3.359  11.421   0.565 -2.0596 -0.4443  1.8182
  142MOL0     H19151   3.220  11.337   0.511 -1.0355  1.2932  0.1619
  142MOL0     H19152   3.652  10.457   0.131  3.1066  1.4563  1.9661
  142MOL0     H19153   3.724  10.221   0.083  0.8558  2.1834  0.4992
  142MOL0     H19154   3.825   9.759   0.519 -1.9004 -2.7014  0.8140
  142MOL0     H19155   3.860   9.514   0.484 -1.8600 -1.0125  0.4645
  142MOL0     H19156   3.838   8.245   0.757  0.7452 -0.3877  0.8902
  142MOL0     H19157   4.012   8.089   0.671 -0.1630 -3.1417 -1.0275
  142MOL0     H19158   4.041   7.712   0.313 -0.4522 -2.8758 -0.4012
  142MOL0     H19159   4.201   7.579   0.187  0.8027  3.4690 -2.5436
  142MOL0     H19160   4.576   7.697   0.254  0.0364 -0.4498  1.6744
  142MOL0     H19161   4.633   7.529   0.305  1.8056  0.7014  0.4673
  142MOL0     H19162   4.550   7.583   0.046  1.8716 -1.4911 -2.5015
  142MOL0     H19163   4.700   7.490   0.089  0.2778 -0.4067 -1.9203
  142MOL0     H19164   4.818   7.714   0.125  0.8762 -0.4512 -1.9927
  142MOL0     H19165   4.671   7.807   0.089  1.2131  0.6179  1.6998
  142MOL0     H19166   4.687   7.715  -0.152  2.3439 -1.0504 -3.7950
  142MOL0     H19167   4.811   7.604  -0.121 -2.8468  0.4552 -1.7036
  142MOL0     H19168   5.054   7.947  -0.150 -0.1142 -0.7217 -1.4356
  142MOL0     H19169   4.504   7.662   0.469 -0.3382 -4.2781  0.1463
  142MOL0     H19170   4.359   7.800   0.599 -1.2888 -0.1117  1.1371
  143MOL0     O19171   5.156  11.131   0.373 -0.1453  0.3829  0.6729
  143MOL0     C19172   5.041  11.093   0.392  1.3520 -0.8201  0.2968
  143MOL0     O19173   4.958  11.013   0.305 -0.2156  0.2069 -0.4244
  143MOL0     C19174   4.986  11.003   0.173 -0.3559 -0.1218 -0.3116
  143MOL0     C19175   5.046  11.107   0.100  0.2038  0.5892  0.4326
  143MOL0     C19176   5.052  11.091  -0.037 -0.2602  0.1293  0.0884
  143MOL0     C19177   5.010  10.980  -0.106 -0.1108 -0.0056 -0.4874
  143MOL0     O19178   5.047  10.974  -0.237 -0.0231 -0.4613  0.2431
  143MOL0     C19179   4.999  10.874  -0.324  0.3462 -1.0143  0.5484
  143MOL0     C19180   5.070  10.872  -0.464  0.1349  0.5936 -1.3904
  143MOL0     C19181   4.984  10.792  -0.571 -0.0833 -0.5821 -0.2464
  143MOL0     C19182   5.072  10.749  -0.695  0.8590  1.0491 -0.2771
  143MOL0     C19183   4.980  10.708  -0.813  0.6965  1.2071 -0.2660
  143MOL0     C19184   4.905  10.819  -0.884 -0.7714 -1.2924  0.3270
  143MOL0     C19185   4.852  10.778  -1.024 -0.2343 -0.3543  0.8021
  143MOL0     C19186   4.949  10.799  -1.142  0.4427  0.5959 -0.2503
  143MOL0     N19187   4.956  10.938  -1.186  0.0401 -0.1031  0.1460
  143MOL0     C19188   4.857  11.020  -1.238  0.4349 -0.3923 -0.9242
  143MOL0     C19189   4.914  11.150  -1.222  1.1826  0.1364 -0.3322
  143MOL0     C19190   4.858  11.288  -1.245 -0.6651  0.3434  1.3495
  143MOL0     C19191   4.747  11.327  -1.154  0.2693 -0.0348 -0.4881
  143MOL0     C19192   4.780  11.319  -1.003  0.2977 -0.4101 -0.6603
  143MOL0     C19193   4.826  11.451  -0.947 -0.4155  0.0544 -0.0123
  143MOL0     O19194   4.726  11.553  -0.957  0.0578 -0.0942  0.0581
  143MOL0     C19195   4.766  11.680  -0.960 -0.7817 -0.9906 -0.6620
  143MOL0     C19196   4.663  11.770  -0.954  0.2317 -0.5012  0.5635
  143MOL0     C19197   4.676  11.905  -0.967  0.3457 -1.0677 -0.1701
  143MOL0     C19198   4.554  11.988  -0.939 -0.1215  0.0056 -0.2000
  143MOL0     C19199   4.813  11.964  -0.982 -0.4381  0.6935 -0.5613
  143MOL0     C19200   4.847  12.101  -0.990 -0.2328  0.8996  0.1594
  143MOL0     O19201   4.967  12.150  -0.942  0.4069 -0.5932  0.0710
  143MOL0     C19202   5.000  12.282  -0.967  0.2787  0.4090 -0.2883
  143MOL0     C19203   5.121  12.318  -1.020 -0.3769  0.3156  0.3501
  143MOL0     C19204   5.151  12.453  -1.040 -0.7000 -0.1996  0.7143
  143MOL0     C19205   5.060  12.560  -1.022  0.4197 -0.1059  0.6383
  143MOL0     O19206   5.094  12.692  -1.047  0.0572  0.4111  0.0044
  143MOL0     C19207   5.053  12.782  -0.941  0.0909  0.0836  0.1121
  143MOL0     C19208   5.096  12.918  -0.981 -0.9485 -0.1248  0.8066
  143MOL0     C19209   4.995  12.973  -1.084 -0.5128  1.2540 -0.3928
  143MOL0     C19210   5.051  13.087  -1.151  0.4346  0.4602  0.5602
  143MOL0     C19211   5.039  13.073  -1.298 -0.3668 -0.6624  0.1906
  143MOL0     C19212   5.113  13.184  -1.394  0.4738 -0.2899 -0.7471
  143MOL0     C19213   5.094  13.157  -1.542  0.1346 -0.7245 -0.7589
  143MOL0     C19214   5.165  13.256  -1.629 -0.3915 -0.1013 -0.1939
  143MOL0    Cl19215   5.137  13.249  -1.805 -0.2339 -0.4512  0.2507
  143MOL0     C19216   4.932  12.526  -0.975 -0.4207  0.6422 -0.2124
  143MOL0     C19217   4.909  12.392  -0.949 -0.4839  0.4026  0.2589
  143MOL0     O19218   4.762  12.169  -1.050 -0.0451  0.4592 -0.1421
  143MOL0     C19219   4.919  11.875  -0.973  0.5546 -0.5446  0.3323
  143MOL0     C19220   4.895  11.739  -0.959 -0.0655  0.6464  0.1615
  143MOL0     N19221   5.045  11.135  -1.191 -0.4094  0.3950 -0.3126
  143MOL0     N19222   5.073  11.016  -1.164 -0.3490 -0.2661  0.2384
  143MOL0     C19223   4.970  10.873  -0.024  0.2209 -0.7754  0.0526
  143MOL0     C19224   4.954  10.883   0.115  0.3203 -0.5249 -0.9533
  143MOL0     C19225   4.970  11.147   0.509  0.1193 -0.5530 -0.4241
  143MOL0     C19226   5.023  11.258   0.573 -0.4876 -0.4473  0.0816
  143MOL0     C19227   4.974  11.301   0.693 -0.1309 -0.4441 -0.2890
  143MOL0     C19228   4.861  11.257   0.759  0.4039  0.0518  0.1328
  143MOL0     O19229   4.795  11.281   0.883 -0.1198 -0.0989  1.1870
  143MOL0     C19230   4.817  11.414   0.935 -1.0728  0.5842  0.0532
  143MOL0     C19231   4.934  11.417   1.034 -0.6123  0.0098  0.3811
  143MOL0     C19232   4.935  11.546   1.105 -1.1074  0.5344 -1.0672
  143MOL0     C19233   5.045  11.551   1.215  0.3803 -0.7348 -0.3860
  143MOL0     C19234   5.089  11.428   1.280  0.3721 -0.3976 -1.0740
  143MOL0     C19235   5.134  11.333   1.342  0.0702 -0.0235  0.7970
  143MOL0     C19236   4.796  11.150   0.687  0.0788 -0.4221 -0.6233
  143MOL0     C19237   4.856  11.091   0.577  0.3001  0.1104  0.0884
  143MOL0     H19238   5.087  11.201   0.137  1.3609  0.2752  0.0206
  143MOL0     H19239   5.109  11.160  -0.099 -1.6764  0.3137 -1.0599
  143MOL0     H19240   5.006  10.772  -0.285  0.3220 -0.5489  1.7866
  143MOL0     H19241   4.891  10.884  -0.336  0.1295 -3.1777  0.2140
  143MOL0     H19242   5.091  10.974  -0.497  0.0080  2.2441  2.9823
  143MOL0     H19243   5.173  10.834  -0.452 -0.0395  0.4809  0.0092
  143MOL0     H19244   4.951  10.697  -0.528  1.6675 -1.3244 -0.4304
  143MOL0     H19245   4.902  10.850  -0.614  1.2953  0.4702 -1.5662
  143MOL0     H19246   5.151  10.823  -0.712  0.8326  1.2565  0.4837
  143MOL0     H19247   5.126  10.661  -0.657  0.0505  1.2953  1.5373
  143MOL0     H19248   5.029  10.658  -0.897 -3.3296 -4.4427  0.1916
  143MOL0     H19249   4.910  10.628  -0.787  1.0164  1.5259  1.7827
  143MOL0     H19250   4.813  10.842  -0.828 -0.3550  3.7736 -0.5704
  143MOL0     H19251   4.966  10.910  -0.887 -0.6461 -1.3791  0.2449
  143MOL0     H19252   4.832  10.670  -1.025  0.3300 -0.6038 -3.8096
  143MOL0     H19253   4.761  10.834  -1.044  1.4290  2.9755  1.8766
  143MOL0     H19254   4.909  10.730  -1.217  0.9748 -1.8639  1.5619
  143MOL0     H19255   5.043  10.761  -1.102  0.3931  1.7884  1.0844
  143MOL0     H19256   4.754  10.996  -1.264 -0.4529  1.6764  0.3655
  143MOL0     H19257   4.937  11.363  -1.244  0.8965 -0.9870 -2.4567
  143MOL0     H19258   4.814  11.288  -1.345  0.5565  0.5820  0.7897
  143MOL0     H19259   4.669  11.255  -1.176  0.8019 -0.5398 -0.7670
  143MOL0     H19260   4.710  11.429  -1.171  0.1277 -0.1135 -0.6471
  143MOL0     H19261   4.850  11.235  -0.993 -0.7281 -1.3404 -1.0575
  143MOL0     H19262   4.690  11.284  -0.951  0.7547  1.0064  1.1460
  143MOL0     H19263   4.911  11.492  -1.002 -1.4625  3.1810  0.4738
  143MOL0     H19264   4.849  11.435  -0.841 -0.8164 -0.9124 -0.0668
  143MOL0     H19265   4.560  11.735  -0.951 -0.8571  1.7034 -3.2725
  143MOL0     H19266   4.529  12.059  -1.018 -2.1746 -0.3895  0.0237
  143MOL0     H19267   4.467  11.923  -0.923  0.0107 -0.1646 -0.1743
  143MOL0     H19268   4.577  12.038  -0.844  0.2018 -1.5929  0.5978
  143MOL0     H19269   5.195  12.240  -1.033 -0.3561  0.3806  0.0783
  143MOL0     H19270   5.247  12.484  -1.082 -2.1322  0.8726 -1.9742
  143MOL0     H19271   4.945  12.782  -0.923  0.3263 -1.3133  1.8596
  143MOL0     H19272   5.097  12.755  -0.844  2.3137 -0.4886 -0.9865
  143MOL0     H19273   5.096  12.982  -0.892 -1.8099 -2.1646  2.3555
  143MOL0     H19274   5.194  12.899  -1.025 -1.1209 -2.0414  1.1564
  143MOL0     H19275   4.903  12.987  -1.028  0.7302  3.7960  1.1913
  143MOL0     H19276   4.970  12.893  -1.154 -0.1567 -0.1061  0.9826
  143MOL0     H19277   4.991  13.178  -1.134 -0.4621  0.7135 -3.1710
  143MOL0     H19278   5.157  13.103  -1.129  0.7811  1.4308 -1.5536
  143MOL0     H19279   4.932  13.068  -1.318 -0.3902 -2.3240  0.5410
  143MOL0     H19280   5.090  12.983  -1.336  0.6674 -0.3447  0.7851
  143MOL0     H19281   5.066  13.281  -1.373  0.7535  0.2084 -2.2463
  143MOL0     H19282   5.217  13.204  -1.367  0.0032 -0.6595  1.4890
  143MOL0     H19283   4.987  13.163  -1.565 -0.1514  3.4735  0.8557
  143MOL0     H19284   5.134  13.062  -1.577  1.5348  0.9059 -3.8842
  143MOL0     H19285   5.274  13.245  -1.622 -0.2375 -1.2295 -2.9738
  143MOL0     H19286   5.139  13.356  -1.592  3.3761 -0.2176  3.5069
  143MOL0     H19287   4.855  12.598  -0.948  1.0070  1.2971  2.5007
  143MOL0     H19288   4.816  12.366  -0.899  0.7556  4.2369  5.2896
  143MOL0     H19289   5.021  11.912  -0.981  0.8885 -0.7982  2.7503
  143MOL0     H19290   4.984  11.677  -0.952 -0.2403  0.2798 -0.7738
  143MOL0     H19291   4.917  10.789  -0.068 -0.0221 -0.2526 -0.6701
  143MOL0     H19292   4.905  10.805   0.173 -1.5778  0.7808 -0.7217
  143MOL0     H19293   5.100  11.319   0.528 -0.0269 -3.2293 -3.3136
  143MOL0     H19294   5.031  11.376   0.748  0.9928 -1.8673  0.5492
  143MOL0     H19295   4.852  11.478   0.854  0.0392 -0.4125 -0.2849
  143MOL0     H19296   4.731  11.445   0.995 -2.5760 -2.9209 -0.0066
  143MOL0     H19297   5.024  11.421   0.973 -1.3354 -0.8227 -0.7816
  143MOL0     H19298   4.914  11.335   1.104  0.5371 -1.0120 -0.4405
  143MOL0     H19299   4.844  11.568   1.163  0.0831  1.2042  0.6205
  143MOL0     H19300   4.946  11.625   1.031 -1.8520  2.5979  0.8903
  143MOL0     H19301   5.003  11.620   1.289  2.0300 -0.6858  0.5538
  143MOL0     H19302   5.137  11.602   1.186 -0.7248  1.4219 -0.3254
  143MOL0     H19303   5.180  11.247   1.387 -0.3857 -0.3171  0.7102
  143MOL0     H19304   4.699  11.122   0.726 -2.0475  1.6018 -3.9058
  143MOL0     H19305   4.810  10.995   0.558 -2.4465  1.3483  0.0813
  144MOL0     O19306   3.418   3.717   0.582 -0.7768 -0.7460  0.8042
  144MOL0     C19307   3.464   3.613   0.543  0.4255 -0.5174  0.0276
  144MOL0     O19308   3.574   3.593   0.460  0.1073 -0.0072  0.0794
  144MOL0     C19309   3.662   3.694   0.415 -0.0371 -0.2497  0.6387
  144MOL0     C19310   3.631   3.825   0.417  0.7587  0.0684  1.0735
  144MOL0     C19311   3.716   3.915   0.378 -0.0206  0.8570 -0.1631
  144MOL0     C19312   3.840   3.878   0.330 -0.0591 -0.1398  0.1055
  144MOL0     O19313   3.915   3.976   0.275  0.3308 -0.2480  0.4162
  144MOL0     C19314   4.024   3.936   0.174  0.2410  0.9504  0.4032
  144MOL0     C19315   3.963   3.899   0.040 -0.4196 -0.4807  0.1409
  144MOL0     C19316   4.077   3.892  -0.062 -1.1314  0.5939 -0.6081
  144MOL0     C19317   4.013   3.853  -0.191  0.0778  0.3868 -0.5717
  144MOL0     C19318   3.968   3.983  -0.264 -0.4713 -0.0119 -0.9596
  144MOL0     C19319   4.078   4.008  -0.354 -0.2981 -0.2660 -0.0805
  144MOL0     C19320   4.067   4.142  -0.431  0.2845  0.3616  0.2831
  144MOL0     C19321   3.950   4.151  -0.536 -0.7929  0.9327 -0.2204
  144MOL0     N19322   3.985   4.104  -0.670 -0.5387  0.4854  0.7355
  144MOL0     C19323   4.090   4.153  -0.744 -0.0597  0.5165  1.0680
  144MOL0     C19324   4.095   4.073  -0.850 -0.2804 -0.1910 -0.0161
  144MOL0     C19325   4.187   4.081  -0.969 -0.5791 -0.2087  0.2947
  144MOL0     C19326   4.129   4.019  -1.092 -0.5570  1.2827 -1.0931
  144MOL0     C19327   4.227   4.029  -1.206 -0.2506  0.2199  0.7727
  144MOL0     C19328   4.184   3.957  -1.335 -0.1834 -1.1005 -0.7902
  144MOL0     O19329   4.307   3.930  -1.403  0.0763 -0.8428  0.4089
  144MOL0     C19330   4.304   3.889  -1.528  1.1931  0.7920  0.4608
  144MOL0     C19331   4.412   3.923  -1.618 -0.3477  0.8825 -0.1110
  144MOL0     C19332   4.405   3.892  -1.765  1.3171 -0.1445 -0.7579
  144MOL0     C19333   4.515   3.909  -1.858  0.4184  0.2943 -0.0977
  144MOL0     C19334   4.277   3.841  -1.817  0.3040  0.5208 -1.0939
  144MOL0     C19335   4.237   3.849  -1.962 -1.2239 -0.3035  0.1531
  144MOL0     O19336   4.160   3.750  -2.007 -0.1656  0.0957  0.0643
  144MOL0     C19337   4.149   3.729  -2.141  0.8038 -0.1598  0.3883
  144MOL0     C19338   4.042   3.807  -2.199 -0.4515 -0.1984  1.0439
  144MOL0     C19339   4.024   3.798  -2.333  0.3786 -0.5487  0.9849
  144MOL0     C19340   4.090   3.718  -2.424 -0.7160  0.9770 -0.6620
  144MOL0     O19341   4.049   3.694  -2.552  0.4157 -0.4230 -0.1133
  144MOL0     C19342   4.153   3.679  -2.648  0.5110  0.3945 -1.3985
  144MOL0     C19343   4.107   3.702  -2.797  0.3327 -0.2427 -1.1881
  144MOL0     C19344   3.990   3.620  -2.844  0.3966 -0.1445 -1.0810
  144MOL0     C19345   4.029   3.480  -2.862  0.1032  0.4145  0.9243
  144MOL0     C19346   3.912   3.399  -2.913 -0.3526 -0.4783  0.5120
  144MOL0     C19347   3.946   3.261  -2.961 -1.0562  1.1674 -0.4488
  144MOL0     C19348   3.859   3.207  -3.067  0.3070 -0.2888 -0.4156
  144MOL0     C19349   3.895   3.059  -3.101 -0.0865  0.2358 -0.9022
  144MOL0    Cl19350   3.802   3.007  -3.240 -0.0448 -0.2839 -0.2460
  144MOL0     C19351   4.194   3.640  -2.367 -0.5924  0.6154 -0.6351
  144MOL0     C19352   4.224   3.649  -2.232  0.7893 -0.3514 -0.0501
  144MOL0     O19353   4.287   3.937  -2.025 -0.5318  0.2493  0.3705
  144MOL0     C19354   4.183   3.793  -1.722  0.5598 -0.7860  0.1429
  144MOL0     C19355   4.203   3.810  -1.579 -0.6494 -0.6986  0.4473
  144MOL0     N19356   3.996   3.980  -0.841  0.0554  0.3522 -0.6720
  144MOL0     N19357   3.923   4.002  -0.738  0.4617  0.2898 -0.2567
  144MOL0     C19358   3.877   3.742   0.324 -0.1182  0.5807  0.5873
  144MOL0     C19359   3.783   3.646   0.364  0.5764 -0.0518 -1.7449
  144MOL0     C19360   3.392   3.498   0.590 -1.2136  0.1307  0.1822
  144MOL0     C19361   3.285   3.513   0.681  0.7785  0.1312 -0.5533
  144MOL0     C19362   3.206   3.394   0.706  1.1076 -0.6137  0.3844
  144MOL0     C19363   3.219   3.277   0.635  0.6793 -0.7758  0.4127
  144MOL0     O19364   3.127   3.173   0.640 -0.2193 -0.0222 -0.5517
  144MOL0     C19365   2.994   3.201   0.682 -0.7820  0.0371 -0.6506
  144MOL0     C19366   2.905   3.075   0.673 -0.0611  0.2924  0.3315
  144MOL0     C19367   2.879   3.044   0.520 -0.1306  0.1010 -0.4584
  144MOL0     C19368   2.821   2.897   0.507 -0.0534 -0.2187  0.2354
  144MOL0     C19369   2.779   2.861   0.371 -0.4066  0.7386 -0.2268
  144MOL0     C19370   2.754   2.844   0.256  0.9788  1.1072  0.7585
  144MOL0     C19371   3.323   3.266   0.547 -0.2251  0.8566  0.1546
  144MOL0     C19372   3.413   3.369   0.528  0.4243  0.2027  0.1065
  144MOL0     H19373   3.534   3.864   0.449  0.2908 -0.6037  0.5030
  144MOL0     H19374   3.699   4.022   0.389  2.5277  1.1575  1.8599
  144MOL0     H19375   4.083   4.026   0.155  2.7087 -0.7823 -0.5194
  144MOL0     H19376   4.099   3.871   0.218  0.4995  0.5771 -0.5827
  144MOL0     H19377   3.913   3.805   0.067 -0.8802  0.6900  3.8587
  144MOL0     H19378   3.911   3.987   0.001  2.6390  1.2964 -0.1632
  144MOL0     H19379   4.139   3.982  -0.068  0.7391 -0.6444 -0.6178
  144MOL0     H19380   4.146   3.813  -0.031 -2.6992  0.0709  1.8208
  144MOL0     H19381   4.084   3.792  -0.248  0.6444 -0.2148  0.7247
  144MOL0     H19382   3.934   3.778  -0.177  2.6918 -2.4880 -0.0225
  144MOL0     H19383   3.875   3.964  -0.318  1.1562  0.8617 -4.3164
  144MOL0     H19384   3.962   4.068  -0.196 -2.8100  0.3324 -1.5303
  144MOL0     H19385   4.172   4.012  -0.297 -1.9277 -4.0428  3.4578
  144MOL0     H19386   4.092   3.930  -0.430  1.7244 -0.0831  0.0640
  144MOL0     H19387   4.037   4.216  -0.356 -0.4579 -0.3143  0.6803
  144MOL0     H19388   4.166   4.163  -0.470  1.2246 -2.1827  1.0672
  144MOL0     H19389   3.927   4.258  -0.541 -2.3011  0.5930 -1.4834
  144MOL0     H19390   3.857   4.101  -0.508 -0.0984 -0.8507 -0.9663
  144MOL0     H19391   4.152   4.242  -0.742  0.2851  0.6445 -3.6647
  144MOL0     H19392   4.193   4.188  -0.994 -3.7975  0.0823  0.4253
  144MOL0     H19393   4.275   4.021  -0.946  1.1211  2.2130  0.5446
  144MOL0     H19394   4.027   4.054  -1.111 -0.9045  2.8495  2.8000
  144MOL0     H19395   4.107   3.914  -1.069  2.3380  1.4965  4.1301
  144MOL0     H19396   4.312   3.967  -1.178 -0.7030 -1.6644 -1.6863
  144MOL0     H19397   4.266   4.130  -1.220 -0.1022  0.2015  1.0543
  144MOL0     H19398   4.129   4.023  -1.403 -0.6233  1.0258  1.5158
  144MOL0     H19399   4.126   3.871  -1.301 -0.7154 -0.4543 -0.0433
  144MOL0     H19400   4.499   3.966  -1.571 -3.3373  4.8754  2.3919
  144MOL0     H19401   4.526   4.010  -1.899  0.7457  0.4823  0.4346
  144MOL0     H19402   4.603   3.871  -1.806  0.3620  0.0862 -0.1543
  144MOL0     H19403   4.493   3.846  -1.944  1.7937 -1.1425  0.5434
  144MOL0     H19404   3.984   3.885  -2.151 -2.7963  0.1179 -1.9467
  144MOL0     H19405   3.951   3.857  -2.388  1.1145 -1.5675 -1.2336
  144MOL0     H19406   4.243   3.736  -2.625  1.8585 -0.7991 -3.4221
  144MOL0     H19407   4.178   3.574  -2.637 -2.4046 -0.1588  1.4453
  144MOL0     H19408   4.074   3.805  -2.817  0.0635  0.3601  1.9027
  144MOL0     H19409   4.200   3.692  -2.855 -0.1978 -2.4563 -1.7315
  144MOL0     H19410   3.960   3.654  -2.944 -4.0394 -4.5082 -1.6296
  144MOL0     H19411   3.904   3.629  -2.778 -0.7188  0.4986 -2.5573
  144MOL0     H19412   4.118   3.476  -2.925 -0.7443  0.6704 -0.3327
  144MOL0     H19413   4.035   3.436  -2.762 -0.2514 -0.1012  0.7238
  144MOL0     H19414   3.869   3.454  -2.998 -1.2343 -1.5912  0.2196
  144MOL0     H19415   3.834   3.382  -2.839 -2.3510 -1.6678 -1.7364
  144MOL0     H19416   4.050   3.242  -2.991 -0.3012 -2.8034  3.6174
  144MOL0     H19417   3.946   3.201  -2.869  0.5348  2.9960  0.8350
  144MOL0     H19418   3.875   3.262  -3.160 -0.1474 -0.1964 -0.4399
  144MOL0     H19419   3.755   3.220  -3.035  1.0264  3.5374  0.8685
  144MOL0     H19420   3.867   2.988  -3.022  2.4987 -0.4082 -0.4363
  144MOL0     H19421   4.002   3.055  -3.125 -0.3409  2.7820 -2.9516
  144MOL0     H19422   4.232   3.564  -2.435  2.4339  2.2856 -0.9603
  144MOL0     H19423   4.312   3.599  -2.193  0.2196 -1.3503 -0.0018
  144MOL0     H19424   4.087   3.761  -1.762 -1.1586  0.9398  2.6341
  144MOL0     H19425   4.121   3.788  -1.511 -0.3533 -2.1192  0.3721
  144MOL0     H19426   3.972   3.703   0.288 -1.7270 -3.0983 -0.2283
  144MOL0     H19427   3.791   3.537   0.364 -2.4910 -0.3578 -2.3424
  144MOL0     H19428   3.275   3.606   0.736  0.5466 -0.7466  0.9303
  144MOL0     H19429   3.128   3.411   0.780  0.9429  0.9167 -0.1117
  144MOL0     H19430   2.993   3.235   0.786 -1.4938 -1.1126 -0.2652
  144MOL0     H19431   2.959   3.282   0.617  1.9131  1.6021 -0.3001
  144MOL0     H19432   2.803   3.097   0.704 -1.3249 -2.5481 -1.3858
  144MOL0     H19433   2.952   2.990   0.725  0.7921 -1.1245 -2.5411
  144MOL0     H19434   2.975   3.057   0.470  1.2904 -1.8644  1.5336
  144MOL0     H19435   2.819   3.123   0.473 -1.0709  1.3076  2.5588
  144MOL0     H19436   2.727   2.889   0.562 -0.9184  2.5869 -0.6741
  144MOL0     H19437   2.893   2.834   0.561  0.0134 -0.0845  0.3051
  144MOL0     H19438   2.734   2.824   0.153 -0.6041  0.7749  1.0999
  144MOL0     H19439   3.338   3.174   0.493 -2.9375 -1.2542  2.6357
  144MOL0     H19440   3.490   3.353   0.453  1.6290 -1.2820  1.5787
  145MOL0     O19441   2.549   3.651   8.352  0.0643  0.5623  0.0186
  145MOL0     C19442   2.669   3.639   8.337 -0.0850  0.7649  0.7765
  145MOL0     O19443   2.752   3.733   8.320  0.1734  0.5553  0.6826
  145MOL0     C19444   2.714   3.865   8.329  0.3409  0.1698 -0.4882
  145MOL0     C19445   2.637   3.916   8.229 -0.2979  0.1461  0.3094
  145MOL0     C19446   2.600   4.047   8.225 -0.4391  0.1655  0.6291
  145MOL0     C19447   2.658   4.140   8.320 -0.1831  0.1127 -0.0010
  145MOL0     O19448   2.637   4.272   8.318 -0.2196 -0.0249  1.0209
  145MOL0     C19449   2.755   4.345   8.294  0.1791 -0.0067 -0.3445
  145MOL0     C19450   2.708   4.492   8.273  0.2982 -0.3133  0.5969
  145MOL0     C19451   2.815   4.596   8.263  0.0403  0.0651  1.0218
  145MOL0     C19452   2.879   4.635   8.396 -0.0449 -0.1839 -0.9956
  145MOL0     C19453   2.993   4.732   8.395 -0.4062  0.3084 -0.1190
  145MOL0     C19454   3.100   4.704   8.285 -0.8736  0.1514 -0.4465
  145MOL0     C19455   3.201   4.814   8.289  0.2620 -1.0689  0.4925
  145MOL0     C19456   3.259   4.859   8.425  0.7506 -0.9850  0.6655
  145MOL0     N19457   3.396   4.916   8.407  0.6037 -0.1010 -0.3193
  145MOL0     C19458   3.435   5.044   8.385 -0.2069 -0.2323 -0.8335
  145MOL0     C19459   3.567   5.048   8.421  0.1328  0.1713  0.0062
  145MOL0     C19460   3.672   5.152   8.423 -0.1438  0.5422  0.8848
  145MOL0     C19461   3.702   5.208   8.281 -0.3422 -0.0911  0.2680
  145MOL0     C19462   3.852   5.215   8.248  0.0647  0.0174  0.1970
  145MOL0     C19463   3.883   5.237   8.100  0.0490  0.4642 -0.4042
  145MOL0     O19464   3.839   5.359   8.041 -0.8944 -0.1533  0.4528
  145MOL0     C19465   3.905   5.473   8.063  0.2349  1.0390 -0.5006
  145MOL0     C19466   3.839   5.603   8.043 -0.0100 -0.1733  0.9297
  145MOL0     C19467   3.907   5.725   8.072 -0.1325 -0.4767 -0.3387
  145MOL0     C19468   3.820   5.841   8.049 -0.0795  0.5104  0.6222
  145MOL0     C19469   4.040   5.729   8.099  0.1720 -0.0931  0.4220
  145MOL0     C19470   4.118   5.851   8.132  0.5996 -0.2196 -0.1317
  145MOL0     O19471   4.249   5.828   8.170 -0.2042  0.3419  0.9285
  145MOL0     C19472   4.320   5.940   8.190  0.1800  0.4903  0.3099
  145MOL0     C19473   4.340   5.984   8.325 -0.3928  0.4262  0.2285
  145MOL0     C19474   4.422   6.095   8.344  0.4590 -0.3477  0.1662
  145MOL0     C19475   4.496   6.158   8.239  0.9687  0.0794 -0.4175
  145MOL0     O19476   4.565   6.276   8.265  0.1030 -0.4418 -0.4475
  145MOL0     C19477   4.635   6.339   8.168 -0.4243 -0.2981 -0.0684
  145MOL0     C19478   4.698   6.470   8.234 -0.0506  0.4937  0.8592
  145MOL0     C19479   4.618   6.596   8.272  1.0659 -0.0271  1.2382
  145MOL0     C19480   4.706   6.720   8.293  0.0574  0.6228 -0.2963
  145MOL0     C19481   4.712   6.787   8.155 -0.2657  0.7007  0.9811
  145MOL0     C19482   4.612   6.905   8.143 -0.5417 -0.3624 -0.2738
  145MOL0     C19483   4.612   6.930   7.983  0.1185 -0.8390 -0.3481
  145MOL0     C19484   4.506   7.037   7.958  0.3339  0.2955 -0.3968
  145MOL0    Cl19485   4.501   7.071   7.784  0.1422  0.0191  0.5087
  145MOL0     C19486   4.484   6.100   8.109 -0.0076 -0.5746 -0.0253
  145MOL0     C19487   4.386   6.001   8.086 -0.2837 -0.4769  0.1889
  145MOL0     O19488   4.066   5.960   8.123 -0.8777 -0.5007  0.1506
  145MOL0     C19489   4.101   5.603   8.117 -0.3615 -0.1931 -0.9327
  145MOL0     C19490   4.036   5.478   8.100 -0.3158 -0.1826  0.1683
  145MOL0     N19491   3.598   4.923   8.466 -0.3158  0.2746 -1.4277
  145MOL0     N19492   3.500   4.847   8.451  0.1169  0.8356  0.7830
  145MOL0     C19493   2.727   4.083   8.424 -0.0872  0.2503 -0.4500
  145MOL0     C19494   2.757   3.948   8.433 -0.1871 -0.8418 -1.2268
  145MOL0     C19495   2.732   3.497   8.328  0.5445 -0.4072 -0.3062
  145MOL0     C19496   2.658   3.398   8.384 -0.7080  0.3606  0.1067
  145MOL0     C19497   2.712   3.268   8.362  0.1781 -0.7947 -0.2207
  145MOL0     C19498   2.840   3.239   8.301  0.9624  0.4060  0.3700
  145MOL0     O19499   2.899   3.118   8.277 -0.4761  0.2919 -0.3769
  145MOL0     C19500   2.822   3.001   8.330 -1.6756 -0.4929  0.2192
  145MOL0     C19501   2.885   2.877   8.256  0.2815 -0.0528  1.0867
  145MOL0     C19502   2.869   2.901   8.103 -0.0109 -0.0177  0.7529
  145MOL0     C19503   2.902   2.772   8.023 -0.6765  0.0468 -1.1886
  145MOL0     C19504   2.919   2.798   7.879 -0.1420 -0.2711 -0.5269
  145MOL0     C19505   2.930   2.808   7.756 -0.7319  0.3872 -0.8737
  145MOL0     C19506   2.906   3.347   8.249 -0.4394 -0.4405 -0.8399
  145MOL0     C19507   2.850   3.477   8.251 -0.5146  0.5336 -0.2882
  145MOL0     H19508   2.607   3.858   8.142 -1.1516  1.4748 -0.3346
  145MOL0     H19509   2.528   4.085   8.154 -0.8088 -0.7120  0.5194
  145MOL0     H19510   2.816   4.334   8.385 -1.2978  1.3461  0.8776
  145MOL0     H19511   2.806   4.312   8.203 -0.2331 -1.9921  0.0979
  145MOL0     H19512   2.664   4.479   8.174  4.0255 -3.4788 -0.8934
  145MOL0     H19513   2.636   4.532   8.345 -1.0606  2.2413 -2.0051
  145MOL0     H19514   2.882   4.566   8.182 -2.4009 -1.5883 -0.4839
  145MOL0     H19515   2.774   4.691   8.228 -1.1600 -1.1825 -1.1300
  145MOL0     H19516   2.800   4.674   8.460  1.2321  0.3662  0.3057
  145MOL0     H19517   2.903   4.549   8.458  1.1500  1.5333  1.0337
  145MOL0     H19518   2.952   4.831   8.372  1.6023  0.4135 -4.0725
  145MOL0     H19519   3.034   4.730   8.497 -0.0312  0.6503 -0.2600
  145MOL0     H19520   3.145   4.605   8.285  0.8993  0.9305  0.1168
  145MOL0     H19521   3.048   4.713   8.189 -0.6066 -2.2883 -0.8957
  145MOL0     H19522   3.289   4.782   8.233  2.2751  3.5766  0.4906
  145MOL0     H19523   3.161   4.905   8.243  3.5279  0.9530  1.2231
  145MOL0     H19524   3.273   4.764   8.478  1.1077 -0.3568  1.7153
  145MOL0     H19525   3.189   4.925   8.476  0.1986 -0.9351 -0.1358
  145MOL0     H19526   3.367   5.118   8.344 -0.3596 -0.0229 -0.2128
  145MOL0     H19527   3.630   5.236   8.480 -1.2451  0.1989  0.5856
  145MOL0     H19528   3.760   5.117   8.478 -0.8269  0.7897  2.1711
  145MOL0     H19529   3.659   5.308   8.271  1.0982  0.5012 -0.2682
  145MOL0     H19530   3.653   5.143   8.208  1.5591 -0.2969 -0.8879
  145MOL0     H19531   3.899   5.122   8.281  0.0165 -0.0887 -0.0278
  145MOL0     H19532   3.898   5.302   8.296 -2.0670  0.7384  1.0678
  145MOL0     H19533   3.830   5.159   8.045  4.2440 -1.5432 -2.0058
  145MOL0     H19534   3.988   5.212   8.082 -0.0956 -0.8474  0.4256
  145MOL0     H19535   3.737   5.612   8.006  0.6350 -1.1178 -1.2355
  145MOL0     H19536   3.714   5.816   8.035 -0.0121  1.2689 -1.7752
  145MOL0     H19537   3.831   5.903   8.138 -0.9119  0.6412  0.6397
  145MOL0     H19538   3.852   5.893   7.959 -0.3899 -2.9710 -1.7256
  145MOL0     H19539   4.304   5.918   8.403  2.3428  0.0071  1.2532
  145MOL0     H19540   4.432   6.135   8.445  1.5733  0.9283 -0.4183
  145MOL0     H19541   4.710   6.272   8.125  0.9558  1.2398 -0.1529
  145MOL0     H19542   4.564   6.364   8.088 -1.6260 -2.7658  0.1391
  145MOL0     H19543   4.747   6.453   8.331 -1.4586  0.8991  1.6597
  145MOL0     H19544   4.774   6.495   8.159 -1.7531  0.6864 -0.8906
  145MOL0     H19545   4.551   6.566   8.353 -0.4097 -0.8894 -0.2452
  145MOL0     H19546   4.559   6.605   8.181  0.6284  1.5780  1.6476
  145MOL0     H19547   4.668   6.791   8.367  0.0243  0.5118 -0.2055
  145MOL0     H19548   4.803   6.693   8.334 -0.6012 -2.7836 -0.6457
  145MOL0     H19549   4.709   6.715   8.073 -0.1667  1.1860  0.5430
  145MOL0     H19550   4.803   6.845   8.136 -2.1668  3.4615 -0.4078
  145MOL0     H19551   4.513   6.880   8.180 -1.8035  2.9994 -0.9572
  145MOL0     H19552   4.648   6.992   8.199  3.5345 -1.2969 -1.0904
  145MOL0     H19553   4.593   6.840   7.925 -3.0299  0.4303 -1.4834
  145MOL0     H19554   4.712   6.957   7.948  1.4965 -2.2296  2.2060
  145MOL0     H19555   4.537   7.122   8.020  2.4669 -1.6768  1.4128
  145MOL0     H19556   4.407   7.022   8.003 -1.1395 -2.8531 -4.0660
  145MOL0     H19557   4.540   6.143   8.026  1.1574  0.6829  1.3635
  145MOL0     H19558   4.361   5.981   7.982 -0.7369  1.7291 -0.1798
  145MOL0     H19559   4.208   5.583   8.119 -0.5911 -1.4781 -0.5614
  145MOL0     H19560   4.091   5.388   8.125  0.7195  0.8450  1.8255
  145MOL0     H19561   2.763   4.158   8.495  0.6392  0.5348 -1.0976
  145MOL0     H19562   2.809   3.903   8.517 -0.7072  0.2688 -0.2779
  145MOL0     H19563   2.560   3.405   8.429 -0.5441 -0.9774  0.7361
  145MOL0     H19564   2.661   3.193   8.421  1.3389  1.1780  3.5752
  145MOL0     H19565   2.844   2.999   8.437  1.1735 -1.4857 -0.2879
  145MOL0     H19566   2.716   3.001   8.305 -2.1934 -0.2475  2.2545
  145MOL0     H19567   2.832   2.785   8.279  0.1638 -1.0689 -2.5997
  145MOL0     H19568   2.985   2.858   8.297 -0.4313 -0.3185  2.7562
  145MOL0     H19569   2.918   2.983   8.050 -0.5449 -0.4018 -0.3654
  145MOL0     H19570   2.767   2.925   8.074  0.8123  1.5620 -1.0056
  145MOL0     H19571   2.820   2.700   8.028  0.4025 -1.1498 -0.0550
  145MOL0     H19572   2.992   2.729   8.069 -2.4972 -0.6036  2.0459
  145MOL0     H19573   2.912   2.816   7.651 -1.9966  1.1347 -0.6163
  145MOL0     H19574   3.009   3.329   8.220  1.3182 -0.0804  4.1765
  145MOL0     H19575   2.907   3.557   8.203  1.1071 -0.6333 -0.4191
  146MOL0     O19576   3.228   7.269   0.065 -0.7492  0.2643 -0.6389
  146MOL0     C19577   3.177   7.178  -0.001 -0.1733  0.3660 -0.2737
  146MOL0     O19578   3.199   7.036   0.015  0.8680  0.0392 -0.3353
  146MOL0     C19579   3.281   7.000   0.124  0.4130  0.4272  0.5117
  146MOL0     C19580   3.237   6.996   0.262 -0.2089 -0.9379 -0.1013
  146MOL0     C19581   3.327   6.937   0.355 -0.4685  0.0679  0.1276
  146MOL0     C19582   3.451   6.876   0.322 -0.3988  0.2707  0.3675
  146MOL0     O19583   3.529   6.797   0.406  0.3996 -0.3217  0.5069
  146MOL0     C19584   3.463   6.674   0.446 -0.2559  0.5826 -0.2120
  146MOL0     C19585   3.572   6.594   0.518 -0.2824 -0.0025  0.5987
  146MOL0     C19586   3.646   6.670   0.637  0.1611 -0.0234  0.1020
  146MOL0     C19587   3.564   6.714   0.744  0.4963 -0.7211  0.0357
  146MOL0     C19588   3.643   6.816   0.829 -0.7412 -0.0247 -0.1591
  146MOL0     C19589   3.573   6.823   0.961 -0.4658  0.0204 -0.3474
  146MOL0     C19590   3.439   6.878   0.960 -0.4488 -0.0298  0.1088
  146MOL0     C19591   3.424   7.008   0.877  0.3967 -0.5645 -0.2765
  146MOL0     N19592   3.284   7.052   0.896  0.9060 -0.8702 -0.5195
  146MOL0     C19593   3.193   7.089   0.801  0.3955 -0.3301  0.9072
  146MOL0     C19594   3.100   7.156   0.865  1.1982 -0.2084 -0.2646
  146MOL0     C19595   2.971   7.199   0.811  0.1025 -0.3707  1.9524
  146MOL0     C19596   2.882   7.073   0.803 -0.0715  0.0313 -0.4466
  146MOL0     C19597   2.754   7.087   0.718 -1.2348 -0.2177 -0.2233
  146MOL0     C19598   2.767   7.109   0.571  0.3354 -0.8217 -0.2155
  146MOL0     O19599   2.647   7.141   0.517 -0.3486 -0.8437 -0.2219
  146MOL0     C19600   2.608   7.276   0.505  0.0638 -0.1091  0.8715
  146MOL0     C19601   2.674   7.388   0.542  0.1321 -0.9413  0.3445
  146MOL0     C19602   2.633   7.523   0.527 -1.0853  1.1588  0.1600
  146MOL0     C19603   2.733   7.612   0.581 -0.5518 -0.5789  0.7231
  146MOL0     C19604   2.519   7.548   0.451 -0.2827  0.8857 -0.6509
  146MOL0     C19605   2.480   7.681   0.402  0.0052  0.2819  0.3310
  146MOL0     O19606   2.349   7.707   0.378  0.1921 -0.5565  0.6517
  146MOL0     C19607   2.325   7.785   0.263  0.6482  0.2444 -0.1289
  146MOL0     C19608   2.359   7.751   0.134  0.2285  0.8541  0.2005
  146MOL0     C19609   2.333   7.824   0.016 -0.3195 -0.4070 -0.2801
  146MOL0     C19610   2.264   7.943   0.023  0.1805  0.9780  0.2232
  146MOL0     O19611   2.210   8.010  -0.082  0.5483  0.2522  0.1016
  146MOL0     C19612   2.293   8.010  -0.199  0.1174  0.0706 -0.2709
  146MOL0     C19613   2.237   8.124  -0.288 -0.0953  0.1184  0.3162
  146MOL0     C19614   2.340   8.196  -0.382 -0.0181 -0.0364 -0.8715
  146MOL0     C19615   2.419   8.100  -0.474 -0.7935  0.9665  0.4899
  146MOL0     C19616   2.519   8.176  -0.554  0.0590 -0.3104  0.2399
  146MOL0     C19617   2.636   8.087  -0.605  0.5016 -0.2636 -0.1544
  146MOL0     C19618   2.765   8.169  -0.636 -0.9641  0.0439  0.5201
  146MOL0     C19619   2.874   8.076  -0.686 -1.0412 -0.8028 -0.1655
  146MOL0    Cl19620   2.911   7.950  -0.544  0.3646  0.0144  0.0286
  146MOL0     C19621   2.214   7.975   0.157  1.1059 -0.9179 -0.2812
  146MOL0     C19622   2.244   7.898   0.274 -0.0562 -0.1385  0.1721
  146MOL0     O19623   2.569   7.754   0.376 -0.3107  0.2146 -0.1840
  146MOL0     C19624   2.459   7.434   0.395  0.5628  0.2225  0.0943
  146MOL0     C19625   2.496   7.301   0.419 -0.6652 -0.1584 -0.2129
  146MOL0     N19626   3.126   7.151   0.998 -0.5083  0.2414 -0.1953
  146MOL0     N19627   3.246   7.107   1.013  0.1791 -0.1001 -0.0592
  146MOL0     C19628   3.486   6.881   0.193 -0.5810 -1.3112 -0.4966
  146MOL0     C19629   3.408   6.940   0.099 -0.1118 -0.2347 -0.1002
  146MOL0     C19630   3.076   7.216  -0.107  0.3285  0.2517 -0.7677
  146MOL0     C19631   3.019   7.123  -0.196  0.4953 -0.3009  0.4763
  146MOL0     C19632   2.929   7.168  -0.295  0.1231  0.0028 -0.9217
  146MOL0     C19633   2.900   7.305  -0.315 -0.1420  0.1429  0.3326
  146MOL0     O19634   2.802   7.348  -0.397  0.3461  0.4404  0.8289
  146MOL0     C19635   2.841   7.416  -0.518  0.0846  0.2466  0.5005
  146MOL0     C19636   2.926   7.547  -0.500 -0.6024 -0.0665 -0.4849
  146MOL0     C19637   2.989   7.605  -0.628  0.5226  1.1336 -0.2189
  146MOL0     C19638   3.128   7.671  -0.602  0.8564  0.0212  0.4138
  146MOL0     C19639   3.234   7.568  -0.622  0.4636 -0.2410 -0.3454
  146MOL0     C19640   3.303   7.474  -0.647  0.5466  0.1013 -0.6784
  146MOL0     C19641   2.971   7.395  -0.235  0.6261  0.1805  1.5474
  146MOL0     C19642   3.046   7.352  -0.126 -0.1552  1.2161  0.6240
  146MOL0     H19643   3.139   7.040   0.274  0.0313  1.1150 -3.8961
  146MOL0     H19644   3.299   6.930   0.460  1.0529  2.3507  0.7613
  146MOL0     H19645   3.385   6.706   0.517 -0.3593  0.0191 -0.0720
  146MOL0     H19646   3.421   6.619   0.362 -0.2657  1.1431 -0.5822
  146MOL0     H19647   3.536   6.499   0.557  3.2471 -1.6670  0.1410
  146MOL0     H19648   3.649   6.564   0.447 -0.8157  0.7733 -0.3321
  146MOL0     H19649   3.715   6.598   0.682  0.2410  0.2052  0.3503
  146MOL0     H19650   3.716   6.744   0.596  0.6295 -0.4686  0.0861
  146MOL0     H19651   3.467   6.753   0.709 -0.0651 -1.6132  0.5567
  146MOL0     H19652   3.536   6.627   0.804 -0.3677 -0.3980  0.1198
  146MOL0     H19653   3.748   6.787   0.841 -0.8360  0.7214  4.6493
  146MOL0     H19654   3.640   6.914   0.780  0.5319 -0.4160 -1.0828
  146MOL0     H19655   3.577   6.731   1.021  1.2529  0.1853 -0.1428
  146MOL0     H19656   3.630   6.887   1.029 -0.7333 -2.1277  2.0288
  146MOL0     H19657   3.367   6.816   0.905 -0.4461  0.6672 -0.7075
  146MOL0     H19658   3.410   6.891   1.065 -5.0900 -2.7086 -0.5370
  146MOL0     H19659   3.449   6.993   0.772  0.8187 -1.4182 -0.0610
  146MOL0     H19660   3.492   7.083   0.919 -1.2502  0.2834  0.9945
  146MOL0     H19661   3.185   7.079   0.693  0.2386  0.7712  0.8068
  146MOL0     H19662   2.911   7.273   0.865 -1.2212  0.0056  0.0805
  146MOL0     H19663   2.984   7.242   0.711 -0.9844  0.4645  2.1506
  146MOL0     H19664   2.847   7.064   0.906  0.1009 -0.6757 -0.4498
  146MOL0     H19665   2.926   6.978   0.774 -0.2107 -2.1162  5.1379
  146MOL0     H19666   2.685   7.166   0.749  0.8148  2.7072 -2.4860
  146MOL0     H19667   2.701   6.993   0.732 -1.5490  0.0113  0.1400
  146MOL0     H19668   2.801   7.016   0.525 -1.7518 -2.0749  0.6380
  146MOL0     H19669   2.841   7.186   0.545 -1.0489 -0.3789 -3.3452
  146MOL0     H19670   2.768   7.374   0.594 -1.6943 -2.3048  3.5833
  146MOL0     H19671   2.803   7.642   0.503 -2.3338  1.2978 -0.2584
  146MOL0     H19672   2.676   7.704   0.598  0.2909  0.5150 -1.8435
  146MOL0     H19673   2.786   7.581   0.671 -1.3514 -2.5536  0.5711
  146MOL0     H19674   2.413   7.657   0.125  4.0626  2.8705  0.2972
  146MOL0     H19675   2.355   7.788  -0.083  0.5136  0.8827 -0.5953
  146MOL0     H19676   2.395   8.037  -0.169 -0.1234 -0.0080  0.6603
  146MOL0     H19677   2.293   7.915  -0.254 -0.8199  1.1700 -2.2684
  146MOL0     H19678   2.146   8.084  -0.333  1.0783 -4.3034  1.3536
  146MOL0     H19679   2.198   8.203  -0.223  0.5898  0.1607  0.6862
  146MOL0     H19680   2.419   8.240  -0.321  0.6911 -0.0090 -1.7947
  146MOL0     H19681   2.290   8.268  -0.447 -0.0827 -1.2477 -2.2067
  146MOL0     H19682   2.468   8.019  -0.419 -2.5648 -1.4689 -1.2927
  146MOL0     H19683   2.352   8.044  -0.540  0.8733 -1.4269  0.7141
  146MOL0     H19684   2.566   8.249  -0.487 -0.7693 -0.6233  1.1726
  146MOL0     H19685   2.485   8.238  -0.638  1.8595 -1.0668 -1.1179
  146MOL0     H19686   2.661   8.017  -0.525  0.8318  0.0607  0.0288
  146MOL0     H19687   2.606   8.033  -0.695  1.1800  1.0668 -1.2091
  146MOL0     H19688   2.814   8.206  -0.545  2.9631 -0.1707 -1.2814
  146MOL0     H19689   2.746   8.252  -0.704 -0.6268 -1.1629 -1.1058
  146MOL0     H19690   2.960   8.133  -0.721 -1.3541 -0.7259 -0.8414
  146MOL0     H19691   2.834   8.039  -0.781  0.8661 -0.6288 -1.0733
  146MOL0     H19692   2.135   8.050   0.149  2.7175  1.1529  1.9236
  146MOL0     H19693   2.201   7.922   0.370  0.2241  2.3599 -0.2717
  146MOL0     H19694   2.372   7.455   0.334  0.8121  0.7004 -0.1034
  146MOL0     H19695   2.434   7.220   0.380  3.1905 -3.1227 -0.7663
  146MOL0     H19696   3.581   6.843   0.156 -0.8826 -1.8677 -0.7284
  146MOL0     H19697   3.445   6.944  -0.003 -2.6810  1.1257 -1.0556
  146MOL0     H19698   3.038   7.018  -0.178  0.9179 -0.2789  0.1671
  146MOL0     H19699   2.871   7.099  -0.356  0.4945 -1.6332  0.4977
  146MOL0     H19700   2.899   7.335  -0.561 -0.4227 -1.1096  2.2857
  146MOL0     H19701   2.751   7.437  -0.578  0.4251  0.4914  0.0661
  146MOL0     H19702   3.011   7.526  -0.434 -3.0001 -2.7597  2.0144
  146MOL0     H19703   2.867   7.623  -0.448  0.4267  1.0806 -0.9462
  146MOL0     H19704   2.915   7.671  -0.672 -2.7184 -2.4772 -0.6852
  146MOL0     H19705   2.987   7.520  -0.697  1.1664  0.7447  0.2149
  146MOL0     H19706   3.146   7.711  -0.501  2.9612  2.7630 -0.9361
  146MOL0     H19707   3.144   7.747  -0.678  3.0499 -2.0892 -1.4059
  146MOL0     H19708   3.377   7.400  -0.670 -0.9174 -1.4272 -0.6274
  146MOL0     H19709   2.953   7.501  -0.242 -3.5425 -0.4321  0.5002
  146MOL0     H19710   3.092   7.428  -0.064  0.9364  0.6116  0.5737
  147MOL0     O19711   3.751  11.214   9.036 -0.0026 -0.5464  0.0683
  147MOL0     C19712   3.814  11.256   9.138  0.4632  0.6758  0.3005
  147MOL0     O19713   3.841  11.172   9.243  0.1110  0.3821  0.0349
  147MOL0     C19714   3.810  11.042   9.233  0.1226  0.2995 -0.2049
  147MOL0     C19715   3.694  11.000   9.304 -1.0137  0.6567  0.7126
  147MOL0     C19716   3.664  10.867   9.304  0.7065  0.2097  0.2308
  147MOL0     C19717   3.730  10.781   9.225  0.1072  0.0600  0.6181
  147MOL0     O19718   3.732  10.644   9.230  0.4514 -0.1229  0.0696
  147MOL0     C19719   3.622  10.592   9.320 -0.3213  0.3663  0.0479
  147MOL0     C19720   3.613  10.435   9.322 -0.6148  0.4503 -0.1948
  147MOL0     C19721   3.595  10.372   9.182  0.0464  0.1851 -0.0422
  147MOL0     C19722   3.619  10.218   9.194 -0.3297  1.0313 -0.5495
  147MOL0     C19723   3.610  10.146   9.051  0.2930 -0.2562 -0.6467
  147MOL0     C19724   3.668  10.006   9.062 -0.9045 -0.6458  0.1309
  147MOL0     C19725   3.588   9.900   9.146 -1.0250 -0.2418  0.2101
  147MOL0     C19726   3.680   9.780   9.168  1.3763  1.1892 -0.2019
  147MOL0     N19727   3.616   9.649   9.123  0.1413 -1.1184 -0.4134
  147MOL0     C19728   3.567   9.618   8.998  0.9503  0.2219  0.0324
  147MOL0     C19729   3.516   9.496   9.011 -0.0567  0.5103  0.2867
  147MOL0     C19730   3.438   9.417   8.914 -0.2777  0.4979 -0.1206
  147MOL0     C19731   3.311   9.487   8.877  0.4298 -0.8451 -0.3352
  147MOL0     C19732   3.332   9.595   8.765 -0.0254  0.1622 -0.6287
  147MOL0     C19733   3.306   9.722   8.815  0.4581 -0.0789  0.0871
  147MOL0     O19734   3.159   9.736   8.818 -0.0458 -1.0095 -0.3324
  147MOL0     C19735   3.106   9.865   8.821  0.5652 -0.1018 -0.0326
  147MOL0     C19736   3.184   9.975   8.828  0.3032 -0.1279  0.3966
  147MOL0     C19737   3.139  10.107   8.840  0.1054  0.3643  0.4129
  147MOL0     C19738   3.241  10.226   8.853  0.7792 -0.4286  0.0667
  147MOL0     C19739   2.997  10.121   8.826 -0.6121  0.2434  0.4904
  147MOL0     C19740   2.935  10.260   8.830 -0.0136  0.6376  0.2785
  147MOL0     O19741   2.988  10.355   8.760 -0.1057  0.6218  0.0324
  147MOL0     C19742   2.928  10.476   8.743 -0.7474  0.4465  0.2884
  147MOL0     C19743   2.988  10.600   8.778  0.2800 -0.3152  0.0956
  147MOL0     C19744   2.932  10.725   8.754 -0.4130  0.2450  0.7425
  147MOL0     C19745   2.810  10.726   8.684 -0.1412 -0.0943  0.2345
  147MOL0     O19746   2.764  10.854   8.661  0.0009  0.0726 -0.3126
  147MOL0     C19747   2.640  10.897   8.726 -0.4049  0.2885  0.7169
  147MOL0     C19748   2.523  10.910   8.630  0.5613 -1.4412  0.1002
  147MOL0     C19749   2.448  11.050   8.647 -0.1165  0.1074  0.2722
  147MOL0     C19750   2.338  11.066   8.550  1.6584 -0.3462 -0.3609
  147MOL0     C19751   2.208  10.992   8.577 -1.1669  0.3650  0.0456
  147MOL0     C19752   2.091  11.037   8.490  0.3532 -0.5925 -0.8658
  147MOL0     C19753   2.096  10.983   8.348  0.6507 -0.4054  0.1805
  147MOL0     C19754   1.981  11.028   8.259 -0.3120 -0.7120 -0.9026
  147MOL0    Cl19755   2.023  10.988   8.085  0.0423 -0.2257  0.3835
  147MOL0     C19756   2.738  10.607   8.666  0.1961  0.2379 -0.9423
  147MOL0     C19757   2.797  10.482   8.701  0.7565 -0.9916 -1.0412
  147MOL0     O19758   2.839  10.278   8.902  0.6189  0.9606 -0.2031
  147MOL0     C19759   2.913  10.013   8.829  0.1474 -0.7695  0.6199
  147MOL0     C19760   2.961   9.888   8.824 -0.3786 -0.7775 -0.8843
  147MOL0     N19761   3.541   9.454   9.140 -0.4692  0.7040 -0.3637
  147MOL0     N19762   3.588   9.547   9.204 -0.9172  0.2698 -0.5751
  147MOL0     C19763   3.837  10.827   9.148 -0.2650  0.0121 -0.0494
  147MOL0     C19764   3.882  10.957   9.154  0.9349 -0.3038 -0.8369
  147MOL0     C19765   3.882  11.395   9.129  0.3297 -0.2266  0.7072
  147MOL0     C19766   3.979  11.433   9.217 -0.6841 -1.3700  0.1607
  147MOL0     C19767   4.035  11.564   9.217  0.3571 -0.3045  0.8267
  147MOL0     C19768   3.998  11.661   9.122  0.3524  0.3017  0.3867
  147MOL0     O19769   4.065  11.778   9.120  0.5032 -0.2093  0.3467
  147MOL0     C19770   4.124  11.816   8.996 -0.5124  0.3496 -0.5561
  147MOL0     C19771   4.036  11.926   8.933  0.2950  0.1400  0.5520
  147MOL0     C19772   4.092  12.038   8.850  0.9419  0.5781 -0.1257
  147MOL0     C19773   4.160  12.002   8.718  0.5225 -0.5204  0.1359
  147MOL0     C19774   4.291  11.938   8.737  0.2061 -0.0554  0.5433
  147MOL0     C19775   4.407  11.901   8.746 -1.4878  0.5262 -0.3244
  147MOL0     C19776   3.904  11.622   9.026  0.2204 -0.1531  0.3728
  147MOL0     C19777   3.848  11.491   9.027 -0.1289 -0.2132 -0.5711
  147MOL0     H19778   3.642  11.074   9.363 -1.5576  2.6195 -2.0187
  147MOL0     H19779   3.574  10.846   9.361 -1.6229 -0.5466 -3.3942
  147MOL0     H19780   3.651  10.627   9.419  1.9584  1.7319 -1.0106
  147MOL0     H19781   3.525  10.630   9.287  0.3662  1.7134 -0.5260
  147MOL0     H19782   3.708  10.406   9.369 -2.2467 -0.9156  2.4754
  147MOL0     H19783   3.538  10.392   9.389 -0.8247 -0.9897 -1.3118
  147MOL0     H19784   3.496  10.380   9.134 -0.7867 -0.9307  1.4228
  147MOL0     H19785   3.676  10.406   9.117 -2.2075  2.0715 -2.1088
  147MOL0     H19786   3.719  10.202   9.236  0.4424  1.1447 -2.2502
  147MOL0     H19787   3.549  10.187   9.272 -0.6599 -0.6465 -1.4576
  147MOL0     H19788   3.503  10.135   9.033 -0.4756 -0.8021  3.2877
  147MOL0     H19789   3.651  10.203   8.967 -2.0216  2.6451  0.0095
  147MOL0     H19790   3.672   9.963   8.962 -1.4910 -2.8783  1.0031
  147MOL0     H19791   3.768  10.020   9.103 -1.4695  0.1652  1.3173
  147MOL0     H19792   3.552   9.937   9.242 -1.1325 -0.1907  0.1502
  147MOL0     H19793   3.500   9.866   9.092 -1.5145  0.9245  0.2512
  147MOL0     H19794   3.709   9.783   9.273 -1.0299  3.0968  0.4915
  147MOL0     H19795   3.775   9.784   9.113 -0.0774  0.5227 -2.9292
  147MOL0     H19796   3.562   9.678   8.908 -1.0883  0.5810  0.3257
  147MOL0     H19797   3.497   9.396   8.825 -0.2541  0.0214  0.0055
  147MOL0     H19798   3.423   9.318   8.959 -2.3305 -0.1932 -2.1809
  147MOL0     H19799   3.241   9.524   8.952 -0.3075 -1.4106 -0.7190
  147MOL0     H19800   3.240   9.421   8.825  1.6253 -1.2329 -1.5296
  147MOL0     H19801   3.264   9.566   8.685 -1.1083 -1.0413  0.6717
  147MOL0     H19802   3.437   9.590   8.733 -0.6936  0.1550 -2.9821
  147MOL0     H19803   3.355   9.793   8.746  3.5034 -1.5350  0.5895
  147MOL0     H19804   3.348   9.740   8.914  2.1854  0.3090 -0.6676
  147MOL0     H19805   3.291   9.978   8.811  0.4421 -2.3205  0.5655
  147MOL0     H19806   3.330  10.181   8.898  1.9367  0.7967 -0.9018
  147MOL0     H19807   3.271  10.280   8.763 -2.4628  0.5196 -0.5695
  147MOL0     H19808   3.203  10.306   8.917  1.1523  2.2812 -2.8431
  147MOL0     H19809   3.084  10.610   8.827 -0.4234  3.6046  1.0955
  147MOL0     H19810   2.971  10.825   8.773  3.1524 -0.5486 -1.5816
  147MOL0     H19811   2.610  10.849   8.819 -0.3522  1.6963  1.4770
  147MOL0     H19812   2.663  10.998   8.760 -0.5396 -0.2301  2.4043
  147MOL0     H19813   2.561  10.907   8.527  0.1700  1.4680 -0.2137
  147MOL0     H19814   2.456  10.826   8.648 -1.6652  0.6042  1.9590
  147MOL0     H19815   2.520  11.123   8.608  1.5564 -0.7992  1.4971
  147MOL0     H19816   2.415  11.070   8.749 -3.0067  2.3541 -0.9594
  147MOL0     H19817   2.301  11.169   8.555  0.2303 -0.7236 -2.0595
  147MOL0     H19818   2.371  11.041   8.448 -0.1494 -0.7198 -0.8904
  147MOL0     H19819   2.197  10.990   8.685 -0.9102 -1.0392  0.0568
  147MOL0     H19820   2.239  10.893   8.543 -1.1085 -0.4728  2.4107
  147MOL0     H19821   2.004  10.995   8.541  2.2067 -0.9809  2.2209
  147MOL0     H19822   2.084  11.145   8.475 -0.1461 -0.6104 -0.7742
  147MOL0     H19823   2.083  10.875   8.356  0.1344 -0.4000 -0.4910
  147MOL0     H19824   2.182  11.025   8.296  0.6277  1.0802  1.2708
  147MOL0     H19825   1.960  11.135   8.265 -0.0832 -0.5976 -1.9601
  147MOL0     H19826   1.888  10.984   8.298  0.0463  0.6058  1.6647
  147MOL0     H19827   2.636  10.623   8.634 -0.5412 -0.7186  0.7765
  147MOL0     H19828   2.740  10.390   8.693 -4.4416  1.2264  3.5113
  147MOL0     H19829   2.806  10.031   8.822  0.6876  2.0705 -3.0198
  147MOL0     H19830   2.901   9.798   8.815  0.4299 -1.6803  1.8192
  147MOL0     H19831   3.884  10.753   9.084  0.1244 -1.0517  1.3997
  147MOL0     H19832   3.963  10.984   9.087  1.4625 -0.7548 -0.3904
  147MOL0     H19833   4.013  11.356   9.285 -0.9305 -1.9622 -0.3875
  147MOL0     H19834   4.101  11.596   9.297  0.3117 -0.2763  0.8531
  147MOL0     H19835   4.218  11.864   9.022 -0.9612  0.1511  1.6223
  147MOL0     H19836   4.149  11.734   8.928 -0.4603 -1.7729  1.8719
  147MOL0     H19837   3.980  11.976   9.013 -1.8916  0.5704 -1.1487
  147MOL0     H19838   3.957  11.890   8.866  0.7218  3.8652 -2.3101
  147MOL0     H19839   4.165  12.089   8.913  0.1607 -0.7984  2.0140
  147MOL0     H19840   4.017  12.113   8.824 -1.3081 -1.4835  0.0543
  147MOL0     H19841   4.168  12.095   8.662 -1.6047 -1.0271 -1.1261
  147MOL0     H19842   4.088  11.950   8.654  0.2358 -0.9035  0.7530
  147MOL0     H19843   4.499  11.848   8.758 -1.0939  1.2237 -0.2234
  147MOL0     H19844   3.874  11.687   8.945 -0.3580 -0.6170  0.2063
  147MOL0     H19845   3.764  11.473   8.961 -1.2114  1.9020  0.1458
  148MOL0     O19846   9.605   8.703   1.620  0.2427  0.1865  0.3105
  148MOL0     C19847   9.533   8.749   1.710 -0.1557 -0.5137  0.6544
  148MOL0     O19848   9.504   8.881   1.730  0.0304  0.2399 -0.2480
  148MOL0     C19849   9.597   8.975   1.695  0.6225  0.5176  0.5243
  148MOL0     C19850   9.731   8.962   1.682  0.0156  0.3479  0.0738
  148MOL0     C19851   9.808   9.066   1.632 -0.6266  0.2047  0.2145
  148MOL0     C19852   9.749   9.189   1.607  0.2457 -0.1392  0.1763
  148MOL0     O19853   9.815   9.303   1.579 -0.2885 -0.5181  0.2969
  148MOL0     C19854   9.952   9.296   1.528  0.2548  0.0686 -0.2418
  148MOL0     C19855  10.051   9.358   1.626  0.7294  0.2864  0.2712
  148MOL0     C19856  10.192   9.368   1.565  0.0321 -0.1721 -0.4513
  148MOL0     C19857  10.293   9.441   1.657  0.1446 -0.5308  0.3912
  148MOL0     C19858  10.415   9.498   1.577  0.3612  0.5994 -0.2785
  148MOL0     C19859  10.509   9.388   1.530  0.0781 -0.0716 -1.6544
  148MOL0     C19860  10.536   9.261   1.628 -0.4245  0.2964  0.9454
  148MOL0     C19861  10.589   9.293   1.779  1.1250 -0.1653 -0.4244
  148MOL0     N19862  10.542   9.181   1.865 -0.6179 -0.2999 -0.2013
  148MOL0     C19863  10.430   9.192   1.948  0.3690 -0.5829 -0.3542
  148MOL0     C19864  10.400   9.071   1.987 -0.6012 -0.1489  0.5701
  148MOL0     C19865  10.287   9.032   2.089 -0.6393 -0.5096 -0.3568
  148MOL0     C19866  10.154   9.008   2.014 -0.0095 -0.3314 -0.2807
  148MOL0     C19867  10.028   8.998   2.097  0.4866  0.5371 -0.4163
  148MOL0     C19868   9.894   8.956   2.018  0.1877  0.5571  0.0703
  148MOL0     O19869   9.905   8.846   1.932  0.2064  0.8149  0.2484
  148MOL0     C19870   9.878   8.716   1.987  0.6364  0.1672  0.3903
  148MOL0     C19871   9.857   8.621   1.897  0.0660  0.4977 -0.0125
  148MOL0     C19872   9.842   8.487   1.944  1.6170 -0.2236  0.1252
  148MOL0     C19873   9.825   8.374   1.840 -0.1090  0.1869 -1.5219
  148MOL0     C19874   9.839   8.453   2.078  0.3900  0.7526 -0.1824
  148MOL0     C19875   9.808   8.323   2.147  1.0263 -0.4009  0.8595
  148MOL0     O19876   9.682   8.270   2.122  0.1049 -0.0313  0.1579
  148MOL0     C19877   9.669   8.139   2.165 -0.3235 -0.2945 -0.4874
  148MOL0     C19878   9.603   8.121   2.288  0.8480  0.4940 -0.3272
  148MOL0     C19879   9.557   7.994   2.323  0.8573 -0.2785 -0.3137
  148MOL0     C19880   9.602   7.884   2.257 -0.4164  1.1111  0.5477
  148MOL0     O19881   9.562   7.770   2.318 -0.4708  0.7663 -0.2336
  148MOL0     C19882   9.631   7.643   2.284  0.6571 -0.0010 -0.4019
  148MOL0     C19883   9.557   7.530   2.357  0.8703 -0.0821  0.3317
  148MOL0     C19884   9.630   7.395   2.339 -0.8401 -0.2137  0.0535
  148MOL0     C19885   9.573   7.279   2.423  0.0640 -0.6724  0.0398
  148MOL0     C19886   9.678   7.167   2.460  1.0070  0.1870 -0.1003
  148MOL0     C19887   9.602   7.040   2.528  0.5843 -0.2942  0.7577
  148MOL0     C19888   9.716   6.942   2.560 -0.2574  0.2167  0.1065
  148MOL0     C19889   9.670   6.818   2.630  0.2246  0.2728  0.5520
  148MOL0    Cl19890   9.527   6.757   2.560 -0.0461 -0.2313  0.5965
  148MOL0     C19891   9.679   7.895   2.146 -0.8570  0.0698 -0.2142
  148MOL0     C19892   9.715   8.023   2.091  0.6113  0.6614 -1.3380
  148MOL0     O19893   9.893   8.278   2.221  0.7272 -0.0080 -0.5426
  148MOL0     C19894   9.855   8.552   2.174  0.2737  0.1935 -0.0311
  148MOL0     C19895   9.867   8.683   2.129  0.3068  0.3119 -0.1012
  148MOL0     N19896  10.480   8.981   1.914 -0.6676 -0.1005  0.2692
  148MOL0     N19897  10.555   9.049   1.836  0.7432 -0.0626 -0.5426
  148MOL0     C19898   9.615   9.201   1.629  0.4454  0.2385  0.0801
  148MOL0     C19899   9.536   9.096   1.669  0.5686  0.2592 -1.0136
  148MOL0     C19900   9.467   8.659   1.792  0.4974  0.2936  0.6060
  148MOL0     C19901   9.381   8.573   1.738 -0.3324  0.8637  1.1362
  148MOL0     C19902   9.327   8.479   1.818  0.1173  1.0149  0.6063
  148MOL0     C19903   9.360   8.456   1.949 -0.3342  0.3923 -0.2673
  148MOL0     O19904   9.310   8.348   2.021  0.0892 -0.4682  0.2710
  148MOL0     C19905   9.335   8.220   1.970  0.6815  0.0892  0.0621
  148MOL0     C19906   9.218   8.138   1.924 -0.6122 -0.5508 -0.0769
  148MOL0     C19907   9.098   8.120   2.015 -0.5195  0.9838  0.8440
  148MOL0     C19908   8.989   8.039   1.949  0.2173 -0.3366 -0.0323
  148MOL0     C19909   8.913   7.950   2.035  0.2745 -0.0569  0.0420
  148MOL0     C19910   8.853   7.871   2.100 -0.4209  0.5574 -0.8309
  148MOL0     C19911   9.440   8.553   2.004  0.6052  0.1665  0.1945
  148MOL0     C19912   9.499   8.655   1.928 -0.4576 -0.9208  0.6018
  148MOL0     H19913   9.785   8.871   1.705  0.5697  0.7815  0.5242
  148MOL0     H19914   9.912   9.046   1.609  0.1319  2.9321  0.8820
  148MOL0     H19915   9.971   9.195   1.489 -1.5948  1.1018 -4.3842
  148MOL0     H19916   9.962   9.365   1.444  1.0903 -1.6737 -1.6342
  148MOL0     H19917  10.021   9.459   1.654 -0.6317  0.0823 -0.3685
  148MOL0     H19918  10.054   9.295   1.716  0.9188 -1.4787 -0.9297
  148MOL0     H19919  10.235   9.269   1.546 -1.7811 -1.3433  1.0093
  148MOL0     H19920  10.182   9.418   1.469 -1.6836  1.0680  0.3096
  148MOL0     H19921  10.242   9.533   1.685 -0.6766  0.5558 -3.8644
  148MOL0     H19922  10.312   9.382   1.747  2.0707 -0.7706 -0.1234
  148MOL0     H19923  10.381   9.554   1.490 -0.0987 -0.1928 -0.6193
  148MOL0     H19924  10.463   9.559   1.654  1.2737 -1.0896  0.5529
  148MOL0     H19925  10.455   9.352   1.442  1.1805 -3.6051 -1.0721
  148MOL0     H19926  10.603   9.435   1.501  1.3120 -2.3351 -1.5767
  148MOL0     H19927  10.440   9.209   1.633 -0.4499  0.3830  1.5195
  148MOL0     H19928  10.598   9.188   1.575 -1.0137  0.8657 -0.5552
  148MOL0     H19929  10.557   9.393   1.809  2.3816  0.7105 -1.8352
  148MOL0     H19930  10.699   9.298   1.786  1.1668 -0.4350 -0.8724
  148MOL0     H19931  10.374   9.279   1.978  0.3849 -1.3849  2.2621
  148MOL0     H19932  10.314   8.941   2.144 -0.3307  0.2115  0.7043
  148MOL0     H19933  10.271   9.103   2.170  0.6306 -1.3783  0.6897
  148MOL0     H19934  10.178   8.912   1.966 -0.3882 -0.4371 -0.2611
  148MOL0     H19935  10.148   9.092   1.945  0.0472 -1.2893 -1.4952
  148MOL0     H19936  10.002   9.091   2.149  0.2047 -0.1614  0.7441
  148MOL0     H19937  10.045   8.917   2.169 -0.9327 -0.1507 -0.8260
  148MOL0     H19938   9.875   9.035   1.945 -1.1449 -2.2079 -2.8213
  148MOL0     H19939   9.810   8.944   2.087  0.0440 -0.1164 -0.2170
  148MOL0     H19940   9.866   8.650   1.793  0.6535 -1.4582 -0.5482
  148MOL0     H19941   9.734   8.313   1.847  0.2500 -0.1644  1.5055
  148MOL0     H19942   9.831   8.426   1.745  3.5948  3.1009  0.0366
  148MOL0     H19943   9.907   8.302   1.854 -2.0185 -1.7425  0.6789
  148MOL0     H19944   9.570   8.216   2.328 -1.2838 -0.4962  0.3952
  148MOL0     H19945   9.495   7.979   2.411  0.5048  1.5418 -0.2145
  148MOL0     H19946   9.626   7.625   2.176  0.4734  1.2792 -0.6219
  148MOL0     H19947   9.736   7.650   2.311  0.8174  2.8002 -1.4312
  148MOL0     H19948   9.544   7.553   2.463 -0.4439 -0.4595  0.2837
  148MOL0     H19949   9.453   7.514   2.326  0.8257  0.6921  0.0660
  148MOL0     H19950   9.734   7.416   2.365 -0.2329 -0.3688 -2.0481
  148MOL0     H19951   9.629   7.372   2.232  1.2578 -1.3361  0.2183
  148MOL0     H19952   9.519   7.316   2.510  1.0188  1.3502 -0.1755
  148MOL0     H19953   9.492   7.247   2.357 -1.0122  2.3259 -0.2575
  148MOL0     H19954   9.747   7.225   2.522 -0.3477  1.0739  0.6330
  148MOL0     H19955   9.726   7.125   2.371  0.9314  0.6607 -0.3680
  148MOL0     H19956   9.557   7.073   2.622 -0.2210  0.7514  0.0403
  148MOL0     H19957   9.531   7.003   2.453  0.3833 -0.3551  0.9773
  148MOL0     H19958   9.795   6.981   2.624 -1.1886  2.1780  0.1273
  148MOL0     H19959   9.751   6.905   2.463  1.2030 -0.4595  0.8584
  148MOL0     H19960   9.648   6.821   2.737  1.6385  0.1119  0.8571
  148MOL0     H19961   9.748   6.741   2.629  0.4066  0.3925  2.2980
  148MOL0     H19962   9.709   7.811   2.084 -0.7266 -0.1499  0.1477
  148MOL0     H19963   9.774   8.028   2.000 -0.1194 -2.4618 -2.1041
  148MOL0     H19964   9.852   8.526   2.279  0.1935  0.7239  0.0971
  148MOL0     H19965   9.858   8.762   2.203 -1.9512  0.2029 -0.1756
  148MOL0     H19966   9.564   9.296   1.632 -0.5591 -0.2704 -0.4838
  148MOL0     H19967   9.432   9.104   1.700  1.3494 -0.1615  2.0284
  148MOL0     H19968   9.368   8.571   1.631  0.0711  0.8497  1.0841
  148MOL0     H19969   9.260   8.416   1.760  1.3437 -2.0699  2.3307
  148MOL0     H19970   9.403   8.227   1.885  2.1803 -2.2549  0.9754
  148MOL0     H19971   9.376   8.158   2.051  0.9498 -1.9219 -1.5303
  148MOL0     H19972   9.240   8.033   1.904 -4.9924 -1.4636 -1.3134
  148MOL0     H19973   9.177   8.171   1.827 -0.2184 -0.2115 -0.1318
  148MOL0     H19974   9.059   8.214   2.056 -0.3307  1.1422  0.6648
  148MOL0     H19975   9.131   8.053   2.095  1.7282  2.3092  1.1185
  148MOL0     H19976   9.035   7.985   1.866 -1.7394  0.4660 -1.7282
  148MOL0     H19977   8.913   8.106   1.907  1.7276  1.4539 -0.0145
  148MOL0     H19978   8.807   7.803   2.168 -0.7157  2.0205  0.5145
  148MOL0     H19979   9.456   8.540   2.111  2.6541 -0.6943 -0.1570
  148MOL0     H19980   9.578   8.721   1.961  0.9447 -1.5871 -1.2296
  149MOL0     O19981   6.473   4.082   8.910  0.2162 -0.8130  0.1797
  149MOL0     C19982   6.447   3.964   8.886 -0.6597  0.1888 -0.9855
  149MOL0     O19983   6.445   3.862   8.979 -0.2040  0.5089 -0.4336
  149MOL0     C19984   6.433   3.900   9.112  0.3682  0.5183  0.3066
  149MOL0     C19985   6.315   3.946   9.163 -0.6265  0.5324  0.7436
  149MOL0     C19986   6.298   3.980   9.296 -0.3289  0.3153  0.1659
  149MOL0     C19987   6.407   3.980   9.384 -0.5932  0.3564 -0.1329
  149MOL0     O19988   6.392   4.006   9.513  0.4560  0.3224  0.4450
  149MOL0     C19989   6.463   3.937   9.612 -0.5058  0.7325 -0.5830
  149MOL0     C19990   6.380   3.938   9.746 -0.6915  0.0824  1.1377
  149MOL0     C19991   6.453   3.851   9.855  0.0048  0.5396 -0.7258
  149MOL0     C19992   6.586   3.909   9.896  0.1285 -0.3960 -0.5975
  149MOL0     C19993   6.621   3.912  10.042  0.4204 -0.4396 -0.3648
  149MOL0     C19994   6.730   4.025  10.060  0.0322 -0.4737  0.0323
  149MOL0     C19995   6.799   4.033  10.195  0.6356  0.3915  0.9194
  149MOL0     C19996   6.709   4.122  10.284  0.2428  0.0972  0.2599
  149MOL0     N19997   6.767   4.145  10.420  0.0405  0.0121 -0.3904
  149MOL0     C19998   6.858   4.240  10.460  0.0363  0.1251  0.2100
  149MOL0     C19999   6.903   4.209  10.584  1.3398 -0.1044 -0.4270
  149MOL0     C20000   6.994   4.293  10.679  0.0986  0.3392  1.0078
  149MOL0     C20001   7.142   4.252  10.647 -0.3326  0.0324 -1.0337
  149MOL0     C20002   7.199   4.221  10.785 -0.0678  0.1868 -0.6762
  149MOL0     C20003   7.343   4.257  10.796  0.6233  1.6559  0.2192
  149MOL0     O20004   7.362   4.395  10.779  0.4052  0.0508 -0.1216
  149MOL0     C20005   7.409   4.461  10.886  0.2962 -0.9204  0.5039
  149MOL0     C20006   7.519   4.544  10.871 -0.3792  0.1155 -0.6207
  149MOL0     C20007   7.581   4.606  10.989 -1.3047  0.3561  0.4222
  149MOL0     C20008   7.680   4.715  10.972  0.1654  0.6269 -0.3970
  149MOL0     C20009   7.526   4.579  11.113  0.5343  1.3041  0.7761
  149MOL0     C20010   7.580   4.624  11.241  0.6884  0.2660 -0.5570
  149MOL0     O20011   7.594   4.525  11.334  0.0162 -0.1921  0.0154
  149MOL0     C20012   7.677   4.560  11.447 -0.1708 -0.4245 -0.2673
  149MOL0     C20013   7.814   4.587  11.434  0.9254  0.4882 -0.3342
  149MOL0     C20014   7.888   4.610  11.550  0.1892  0.2486  0.4167
  149MOL0     C20015   7.828   4.596  11.677 -0.8629 -0.9231  0.1327
  149MOL0     O20016   7.904   4.608  11.792 -0.2141 -0.3603  0.3644
  149MOL0     C20017   8.056   4.615  11.800 -0.8598  0.3601  0.5794
  149MOL0     C20018   8.120   4.577  11.931 -0.4965 -0.3582  0.7328
  149MOL0     C20019   8.074   4.666  12.041 -0.7948 -0.2452 -0.1984
  149MOL0     C20020   8.175   4.674  12.157 -0.2296  0.4854 -0.2114
  149MOL0     C20021   8.138   4.768  12.269 -0.0474 -0.0500  0.3108
  149MOL0     C20022   8.235   4.755  12.378 -0.3722 -0.0287 -0.4083
  149MOL0     C20023   8.235   4.885  12.476  0.5261  0.5455 -0.6886
  149MOL0     C20024   8.329   4.868  12.594  0.5236  1.1931  0.3990
  149MOL0    Cl20025   8.242   4.801  12.737 -0.0803  0.0472 -0.0903
  149MOL0     C20026   7.697   4.572  11.686 -0.1195 -0.1246 -0.5581
  149MOL0     C20027   7.619   4.557  11.571 -0.1937  0.3324 -0.0041
  149MOL0     O20028   7.621   4.739  11.261  0.1735 -0.5302  0.2697
  149MOL0     C20029   7.408   4.499  11.127 -0.6688 -0.1002 -0.7395
  149MOL0     C20030   7.353   4.441  11.014  0.5295 -0.6688  0.3003
  149MOL0     N20031   6.823   4.102  10.613 -0.4143 -0.4456  0.1613
  149MOL0     N20032   6.737   4.061  10.526 -0.0401 -0.3750  0.7412
  149MOL0     C20033   6.536   3.935   9.336  0.7153  0.0377 -0.1872
  149MOL0     C20034   6.550   3.894   9.201  0.2812 -0.2746  0.5968
  149MOL0     C20035   6.424   3.919   8.747  0.0583 -0.4232  0.0524
  149MOL0     C20036   6.384   3.786   8.717  1.3276 -0.7616 -0.0194
  149MOL0     C20037   6.343   3.752   8.585  0.7204 -0.2889  0.1002
  149MOL0     C20038   6.353   3.844   8.478  0.0015 -0.3741 -0.0759
  149MOL0     O20039   6.304   3.833   8.353 -0.0217  0.0597  0.1846
  149MOL0     C20040   6.159   3.791   8.353  0.0965  0.3065 -0.2086
  149MOL0     C20041   6.134   3.641   8.328  0.0022 -0.4236  0.5929
  149MOL0     C20042   5.981   3.622   8.351 -0.2299 -0.3622 -0.1492
  149MOL0     C20043   5.925   3.655   8.489 -0.1133  1.0468  0.1088
  149MOL0     C20044   5.999   3.582   8.596  0.3762  0.2213 -0.6471
  149MOL0     C20045   6.055   3.497   8.661 -0.1857  0.1105  0.5467
  149MOL0     C20046   6.387   3.976   8.509  0.4682  0.3206  0.4035
  149MOL0     C20047   6.429   4.011   8.641 -0.8167 -0.0381 -1.0514
  149MOL0     H20048   6.228   3.947   9.097  1.6596 -0.1835 -2.5322
  149MOL0     H20049   6.206   4.020   9.339 -0.7873 -0.0298 -0.4910
  149MOL0     H20050   6.475   3.832   9.584 -1.6602  0.0209  1.4350
  149MOL0     H20051   6.565   3.973   9.628  0.3255 -2.2040  1.6031
  149MOL0     H20052   6.379   4.039   9.788  4.6539  0.7774  0.2841
  149MOL0     H20053   6.286   3.887   9.721 -0.8389 -0.6447  3.0738
  149MOL0     H20054   6.386   3.853   9.941  0.3410 -1.6230 -0.3533
  149MOL0     H20055   6.472   3.751   9.815 -0.0186 -0.4295  1.5324
  149MOL0     H20056   6.665   3.857   9.840  0.3008  0.6607 -1.3655
  149MOL0     H20057   6.591   4.011   9.857 -0.2705 -0.9123 -2.0467
  149MOL0     H20058   6.534   3.937  10.103 -1.4290 -0.4666 -2.8184
  149MOL0     H20059   6.652   3.809  10.064 -1.0156 -1.3489 -2.2960
  149MOL0     H20060   6.817   4.022   9.994 -0.2170  2.2116 -0.5470
  149MOL0     H20061   6.675   4.115  10.031 -2.6814 -1.6321  1.2333
  149MOL0     H20062   6.829   3.939  10.243 -1.3394  0.9943  3.6246
  149MOL0     H20063   6.895   4.083  10.184 -0.0155  1.3875 -0.5664
  149MOL0     H20064   6.607   4.086  10.304 -1.0279  2.6691 -1.1305
  149MOL0     H20065   6.705   4.223  10.243 -1.6425 -0.3022 -0.6256
  149MOL0     H20066   6.890   4.325  10.401  0.0473  2.8973  3.9142
  149MOL0     H20067   6.992   4.400  10.658  3.2927  0.2953 -0.0189
  149MOL0     H20068   6.968   4.268  10.782  2.6254 -2.8672  1.0511
  149MOL0     H20069   7.194   4.329  10.589 -0.0994  0.8285  0.1752
  149MOL0     H20070   7.144   4.166  10.580 -3.2556 -1.5153  0.6456
  149MOL0     H20071   7.186   4.114  10.807 -1.6725 -0.2103 -3.1358
  149MOL0     H20072   7.142   4.276  10.862  1.7366  1.4960 -0.2078
  149MOL0     H20073   7.395   4.197  10.721  1.2385  0.7818  1.3165
  149MOL0     H20074   7.381   4.220  10.891  2.4562  0.9123 -0.7582
  149MOL0     H20075   7.566   4.564  10.775  0.9929 -1.3142 -0.2818
  149MOL0     H20076   7.775   4.685  11.017 -1.4782 -1.7785  1.7758
  149MOL0     H20077   7.681   4.734  10.865 -3.5548 -1.0216 -0.8628
  149MOL0     H20078   7.653   4.806  11.027  0.3086 -0.2944  1.2879
  149MOL0     H20079   7.857   4.599  11.336 -1.1929  1.5096 -1.2166
  149MOL0     H20080   7.992   4.640  11.539 -0.2396  1.2967 -1.1699
  149MOL0     H20081   8.104   4.551  11.725 -1.0719 -0.0167  0.7575
  149MOL0     H20082   8.089   4.716  11.776  0.5993  0.6493  3.3754
  149MOL0     H20083   8.111   4.471  11.957  2.6841 -0.8865  0.1218
  149MOL0     H20084   8.227   4.578  11.911 -0.7729 -0.3562 -0.9323
  149MOL0     H20085   7.982   4.630  12.089 -0.8899  0.3810  0.1050
  149MOL0     H20086   8.062   4.770  12.010 -1.9116 -0.1162  0.5893
  149MOL0     H20087   8.191   4.575  12.200 -0.9558 -1.0727 -3.2624
  149MOL0     H20088   8.271   4.704  12.113  2.3107 -6.2045 -0.3226
  149MOL0     H20089   8.044   4.741  12.319 -0.9995  0.9736 -0.8887
  149MOL0     H20090   8.142   4.873  12.239 -3.2975  0.1786  0.3409
  149MOL0     H20091   8.209   4.666  12.436  1.1518  1.0983  2.1607
  149MOL0     H20092   8.335   4.742  12.335  0.4143  0.2199  1.2774
  149MOL0     H20093   8.137   4.884  12.526 -0.2049  1.3270 -2.0347
  149MOL0     H20094   8.258   4.976  12.421  2.7749  0.9654  0.8277
  149MOL0     H20095   8.356   4.968  12.628  1.5384  0.2752  2.5306
  149MOL0     H20096   8.422   4.823  12.558  0.3926  0.8251  0.5159
  149MOL0     H20097   7.637   4.545  11.772 -1.7902  0.8548 -1.3652
  149MOL0     H20098   7.514   4.534  11.582  0.3723 -1.8403  1.5324
  149MOL0     H20099   7.363   4.477  11.224  2.9083  2.0521  1.6402
  149MOL0     H20100   7.265   4.381  11.030 -0.4496  1.1399  2.3097
  149MOL0     H20101   6.623   3.939   9.400  1.6712 -1.1475 -1.3716
  149MOL0     H20102   6.636   3.840   9.162 -2.2973 -2.7161 -2.1682
  149MOL0     H20103   6.363   3.706   8.787 -2.7918  0.8140  0.7958
  149MOL0     H20104   6.313   3.650   8.560  0.0548  0.1513 -0.9699
  149MOL0     H20105   6.115   3.825   8.447 -0.0215 -3.6681  1.3466
  149MOL0     H20106   6.109   3.848   8.274 -1.5737  0.9912  1.2821
  149MOL0     H20107   6.193   3.579   8.395 -0.6982 -0.9379  0.7450
  149MOL0     H20108   6.165   3.616   8.226 -1.1648  1.5866 -0.3337
  149MOL0     H20109   5.947   3.520   8.332 -0.1496 -0.2623 -0.8380
  149MOL0     H20110   5.927   3.689   8.283 -1.5354 -0.7919  0.4136
  149MOL0     H20111   5.826   3.607   8.496  1.2556 -1.9788  0.3356
  149MOL0     H20112   5.907   3.762   8.503 -0.7143  0.8947  0.5380
  149MOL0     H20113   6.093   3.421   8.727  0.3166 -0.4730 -0.3910
  149MOL0     H20114   6.382   4.057   8.436 -4.1519  1.0208  1.1889
  149MOL0     H20115   6.456   4.111   8.671 -0.8348 -0.9763  2.5204
  150MOL0     O20116   3.969   2.677   9.810 -0.7519 -1.3480 -0.0589
  150MOL0     C20117   3.988   2.794   9.773  0.2786  0.4739  0.0853
  150MOL0     O20118   3.889   2.880   9.728 -0.2292  0.3614  0.3615
  150MOL0     C20119   3.758   2.843   9.695  0.5771  0.6575  0.5292
  150MOL0     C20120   3.680   2.743   9.752  0.8274 -0.0074  0.2606
  150MOL0     C20121   3.537   2.748   9.732  0.2676 -0.2614  1.0422
  150MOL0     C20122   3.476   2.851   9.666  0.2366 -0.7637  0.6960
  150MOL0     O20123   3.334   2.859   9.659  0.5790  0.3150  0.4706
  150MOL0     C20124   3.250   2.747   9.693  0.3406 -0.3179 -0.3164
  150MOL0     C20125   3.100   2.795   9.686 -0.0432 -0.4299  0.6289
  150MOL0     C20126   2.997   2.689   9.727  0.5642 -0.0823  0.5687
  150MOL0     C20127   2.979   2.581   9.617  0.1431  0.8460 -0.7138
  150MOL0     C20128   2.829   2.528   9.613  0.7267 -0.1522  0.8056
  150MOL0     C20129   2.796   2.385   9.555 -0.4375  0.8193 -0.7596
  150MOL0     C20130   2.891   2.275   9.592  0.4041  0.1812 -0.1101
  150MOL0     C20131   2.888   2.226   9.727  0.4884 -0.7199  0.0924
  150MOL0     N20132   2.971   2.116   9.761  0.0770 -0.5074  0.5665
  150MOL0     C20133   3.048   2.114   9.874 -0.8287 -0.0897  0.4516
  150MOL0     C20134   3.136   2.013   9.852 -0.7155  0.4919 -0.3514
  150MOL0     C20135   3.231   1.969   9.960  0.0268  0.3996  0.4900
  150MOL0     C20136   3.351   2.061   9.969  0.2736 -0.3276 -0.6472
  150MOL0     C20137   3.455   1.998  10.065  0.3894 -0.4468  0.3807
  150MOL0     C20138   3.419   2.026  10.213  0.3962 -0.6536  0.1238
  150MOL0     O20139   3.525   1.967  10.289  0.4592 -0.1991  0.0445
  150MOL0     C20140   3.493   1.857  10.366  0.6998 -0.2142 -0.0637
  150MOL0     C20141   3.482   1.864  10.504 -0.7928 -0.7186 -0.1009
  150MOL0     C20142   3.464   1.750  10.584 -0.5438  1.0911 -0.2895
  150MOL0     C20143   3.456   1.772  10.736  0.1291  0.5159 -0.6976
  150MOL0     C20144   3.434   1.625  10.523 -0.7473  0.9059  0.9888
  150MOL0     C20145   3.411   1.498  10.605 -0.3734  0.2493  0.4750
  150MOL0     O20146   3.452   1.487  10.726  0.2286  0.3106  0.2352
  150MOL0     C20147   3.410   1.385  10.808 -0.0033 -0.4827  0.0490
  150MOL0     C20148   3.425   1.248  10.765  0.1660  0.2555 -0.2329
  150MOL0     C20149   3.413   1.141  10.856  0.9097 -0.2344 -0.4041
  150MOL0     C20150   3.377   1.165  10.991  0.9422  0.2988  0.8913
  150MOL0     O20151   3.381   1.074  11.094  0.4034  0.0135  0.9778
  150MOL0     C20152   3.401   0.937  11.050 -0.0288  0.8426  0.0752
  150MOL0     C20153   3.372   0.834  11.160 -0.7920  0.2042 -0.0676
  150MOL0     C20154   3.433   0.695  11.118 -0.2627 -0.6220  0.2560
  150MOL0     C20155   3.417   0.592  11.233  0.0480  0.5760 -0.0628
  150MOL0     C20156   3.279   0.523  11.238  0.4769  0.8763  0.1168
  150MOL0     C20157   3.246   0.424  11.123 -0.8576 -0.3459 -0.5790
  150MOL0     C20158   3.100   0.370  11.109  1.2550 -0.2315 -0.4145
  150MOL0     C20159   3.072   0.297  10.968 -0.9447 -0.7390 -0.0746
  150MOL0    Cl20160   3.017   0.410  10.847  0.5444 -0.1102 -0.3510
  150MOL0     C20161   3.350   1.294  11.026  0.4979 -0.0032 -0.0401
  150MOL0     C20162   3.365   1.400  10.936  1.1019 -0.7848  0.1438
  150MOL0     O20163   3.338   1.419  10.545  0.0011  0.2094  0.2245
  150MOL0     C20164   3.434   1.618  10.384  0.0600  0.1037  0.4092
  150MOL0     C20165   3.458   1.733  10.309  0.1046 -0.0338 -0.1739
  150MOL0     N20166   3.103   1.944   9.741  0.3172  1.0927 -0.0220
  150MOL0     N20167   3.012   2.010   9.680 -0.3867 -0.0775  0.0404
  150MOL0     C20168   3.552   2.942   9.600  0.2258  0.1776 -0.0298
  150MOL0     C20169   3.692   2.944   9.622 -0.1471  0.3906  0.6238
  150MOL0     C20170   4.125   2.846   9.765 -0.1770 -0.7935 -0.4887
  150MOL0     C20171   4.155   2.975   9.737 -0.4868 -0.1738  0.9625
  150MOL0     C20172   4.286   3.030   9.731 -0.0971  0.0350  1.1075
  150MOL0     C20173   4.394   2.948   9.765 -0.6722 -0.0267  0.1417
  150MOL0     O20174   4.529   2.982   9.789 -0.9214 -0.1022  0.2688
  150MOL0     C20175   4.558   3.122   9.801  0.0608  0.6130  0.1210
  150MOL0     C20176   4.712   3.137   9.812  0.3706 -0.5341 -1.4207
  150MOL0     C20177   4.744   3.119   9.970  0.3929 -0.6861  0.1669
  150MOL0     C20178   4.895   3.137   9.998 -0.4672 -0.8327 -0.3699
  150MOL0     C20179   4.956   3.269   9.947  0.9122 -1.2263 -0.7027
  150MOL0     C20180   4.994   3.378   9.892  0.0579  0.2393 -0.3808
  150MOL0     C20181   4.370   2.808   9.794  0.2922  0.8535 -0.3836
  150MOL0     C20182   4.238   2.768   9.800 -0.8909 -0.0477  0.1802
  150MOL0     H20183   3.729   2.667   9.813  2.0868  1.8807  1.6967
  150MOL0     H20184   3.480   2.671   9.782  0.6363 -0.8943  0.4978
  150MOL0     H20185   3.264   2.669   9.618  1.5900 -1.1837  0.7806
  150MOL0     H20186   3.267   2.713   9.796 -2.7226 -0.4552  0.2645
  150MOL0     H20187   3.075   2.870   9.762 -3.5658 -0.1605 -0.6089
  150MOL0     H20188   3.090   2.845   9.590  2.5089 -0.3522  0.3502
  150MOL0     H20189   3.035   2.647   9.820  3.4349  1.7271  0.3224
  150MOL0     H20190   2.901   2.739   9.742  0.5348  0.1697 -0.3968
  150MOL0     H20191   3.001   2.621   9.517 -0.2246  1.8365 -0.4115
  150MOL0     H20192   3.044   2.495   9.634 -0.3216  0.7083  0.4438
  150MOL0     H20193   2.789   2.512   9.713 -0.0208 -1.4400  0.3369
  150MOL0     H20194   2.761   2.603   9.572  0.0624 -0.6671  0.9405
  150MOL0     H20195   2.701   2.354   9.601 -0.0937 -1.8197 -1.6254
  150MOL0     H20196   2.777   2.377   9.448 -0.0255  0.0659 -0.7872
  150MOL0     H20197   2.866   2.186   9.533  0.8194 -1.7664  2.4423
  150MOL0     H20198   2.990   2.311   9.563  0.8200 -0.5812  0.3309
  150MOL0     H20199   2.782   2.205   9.746  0.1052 -0.7441 -1.8180
  150MOL0     H20200   2.930   2.303   9.791  1.1583 -1.2682  0.3248
  150MOL0     H20201   3.044   2.185   9.956 -1.6731  1.5986 -0.9917
  150MOL0     H20202   3.175   1.966  10.053  0.9910 -3.0679  1.0804
  150MOL0     H20203   3.271   1.876   9.919  1.4603  1.9400 -1.9081
  150MOL0     H20204   3.331   2.162  10.008  2.0297  0.1014 -0.7580
  150MOL0     H20205   3.388   2.071   9.867  1.6626  3.8765  0.0533
  150MOL0     H20206   3.551   2.051  10.064  0.3974 -0.4587  0.5307
  150MOL0     H20207   3.480   1.896  10.036  0.2672 -0.1358 -0.8771
  150MOL0     H20208   3.325   1.981  10.246  2.2659 -3.3314  2.2648
  150MOL0     H20209   3.417   2.135  10.220  4.5925  0.0503 -4.3875
  150MOL0     H20210   3.484   1.965  10.543 -2.7211  1.5727 -5.0438
  150MOL0     H20211   3.357   1.740  10.769  0.0761 -2.7627 -3.4011
  150MOL0     H20212   3.534   1.723  10.795  1.9840 -0.4747 -3.7066
  150MOL0     H20213   3.466   1.879  10.756 -0.6359  0.3041  1.0137
  150MOL0     H20214   3.467   1.233  10.666 -1.1578 -2.1188 -0.4897
  150MOL0     H20215   3.425   1.045  10.808 -1.3057  0.3501 -2.3248
  150MOL0     H20216   3.347   0.912  10.958  1.2429  0.8742 -0.7038
  150MOL0     H20217   3.507   0.934  11.022  0.2850 -2.4710  1.1691
  150MOL0     H20218   3.413   0.878  11.251 -0.9575  3.2293 -1.3607
  150MOL0     H20219   3.267   0.823  11.190 -0.2764 -2.4898  1.0494
  150MOL0     H20220   3.537   0.704  11.087 -0.3075 -1.3936 -0.1390
  150MOL0     H20221   3.381   0.653  11.032 -1.6506 -3.0115  2.1192
  150MOL0     H20222   3.486   0.512  11.204 -1.9620 -0.0190 -3.9700
  150MOL0     H20223   3.457   0.639  11.323  1.2940 -0.4708 -0.0272
  150MOL0     H20224   3.201   0.600  11.237  0.0258  0.5505  2.5561
  150MOL0     H20225   3.262   0.476  11.335 -0.9836  2.4688  0.6895
  150MOL0     H20226   3.277   0.484  11.038  4.2661 -1.3591  0.2252
  150MOL0     H20227   3.311   0.335  11.125 -0.9113 -0.3978 -1.0460
  150MOL0     H20228   3.034   0.457  11.106 -0.9253 -1.8300 -2.8869
  150MOL0     H20229   3.084   0.289  11.181 -1.2612  0.0800 -0.5410
  150MOL0     H20230   3.001   0.215  10.964 -0.4510 -1.1204 -1.6036
  150MOL0     H20231   3.163   0.258  10.922  0.7665  1.7158  0.9718
  150MOL0     H20232   3.309   1.325  11.121 -1.7967  0.3526 -1.0578
  150MOL0     H20233   3.366   1.498  10.983  1.6161 -0.2049 -1.0227
  150MOL0     H20234   3.395   1.525  10.342  2.0200 -0.1807 -0.8937
  150MOL0     H20235   3.454   1.732  10.201  1.6550  0.5184 -0.2628
  150MOL0     H20236   3.500   3.018   9.541  0.0548 -2.8993 -4.2815
  150MOL0     H20237   3.756   3.020   9.578  0.5063 -0.2742  0.4207
  150MOL0     H20238   4.072   3.044   9.730 -0.1339  0.1662 -0.1029
  150MOL0     H20239   4.294   3.138   9.725  2.5798 -0.1054  1.2805
  150MOL0     H20240   4.524   3.173   9.710  0.2111  1.2517  0.4151
  150MOL0     H20241   4.504   3.169   9.884 -1.1138  0.6856 -0.6597
  150MOL0     H20242   4.740   3.238   9.781  2.5780 -0.3647  0.8162
  150MOL0     H20243   4.764   3.057   9.759  1.7745 -1.0450  0.6005
  150MOL0     H20244   4.708   3.020  10.001  3.1087 -1.4420  1.2293
  150MOL0     H20245   4.688   3.196  10.023 -0.6920  0.3666 -2.3674
  150MOL0     H20246   4.948   3.061   9.941  1.8609 -1.1422  2.0502
  150MOL0     H20247   4.913   3.126  10.105 -2.6967  1.0345  0.2784
  150MOL0     H20248   5.025   3.469   9.843 -1.5243  1.3329  0.5684
  150MOL0     H20249   4.456   2.753   9.831 -2.1525 -0.7124  3.7166
  150MOL0     H20250   4.221   2.666   9.833  0.7231  1.1649  5.7526
  151MOL0     O20251   1.879   0.209   2.841 -0.4197  0.5389  0.0781
  151MOL0     C20252   1.957   0.274   2.774  0.2156  1.1856  0.1214
  151MOL0     O20253   2.019   0.230   2.663 -0.1557 -0.9406  0.3752
  151MOL0     C20254   1.947   0.166   2.564  0.8290  0.5196 -0.6784
  151MOL0     C20255   2.029   0.072   2.488  0.6319 -0.5479 -0.3947
  151MOL0     C20256   1.966  -0.012   2.392 -0.4445 -0.3331  0.2493
  151MOL0     C20257   1.830   0.002   2.367 -0.3028 -0.4220  0.2132
  151MOL0     O20258   1.757  -0.066   2.271 -0.4235 -0.6074 -0.0515
  151MOL0     C20259   1.822  -0.078   2.141 -0.3533  0.5394  0.0458
  151MOL0     C20260   1.709  -0.120   2.049 -0.2133  0.0137  0.2478
  151MOL0     C20261   1.750  -0.162   1.901 -0.2745 -0.0075  0.3009
  151MOL0     C20262   1.626  -0.195   1.825 -0.6553  0.1215 -0.2528
  151MOL0     C20263   1.636  -0.219   1.673 -0.3522  0.4214 -0.0813
  151MOL0     C20264   1.724  -0.341   1.638  0.5095  1.2597 -0.0830
  151MOL0     C20265   1.712  -0.384   1.484  0.1410 -0.2047 -0.0586
  151MOL0     C20266   1.798  -0.290   1.390  1.0921  0.0919  0.2659
  151MOL0     N20267   1.789  -0.340   1.255 -0.0138 -0.2181 -0.1370
  151MOL0     C20268   1.713  -0.287   1.154 -0.2857  0.1510 -0.2279
  151MOL0     C20269   1.732  -0.362   1.047 -0.2454 -0.0774 -1.2848
  151MOL0     C20270   1.678  -0.349   0.910 -0.2152 -0.0798 -0.7705
  151MOL0     C20271   1.696  -0.207   0.851 -0.4637  0.5080  0.0281
  151MOL0     C20272   1.716  -0.208   0.700  0.2033  0.5572  0.0002
  151MOL0     C20273   1.705  -0.062   0.647  0.5520 -0.1541  0.3758
  151MOL0     O20274   1.833  -0.024   0.605  0.5470 -0.1405  0.6616
  151MOL0     C20275   1.878  -0.081   0.478  0.0023  0.5410 -0.5478
  151MOL0     C20276   1.803  -0.162   0.388  0.1119 -0.6491 -0.5141
  151MOL0     C20277   1.856  -0.198   0.263  0.0937  0.1047  0.3097
  151MOL0     C20278   1.764  -0.281   0.195 -0.5800  0.0494  0.0541
  151MOL0     C20279   1.981  -0.161   0.228  0.2192  0.0938  0.3782
  151MOL0     C20280   2.034  -0.196   0.095 -0.2031 -0.2511 -0.3353
  151MOL0     O20281   1.999  -0.315   0.047 -0.1502 -0.9800 -0.6006
  151MOL0     C20282   2.044  -0.351  -0.078  0.3778 -0.0796  0.3276
  151MOL0     C20283   2.037  -0.490  -0.106 -1.1565  0.9152  0.0433
  151MOL0     C20284   2.093  -0.552  -0.226 -0.3956 -0.2637 -0.3421
  151MOL0     C20285   2.150  -0.472  -0.326  0.5588 -0.2329  0.3359
  151MOL0     O20286   2.196  -0.524  -0.446  0.2704 -0.1889  0.9561
  151MOL0     C20287   2.104  -0.615  -0.509 -0.4845 -0.0670 -0.1240
  151MOL0     C20288   1.960  -0.572  -0.542 -1.1873  0.0031 -0.3932
  151MOL0     C20289   1.949  -0.434  -0.597 -0.8348 -0.5646 -0.5660
  151MOL0     C20290   1.801  -0.415  -0.631 -0.5487  0.2623  0.8517
  151MOL0     C20291   1.758  -0.294  -0.709  0.7974  0.8143 -0.4690
  151MOL0     C20292   1.752  -0.162  -0.622  0.1875  0.1361  0.2553
  151MOL0     C20293   1.668  -0.055  -0.695  0.0605  0.2830  0.5904
  151MOL0     C20294   1.633   0.068  -0.613  0.8361 -0.4161 -0.0808
  151MOL0    Cl20295   1.565   0.042  -0.447  0.2084  0.4676 -0.5717
  151MOL0     C20296   2.152  -0.337  -0.305  0.1357  0.3404  0.0074
  151MOL0     C20297   2.113  -0.271  -0.181  0.0206  0.4646  0.0722
  151MOL0     O20298   2.120  -0.122   0.055  0.2212 -0.0676  0.5693
  151MOL0     C20299   2.057  -0.085   0.316 -0.1052 -0.4402  0.2378
  151MOL0     C20300   2.013  -0.046   0.446  0.6543 -0.2550 -0.4112
  151MOL0     N20301   1.832  -0.453   1.089 -0.0170  0.3817  0.7386
  151MOL0     N20302   1.875  -0.427   1.205 -0.2050 -0.1547 -0.0206
  151MOL0     C20303   1.756   0.102   2.437 -0.7530 -0.3201 -0.6663
  151MOL0     C20304   1.808   0.173   2.542  0.2242 -1.2275 -0.3557
  151MOL0     C20305   1.993   0.407   2.830  0.0327  0.3875 -0.5724
  151MOL0     C20306   2.030   0.510   2.747 -0.6467  1.0937  0.6466
  151MOL0     C20307   2.084   0.632   2.792 -1.0323 -0.2334  0.0255
  151MOL0     C20308   2.071   0.656   2.928  0.2316  0.0277  0.5707
  151MOL0     O20309   2.101   0.780   2.978 -0.5565  0.2803 -0.4806
  151MOL0     C20310   2.178   0.879   2.919  1.1694 -0.9356  0.6194
  151MOL0     C20311   2.176   1.005   3.011 -0.0864  0.2959 -0.1661
  151MOL0     C20312   2.034   1.068   3.032  0.6528  0.2378  0.0404
  151MOL0     C20313   2.024   1.122   3.170  0.2009 -0.1535  0.3779
  151MOL0     C20314   1.900   1.191   3.180 -0.0937  0.5343  0.0801
  151MOL0     C20315   1.783   1.229   3.179 -0.3514  1.2443 -0.0996
  151MOL0     C20316   2.011   0.560   3.009  0.0635  0.5384 -0.0951
  151MOL0     C20317   1.967   0.439   2.965 -0.4765  0.6796  0.5255
  151MOL0     H20318   2.134   0.061   2.515  0.2533  1.8166  2.6761
  151MOL0     H20319   2.024  -0.084   2.336 -4.7277 -3.6078 -0.5364
  151MOL0     H20320   1.869   0.015   2.108 -0.2742  0.7714  0.7942
  151MOL0     H20321   1.900  -0.153   2.156  1.6869  3.1233  4.7719
  151MOL0     H20322   1.654  -0.206   2.088 -0.6147 -2.3276 -4.6931
  151MOL0     H20323   1.642  -0.034   2.042 -0.7385 -0.5469 -2.6039
  151MOL0     H20324   1.798  -0.079   1.849 -0.7095  0.9987  1.4724
  151MOL0     H20325   1.814  -0.249   1.882  1.4110  1.5539 -1.6126
  151MOL0     H20326   1.585  -0.281   1.879 -1.4938 -0.4256 -1.7029
  151MOL0     H20327   1.563  -0.106   1.830 -1.0621 -0.1586 -0.4230
  151MOL0     H20328   1.545  -0.254   1.626  1.2542 -2.4221 -1.3201
  151MOL0     H20329   1.672  -0.139   1.607  1.8564 -2.4249 -2.6277
  151MOL0     H20330   1.828  -0.329   1.673  0.3549  1.6502  0.2513
  151MOL0     H20331   1.689  -0.433   1.685  0.4945 -0.4772 -3.2205
  151MOL0     H20332   1.741  -0.489   1.477 -0.7372 -0.5067  0.7289
  151MOL0     H20333   1.609  -0.377   1.449  0.5642  2.6239 -1.0244
  151MOL0     H20334   1.906  -0.298   1.402  1.1681 -0.0430 -0.4704
  151MOL0     H20335   1.763  -0.186   1.389 -0.6733 -0.3829  2.7109
  151MOL0     H20336   1.643  -0.206   1.167 -0.4484  0.4774 -2.6261
  151MOL0     H20337   1.718  -0.425   0.843 -2.0350 -0.5412 -1.3964
  151MOL0     H20338   1.569  -0.358   0.905 -0.7708  4.2101 -0.4479
  151MOL0     H20339   1.790  -0.159   0.882  2.0463 -2.7475 -1.8191
  151MOL0     H20340   1.612  -0.143   0.879  0.2605  0.5505  2.3684
  151MOL0     H20341   1.636  -0.272   0.662  0.7738 -0.5157  0.5824
  151MOL0     H20342   1.812  -0.249   0.667  0.0331 -1.5000  1.8971
  151MOL0     H20343   1.672   0.010   0.722 -0.1513  0.8337 -0.8316
  151MOL0     H20344   1.627  -0.045   0.572  1.0915  0.3302 -0.0849
  151MOL0     H20345   1.700  -0.178   0.417  1.0894 -0.6999  3.3633
  151MOL0     H20346   1.759  -0.273   0.086 -2.2664  0.9905  0.1648
  151MOL0     H20347   1.796  -0.383   0.218 -1.5418 -0.1633  0.4879
  151MOL0     H20348   1.664  -0.264   0.235 -0.1616  1.3100  0.6413
  151MOL0     H20349   1.991  -0.554  -0.031 -0.4338 -0.7267 -0.8448
  151MOL0     H20350   2.103  -0.660  -0.233  2.7177 -0.3249  2.5483
  151MOL0     H20351   2.139  -0.635  -0.611 -2.6968  4.1809 -1.9822
  151MOL0     H20352   2.105  -0.704  -0.446  4.3540  0.2154  0.5697
  151MOL0     H20353   1.926  -0.635  -0.625 -0.5026  2.6043 -2.8382
  151MOL0     H20354   1.896  -0.598  -0.458  2.1231  1.3953  2.8215
  151MOL0     H20355   2.002  -0.414  -0.690 -1.5303 -1.4489 -1.1657
  151MOL0     H20356   1.987  -0.371  -0.516  0.0515  1.0727 -2.1724
  151MOL0     H20357   1.766  -0.499  -0.690  1.2093  0.2928 -0.3122
  151MOL0     H20358   1.739  -0.413  -0.540 -0.5046 -4.7461  1.2825
  151MOL0     H20359   1.659  -0.301  -0.756  1.6410  1.2709 -2.4117
  151MOL0     H20360   1.827  -0.276  -0.792 -0.1641  0.5451 -1.3499
  151MOL0     H20361   1.717  -0.183  -0.521  0.2610  2.1965  0.7372
  151MOL0     H20362   1.858  -0.138  -0.607  0.1811 -0.1391  0.7665
  151MOL0     H20363   1.571  -0.105  -0.702 -0.6394  1.4686  1.3619
  151MOL0     H20364   1.718  -0.043  -0.791 -1.7253 -1.1805 -0.6051
  151MOL0     H20365   1.566   0.129  -0.674  4.1530 -0.1747 -3.9666
  151MOL0     H20366   1.727   0.124  -0.614  0.7465 -0.0608  2.8147
  151MOL0     H20367   2.172  -0.268  -0.386 -2.2679  0.9889 -0.1097
  151MOL0     H20368   2.118  -0.164  -0.166 -0.8260  0.3852  1.0233
  151MOL0     H20369   2.153  -0.047   0.283 -1.2109  3.1979  0.7171
  151MOL0     H20370   2.057   0.023   0.518 -0.8257  1.2514 -0.8957
  151MOL0     H20371   1.650   0.112   2.415 -2.1173  1.7574  5.1004
  151MOL0     H20372   1.745   0.238   2.602  0.0470 -0.2062 -1.6022
  151MOL0     H20373   2.041   0.483   2.643 -0.9582  0.2711  0.8188
  151MOL0     H20374   2.139   0.696   2.723 -0.1617 -2.6477 -1.6413
  151MOL0     H20375   2.282   0.850   2.901  0.8482 -1.6426 -0.1925
  151MOL0     H20376   2.136   0.908   2.822  4.6624  0.7510 -0.5221
  151MOL0     H20377   2.234   1.081   2.959  1.4175  1.4866  2.9897
  151MOL0     H20378   2.226   0.975   3.104  0.7206 -2.4951 -1.4016
  151MOL0     H20379   1.961   0.986   3.023  0.9537  0.0071 -0.3358
  151MOL0     H20380   2.003   1.152   2.970 -1.1833 -1.1063 -0.9981
  151MOL0     H20381   2.108   1.189   3.191  2.0098 -2.0555 -0.4248
  151MOL0     H20382   2.022   1.051   3.253 -4.8203 -0.0168  0.6714
  151MOL0     H20383   1.685   1.272   3.172  0.7995  4.0037 -0.5655
  151MOL0     H20384   2.011   0.572   3.117  2.3853 -0.3886  0.0716
  151MOL0     H20385   1.953   0.357   3.034  0.2241 -1.4326 -1.6657
  152MOL0     O20386  10.327   6.065   3.383  1.7965 -0.1178  0.3016
  152MOL0     C20387  10.276   6.097   3.273  0.4898  0.0819 -0.1669
  152MOL0     O20388  10.153   6.048   3.206 -0.2139 -0.2001 -0.1561
  152MOL0     C20389  10.083   5.949   3.274 -0.1776 -0.3327 -0.3527
  152MOL0     C20390  10.120   5.811   3.269  0.0208 -1.5462  0.2990
  152MOL0     C20391  10.051   5.706   3.320  0.0598 -0.6477  0.3026
  152MOL0     C20392   9.940   5.737   3.409 -0.2452 -0.4659 -0.7246
  152MOL0     O20393   9.866   5.640   3.470 -0.4240  0.8558  0.1288
  152MOL0     C20394   9.907   5.500   3.447 -0.1442  0.9223 -0.4685
  152MOL0     C20395   9.813   5.419   3.534 -0.9428 -0.3749 -0.1333
  152MOL0     C20396   9.848   5.268   3.535 -0.4006 -0.3705 -0.2361
  152MOL0     C20397   9.749   5.196   3.614  0.4595 -0.1454  0.5408
  152MOL0     C20398   9.798   5.164   3.756 -0.7353 -0.5796  0.0631
  152MOL0     C20399   9.829   5.292   3.833  0.5038  0.1134  0.4274
  152MOL0     C20400   9.870   5.258   3.977  0.0818  0.4915 -1.0789
  152MOL0     C20401   9.958   5.356   4.050 -0.0175 -0.8614  0.6988
  152MOL0     N20402   9.906   5.495   4.052  0.5865  0.0836 -2.1404
  152MOL0     C20403   9.886   5.584   3.952 -0.5550 -0.0607 -0.2211
  152MOL0     C20404   9.807   5.687   4.005 -0.4988 -0.3296  0.6179
  152MOL0     C20405   9.754   5.796   3.925 -0.1186  0.0210  0.0546
  152MOL0     C20406   9.606   5.799   3.918  0.7747 -1.2005 -0.1290
  152MOL0     C20407   9.537   5.666   3.888  0.0737 -0.4691  0.2968
  152MOL0     C20408   9.382   5.669   3.885  1.2549 -0.4138  0.4468
  152MOL0     O20409   9.329   5.756   3.790 -0.6402 -0.0595  0.5292
  152MOL0     C20410   9.197   5.756   3.763  1.7074  0.1133  0.1987
  152MOL0     C20411   9.101   5.691   3.847  1.2596 -0.6045  1.0552
  152MOL0     C20412   8.964   5.703   3.812  0.0261 -0.4635 -0.1446
  152MOL0     C20413   8.885   5.630   3.919 -0.4123  0.2182  0.8006
  152MOL0     C20414   8.914   5.783   3.699 -0.4128 -0.0237 -1.5685
  152MOL0     C20415   8.770   5.795   3.653  0.4805 -0.9573 -0.1400
  152MOL0     O20416   8.735   5.901   3.566  0.2341  0.0185 -0.2599
  152MOL0     C20417   8.625   5.904   3.490  0.2184 -0.2294  1.7168
  152MOL0     C20418   8.571   6.026   3.451 -0.0394 -0.5842  0.4421
  152MOL0     C20419   8.457   6.046   3.373 -0.1915  0.2185 -0.1673
  152MOL0     C20420   8.383   5.926   3.332 -0.3948 -0.2440 -0.2597
  152MOL0     O20421   8.276   5.928   3.248 -0.2962  0.4752  0.3018
  152MOL0     C20422   8.174   6.032   3.279  0.3473  0.3740  1.2275
  152MOL0     C20423   8.070   6.051   3.159  0.4760 -0.0589 -0.0412
  152MOL0     C20424   7.974   5.939   3.134  0.1912 -0.0973 -0.4094
  152MOL0     C20425   7.824   5.978   3.154 -0.1857  0.6028  0.8231
  152MOL0     C20426   7.724   5.858   3.133  0.4369  0.0876  0.8100
  152MOL0     C20427   7.673   5.816   2.991 -0.0763 -0.4946 -0.3833
  152MOL0     C20428   7.529   5.765   3.005 -0.0656 -0.0610 -0.7525
  152MOL0     C20429   7.498   5.695   2.869  0.1016 -0.3401  0.4282
  152MOL0    Cl20430   7.585   5.539   2.857 -0.3138 -0.0011  0.0694
  152MOL0     C20431   8.440   5.804   3.370  0.8007 -0.7307  0.2518
  152MOL0     C20432   8.558   5.788   3.435  1.3523  0.0612 -0.2635
  152MOL0     O20433   8.696   5.706   3.695  0.3612 -0.2523 -0.0035
  152MOL0     C20434   9.013   5.859   3.630 -0.3929  0.6790 -0.5762
  152MOL0     C20435   9.155   5.850   3.665  0.4614  0.2699  0.0177
  152MOL0     N20436   9.794   5.664   4.140  0.6434  0.1742 -0.6081
  152MOL0     N20437   9.847   5.549   4.167 -0.9013  0.5058 -0.5787
  152MOL0     C20438   9.903   5.872   3.437 -0.5006 -0.4616  0.8346
  152MOL0     C20439   9.975   5.975   3.358  0.4545  0.1743  0.0681
  152MOL0     C20440  10.355   6.189   3.194  0.3625 -0.6086 -0.0080
  152MOL0     C20441  10.441   6.273   3.256 -0.9650  0.3507 -0.0496
  152MOL0     C20442  10.513   6.371   3.180  0.0915  0.4526 -0.2509
  152MOL0     C20443  10.480   6.388   3.051  0.0156  0.0062  1.2537
  152MOL0     O20444  10.526   6.488   2.970 -0.0795  0.7249 -0.4120
  152MOL0     C20445  10.631   6.568   3.027 -0.4212  0.3743  0.1604
  152MOL0     C20446  10.677   6.658   2.920 -0.0750  0.2086  1.0061
  152MOL0     C20447  10.578   6.759   2.869  0.5626 -0.5570  0.5043
  152MOL0     C20448  10.637   6.887   2.821 -0.4341 -0.2937 -0.9396
  152MOL0     C20449  10.677   6.888   2.684 -0.1769 -0.4016  0.0063
  152MOL0     C20450  10.700   6.918   2.575 -0.5795 -0.8126  1.2774
  152MOL0     C20451  10.381   6.316   2.988 -0.1164  0.4612 -0.5928
  152MOL0     C20452  10.321   6.211   3.064  0.6882 -0.5739 -0.6380
  152MOL0     H20453  10.196   5.770   3.203 -1.0778 -0.1648 -1.9361
  152MOL0     H20454  10.090   5.607   3.299  2.3338  0.8062 -3.2359
  152MOL0     H20455   9.895   5.473   3.342 -0.3750 -1.2741  0.0744
  152MOL0     H20456  10.011   5.484   3.477 -0.6379  2.5235  2.4572
  152MOL0     H20457   9.813   5.467   3.633 -1.1587 -1.9769  0.6832
  152MOL0     H20458   9.711   5.425   3.494 -0.7350 -1.9731 -0.9973
  152MOL0     H20459   9.836   5.225   3.435  1.5930 -0.3812 -0.5064
  152MOL0     H20460   9.952   5.251   3.564  0.7280  3.0457 -1.7001
  152MOL0     H20461   9.657   5.254   3.621  1.4264  1.8598 -2.1226
  152MOL0     H20462   9.709   5.112   3.556 -2.4261  0.1318  1.9512
  152MOL0     H20463   9.706   5.118   3.796 -0.9178 -1.2041 -1.0317
  152MOL0     H20464   9.874   5.086   3.765  0.7175  0.4173 -2.5667
  152MOL0     H20465   9.918   5.338   3.788  0.8021  1.3510  2.1939
  152MOL0     H20466   9.754   5.372   3.838  1.4409  0.9930  0.8607
  152MOL0     H20467   9.779   5.246   4.036  0.6920  1.5891  0.1388
  152MOL0     H20468   9.921   5.161   3.971  1.1809  0.6084  3.2322
  152MOL0     H20469  10.064   5.357   4.026 -0.1204  0.9435  0.1447
  152MOL0     H20470   9.959   5.329   4.156 -0.1568 -0.8809  0.6956
  152MOL0     H20471   9.922   5.560   3.853  2.1426  1.6021  0.2462
  152MOL0     H20472   9.784   5.893   3.967 -0.0592 -0.7110  1.7736
  152MOL0     H20473   9.799   5.794   3.825  2.1413 -0.6560  1.0089
  152MOL0     H20474   9.593   5.857   3.826  1.4574 -0.1224  0.4346
  152MOL0     H20475   9.565   5.840   4.011 -2.4593 -3.5824 -0.2937
  152MOL0     H20476   9.562   5.602   3.973  1.5344  0.5242  0.6652
  152MOL0     H20477   9.567   5.619   3.794  0.4421  2.9577 -1.4451
  152MOL0     H20478   9.329   5.682   3.980 -1.5608 -1.0139 -0.9523
  152MOL0     H20479   9.354   5.570   3.848 -0.4671  0.9868 -2.2575
  152MOL0     H20480   9.121   5.628   3.933  0.4181 -2.0416  0.2491
  152MOL0     H20481   8.900   5.521   3.918  0.2692  0.1496 -4.0505
  152MOL0     H20482   8.913   5.660   4.020  3.9422 -0.4591 -0.0079
  152MOL0     H20483   8.778   5.651   3.915 -0.8221 -1.7075  0.2316
  152MOL0     H20484   8.621   6.119   3.479 -1.0730  0.7448 -1.8083
  152MOL0     H20485   8.439   6.150   3.350 -0.8140  0.2158  0.3149
  152MOL0     H20486   8.123   6.013   3.374  0.0979 -1.3138  0.7885
  152MOL0     H20487   8.231   6.126   3.275  0.1117  0.4801 -0.1506
  152MOL0     H20488   8.015   6.142   3.184 -0.4255 -0.5965 -0.0565
  152MOL0     H20489   8.123   6.078   3.067  1.6606  0.4974  0.7841
  152MOL0     H20490   7.995   5.841   3.177 -0.8970 -0.6042 -1.0006
  152MOL0     H20491   7.989   5.903   3.032  1.1204 -0.8134 -0.0341
  152MOL0     H20492   7.817   6.023   3.254  0.7225  1.7711  0.3866
  152MOL0     H20493   7.789   6.067   3.101 -1.3550  1.2933  2.6313
  152MOL0     H20494   7.640   5.895   3.191  0.1394 -0.5606  0.7994
  152MOL0     H20495   7.769   5.767   3.173  1.8509 -1.2919 -3.3813
  152MOL0     H20496   7.665   5.900   2.920 -1.3027 -1.6395 -1.6666
  152MOL0     H20497   7.745   5.753   2.939 -0.0902  0.0465 -1.0694
  152MOL0     H20498   7.466   5.849   3.035  3.6042  2.1523  1.4990
  152MOL0     H20499   7.524   5.691   3.085 -1.6468 -0.1721 -0.9202
  152MOL0     H20500   7.516   5.756   2.780 -0.4925 -0.3500  0.2977
  152MOL0     H20501   7.390   5.678   2.873  0.3965 -2.3253  0.9227
  152MOL0     H20502   8.404   5.710   3.330  1.9967 -0.1138 -2.5063
  152MOL0     H20503   8.592   5.686   3.445  1.1117  0.0093  0.0162
  152MOL0     H20504   8.993   5.925   3.546 -1.4633  0.5642 -0.4170
  152MOL0     H20505   9.226   5.917   3.618 -0.2498  3.2324  2.7841
  152MOL0     H20506   9.817   5.884   3.502 -3.1931 -0.2116 -2.5013
  152MOL0     H20507   9.942   6.078   3.365  1.6540  0.6785 -1.1492
  152MOL0     H20508  10.454   6.263   3.363  0.0286 -0.8305 -0.2597
  152MOL0     H20509  10.584   6.436   3.230 -1.3767  0.1843  2.3646
  152MOL0     H20510  10.586   6.627   3.107 -1.9878 -0.3714 -0.1343
  152MOL0     H20511  10.719   6.511   3.058 -0.1973 -0.1947 -1.3943
  152MOL0     H20512  10.722   6.612   2.832 -1.0555  1.2150 -0.0729
  152MOL0     H20513  10.757   6.706   2.978  0.6564 -0.8635  0.8994
  152MOL0     H20514  10.508   6.777   2.950 -0.3095  1.1703 -0.5763
  152MOL0     H20515  10.520   6.728   2.782 -0.1671 -2.2967  1.5627
  152MOL0     H20516  10.723   6.913   2.884  0.6812 -1.4178 -1.9451
  152MOL0     H20517  10.563   6.967   2.838  0.3064  0.1986  0.0797
  152MOL0     H20518  10.714   6.955   2.476 -0.4901 -0.7249  1.3219
  152MOL0     H20519  10.364   6.343   2.884  0.0082  1.3205 -0.4023
  152MOL0     H20520  10.254   6.137   3.022 -1.9149  0.9924  0.4886
  153MOL0     O20521   6.491   2.883   9.928 -0.2057 -0.0850  0.2452
  153MOL0     C20522   6.553   2.963   9.860 -0.9131  0.6802 -0.4138
  153MOL0     O20523   6.680   2.947   9.830  0.0746 -0.0073  0.4920
  153MOL0     C20524   6.748   2.829   9.858  1.1390 -0.1790  0.3449
  153MOL0     C20525   6.755   2.782   9.994  0.2478 -0.6920 -0.1340
  153MOL0     C20526   6.829   2.668  10.020  0.8999 -0.4560  0.0980
  153MOL0     C20527   6.893   2.596   9.913 -0.4164 -0.3375  0.5100
  153MOL0     O20528   6.955   2.483   9.930 -0.5884 -0.2129 -0.6915
  153MOL0     C20529   6.936   2.401  10.054  0.2283 -0.5081 -0.0839
  153MOL0     C20530   7.074   2.349  10.110  1.2145  0.4270 -0.0773
  153MOL0     C20531   7.152   2.447  10.198 -0.9106 -0.8986  0.8405
  153MOL0     C20532   7.222   2.567  10.130  0.5780  0.8729  0.2398
  153MOL0     C20533   7.313   2.650  10.208 -1.2939 -0.0228 -0.6707
  153MOL0     C20534   7.251   2.704  10.346 -0.7499 -0.1729  0.5733
  153MOL0     C20535   7.341   2.817  10.410  0.4609  0.1902  0.7801
  153MOL0     C20536   7.319   2.866  10.568 -0.0569  0.2335 -0.2504
  153MOL0     N20537   7.184   2.903  10.588  0.1095  0.5353 -0.4084
  153MOL0     C20538   7.117   2.992  10.512  0.9370 -0.1846  0.2529
  153MOL0     C20539   6.980   2.992  10.555 -0.9388 -0.6537 -0.1510
  153MOL0     C20540   6.871   3.054  10.475  0.2920 -0.6958 -0.1297
  153MOL0     C20541   6.777   2.960  10.405 -0.4706 -0.0936  0.3328
  153MOL0     C20542   6.653   3.028  10.331  0.4982  0.2651 -0.6338
  153MOL0     C20543   6.571   3.141  10.405  0.4173  0.4151  0.5520
  153MOL0     O20544   6.635   3.270  10.381 -0.1116  0.3030 -0.0075
  153MOL0     C20545   6.578   3.383  10.429 -0.2854 -0.9938 -0.7961
  153MOL0     C20546   6.609   3.498  10.362 -0.0772  0.4283  0.7207
  153MOL0     C20547   6.565   3.619  10.399 -0.2513  0.6849  0.2104
  153MOL0     C20548   6.634   3.744  10.333  0.3853 -0.1548 -0.4609
  153MOL0     C20549   6.484   3.624  10.516  0.8295  0.5116 -0.7771
  153MOL0     C20550   6.418   3.750  10.559 -0.3101  0.5953  0.0729
  153MOL0     O20551   6.378   3.750  10.696 -0.1507  0.7033  0.3906
  153MOL0     C20552   6.347   3.870  10.751 -0.4527 -0.7325  0.1612
  153MOL0     C20553   6.215   3.892  10.798 -0.7407 -0.3422 -0.6065
  153MOL0     C20554   6.176   4.019  10.841  0.3747 -0.3501  0.4316
  153MOL0     C20555   6.260   4.130  10.840 -0.4422  0.0255  0.6317
  153MOL0     O20556   6.210   4.256  10.870  0.1347 -0.1482  0.4688
  153MOL0     C20557   6.068   4.270  10.882 -0.3726 -0.1727  0.0878
  153MOL0     C20558   6.027   4.415  10.885 -0.0617  0.5804 -0.1509
  153MOL0     C20559   5.881   4.427  10.842  0.3995 -0.1352  0.5939
  153MOL0     C20560   5.850   4.564  10.770 -0.3124  0.0578 -0.2460
  153MOL0     C20561   5.696   4.579  10.750  0.2697  0.0289 -0.4934
  153MOL0     C20562   5.666   4.701  10.662  0.9299  0.0672 -0.3224
  153MOL0     C20563   5.516   4.721  10.673 -0.5012  0.8266 -0.1485
  153MOL0     C20564   5.463   4.855  10.615 -0.8543  0.2155 -0.1373
  153MOL0    Cl20565   5.495   4.988  10.726 -0.0542 -0.1408 -0.0811
  153MOL0     C20566   6.391   4.111  10.781  0.4212  0.5420  0.3896
  153MOL0     C20567   6.439   3.985  10.743  0.6085  0.3675  0.6324
  153MOL0     O20568   6.387   3.835  10.474  0.4084  0.2785 -0.3472
  153MOL0     C20569   6.439   3.503  10.579 -0.6604 -0.6384  0.5175
  153MOL0     C20570   6.496   3.381  10.544  0.0984  0.6431  1.2552
  153MOL0     N20571   6.975   2.904  10.667 -0.7119 -0.0580  0.7572
  153MOL0     N20572   7.102   2.852  10.683  0.5244 -0.1890  0.4899
  153MOL0     C20573   6.890   2.643   9.784 -0.5606  0.0197  0.0002
  153MOL0     C20574   6.820   2.762   9.757 -0.2751 -0.6421  0.6015
  153MOL0     C20575   6.492   3.083   9.799 -0.6604 -0.3678 -0.6402
  153MOL0     C20576   6.561   3.193   9.759  0.1260  0.3791  0.6687
  153MOL0     C20577   6.491   3.311   9.717 -0.4331 -0.1603  0.4485
  153MOL0     C20578   6.357   3.317   9.728  0.7154  0.4409 -0.5175
  153MOL0     O20579   6.302   3.441   9.697  1.1836 -0.1266  0.2549
  153MOL0     C20580   6.164   3.460   9.678 -0.0820  0.6535 -0.4331
  153MOL0     C20581   6.116   3.593   9.737  0.2399 -0.7163 -0.2657
  153MOL0     C20582   5.976   3.587   9.774  0.1568 -0.4983 -0.0544
  153MOL0     C20583   5.907   3.713   9.824 -0.5120 -0.4264 -0.2388
  153MOL0     C20584   5.891   3.825   9.724  0.0715  0.3207  0.5522
  153MOL0     C20585   5.855   3.911   9.647 -0.1629 -0.4893 -0.0230
  153MOL0     C20586   6.283   3.201   9.756 -0.3065 -0.1642 -0.0896
  153MOL0     C20587   6.354   3.083   9.780  0.3512 -0.5350  0.1232
  153MOL0     H20588   6.702   2.832  10.074 -0.4081 -3.7457  1.4978
  153MOL0     H20589   6.830   2.630  10.122 -0.0757 -0.7876  0.0000
  153MOL0     H20590   6.882   2.445  10.138 -0.4928  0.4869 -1.0536
  153MOL0     H20591   6.889   2.306  10.026  1.0129 -0.3576 -2.1423
  153MOL0     H20592   7.044   2.262  10.168  0.8826  1.0490  0.7134
  153MOL0     H20593   7.136   2.317  10.026 -0.1419  0.7104 -1.2398
  153MOL0     H20594   7.083   2.497  10.266 -1.1463 -0.8818  0.5864
  153MOL0     H20595   7.230   2.390  10.251 -2.4437 -2.7210  1.2362
  153MOL0     H20596   7.284   2.526  10.050  0.6530  2.0193 -0.3145
  153MOL0     H20597   7.145   2.632  10.088  1.0457  0.2115 -1.7247
  153MOL0     H20598   7.398   2.589  10.239 -2.2380 -1.4848 -0.8486
  153MOL0     H20599   7.351   2.736  10.152  0.1323 -0.5683 -0.5848
  153MOL0     H20600   7.160   2.757  10.317  0.1569  0.2453 -1.7846
  153MOL0     H20601   7.234   2.619  10.412 -1.4571  0.3328  1.0637
  153MOL0     H20602   7.444   2.780  10.413 -0.0643 -1.3364  0.3303
  153MOL0     H20603   7.340   2.901  10.340  0.4753 -1.3654 -1.1576
  153MOL0     H20604   7.386   2.947  10.598  0.9334 -0.4037 -0.6825
  153MOL0     H20605   7.325   2.786  10.642 -3.0521  1.3714  1.3908
  153MOL0     H20606   7.161   3.032  10.422 -0.6476  1.1154  0.0109
  153MOL0     H20607   6.815   3.117  10.545 -0.2159  0.7663 -1.7862
  153MOL0     H20608   6.906   3.120  10.395 -1.4497  0.3109 -0.1151
  153MOL0     H20609   6.739   2.902  10.490 -0.5048 -0.1415  0.2836
  153MOL0     H20610   6.836   2.907  10.330  4.0412  2.1164  1.8885
  153MOL0     H20611   6.583   2.946  10.313  2.1799 -1.0232 -1.5487
  153MOL0     H20612   6.686   3.065  10.233  0.4909  0.5584 -0.5277
  153MOL0     H20613   6.563   3.113  10.511 -0.7135 -0.2067  0.3183
  153MOL0     H20614   6.470   3.130  10.365  1.3881 -1.9693 -1.5190
  153MOL0     H20615   6.673   3.495  10.274 -3.9119 -1.5207 -2.3041
  153MOL0     H20616   6.717   3.714  10.268 -0.7471  0.7674 -2.4269
  153MOL0     H20617   6.562   3.797  10.271 -0.9926  0.1349  1.2847
  153MOL0     H20618   6.678   3.823  10.394  1.0514  1.1684 -2.5744
  153MOL0     H20619   6.148   3.809  10.815 -0.3379 -0.1246  2.6592
  153MOL0     H20620   6.084   4.026  10.898  0.3162  0.7253  0.2258
  153MOL0     H20621   6.020   4.233  10.791 -0.8891 -0.3840  0.4411
  153MOL0     H20622   6.032   4.231  10.978 -2.5152 -1.4067 -1.1438
  153MOL0     H20623   6.029   4.454  10.987  0.1446 -0.8460  0.4157
  153MOL0     H20624   6.086   4.471  10.812  0.6781 -1.5141 -1.2343
  153MOL0     H20625   5.805   4.414  10.920 -1.5742  1.5210 -0.9254
  153MOL0     H20626   5.867   4.358  10.758  1.7396 -0.3752  0.5419
  153MOL0     H20627   5.890   4.652  10.821 -0.6832  0.4849 -0.6774
  153MOL0     H20628   5.901   4.561  10.673 -1.6165 -3.5152 -0.9577
  153MOL0     H20629   5.649   4.593  10.848 -0.4505  1.7042 -1.0311
  153MOL0     H20630   5.656   4.487  10.707  0.5417  0.0392 -0.7693
  153MOL0     H20631   5.719   4.785  10.708  1.2170  0.2248 -0.9415
  153MOL0     H20632   5.695   4.678  10.560 -0.2118 -1.4261 -0.3559
  153MOL0     H20633   5.483   4.722  10.778 -0.3499  2.1210 -0.0983
  153MOL0     H20634   5.467   4.646  10.611  1.0816  0.4960 -1.0299
  153MOL0     H20635   5.356   4.851  10.592 -0.8131 -1.0182 -0.1945
  153MOL0     H20636   5.521   4.880  10.526  0.9554  2.8000  1.6035
  153MOL0     H20637   6.456   4.197  10.775  3.7274 -1.6923  1.4877
  153MOL0     H20638   6.530   3.955  10.691 -0.0953 -1.0306  0.1248
  153MOL0     H20639   6.361   3.496  10.655  1.0537 -2.0389  2.2659
  153MOL0     H20640   6.467   3.291  10.596  1.6757 -0.1815  0.7624
  153MOL0     H20641   6.920   2.571   9.708 -0.1906  0.0636  0.1023
  153MOL0     H20642   6.833   2.798   9.656  0.3204  0.4793  1.0659
  153MOL0     H20643   6.670   3.191   9.757  0.1826  2.2095 -1.3333
  153MOL0     H20644   6.534   3.405   9.684 -1.1409 -0.2835 -0.9164
  153MOL0     H20645   6.145   3.458   9.570  0.3917 -0.6301 -0.5067
  153MOL0     H20646   6.109   3.374   9.716  2.6086 -1.8197 -1.7593
  153MOL0     H20647   6.128   3.675   9.666 -2.4909 -0.4122 -0.4945
  153MOL0     H20648   6.174   3.610   9.828 -2.6341  1.4309  1.3347
  153MOL0     H20649   5.971   3.518   9.858 -0.8305 -0.2592  0.1036
  153MOL0     H20650   5.921   3.547   9.688 -0.0170  4.4023 -2.5904
  153MOL0     H20651   5.976   3.754   9.898  2.6749 -1.1814 -2.5616
  153MOL0     H20652   5.804   3.696   9.858 -0.1290 -1.5705  0.3816
  153MOL0     H20653   5.837   3.992   9.579  0.0111 -1.9487 -1.8642
  153MOL0     H20654   6.176   3.200   9.773 -0.1229 -0.5338  1.1113
  153MOL0     H20655   6.296   2.998   9.814  1.6331 -0.2224  3.4491
  154MOL0     O20656   9.896  10.942   8.731 -0.0616 -0.5784  0.6050
  154MOL0     C20657   9.775  10.950   8.755 -0.7764  0.0601 -0.3274
  154MOL0     O20658   9.715  10.966   8.884 -0.1066 -1.2393  0.3739
  154MOL0     C20659   9.789  10.962   8.994  0.0257  0.0321 -1.1597
  154MOL0     C20660   9.731  10.896   9.096  0.4912 -0.4156  0.0528
  154MOL0     C20661   9.788  10.913   9.231  0.5294  1.6161  0.1583
  154MOL0     C20662   9.907  10.981   9.247 -0.5151 -0.3179  0.2203
  154MOL0     O20663   9.972  10.993   9.362  0.3350  0.1403 -0.6058
  154MOL0     C20664   9.899  11.037   9.477 -0.3095  0.4000  0.5239
  154MOL0     C20665   9.970  11.150   9.555 -0.1333 -0.7360 -0.0275
  154MOL0     C20666   9.916  11.178   9.700 -0.3640  0.5346 -0.1849
  154MOL0     C20667   9.764  11.229   9.700 -0.0468  0.9455  0.4222
  154MOL0     C20668   9.752  11.372   9.658  1.3224  0.6401 -0.2674
  154MOL0     C20669   9.610  11.436   9.671 -0.1488  0.3163 -0.7067
  154MOL0     C20670   9.618  11.575   9.611 -0.2156 -0.1412 -0.0850
  154MOL0     C20671   9.591  11.682   9.705  0.5099 -0.7979  0.0427
  154MOL0     N20672   9.455  11.677   9.752  1.3747 -0.0976 -0.9995
  154MOL0     C20673   9.345  11.688   9.676  0.5144 -1.0787 -0.4036
  154MOL0     C20674   9.249  11.736   9.766 -0.8234 -0.2821 -0.9646
  154MOL0     C20675   9.100  11.750   9.730  0.7306  0.2387 -0.1140
  154MOL0     C20676   9.074  11.874   9.632  0.4498 -0.4626  0.1249
  154MOL0     C20677   9.115  11.834   9.484 -1.8251  0.0413 -0.0691
  154MOL0     C20678   9.071  11.927   9.372 -0.6797 -0.5885  0.3049
  154MOL0     O20679   9.163  12.042   9.371 -0.8552  0.0328 -0.2489
  154MOL0     C20680   9.146  12.159   9.445  0.4558 -0.5967  0.0551
  154MOL0     C20681   9.025  12.187   9.519 -0.1679 -0.1487  0.6084
  154MOL0     C20682   9.007  12.302   9.597  0.4262  1.1586  0.1552
  154MOL0     C20683   8.863  12.317   9.669 -0.5148  0.0649 -1.1149
  154MOL0     C20684   9.112  12.398   9.597 -0.4448 -0.1018  0.2912
  154MOL0     C20685   9.117  12.529   9.674 -0.0735 -0.3405 -0.1076
  154MOL0     O20686   9.177  12.631   9.617 -0.1581 -0.2009 -0.1791
  154MOL0     C20687   9.165  12.752   9.676  0.0490  0.4369 -0.0531
  154MOL0     C20688   9.193  12.772   9.808 -0.7284  0.4518  0.1955
  154MOL0     C20689   9.196  12.901   9.863  0.6904 -0.1271 -0.0325
  154MOL0     C20690   9.153  13.011   9.790  0.0285  0.1542  0.6157
  154MOL0     O20691   9.141  13.128   9.859  0.1885  0.5029 -0.6820
  154MOL0     C20692   9.069  13.238   9.792  0.0352 -0.0729  0.5557
  154MOL0     C20693   9.133  13.359   9.860  0.2520  0.1748  0.1417
  154MOL0     C20694   9.059  13.404   9.989 -0.6954 -0.3121 -0.3309
  154MOL0     C20695   9.141  13.524  10.056  0.2166 -0.0308 -0.2807
  154MOL0     C20696   9.068  13.577  10.184  0.8706 -0.3470 -0.8395
  154MOL0     C20697   9.128  13.695  10.249 -0.9089  0.1404 -0.4446
  154MOL0     C20698   9.104  13.830  10.165  0.3033  0.4400  0.6329
  154MOL0     C20699   9.214  13.936  10.170 -0.5580 -0.6789  0.1359
  154MOL0    Cl20700   9.350  13.851  10.100  0.2361 -0.3771  0.2224
  154MOL0     C20701   9.128  12.985   9.652 -0.0828 -0.2027  0.1579
  154MOL0     C20702   9.127  12.860   9.602  0.0962  0.1802 -0.2485
  154MOL0     O20703   9.053  12.532   9.781  0.2971  1.4044  1.0394
  154MOL0     C20704   9.240  12.371   9.530  0.3636 -0.7548  1.3808
  154MOL0     C20705   9.251  12.253   9.453  0.3970 -0.0265 -0.9254
  154MOL0     N20706   9.297  11.752   9.895 -0.7320  0.0934 -0.1831
  154MOL0     N20707   9.426  11.710   9.887 -0.3016 -0.1735  0.2530
  154MOL0     C20708   9.978  11.034   9.138  0.3175  0.1776  0.3089
  154MOL0     C20709   9.910  11.030   9.019  0.2700  0.5628  0.2707
  154MOL0     C20710   9.682  10.940   8.644  0.1699 -0.4393 -0.2198
  154MOL0     C20711   9.737  10.952   8.519  1.0437  0.4639 -0.1254
  154MOL0     C20712   9.651  10.974   8.409 -0.3441  0.2264 -0.3936
  154MOL0     C20713   9.514  10.959   8.417  0.6344  1.2177  0.4883
  154MOL0     O20714   9.441  10.968   8.300 -0.3822 -0.0938  0.3483
  154MOL0     C20715   9.300  10.964   8.301  1.0646  0.0421 -0.3249
  154MOL0     C20716   9.254  11.015   8.155 -0.4660 -0.5400 -0.6573
  154MOL0     C20717   9.291  11.158   8.135  0.6320 -0.2416 -0.4063
  154MOL0     C20718   9.208  11.267   8.221 -1.0243  0.8614  0.1500
  154MOL0     C20719   9.261  11.400   8.223  0.7239 -0.7686  0.5688
  154MOL0     C20720   9.307  11.512   8.211 -0.2233 -0.4918  0.1787
  154MOL0     C20721   9.456  10.928   8.540  0.0015 -0.3064 -0.7802
  154MOL0     C20722   9.541  10.927   8.654 -1.0475 -0.9843 -0.4982
  154MOL0     H20723   9.643  10.835   9.078  1.8080 -2.6390  0.7257
  154MOL0     H20724   9.739  10.862   9.314  1.5500 -1.3954 -0.9664
  154MOL0     H20725   9.793  11.050   9.455  0.0065 -2.2198 -3.7461
  154MOL0     H20726   9.904  10.950   9.544  4.1036 -0.5807 -0.7387
  154MOL0     H20727  10.079  11.146   9.560 -0.0092  1.8031  1.8510
  154MOL0     H20728   9.956  11.232   9.484  2.9548 -0.4220 -0.3912
  154MOL0     H20729   9.911  11.083   9.753 -0.2338  0.2545 -0.6706
  154MOL0     H20730   9.976  11.244   9.763  0.3241  2.7540 -2.9624
  154MOL0     H20731   9.704  11.164   9.637  0.5896 -0.5151  1.2790
  154MOL0     H20732   9.725  11.215   9.801  0.1810 -3.1983  0.0768
  154MOL0     H20733   9.817  11.425   9.729  1.6007  3.9828 -2.7472
  154MOL0     H20734   9.787  11.387   9.555  0.1047  2.0210 -0.5047
  154MOL0     H20735   9.525  11.398   9.615 -2.8806  2.1938  1.8448
  154MOL0     H20736   9.570  11.432   9.773  1.1684  0.4427 -0.1531
  154MOL0     H20737   9.715  11.593   9.562  0.1854  0.4497  0.9046
  154MOL0     H20738   9.544  11.587   9.532  2.0661 -1.5297 -2.6071
  154MOL0     H20739   9.608  11.782   9.664  0.6469 -1.4753 -1.6647
  154MOL0     H20740   9.657  11.670   9.790 -0.0267  2.1402  0.9954
  154MOL0     H20741   9.332  11.667   9.570  1.2038  2.5583 -1.3585
  154MOL0     H20742   9.068  11.654   9.689  1.2499  1.3197 -3.3610
  154MOL0     H20743   9.041  11.775   9.818 -1.9894  1.8345 -2.2352
  154MOL0     H20744   9.131  11.958   9.673  0.0355 -0.4688  0.7164
  154MOL0     H20745   8.971  11.908   9.624 -0.1959 -2.6402 -4.5537
  154MOL0     H20746   9.073  11.735   9.467 -0.9175 -0.5088  0.7884
  154MOL0     H20747   9.224  11.823   9.483 -1.4937  2.4853  0.7256
  154MOL0     H20748   8.967  11.960   9.384 -0.3775 -0.2202  2.1383
  154MOL0     H20749   9.083  11.877   9.276  0.3206  1.2372 -0.5680
  154MOL0     H20750   8.945  12.115   9.509  0.1604 -0.3041 -1.1356
  154MOL0     H20751   8.889  12.345   9.771  1.2265 -3.2758 -0.4681
  154MOL0     H20752   8.804  12.389   9.611 -1.6537  0.0986  0.0635
  154MOL0     H20753   8.810  12.222   9.658  0.0463 -0.0913 -2.7500
  154MOL0     H20754   9.223  12.695   9.878 -1.6499  0.1593  0.2771
  154MOL0     H20755   9.216  12.902   9.970  1.2998  2.0437 -0.1224
  154MOL0     H20756   9.080  13.250   9.684  0.1939  5.2449  0.8980
  154MOL0     H20757   8.961  13.234   9.808  0.5048  1.3793  6.5327
  154MOL0     H20758   9.241  13.351   9.870  0.3121  0.7157 -0.0257
  154MOL0     H20759   9.109  13.435   9.785  0.5724  1.0008  0.8534
  154MOL0     H20760   9.055  13.319  10.059  3.8509  0.2573  0.9572
  154MOL0     H20761   8.959  13.439   9.964 -0.6525 -0.2176 -0.3659
  154MOL0     H20762   9.240  13.484  10.083 -1.1025 -3.5153  0.0250
  154MOL0     H20763   9.152  13.601   9.980 -1.2649 -0.2765 -0.7872
  154MOL0     H20764   9.052  13.496  10.256  2.0927 -1.0360 -1.2994
  154MOL0     H20765   8.966  13.590  10.146  0.5382 -4.1988 -1.7670
  154MOL0     H20766   9.091  13.709  10.352 -2.0390 -2.4679 -0.4301
  154MOL0     H20767   9.232  13.666  10.264 -1.4554 -2.7980 -1.6985
  154MOL0     H20768   9.013  13.874  10.208  1.3277  1.1608  2.1546
  154MOL0     H20769   9.079  13.804  10.062 -0.3754  1.3536  0.5552
  154MOL0     H20770   9.231  13.978  10.270 -1.9702  0.9327 -0.2622
  154MOL0     H20771   9.189  14.022  10.108 -1.3949 -2.9205 -2.9008
  154MOL0     H20772   9.082  13.060   9.589 -0.5913  0.0630  0.8274
  154MOL0     H20773   9.095  12.829   9.504 -2.7670 -1.0090  0.9668
  154MOL0     H20774   9.321  12.443   9.538  1.1862 -1.1363 -1.8791
  154MOL0     H20775   9.338  12.226   9.395 -0.8373 -4.5631 -1.0257
  154MOL0     H20776  10.075  11.082   9.145  0.4994 -0.2663  0.9220
  154MOL0     H20777   9.960  11.077   8.934  0.7290  1.1130  0.8380
  154MOL0     H20778   9.844  10.956   8.506  0.9986  1.0161 -0.3338
  154MOL0     H20779   9.687  11.008   8.312  0.0394  2.7190  0.5397
  154MOL0     H20780   9.267  10.859   8.295  1.1308  0.1108 -3.0457
  154MOL0     H20781   9.253  11.019   8.383 -0.0730  3.1783 -2.8720
  154MOL0     H20782   9.146  11.004   8.142 -0.5299  2.8809 -5.2292
  154MOL0     H20783   9.309  10.961   8.077  1.6741  2.2843 -1.2888
  154MOL0     H20784   9.274  11.180   8.029  0.1952 -0.3001 -0.3521
  154MOL0     H20785   9.397  11.173   8.156  1.1603 -0.8951 -2.4280
  154MOL0     H20786   9.197  11.240   8.326 -2.4837  1.9699  0.3117
  154MOL0     H20787   9.105  11.266   8.186 -0.9468  2.9085 -0.2454
  154MOL0     H20788   9.350  11.608   8.191 -1.7682 -0.1534 -1.8129
  154MOL0     H20789   9.348  10.917   8.551 -0.0226 -0.3170 -1.0273
  154MOL0     H20790   9.496  10.916   8.753 -0.0436  0.1128  0.1157
  155MOL0     O20791   2.455   7.579  10.046  1.0527  0.2463  0.7208
  155MOL0     C20792   2.398   7.616  10.152  0.4479  0.1053  0.7519
  155MOL0     O20793   2.367   7.533  10.255  0.0053 -0.1616 -0.1882
  155MOL0     C20794   2.414   7.409  10.242  0.1846  0.1195  0.2074
  155MOL0     C20795   2.544   7.372  10.291  0.8833  0.1514 -0.3956
  155MOL0     C20796   2.593   7.237  10.293  0.0625 -0.5808  0.4629
  155MOL0     C20797   2.512   7.147  10.218 -0.1236  0.0393  0.8605
  155MOL0     O20798   2.545   7.021  10.184  0.0898  0.3431 -0.0470
  155MOL0     C20799   2.602   6.929  10.282  0.1155 -0.2463 -0.7308
  155MOL0     C20800   2.673   6.804  10.226  0.5611 -0.7834  0.1173
  155MOL0     C20801   2.813   6.831  10.158  1.3416 -1.3484  0.4986
  155MOL0     C20802   2.849   6.746  10.031  0.6864  0.0261 -0.0579
  155MOL0     C20803   2.821   6.824   9.898  0.1037 -1.3739  0.0531
  155MOL0     C20804   2.882   6.763   9.770 -0.2433 -0.0033 -0.3233
  155MOL0     C20805   3.001   6.653   9.772  0.2657 -1.3472 -0.3929
  155MOL0     C20806   3.141   6.724   9.812 -0.2507  0.0533 -0.1221
  155MOL0     N20807   3.245   6.688   9.721 -0.5509 -0.6846  0.1647
  155MOL0     C20808   3.307   6.566   9.707  0.0209 -0.9133 -0.5190
  155MOL0     C20809   3.396   6.591   9.620 -0.7201  0.2753 -0.4414
  155MOL0     C20810   3.472   6.466   9.560  0.5897  0.5751  0.1744
  155MOL0     C20811   3.372   6.359   9.502  0.2083 -0.6846 -0.4052
  155MOL0     C20812   3.442   6.244   9.440 -0.4806  0.7780 -0.4884
  155MOL0     C20813   3.340   6.137   9.407  0.0236 -1.7368 -0.2501
  155MOL0     O20814   3.407   6.015   9.372 -0.9247 -0.3042  0.8657
  155MOL0     C20815   3.324   5.904   9.345 -0.5753  0.3224 -0.8618
  155MOL0     C20816   3.401   5.786   9.322  0.7108  0.0550 -0.2572
  155MOL0     C20817   3.347   5.657   9.328 -0.2597  0.3814 -0.6655
  155MOL0     C20818   3.439   5.542   9.302  0.3696  0.5691 -0.4316
  155MOL0     C20819   3.212   5.648   9.354  0.6166  0.1092  0.3667
  155MOL0     C20820   3.129   5.522   9.366  0.2416 -0.1622 -0.2888
  155MOL0     O20821   3.022   5.535   9.451  0.3095 -0.1511  0.8925
  155MOL0     C20822   2.950   5.422   9.489  0.5220 -0.1741 -0.1883
  155MOL0     C20823   2.810   5.443   9.509  0.1698 -0.5681  0.5418
  155MOL0     C20824   2.721   5.354   9.570  0.4659 -0.3380 -0.3026
  155MOL0     C20825   2.770   5.227   9.611  0.6292  0.7845  0.3976
  155MOL0     O20826   2.698   5.125   9.672  0.1572  0.6231  0.5132
  155MOL0     C20827   2.559   5.120   9.649 -0.3274  0.6400  0.4753
  155MOL0     C20828   2.517   4.971   9.659 -0.9050 -1.0629 -0.9260
  155MOL0     C20829   2.557   4.890   9.535 -0.4204  0.2039  0.0071
  155MOL0     C20830   2.441   4.820   9.459 -0.0787  0.5214 -0.6938
  155MOL0     C20831   2.342   4.920   9.396  0.0203  0.0591 -0.2008
  155MOL0     C20832   2.219   4.837   9.348  1.0258  0.3195  0.0531
  155MOL0     C20833   2.108   4.904   9.272  1.1497 -0.0124 -0.7265
  155MOL0     C20834   2.029   5.012   9.357  0.1919 -0.4067 -0.3220
  155MOL0    Cl20835   1.929   5.103   9.258  0.0588 -0.2393  0.1306
  155MOL0     C20836   2.904   5.195   9.581 -0.0128 -0.4146 -0.4203
  155MOL0     C20837   2.988   5.295   9.526 -0.9028  0.3219  0.8695
  155MOL0     O20838   3.164   5.425   9.298  0.5678 -0.2816  0.1308
  155MOL0     C20839   3.130   5.769   9.353  0.3131 -0.2404  0.3579
  155MOL0     C20840   3.183   5.895   9.365  0.0166 -0.2826  0.4210
  155MOL0     N20841   3.407   6.722   9.586 -0.5664 -0.7569  0.2022
  155MOL0     N20842   3.309   6.778   9.645 -0.5249 -0.8126  0.3067
  155MOL0     C20843   2.385   7.185  10.166  0.1431  0.5228  0.1392
  155MOL0     C20844   2.337   7.310  10.188  0.6299 -0.6339  0.0394
  155MOL0     C20845   2.346   7.749  10.160 -0.2409 -0.2317 -0.6834
  155MOL0     C20846   2.281   7.779  10.273  0.1511  0.4140 -0.4722
  155MOL0     C20847   2.218   7.906  10.280  0.1345 -0.7967  0.4049
  155MOL0     C20848   2.240   8.010  10.189 -0.4575 -0.1994  0.0164
  155MOL0     O20849   2.178   8.133  10.216 -0.0749  0.8189  0.8146
  155MOL0     C20850   2.251   8.249  10.171  0.3219 -1.5167 -0.4922
  155MOL0     C20851   2.192   8.287  10.037  0.3896  0.2574 -0.2809
  155MOL0     C20852   2.083   8.396  10.061  0.4093  0.3075 -0.8587
  155MOL0     C20853   2.044   8.472   9.933 -0.0095  0.3906 -0.2347
  155MOL0     C20854   2.013   8.608   9.968  1.0088 -0.0491 -0.3899
  155MOL0     C20855   1.966   8.715   9.996 -0.5805 -0.0271 -0.6457
  155MOL0     C20856   2.301   7.971  10.072 -0.6523  0.3695  0.4379
  155MOL0     C20857   2.343   7.838  10.053 -1.2000  0.1544  0.4009
  155MOL0     H20858   2.603   7.441  10.349  2.1717 -0.4133 -0.9947
  155MOL0     H20859   2.689   7.221  10.342  1.2236 -2.0631 -2.0798
  155MOL0     H20860   2.664   6.985  10.353 -1.2322  1.3371 -0.7334
  155MOL0     H20861   2.516   6.885  10.333  0.4741  0.2275  0.3074
  155MOL0     H20862   2.682   6.741  10.315  0.1233 -1.5154 -0.3485
  155MOL0     H20863   2.608   6.752  10.156  0.6796 -0.2930 -0.3650
  155MOL0     H20864   2.813   6.937  10.132 -0.6947 -0.9264  1.9562
  155MOL0     H20865   2.888   6.817  10.237  0.6076 -0.0383  1.4674
  155MOL0     H20866   2.957   6.736  10.045  0.8460 -0.7540 -1.5775
  155MOL0     H20867   2.789   6.654  10.029  1.2986 -0.4671  1.9307
  155MOL0     H20868   2.720   6.864   9.883  1.0936  1.2923 -0.1034
  155MOL0     H20869   2.877   6.918   9.902  0.0217 -1.2226 -1.6380
  155MOL0     H20870   2.799   6.714   9.719 -0.7013 -0.4714  0.8255
  155MOL0     H20871   2.902   6.840   9.696  1.7044 -3.6448 -3.9948
  155MOL0     H20872   2.973   6.569   9.835 -3.0894  2.4610  3.8794
  155MOL0     H20873   3.009   6.610   9.672 -0.3786  0.7970 -1.4360
  155MOL0     H20874   3.170   6.707   9.916 -2.5147 -0.4758  0.4604
  155MOL0     H20875   3.122   6.831   9.805  0.7959  0.3079  0.6156
  155MOL0     H20876   3.289   6.467   9.748 -0.1243 -0.8132 -0.3365
  155MOL0     H20877   3.529   6.500   9.473 -4.0858  2.6027 -2.5391
  155MOL0     H20878   3.543   6.425   9.632  0.0958  2.1040  1.6234
  155MOL0     H20879   3.325   6.423   9.427 -1.5221 -0.6437  0.6362
  155MOL0     H20880   3.299   6.323   9.576 -1.0623  3.4927  0.6112
  155MOL0     H20881   3.508   6.201   9.516 -0.2204 -0.8684 -1.5858
  155MOL0     H20882   3.505   6.271   9.354  0.1230 -1.8393 -0.9606
  155MOL0     H20883   3.271   6.183   9.336 -0.9819 -0.2965  1.5687
  155MOL0     H20884   3.277   6.103   9.490  0.8553 -2.3757  0.1337
  155MOL0     H20885   3.507   5.807   9.327  0.9661 -1.3170  1.1306
  155MOL0     H20886   3.545   5.562   9.319  0.5392 -0.0198 -0.7552
  155MOL0     H20887   3.410   5.463   9.372  4.6588 -0.3419  0.6118
  155MOL0     H20888   3.426   5.499   9.202  0.4739 -1.3770  0.3543
  155MOL0     H20889   2.762   5.533   9.470 -1.1194 -0.7646  1.5901
  155MOL0     H20890   2.620   5.388   9.592  1.2685  0.1046  3.1632
  155MOL0     H20891   2.502   5.190   9.711 -2.8097 -1.7485  1.0777
  155MOL0     H20892   2.539   5.146   9.544 -2.6460  0.7482  0.8970
  155MOL0     H20893   2.575   4.936   9.744 -2.9899  2.2320  2.1303
  155MOL0     H20894   2.413   4.956   9.689 -1.0745  2.4324  0.7292
  155MOL0     H20895   2.615   4.807   9.576 -2.4156 -0.4004  1.8452
  155MOL0     H20896   2.629   4.937   9.468  0.8244  0.4390  1.4419
  155MOL0     H20897   2.479   4.749   9.385  0.9005 -0.7977  1.0135
  155MOL0     H20898   2.385   4.765   9.535  0.1369 -1.3256 -1.8277
  155MOL0     H20899   2.377   4.985   9.315 -1.2030 -0.3400 -1.0714
  155MOL0     H20900   2.318   4.996   9.472 -0.1563 -1.6398  1.5016
  155MOL0     H20901   2.246   4.751   9.286  1.2773  0.5909 -0.2152
  155MOL0     H20902   2.165   4.796   9.434 -0.3499  1.3915 -0.2551
  155MOL0     H20903   2.036   4.837   9.225 -0.2620  0.6331  0.4616
  155MOL0     H20904   2.156   4.954   9.187  0.9003 -2.0650 -2.1339
  155MOL0     H20905   2.100   5.079   9.406  1.0203  2.8784 -5.2798
  155MOL0     H20906   1.970   4.955   9.430 -2.2783  1.1024 -1.0088
  155MOL0     H20907   2.940   5.096   9.605 -2.1499 -1.1108  0.1568
  155MOL0     H20908   3.093   5.275   9.506 -0.4933 -0.2139  3.2477
  155MOL0     H20909   3.022   5.766   9.345  0.4047 -1.5376 -0.5853
  155MOL0     H20910   3.119   5.983   9.360 -2.0041 -1.6817  0.1739
  155MOL0     H20911   2.328   7.110  10.114  1.0998  0.9362 -1.5951
  155MOL0     H20912   2.238   7.348  10.163  0.0611  0.0646  2.9858
  155MOL0     H20913   2.263   7.719  10.362 -1.5744  1.9221  0.2397
  155MOL0     H20914   2.158   7.930  10.367 -0.7344 -1.6914  0.0693
  155MOL0     H20915   2.227   8.320  10.251  0.4161 -1.7967 -0.2142
  155MOL0     H20916   2.359   8.238  10.156  0.4095  0.5338 -1.7465
  155MOL0     H20917   2.154   8.212   9.967 -0.8930  1.1882 -0.6225
  155MOL0     H20918   2.280   8.325   9.985  1.8276 -0.8529  1.2582
  155MOL0     H20919   2.104   8.465  10.143  2.0919  0.8259 -1.6727
  155MOL0     H20920   1.993   8.355  10.107  2.9243 -1.5372  2.8779
  155MOL0     H20921   1.959   8.421   9.886 -1.4367 -1.1473  3.5875
  155MOL0     H20922   2.125   8.489   9.862  3.1351  3.9215  3.6903
  155MOL0     H20923   1.915   8.802  10.033  0.6496  0.7066 -0.6107
  155MOL0     H20924   2.292   8.040   9.989 -0.0601  0.7189  0.6564
  155MOL0     H20925   2.391   7.816   9.958  1.8651 -1.6995  2.2009
  156MOL0     O20926   4.632   8.178   3.262  0.4915  0.0345 -0.4686
  156MOL0     C20927   4.674   8.292   3.293 -1.1613  0.1264 -0.6740
  156MOL0     O20928   4.803   8.324   3.289 -0.8996 -0.6931 -0.2603
  156MOL0     C20929   4.907   8.234   3.264 -0.5851 -0.3090 -0.3702
  156MOL0     C20930   4.951   8.145   3.360 -1.0904 -0.7539  0.2657
  156MOL0     C20931   5.057   8.061   3.335  0.3511 -0.6136 -1.2757
  156MOL0     C20932   5.102   8.039   3.201  0.3772 -0.2441  0.0514
  156MOL0     O20933   5.174   7.929   3.174  0.3643  0.0055  0.0101
  156MOL0     C20934   5.276   7.947   3.072 -0.0632  0.9024 -1.5062
  156MOL0     C20935   5.415   7.975   3.128  0.3558  1.1931  0.9688
  156MOL0     C20936   5.432   8.121   3.167  0.7642  0.4497  0.6370
  156MOL0     C20937   5.439   8.207   3.035 -0.1702  0.1968 -0.2329
  156MOL0     C20938   5.513   8.339   3.063  0.5930 -0.1268  0.8601
  156MOL0     C20939   5.666   8.346   3.055  0.3027  0.3971 -0.9159
  156MOL0     C20940   5.731   8.492   3.053  0.2456 -0.2086 -0.5079
  156MOL0     C20941   5.720   8.561   3.187 -0.1914 -0.4386  0.0019
  156MOL0     N20942   5.814   8.675   3.204 -0.4863 -0.7613  0.2302
  156MOL0     C20943   5.948   8.659   3.188 -0.0463 -0.7179 -0.4495
  156MOL0     C20944   5.981   8.792   3.202 -0.3886 -0.1747  0.6389
  156MOL0     C20945   6.127   8.834   3.230 -0.5814  0.1316 -0.4729
  156MOL0     C20946   6.176   8.951   3.141 -0.7264  0.0128  0.1744
  156MOL0     C20947   6.174   9.091   3.214  0.0636 -0.8579 -0.0801
  156MOL0     C20948   6.234   9.213   3.140 -1.0086  0.3913  1.3343
  156MOL0     O20949   6.184   9.326   3.214  0.0468 -1.0484 -0.0873
  156MOL0     C20950   6.243   9.373   3.325  0.0764  0.2518 -0.9652
  156MOL0     C20951   6.341   9.313   3.408  0.8686 -0.7028 -0.5539
  156MOL0     C20952   6.392   9.367   3.526 -0.7649 -0.7119  0.2713
  156MOL0     C20953   6.490   9.284   3.615  0.6039 -1.2095  0.1615
  156MOL0     C20954   6.360   9.510   3.552 -0.0727  0.0483 -0.7166
  156MOL0     C20955   6.421   9.590   3.673 -0.1970  0.3684  0.3411
  156MOL0     O20956   6.424   9.725   3.630  0.1661 -0.7306 -0.2306
  156MOL0     C20957   6.469   9.830   3.711  0.2761  0.2316  1.1915
  156MOL0     C20958   6.425   9.829   3.851 -0.4122  0.3199  0.2925
  156MOL0     C20959   6.450   9.936   3.937  0.0717 -0.6952  0.5422
  156MOL0     C20960   6.518  10.054   3.882  0.0884 -0.4564 -0.4361
  156MOL0     O20961   6.536  10.174   3.950  0.8198  0.0531  0.4662
  156MOL0     C20962   6.487  10.181   4.086  0.7263 -0.5107  0.8588
  156MOL0     C20963   6.492  10.317   4.137  0.1875  0.1005  0.4893
  156MOL0     C20964   6.417  10.407   4.038  0.2925 -0.2404 -1.2312
  156MOL0     C20965   6.405  10.539   4.096 -0.1162 -0.0948 -0.2569
  156MOL0     C20966   6.262  10.560   4.149  0.2459  0.0353 -0.0081
  156MOL0     C20967   6.243  10.705   4.196 -0.6001 -0.3221  0.2240
  156MOL0     C20968   6.108  10.719   4.260 -0.1187 -0.4163  0.1269
  156MOL0     C20969   6.060  10.861   4.264  0.6966 -0.9951  0.2637
  156MOL0    Cl20970   6.192  10.968   4.339 -0.0090  0.0549 -0.1888
  156MOL0     C20971   6.564  10.055   3.747 -0.3628  0.4738 -0.1605
  156MOL0     C20972   6.536   9.945   3.662  0.0670  0.0834  0.5069
  156MOL0     O20973   6.482   9.548   3.770 -0.8786  1.0783 -0.4542
  156MOL0     C20974   6.256   9.567   3.481  0.3587  0.2538 -0.2523
  156MOL0     C20975   6.198   9.501   3.369 -0.2526  1.4053  0.3669
  156MOL0     N20976   5.872   8.878   3.213 -0.4307  0.2339 -0.3162
  156MOL0     N20977   5.768   8.802   3.207 -0.9480 -0.1985 -0.6888
  156MOL0     C20978   5.046   8.123   3.104 -0.6573 -0.0382 -0.2512
  156MOL0     C20979   4.956   8.228   3.132 -0.0250 -0.3720  0.7122
  156MOL0     C20980   4.595   8.397   3.340  0.5042  0.4629 -0.2106
  156MOL0     C20981   4.459   8.402   3.299 -0.6789 -0.2590  0.2146
  156MOL0     C20982   4.372   8.500   3.356  0.0267 -0.7148 -0.6144
  156MOL0     C20983   4.424   8.595   3.443 -0.5553  0.3823  0.1808
  156MOL0     O20984   4.360   8.700   3.492 -0.0274  0.3696  0.2654
  156MOL0     C20985   4.220   8.687   3.518  0.2410 -0.0428  0.2024
  156MOL0     C20986   4.142   8.757   3.408 -0.2828  0.0527 -0.2968
  156MOL0     C20987   3.996   8.737   3.438  0.9221 -0.4495  0.4233
  156MOL0     C20988   3.942   8.616   3.365  0.2311 -0.8539  1.0318
  156MOL0     C20989   3.981   8.485   3.419  0.3631 -0.9967 -0.8668
  156MOL0     C20990   4.011   8.366   3.447 -0.5729 -0.8341  0.0915
  156MOL0     C20991   4.557   8.591   3.488 -0.4255  0.3714 -0.0047
  156MOL0     C20992   4.639   8.487   3.427  0.6371 -0.5770 -0.4488
  156MOL0     H20993   4.894   8.163   3.451 -1.0732  1.2201 -0.0549
  156MOL0     H20994   5.091   8.006   3.422 -1.3922  1.2904  0.7315
  156MOL0     H20995   5.284   7.848   3.026 -2.0576  0.2760 -0.6149
  156MOL0     H20996   5.252   8.019   2.993  0.4003  3.4855  0.5426
  156MOL0     H20997   5.436   7.905   3.210 -1.2494 -3.1671 -1.9537
  156MOL0     H20998   5.494   7.948   3.057 -0.6522  0.4197  0.1040
  156MOL0     H20999   5.349   8.157   3.228  1.1066  2.6983 -0.1033
  156MOL0     H21000   5.522   8.128   3.228 -0.0178 -0.2735  1.9075
  156MOL0     H21001   5.487   8.153   2.952  0.3518  2.5479 -1.5591
  156MOL0     H21002   5.339   8.229   2.995 -1.3691 -1.6363  1.5910
  156MOL0     H21003   5.482   8.404   2.981 -0.2114 -2.5102 -0.8736
  156MOL0     H21004   5.482   8.382   3.159 -2.2816  1.7216 -0.7476
  156MOL0     H21005   5.705   8.303   3.147  1.4338 -2.3326 -2.5439
  156MOL0     H21006   5.706   8.285   2.974 -0.3746 -1.2679 -0.0352
  156MOL0     H21007   5.840   8.481   3.045  0.4014  1.3779 -0.8138
  156MOL0     H21008   5.697   8.555   2.971  0.4941  0.1433 -0.3417
  156MOL0     H21009   5.756   8.493   3.264  2.0746 -1.3552 -1.7284
  156MOL0     H21010   5.614   8.586   3.198 -0.2248 -0.5849  0.0092
  156MOL0     H21011   6.009   8.570   3.179  0.1892 -0.9621  2.5424
  156MOL0     H21012   6.132   8.838   3.339  0.3194 -1.0676 -0.4413
  156MOL0     H21013   6.201   8.756   3.206  0.2007 -0.1500  2.4654
  156MOL0     H21014   6.124   8.944   3.045  1.8611  0.5496 -1.3689
  156MOL0     H21015   6.277   8.925   3.109 -2.1173 -4.0120 -1.6281
  156MOL0     H21016   6.231   9.082   3.307  0.7867  0.1240 -0.4122
  156MOL0     H21017   6.071   9.110   3.246  0.0134 -0.6887 -0.3422
  156MOL0     H21018   6.208   9.216   3.034 -1.4233  1.9564  1.4592
  156MOL0     H21019   6.343   9.203   3.148 -0.9329  1.1397  1.3263
  156MOL0     H21020   6.377   9.216   3.376 -0.4743 -1.2722 -0.4134
  156MOL0     H21021   6.446   9.270   3.714  0.2125 -0.1301  0.1511
  156MOL0     H21022   6.481   9.178   3.588 -0.6788 -2.0083  3.2871
  156MOL0     H21023   6.594   9.318   3.617  0.3142 -0.1333 -1.2108
  156MOL0     H21024   6.367   9.744   3.885 -0.9397 -0.0472 -1.4281
  156MOL0     H21025   6.412   9.933   4.039  0.7834  1.9909  0.9563
  156MOL0     H21026   6.386  10.141   4.102  0.3402 -0.6237 -1.5013
  156MOL0     H21027   6.546  10.110   4.145  1.5201 -1.3532 -0.8818
  156MOL0     H21028   6.446  10.324   4.236  2.2255  3.6943  1.3892
  156MOL0     H21029   6.596  10.349   4.152 -0.3844  2.3907 -0.0399
  156MOL0     H21030   6.325  10.349   4.020  0.4778  0.4238 -4.9488
  156MOL0     H21031   6.472  10.413   3.944  1.6894 -3.3895 -0.7433
  156MOL0     H21032   6.479  10.556   4.175  1.1497  2.3630 -1.8522
  156MOL0     H21033   6.420  10.603   4.009 -2.7316 -2.8461 -3.0029
  156MOL0     H21034   6.240  10.494   4.233 -0.4667 -0.7750 -0.7999
  156MOL0     H21035   6.187  10.523   4.078 -0.3207  0.3817  0.4042
  156MOL0     H21036   6.326  10.749   4.252  1.0781 -1.2850 -1.3934
  156MOL0     H21037   6.246  10.769   4.107 -1.9294  2.2283  1.8763
  156MOL0     H21038   6.119  10.686   4.363  0.5994  1.2533  0.6123
  156MOL0     H21039   6.035  10.655   4.209 -0.8332 -0.2862  0.9617
  156MOL0     H21040   5.971  10.880   4.325  0.1964  2.0129 -1.2163
  156MOL0     H21041   6.037  10.899   4.164  0.2458  2.6293  1.5838
  156MOL0     H21042   6.607  10.143   3.701 -1.9391  0.5029 -1.6995
  156MOL0     H21043   6.568   9.960   3.560  2.1410  1.1900  1.2607
  156MOL0     H21044   6.231   9.673   3.483 -0.1654  0.1330 -0.1360
  156MOL0     H21045   6.115   9.550   3.319 -2.4510  1.5386  3.7755
  156MOL0     H21046   5.073   8.107   3.000  3.7176 -2.2688  0.9648
  156MOL0     H21047   4.924   8.292   3.049  0.3074 -3.2366 -1.8033
  156MOL0     H21048   4.407   8.340   3.227 -1.9646 -4.6888  4.4211
  156MOL0     H21049   4.270   8.511   3.321  0.3921  3.4765 -0.9407
  156MOL0     H21050   4.193   8.585   3.544  0.2802  0.4929  2.6005
  156MOL0     H21051   4.207   8.735   3.616 -0.2103 -1.1807  0.7194
  156MOL0     H21052   4.171   8.701   3.319  0.7194  0.8757 -0.5023
  156MOL0     H21053   4.155   8.865   3.408 -1.0700  0.2002  1.8905
  156MOL0     H21054   3.948   8.832   3.412  1.0898  0.0193  1.7566
  156MOL0     H21055   3.987   8.725   3.547  0.5907 -1.2090  0.3203
  156MOL0     H21056   3.980   8.620   3.262 -0.1339 -0.1172  0.9228
  156MOL0     H21057   3.834   8.615   3.346  0.3287 -0.5220  0.4514
  156MOL0     H21058   4.035   8.267   3.480  0.1553 -1.3688 -1.9002
  156MOL0     H21059   4.596   8.651   3.570 -1.7186  0.0222  0.8994
  156MOL0     H21060   4.736   8.477   3.474 -0.3563  0.5486  2.0073
  157MOL0     O21061   8.557   2.135   7.712 -0.1492  0.4356 -0.8402
  157MOL0     C21062   8.455   2.190   7.759  0.4020 -0.1599 -0.0688
  157MOL0     O21063   8.386   2.289   7.695  0.2901  0.2117 -0.6018
  157MOL0     C21064   8.403   2.327   7.561  1.0630  0.2782 -0.3472
  157MOL0     C21065   8.307   2.295   7.462 -0.1356 -0.2227 -0.0525
  157MOL0     C21066   8.317   2.358   7.344  0.1727 -0.1484 -0.3281
  157MOL0     C21067   8.424   2.440   7.308 -0.1707  0.6033 -0.0115
  157MOL0     O21068   8.427   2.487   7.180  0.5432 -0.8739 -0.0535
  157MOL0     C21069   8.489   2.611   7.159 -0.6317 -0.7774 -0.3352
  157MOL0     C21070   8.470   2.669   7.019  0.7646 -0.2893 -0.4102
  157MOL0     C21071   8.537   2.797   6.978  0.5611  0.2849  0.1358
  157MOL0     C21072   8.516   2.835   6.831 -0.2303  0.6212  0.1675
  157MOL0     C21073   8.567   2.977   6.815  0.3193 -0.1371  0.3419
  157MOL0     C21074   8.717   2.997   6.836 -0.5319 -0.0180  0.0266
  157MOL0     C21075   8.792   2.942   6.722  0.0741 -0.3311  1.0260
  157MOL0     C21076   8.932   2.891   6.759  0.0987  0.3066 -0.1194
  157MOL0     N21077   9.018   2.873   6.646  0.7969  0.8378  0.1802
  157MOL0     C21078   8.974   2.812   6.529 -0.6924  0.3107 -0.5040
  157MOL0     C21079   9.089   2.805   6.457 -0.2820 -0.1023  0.4011
  157MOL0     C21080   9.114   2.773   6.312 -0.6869 -0.1226 -0.2516
  157MOL0     C21081   9.207   2.879   6.241 -0.1714  0.4503  0.6558
  157MOL0     C21082   9.209   2.859   6.086  0.6116 -0.6587  0.2882
  157MOL0     C21083   9.347   2.893   6.022  0.6579 -0.5276  0.0206
  157MOL0     O21084   9.339   2.917   5.880 -0.5444 -0.2257  1.3045
  157MOL0     C21085   9.328   3.040   5.821  0.7428 -0.8765 -0.1809
  157MOL0     C21086   9.290   3.156   5.888 -0.3260  0.6907  0.0037
  157MOL0     C21087   9.291   3.287   5.832  0.6862  0.0035 -0.4795
  157MOL0     C21088   9.257   3.394   5.927 -0.1448  0.3725  0.3973
  157MOL0     C21089   9.334   3.309   5.694  0.2369  0.0314  0.5820
  157MOL0     C21090   9.356   3.434   5.624  0.8863 -0.1037 -0.3958
  157MOL0     O21091   9.395   3.424   5.493  0.3135 -0.4241  0.0871
  157MOL0     C21092   9.434   3.538   5.422 -0.5982 -1.1637 -1.2623
  157MOL0     C21093   9.540   3.528   5.332 -0.1690  0.1787 -0.6642
  157MOL0     C21094   9.574   3.625   5.241 -0.4773  0.8147  0.7747
  157MOL0     C21095   9.501   3.740   5.236  0.3761 -0.5631 -0.2328
  157MOL0     O21096   9.548   3.841   5.163  0.3123  0.4817 -0.2356
  157MOL0     C21097   9.591   3.823   5.025  1.5626  0.2104 -0.5641
  157MOL0     C21098   9.737   3.862   5.002  0.1553  0.2116  0.0649
  157MOL0     C21099   9.761   3.890   4.853  0.0341 -0.9656  0.4919
  157MOL0     C21100   9.909   3.886   4.816  0.2129  0.8583 -0.0016
  157MOL0     C21101   9.946   3.850   4.675  0.2287 -1.1812  0.6829
  157MOL0     C21102   9.879   3.959   4.589  0.4133  0.4817  0.8245
  157MOL0     C21103   9.923   3.933   4.445  0.0912  0.1587  0.6960
  157MOL0     C21104   9.889   4.035   4.344 -0.7422  0.3915  0.4254
  157MOL0    Cl21105   9.870   3.971   4.186 -0.2379  0.1702 -0.4976
  157MOL0     C21106   9.395   3.757   5.326 -0.2408 -0.0495 -0.1340
  157MOL0     C21107   9.356   3.662   5.415 -0.2470  1.1011 -0.7940
  157MOL0     O21108   9.356   3.540   5.686 -0.3920 -0.3384 -0.3897
  157MOL0     C21109   9.370   3.195   5.620  0.5691 -0.1045 -0.1761
  157MOL0     C21110   9.368   3.076   5.685 -0.8773  0.6487  0.2418
  157MOL0     N21111   9.192   2.841   6.535 -0.5232 -0.7270 -0.0171
  157MOL0     N21112   9.150   2.899   6.642 -0.6771  0.2409 -0.1093
  157MOL0     C21113   8.528   2.457   7.405 -0.0636 -0.3527  0.4245
  157MOL0     C21114   8.517   2.404   7.530  0.8048  0.0742  0.8623
  157MOL0     C21115   8.407   2.146   7.895  0.8195 -0.1220 -0.2757
  157MOL0     C21116   8.448   2.015   7.932 -0.0548  0.7152 -0.5367
  157MOL0     C21117   8.401   1.962   8.059 -0.0368  0.1078  0.9789
  157MOL0     C21118   8.334   2.040   8.159 -0.7994 -0.1784 -0.2355
  157MOL0     O21119   8.303   1.988   8.284  0.5337  0.1607 -0.0239
  157MOL0     C21120   8.202   2.051   8.375  0.6833  0.7275  0.5417
  157MOL0     C21121   8.261   2.143   8.491  0.8977  0.5574 -0.6336
  157MOL0     C21122   8.285   2.079   8.626 -0.2686  0.7998 -0.1423
  157MOL0     C21123   8.359   2.176   8.713 -0.2403  0.5606  0.3477
  157MOL0     C21124   8.293   2.309   8.738 -0.7663  0.3826 -0.0304
  157MOL0     C21125   8.227   2.404   8.766 -0.0308 -0.3483 -0.5339
  157MOL0     C21126   8.300   2.169   8.112  0.3675 -0.4815 -0.2450
  157MOL0     C21127   8.342   2.226   7.989  1.1559 -1.3556  0.0993
  157MOL0     H21128   8.224   2.237   7.501  0.0604 -0.1112  0.5504
  157MOL0     H21129   8.226   2.356   7.285 -0.7932  1.4475  1.0096
  157MOL0     H21130   8.444   2.689   7.221 -1.1603  0.9759 -2.7757
  157MOL0     H21131   8.595   2.599   7.180  0.7067 -0.0289 -5.2831
  157MOL0     H21132   8.513   2.589   6.959  0.2285 -2.9832  2.5179
  157MOL0     H21133   8.364   2.673   6.994  1.2701  0.0727 -2.6993
  157MOL0     H21134   8.493   2.875   7.040 -2.1154 -1.5515  0.7462
  157MOL0     H21135   8.644   2.778   6.993  1.3697  2.9555 -1.5966
  157MOL0     H21136   8.549   2.757   6.762 -1.1209 -0.1967  0.6527
  157MOL0     H21137   8.409   2.833   6.807 -0.0774  1.8996 -0.7366
  157MOL0     H21138   8.530   3.027   6.725 -1.6829  2.0622  2.2427
  157MOL0     H21139   8.522   3.034   6.897  2.3559  2.0504  0.0593
  157MOL0     H21140   8.745   3.103   6.844  0.9581 -0.1279 -2.6579
  157MOL0     H21141   8.754   2.942   6.923 -1.0150 -1.5565 -0.7099
  157MOL0     H21142   8.736   2.871   6.660  1.5314 -0.6697  0.0546
  157MOL0     H21143   8.815   3.022   6.651 -1.4618 -0.7636 -0.0108
  157MOL0     H21144   8.916   2.797   6.813  0.4754 -1.5259 -3.0225
  157MOL0     H21145   8.987   2.965   6.818  2.4966  0.3078 -2.2096
  157MOL0     H21146   8.870   2.788   6.507 -1.4934  3.1626 -0.1983
  157MOL0     H21147   9.169   2.679   6.313  1.2893  0.9762  0.9835
  157MOL0     H21148   9.023   2.756   6.254 -0.5956  2.0052 -1.0982
  157MOL0     H21149   9.309   2.878   6.280  0.5354  0.3334 -1.1130
  157MOL0     H21150   9.167   2.979   6.258  2.4845  1.2204  3.2311
  157MOL0     H21151   9.135   2.920   6.034  0.9377 -2.5375 -2.6073
  157MOL0     H21152   9.179   2.758   6.057  1.0137  0.0018 -2.7786
  157MOL0     H21153   9.404   2.800   6.032 -1.4222 -1.8201  0.5837
  157MOL0     H21154   9.397   2.983   6.058 -1.0846 -0.0399  1.3927
  157MOL0     H21155   9.255   3.139   5.990  1.5894  1.3430  0.8049
  157MOL0     H21156   9.190   3.355   6.005 -0.7971  0.8747  0.0992
  157MOL0     H21157   9.337   3.437   5.988 -1.6696  0.9693  2.0637
  157MOL0     H21158   9.200   3.474   5.879 -1.3628 -0.1947  0.8499
  157MOL0     H21159   9.593   3.436   5.312 -1.1710 -0.2865 -1.1976
  157MOL0     H21160   9.645   3.605   5.161  1.9732  3.6752  2.0609
  157MOL0     H21161   9.564   3.724   4.987  0.3699  0.6636 -0.9398
  157MOL0     H21162   9.538   3.897   4.965  0.9279  1.8143  1.8106
  157MOL0     H21163   9.757   3.954   5.056  0.7329  1.0816 -1.5726
  157MOL0     H21164   9.801   3.784   5.044  3.0611  2.4447  0.0317
  157MOL0     H21165   9.724   3.990   4.831  0.2506 -1.3757 -1.9348
  157MOL0     H21166   9.690   3.824   4.803 -2.8132 -0.7416  3.8291
  157MOL0     H21167   9.960   3.981   4.831 -0.0512  0.8715  0.8579
  157MOL0     H21168   9.959   3.804   4.868 -1.7232 -0.0729  0.5024
  157MOL0     H21169   9.909   3.751   4.647  0.2222 -0.6595 -1.2969
  157MOL0     H21170  10.055   3.859   4.674  0.0973  1.9101  2.4382
  157MOL0     H21171   9.771   3.958   4.605  0.2935 -2.0831  0.2794
  157MOL0     H21172   9.920   4.055   4.622  1.7363  0.0944  0.3899
  157MOL0     H21173   9.902   3.828   4.423  1.2117  0.2789 -1.1450
  157MOL0     H21174  10.032   3.935   4.456  0.1886 -2.0719  0.5687
  157MOL0     H21175   9.961   4.117   4.339  0.9951 -0.9908  1.5432
  157MOL0     H21176   9.786   4.067   4.366 -0.1652  0.9636  2.6055
  157MOL0     H21177   9.345   3.854   5.326  0.1080  0.1798 -2.1260
  157MOL0     H21178   9.271   3.678   5.481  1.5134 -3.1235  2.9587
  157MOL0     H21179   9.418   3.205   5.523 -3.1247 -0.4099 -2.2055
  157MOL0     H21180   9.418   3.004   5.621 -1.1191 -0.6552  1.4516
  157MOL0     H21181   8.612   2.519   7.376  0.8684 -0.4974  2.6037
  157MOL0     H21182   8.588   2.436   7.605 -0.2033  4.1359  0.2846
  157MOL0     H21183   8.504   1.951   7.864 -1.3638 -0.0940 -0.8839
  157MOL0     H21184   8.448   1.869   8.087  0.3733  0.1578  0.4492
  157MOL0     H21185   8.127   2.096   8.309  0.8184  0.1319 -0.0271
  157MOL0     H21186   8.142   1.968   8.413 -0.0329 -0.0359 -2.0156
  157MOL0     H21187   8.182   2.219   8.495  0.4976  0.3489 -3.0285
  157MOL0     H21188   8.342   2.204   8.450  0.2483  0.7810 -1.6171
  157MOL0     H21189   8.338   1.985   8.606 -1.9724 -0.4658  0.9192
  157MOL0     H21190   8.192   2.058   8.679  1.0609 -0.8981  1.6490
  157MOL0     H21191   8.457   2.202   8.671  0.3841 -1.7915  0.1682
  157MOL0     H21192   8.377   2.136   8.813 -1.6811  1.1386  0.8647
  157MOL0     H21193   8.148   2.463   8.806  0.3313 -1.7399  2.5217
  157MOL0     H21194   8.234   2.220   8.181  1.0173 -0.8624  0.6795
  157MOL0     H21195   8.307   2.321   7.950 -0.7393 -1.8709  0.4603
  158MOL0     O21196   8.341  11.358   0.488  0.6437  0.0176  0.0281
  158MOL0     C21197   8.226  11.336   0.537 -0.2130  0.7601  0.0334
  158MOL0     O21198   8.111  11.409   0.510  0.1999  0.0697 -0.2417
  158MOL0     C21199   8.102  11.537   0.456 -0.2728  1.0823  1.0889
  158MOL0     C21200   8.211  11.632   0.471  0.5579 -0.8269 -0.5566
  158MOL0     C21201   8.189  11.769   0.429 -0.6223  0.6908 -0.8027
  158MOL0     C21202   8.079  11.801   0.358  0.4783 -0.0879  0.8239
  158MOL0     O21203   8.058  11.933   0.314 -0.0377 -0.1440 -0.0367
  158MOL0     C21204   8.169  11.997   0.248  0.2939  0.0286  0.2318
  158MOL0     C21205   8.137  12.144   0.225  0.2666 -1.0798  1.0026
  158MOL0     C21206   8.258  12.210   0.157 -0.2274  0.4680  0.1517
  158MOL0     C21207   8.224  12.343   0.092  0.0508  0.3417 -0.6891
  158MOL0     C21208   8.331  12.408   0.014 -0.5806  0.6669  0.6235
  158MOL0     C21209   8.414  12.496   0.109  0.0604 -0.8131  0.8413
  158MOL0     C21210   8.525  12.559   0.014 -0.0556 -0.1046 -0.0614
  158MOL0     C21211   8.612  12.661   0.084 -0.2348  0.0057 -0.0580
  158MOL0     N21212   8.683  12.754  -0.004 -0.4766  0.0577  0.1652
  158MOL0     C21213   8.775  12.737  -0.099 -0.8687  0.2349  0.0477
  158MOL0     C21214   8.789  12.851  -0.168 -0.4430  0.5747 -0.2755
  158MOL0     C21215   8.886  12.883  -0.282 -0.3573  0.2322  0.9927
  158MOL0     C21216   8.859  12.786  -0.397  0.3071  0.2855 -0.1507
  158MOL0     C21217   8.964  12.795  -0.503 -0.3970  0.4364 -0.2131
  158MOL0     C21218   8.916  12.755  -0.642 -0.2530 -0.7930 -0.2592
  158MOL0     O21219   8.990  12.843  -0.726  0.8693  0.0293 -0.2763
  158MOL0     C21220   9.109  12.806  -0.769 -0.2822 -0.6747 -0.0678
  158MOL0     C21221   9.184  12.907  -0.826 -0.1397  0.1633  0.2020
  158MOL0     C21222   9.316  12.891  -0.871  0.5523 -0.2710  0.0672
  158MOL0     C21223   9.379  13.015  -0.934  0.1477  0.0469 -0.4709
  158MOL0     C21224   9.375  12.766  -0.841  0.0794 -1.1691 -0.4938
  158MOL0     C21225   9.520  12.740  -0.854  0.2198  0.6915  0.4679
  158MOL0     O21226   9.595  12.841  -0.899 -0.1531  0.7918  0.1931
  158MOL0     C21227   9.727  12.816  -0.943  0.8585 -0.0609  0.8856
  158MOL0     C21228   9.804  12.936  -0.963 -0.5103 -0.5520  1.2127
  158MOL0     C21229   9.928  12.931  -1.011 -0.9041  0.5577  0.4921
  158MOL0     C21230   9.981  12.807  -1.045 -0.5270 -1.2874  0.7786
  158MOL0     O21231  10.107  12.787  -1.102 -0.0941 -0.8345  0.1153
  158MOL0     C21232  10.220  12.880  -1.098 -1.5178  0.3577 -0.6164
  158MOL0     C21233  10.332  12.791  -1.065 -0.0538 -1.1051  0.8555
  158MOL0     C21234  10.466  12.867  -1.061 -0.0494  0.6900 -0.9758
  158MOL0     C21235  10.561  12.817  -0.955 -0.2489  0.8473  0.0316
  158MOL0     C21236  10.700  12.890  -0.967  0.2308  0.4695 -0.6805
  158MOL0     C21237  10.798  12.858  -0.855  0.7195 -0.1070 -0.1677
  158MOL0     C21238  10.945  12.886  -0.885 -0.5248 -0.0904 -0.1810
  158MOL0     C21239  11.017  12.823  -0.765  0.7046 -0.2393  0.3056
  158MOL0    Cl21240  11.188  12.837  -0.784  0.0885 -0.0759 -0.3773
  158MOL0     C21241   9.916  12.688  -1.031  0.8075  0.7906  0.7187
  158MOL0     C21242   9.786  12.688  -0.981  0.5160  0.4879  0.2751
  158MOL0     O21243   9.557  12.621  -0.823 -0.8019 -0.3144  0.1571
  158MOL0     C21244   9.287  12.653  -0.816 -0.4871 -0.4131 -0.4102
  158MOL0     C21245   9.163  12.675  -0.778  0.6792 -0.2517  0.5681
  158MOL0     N21246   8.705  12.939  -0.103  0.5268 -0.7069  0.5458
  158MOL0     N21247   8.641  12.881  -0.008  0.0543  0.7755  0.7014
  158MOL0     C21248   7.983  11.697   0.340  1.0815  1.0579  0.1401
  158MOL0     C21249   7.989  11.572   0.387 -0.6956  0.4402  0.4644
  158MOL0     C21250   8.216  11.224   0.641 -0.6089 -0.1106  0.2586
  158MOL0     C21251   8.088  11.182   0.669 -0.3788  0.0414 -0.5441
  158MOL0     C21252   8.077  11.069   0.758 -0.4360 -0.0320 -0.1036
  158MOL0     C21253   8.193  10.999   0.809 -0.1713 -0.4873  0.8642
  158MOL0     O21254   8.177  10.892   0.892  0.5822 -0.1113 -0.5085
  158MOL0     C21255   8.128  10.756   0.855 -1.3060 -0.6241 -0.0120
  158MOL0     C21256   8.245  10.659   0.832  0.0275  0.2325 -0.5293
  158MOL0     C21257   8.316  10.674   0.697 -0.4454  0.3140 -0.2580
  158MOL0     C21258   8.396  10.538   0.658 -0.0978  0.0276 -0.4584
  158MOL0     C21259   8.501  10.520   0.756  0.4976 -0.5567 -0.3840
  158MOL0     C21260   8.582  10.519   0.848 -0.3190 -0.4062 -0.3369
  158MOL0     C21261   8.320  11.038   0.761 -0.9558  0.3030 -0.3232
  158MOL0     C21262   8.329  11.159   0.684  0.1370 -0.1485  0.4430
  158MOL0     H21263   8.301  11.602   0.524  0.8233  2.8568  1.3677
  158MOL0     H21264   8.273  11.832   0.458 -0.5027  0.2261 -0.0906
  158MOL0     H21265   8.260  11.987   0.308  1.6420 -1.7314 -1.9689
  158MOL0     H21266   8.189  11.941   0.157  0.0451 -3.7968  2.3369
  158MOL0     H21267   8.050  12.139   0.158 -0.9493 -0.2839  2.4656
  158MOL0     H21268   8.111  12.189   0.321 -1.2897  0.9142 -0.2615
  158MOL0     H21269   8.339  12.236   0.226 -0.5152 -0.3998  0.8458
  158MOL0     H21270   8.288  12.138   0.081  0.7424  0.0420  0.9172
  158MOL0     H21271   8.127  12.333   0.043 -0.4864  1.5876  0.0776
  158MOL0     H21272   8.192  12.406   0.175 -0.0605 -0.2467 -0.2767
  158MOL0     H21273   8.403  12.344  -0.038 -0.8524  0.1717  0.8477
  158MOL0     H21274   8.280  12.475  -0.057 -1.7095  0.0804  0.8558
  158MOL0     H21275   8.344  12.569   0.150 -2.1974 -0.4582 -3.1411
  158MOL0     H21276   8.459  12.432   0.185  3.4232  2.7334  2.1899
  158MOL0     H21277   8.586  12.471  -0.006  2.0389  1.3654 -0.5300
  158MOL0     H21278   8.472  12.598  -0.074  2.0362 -1.0133 -1.7885
  158MOL0     H21279   8.685  12.611   0.149 -0.0574 -0.0379 -0.2886
  158MOL0     H21280   8.550  12.716   0.155  1.2139 -2.5315  3.4709
  158MOL0     H21281   8.822  12.643  -0.125 -2.8245 -0.5725 -0.8320
  158MOL0     H21282   8.888  12.985  -0.321  1.3892 -0.6799 -1.5039
  158MOL0     H21283   8.984  12.861  -0.239  0.8160  3.4420  0.2434
  158MOL0     H21284   8.770  12.821  -0.449  1.0321  0.7419 -1.1193
  158MOL0     H21285   8.861  12.682  -0.362  3.1902  0.0075 -0.8386
  158MOL0     H21286   9.043  12.725  -0.472 -0.6310 -0.5179 -1.7129
  158MOL0     H21287   9.006  12.896  -0.498 -0.5676  0.6356 -2.0934
  158MOL0     H21288   8.809  12.775  -0.645 -0.4269 -1.3093  1.2565
  158MOL0     H21289   8.938  12.648  -0.647  1.2331 -0.4504 -2.5965
  158MOL0     H21290   9.137  13.002  -0.849 -0.4362  0.0604  0.3821
  158MOL0     H21291   9.409  12.992  -1.037  1.7767  1.1900 -0.2949
  158MOL0     H21292   9.314  13.103  -0.933  0.1448  0.0506  0.6366
  158MOL0     H21293   9.466  13.046  -0.875 -1.7604  0.5948  2.2564
  158MOL0     H21294   9.764  13.035  -0.948  3.0116  2.0076 -3.5495
  158MOL0     H21295   9.987  13.020  -1.033 -0.0516  0.2845  1.5932
  158MOL0     H21296  10.240  12.939  -1.187 -0.1050  0.3544 -0.3265
  158MOL0     H21297  10.224  12.950  -1.013  1.4963  0.1139 -0.4570
  158MOL0     H21298  10.302  12.765  -0.963  0.0433  2.0626  1.7907
  158MOL0     H21299  10.343  12.705  -1.133 -0.3244  0.4969 -1.3429
  158MOL0     H21300  10.444  12.970  -1.032  0.9895  1.4477 -2.7527
  158MOL0     H21301  10.504  12.877  -1.163 -0.7436  0.8056 -1.2255
  158MOL0     H21302  10.524  12.838  -0.854 -0.4880 -0.1614  0.1660
  158MOL0     H21303  10.566  12.709  -0.969 -1.5119  0.5331  1.6857
  158MOL0     H21304  10.689  12.997  -0.983 -2.8622 -0.0147 -2.5489
  158MOL0     H21305  10.742  12.844  -1.057 -0.8917 -2.8438  0.3250
  158MOL0     H21306  10.769  12.909  -0.763 -2.6027 -1.3606 -0.3669
  158MOL0     H21307  10.774  12.755  -0.826 -1.7141  0.1789 -0.9200
  158MOL0     H21308  10.948  12.995  -0.895  0.1653  0.3956  3.7133
  158MOL0     H21309  10.967  12.819  -0.969 -0.5070 -1.4426  0.8781
  158MOL0     H21310  10.992  12.720  -0.741 -0.8780  0.3497  1.3491
  158MOL0     H21311  10.984  12.884  -0.680  1.7622  0.5242  0.1890
  158MOL0     H21312   9.961  12.592  -1.056 -0.1469  0.0575  1.7094
  158MOL0     H21313   9.730  12.595  -0.979 -0.2045  0.9231  1.4055
  158MOL0     H21314   9.327  12.554  -0.799 -2.8997 -1.0280  2.4879
  158MOL0     H21315   9.112  12.587  -0.738 -0.9991  0.9905  1.2878
  158MOL0     H21316   7.887  11.720   0.293 -0.5317 -1.9915  1.6860
  158MOL0     H21317   7.919  11.493   0.363  3.1012 -4.8923  4.4072
  158MOL0     H21318   7.998  11.224   0.624 -1.1739 -0.6647  0.3380
  158MOL0     H21319   7.975  11.037   0.775 -1.3314  2.0713 -1.1769
  158MOL0     H21320   8.066  10.705   0.929 -3.7382  2.4164  0.2625
  158MOL0     H21321   8.072  10.772   0.763 -2.3635  0.3268  0.7662
  158MOL0     H21322   8.206  10.557   0.840  1.2364 -0.2426 -0.6382
  158MOL0     H21323   8.321  10.670   0.909 -2.8912  0.3904  2.5858
  158MOL0     H21324   8.378  10.764   0.690  1.2536 -0.9098 -2.0491
  158MOL0     H21325   8.245  10.692   0.615  0.4484 -1.0370 -1.3730
  158MOL0     H21326   8.438  10.553   0.558  1.9331 -0.8658  0.2123
  158MOL0     H21327   8.335  10.447   0.662 -1.5569  1.0148  0.5634
  158MOL0     H21328   8.651  10.527   0.929  1.2650  1.2844 -1.7714
  158MOL0     H21329   8.402  10.978   0.798 -2.3213 -1.4266  0.0445
  158MOL0     H21330   8.427  11.193   0.653  1.8020 -0.8351  4.3810
  159MOL0     O21331   6.746   0.122   2.250 -0.4661  0.5233  0.0193
  159MOL0     C21332   6.630   0.129   2.276 -0.5873  0.2420  1.0349
  159MOL0     O21333   6.536   0.194   2.206  0.4729 -0.2841  0.9143
  159MOL0     C21334   6.584   0.258   2.085 -0.5070  0.2198 -0.1801
  159MOL0     C21335   6.563   0.398   2.074 -0.6087  0.8532 -0.5016
  159MOL0     C21336   6.612   0.471   1.958  0.0912 -0.3435  0.2391
  159MOL0     C21337   6.668   0.410   1.849 -0.4005 -0.7937  0.7356
  159MOL0     O21338   6.684   0.448   1.720  0.0547  0.0254 -0.0113
  159MOL0     C21339   6.709   0.583   1.685 -0.7739 -0.0816 -0.4573
  159MOL0     C21340   6.634   0.635   1.555  0.0838  0.3488  0.3236
  159MOL0     C21341   6.722   0.741   1.474  0.2135  0.1355  0.7684
  159MOL0     C21342   6.753   0.866   1.559 -0.2025  1.1275  0.1204
  159MOL0     C21343   6.845   0.957   1.479  0.3919 -0.3995 -0.1987
  159MOL0     C21344   6.921   1.065   1.566  0.5873  0.1206 -0.5486
  159MOL0     C21345   7.032   1.130   1.477  0.0777 -0.2654 -0.3322
  159MOL0     C21346   6.987   1.196   1.353 -0.5874  0.2384 -0.0683
  159MOL0     N21347   6.909   1.321   1.377 -0.5168  0.2778 -0.0573
  159MOL0     C21348   6.947   1.444   1.406 -0.9402 -0.5338 -0.7732
  159MOL0     C21349   6.832   1.514   1.406 -0.4106 -0.2225  0.3536
  159MOL0     C21350   6.814   1.661   1.434  0.2103  0.5600  0.6431
  159MOL0     C21351   6.935   1.735   1.481  1.1295  0.3673 -1.1373
  159MOL0     C21352   6.933   1.731   1.644  0.1047  0.5129  1.4166
  159MOL0     C21353   7.069   1.765   1.712  0.5969  0.7285  0.7052
  159MOL0     O21354   7.090   1.906   1.711  0.1902  0.1742  0.7775
  159MOL0     C21355   7.181   1.968   1.801  0.2198  0.1964  0.4213
  159MOL0     C21356   7.127   1.999   1.928  0.4757 -0.4209  0.7192
  159MOL0     C21357   7.207   2.080   2.015  0.4874  0.4141  0.3320
  159MOL0     C21358   7.145   2.127   2.146 -0.5523 -0.2065 -0.0346
  159MOL0     C21359   7.338   2.123   1.965 -0.0224 -0.0308 -0.0733
  159MOL0     C21360   7.418   2.228   2.027 -1.1295  0.5494 -0.3158
  159MOL0     O21361   7.491   2.306   1.952  0.1964 -0.0395 -0.3823
  159MOL0     C21362   7.503   2.431   2.004 -0.0695  0.3576 -0.1497
  159MOL0     C21363   7.627   2.469   2.050 -0.3123  0.4188 -0.0986
  159MOL0     C21364   7.640   2.591   2.116  1.2280 -0.5408 -0.2720
  159MOL0     C21365   7.532   2.687   2.124 -0.0414  0.0222 -0.3285
  159MOL0     O21366   7.532   2.813   2.190 -0.9715 -0.0371  0.3236
  159MOL0     C21367   7.661   2.882   2.166  0.1851  0.0497 -0.4883
  159MOL0     C21368   7.658   3.035   2.204  0.1631 -0.4193 -0.0723
  159MOL0     C21369   7.531   3.097   2.149 -0.5394 -0.1354 -0.8989
  159MOL0     C21370   7.561   3.250   2.137 -0.8124  0.9133 -0.5845
  159MOL0     C21371   7.433   3.327   2.097  0.5143 -0.0968 -1.5695
  159MOL0     C21372   7.453   3.482   2.095  0.7275 -1.0005 -0.1416
  159MOL0     C21373   7.325   3.552   2.033 -1.2113  0.9871 -0.7980
  159MOL0     C21374   7.339   3.703   2.042  0.3704  0.0034 -0.4097
  159MOL0    Cl21375   7.252   3.778   1.908  0.0733 -0.5180 -0.7712
  159MOL0     C21376   7.410   2.642   2.076 -0.1271  0.4478  0.0051
  159MOL0     C21377   7.394   2.518   2.013  0.1379  0.2640  0.5720
  159MOL0     O21378   7.421   2.223   2.152  0.0159 -0.1873 -0.2255
  159MOL0     C21379   7.382   2.085   1.839  1.3455 -0.4983 -0.1720
  159MOL0     C21380   7.310   2.010   1.753  0.0909 -0.4645  0.2534
  159MOL0     N21381   6.728   1.424   1.378  1.3682 -1.1690  0.2717
  159MOL0     N21382   6.777   1.309   1.374  0.0875  0.7875  0.2893
  159MOL0     C21383   6.674   0.270   1.860 -0.7147  0.5406 -0.6060
  159MOL0     C21384   6.651   0.190   1.972 -0.6554 -0.1657 -0.8532
  159MOL0     C21385   6.594   0.076   2.413 -0.1100 -0.5536 -0.7565
  159MOL0     C21386   6.675  -0.011   2.489 -0.5681  0.7235  0.3730
  159MOL0     C21387   6.624  -0.056   2.610 -0.0820  0.1368 -0.4571
  159MOL0     C21388   6.509  -0.005   2.671  1.2058  0.9267  0.3132
  159MOL0     O21389   6.460  -0.037   2.796 -0.6151  0.0013 -0.0172
  159MOL0     C21390   6.482  -0.161   2.865 -0.0459 -0.0026  0.6829
  159MOL0     C21391   6.421  -0.160   3.006 -0.4289  0.8015 -0.0538
  159MOL0     C21392   6.431  -0.296   3.074  0.4441  0.3096  0.8711
  159MOL0     C21393   6.396  -0.286   3.213 -0.7111 -0.2484  0.4641
  159MOL0     C21394   6.487  -0.230   3.306 -1.0433 -0.6665  0.8849
  159MOL0     C21395   6.562  -0.170   3.382 -0.2216 -0.1373  0.3229
  159MOL0     C21396   6.428   0.085   2.598  0.0470 -0.4361  0.6931
  159MOL0     C21397   6.475   0.129   2.470 -0.1498  0.6091 -0.7311
  159MOL0     H21398   6.514   0.451   2.155 -1.3270 -0.7553  0.1663
  159MOL0     H21399   6.599   0.578   1.944  0.1527 -0.4621 -0.7907
  159MOL0     H21400   6.682   0.649   1.768  0.8620  0.9530 -0.7106
  159MOL0     H21401   6.813   0.612   1.669 -0.0205 -2.4235 -0.1256
  159MOL0     H21402   6.612   0.547   1.495 -0.7854 -0.1530  1.3354
  159MOL0     H21403   6.540   0.685   1.581 -0.0764  0.4493 -0.4450
  159MOL0     H21404   6.806   0.691   1.424 -1.6942 -0.8729 -1.6287
  159MOL0     H21405   6.661   0.775   1.390 -2.3881  1.4302  3.0248
  159MOL0     H21406   6.659   0.919   1.579 -1.0262 -0.3022  0.1191
  159MOL0     H21407   6.810   0.833   1.647 -1.2556  0.8577  0.7172
  159MOL0     H21408   6.918   0.897   1.425  1.6286  0.9653 -0.0919
  159MOL0     H21409   6.787   1.008   1.402  0.7404 -0.4735 -0.5116
  159MOL0     H21410   6.848   1.133   1.610 -0.1525  0.5307 -2.3258
  159MOL0     H21411   6.976   1.021   1.650 -0.7768  0.5437  0.6024
  159MOL0     H21412   7.081   1.203   1.541  0.2878  1.7452 -2.6100
  159MOL0     H21413   7.105   1.051   1.459 -0.4600 -0.8955  0.1979
  159MOL0     H21414   6.934   1.117   1.299 -1.4407 -0.4450  1.6747
  159MOL0     H21415   7.066   1.228   1.284  1.3294 -4.6175 -0.4859
  159MOL0     H21416   7.042   1.478   1.447 -1.1965 -2.0915  1.2818
  159MOL0     H21417   6.781   1.711   1.342 -0.3421  0.4209  0.7604
  159MOL0     H21418   6.734   1.665   1.509  1.3150 -0.5434  1.9285
  159MOL0     H21419   6.935   1.837   1.441 -2.0351  0.1842 -1.9141
  159MOL0     H21420   7.023   1.683   1.444  2.1389  0.3844  1.0353
  159MOL0     H21421   6.907   1.628   1.670 -1.3738  0.4592 -0.0401
  159MOL0     H21422   6.859   1.797   1.690 -0.5923  1.7654 -1.2956
  159MOL0     H21423   7.154   1.709   1.671 -2.6293 -2.3359 -2.4544
  159MOL0     H21424   7.055   1.741   1.818  3.1234 -1.6924  0.6123
  159MOL0     H21425   7.027   1.965   1.954 -2.0965  3.8108 -2.2644
  159MOL0     H21426   7.190   2.072   2.229  1.8551  2.9369  0.9383
  159MOL0     H21427   7.155   2.235   2.164 -4.3406  0.5031 -1.2403
  159MOL0     H21428   7.037   2.108   2.151 -0.2730 -1.5796  2.1365
  159MOL0     H21429   7.711   2.401   2.039  0.7193  1.7216 -0.5361
  159MOL0     H21430   7.740   2.606   2.155  2.2811 -3.3357 -1.6797
  159MOL0     H21431   7.735   2.823   2.220 -0.1679 -1.4533 -1.5835
  159MOL0     H21432   7.681   2.864   2.060 -2.9821 -2.4415 -0.8192
  159MOL0     H21433   7.659   3.056   2.311  1.8114 -2.6798  0.4123
  159MOL0     H21434   7.750   3.075   2.162  0.6539 -0.7538  0.6675
  159MOL0     H21435   7.451   3.075   2.221  0.8151 -3.4047 -0.1893
  159MOL0     H21436   7.508   3.050   2.052 -0.1421 -0.8056 -0.6755
  159MOL0     H21437   7.625   3.267   2.224 -0.2841 -2.5170 -0.1815
  159MOL0     H21438   7.624   3.274   2.051 -2.1114 -1.9932 -2.4807
  159MOL0     H21439   7.361   3.307   2.176 -0.4014  0.7870 -2.1569
  159MOL0     H21440   7.396   3.303   1.997 -1.2550 -3.5173 -0.2412
  159MOL0     H21441   7.459   3.518   2.199  2.0309  1.6119 -1.0434
  159MOL0     H21442   7.542   3.523   2.047 -0.4776  2.2373  0.1482
  159MOL0     H21443   7.229   3.534   2.084 -0.9638 -1.1859 -0.9773
  159MOL0     H21444   7.322   3.527   1.927 -3.3242  1.0674 -0.8034
  159MOL0     H21445   7.441   3.740   2.027  1.3432 -2.8214 -1.4153
  159MOL0     H21446   7.293   3.755   2.127  1.8990  2.0932 -0.7776
  159MOL0     H21447   7.326   2.710   2.091 -0.3608  0.1314  0.1232
  159MOL0     H21448   7.291   2.497   1.986 -0.3613  0.6981  2.0095
  159MOL0     H21449   7.480   2.128   1.817 -0.2780  4.5085  1.0230
  159MOL0     H21450   7.340   2.002   1.649 -2.1764  2.0763 -0.7237
  159MOL0     H21451   6.722   0.207   1.786  0.6919  0.0752  0.6310
  159MOL0     H21452   6.678   0.086   1.988  1.3113  0.7400  2.9998
  159MOL0     H21453   6.773  -0.047   2.461 -1.6616 -1.7221 -0.6476
  159MOL0     H21454   6.695  -0.113   2.668  0.1744  0.1596 -0.7439
  159MOL0     H21455   6.435  -0.249   2.820  1.6658 -0.2450 -0.7326
  159MOL0     H21456   6.589  -0.182   2.853 -0.4982 -0.8524 -3.2526
  159MOL0     H21457   6.317  -0.134   2.983 -0.8701  0.8468  1.8294
  159MOL0     H21458   6.479  -0.096   3.074 -0.2504  0.7291 -0.1378
  159MOL0     H21459   6.530  -0.341   3.062 -0.9482 -2.9572  0.3514
  159MOL0     H21460   6.376  -0.375   3.023  1.3341 -1.0278  1.8977
  159MOL0     H21461   6.366  -0.384   3.250 -3.9662  0.9401  1.2982
  159MOL0     H21462   6.310  -0.219   3.224 -0.4693  0.0133  0.7848
  159MOL0     H21463   6.613  -0.100   3.445  0.8943 -1.4060  0.8810
  159MOL0     H21464   6.345   0.131   2.651  0.0206  2.3515 -1.5783
  159MOL0     H21465   6.419   0.210   2.426  0.2279  1.1103 -0.2985
  160MOL0     O21466   0.063   4.754   3.760 -0.2331  0.0152  0.4088
  160MOL0     C21467   0.011   4.830   3.842 -0.1515  0.0038 -0.3354
  160MOL0     O21468   0.052   4.860   3.964  0.6431  0.1925 -0.3876
  160MOL0     C21469   0.175   4.815   4.007 -0.4712 -0.3871  0.0691
  160MOL0     C21470   0.295   4.849   3.934  0.2617  0.2596 -0.2211
  160MOL0     C21471   0.417   4.799   3.976 -1.0139 -0.5274 -0.2480
  160MOL0     C21472   0.432   4.723   4.098  0.2284  0.1103 -0.2987
  160MOL0     O21473   0.551   4.672   4.124 -0.2977  0.2115 -0.2205
  160MOL0     C21474   0.574   4.573   4.232  0.3263 -0.1191 -0.0332
  160MOL0     C21475   0.694   4.493   4.195 -0.9456  0.0184  0.3246
  160MOL0     C21476   0.716   4.382   4.293  0.2014  0.9740  0.4098
  160MOL0     C21477   0.813   4.279   4.255 -0.2994  0.2090 -0.1969
  160MOL0     C21478   0.757   4.197   4.145  0.3411  0.8590  0.4323
  160MOL0     C21479   0.856   4.093   4.088  0.6297  0.1737 -0.0314
  160MOL0     C21480   0.780   3.993   4.011 -0.7092 -0.2133 -0.3093
  160MOL0     C21481   0.870   3.904   3.928 -0.0191  0.9610 -0.0985
  160MOL0     N21482   0.784   3.829   3.834 -0.5348  0.4980 -0.4074
  160MOL0     C21483   0.676   3.754   3.867 -0.1806  0.0426 -1.5495
  160MOL0     C21484   0.630   3.703   3.746 -0.1382  0.1525  0.0824
  160MOL0     C21485   0.517   3.613   3.725 -0.6758  0.9693 -0.4798
  160MOL0     C21486   0.566   3.474   3.697 -0.1510  0.3938  0.5572
  160MOL0     C21487   0.512   3.355   3.789 -0.5245 -0.4178 -0.1746
  160MOL0     C21488   0.540   3.388   3.931  1.2453  0.2772  0.7862
  160MOL0     O21489   0.439   3.478   3.988 -0.0675  0.3905  0.0414
  160MOL0     C21490   0.483   3.552   4.100 -0.7487  0.2381 -0.7143
  160MOL0     C21491   0.377   3.610   4.181  0.1471 -0.3202  0.2181
  160MOL0     C21492   0.398   3.676   4.304  0.2447  0.0363  0.7906
  160MOL0     C21493   0.281   3.725   4.378 -0.2698 -0.6298  0.5576
  160MOL0     C21494   0.523   3.698   4.352 -0.7454  0.1915 -0.5902
  160MOL0     C21495   0.568   3.782   4.470  0.4940  0.9218  0.1632
  160MOL0     O21496   0.482   3.794   4.580 -0.1676  0.1477  0.1223
  160MOL0     C21497   0.544   3.848   4.692 -0.2666 -0.2714  0.8412
  160MOL0     C21498   0.462   3.918   4.787 -0.3936 -0.6822  0.1037
  160MOL0     C21499   0.504   3.963   4.911 -0.1549  0.4575 -0.0859
  160MOL0     C21500   0.646   3.942   4.950 -0.0713  1.3546  0.0417
  160MOL0     O21501   0.687   3.999   5.065 -0.2741  0.1140  0.4506
  160MOL0     C21502   0.823   4.012   5.099  0.6324 -0.2238 -0.9369
  160MOL0     C21503   0.814   3.953   5.241 -0.2616 -0.8303  0.1222
  160MOL0     C21504   0.949   3.957   5.319  0.4706  0.7312  1.2493
  160MOL0     C21505   1.059   3.884   5.244  0.6697  0.1497 -0.3549
  160MOL0     C21506   1.036   3.740   5.192 -0.0384 -0.2442 -0.2303
  160MOL0     C21507   1.000   3.653   5.313 -0.9063  0.0046  0.6690
  160MOL0     C21508   1.019   3.512   5.264  0.6962  0.1843 -0.2311
  160MOL0     C21509   1.023   3.411   5.384  0.3124 -0.0644 -0.0506
  160MOL0    Cl21510   1.174   3.429   5.492  0.0246 -0.0984 -0.4477
  160MOL0     C21511   0.719   3.855   4.872 -0.9263  0.0568  0.1570
  160MOL0     C21512   0.675   3.814   4.745  0.0285  0.0960 -0.6959
  160MOL0     O21513   0.655   3.865   4.447  1.0348  0.3569  0.1991
  160MOL0     C21514   0.634   3.652   4.264  0.6335 -0.7743 -0.7181
  160MOL0     C21515   0.613   3.572   4.150  0.0312 -0.1954  0.3408
  160MOL0     N21516   0.705   3.756   3.647 -0.4187  0.3900 -0.2046
  160MOL0     N21517   0.793   3.834   3.702  0.2826 -0.6766  0.1938
  160MOL0     C21518   0.321   4.712   4.179  0.4436  0.2407 -0.3721
  160MOL0     C21519   0.192   4.749   4.137 -0.1408  0.2111 -0.1154
  160MOL0     C21520  -0.116   4.903   3.806  0.2408  0.6430  0.7271
  160MOL0     C21521  -0.174   4.995   3.896  0.1317  1.0107 -0.3886
  160MOL0     C21522  -0.291   5.053   3.850  0.0944 -0.6207 -1.8766
  160MOL0     C21523  -0.343   5.058   3.723  0.1729 -0.1827 -0.1114
  160MOL0     O21524  -0.443   5.130   3.676 -0.1760 -0.4451 -0.2183
  160MOL0     C21525  -0.481   5.245   3.752 -0.4447 -0.0059 -0.7607
  160MOL0     C21526  -0.560   5.346   3.659 -0.3178  0.3970 -0.8735
  160MOL0     C21527  -0.689   5.280   3.597 -0.9125 -0.3860 -0.3997
  160MOL0     C21528  -0.763   5.322   3.474  0.2515 -0.5995 -0.6502
  160MOL0     C21529  -0.794   5.467   3.484  1.1926  0.5200 -0.0623
  160MOL0     C21530  -0.816   5.584   3.509  0.4181 -0.6841 -0.3395
  160MOL0     C21531  -0.286   4.969   3.640 -0.1217  0.4521 -0.8381
  160MOL0     C21532  -0.173   4.891   3.675  1.0034 -0.5300  0.4578
  160MOL0     H21533   0.279   4.908   3.844 -2.0824 -1.5431 -1.0822
  160MOL0     H21534   0.507   4.798   3.916 -0.5242 -0.4262  0.4802
  160MOL0     H21535   0.581   4.616   4.332  0.2603 -1.9696  0.8162
  160MOL0     H21536   0.485   4.508   4.239  0.0608  0.3135  0.7634
  160MOL0     H21537   0.670   4.437   4.104  1.3430 -2.1706  0.9375
  160MOL0     H21538   0.782   4.555   4.176 -0.5281 -0.1722  1.5616
  160MOL0     H21539   0.737   4.426   4.391 -0.3426  2.4808 -0.1230
  160MOL0     H21540   0.624   4.322   4.297  1.2131 -0.6043  1.2239
  160MOL0     H21541   0.914   4.308   4.223 -0.2202  0.2997  0.1236
  160MOL0     H21542   0.821   4.223   4.349  0.9446  1.3626  0.4211
  160MOL0     H21543   0.661   4.158   4.181  0.4289  1.4876  1.3932
  160MOL0     H21544   0.725   4.259   4.061  3.1405  0.8011 -0.7919
  160MOL0     H21545   0.933   4.145   4.031  0.5054 -1.1113 -1.4233
  160MOL0     H21546   0.914   4.035   4.160 -1.5061 -2.2756 -0.1414
  160MOL0     H21547   0.737   3.923   4.083  1.0077 -0.1454  0.8676
  160MOL0     H21548   0.714   4.047   3.944 -0.9754  1.0237  0.9124
  160MOL0     H21549   0.931   3.848   4.001  1.1068  1.3440 -0.7258
  160MOL0     H21550   0.943   3.960   3.870  0.9124 -0.5236 -0.4230
  160MOL0     H21551   0.638   3.718   3.962 -2.0920  0.0880 -2.2381
  160MOL0     H21552   0.439   3.613   3.802 -1.1884 -0.4657 -0.9647
  160MOL0     H21553   0.464   3.650   3.637 -1.9756  2.3964  0.8448
  160MOL0     H21554   0.674   3.474   3.707 -0.3654  1.3110  4.5349
  160MOL0     H21555   0.530   3.444   3.598 -2.2601 -0.6467  1.5540
  160MOL0     H21556   0.578   3.270   3.770 -0.4079  0.0260 -1.9250
  160MOL0     H21557   0.406   3.332   3.771 -1.4315 -3.0627  5.8774
  160MOL0     H21558   0.639   3.435   3.940  1.5211 -0.3831  1.2977
  160MOL0     H21559   0.539   3.298   3.993 -0.1419  0.3998  0.9679
  160MOL0     H21560   0.277   3.591   4.141  0.6849 -2.0442 -0.3975
  160MOL0     H21561   0.284   3.708   4.486  1.3020  3.3167  1.2978
  160MOL0     H21562   0.282   3.834   4.371  2.1932 -0.6659 -0.8173
  160MOL0     H21563   0.185   3.692   4.338  0.4537 -2.3443  0.1368
  160MOL0     H21564   0.355   3.910   4.771 -0.7552  1.4989  1.0627
  160MOL0     H21565   0.434   4.016   4.975 -0.2164 -0.9070  1.0265
  160MOL0     H21566   0.889   3.962   5.028 -0.7338 -2.6900 -0.5704
  160MOL0     H21567   0.852   4.117   5.108  2.9576 -0.8446 -0.4457
  160MOL0     H21568   0.741   4.020   5.288  0.1710 -0.9597  0.9839
  160MOL0     H21569   0.771   3.854   5.222  2.4885 -1.8895 -1.0111
  160MOL0     H21570   0.947   3.913   5.419 -0.2227 -1.4397  0.3521
  160MOL0     H21571   0.971   4.064   5.323 -3.2686  1.7625 -0.5926
  160MOL0     H21572   1.099   3.946   5.162 -1.6429  1.7895 -0.3349
  160MOL0     H21573   1.130   3.862   5.323 -2.6926 -0.0183  2.8674
  160MOL0     H21574   1.127   3.712   5.138  1.4381  2.5149  0.6604
  160MOL0     H21575   0.961   3.728   5.114  1.8674 -2.1170 -1.8958
  160MOL0     H21576   1.062   3.676   5.400 -0.8982 -1.3743  1.0529
  160MOL0     H21577   0.897   3.666   5.345 -1.2045  2.6770 -1.0411
  160MOL0     H21578   1.120   3.503   5.223  0.3215  1.3109 -1.4714
  160MOL0     H21579   0.944   3.492   5.186  1.4518  0.8464 -1.1484
  160MOL0     H21580   1.008   3.314   5.335 -1.1209  1.0229 -1.9355
  160MOL0     H21581   0.930   3.429   5.439  0.0858  0.5959 -0.6369
  160MOL0     H21582   0.816   3.822   4.909 -0.4879 -1.4336 -2.1250
  160MOL0     H21583   0.752   3.753   4.699  1.7758  1.6806  0.0255
  160MOL0     H21584   0.733   3.676   4.301  0.3994 -1.7717  0.6275
  160MOL0     H21585   0.704   3.544   4.097  0.2693  0.8716  0.1647
  160MOL0     H21586   0.324   4.667   4.277 -2.4926 -0.8696 -0.6847
  160MOL0     H21587   0.111   4.732   4.207  0.8496  2.3305  1.6596
  160MOL0     H21588  -0.162   5.000   4.004 -3.6479  2.4403  0.0932
  160MOL0     H21589  -0.335   5.102   3.937 -1.9369 -1.6335 -2.2720
  160MOL0     H21590  -0.532   5.208   3.841 -0.5732  1.0879 -0.3721
  160MOL0     H21591  -0.390   5.290   3.792 -1.6773 -0.5886  3.0820
  160MOL0     H21592  -0.492   5.364   3.575  0.3033 -4.6200 -1.7552
  160MOL0     H21593  -0.578   5.428   3.728 -2.1721 -1.1760  0.6357
  160MOL0     H21594  -0.758   5.257   3.679 -1.1317 -0.9808 -0.7481
  160MOL0     H21595  -0.656   5.182   3.561  3.6776  0.1268  1.6520
  160MOL0     H21596  -0.860   5.271   3.469 -0.0336  0.0737 -2.4632
  160MOL0     H21597  -0.692   5.295   3.395  0.7129 -1.0118 -0.1066
  160MOL0     H21598  -0.827   5.688   3.530  1.7405 -1.0065  2.4888
  160MOL0     H21599  -0.335   4.965   3.544 -2.0975  1.9872  0.0453
  160MOL0     H21600  -0.134   4.820   3.602 -0.3948 -0.3317 -0.5080
  161MOL0     O21601  10.610   4.727   0.023  0.4912 -0.4197 -0.3978
  161MOL0     C21602  10.658   4.733   0.134 -0.0456 -0.0661 -1.0985
  161MOL0     O21603  10.722   4.632   0.205  0.5655  1.0616  0.9521
  161MOL0     C21604  10.677   4.509   0.196  0.0676  0.4903 -0.4727
  161MOL0     C21605  10.557   4.477   0.260 -0.0465  0.0821  0.2448
  161MOL0     C21606  10.510   4.348   0.265 -0.0170 -0.0556 -0.5759
  161MOL0     C21607  10.580   4.239   0.207  0.2800 -0.8186  0.2654
  161MOL0     O21608  10.518   4.119   0.210  0.8455  0.3291  0.0202
  161MOL0     C21609  10.558   4.019   0.114  0.3610  0.0002  0.0803
  161MOL0     C21610  10.478   3.891   0.146 -0.6008 -0.5484 -0.5630
  161MOL0     C21611  10.522   3.829   0.280  0.5303  0.4169  1.5590
  161MOL0     C21612  10.457   3.694   0.291 -0.4739 -0.3717 -0.1924
  161MOL0     C21613  10.471   3.630   0.430 -0.7709  0.0962  0.6518
  161MOL0     C21614  10.426   3.720   0.547  0.6500  0.3947 -0.1658
  161MOL0     C21615  10.422   3.641   0.678 -0.0117  0.7156  0.5072
  161MOL0     C21616  10.551   3.571   0.708  0.7298 -0.6234 -0.0447
  161MOL0     N21617  10.560   3.506   0.843 -0.8979 -0.0926  0.4088
  161MOL0     C21618  10.618   3.388   0.886  0.7080 -0.4889  0.1923
  161MOL0     C21619  10.600   3.383   1.020  0.6175 -0.8056 -0.8041
  161MOL0     C21620  10.644   3.269   1.104 -0.1083  0.2127 -0.4907
  161MOL0     C21621  10.552   3.155   1.087 -0.5155 -0.5263  0.7815
  161MOL0     C21622  10.607   3.027   1.139  0.4583  0.5557 -0.4992
  161MOL0     C21623  10.716   2.977   1.051 -0.3280 -0.0022  0.1457
  161MOL0     O21624  10.665   2.961   0.922  0.3143 -1.3975  0.8341
  161MOL0     C21625  10.738   2.919   0.815 -0.3570 -1.0817  0.0034
  161MOL0     C21626  10.857   2.851   0.828 -0.2391 -0.7186  0.3563
  161MOL0     C21627  10.927   2.826   0.709 -0.2599  0.9247 -0.1914
  161MOL0     C21628  11.057   2.753   0.724 -0.3686  0.5706 -0.7233
  161MOL0     C21629  10.883   2.866   0.585 -0.0600  0.2157  1.1896
  161MOL0     C21630  10.962   2.846   0.447 -0.2705  0.3182 -0.2057
  161MOL0     O21631  10.945   2.948   0.355 -0.3008  0.0879 -0.2347
  161MOL0     C21632  11.023   2.946   0.242 -0.4080 -0.1354  0.4288
  161MOL0     C21633  11.156   2.908   0.245 -0.5594  0.4368 -0.1196
  161MOL0     C21634  11.240   2.923   0.135 -0.5209  0.2379  0.0081
  161MOL0     C21635  11.188   2.974   0.013  0.1912  0.0277  0.7467
  161MOL0     O21636  11.258   2.999  -0.100 -0.3680  0.2660  0.5996
  161MOL0     C21637  11.382   2.931  -0.128  0.7231  0.5470 -0.1293
  161MOL0     C21638  11.366   2.834  -0.245 -0.4032 -0.9434  0.8023
  161MOL0     C21639  11.328   2.897  -0.386  0.1844  0.4754 -0.0732
  161MOL0     C21640  11.317   2.792  -0.499 -0.3950 -0.2785 -0.6757
  161MOL0     C21641  11.267   2.867  -0.623  0.6081  0.3935 -0.1436
  161MOL0     C21642  11.282   2.768  -0.742  0.5530  0.0576  0.5096
  161MOL0     C21643  11.260   2.830  -0.881 -0.9720  0.3841 -0.9006
  161MOL0     C21644  11.346   2.772  -1.001 -0.4115  1.2118 -1.0354
  161MOL0    Cl21645  11.344   2.593  -1.009  0.1782 -0.2761  0.1462
  161MOL0     C21646  11.045   3.004   0.001  0.1681  0.7392 -0.4298
  161MOL0     C21647  10.965   2.994   0.121  0.2918 -0.0293 -0.6814
  161MOL0     O21648  11.005   2.734   0.422  0.2860 -0.6898 -0.0788
  161MOL0     C21649  10.772   2.947   0.580 -0.1103  0.0897  0.2294
  161MOL0     C21650  10.703   2.973   0.698  0.8121  0.0808  0.2316
  161MOL0     N21651  10.524   3.496   1.064 -0.6713 -0.0673  0.3163
  161MOL0     N21652  10.515   3.569   0.954  0.7464  0.0561 -0.1810
  161MOL0     C21653  10.702   4.276   0.142 -0.9730 -0.0188 -0.2070
  161MOL0     C21654  10.755   4.410   0.148 -0.3906  0.4529 -0.3367
  161MOL0     C21655  10.657   4.868   0.191 -0.2576 -0.1736  0.3683
  161MOL0     C21656  10.735   4.889   0.306 -0.2522  0.4402  0.3344
  161MOL0     C21657  10.736   5.009   0.371 -0.3442  0.5524 -0.7886
  161MOL0     C21658  10.654   5.120   0.327  0.8064  0.4833 -1.2042
  161MOL0     O21659  10.654   5.243   0.396  0.0270  0.2539  0.3059
  161MOL0     C21660  10.763   5.273   0.492 -0.1057 -0.0686  0.2867
  161MOL0     C21661  10.901   5.306   0.423 -0.9124 -0.0818  0.3540
  161MOL0     C21662  10.882   5.423   0.330 -0.2733 -0.1112  0.9148
  161MOL0     C21663  11.009   5.428   0.238  0.2269 -0.5075 -0.4437
  161MOL0     C21664  10.994   5.500   0.104  0.0256  0.7028 -0.1897
  161MOL0     C21665  10.979   5.568   0.001  0.1333 -0.9225 -0.5528
  161MOL0     C21666  10.568   5.102   0.213  0.4601 -0.3352  0.4341
  161MOL0     C21667  10.574   4.975   0.147 -0.2911  0.4194 -0.3227
  161MOL0     H21668  10.507   4.566   0.295 -0.1492  1.7505 -3.6227
  161MOL0     H21669  10.412   4.324   0.307  0.7907 -2.7072  0.0199
  161MOL0     H21670  10.536   4.052   0.012  0.7382 -3.0733 -1.0965
  161MOL0     H21671  10.666   4.002   0.124  0.5244 -0.0273 -1.4867
  161MOL0     H21672  10.370   3.909   0.145 -1.0629 -2.5673  2.0038
  161MOL0     H21673  10.504   3.823   0.065  2.4951  0.0035 -0.1710
  161MOL0     H21674  10.630   3.814   0.284  0.8241 -0.1930 -3.4513
  161MOL0     H21675  10.499   3.903   0.357  2.2561  2.9852 -0.2447
  161MOL0     H21676  10.349   3.694   0.276 -0.5307 -1.6823  0.0701
  161MOL0     H21677  10.502   3.623   0.221 -0.7367 -3.3956  2.4859
  161MOL0     H21678  10.424   3.532   0.417  0.6793 -0.7878  1.6947
  161MOL0     H21679  10.578   3.606   0.440 -0.4563  0.0245 -2.1968
  161MOL0     H21680  10.491   3.807   0.538  2.2837 -0.8863 -1.6288
  161MOL0     H21681  10.323   3.748   0.524  0.6755  0.5108 -0.1400
  161MOL0     H21682  10.400   3.712   0.758  1.1082  0.3314  1.1644
  161MOL0     H21683  10.336   3.573   0.678 -1.0074  1.8613 -1.7073
  161MOL0     H21684  10.628   3.648   0.702  1.8202 -1.4747  2.0244
  161MOL0     H21685  10.569   3.499   0.627 -0.8605 -0.7237 -0.3429
  161MOL0     H21686  10.675   3.319   0.824 -0.9920  0.2431 -2.3418
  161MOL0     H21687  10.744   3.246   1.068  0.0465  0.6739 -0.3700
  161MOL0     H21688  10.647   3.295   1.211  0.0694 -0.8759 -0.2207
  161MOL0     H21689  10.529   3.141   0.981 -1.1450 -3.5268  1.2234
  161MOL0     H21690  10.460   3.164   1.145 -0.5951 -1.0231  0.7316
  161MOL0     H21691  10.529   2.951   1.130  0.6426  0.2095  0.6613
  161MOL0     H21692  10.636   3.037   1.244  2.2847  1.4206 -1.0397
  161MOL0     H21693  10.758   2.880   1.079  2.9181  0.4066 -2.6617
  161MOL0     H21694  10.800   3.046   1.043 -1.6103  1.4295 -1.9421
  161MOL0     H21695  10.908   2.832   0.922 -0.8225  5.5338  2.3972
  161MOL0     H21696  11.131   2.788   0.796  0.0891 -1.2520 -0.2606
  161MOL0     H21697  11.039   2.648   0.751  3.2569 -0.2639 -1.0811
  161MOL0     H21698  11.107   2.747   0.627 -0.4133  0.6473 -0.7514
  161MOL0     H21699  11.195   2.860   0.335  0.8508 -1.2570 -1.5538
  161MOL0     H21700  11.346   2.900   0.147 -0.2653  1.4221  0.0962
  161MOL0     H21701  11.452   3.009  -0.157  0.3140  2.4902  3.4711
  161MOL0     H21702  11.414   2.875  -0.039 -4.5563 -1.0756  1.0703
  161MOL0     H21703  11.450   2.766  -0.265  1.8666  2.1656 -1.0564
  161MOL0     H21704  11.283   2.768  -0.217 -0.7871 -0.2900  1.2207
  161MOL0     H21705  11.412   2.967  -0.397 -1.2423  2.1991 -0.4711
  161MOL0     H21706  11.236   2.954  -0.370  0.0846 -0.2879  2.5126
  161MOL0     H21707  11.422   2.766  -0.519  1.0183  3.2667  1.1424
  161MOL0     H21708  11.260   2.701  -0.478 -0.8539  0.0554 -0.4690
  161MOL0     H21709  11.337   2.951  -0.631 -0.3139  1.1491 -0.3877
  161MOL0     H21710  11.161   2.891  -0.611 -0.3427 -2.5130 -1.5136
  161MOL0     H21711  11.384   2.730  -0.743  0.0920 -1.6125 -3.9289
  161MOL0     H21712  11.219   2.679  -0.734  2.4212 -1.5390 -1.4507
  161MOL0     H21713  11.269   2.938  -0.894 -2.5105  0.6593  0.0037
  161MOL0     H21714  11.154   2.813  -0.901 -1.7117 -4.1763  4.3022
  161MOL0     H21715  11.444   2.820  -0.995  2.4804 -4.0626  1.0015
  161MOL0     H21716  11.303   2.805  -1.095  0.2604 -0.3965 -1.9453
  161MOL0     H21717  11.000   3.029  -0.094 -0.8459  4.1832  0.7978
  161MOL0     H21718  10.862   3.027   0.121  0.6028  1.2082  2.0261
  161MOL0     H21719  10.730   2.998   0.494 -0.0133 -1.2758 -0.6437
  161MOL0     H21720  10.623   3.047   0.707 -0.2344 -1.0724  0.7254
  161MOL0     H21721  10.763   4.210   0.080 -1.9047  0.5390 -1.7903
  161MOL0     H21722  10.847   4.446   0.105  1.0896 -1.4091  1.0946
  161MOL0     H21723  10.790   4.813   0.359 -0.9907 -0.3262  0.0261
  161MOL0     H21724  10.793   5.018   0.463 -1.2865  0.7600 -0.2194
  161MOL0     H21725  10.745   5.362   0.554  2.9962  3.0144 -2.7349
  161MOL0     H21726  10.767   5.192   0.565 -0.5439 -2.5893 -2.2999
  161MOL0     H21727  10.938   5.212   0.380  0.2576  0.1626  0.8146
  161MOL0     H21728  10.978   5.340   0.492  0.5833 -2.4558 -0.0169
  161MOL0     H21729  10.881   5.517   0.385 -2.1949  0.8608 -0.6562
  161MOL0     H21730  10.797   5.404   0.264  0.6101 -5.1500  0.8596
  161MOL0     H21731  11.054   5.329   0.228  0.3167 -0.6744  1.3168
  161MOL0     H21732  11.077   5.496   0.289 -1.3482  1.1857 -0.4829
  161MOL0     H21733  10.960   5.609  -0.097 -0.3880  1.0854  0.3256
  161MOL0     H21734  10.504   5.185   0.187 -2.7763 -1.5021  3.8379
  161MOL0     H21735  10.515   4.960   0.057 -2.7064  2.1444  0.8769
  162MOL0     O21736   6.805   9.725   9.918  0.2077 -0.1601 -0.4927
  162MOL0     C21737   6.714   9.781   9.982  0.1869 -0.2464 -0.2511
  162MOL0     O21738   6.693   9.918   9.978  0.1677 -0.2834 -0.4792
  162MOL0     C21739   6.800   9.996   9.936 -0.1600 -0.7361  0.3793
  162MOL0     C21740   6.766  10.109   9.852 -0.0930 -0.4872  0.7699
  162MOL0     C21741   6.857  10.205   9.812 -0.0012 -0.0974 -0.8048
  162MOL0     C21742   6.991  10.185   9.842  0.7927 -1.0870  1.1867
  162MOL0     O21743   7.084  10.282   9.805  0.4408  0.9564  1.0283
  162MOL0     C21744   7.222  10.268   9.857  0.5049  1.5757 -0.3319
  162MOL0     C21745   7.307  10.376   9.800  0.4728  0.0444  0.1914
  162MOL0     C21746   7.377  10.335   9.666  0.9093  0.2775 -0.0270
  162MOL0     C21747   7.281  10.337   9.552 -0.4910 -0.3291  0.6123
  162MOL0     C21748   7.343  10.306   9.416 -0.8877 -0.1482  0.5700
  162MOL0     C21749   7.383  10.155   9.401  0.3041 -0.2547  0.0946
  162MOL0     C21750   7.460  10.118   9.276  0.6360  0.2655  0.1299
  162MOL0     C21751   7.411   9.978   9.232  0.8822  0.1086 -0.6578
  162MOL0     N21752   7.491   9.865   9.294 -0.3162  0.2943 -0.2910
  162MOL0     C21753   7.619   9.829   9.272 -0.4544  1.1597 -0.2357
  162MOL0     C21754   7.634   9.704   9.327  0.1282 -0.1619  0.2324
  162MOL0     C21755   7.758   9.627   9.318  0.7548 -0.3590 -0.9937
  162MOL0     C21756   7.853   9.674   9.428 -1.1377 -0.0725 -0.8628
  162MOL0     C21757   7.812   9.643   9.571  0.3400  0.5136 -0.5722
  162MOL0     C21758   7.848   9.755   9.669  0.7046  0.0495 -0.1280
  162MOL0     O21759   7.822   9.704   9.806  0.2923  0.1831  0.2101
  162MOL0     C21760   7.699   9.718   9.867 -0.1662 -1.2429 -0.0861
  162MOL0     C21761   7.575   9.770   9.802  0.1865  0.1633 -0.4525
  162MOL0     C21762   7.448   9.765   9.866  0.3335 -1.1645  0.6929
  162MOL0     C21763   7.331   9.807   9.772 -0.3778 -0.1950  0.3424
  162MOL0     C21764   7.442   9.717   9.998  0.1135 -0.5473  0.0665
  162MOL0     C21765   7.313   9.724  10.074 -0.9107 -0.3951  0.3184
  162MOL0     O21766   7.306   9.650  10.193 -0.0486 -0.7532  0.1884
  162MOL0     C21767   7.193   9.640  10.257  0.9344 -0.3129 -0.2024
  162MOL0     C21768   7.180   9.703  10.386 -0.8899 -0.8479 -0.5870
  162MOL0     C21769   7.054   9.688  10.457  0.8140 -0.8319  0.2395
  162MOL0     C21770   6.937   9.631  10.393  0.0792  0.3647  0.0794
  162MOL0     O21771   6.802   9.641  10.431 -0.4499 -0.5587 -0.9407
  162MOL0     C21772   6.771   9.605  10.573 -0.3125  0.3184 -0.5016
  162MOL0     C21773   6.626   9.646  10.609 -0.0463  0.1449  0.1729
  162MOL0     C21774   6.606   9.795  10.622  0.5758 -0.7552  0.1563
  162MOL0     C21775   6.542   9.863  10.503 -0.0619  0.6127 -0.6839
  162MOL0     C21776   6.531  10.011  10.536 -0.1817  0.4094 -0.6150
  162MOL0     C21777   6.596  10.096  10.431 -0.9346  0.4720 -0.2880
  162MOL0     C21778   6.538  10.100  10.291 -0.5634 -0.0366 -0.4124
  162MOL0     C21779   6.599  10.209  10.205  0.3500 -0.2584 -0.5162
  162MOL0    Cl21780   6.485  10.230  10.065  0.2907 -0.1527  0.4028
  162MOL0     C21781   6.955   9.572  10.263  0.3661 -0.0358  0.2043
  162MOL0     C21782   7.077   9.584  10.197 -0.0569  0.5679  0.8349
  162MOL0     O21783   7.224   9.802  10.034  0.8974  0.0641 -0.7838
  162MOL0     C21784   7.563   9.677  10.062  0.0565 -0.0781 -0.2382
  162MOL0     C21785   7.682   9.683  10.002 -0.2421 -0.6403  0.1137
  162MOL0     N21786   7.516   9.685   9.402 -0.9646  0.0365  0.1550
  162MOL0     N21787   7.430   9.779   9.374 -0.1084  0.6847  0.1094
  162MOL0     C21788   7.034  10.071   9.915  1.0660 -0.4576 -0.0161
  162MOL0     C21789   6.933   9.985   9.968  0.4182 -0.7582 -0.5781
  162MOL0     C21790   6.615   9.700  10.045 -0.6745 -0.0258 -0.3815
  162MOL0     C21791   6.498   9.756  10.091  0.3719  0.5251  0.1701
  162MOL0     C21792   6.409   9.671  10.159 -0.6219 -0.3037  0.6265
  162MOL0     C21793   6.415   9.533  10.153  0.0634  0.0579  1.2346
  162MOL0     O21794   6.334   9.429  10.207  0.4679 -0.1063 -0.8486
  162MOL0     C21795   6.279   9.463  10.336  0.7289  0.3033  0.6522
  162MOL0     C21796   6.215   9.349  10.404  0.9940  0.7000  0.3268
  162MOL0     C21797   6.310   9.229  10.429  0.4086 -0.9007 -0.4462
  162MOL0     C21798   6.434   9.253  10.509 -0.7228 -0.0600 -0.5464
  162MOL0     C21799   6.543   9.312  10.432  0.3524  0.2940  0.5517
  162MOL0     C21800   6.625   9.349  10.355  0.4897  1.0217  0.2487
  162MOL0     C21801   6.523   9.472  10.074  0.2185 -0.5723 -0.0779
  162MOL0     C21802   6.627   9.562  10.034 -0.6845 -0.4195  0.6418
  162MOL0     H21803   6.660  10.129   9.836  0.5385  4.4883  1.3860
  162MOL0     H21804   6.828  10.296   9.761 -1.7053 -0.4926 -0.5962
  162MOL0     H21805   7.218  10.266   9.966 -1.9261  0.9640 -0.3695
  162MOL0     H21806   7.257  10.171   9.821  0.9825  1.1962  1.1186
  162MOL0     H21807   7.260  10.475   9.793 -0.1819 -0.3047 -0.5821
  162MOL0     H21808   7.392  10.380   9.868  3.7481 -2.9140 -3.2952
  162MOL0     H21809   7.456  10.409   9.647  0.9473 -0.2766 -2.4110
  162MOL0     H21810   7.433  10.241   9.668 -2.2896 -1.7808  1.9866
  162MOL0     H21811   7.206  10.260   9.571 -1.0014 -0.0456 -0.1792
  162MOL0     H21812   7.230  10.434   9.547  1.5572  1.0275  3.6504
  162MOL0     H21813   7.276  10.318   9.331  0.5822 -2.2099 -0.9710
  162MOL0     H21814   7.431  10.371   9.405 -1.7933  0.8857 -0.8962
  162MOL0     H21815   7.447  10.125   9.485  1.6527 -0.1629 -0.8675
  162MOL0     H21816   7.294  10.091   9.407 -1.4805  2.0964  0.1101
  162MOL0     H21817   7.423  10.181   9.195 -3.4755 -2.5663 -0.5146
  162MOL0     H21818   7.569  10.128   9.287  0.5893  1.0248 -0.0375
  162MOL0     H21819   7.437   9.974   9.125  2.4613 -0.8127 -0.2731
  162MOL0     H21820   7.304   9.959   9.240  1.1303 -1.6037 -1.0432
  162MOL0     H21821   7.689   9.885   9.211  1.4060 -2.0496 -1.2887
  162MOL0     H21822   7.745   9.518   9.326  0.7635 -0.2306  1.4080
  162MOL0     H21823   7.808   9.643   9.222  0.0782  3.3178 -0.8583
  162MOL0     H21824   7.864   9.783   9.421 -0.1385 -0.2205 -1.8005
  162MOL0     H21825   7.955   9.637   9.414 -0.5969  1.1875 -0.4107
  162MOL0     H21826   7.873   9.562   9.612  0.2018  0.2322 -0.9208
  162MOL0     H21827   7.705   9.621   9.576  0.5233 -0.4839 -0.8424
  162MOL0     H21828   7.792   9.847   9.654 -1.0363 -1.3335 -2.9527
  162MOL0     H21829   7.953   9.781   9.654  0.3426  2.0614  0.6139
  162MOL0     H21830   7.576   9.802   9.699  1.3940  0.6039 -0.3173
  162MOL0     H21831   7.311   9.913   9.794  0.0540  0.0805 -0.5422
  162MOL0     H21832   7.365   9.797   9.669  3.9515 -0.1086  1.5600
  162MOL0     H21833   7.240   9.750   9.790 -0.5040  0.6366  2.7160
  162MOL0     H21834   7.267   9.739  10.441 -0.9721 -2.7314  0.9043
  162MOL0     H21835   7.045   9.727  10.558 -2.2469 -0.1121 -0.2180
  162MOL0     H21836   6.777   9.497  10.589 -3.3386  0.3380  1.6650
  162MOL0     H21837   6.846   9.638  10.646  0.5703  2.3745 -2.2132
  162MOL0     H21838   6.562   9.594  10.538  1.6136 -4.3068  1.6345
  162MOL0     H21839   6.607   9.608  10.709 -0.5964  3.0445  1.2747
  162MOL0     H21840   6.707   9.838  10.625 -0.3723  1.7719 -1.2346
  162MOL0     H21841   6.551   9.811  10.716 -2.5454 -2.6235 -1.1990
  162MOL0     H21842   6.605   9.840  10.417  0.1189 -0.5435 -0.2595
  162MOL0     H21843   6.437   9.833  10.498  0.0965 -0.4357  1.1548
  162MOL0     H21844   6.586  10.033  10.628 -2.4676 -0.5439  1.0545
  162MOL0     H21845   6.428  10.044  10.547  0.0123  0.3766  1.7575
  162MOL0     H21846   6.596  10.198  10.470  0.6746 -0.1343  1.3689
  162MOL0     H21847   6.700  10.063  10.434 -1.4835 -1.4298  3.4214
  162MOL0     H21848   6.430  10.115  10.291 -0.3300  1.9528  1.0448
  162MOL0     H21849   6.575  10.009  10.241  1.6472  0.6730 -0.1534
  162MOL0     H21850   6.693  10.172  10.163 -0.2068  0.8361 -2.8922
  162MOL0     H21851   6.591  10.301  10.264 -1.4545  0.0246 -1.1390
  162MOL0     H21852   6.869   9.515  10.229 -0.1787 -1.9769  4.2342
  162MOL0     H21853   7.082   9.557  10.092 -2.0441 -1.7508  1.2328
  162MOL0     H21854   7.560   9.641  10.164  1.3888 -1.8374 -0.7621
  162MOL0     H21855   7.760   9.655  10.072 -0.7459  3.7206  2.8048
  162MOL0     H21856   7.137  10.049   9.944  1.3664 -0.3779 -1.0013
  162MOL0     H21857   6.973   9.911  10.036 -1.1964 -0.4283  0.8013
  162MOL0     H21858   6.490   9.864  10.083  0.0922  0.5547  0.7783
  162MOL0     H21859   6.321   9.726  10.192  0.0621 -0.2060  2.3480
  162MOL0     H21860   6.355   9.490  10.410 -0.8503  0.0401  2.4677
  162MOL0     H21861   6.202   9.538  10.317 -0.2237  0.4058  4.2228
  162MOL0     H21862   6.137   9.315  10.335  1.1068 -0.7253  0.8792
  162MOL0     H21863   6.177   9.385  10.500  0.3874  0.2560  0.2548
  162MOL0     H21864   6.337   9.172  10.340 -1.8442  0.6547 -2.2381
  162MOL0     H21865   6.251   9.148  10.472  0.4462 -1.0373 -0.6509
  162MOL0     H21866   6.460   9.153  10.546  0.2039 -0.6355 -2.5847
  162MOL0     H21867   6.414   9.309  10.600 -2.3969 -1.3837 -0.0453
  162MOL0     H21868   6.690   9.385  10.278 -3.0467  4.4726 -1.4630
  162MOL0     H21869   6.517   9.366  10.054 -1.0548 -0.0866 -2.6854
  162MOL0     H21870   6.713   9.521   9.984  0.4171  0.6185  1.5989
  163MOL0     O21871   0.037   4.209  11.367  0.5637 -0.1618  0.6542
  163MOL0     C21872   0.117   4.284  11.423 -0.0890  0.0182  1.2456
  163MOL0     O21873   0.203   4.375  11.361  0.3042  0.0690 -0.8396
  163MOL0     C21874   0.202   4.406  11.224 -0.3003  0.2973 -0.7513
  163MOL0     C21875   0.137   4.336  11.119 -0.2319 -0.0811 -0.3111
  163MOL0     C21876   0.134   4.386  10.986  0.5508 -0.1180 -0.2955
  163MOL0     C21877   0.195   4.510  10.954  0.6367 -0.9806 -0.8042
  163MOL0     O21878   0.207   4.561  10.825  0.4131 -0.1365 -0.3962
  163MOL0     C21879   0.149   4.480  10.719 -0.5958  0.5227 -0.5514
  163MOL0     C21880  -0.001   4.498  10.697 -0.2769  0.8279 -0.1119
  163MOL0     C21881  -0.041   4.640  10.653 -0.2142  0.5885 -0.0076
  163MOL0     C21882  -0.175   4.645  10.575  0.8369  0.9709 -0.2002
  163MOL0     C21883  -0.287   4.687  10.668 -0.6238  0.3432 -0.2314
  163MOL0     C21884  -0.428   4.670  10.613  0.2254 -0.0456  0.7279
  163MOL0     C21885  -0.535   4.739  10.710 -0.6189  0.0482  0.9690
  163MOL0     C21886  -0.575   4.671  10.842  0.0681  0.1763  0.6287
  163MOL0     N21887  -0.672   4.754  10.919 -0.7478  0.7862 -1.0597
  163MOL0     C21888  -0.771   4.701  10.998  0.6073  0.3183  0.8295
  163MOL0     C21889  -0.824   4.808  11.052 -0.0892  0.6983 -0.9657
  163MOL0     C21890  -0.936   4.815  11.159  0.3748 -0.1942  0.0943
  163MOL0     C21891  -1.040   4.706  11.147 -0.9285 -0.1759 -0.1549
  163MOL0     C21892  -1.167   4.735  11.229  0.6148 -0.0708 -0.6433
  163MOL0     C21893  -1.237   4.625  11.305  0.0139 -0.8242  0.5270
  163MOL0     O21894  -1.365   4.660  11.360  0.0673  0.4670  0.0037
  163MOL0     C21895  -1.376   4.734  11.478 -0.0627  1.2589  0.0180
  163MOL0     C21896  -1.278   4.748  11.578 -0.7344 -0.5796 -1.1702
  163MOL0     C21897  -1.325   4.798  11.712 -0.2993 -0.2473 -0.4884
  163MOL0     C21898  -1.233   4.778  11.831 -0.0616 -0.6096 -0.3051
  163MOL0     C21899  -1.462   4.843  11.723  0.2056  0.5361 -0.1200
  163MOL0     C21900  -1.510   4.896  11.852  0.1602  0.6750 -0.5354
  163MOL0     O21901  -1.492   5.033  11.873 -0.4136  0.8057 -0.6293
  163MOL0     C21902  -1.559   5.078  11.992  0.6337 -0.8572 -0.2911
  163MOL0     C21903  -1.701   5.098  12.002 -0.2102  0.4527  0.0474
  163MOL0     C21904  -1.758   5.138  12.125  0.2058  0.3704  0.6761
  163MOL0     C21905  -1.683   5.169  12.241 -0.0262 -0.0461  0.4503
  163MOL0     O21906  -1.747   5.218  12.345 -0.6064  0.3019  0.8699
  163MOL0     C21907  -1.685   5.203  12.471  0.6889 -0.4236  0.0063
  163MOL0     C21908  -1.781   5.262  12.573  0.4777  0.3431  0.1651
  163MOL0     C21909  -1.828   5.404  12.541 -0.1048  0.0073 -0.3142
  163MOL0     C21910  -1.915   5.445  12.670  0.4679  0.5314  0.0585
  163MOL0     C21911  -1.972   5.588  12.635  0.3002  0.0348  0.0001
  163MOL0     C21912  -1.869   5.694  12.675 -0.3816  0.5044 -0.1821
  163MOL0     C21913  -1.924   5.831  12.628  0.6413  0.0718 -0.1082
  163MOL0     C21914  -1.943   5.934  12.740  0.7901 -0.7612  0.8484
  163MOL0    Cl21915  -1.772   5.946  12.802  0.0275  0.3878  0.4914
  163MOL0     C21916  -1.547   5.152  12.228  0.6640 -0.1207 -0.6870
  163MOL0     C21917  -1.490   5.105  12.111  0.1308 -0.5663 -0.6174
  163MOL0     O21918  -1.539   4.814  11.934  0.6576  0.0958 -0.9846
  163MOL0     C21919  -1.549   4.832  11.622 -0.4666  0.5214 -1.6776
  163MOL0     C21920  -1.508   4.769  11.506  0.3250  0.2157  0.4744
  163MOL0     N21921  -0.749   4.923  11.019 -0.2620  0.4032  0.8728
  163MOL0     N21922  -0.649   4.884  10.944 -0.7429 -0.7961 -0.6862
  163MOL0     C21923   0.264   4.570  11.059 -0.8566 -0.1003 -0.1902
  163MOL0     C21924   0.260   4.531  11.191  0.4485  0.5375 -0.6935
  163MOL0     C21925   0.135   4.252  11.569  0.8870  0.2755  1.2313
  163MOL0     C21926   0.241   4.291  11.646  0.0565 -0.1149  1.1987
  163MOL0     C21927   0.252   4.253  11.777  1.1146 -0.8207 -0.2604
  163MOL0     C21928   0.147   4.175  11.839  0.3454  0.8745 -0.0101
  163MOL0     O21929   0.141   4.135  11.968  0.6548  0.2929 -0.0283
  163MOL0     C21930   0.239   4.191  12.061  0.3539  0.0547  0.8366
  163MOL0     C21931   0.221   4.142  12.211  0.3708  0.4329 -0.4929
  163MOL0     C21932   0.075   4.169  12.253  0.5121  0.1028 -0.8546
  163MOL0     C21933   0.069   4.141  12.406 -0.0448 -0.3393 -0.1760
  163MOL0     C21934   0.079   3.997  12.433  0.4640 -0.8216  0.8986
  163MOL0     C21935   0.075   3.875  12.440  0.1945 -0.9443 -0.4024
  163MOL0     C21936   0.042   4.129  11.757  0.0456  0.2099 -0.0051
  163MOL0     C21937   0.036   4.164  11.627  0.3616  0.1289  0.4682
  163MOL0     H21938   0.092   4.237  11.131 -1.3677  0.3979 -0.5034
  163MOL0     H21939   0.064   4.325  10.928 -0.3320 -1.6928  2.2505
  163MOL0     H21940   0.215   4.503  10.634  1.9000  0.3752  1.2255
  163MOL0     H21941   0.177   4.374  10.722  0.9341  0.9065  1.0086
  163MOL0     H21942  -0.034   4.425  10.623  0.4286  1.2418 -0.8424
  163MOL0     H21943  -0.041   4.494  10.799 -0.3575  2.4436 -0.0502
  163MOL0     H21944  -0.050   4.704  10.741 -1.1015 -2.1265  2.0279
  163MOL0     H21945   0.043   4.679  10.595  1.2628 -0.9371  0.9778
  163MOL0     H21946  -0.160   4.718  10.495 -1.1609  0.8905 -0.6875
  163MOL0     H21947  -0.194   4.546  10.533  2.6770 -0.7918  2.7957
  163MOL0     H21948  -0.274   4.629  10.760  1.0540  1.3714  0.2328
  163MOL0     H21949  -0.259   4.785  10.708 -0.2963 -1.2428  3.9398
  163MOL0     H21950  -0.439   4.725  10.519 -2.5385  0.3920  1.2224
  163MOL0     H21951  -0.444   4.563  10.603 -0.1179 -0.1481  2.2173
  163MOL0     H21952  -0.505   4.843  10.727 -1.7333  0.4205  0.7321
  163MOL0     H21953  -0.624   4.759  10.649  0.5987 -0.7352 -1.1529
  163MOL0     H21954  -0.479   4.666  10.894  1.0647  2.5005 -0.8270
  163MOL0     H21955  -0.618   4.573  10.817 -0.6789 -0.1459  2.9688
  163MOL0     H21956  -0.802   4.598  11.008  2.4953 -0.2488  1.2805
  163MOL0     H21957  -0.882   4.809  11.254  0.9635  2.2570 -0.0199
  163MOL0     H21958  -0.975   4.914  11.136 -0.7183 -0.7604 -0.5522
  163MOL0     H21959  -0.980   4.624  11.186  2.4186  2.7053  1.3362
  163MOL0     H21960  -1.063   4.676  11.044 -2.4522  3.3446 -1.0222
  163MOL0     H21961  -1.238   4.781  11.159 -0.1019 -0.2065 -0.0209
  163MOL0     H21962  -1.148   4.814  11.303  1.2382 -1.0506  0.2748
  163MOL0     H21963  -1.174   4.585  11.385 -1.8930  0.6839  2.9334
  163MOL0     H21964  -1.254   4.538  11.241 -0.4868  0.1444 -0.6951
  163MOL0     H21965  -1.178   4.707  11.564 -0.6697 -1.7130  1.9063
  163MOL0     H21966  -1.282   4.821  11.918  1.8360  0.2856  0.3888
  163MOL0     H21967  -1.222   4.671  11.850  0.7119 -0.4204  0.3966
  163MOL0     H21968  -1.144   4.843  11.829 -1.6260  1.6455 -2.0114
  163MOL0     H21969  -1.762   5.074  11.915 -2.1463  1.2481  1.1222
  163MOL0     H21970  -1.864   5.158  12.113  0.6087  1.9328 -0.7341
  163MOL0     H21971  -1.665   5.096  12.483 -0.1528 -0.3674  2.1762
  163MOL0     H21972  -1.591   5.257  12.489  0.1441 -0.2077  2.5632
  163MOL0     H21973  -1.872   5.202  12.560 -0.4294  2.2088 -3.0772
  163MOL0     H21974  -1.745   5.252  12.676 -1.1635 -0.0695  0.7333
  163MOL0     H21975  -1.885   5.399  12.448 -1.4193  1.5281  0.3669
  163MOL0     H21976  -1.750   5.478  12.522  0.0534  0.6911  2.6137
  163MOL0     H21977  -1.987   5.369  12.702  0.4162  0.5478 -0.0171
  163MOL0     H21978  -1.849   5.461  12.756 -2.8628 -0.6920  3.0848
  163MOL0     H21979  -2.050   5.594  12.712  2.0304 -1.6356  2.0070
  163MOL0     H21980  -2.007   5.600  12.532 -1.0627 -0.5513  0.3767
  163MOL0     H21981  -1.851   5.694  12.783  0.7750  2.6962 -0.3156
  163MOL0     H21982  -1.775   5.669  12.624 -0.0999  0.3316  0.4101
  163MOL0     H21983  -2.016   5.820  12.569  1.2032 -1.8404 -0.7110
  163MOL0     H21984  -1.851   5.865  12.553 -0.3728  1.6065 -0.4571
  163MOL0     H21985  -2.012   5.899  12.816 -3.6211 -0.7008 -2.7208
  163MOL0     H21986  -1.963   6.039  12.716  0.7346  0.4736  5.4731
  163MOL0     H21987  -1.482   5.184  12.309  1.9573 -3.7709 -0.1193
  163MOL0     H21988  -1.382   5.099  12.110  0.2431  0.8872 -2.7813
  163MOL0     H21989  -1.653   4.860  11.629 -1.0069 -1.4638 -1.0336
  163MOL0     H21990  -1.590   4.745  11.439  0.1444 -0.8310  1.0572
  163MOL0     H21991   0.338   4.645  11.031 -0.2370 -1.4234 -2.3417
  163MOL0     H21992   0.300   4.594  11.269 -0.6078  1.2442 -0.7043
  163MOL0     H21993   0.316   4.353  11.599 -2.0410  1.0324 -0.8924
  163MOL0     H21994   0.337   4.274  11.841  0.4683 -2.1474  1.0864
  163MOL0     H21995   0.334   4.150  12.026 -0.8145 -0.1648 -2.3493
  163MOL0     H21996   0.248   4.299  12.048 -2.9989  0.5275  1.5259
  163MOL0     H21997   0.285   4.201  12.278  2.3230 -0.6892 -1.2722
  163MOL0     H21998   0.233   4.035  12.227 -1.8479  0.3273  0.8824
  163MOL0     H21999   0.016   4.096  12.197  2.0306 -0.4481 -1.8056
  163MOL0     H22000   0.049   4.274  12.240 -1.5989 -0.6724 -4.0332
  163MOL0     H22001  -0.025   4.188  12.438  1.2246  1.7573  0.7386
  163MOL0     H22002   0.151   4.192  12.459 -0.5439 -1.4382  1.7720
  163MOL0     H22003   0.082   3.771  12.464 -0.9092 -1.0115 -0.3278
  163MOL0     H22004  -0.039   4.068  11.796 -0.6706  1.7960  1.0931
  163MOL0     H22005  -0.044   4.116  11.573  1.1612  0.9099 -1.4825
  164MOL0     O22006  11.029   3.542   6.805  0.5439 -0.4282 -0.1994
  164MOL0     C22007  10.990   3.425   6.844 -0.3090 -0.4685  0.2743
  164MOL0     O22008  10.967   3.322   6.751 -0.1707  0.3161 -0.8165
  164MOL0     C22009  11.001   3.326   6.620 -0.0047  0.7766 -0.2756
  164MOL0     C22010  11.137   3.360   6.569  0.3917  0.4433 -0.2693
  164MOL0     C22011  11.159   3.357   6.429 -0.0170 -0.3684  0.2347
  164MOL0     C22012  11.056   3.324   6.344  0.1807 -0.0172  0.5668
  164MOL0     O22013  11.084   3.333   6.213  0.7087 -0.6124 -0.5132
  164MOL0     C22014  11.122   3.203   6.166 -0.4241  0.6813  0.5049
  164MOL0     C22015  11.166   3.221   6.023 -0.2289  0.5655  0.9567
  164MOL0     C22016  11.067   3.283   5.940  0.1321 -1.1949 -0.5749
  164MOL0     C22017  11.097   3.271   5.787 -0.6946 -0.7013 -0.0067
  164MOL0     C22018  10.982   3.349   5.714  0.1240 -0.0814  0.5978
  164MOL0     C22019  11.007   3.343   5.563  1.0335 -0.4369 -0.4790
  164MOL0     C22020  10.880   3.399   5.494 -0.1803  0.0324  0.7004
  164MOL0     C22021  10.890   3.398   5.344  0.4224 -0.5731 -0.4590
  164MOL0     N22022  10.880   3.267   5.273 -0.4359  0.5160  0.3436
  164MOL0     C22023  10.767   3.199   5.227  0.0571 -0.5684  0.1929
  164MOL0     C22024  10.809   3.088   5.176 -1.4861  0.7960 -0.6411
  164MOL0     C22025  10.731   2.989   5.118  0.3773 -0.3901  0.3542
  164MOL0     C22026  10.732   3.001   4.967 -0.8805 -0.0445 -0.6124
  164MOL0     C22027  10.656   2.884   4.892 -0.8625  0.0185 -0.6734
  164MOL0     C22028  10.670   2.900   4.739 -0.2428 -0.1665 -1.0887
  164MOL0     O22029  10.796   2.843   4.713  0.2577  0.0038  0.2094
  164MOL0     C22030  10.795   2.750   4.613 -0.4684  0.5915 -0.6896
  164MOL0     C22031  10.739   2.628   4.646 -0.5160 -0.1290 -0.2056
  164MOL0     C22032  10.735   2.523   4.550  0.7028  0.5453  0.5311
  164MOL0     C22033  10.664   2.397   4.596 -0.6358  0.2599 -0.5088
  164MOL0     C22034  10.796   2.543   4.422 -0.0109  0.0473  1.0011
  164MOL0     C22035  10.815   2.439   4.315  0.2376 -0.5433  0.8162
  164MOL0     O22036  10.886   2.479   4.205  0.5983 -0.5731 -0.1923
  164MOL0     C22037  10.950   2.396   4.111  0.1599 -0.0286 -1.3749
  164MOL0     C22038  11.014   2.453   4.002 -0.4475  0.0197  1.3053
  164MOL0     C22039  11.091   2.371   3.918 -0.0284 -0.3280 -0.1351
  164MOL0     C22040  11.105   2.238   3.938 -1.0302  1.1170 -0.1569
  164MOL0     O22041  11.174   2.168   3.850  0.2826  0.4812  0.5427
  164MOL0     C22042  11.198   2.027   3.862  0.2562 -0.4341 -0.1238
  164MOL0     C22043  11.311   1.992   3.959 -0.3598 -0.1170  0.0768
  164MOL0     C22044  11.330   1.838   3.943  0.2425  0.5492  0.6805
  164MOL0     C22045  11.242   1.768   4.060 -0.3916  0.6925 -1.0356
  164MOL0     C22046  11.281   1.617   4.079  0.1791 -0.5239  0.0310
  164MOL0     C22047  11.176   1.545   4.153 -0.0055  0.4635 -0.2259
  164MOL0     C22048  11.146   1.583   4.293 -0.5408  0.5125 -0.0337
  164MOL0     C22049  11.274   1.594   4.380  0.4919 -0.5558  0.0791
  164MOL0    Cl22050  11.371   1.444   4.370 -0.0810  0.4895 -0.6218
  164MOL0     C22051  11.034   2.177   4.042 -0.7793 -0.4830  0.1828
  164MOL0     C22052  10.959   2.257   4.125 -0.5850 -0.3205 -0.5759
  164MOL0     O22053  10.748   2.340   4.326 -0.0101  0.3415 -0.0503
  164MOL0     C22054  10.845   2.671   4.395 -0.0498  0.7871  0.1301
  164MOL0     C22055  10.850   2.770   4.487  0.2698 -0.4017  0.2318
  164MOL0     N22056  10.943   3.089   5.180  0.2045  0.0863 -0.2316
  164MOL0     N22057  10.985   3.192   5.236  0.4374 -0.2228  0.5789
  164MOL0     C22058  10.931   3.283   6.395 -1.2133  0.1377 -0.0055
  164MOL0     C22059  10.905   3.280   6.527  0.8043 -0.6201 -0.5783
  164MOL0     C22060  10.969   3.397   6.993  0.0137 -0.5197  0.0896
  164MOL0     C22061  10.933   3.265   7.034 -0.9114 -0.8724  0.6769
  164MOL0     C22062  10.936   3.239   7.175  0.6909  0.4156 -0.0834
  164MOL0     C22063  10.940   3.344   7.264  0.0255  0.1076  0.3790
  164MOL0     O22064  10.930   3.338   7.406 -0.9137  0.4018  0.2495
  164MOL0     C22065  10.810   3.283   7.470 -0.4050 -0.8271 -0.3919
  164MOL0     C22066  10.684   3.361   7.435 -0.2664 -0.2556 -0.4102
  164MOL0     C22067  10.711   3.499   7.503 -0.2300  0.8315  0.1594
  164MOL0     C22068  10.633   3.501   7.632 -0.0762 -0.8913 -0.2049
  164MOL0     C22069  10.601   3.636   7.662 -0.0496 -0.4379  0.3612
  164MOL0     C22070  10.581   3.754   7.682  0.2702  0.0599  0.0888
  164MOL0     C22071  10.968   3.470   7.220  0.5949  0.7478  0.3750
  164MOL0     C22072  10.978   3.501   7.082  0.1919  0.2591 -0.4083
  164MOL0     H22073  11.219   3.387   6.635 -0.0463 -2.9859  1.8995
  164MOL0     H22074  11.239   3.405   6.374 -2.2373  2.8429 -0.4627
  164MOL0     H22075  11.194   3.155   6.233 -0.3723 -3.3895 -2.0700
  164MOL0     H22076  11.055   3.116   6.170  0.3513  0.0180 -0.5128
  164MOL0     H22077  11.253   3.287   6.015  0.5981 -0.7254 -3.3858
  164MOL0     H22078  11.192   3.124   5.979  2.3128  2.8932 -3.3393
  164MOL0     H22079  10.973   3.228   5.941 -1.3982  1.2766  0.0996
  164MOL0     H22080  11.053   3.384   5.979 -1.3144 -1.6737  0.2018
  164MOL0     H22081  11.196   3.306   5.759 -1.7127 -0.0732 -3.2959
  164MOL0     H22082  11.086   3.163   5.775  0.8571 -0.8148 -0.6450
  164MOL0     H22083  10.883   3.303   5.722 -0.5520  0.7247 -2.0941
  164MOL0     H22084  10.974   3.455   5.738 -2.0669 -0.1230  0.3127
  164MOL0     H22085  11.106   3.383   5.538  0.5022  0.8068 -0.6307
  164MOL0     H22086  11.011   3.235   5.545  3.1042 -0.9963  2.6010
  164MOL0     H22087  10.786   3.346   5.515 -1.4057  2.4167  1.6088
  164MOL0     H22088  10.854   3.491   5.547  0.5630 -0.0653  1.2590
  164MOL0     H22089  10.978   3.459   5.324  0.8134 -0.5702  1.1412
  164MOL0     H22090  10.807   3.459   5.307 -1.9346 -1.4943  2.8103
  164MOL0     H22091  10.667   3.241   5.232 -0.7895 -1.8936 -2.9125
  164MOL0     H22092  10.784   2.899   5.149 -2.9395 -1.4164  3.8011
  164MOL0     H22093  10.630   2.997   5.160  1.3015  0.0189  2.6977
  164MOL0     H22094  10.838   3.015   4.941 -1.0119 -1.8056 -2.2888
  164MOL0     H22095  10.689   3.098   4.941  1.9063  1.5797  0.2644
  164MOL0     H22096  10.548   2.876   4.909 -1.1865  0.9957 -2.0743
  164MOL0     H22097  10.705   2.787   4.903  1.4036  0.7641 -3.2539
  164MOL0     H22098  10.674   3.005   4.710  2.6339 -0.0724 -0.7028
  164MOL0     H22099  10.586   2.859   4.683  0.0414  0.3019 -1.8628
  164MOL0     H22100  10.697   2.604   4.743  0.1152  0.0435  0.1157
  164MOL0     H22101  10.658   2.395   4.706  2.4212  1.0610 -0.2558
  164MOL0     H22102  10.562   2.409   4.558 -1.8062 -3.2865  1.0091
  164MOL0     H22103  10.717   2.306   4.567  1.1865  1.2752 -0.4574
  164MOL0     H22104  10.990   2.555   3.971 -2.7569 -0.9359 -0.3967
  164MOL0     H22105  11.134   2.415   3.829  1.0206  0.2545  0.6422
  164MOL0     H22106  11.110   1.965   3.882  1.6076 -2.4786 -0.2253
  164MOL0     H22107  11.241   1.998   3.765 -2.9040 -0.0211 -1.7707
  164MOL0     H22108  11.406   2.038   3.928  1.7786 -2.9620  1.9501
  164MOL0     H22109  11.283   2.024   4.060 -1.6536 -1.5266  0.1908
  164MOL0     H22110  11.436   1.817   3.956  0.5920 -1.8525 -3.9409
  164MOL0     H22111  11.302   1.784   3.852  1.1667 -1.1155  1.3517
  164MOL0     H22112  11.260   1.832   4.147 -3.7252  0.5768 -0.1028
  164MOL0     H22113  11.142   1.790   4.022  0.5121  1.1519 -3.3475
  164MOL0     H22114  11.378   1.610   4.128 -0.0089  0.0769  0.5020
  164MOL0     H22115  11.289   1.565   3.983  0.2510 -1.9223  0.7639
  164MOL0     H22116  11.081   1.567   4.103  1.1187  0.4294 -2.5134
  164MOL0     H22117  11.188   1.436   4.155 -0.0135  0.2743  5.5069
  164MOL0     H22118  11.082   1.504   4.333 -0.4409 -1.2408 -2.9790
  164MOL0     H22119  11.098   1.680   4.304 -0.7713  0.4704 -0.6284
  164MOL0     H22120  11.240   1.607   4.483  0.3201 -0.9333  0.0743
  164MOL0     H22121  11.335   1.680   4.352 -1.8231  0.1024 -3.5911
  164MOL0     H22122  11.038   2.070   4.056  1.8325 -0.6293 -1.2044
  164MOL0     H22123  10.907   2.217   4.211 -1.5567  1.2463 -0.3935
  164MOL0     H22124  10.891   2.694   4.299 -1.3051  1.3365 -0.3575
  164MOL0     H22125  10.889   2.867   4.459 -0.2706 -0.1091  0.4787
  164MOL0     H22126  10.848   3.267   6.328 -3.1934  0.1527  2.3178
  164MOL0     H22127  10.811   3.240   6.566  0.3534  0.7627 -0.2165
  164MOL0     H22128  10.909   3.186   6.965 -4.7634  0.6673  0.0136
  164MOL0     H22129  10.931   3.136   7.210  1.5691  0.5028  0.3342
  164MOL0     H22130  10.792   3.181   7.435 -1.4063 -1.0822  0.7901
  164MOL0     H22131  10.811   3.273   7.579 -1.2905 -1.2997 -0.4094
  164MOL0     H22132  10.597   3.306   7.474  0.4259 -1.4335 -0.4787
  164MOL0     H22133  10.676   3.377   7.327 -3.5137  1.4023 -0.0404
  164MOL0     H22134  10.670   3.583   7.447 -1.1254  1.8271  2.2042
  164MOL0     H22135  10.820   3.503   7.516  0.1228 -0.3123 -2.0187
  164MOL0     H22136  10.690   3.461   7.717 -1.2179 -1.6483  0.2221
  164MOL0     H22137  10.537   3.449   7.636 -0.8972  0.4804 -1.1296
  164MOL0     H22138  10.572   3.860   7.693 -1.6073 -0.0263 -0.3102
  164MOL0     H22139  10.976   3.551   7.291 -3.1170  1.8795 -0.3160
  164MOL0     H22140  11.020   3.599   7.059  0.6817  1.0462  3.2203
  165MOL0     O22141   0.078   8.034   3.312  0.4462  0.7423  0.4366
  165MOL0     C22142   0.153   8.122   3.350  0.2291 -0.7415  0.4091
  165MOL0     O22143   0.200   8.222   3.269  0.4857 -0.4209  0.2040
  165MOL0     C22144   0.163   8.211   3.140  0.0658 -0.6051 -0.0094
  165MOL0     C22145   0.064   8.291   3.088 -0.3782 -0.1686 -0.4728
  165MOL0     C22146   0.031   8.279   2.957  0.0824  0.5678 -0.6052
  165MOL0     C22147   0.095   8.184   2.870 -0.4050 -0.8102 -0.4018
  165MOL0     O22148   0.045   8.167   2.742  0.2975  0.5518 -0.1749
  165MOL0     C22149   0.149   8.178   2.639 -0.2071 -0.1221 -1.3021
  165MOL0     C22150   0.074   8.196   2.507  0.0671 -0.4538 -0.6175
  165MOL0     C22151   0.082   8.068   2.417 -0.2905 -0.4759  0.3172
  165MOL0     C22152   0.018   8.078   2.279  0.0357  0.5154  0.1743
  165MOL0     C22153  -0.134   8.114   2.282 -0.8430  0.3018  0.2417
  165MOL0     C22154  -0.205   8.070   2.152  0.8546  0.0297 -0.0324
  165MOL0     C22155  -0.260   8.190   2.077 -0.3589  0.5704 -0.9545
  165MOL0     C22156  -0.330   8.134   1.949 -0.0147  0.7587  0.4393
  165MOL0     N22157  -0.442   8.047   1.950 -0.3447 -0.0267 -0.1677
  165MOL0     C22158  -0.547   8.036   2.036  0.0129  0.4675 -0.7887
  165MOL0     C22159  -0.603   7.914   2.013  0.1319  0.2560  0.4643
  165MOL0     C22160  -0.711   7.852   2.096 -0.0914  0.2644  0.6201
  165MOL0     C22161  -0.729   7.701   2.086  0.7234  0.2753 -0.1681
  165MOL0     C22162  -0.817   7.667   1.963 -0.0561 -0.0172 -0.1001
  165MOL0     C22163  -0.826   7.512   1.934 -0.9531  0.3885 -0.1121
  165MOL0     O22164  -0.901   7.492   1.809  0.7578  0.3866  0.2508
  165MOL0     C22165  -1.035   7.458   1.819  0.7711 -0.2506  1.0511
  165MOL0     C22166  -1.127   7.543   1.873  0.4316 -0.5288 -0.1430
  165MOL0     C22167  -1.265   7.514   1.879 -0.0930  0.7122  0.3208
  165MOL0     C22168  -1.351   7.621   1.941 -0.9738  0.6438  0.2855
  165MOL0     C22169  -1.313   7.392   1.827  0.0217  0.3037 -1.1715
  165MOL0     C22170  -1.457   7.356   1.837 -0.5507  0.4090  0.3771
  165MOL0     O22171  -1.512   7.356   1.959  0.1498  0.1207 -0.1971
  165MOL0     C22172  -1.650   7.326   1.963 -0.2917 -0.1640 -0.5900
  165MOL0     C22173  -1.749   7.421   1.962 -0.3232 -0.1363  0.4792
  165MOL0     C22174  -1.885   7.386   1.947 -0.0874  0.4076  0.3751
  165MOL0     C22175  -1.922   7.257   1.924 -0.3872 -0.1360  0.2309
  165MOL0     O22176  -2.052   7.208   1.916 -0.3628  0.5730 -0.2676
  165MOL0     C22177  -2.159   7.271   1.982 -1.0258 -1.1449  0.0233
  165MOL0     C22178  -2.182   7.187   2.111  0.1675  0.1710 -0.2423
  165MOL0     C22179  -2.278   7.269   2.203  0.0328 -0.2022 -0.2780
  165MOL0     C22180  -2.324   7.185   2.317  0.0231 -0.0210  0.2833
  165MOL0     C22181  -2.411   7.295   2.406  0.3080 -0.6850  0.1179
  165MOL0     C22182  -2.433   7.252   2.552 -0.5108  0.0364  0.4132
  165MOL0     C22183  -2.300   7.270   2.623 -0.0206  0.6959  0.2823
  165MOL0     C22184  -2.266   7.142   2.701 -0.8978  0.5566 -1.1150
  165MOL0    Cl22185  -2.122   7.171   2.799  0.2462  0.2173  0.0293
  165MOL0     C22186  -1.822   7.157   1.926 -0.1094  0.6280  0.1629
  165MOL0     C22187  -1.688   7.188   1.949 -0.0703 -0.3613  0.1912
  165MOL0     O22188  -1.513   7.311   1.731 -0.5267 -0.1073 -0.2887
  165MOL0     C22189  -1.218   7.303   1.776 -0.2270  0.3600 -0.6853
  165MOL0     C22190  -1.085   7.337   1.761 -1.0150 -0.5773  0.4156
  165MOL0     N22191  -0.536   7.853   1.909 -0.2602 -0.8269 -0.2009
  165MOL0     N22192  -0.442   7.933   1.879 -0.2074  0.0759  0.4544
  165MOL0     C22193   0.181   8.091   2.930 -0.6631  0.3346 -0.4274
  165MOL0     C22194   0.214   8.107   3.064 -0.7473 -1.1595  0.6783
  165MOL0     C22195   0.168   8.140   3.498  0.9265 -0.1093  0.3737
  165MOL0     C22196   0.111   8.047   3.589  0.4951 -0.6547  0.1534
  165MOL0     C22197   0.118   8.069   3.728  0.3003  0.2073  0.2406
  165MOL0     C22198   0.190   8.175   3.785  0.1085 -0.5373 -0.3584
  165MOL0     O22199   0.191   8.192   3.923  0.4360 -0.0125 -0.3225
  165MOL0     C22200   0.082   8.259   3.987 -0.0187 -0.2116 -0.2556
  165MOL0     C22201   0.082   8.221   4.135 -0.1041 -0.4509 -0.6774
  165MOL0     C22202  -0.030   8.282   4.221 -0.2119  0.2589  0.6968
  165MOL0     C22203   0.002   8.425   4.245 -0.2013 -0.3425 -0.7884
  165MOL0     C22204  -0.094   8.483   4.339  0.1515 -1.1067 -0.1477
  165MOL0     C22205  -0.168   8.546   4.422  0.5695 -0.1138 -0.1269
  165MOL0     C22206   0.261   8.256   3.696  0.2093  0.2474 -0.8367
  165MOL0     C22207   0.240   8.248   3.558 -0.7448 -0.4691 -0.1921
  165MOL0     H22208   0.016   8.360   3.157 -4.8620 -2.6785 -0.7130
  165MOL0     H22209  -0.033   8.353   2.910  0.0501 -0.0633 -1.5824
  165MOL0     H22210   0.220   8.258   2.663  1.0757 -1.6639  0.2473
  165MOL0     H22211   0.209   8.087   2.641 -0.7262 -0.6887 -4.8238
  165MOL0     H22212  -0.028   8.230   2.523  0.9528  2.9272 -1.3513
  165MOL0     H22213   0.126   8.281   2.461 -1.6329 -0.2376 -2.2603
  165MOL0     H22214   0.187   8.041   2.406 -0.3484 -0.0620 -1.5505
  165MOL0     H22215   0.038   7.985   2.473  2.2008 -1.1785  1.3611
  165MOL0     H22216   0.065   8.153   2.214 -1.6831  1.5500  0.0831
  165MOL0     H22217   0.029   7.980   2.231 -2.8187  0.6659 -0.9346
  165MOL0     H22218  -0.173   8.065   2.372 -1.4111 -0.2612 -0.3013
  165MOL0     H22219  -0.137   8.220   2.308  0.5927  0.2616  0.6577
  165MOL0     H22220  -0.136   8.008   2.093 -0.0485  0.8287 -1.9813
  165MOL0     H22221  -0.288   8.000   2.163  0.3793 -0.0423 -3.1441
  165MOL0     H22222  -0.336   8.241   2.137  1.2100 -0.6779  2.3560
  165MOL0     H22223  -0.182   8.258   2.042 -0.3033 -0.0033 -1.9841
  165MOL0     H22224  -0.247   8.076   1.907 -0.0063  0.5468  0.7365
  165MOL0     H22225  -0.344   8.220   1.884  1.0477 -1.1009 -2.4434
  165MOL0     H22226  -0.578   8.097   2.121 -0.6448  0.8723 -1.3112
  165MOL0     H22227  -0.700   7.873   2.203 -2.4075 -0.9550  1.1765
  165MOL0     H22228  -0.807   7.897   2.067 -0.9710 -2.3301 -0.8320
  165MOL0     H22229  -0.799   7.670   2.165  1.3511  0.4765  0.4798
  165MOL0     H22230  -0.632   7.653   2.097 -0.2310 -1.9980 -1.1058
  165MOL0     H22231  -0.773   7.715   1.876  0.2524 -0.2290 -0.0639
  165MOL0     H22232  -0.919   7.700   1.987  0.1347  1.0219 -0.6782
  165MOL0     H22233  -0.874   7.447   2.008 -0.1763 -0.3444 -0.2312
  165MOL0     H22234  -0.723   7.475   1.929 -0.6391  1.2606 -4.5289
  165MOL0     H22235  -1.093   7.633   1.924 -1.3890 -0.3478  0.8302
  165MOL0     H22236  -1.406   7.684   1.871  0.7363  3.1941  1.1167
  165MOL0     H22237  -1.431   7.592   2.010 -2.1236 -1.1314 -1.6544
  165MOL0     H22238  -1.297   7.692   2.003 -1.0584 -0.6852  1.9768
  165MOL0     H22239  -1.718   7.524   1.971  0.0973 -0.1459 -0.7793
  165MOL0     H22240  -1.957   7.467   1.938 -0.4088  0.0546 -0.2497
  165MOL0     H22241  -2.138   7.378   1.990 -0.5853 -1.0990 -1.3963
  165MOL0     H22242  -2.252   7.255   1.927 -1.7139  2.8531 -0.2474
  165MOL0     H22243  -2.235   7.094   2.088 -1.2171  0.9240 -0.1603
  165MOL0     H22244  -2.093   7.172   2.173 -0.0721 -0.2415  0.0079
  165MOL0     H22245  -2.365   7.288   2.140 -0.1757 -0.7390 -0.1643
  165MOL0     H22246  -2.221   7.358   2.229  0.0467  0.3455 -2.0821
  165MOL0     H22247  -2.374   7.097   2.279  1.3041  0.3927 -2.5903
  165MOL0     H22248  -2.237   7.145   2.371 -0.2427  0.6085  1.2185
  165MOL0     H22249  -2.513   7.297   2.367 -0.5063  2.4589  2.0836
  165MOL0     H22250  -2.361   7.393   2.402  0.1565 -0.5761  0.7803
  165MOL0     H22251  -2.513   7.310   2.599 -1.9152 -2.9826  2.0882
  165MOL0     H22252  -2.450   7.144   2.556  1.9277 -0.3530  1.6755
  165MOL0     H22253  -2.301   7.349   2.699  3.9284 -0.8520  2.2063
  165MOL0     H22254  -2.216   7.286   2.556  2.1048 -1.1085  2.3405
  165MOL0     H22255  -2.253   7.067   2.623 -1.9485  0.5729 -1.3285
  165MOL0     H22256  -2.353   7.128   2.767 -0.6584  1.5781 -0.5511
  165MOL0     H22257  -1.862   7.059   1.906 -1.0532  0.5267  2.2207
  165MOL0     H22258  -1.609   7.114   1.946  0.9954  0.7872 -1.0015
  165MOL0     H22259  -1.247   7.209   1.731  0.6902  0.6528 -1.9233
  165MOL0     H22260  -1.023   7.266   1.707  1.2450  0.5877  1.3496
  165MOL0     H22261   0.247   8.021   2.880  0.8087  2.5509 -1.7956
  165MOL0     H22262   0.283   8.045   3.121  2.0390  3.7467  3.2785
  165MOL0     H22263   0.060   7.955   3.563  1.7789 -1.4705  0.4297
  165MOL0     H22264   0.066   8.015   3.806 -3.0481  2.6665 -0.0650
  165MOL0     H22265   0.079   8.364   3.959  2.3729  0.0525  0.2427
  165MOL0     H22266  -0.013   8.225   3.945  1.6995 -4.9641 -0.9217
  165MOL0     H22267   0.171   8.262   4.183 -1.0083  2.5303 -1.3353
  165MOL0     H22268   0.093   8.113   4.142 -0.9332 -0.5060 -0.1255
  165MOL0     H22269  -0.020   8.232   4.318 -0.9890 -2.7212 -0.6289
  165MOL0     H22270  -0.129   8.250   4.187 -0.5367 -0.5668  2.3151
  165MOL0     H22271   0.004   8.493   4.159 -2.3461 -0.0769 -0.6997
  165MOL0     H22272   0.099   8.442   4.292 -1.8879  2.1831  2.2425
  165MOL0     H22273  -0.225   8.594   4.499 -0.1842  0.0614 -0.7798
  165MOL0     H22274   0.314   8.341   3.739 -0.4297  1.7462 -2.8532
  165MOL0     H22275   0.298   8.309   3.490  0.5136 -2.5378 -1.0752
  166MOL0     O22276   7.821   9.740   3.870 -0.2007 -0.4413  0.2315
  166MOL0     C22277   7.778   9.855   3.894 -0.4981  0.5401 -0.4502
  166MOL0     O22278   7.745   9.901   4.015 -0.0322 -0.7960 -0.2999
  166MOL0     C22279   7.707   9.820   4.122 -0.1763  0.8361 -0.5299
  166MOL0     C22280   7.597   9.867   4.205 -0.4270 -0.1741  0.4291
  166MOL0     C22281   7.556   9.797   4.313 -0.3624  0.3352  0.1967
  166MOL0     C22282   7.625   9.681   4.363  0.2759  0.0724  0.5429
  166MOL0     O22283   7.590   9.601   4.465  0.1992  0.7076  0.4312
  166MOL0     C22284   7.552   9.665   4.588  0.0790  0.1096  0.1059
  166MOL0     C22285   7.571   9.581   4.710 -0.5829 -0.0123 -0.9629
  166MOL0     C22286   7.539   9.656   4.845 -0.9416  0.2830 -0.2333
  166MOL0     C22287   7.541   9.557   4.969  0.0346 -0.6906  0.0134
  166MOL0     C22288   7.510   9.637   5.100 -0.4683  0.5642  0.6866
  166MOL0     C22289   7.530   9.560   5.231 -0.3478 -0.5219 -0.4704
  166MOL0     C22290   7.394   9.533   5.292  0.0113 -0.6953  1.4783
  166MOL0     C22291   7.311   9.421   5.216  0.3203  0.1444  0.3496
  166MOL0     N22292   7.204   9.375   5.295 -0.1039  0.9309 -0.5481
  166MOL0     C22293   7.079   9.427   5.280 -0.0620  0.1042 -0.3476
  166MOL0     C22294   7.004   9.374   5.378 -0.7512 -0.2151 -1.1052
  166MOL0     C22295   6.861   9.408   5.406  0.0979  0.0254  0.4003
  166MOL0     C22296   6.858   9.548   5.481 -0.0169 -0.0479 -0.0202
  166MOL0     C22297   6.910   9.672   5.396  0.6909  1.0387  0.4196
  166MOL0     C22298   6.821   9.792   5.406 -1.0743 -0.2103  0.5689
  166MOL0     O22299   6.849   9.908   5.320 -0.3286 -0.0929 -0.2433
  166MOL0     C22300   6.785  10.030   5.350  0.2043 -0.3222 -0.0610
  166MOL0     C22301   6.711  10.060   5.462 -0.5014  0.1939  0.2288
  166MOL0     C22302   6.642  10.189   5.471 -0.0555  0.8474 -1.2114
  166MOL0     C22303   6.543  10.212   5.584 -1.0068  0.6196 -0.3896
  166MOL0     C22304   6.660  10.291   5.371  0.6399  0.6010  0.1242
  166MOL0     C22305   6.597  10.419   5.375 -0.2349 -0.1006  1.3673
  166MOL0     O22306   6.567  10.461   5.252  0.1886  0.2135  0.3607
  166MOL0     C22307   6.482  10.567   5.229 -0.0344 -0.7387 -0.2734
  166MOL0     C22308   6.524  10.666   5.139  0.7344 -0.2225 -0.2595
  166MOL0     C22309   6.436  10.778   5.107 -0.5892 -0.2469  0.1044
  166MOL0     C22310   6.304  10.778   5.148 -0.0623  0.1926 -0.5112
  166MOL0     O22311   6.231  10.882   5.105  0.1206 -0.3324  0.0013
  166MOL0     C22312   6.091  10.857   5.108 -0.6296  0.2699 -0.2870
  166MOL0     C22313   6.030  10.960   5.034  0.1352  0.1749  0.3170
  166MOL0     C22314   6.021  10.931   4.889  0.9814  0.1114  0.5481
  166MOL0     C22315   5.922  11.027   4.828  0.0335  0.5548 -0.2659
  166MOL0     C22316   5.914  11.030   4.674  0.5350 -0.1971  0.4657
  166MOL0     C22317   5.827  11.154   4.616 -0.2080  0.0523 -0.1779
  166MOL0     C22318   5.675  11.153   4.660 -0.4396  0.9213  0.1482
  166MOL0     C22319   5.615  11.290   4.654  0.1937  0.8267 -0.6155
  166MOL0    Cl22320   5.599  11.338   4.477  0.2607 -0.0966 -0.0830
  166MOL0     C22321   6.260  10.668   5.243  0.0765 -0.0401  0.0837
  166MOL0     C22322   6.355  10.571   5.278 -0.1585  0.0996  0.6073
  166MOL0     O22323   6.584  10.471   5.482 -0.9083  0.0257 -0.1438
  166MOL0     C22324   6.744  10.258   5.262 -0.4037 -0.0036 -0.1014
  166MOL0     C22325   6.805  10.137   5.259 -0.3672 -0.6530  0.3783
  166MOL0     N22326   7.097   9.300   5.462 -0.2303  0.3534  0.4011
  166MOL0     N22327   7.210   9.291   5.406 -0.2001 -0.2734 -0.5794
  166MOL0     C22328   7.733   9.640   4.279  0.5556  0.7511 -0.3994
  166MOL0     C22329   7.778   9.703   4.162  0.1836  0.7639 -0.6027
  166MOL0     C22330   7.780   9.946   3.787  0.0978 -0.8439 -0.1458
  166MOL0     C22331   7.690  10.059   3.790 -0.7347 -0.7593  0.2223
  166MOL0     C22332   7.668  10.135   3.679 -0.3058  0.5270  0.5087
  166MOL0     C22333   7.727  10.112   3.556 -0.6372  0.5459  0.3901
  166MOL0     O22334   7.693  10.173   3.442  0.6746 -0.0607  0.4504
  166MOL0     C22335   7.781  10.187   3.338 -0.5681 -0.3927 -0.5842
  166MOL0     C22336   7.770  10.335   3.294 -0.2873 -0.7509  0.1114
  166MOL0     C22337   7.863  10.346   3.182 -0.4175  1.0214  0.1692
  166MOL0     C22338   7.885  10.495   3.147  0.0048 -0.0229 -0.7140
  166MOL0     C22339   7.989  10.524   3.042 -0.6256 -0.6070  0.3234
  166MOL0     C22340   8.078  10.546   2.959 -0.4436 -0.2068 -0.1446
  166MOL0     C22341   7.813   9.992   3.550  1.1829 -0.6751  0.0669
  166MOL0     C22342   7.839   9.917   3.660  0.9753  0.2840 -0.1760
  166MOL0     H22343   7.550   9.956   4.163  1.3778 -0.3452 -2.2443
  166MOL0     H22344   7.465   9.818   4.369 -0.4626  2.0131 -0.5414
  166MOL0     H22345   7.593   9.764   4.612  1.5547  0.0631 -1.8889
  166MOL0     H22346   7.443   9.670   4.584  0.1449  1.5345 -0.7498
  166MOL0     H22347   7.504   9.496   4.704  0.9019 -1.5366  1.7531
  166MOL0     H22348   7.668   9.530   4.705 -0.9928 -0.7156 -1.7464
  166MOL0     H22349   7.607   9.742   4.849 -1.6878  1.0581 -2.6697
  166MOL0     H22350   7.436   9.690   4.837 -0.2683  2.2710 -1.1279
  166MOL0     H22351   7.470   9.475   4.957 -0.3210 -0.3867  0.0203
  166MOL0     H22352   7.645   9.523   4.971  0.1108 -0.9593 -3.1935
  166MOL0     H22353   7.590   9.711   5.111  0.4423 -0.7094  4.0656
  166MOL0     H22354   7.413   9.686   5.102 -0.5400  0.4098  1.1604
  166MOL0     H22355   7.602   9.479   5.215  1.0442 -0.6579  4.6059
  166MOL0     H22356   7.571   9.620   5.313 -0.8903 -0.3368 -0.3294
  166MOL0     H22357   7.418   9.487   5.388 -1.7219 -2.6299  1.0640
  166MOL0     H22358   7.334   9.619   5.323 -1.7256 -0.3619 -2.2441
  166MOL0     H22359   7.383   9.341   5.198 -1.0375 -1.0338 -0.0361
  166MOL0     H22360   7.279   9.463   5.120 -0.8018 -0.8026  0.2891
  166MOL0     H22361   7.044   9.497   5.205 -0.4900  0.6137  0.3163
  166MOL0     H22362   6.811   9.417   5.309  2.0850 -0.6154 -0.7475
  166MOL0     H22363   6.814   9.334   5.470  1.7443 -2.8993 -1.5426
  166MOL0     H22364   6.915   9.537   5.573 -0.8999  1.1073  0.6980
  166MOL0     H22365   6.752   9.559   5.505  0.3942 -0.9245  2.3895
  166MOL0     H22366   6.915   9.634   5.293 -0.6725 -2.7822  1.6043
  166MOL0     H22367   7.009   9.693   5.438  0.6082  0.3241  0.9896
  166MOL0     H22368   6.851   9.822   5.507  2.2113 -1.7920  0.2102
  166MOL0     H22369   6.714   9.773   5.418 -1.3497  0.6418 -0.4264
  166MOL0     H22370   6.687   9.982   5.534 -0.3219 -2.0422 -2.0128
  166MOL0     H22371   6.511  10.117   5.626 -0.5022  0.5415 -0.1785
  166MOL0     H22372   6.596  10.275   5.656 -1.1911 -0.6135  0.8604
  166MOL0     H22373   6.450  10.256   5.546 -1.0931  0.9633  0.2159
  166MOL0     H22374   6.620  10.659   5.089 -0.6596 -1.7781 -2.9611
  166MOL0     H22375   6.466  10.867   5.053 -1.6434 -0.8972 -1.6750
  166MOL0     H22376   6.056  10.758   5.078 -3.4122 -0.0415  3.2797
  166MOL0     H22377   6.055  10.863   5.211 -1.6835 -0.1349 -0.6277
  166MOL0     H22378   5.929  10.984   5.069 -0.9018 -1.8069 -1.1350
  166MOL0     H22379   6.095  11.045   5.055  0.3732  0.2935 -0.8487
  166MOL0     H22380   5.977  10.832   4.877 -2.8718  1.9603 -3.0625
  166MOL0     H22381   6.124  10.932   4.852  1.5187  2.2377  1.8929
  166MOL0     H22382   5.821  11.009   4.864 -0.1790  3.0798  0.6046
  166MOL0     H22383   5.949  11.132   4.846 -0.8538  0.7217  0.1254
  166MOL0     H22384   5.872  10.934   4.643 -1.3313  0.4855  0.7473
  166MOL0     H22385   6.014  11.036   4.630 -0.2790  0.2055 -1.4470
  166MOL0     H22386   5.865  11.254   4.637  0.5771  0.3682 -2.8343
  166MOL0     H22387   5.823  11.134   4.509 -1.0058 -1.9593  0.1876
  166MOL0     H22388   5.674  11.116   4.763 -0.1949  1.5099  0.3669
  166MOL0     H22389   5.610  11.076   4.618 -1.7137  0.9141  2.0170
  166MOL0     H22390   5.670  11.355   4.722 -0.5820 -0.0980  0.9470
  166MOL0     H22391   5.515  11.292   4.697  1.3134  2.5295  2.1782
  166MOL0     H22392   6.159  10.664   5.284 -0.2680 -2.3803 -0.7920
  166MOL0     H22393   6.340  10.489   5.347  0.4873 -0.9212 -0.4454
  166MOL0     H22394   6.778  10.335   5.194 -2.3384 -2.0724 -3.7075
  166MOL0     H22395   6.887  10.131   5.189 -0.5152  0.7320  0.0567
  166MOL0     H22396   7.788   9.551   4.308  1.6939 -0.4203 -5.2295
  166MOL0     H22397   7.867   9.674   4.108  1.2078  0.4277  1.1903
  166MOL0     H22398   7.633  10.077   3.881 -0.3167  1.6865  0.0505
  166MOL0     H22399   7.597  10.216   3.683  0.2570  1.0388  0.3643
  166MOL0     H22400   7.881  10.177   3.380  0.1848  2.1442 -1.6219
  166MOL0     H22401   7.771  10.111   3.261 -1.7811 -0.8165 -0.0354
  166MOL0     H22402   7.806  10.407   3.368  1.3861 -1.1285 -0.2904
  166MOL0     H22403   7.669  10.362   3.264  0.1097  2.9723  1.6470
  166MOL0     H22404   7.834  10.282   3.098  2.0438  0.3700 -0.2767
  166MOL0     H22405   7.955  10.302   3.221 -2.1627 -1.2591  1.9224
  166MOL0     H22406   7.927  10.532   3.241  1.8306 -2.8812 -0.2787
  166MOL0     H22407   7.793  10.541   3.112 -0.2013 -0.5485 -0.8823
  166MOL0     H22408   8.151  10.562   2.882 -2.7909 -2.0991 -2.9983
  166MOL0     H22409   7.860   9.954   3.460  1.7510 -2.7179  1.1622
  166MOL0     H22410   7.894   9.825   3.643 -0.3734 -0.1876 -2.4948
  167MOL0     O22411   0.782  11.333   4.827 -1.0594  0.1685  0.5041
  167MOL0     C22412   0.725  11.246   4.760 -0.4994 -0.0059  0.2859
  167MOL0     O22413   0.746  11.222   4.632  0.2166  0.3479  0.3617
  167MOL0     C22414   0.866  11.269   4.583  0.8875 -0.0885  0.1861
  167MOL0     C22415   0.990  11.217   4.607  0.2993  0.2998  0.0071
  167MOL0     C22416   1.103  11.279   4.558  0.6546  1.2171  0.0399
  167MOL0     C22417   1.093  11.399   4.491  0.4253 -1.5247  0.4697
  167MOL0     O22418   1.219  11.463   4.487  0.4060 -0.1712  0.8277
  167MOL0     C22419   1.230  11.591   4.418  0.7481 -0.3999 -0.8289
  167MOL0     C22420   1.238  11.585   4.262 -0.3155 -0.6687  0.2442
  167MOL0     C22421   1.105  11.564   4.191 -0.9639  0.1126 -0.7514
  167MOL0     C22422   1.112  11.594   4.044  0.2768  0.4781 -0.4634
  167MOL0     C22423   1.000  11.521   3.968 -0.4901  0.0329 -0.1888
  167MOL0     C22424   1.016  11.552   3.824  0.0177 -0.3641  0.3576
  167MOL0     C22425   0.885  11.498   3.753 -0.0337 -0.2996 -0.3366
  167MOL0     C22426   0.755  11.583   3.743 -0.1597  0.1054 -0.2608
  167MOL0     N22427   0.656  11.497   3.676  0.0309 -0.1769 -0.0189
  167MOL0     C22428   0.616  11.505   3.546 -0.0844 -0.2905  0.0910
  167MOL0     C22429   0.507  11.436   3.535  0.0862  0.5633 -0.6051
  167MOL0     C22430   0.407  11.445   3.417 -0.3554 -0.1118 -0.9287
  167MOL0     C22431   0.350  11.588   3.400 -0.2453 -0.2273 -0.0873
  167MOL0     C22432   0.242  11.589   3.286 -0.1643 -0.5507 -0.5452
  167MOL0     C22433   0.194  11.729   3.276  0.2355 -0.1589  0.1692
  167MOL0     O22434   0.285  11.816   3.199  0.5356 -0.9113  0.7775
  167MOL0     C22435   0.258  11.953   3.214  0.6128 -0.2094  0.0264
  167MOL0     C22436   0.142  12.020   3.264  0.4052 -0.5951  0.0484
  167MOL0     C22437   0.134  12.159   3.273  0.8280  0.7123  0.2053
  167MOL0     C22438   0.008  12.222   3.321 -0.2849 -0.2595  0.8916
  167MOL0     C22439   0.248  12.240   3.238 -0.9048  1.6530 -0.4782
  167MOL0     C22440   0.271  12.379   3.269  0.0728 -0.4786  0.5472
  167MOL0     O22441   0.400  12.418   3.258  0.3284 -0.1834  0.1043
  167MOL0     C22442   0.432  12.553   3.278 -0.4934 -0.4672 -0.6151
  167MOL0     C22443   0.451  12.642   3.168 -0.5453  0.4957 -1.1185
  167MOL0     C22444   0.506  12.775   3.190  0.7790 -0.0545  0.3411
  167MOL0     C22445   0.551  12.806   3.320  0.0319  0.1207  0.2201
  167MOL0     O22446   0.603  12.935   3.337  0.6158  0.3878 -0.1343
  167MOL0     C22447   0.576  12.991   3.455  0.8124  0.2202  0.0724
  167MOL0     C22448   0.612  13.139   3.437  0.1797  0.2755  0.0682
  167MOL0     C22449   0.613  13.209   3.574  0.8599 -0.3610 -0.2628
  167MOL0     C22450   0.533  13.349   3.566 -0.2839  0.9362  0.2208
  167MOL0     C22451   0.531  13.429   3.693  0.3932 -0.0100 -0.6569
  167MOL0     C22452   0.470  13.565   3.651  0.1458 -0.4555  0.1805
  167MOL0     C22453   0.575  13.677   3.664 -0.4455  0.6331 -0.0257
  167MOL0     C22454   0.520  13.815   3.623  0.1904  0.4580 -0.3436
  167MOL0    Cl22455   0.621  13.959   3.635 -0.4463 -0.4295 -0.3371
  167MOL0     C22456   0.550  12.709   3.421  0.4337 -0.8124 -0.2267
  167MOL0     C22457   0.482  12.590   3.407 -1.1937 -0.7396  0.0946
  167MOL0     O22458   0.177  12.451   3.289  0.7814 -0.3337 -0.2116
  167MOL0     C22459   0.356  12.167   3.179  0.2111  0.5773  0.3870
  167MOL0     C22460   0.357  12.029   3.154  0.1850  0.8926 -0.1872
  167MOL0     N22461   0.478  11.384   3.661  0.1087  0.9600  0.4491
  167MOL0     N22462   0.577  11.410   3.743  1.2805  0.4885 -0.7518
  167MOL0     C22463   0.968  11.450   4.460 -0.1072  0.1356 -0.6594
  167MOL0     C22464   0.856  11.379   4.494  0.0109  0.7265 -0.0728
  167MOL0     C22465   0.608  11.181   4.822  0.1657 -0.2129  0.1167
  167MOL0     C22466   0.542  11.057   4.781 -0.1091 -0.0898  0.1037
  167MOL0     C22467   0.448  10.983   4.851  0.3200 -1.4369  0.2664
  167MOL0     C22468   0.412  11.040   4.967  0.7245  0.0432 -0.2049
  167MOL0     O22469   0.306  10.980   5.025 -0.0456  1.1117 -0.2375
  167MOL0     C22470   0.277  10.980   5.172  0.2575 -0.3596 -0.0935
  167MOL0     C22471   0.340  10.856   5.252  0.0922 -0.0275  0.7769
  167MOL0     C22472   0.291  10.719   5.205  0.3790 -0.8057  0.6267
  167MOL0     C22473   0.353  10.647   5.079  0.9187 -0.0017  0.1480
  167MOL0     C22474   0.485  10.584   5.110  0.6121  0.1722  0.7368
  167MOL0     C22475   0.590  10.524   5.107  0.9467  0.2949  0.8440
  167MOL0     C22476   0.465  11.159   5.015  0.0193  0.4485 -0.5363
  167MOL0     C22477   0.563  11.231   4.945  0.3421  0.0229 -0.4177
  167MOL0     H22478   0.985  11.139   4.683 -0.1189  1.7414  1.5281
  167MOL0     H22479   1.200  11.250   4.599  0.3756 -0.8851 -0.6816
  167MOL0     H22480   1.150  11.662   4.439  0.8326  0.5139 -3.3143
  167MOL0     H22481   1.322  11.647   4.436 -1.3815  4.1584 -2.6657
  167MOL0     H22482   1.276  11.682   4.229 -5.2527  1.6283  0.3829
  167MOL0     H22483   1.314  11.514   4.231  0.6110 -0.2256  1.4088
  167MOL0     H22484   1.063  11.462   4.189  0.0134 -0.3842 -4.8898
  167MOL0     H22485   1.036  11.631   4.242 -1.5873  0.1746 -1.6523
  167MOL0     H22486   1.126  11.697   4.012 -2.4118  0.9263 -0.3846
  167MOL0     H22487   1.204  11.545   4.012  0.3450  0.1634  0.1944
  167MOL0     H22488   0.998  11.412   3.980 -2.3163  0.0107 -0.4447
  167MOL0     H22489   0.905  11.552   4.013 -0.1287 -2.3031  2.4832
  167MOL0     H22490   1.033  11.657   3.799  0.5709 -1.3342 -4.1699
  167MOL0     H22491   1.102  11.497   3.785 -1.3496 -3.1566  0.9666
  167MOL0     H22492   0.921  11.498   3.650  0.5631  4.1674 -0.3353
  167MOL0     H22493   0.859  11.396   3.781 -2.2553  0.3704  0.2052
  167MOL0     H22494   0.773  11.664   3.672  0.1165  0.3427  0.0771
  167MOL0     H22495   0.711  11.617   3.836  0.3499 -0.8519  0.3488
  167MOL0     H22496   0.643  11.583   3.476 -2.7142 -1.7094 -2.7901
  167MOL0     H22497   0.455  11.410   3.326  2.4613 -2.8384  1.3966
  167MOL0     H22498   0.328  11.374   3.446 -0.0256 -0.4041 -0.7307
  167MOL0     H22499   0.427  11.661   3.373 -0.6146  0.2138  0.0338
  167MOL0     H22500   0.312  11.630   3.493 -0.5967  1.6704 -1.0322
  167MOL0     H22501   0.165  11.513   3.301 -1.1217  0.9158  3.1831
  167MOL0     H22502   0.290  11.581   3.188  1.0660  4.9208 -0.7189
  167MOL0     H22503   0.192  11.778   3.374 -3.7620  1.4587 -0.5210
  167MOL0     H22504   0.091  11.731   3.238  0.6101 -0.5386 -0.9089
  167MOL0     H22505   0.052  11.965   3.288  1.3629 -1.5362  1.6768
  167MOL0     H22506  -0.042  12.257   3.230  3.0826 -1.0683 -1.4965
  167MOL0     H22507  -0.057  12.151   3.371  0.2869 -3.7067 -2.7145
  167MOL0     H22508   0.022  12.317   3.373  0.1611 -0.6566  1.5108
  167MOL0     H22509   0.425  12.597   3.073 -2.3943 -2.7782  0.7711
  167MOL0     H22510   0.532  12.837   3.105  1.5958 -1.0003 -0.1118
  167MOL0     H22511   0.469  12.973   3.475  0.7858 -1.6278 -1.4508
  167MOL0     H22512   0.636  12.945   3.533  1.6893  0.1400 -0.6385
  167MOL0     H22513   0.714  13.143   3.400 -0.0797 -2.4608 -1.2599
  167MOL0     H22514   0.532  13.192   3.383 -0.1131  0.1434  0.3651
  167MOL0     H22515   0.716  13.227   3.606  1.3284 -0.2500 -1.7441
  167MOL0     H22516   0.572  13.145   3.653  0.6849  0.9497  0.7479
  167MOL0     H22517   0.578  13.413   3.489 -0.4060 -1.1409 -1.6756
  167MOL0     H22518   0.433  13.334   3.525  0.0870 -0.3117 -0.2918
  167MOL0     H22519   0.623  13.443   3.750  0.7834 -4.1417  0.0730
  167MOL0     H22520   0.442  13.378   3.732 -1.1121 -1.6365 -5.5067
  167MOL0     H22521   0.437  13.566   3.546 -1.7326  0.5745  0.7444
  167MOL0     H22522   0.385  13.581   3.717  1.8395  0.6275  2.2397
  167MOL0     H22523   0.657  13.663   3.594 -1.1916  0.7339 -0.9362
  167MOL0     H22524   0.605  13.694   3.768  1.0315 -1.0006 -0.1548
  167MOL0     H22525   0.427  13.837   3.676 -0.0455  0.4574 -0.7518
  167MOL0     H22526   0.502  13.798   3.516  0.8346 -0.6220 -0.2915
  167MOL0     H22527   0.596  12.723   3.518  1.4951  0.2603 -0.8546
  167MOL0     H22528   0.502  12.516   3.484  3.0222 -0.9441 -0.9383
  167MOL0     H22529   0.429  12.233   3.134  0.6127 -0.7206 -0.9409
  167MOL0     H22530   0.437  11.988   3.091  0.4226 -0.3444  0.8759
  167MOL0     H22531   0.976  11.556   4.440  0.2652  0.2683  0.1427
  167MOL0     H22532   0.755  11.414   4.474 -0.8220 -1.6696 -0.4233
  167MOL0     H22533   0.568  11.026   4.680 -0.8947 -0.3369 -0.0271
  167MOL0     H22534   0.395  10.896   4.814  0.5342 -0.4610 -2.5738
  167MOL0     H22535   0.313  11.064   5.232 -0.6996 -1.7496  2.5829
  167MOL0     H22536   0.168  10.974   5.178 -0.1962 -1.1371 -4.9279
  167MOL0     H22537   0.331  10.882   5.358 -1.5161  2.3107  0.1544
  167MOL0     H22538   0.448  10.859   5.234 -0.4308 -1.3174 -3.6709
  167MOL0     H22539   0.186  10.734   5.179  0.7148 -0.5124 -0.5941
  167MOL0     H22540   0.301  10.649   5.288  2.3013  1.1080  2.1231
  167MOL0     H22541   0.371  10.718   4.998  1.3401  0.1228  0.3456
  167MOL0     H22542   0.278  10.575   5.045  0.3496 -0.6783  2.6450
  167MOL0     H22543   0.670  10.453   5.115 -0.1559 -0.8416  2.7606
  167MOL0     H22544   0.433  11.203   5.109 -1.8063 -0.0550 -0.8790
  167MOL0     H22545   0.591  11.323   4.995 -1.6898 -0.2622  1.3532
  168MOL0     O22546   1.462   1.523   8.715  0.5165  0.2610 -0.0204
  168MOL0     C22547   1.526   1.439   8.650  0.1658 -0.5453 -0.8684
  168MOL0     O22548   1.645   1.401   8.682  0.0095  0.5624 -0.2297
  168MOL0     C22549   1.717   1.460   8.779 -0.0799 -0.1180 -1.5902
  168MOL0     C22550   1.752   1.596   8.775 -0.2043 -0.4329 -0.0947
  168MOL0     C22551   1.849   1.651   8.865 -0.2771 -0.3373 -0.0011
  168MOL0     C22552   1.885   1.580   8.982 -0.5644 -1.4254 -0.1530
  168MOL0     O22553   1.955   1.648   9.075 -0.3623 -0.3678  0.2831
  168MOL0     C22554   1.999   1.576   9.188 -0.6257 -0.0547 -0.3904
  168MOL0     C22555   2.079   1.672   9.281  0.2891  0.1048  0.3325
  168MOL0     C22556   2.187   1.590   9.344 -0.0271 -0.4229  0.0805
  168MOL0     C22557   2.252   1.669   9.467 -0.4995 -0.4413 -0.1074
  168MOL0     C22558   2.372   1.597   9.540  0.0456 -0.1081  0.0847
  168MOL0     C22559   2.327   1.509   9.653 -0.1367  0.2864 -0.7562
  168MOL0     C22560   2.250   1.581   9.768 -0.6080 -0.1317  0.7816
  168MOL0     C22561   2.160   1.491   9.853  0.0018 -0.5705  0.3681
  168MOL0     N22562   2.144   1.553   9.981 -0.1385 -0.3276 -0.0093
  168MOL0     C22563   2.086   1.668  10.001 -0.2163 -1.0743 -0.5560
  168MOL0     C22564   2.139   1.712  10.116 -0.0604  0.0770 -0.6470
  168MOL0     C22565   2.119   1.833  10.196 -0.5692  0.4579  0.2747
  168MOL0     C22566   2.246   1.921  10.222  0.5837 -0.1786  0.3754
  168MOL0     C22567   2.216   2.034  10.315  0.0044 -0.0405  0.0609
  168MOL0     C22568   2.341   2.102  10.380  0.6372 -0.5747  0.4660
  168MOL0     O22569   2.313   2.204  10.481  0.1268 -0.0298 -0.2551
  168MOL0     C22570   2.210   2.297  10.439 -0.0900  0.5162 -1.1540
  168MOL0     C22571   2.110   2.333  10.530  0.0164 -0.4203 -0.2471
  168MOL0     C22572   1.995   2.416  10.496 -0.2650 -0.1687 -1.1089
  168MOL0     C22573   1.885   2.429  10.599 -0.5830 -0.0074 -1.3363
  168MOL0     C22574   1.998   2.488  10.369  0.5326 -0.3229 -0.9573
  168MOL0     C22575   1.890   2.590  10.325  0.6373 -0.4533 -0.1136
  168MOL0     O22576   1.783   2.617  10.394  0.5082 -0.5159 -0.1207
  168MOL0     C22577   1.732   2.749  10.378  0.8812 -1.2063  0.8273
  168MOL0     C22578   1.800   2.857  10.426 -0.9074 -0.4980  0.8282
  168MOL0     C22579   1.734   2.985  10.442 -0.0306  0.6202  0.7525
  168MOL0     C22580   1.605   3.013  10.394  0.0325  0.1849  0.5269
  168MOL0     O22581   1.541   3.133  10.395 -0.5410  0.1564  0.8252
  168MOL0     C22582   1.606   3.238  10.472  0.2064  0.2773  0.0946
  168MOL0     C22583   1.588   3.227  10.625  0.1459  0.5180 -0.5781
  168MOL0     C22584   1.637   3.364  10.690  0.5242  0.3987  0.2553
  168MOL0     C22585   1.626   3.358  10.843  0.0892  0.2763  0.5073
  168MOL0     C22586   1.476   3.355  10.889  0.2226  0.0268 -0.8699
  168MOL0     C22587   1.472   3.360  11.042 -0.4318 -0.5593  0.8084
  168MOL0     C22588   1.324   3.383  11.091  0.0148  0.2496  0.0276
  168MOL0     C22589   1.274   3.532  11.099 -0.1013  1.6975 -0.0493
  168MOL0    Cl22590   1.390   3.637  11.185  0.1677 -0.2143  0.3081
  168MOL0     C22591   1.539   2.899  10.337  0.4344  0.3384 -0.0566
  168MOL0     C22592   1.602   2.772  10.331  0.8131  0.0905 -0.0883
  168MOL0     O22593   1.916   2.645  10.215  0.0591 -0.1717 -0.3088
  168MOL0     C22594   2.110   2.460  10.287  0.4016 -0.5503  0.9772
  168MOL0     C22595   2.211   2.372  10.319  0.3756  0.1002  0.1768
  168MOL0     N22596   2.236   1.626  10.166  0.4120  0.8349  0.3465
  168MOL0     N22597   2.239   1.526  10.083 -0.2827 -0.5754  0.0819
  168MOL0     C22598   1.846   1.445   8.983 -0.1228  0.5894  0.3088
  168MOL0     C22599   1.772   1.387   8.883 -0.3050  0.3685 -0.3108
  168MOL0     C22600   1.448   1.382   8.534 -0.2988  1.7907 -0.1841
  168MOL0     C22601   1.324   1.422   8.499  0.2550 -0.9053 -0.3561
  168MOL0     C22602   1.237   1.346   8.419 -0.6167 -0.3587 -0.1733
  168MOL0     C22603   1.289   1.238   8.353 -0.2876  0.6463 -0.3162
  168MOL0     O22604   1.212   1.164   8.266 -0.3657  0.1223 -0.6706
  168MOL0     C22605   1.220   1.212   8.130 -0.3891 -1.1076  0.9667
  168MOL0     C22606   1.203   1.367   8.099 -0.1995  0.5881  0.4386
  168MOL0     C22607   1.064   1.438   8.097  0.3958 -0.0644 -0.0830
  168MOL0     C22608   0.954   1.370   8.030  0.9545 -0.4177  0.0923
  168MOL0     C22609   0.832   1.443   8.047  0.6160  0.1126  0.1304
  168MOL0     C22610   0.725   1.494   8.084  0.3862  0.0877  0.2394
  168MOL0     C22611   1.414   1.190   8.381 -0.4068  0.3682  0.3774
  168MOL0     C22612   1.497   1.262   8.471 -0.6049  0.9295 -0.8896
  168MOL0     H22613   1.711   1.658   8.697 -0.1840 -0.1198  0.1395
  168MOL0     H22614   1.858   1.759   8.853  0.6978 -0.4101  0.0186
  168MOL0     H22615   1.911   1.536   9.240 -1.1699 -0.6964 -1.7789
  168MOL0     H22616   2.065   1.492   9.164  2.3913  1.8530  0.5714
  168MOL0     H22617   2.126   1.752   9.224  0.8311  2.2837  3.6178
  168MOL0     H22618   2.004   1.719   9.345 -1.3923 -0.8988 -0.8171
  168MOL0     H22619   2.148   1.497   9.387 -0.1544 -0.4745 -0.1447
  168MOL0     H22620   2.266   1.572   9.270 -0.7625  0.3435 -0.9157
  168MOL0     H22621   2.290   1.763   9.425 -3.5446  1.0707  0.2828
  168MOL0     H22622   2.174   1.697   9.538 -0.4609  0.7679 -0.5271
  168MOL0     H22623   2.423   1.531   9.470 -1.3631  0.9298 -2.0420
  168MOL0     H22624   2.443   1.672   9.574 -0.9120  1.3258 -0.9444
  168MOL0     H22625   2.269   1.425   9.613 -0.3894 -0.0585  0.3013
  168MOL0     H22626   2.421   1.463   9.685  0.4751 -1.0207 -3.9825
  168MOL0     H22627   2.334   1.611   9.830  2.3847 -2.6199 -1.7514
  168MOL0     H22628   2.193   1.668   9.733  3.1475  1.2722 -2.5840
  168MOL0     H22629   2.210   1.397   9.876 -0.2285 -0.8286 -0.1623
  168MOL0     H22630   2.073   1.458   9.794  1.0421  2.5050 -3.3113
  168MOL0     H22631   2.010   1.716   9.941 -0.7652 -3.2171 -1.6990
  168MOL0     H22632   2.045   1.887  10.137  1.3049  0.9298 -1.7568
  168MOL0     H22633   2.086   1.801  10.296 -2.8008 -2.9812 -1.3703
  168MOL0     H22634   2.291   1.959  10.130 -2.5519 -0.5199 -1.4283
  168MOL0     H22635   2.316   1.856  10.277 -2.0247 -1.3928  2.4824
  168MOL0     H22636   2.152   2.004  10.399 -1.8519  2.2089 -0.4496
  168MOL0     H22637   2.170   2.109  10.251 -0.7572 -3.0729 -3.3160
  168MOL0     H22638   2.386   2.152  10.294  2.3582 -0.9519  1.1002
  168MOL0     H22639   2.400   2.018  10.419  0.9184 -0.8414 -0.5148
  168MOL0     H22640   2.104   2.274  10.621 -1.3048  2.3085  1.5796
  168MOL0     H22641   1.793   2.375  10.578 -1.7662  0.9422  0.9773
  168MOL0     H22642   1.924   2.391  10.694 -2.9210  2.1164  0.6552
  168MOL0     H22643   1.845   2.531  10.613 -3.3715 -1.0458 -1.0525
  168MOL0     H22644   1.903   2.841  10.458 -1.1012 -4.3189  0.0359
  168MOL0     H22645   1.793   3.061  10.492  1.0900  0.3921 -0.1726
  168MOL0     H22646   1.709   3.253  10.439 -0.5792  0.6422 -2.4363
  168MOL0     H22647   1.570   3.338  10.447  2.7095  1.1607 -0.3142
  168MOL0     H22648   1.484   3.198  10.644  0.4807  0.8932  2.1742
  168MOL0     H22649   1.628   3.134  10.665 -0.6971 -0.4896 -1.9823
  168MOL0     H22650   1.572   3.446  10.658 -1.1772 -0.6639  0.8632
  168MOL0     H22651   1.738   3.385  10.654 -0.7234  5.8980 -0.9276
  168MOL0     H22652   1.678   3.272  10.887  0.8636  1.5727  2.2321
  168MOL0     H22653   1.683   3.438  10.890  2.1170 -0.4343 -0.5987
  168MOL0     H22654   1.418   3.270  10.852 -1.4334  0.1150  1.2925
  168MOL0     H22655   1.424   3.446  10.857  2.2816  0.8496 -2.0908
  168MOL0     H22656   1.507   3.265  11.083  0.7207 -0.5119 -0.0244
  168MOL0     H22657   1.543   3.437  11.074  0.4689 -1.2082  0.4209
  168MOL0     H22658   1.333   3.339  11.191  0.4634 -2.6614 -1.2238
  168MOL0     H22659   1.255   3.319  11.036  0.3311 -1.8577  1.9568
  168MOL0     H22660   1.178   3.521  11.151  0.1556 -2.5934 -0.1166
  168MOL0     H22661   1.262   3.556  10.993  1.2822  0.6081 -0.4787
  168MOL0     H22662   1.439   2.913  10.297  0.1908  0.1367  0.4813
  168MOL0     H22663   1.551   2.688  10.286  0.8058  0.1866 -0.2584
  168MOL0     H22664   2.126   2.527  10.203 -1.9517  0.7395  1.4663
  168MOL0     H22665   2.303   2.373  10.262  2.2898  0.2104  3.0751
  168MOL0     H22666   1.881   1.367   9.050 -2.8182  0.3097  1.4852
  168MOL0     H22667   1.746   1.281   8.885  0.6095  0.1362  1.0444
  168MOL0     H22668   1.284   1.518   8.530 -0.2988 -0.6474 -1.7984
  168MOL0     H22669   1.135   1.366   8.388 -0.7486 -1.9277 -0.8392
  168MOL0     H22670   1.318   1.183   8.091 -0.2922  0.0243  0.3231
  168MOL0     H22671   1.154   1.163   8.057 -0.1793 -0.1583  0.1108
  168MOL0     H22672   1.243   1.373   7.997  1.4464  3.1373  1.1344
  168MOL0     H22673   1.259   1.429   8.170  1.1414 -3.9792  3.8571
  168MOL0     H22674   1.084   1.542   8.068  0.1706  0.0264  0.0859
  168MOL0     H22675   1.023   1.440   8.198  0.6725  3.3159  0.0837
  168MOL0     H22676   0.943   1.268   8.066  0.1476 -1.0899 -1.9195
  168MOL0     H22677   0.960   1.362   7.921  0.9841 -1.4260  0.1616
  168MOL0     H22678   0.645   1.551   8.128  1.8805  3.0207 -0.6202
  168MOL0     H22679   1.450   1.100   8.333 -1.2816  0.0806  0.2378
  168MOL0     H22680   1.597   1.224   8.491 -1.5960 -1.2983  0.1954
  169MOL0     O22681   9.151  10.862   9.462  0.7086 -0.2679 -0.1642
  169MOL0     C22682   9.098  10.949   9.540 -0.3448  1.0016  0.1986
  169MOL0     O22683   9.085  11.084   9.507  0.4704  0.1039 -0.3272
  169MOL0     C22684   9.170  11.120   9.406 -0.3805 -0.7841 -0.2967
  169MOL0     C22685   9.143  11.092   9.266 -0.4138 -0.7677 -0.1012
  169MOL0     C22686   9.238  11.132   9.167  0.1548  0.3635 -0.1149
  169MOL0     C22687   9.357  11.196   9.202 -0.0248  0.1303 -0.5319
  169MOL0     O22688   9.450  11.239   9.112  0.1699  0.3114 -0.6142
  169MOL0     C22689   9.445  11.202   8.978 -0.4962 -0.1779 -0.1119
  169MOL0     C22690   9.388  11.319   8.900  0.5267 -0.1444 -0.4346
  169MOL0     C22691   9.378  11.311   8.746 -0.2019 -0.4693 -0.4384
  169MOL0     C22692   9.512  11.316   8.684 -0.0266  0.6305  0.6529
  169MOL0     C22693   9.510  11.326   8.525  0.5270 -0.3892  0.0879
  169MOL0     C22694   9.650  11.343   8.476 -0.3488 -0.8597 -0.2488
  169MOL0     C22695   9.663  11.349   8.329  0.0035  0.0613  0.1458
  169MOL0     C22696   9.685  11.488   8.279  0.4404  0.3295  0.0304
  169MOL0     N22697   9.689  11.497   8.136 -0.7492 -0.1859 -0.3931
  169MOL0     C22698   9.599  11.449   8.049  0.6189  0.4897  0.2859
  169MOL0     C22699   9.656  11.464   7.925 -0.0494 -0.1765 -1.3604
  169MOL0     C22700   9.597  11.439   7.796 -0.0440  0.4966 -0.7814
  169MOL0     C22701   9.548  11.566   7.730  0.8471  1.4757 -0.4129
  169MOL0     C22702   9.629  11.579   7.590  0.0120  0.5055 -0.5175
  169MOL0     C22703   9.590  11.700   7.498  0.7553 -0.0458 -0.3169
  169MOL0     O22704   9.446  11.679   7.472 -0.5801 -0.2134  0.7173
  169MOL0     C22705   9.385  11.754   7.374 -0.1423 -0.7292  1.0521
  169MOL0     C22706   9.444  11.856   7.297  0.4723 -0.6886  0.1232
  169MOL0     C22707   9.374  11.938   7.198 -1.1217 -0.1515 -0.0397
  169MOL0     C22708   9.465  12.041   7.121 -0.2884 -0.2664  0.2173
  169MOL0     C22709   9.237  11.909   7.177  0.2385  0.3651 -0.5801
  169MOL0     C22710   9.152  11.977   7.079 -0.4755 -0.0535  0.6576
  169MOL0     O22711   9.226  12.031   6.968 -0.4054  0.0158 -0.0519
  169MOL0     C22712   9.151  12.093   6.859  0.4620  0.0319 -0.4111
  169MOL0     C22713   9.019  12.063   6.824  0.3651 -0.3520  0.4336
  169MOL0     C22714   8.956  12.140   6.715  0.2725 -0.5118 -0.5147
  169MOL0     C22715   9.031  12.235   6.641 -0.3716  0.0360 -0.2697
  169MOL0     O22716   8.976  12.287   6.529  0.7012 -0.3503  0.0098
  169MOL0     C22717   8.950  12.206   6.414 -0.4139 -0.7216 -0.1961
  169MOL0     C22718   9.058  12.107   6.381 -0.4544  0.1002  0.0050
  169MOL0     C22719   9.036  12.026   6.254 -0.5182 -0.2470  0.0693
  169MOL0     C22720   8.940  11.906   6.287 -0.6191 -0.2557 -0.5411
  169MOL0     C22721   8.956  11.811   6.161  0.4287 -0.1293 -0.2686
  169MOL0     C22722   8.846  11.698   6.161 -0.7410  0.3317 -0.2791
  169MOL0     C22723   8.866  11.626   6.034  0.3224  0.0056 -0.0202
  169MOL0     C22724   8.768  11.506   6.020  0.3321 -0.2777 -0.4079
  169MOL0    Cl22725   8.593  11.543   6.049 -0.3622  0.2327 -0.3042
  169MOL0     C22726   9.162  12.264   6.685 -0.0226 -0.5705 -0.1547
  169MOL0     C22727   9.217  12.193   6.793  0.0498 -0.4825 -0.1510
  169MOL0     O22728   9.037  11.994   7.105  0.1900  0.5441 -0.0153
  169MOL0     C22729   9.182  11.800   7.255  0.5290 -0.1108 -1.2046
  169MOL0     C22730   9.255  11.731   7.354 -1.0099 -0.0128  0.2491
  169MOL0     N22731   9.787  11.519   7.943 -0.0812 -0.0796 -0.1276
  169MOL0     N22732   9.803  11.531   8.066 -0.1961 -0.2625  0.0933
  169MOL0     C22733   9.379  11.222   9.340  0.2724  0.3354  0.0950
  169MOL0     C22734   9.291  11.188   9.433 -0.2448  0.1490 -0.4714
  169MOL0     C22735   9.031  10.904   9.662 -0.3714  0.2380  0.1876
  169MOL0     C22736   8.933  10.990   9.717 -0.6368  0.5043 -0.0669
  169MOL0     C22737   8.860  10.938   9.838  0.6685  0.8417  0.4697
  169MOL0     C22738   8.892  10.813   9.897 -0.7849 -0.2567  0.7426
  169MOL0     O22739   8.831  10.765  10.009  0.7016 -0.5428 -0.4387
  169MOL0     C22740   8.709  10.831  10.065 -0.7088 -0.8966  0.6204
  169MOL0     C22741   8.597  10.796   9.973  0.3885  0.9268  0.5207
  169MOL0     C22742   8.563  10.644   9.983 -1.0003  0.1149 -0.2464
  169MOL0     C22743   8.506  10.594  10.124 -0.5204 -0.3239 -0.4437
  169MOL0     C22744   8.440  10.467  10.112  0.0520 -0.9151 -0.0163
  169MOL0     C22745   8.359  10.380  10.094 -0.7930  0.2738  0.6022
  169MOL0     C22746   8.999  10.741   9.841 -0.4165  0.1876  0.7236
  169MOL0     C22747   9.061  10.781   9.720 -0.6719  0.2269 -0.4935
  169MOL0     H22748   9.048  11.046   9.242 -0.1269 -1.4568  0.0822
  169MOL0     H22749   9.211  11.116   9.064  1.3835  0.0671 -0.4106
  169MOL0     H22750   9.547  11.187   8.941 -1.8801 -1.7276 -3.8211
  169MOL0     H22751   9.397  11.106   8.959 -0.6296 -0.7745  2.8130
  169MOL0     H22752   9.287  11.331   8.941  0.6917 -1.3731  0.4048
  169MOL0     H22753   9.437  11.413   8.926 -1.6094  0.6535  1.0442
  169MOL0     H22754   9.312  11.228   8.718  0.2900 -0.4259 -1.7840
  169MOL0     H22755   9.328  11.400   8.706 -0.6826 -1.6680 -2.6562
  169MOL0     H22756   9.553  11.414   8.709  2.8160  0.1642 -1.5765
  169MOL0     H22757   9.581  11.241   8.726 -2.8000 -0.3809  3.8916
  169MOL0     H22758   9.472  11.240   8.470 -0.4269  1.0305 -1.6035
  169MOL0     H22759   9.446  11.409   8.494  0.4745  0.9081  3.2607
  169MOL0     H22760   9.700  11.425   8.527 -2.4090 -0.0152  0.5001
  169MOL0     H22761   9.708  11.257   8.511  0.3952 -0.5942 -0.8081
  169MOL0     H22762   9.743  11.281   8.297  0.0210  1.2957 -2.7399
  169MOL0     H22763   9.573  11.305   8.285 -0.3803 -0.3816  1.3375
  169MOL0     H22764   9.776  11.528   8.324 -0.1173  1.5674  0.1147
  169MOL0     H22765   9.602  11.547   8.320 -0.3170 -0.6550 -0.0586
  169MOL0     H22766   9.499  11.413   8.073  0.7508  0.0785  0.2109
  169MOL0     H22767   9.684  11.400   7.741  1.0257  3.3591 -1.2650
  169MOL0     H22768   9.512  11.371   7.792  0.0625  0.3527 -0.6133
  169MOL0     H22769   9.559  11.657   7.789  0.7515  1.5105 -0.4483
  169MOL0     H22770   9.441  11.567   7.704  0.6432 -0.0423  0.2432
  169MOL0     H22771   9.603  11.484   7.541 -0.0145  0.2268  0.0273
  169MOL0     H22772   9.736  11.597   7.607  0.0511  2.1102 -2.1377
  169MOL0     H22773   9.651  11.704   7.407  2.2103 -1.3387  0.5526
  169MOL0     H22774   9.603  11.790   7.559 -1.4041  0.6102 -0.7351
  169MOL0     H22775   9.548  11.886   7.304  0.6119 -1.3164  0.8292
  169MOL0     H22776   9.528  12.002   7.040 -0.7250  1.5579 -1.0462
  169MOL0     H22777   9.412  12.118   7.066  0.5602 -0.8969 -1.5831
  169MOL0     H22778   9.520  12.088   7.203 -2.0999  0.4296  1.0885
  169MOL0     H22779   8.958  11.982   6.864  0.3600 -2.0849 -2.7474
  169MOL0     H22780   8.851  12.121   6.692 -0.6909  1.7318  1.6163
  169MOL0     H22781   8.856  12.154   6.436 -0.7904  0.6596  1.7004
  169MOL0     H22782   8.952  12.268   6.324  1.3237 -0.7216 -0.1932
  169MOL0     H22783   9.153  12.159   6.372  1.3972 -3.3589 -4.5537
  169MOL0     H22784   9.061  12.050   6.474 -2.1407  3.2610  2.1555
  169MOL0     H22785   9.136  11.992   6.224 -0.2962 -1.5837  2.1468
  169MOL0     H22786   8.988  12.083   6.174  3.0635  3.7730  0.3696
  169MOL0     H22787   8.977  11.853   6.375  1.2594  1.9961  0.1258
  169MOL0     H22788   8.838  11.937   6.313  0.1035 -0.1203  2.5641
  169MOL0     H22789   9.055  11.765   6.156  0.3537 -0.3360  0.0726
  169MOL0     H22790   8.942  11.864   6.067  0.1503 -0.5603 -0.4746
  169MOL0     H22791   8.864  11.629   6.244 -0.7840 -0.2610 -0.7527
  169MOL0     H22792   8.740  11.719   6.177 -0.5244  0.5897  0.8777
  169MOL0     H22793   8.968  11.591   6.019  0.2790 -1.5716  2.6467
  169MOL0     H22794   8.850  11.693   5.949 -1.6135 -0.0878  0.2334
  169MOL0     H22795   8.797  11.432   6.096 -2.5683  0.0746  1.1788
  169MOL0     H22796   8.758  11.458   5.923 -1.3300  0.7806 -0.8030
  169MOL0     H22797   9.233  12.334   6.642  0.0481 -0.0147  0.8424
  169MOL0     H22798   9.320  12.211   6.822 -0.2742  0.2010  0.6291
  169MOL0     H22799   9.078  11.778   7.233  0.4445 -0.1136 -0.8118
  169MOL0     H22800   9.206  11.657   7.417  0.7744 -3.7712 -2.4229
  169MOL0     H22801   9.474  11.265   9.371  0.9295 -2.2867  2.1278
  169MOL0     H22802   9.308  11.206   9.539  0.8995 -1.3693 -0.3638
  169MOL0     H22803   8.916  11.091   9.684  2.3546  0.6424 -1.4151
  169MOL0     H22804   8.788  11.003   9.885 -0.7522 -0.9163  0.8353
  169MOL0     H22805   8.693  10.798  10.168 -3.0541 -1.2430  0.1924
  169MOL0     H22806   8.723  10.939  10.076 -1.7408 -0.4509 -1.8917
  169MOL0     H22807   8.632  10.824   9.873  3.3665  1.2878  1.5723
  169MOL0     H22808   8.510  10.859   9.994 -0.3390  1.0465 -2.4717
  169MOL0     H22809   8.652  10.584   9.961 -0.8922 -0.7156  2.1530
  169MOL0     H22810   8.476  10.627   9.919  0.3615  0.4010 -2.2762
  169MOL0     H22811   8.436  10.666  10.166  1.6560  1.3505  0.5353
  169MOL0     H22812   8.589  10.592  10.196  0.2422  0.5892 -1.2692
  169MOL0     H22813   8.296  10.294  10.087 -0.4468 -0.2454  2.9071
  169MOL0     H22814   9.043  10.661   9.899  1.6882  1.5883  1.1547
  169MOL0     H22815   9.139  10.723   9.671 -0.9701 -1.6805  1.1519
  170MOL0     O22816   7.648   2.008   4.841  0.1021  0.4124  0.7016
  170MOL0     C22817   7.753   2.060   4.804 -0.6669 -0.4512  0.6894
  170MOL0     O22818   7.876   2.000   4.799  0.4765 -0.0960 -0.1760
  170MOL0     C22819   7.882   1.878   4.846 -0.0124  0.9093  0.5049
  170MOL0     C22820   7.913   1.770   4.755  0.0311  0.8949 -0.7309
  170MOL0     C22821   7.889   1.632   4.798 -0.3045 -0.1968  0.1064
  170MOL0     C22822   7.871   1.608   4.938 -0.2592  0.7160 -0.3776
  170MOL0     O22823   7.875   1.475   4.977  0.0980 -0.5927  0.0468
  170MOL0     C22824   7.854   1.439   5.115  0.0811 -0.5203 -0.2919
  170MOL0     C22825   7.895   1.289   5.120  0.9721 -0.1582  0.2394
  170MOL0     C22826   7.798   1.193   5.039 -0.1513 -0.5382  0.5974
  170MOL0     C22827   7.651   1.200   5.094 -0.1357  0.7340  0.1464
  170MOL0     C22828   7.652   1.155   5.242  0.2755  0.2254  0.1484
  170MOL0     C22829   7.519   1.101   5.294  0.5043 -0.2060  0.8366
  170MOL0     C22830   7.511   1.067   5.444 -0.3523 -0.7448 -0.7544
  170MOL0     C22831   7.416   0.956   5.487  0.6354  0.5109 -0.7100
  170MOL0     N22832   7.391   0.935   5.638 -1.3509 -0.8384 -0.4514
  170MOL0     C22833   7.314   1.019   5.718 -0.4917 -0.2143 -0.2488
  170MOL0     C22834   7.326   0.965   5.842 -0.0839 -0.5070  0.2784
  170MOL0     C22835   7.259   1.041   5.952  1.0424  0.1109 -0.2870
  170MOL0     C22836   7.103   1.018   5.954 -0.4863  0.3701  0.5499
  170MOL0     C22837   7.045   1.077   6.078 -0.0573  0.3491 -0.5435
  170MOL0     C22838   7.091   0.995   6.208 -0.4690 -0.7481  0.8441
  170MOL0     O22839   7.053   0.853   6.185  0.7970 -0.3165  0.2822
  170MOL0     C22840   7.147   0.761   6.219 -0.5278  0.0813 -1.1970
  170MOL0     C22841   7.136   0.707   6.345  0.8055 -0.2457 -0.0499
  170MOL0     C22842   7.223   0.608   6.388  0.4480  0.0839 -0.3794
  170MOL0     C22843   7.182   0.555   6.530 -0.6242 -0.5674  0.6010
  170MOL0     C22844   7.335   0.572   6.302 -0.3718 -0.0641  0.5418
  170MOL0     C22845   7.444   0.469   6.337  1.0545  0.4313  0.8683
  170MOL0     O22846   7.447   0.414   6.462  0.2411  0.0482  0.0554
  170MOL0     C22847   7.553   0.325   6.500  0.8224 -0.6807 -0.0556
  170MOL0     C22848   7.606   0.220   6.426  0.7964 -0.5531  0.5582
  170MOL0     C22849   7.710   0.133   6.467  0.2840 -0.6735 -0.1718
  170MOL0     C22850   7.776   0.159   6.588  0.2375  0.0953  0.5825
  170MOL0     O22851   7.882   0.078   6.628  0.2050  0.3227  0.4046
  170MOL0     C22852   7.894   0.047   6.765  0.5326  0.1069 -0.1784
  170MOL0     C22853   8.016  -0.041   6.793 -0.0633 -0.0917 -0.0358
  170MOL0     C22854   8.023  -0.087   6.937  0.2892 -0.1379  0.1829
  170MOL0     C22855   8.065   0.018   7.035  0.0472 -1.5865 -0.0788
  170MOL0     C22856   8.061  -0.008   7.187  0.5418 -0.1129  0.0980
  170MOL0     C22857   8.188  -0.076   7.234 -0.6936 -0.2486  0.7008
  170MOL0     C22858   8.179  -0.145   7.368 -0.0360  0.0704  1.1668
  170MOL0     C22859   8.073  -0.258   7.383 -1.2412 -0.5852  0.2114
  170MOL0    Cl22860   8.058  -0.355   7.236 -0.3702  0.8459  0.1791
  170MOL0     C22861   7.725   0.272   6.661  0.9026  0.3211  0.0621
  170MOL0     C22862   7.612   0.347   6.617  0.2939 -0.3257  0.0096
  170MOL0     O22863   7.501   0.418   6.241 -0.2655  0.0735 -1.0701
  170MOL0     C22864   7.346   0.636   6.181 -0.3262 -0.4617 -1.4351
  170MOL0     C22865   7.253   0.735   6.144  0.7286 -0.1359 -0.0908
  170MOL0     N22866   7.419   0.860   5.836  0.4529  0.6302 -0.2259
  170MOL0     N22867   7.448   0.847   5.713 -0.0108 -0.1177 -1.3031
  170MOL0     C22868   7.857   1.713   5.034 -0.6872  0.3941  0.4872
  170MOL0     C22869   7.867   1.844   4.982 -0.3112  0.1319  0.1941
  170MOL0     C22870   7.758   2.205   4.777 -0.1823 -0.7275  1.6310
  170MOL0     C22871   7.633   2.279   4.767 -0.0223 -0.2668  0.1592
  170MOL0     C22872   7.633   2.415   4.741  0.9005 -0.4126  0.1349
  170MOL0     C22873   7.752   2.482   4.719  0.2108 -0.2612  0.2874
  170MOL0     O22874   7.767   2.615   4.691 -0.3660  0.8734  0.3201
  170MOL0     C22875   7.696   2.704   4.769 -0.6702 -0.3582 -0.7291
  170MOL0     C22876   7.737   2.711   4.911 -0.9292  0.1551 -0.0500
  170MOL0     C22877   7.638   2.774   4.996  0.1503  0.2972 -0.7393
  170MOL0     C22878   7.676   2.832   5.138  0.3042  0.7684 -0.0116
  170MOL0     C22879   7.745   2.962   5.127 -0.4684 -1.1169 -0.6290
  170MOL0     C22880   7.808   3.066   5.098 -0.1891 -1.0383  0.2053
  170MOL0     C22881   7.875   2.413   4.729  0.2511 -0.1146  1.7556
  170MOL0     C22882   7.877   2.272   4.756 -0.0800  0.2100 -0.3947
  170MOL0     H22883   7.926   1.798   4.651 -2.0595 -0.2483 -1.3734
  170MOL0     H22884   7.880   1.544   4.736 -0.3201 -1.6606  2.1121
  170MOL0     H22885   7.922   1.490   5.184 -1.4524 -0.7523  1.4648
  170MOL0     H22886   7.751   1.457   5.146  0.3200 -0.5815  0.5606
  170MOL0     H22887   7.994   1.284   5.073  0.5099  1.0759 -0.9165
  170MOL0     H22888   7.913   1.251   5.221 -0.1481 -1.7767 -0.1188
  170MOL0     H22889   7.815   1.222   4.934  0.6140 -2.5646  0.1115
  170MOL0     H22890   7.839   1.092   5.049  2.4942 -0.3295 -4.5943
  170MOL0     H22891   7.592   1.292   5.088 -0.7476  0.3787  0.6987
  170MOL0     H22892   7.591   1.124   5.043  0.5100  1.4866 -1.8514
  170MOL0     H22893   7.733   1.084   5.262  0.2717 -0.5948 -2.3801
  170MOL0     H22894   7.678   1.247   5.296 -1.2546  0.2137  0.9600
  170MOL0     H22895   7.434   1.168   5.283  1.3454  0.7201 -0.3883
  170MOL0     H22896   7.503   1.006   5.242 -0.3395 -0.3105  1.2701
  170MOL0     H22897   7.610   1.045   5.484 -0.1680  1.7422  0.3074
  170MOL0     H22898   7.478   1.161   5.489  1.7339 -0.3952  0.1262
  170MOL0     H22899   7.453   0.860   5.449  0.9098  1.2270 -2.3168
  170MOL0     H22900   7.314   0.965   5.448  0.2214 -2.1988 -0.4841
  170MOL0     H22901   7.261   1.111   5.693  1.9110  1.2688 -0.1744
  170MOL0     H22902   7.311   1.023   6.047 -0.3156  2.1818  0.9262
  170MOL0     H22903   7.269   1.148   5.935 -2.8121  0.4221 -1.4254
  170MOL0     H22904   7.088   0.910   5.946 -0.1866  0.4461 -1.6954
  170MOL0     H22905   7.050   1.063   5.869  1.1002 -2.9170 -2.4715
  170MOL0     H22906   6.936   1.078   6.090  0.1676  0.6906  1.9975
  170MOL0     H22907   7.070   1.183   6.077  1.2435  0.0602 -0.5839
  170MOL0     H22908   7.040   1.025   6.300  0.4459 -1.2363  1.5263
  170MOL0     H22909   7.200   1.002   6.210 -0.4095 -0.4758 -1.0372
  170MOL0     H22910   7.065   0.763   6.405 -1.0049  1.0711 -3.1957
  170MOL0     H22911   7.148   0.641   6.589  1.8871  0.8990  0.0221
  170MOL0     H22912   7.103   0.483   6.506  0.1723 -0.7676 -1.6207
  170MOL0     H22913   7.258   0.503   6.588  1.3370  0.2633 -1.1127
  170MOL0     H22914   7.577   0.209   6.321  2.6164 -3.0278  0.2119
  170MOL0     H22915   7.748   0.057   6.400 -1.4488  0.5787 -2.7371
  170MOL0     H22916   7.905   0.144   6.814 -0.5038  0.4994 -0.6897
  170MOL0     H22917   7.807  -0.006   6.804  0.5262 -0.2034 -0.6092
  170MOL0     H22918   8.011  -0.125   6.724  1.5519  1.1730 -1.7800
  170MOL0     H22919   8.106   0.014   6.765  1.5440 -2.3034  0.4979
  170MOL0     H22920   8.094  -0.168   6.955  0.9109  0.3909  0.1453
  170MOL0     H22921   7.927  -0.126   6.971  1.2894 -0.8693  2.3657
  170MOL0     H22922   8.166   0.046   7.003  0.0982 -2.0587 -0.3442
  170MOL0     H22923   7.995   0.102   7.030 -0.7547 -2.1726  1.0650
  170MOL0     H22924   7.974  -0.073   7.203  2.1639 -2.8980 -1.5582
  170MOL0     H22925   8.046   0.083   7.246 -4.1468 -0.0694 -0.7516
  170MOL0     H22926   8.215  -0.154   7.162 -1.1734 -1.5863  1.9167
  170MOL0     H22927   8.267  -0.000   7.241 -0.5013  0.1468 -3.3692
  170MOL0     H22928   8.162  -0.061   7.436 -1.5371 -1.2938  2.5362
  170MOL0     H22929   8.275  -0.194   7.390  0.8357  0.8013 -0.7556
  170MOL0     H22930   7.975  -0.226   7.420 -1.1443  1.0613 -0.8701
  170MOL0     H22931   8.121  -0.315   7.463 -1.5462 -0.0462  0.7875
  170MOL0     H22932   7.769   0.299   6.757  1.2856  0.3364 -0.1156
  170MOL0     H22933   7.580   0.423   6.687  0.7432  2.8871 -2.9887
  170MOL0     H22934   7.425   0.618   6.108  0.1982 -1.8823 -0.5622
  170MOL0     H22935   7.255   0.775   6.043  1.4863  1.6122  0.5985
  170MOL0     H22936   7.868   1.690   5.140 -4.3841 -1.2060  0.6653
  170MOL0     H22937   7.875   1.930   5.047  0.0221  0.8097 -0.7088
  170MOL0     H22938   7.539   2.231   4.792  2.2712 -5.4864  0.0714
  170MOL0     H22939   7.548   2.482   4.736  2.4918  1.7492  0.8077
  170MOL0     H22940   7.699   2.805   4.728 -2.7603 -0.9579 -2.6169
  170MOL0     H22941   7.588   2.686   4.778 -0.5764 -0.6078 -0.0498
  170MOL0     H22942   7.834   2.762   4.922  1.0002 -3.4524  1.5302
  170MOL0     H22943   7.749   2.612   4.955 -2.3329 -0.8112 -1.7291
  170MOL0     H22944   7.564   2.694   5.003  2.8433 -2.2611  1.4766
  170MOL0     H22945   7.599   2.851   4.928 -3.2816 -2.9118 -2.7761
  170MOL0     H22946   7.732   2.756   5.193  1.0905 -0.4889 -2.3828
  170MOL0     H22947   7.580   2.856   5.185 -0.0672  0.0144 -0.3730
  170MOL0     H22948   7.845   3.165   5.081 -3.1233  0.4782  1.9300
  170MOL0     H22949   7.972   2.460   4.713  0.3833 -1.0858 -0.7926
  170MOL0     H22950   7.977   2.232   4.765 -0.4858 -0.8012 -0.2025
  171MOL0     O22951   6.237   3.534   3.337  0.4060 -0.3899 -0.0164
  171MOL0     C22952   6.272   3.574   3.446 -0.6070  0.0863  0.4994
  171MOL0     O22953   6.341   3.685   3.470 -0.0833 -0.0462  0.0663
  171MOL0     C22954   6.432   3.730   3.384  0.2354 -0.0592 -0.4021
  171MOL0     C22955   6.518   3.643   3.309  0.7729  0.3070  0.5457
  171MOL0     C22956   6.637   3.688   3.261 -0.4303  0.5845  0.2767
  171MOL0     C22957   6.677   3.822   3.290  0.1330  0.5012  1.3083
  171MOL0     O22958   6.801   3.871   3.247  0.1630 -0.4966 -0.3279
  171MOL0     C22959   6.879   3.821   3.129  0.2602  0.3097  0.6079
  171MOL0     C22960   6.808   3.823   2.998  0.6459 -0.0001  0.4902
  171MOL0     C22961   6.756   3.963   2.967 -1.2453  0.1687  0.3019
  171MOL0     C22962   6.714   3.959   2.821 -0.4035 -0.0876 -0.0314
  171MOL0     C22963   6.677   4.100   2.780  0.2347  0.5188  0.3772
  171MOL0     C22964   6.613   4.091   2.643 -0.5105  0.0721  0.8711
  171MOL0     C22965   6.609   4.232   2.583 -0.5453 -0.5310  0.3093
  171MOL0     C22966   6.536   4.241   2.443  0.5636  0.0805 -0.2056
  171MOL0     N22967   6.507   4.386   2.423 -0.4198  0.6220  0.5873
  171MOL0     C22968   6.399   4.462   2.449 -0.7084 -0.1471  0.8957
  171MOL0     C22969   6.431   4.588   2.415  0.5094 -0.2590 -0.2785
  171MOL0     C22970   6.338   4.702   2.431  0.1081 -0.7186 -1.3222
  171MOL0     C22971   6.371   4.770   2.564  0.5095  0.2042  0.0196
  171MOL0     C22972   6.281   4.890   2.594 -0.8262 -0.0325  0.0788
  171MOL0     C22973   6.352   4.983   2.703  0.0087 -1.0601  0.0418
  171MOL0     O22974   6.469   5.030   2.643 -0.6953 -0.3530 -0.0411
  171MOL0     C22975   6.585   5.044   2.716 -0.1813 -1.2118  0.0961
  171MOL0     C22976   6.600   4.993   2.844  0.0037 -0.5215  0.5218
  171MOL0     C22977   6.721   5.009   2.921  0.3999  0.1002 -0.9500
  171MOL0     C22978   6.737   4.966   3.064  0.4049  0.0291 -0.1400
  171MOL0     C22979   6.836   5.073   2.858  0.4986 -0.5787  0.6102
  171MOL0     C22980   6.968   5.096   2.916 -0.9025 -0.1225 -0.6281
  171MOL0     O22981   7.079   5.088   2.829  0.1749  0.4726  0.8288
  171MOL0     C22982   7.210   5.085   2.875  0.2304  0.1442 -0.3050
  171MOL0     C22983   7.251   4.995   2.978  0.4024 -0.5214 -0.2224
  171MOL0     C22984   7.387   4.996   3.015  0.3809 -0.4194 -0.6912
  171MOL0     C22985   7.475   5.088   2.966  0.8834  0.2565 -0.3690
  171MOL0     O22986   7.604   5.075   3.015 -0.7595 -0.5734 -0.3171
  171MOL0     C22987   7.717   5.159   2.979 -0.6371  0.3160 -0.3396
  171MOL0     C22988   7.832   5.125   3.070  0.1291 -0.2293  0.7236
  171MOL0     C22989   7.895   4.998   3.031 -0.4140  0.2054  1.3580
  171MOL0     C22990   7.966   4.935   3.151  0.5339 -0.2513  1.1047
  171MOL0     C22991   8.065   4.832   3.104 -0.3079  0.6343  0.0864
  171MOL0     C22992   8.144   4.782   3.233  0.5738  0.4176  0.2731
  171MOL0     C22993   8.237   4.673   3.198 -0.5529  0.0431 -0.1679
  171MOL0     C22994   8.321   4.614   3.302 -0.1639 -0.5118 -0.0875
  171MOL0    Cl22995   8.234   4.584   3.461 -0.1426 -0.2010  0.0464
  171MOL0     C22996   7.443   5.184   2.870  0.9074  0.4243 -0.2816
  171MOL0     C22997   7.309   5.169   2.824  0.2903  0.2187  0.6122
  171MOL0     O22998   6.971   5.136   3.032 -1.1494  0.3683 -0.3248
  171MOL0     C22999   6.829   5.100   2.724  0.0442  0.5892 -0.2223
  171MOL0     C23000   6.703   5.099   2.658 -0.1973  0.6542  1.2174
  171MOL0     N23001   6.558   4.588   2.372 -0.2456 -0.0749 -0.2266
  171MOL0     N23002   6.605   4.471   2.367  0.4762  1.3293 -0.1138
  171MOL0     C23003   6.593   3.908   3.363  0.2044 -0.7278  0.3334
  171MOL0     C23004   6.473   3.854   3.423 -0.3432 -0.3461 -0.0163
  171MOL0     C23005   6.197   3.531   3.571  0.3578 -0.3187 -0.5551
  171MOL0     C23006   6.219   3.578   3.710 -0.0022  0.5971  0.0014
  171MOL0     C23007   6.130   3.530   3.812  0.3669 -0.2625  0.1760
  171MOL0     C23008   6.014   3.450   3.777  0.0120  0.8804 -0.6525
  171MOL0     O23009   5.918   3.396   3.861 -0.1234 -0.6106 -0.5330
  171MOL0     C23010   5.934   3.407   4.008  0.5903  1.0606 -0.7119
  171MOL0     C23011   5.989   3.283   4.073 -0.1684  0.8588 -0.0967
  171MOL0     C23012   5.891   3.216   4.165 -0.2915 -0.1223  0.6827
  171MOL0     C23013   5.810   3.089   4.106 -0.0762  0.3606  0.0752
  171MOL0     C23014   5.693   3.118   4.021  0.3504  0.0513 -0.2605
  171MOL0     C23015   5.594   3.155   3.957  0.6341  0.1291  0.4497
  171MOL0     C23016   6.000   3.415   3.652  0.6813 -0.1499  0.7810
  171MOL0     C23017   6.084   3.453   3.554  0.3708 -0.1093  0.0543
  171MOL0     H23018   6.496   3.540   3.283  1.0125 -0.1930  2.1918
  171MOL0     H23019   6.699   3.610   3.218  0.8833  0.5453  2.1553
  171MOL0     H23020   6.965   3.888   3.122  0.2029  0.4384  1.1014
  171MOL0     H23021   6.922   3.722   3.147 -3.1537 -1.2551  0.9966
  171MOL0     H23022   6.874   3.788   2.918 -0.9343 -0.0754 -0.8386
  171MOL0     H23023   6.715   3.766   2.994 -2.1606  4.0657  1.6021
  171MOL0     H23024   6.671   4.001   3.025 -1.1008  3.1646 -1.2761
  171MOL0     H23025   6.846   4.023   2.986  0.6607 -2.2866 -0.4710
  171MOL0     H23026   6.804   3.950   2.758 -0.9743 -0.6114 -0.7836
  171MOL0     H23027   6.646   3.878   2.794  1.7122 -2.6814  1.8444
  171MOL0     H23028   6.609   4.145   2.853 -1.3475  1.4776 -1.5949
  171MOL0     H23029   6.764   4.167   2.778  1.3010 -0.7525 -2.8897
  171MOL0     H23030   6.680   4.032   2.579 -0.5901  1.6686 -0.7423
  171MOL0     H23031   6.514   4.047   2.659 -0.7215  0.5939  1.0203
  171MOL0     H23032   6.554   4.296   2.652  2.7264  1.2923  1.4789
  171MOL0     H23033   6.710   4.271   2.570 -0.3096 -0.6091  1.7252
  171MOL0     H23034   6.446   4.180   2.454 -0.8427  1.9674 -0.8011
  171MOL0     H23035   6.594   4.200   2.360 -1.2558 -0.2425 -1.3799
  171MOL0     H23036   6.307   4.429   2.496  0.0930 -1.7330  1.4338
  171MOL0     H23037   6.346   4.773   2.347 -0.7749 -1.7002 -2.2681
  171MOL0     H23038   6.234   4.670   2.439 -1.1224  3.1946  1.9195
  171MOL0     H23039   6.479   4.791   2.562  0.5562  0.0079 -2.7584
  171MOL0     H23040   6.370   4.697   2.646  2.7623  2.3143  2.0939
  171MOL0     H23041   6.193   4.832   2.623  1.6838 -3.6700  1.2019
  171MOL0     H23042   6.272   4.957   2.508  0.8837 -0.2474 -0.2938
  171MOL0     H23043   6.353   4.934   2.800 -0.4817 -0.1023  0.5419
  171MOL0     H23044   6.287   5.070   2.713  4.2849  2.2951  1.7370
  171MOL0     H23045   6.526   4.926   2.886  0.6608 -1.2604  0.5196
  171MOL0     H23046   6.832   4.915   3.084 -0.6309 -2.9807 -2.1909
  171MOL0     H23047   6.722   5.048   3.135 -0.6203 -0.9882  0.8776
  171MOL0     H23048   6.647   4.908   3.089  0.3108 -0.2779 -1.1616
  171MOL0     H23049   7.172   4.932   3.018  0.0806  0.0743  0.0861
  171MOL0     H23050   7.423   4.939   3.100  0.1473  1.8983  1.0442
  171MOL0     H23051   7.749   5.140   2.876  3.7973  3.6095  0.1248
  171MOL0     H23052   7.702   5.267   2.988  2.2080  0.9212 -1.5873
  171MOL0     H23053   7.901   5.210   3.062  1.5093 -1.2727  1.3630
  171MOL0     H23054   7.803   5.131   3.175  1.4265  1.9885  1.0328
  171MOL0     H23055   7.955   5.023   2.943 -1.2670 -2.1022  0.0124
  171MOL0     H23056   7.826   4.920   2.998 -0.7006  1.0783 -0.1777
  171MOL0     H23057   8.021   5.019   3.194  2.1187  0.8774 -2.7572
  171MOL0     H23058   7.894   4.885   3.217  0.0207 -1.3414 -0.2344
  171MOL0     H23059   8.124   4.867   3.018  2.9833 -2.5394  0.8042
  171MOL0     H23060   8.021   4.748   3.051 -0.7252  2.9543 -3.6489
  171MOL0     H23061   8.210   4.860   3.271 -0.6885 -0.3566  4.6486
  171MOL0     H23062   8.078   4.762   3.318  0.8671 -2.3828 -0.0450
  171MOL0     H23063   8.309   4.715   3.128 -0.4115  0.9117  0.4721
  171MOL0     H23064   8.174   4.597   3.151 -0.7008 -0.0336  0.1469
  171MOL0     H23065   8.387   4.693   3.339 -1.0286  0.4496 -0.5408
  171MOL0     H23066   8.368   4.521   3.269 -1.6975 -0.9541 -1.1745
  171MOL0     H23067   7.506   5.265   2.837  0.8484  0.6204  0.0833
  171MOL0     H23068   7.285   5.225   2.734  1.3726 -1.1406 -0.5669
  171MOL0     H23069   6.916   5.136   2.670 -0.7541  0.1082 -1.9032
  171MOL0     H23070   6.715   5.122   2.552  1.1413  1.1756  1.4663
  171MOL0     H23071   6.627   4.011   3.373 -1.1905 -0.4887  4.3466
  171MOL0     H23072   6.413   3.919   3.486 -0.9174 -1.5558  0.7135
  171MOL0     H23073   6.310   3.627   3.742 -1.0526  2.1792  0.7209
  171MOL0     H23074   6.141   3.556   3.916 -3.2451  0.8285  0.4368
  171MOL0     H23075   5.998   3.491   4.036  2.5125 -0.9158  1.3344
  171MOL0     H23076   5.837   3.421   4.056  1.1854 -2.5570  2.0399
  171MOL0     H23077   6.079   3.318   4.124 -1.4889  1.2229  2.1395
  171MOL0     H23078   6.012   3.216   3.989 -0.3579 -0.6482  1.0067
  171MOL0     H23079   5.818   3.291   4.195  0.7339  2.2225 -2.1630
  171MOL0     H23080   5.953   3.188   4.251  0.7012 -5.0689 -1.2654
  171MOL0     H23081   5.755   3.050   4.192 -0.8395  1.8716  0.2969
  171MOL0     H23082   5.883   3.016   4.068 -0.2402  0.7098 -0.9374
  171MOL0     H23083   5.517   3.183   3.887 -0.1120  0.4503  1.3780
  171MOL0     H23084   5.927   3.343   3.616  1.8931 -1.1999  0.3496
  171MOL0     H23085   6.071   3.423   3.451 -3.4220 -1.6999  0.7909
  172MOL0     O23086   8.496  10.567  10.549 -0.1454  1.7218 -0.4069
  172MOL0     C23087   8.408  10.617  10.486 -0.3506  0.5692  0.1179
  172MOL0     O23088   8.284  10.555  10.454 -0.6296  0.4010  0.2799
  172MOL0     C23089   8.251  10.424  10.495 -0.0145 -0.6262  0.2468
  172MOL0     C23090   8.122  10.386  10.478  0.1153 -1.3334  0.9185
  172MOL0     C23091   8.064  10.258  10.492  0.2142 -0.3129  0.2675
  172MOL0     C23092   8.149  10.151  10.533  0.1745 -0.2512  0.1724
  172MOL0     O23093   8.106  10.026  10.524 -0.3401  0.2814  0.6738
  172MOL0     C23094   8.171   9.932  10.614 -0.0417 -0.1187 -0.2999
  172MOL0     C23095   8.121   9.786  10.587  0.7777 -0.1521  1.0889
  172MOL0     C23096   8.127   9.744  10.431 -0.1073  0.1280  0.0707
  172MOL0     C23097   7.991   9.720  10.363 -0.1694  0.5228 -0.2696
  172MOL0     C23098   7.916   9.585  10.405  1.1009 -0.5141 -0.8066
  172MOL0     C23099   7.976   9.475  10.326 -0.6281 -0.2095 -0.5948
  172MOL0     C23100   7.900   9.344  10.325  0.3952  0.2979  0.2626
  172MOL0     C23101   7.904   9.285  10.467  1.0250  0.6145  0.4072
  172MOL0     N23102   7.884   9.138  10.462 -0.3692  0.0299  0.0860
  172MOL0     C23103   7.764   9.083  10.416 -0.3616  0.3760  0.0104
  172MOL0     C23104   7.795   8.952  10.416 -0.4707 -0.4529 -0.9629
  172MOL0     C23105   7.700   8.842  10.404  0.1041 -0.2233  0.5635
  172MOL0     C23106   7.749   8.707  10.440 -0.3793  0.5713 -0.8202
  172MOL0     C23107   7.632   8.613  10.454  0.0854 -0.4419 -0.2937
  172MOL0     C23108   7.675   8.467  10.459  0.3071 -0.6852  0.1411
  172MOL0     O23109   7.556   8.378  10.445 -0.5480 -0.2096 -0.2082
  172MOL0     C23110   7.519   8.328  10.321 -0.0983 -0.3843  0.2360
  172MOL0     C23111   7.574   8.381  10.199  0.6203  0.6139 -0.7198
  172MOL0     C23112   7.549   8.320  10.081 -0.4102 -0.3794  0.0804
  172MOL0     C23113   7.603   8.405   9.955 -0.6164 -0.1984 -0.3763
  172MOL0     C23114   7.469   8.207  10.074 -0.8352  0.1078  0.4486
  172MOL0     C23115   7.447   8.141   9.940  1.2923  1.5040  0.0129
  172MOL0     O23116   7.309   8.099   9.925  0.1938  0.0704  0.2093
  172MOL0     C23117   7.271   8.067   9.798 -0.7758  0.4749 -0.5054
  172MOL0     C23118   7.230   8.175   9.723 -0.3315  0.3266  0.8665
  172MOL0     C23119   7.165   8.148   9.597 -0.1603 -0.0962 -0.9243
  172MOL0     C23120   7.150   8.015   9.543 -0.0653 -0.0880 -0.3242
  172MOL0     O23121   7.108   7.990   9.421  0.1450  0.4556 -0.0289
  172MOL0     C23122   7.053   8.080   9.321  0.8713 -0.9942  0.0050
  172MOL0     C23123   6.984   7.998   9.209  0.0237  0.3778 -0.5126
  172MOL0     C23124   6.946   8.082   9.087  0.0386 -0.2048  0.2374
  172MOL0     C23125   6.919   7.998   8.965  0.0367  0.5360 -0.2139
  172MOL0     C23126   6.782   7.930   8.942  0.0975 -0.1053 -0.5748
  172MOL0     C23127   6.724   7.862   9.058  0.9241 -0.3808 -0.1579
  172MOL0     C23128   6.601   7.771   9.033  0.8152  0.0662  0.5097
  172MOL0     C23129   6.523   7.730   9.152  0.2477 -0.1547 -1.1913
  172MOL0    Cl23130   6.431   7.859   9.234  0.2929  0.1125  0.0960
  172MOL0     C23131   7.191   7.906   9.625  0.6141  0.6180 -0.4283
  172MOL0     C23132   7.247   7.932   9.757 -0.2169 -0.1051 -0.0731
  172MOL0     O23133   7.536   8.140   9.857  0.6943 -0.2250  0.5878
  172MOL0     C23134   7.393   8.171  10.190 -0.2026 -0.9320 -0.1077
  172MOL0     C23135   7.416   8.235  10.311  0.1886 -0.7413 -0.6048
  172MOL0     N23136   7.926   8.927  10.468  0.5569 -0.3825  0.9322
  172MOL0     N23137   7.976   9.044  10.490  0.1489  0.0215  1.1951
  172MOL0     C23138   8.289  10.190  10.540 -0.9134 -0.8512  0.6651
  172MOL0     C23139   8.336  10.325  10.521 -1.3176 -0.2075 -0.2392
  172MOL0     C23140   8.436  10.759  10.435 -0.3508 -0.1460  0.2343
  172MOL0     C23141   8.567  10.812  10.442 -0.4585 -0.5069 -0.4754
  172MOL0     C23142   8.602  10.940  10.386 -0.2105  0.4806  0.2284
  172MOL0     C23143   8.507  11.008  10.313 -1.3317 -0.5299  0.2826
  172MOL0     O23144   8.549  11.116  10.243  0.0041 -0.1559 -0.3243
  172MOL0     C23145   8.451  11.219  10.203  0.1164 -0.3458  0.0738
  172MOL0     C23146   8.404  11.297  10.329 -0.3934  0.1198 -0.0578
  172MOL0     C23147   8.515  11.355  10.405 -0.5003  0.2420  0.3767
  172MOL0     C23148   8.465  11.475  10.489 -0.0884  1.1633 -0.5710
  172MOL0     C23149   8.382  11.444  10.603  0.5677 -0.0631  1.0781
  172MOL0     C23150   8.317  11.418  10.704  0.0533  0.0200 -0.3963
  172MOL0     C23151   8.376  10.953  10.305 -0.5796 -0.0260 -1.0626
  172MOL0     C23152   8.346  10.829  10.361  0.4412  1.3672 -0.3812
  172MOL0     H23153   8.069  10.476  10.447  1.8040 -0.9673 -1.1561
  172MOL0     H23154   7.963  10.236  10.458  0.4325 -2.2568  0.7224
  172MOL0     H23155   8.278   9.936  10.592  0.3420 -3.7080  0.4492
  172MOL0     H23156   8.165   9.960  10.720  0.3435 -1.8897  0.2153
  172MOL0     H23157   8.185   9.716  10.641  4.1535  1.2988 -0.6276
  172MOL0     H23158   8.020   9.774  10.626 -0.9908  0.9483 -2.6140
  172MOL0     H23159   8.182   9.824  10.381 -2.3911  2.1684  0.6482
  172MOL0     H23160   8.173   9.647  10.452 -2.4114 -0.6563  1.9795
  172MOL0     H23161   7.928   9.801  10.401 -0.2611 -0.2258  1.3006
  172MOL0     H23162   7.997   9.728  10.254  1.9642  1.4375 -0.1225
  172MOL0     H23163   7.937   9.574  10.512 -0.8359  0.8981 -0.2292
  172MOL0     H23164   7.812   9.603  10.378  1.6633  1.4182 -1.9304
  172MOL0     H23165   7.996   9.509  10.224 -0.2888 -1.0407 -0.8168
  172MOL0     H23166   8.067   9.446  10.380 -0.5345  3.0586  1.2346
  172MOL0     H23167   7.794   9.361  10.305  0.7559 -0.3742 -2.6014
  172MOL0     H23168   7.939   9.272  10.253  2.0254  0.9775  0.4336
  172MOL0     H23169   7.827   9.332  10.529 -1.0650  0.5290 -1.9707
  172MOL0     H23170   8.002   9.297  10.513  2.5259 -0.0708 -2.4193
  172MOL0     H23171   7.672   9.136  10.393  0.8939  3.7219  1.8955
  172MOL0     H23172   7.619   8.872  10.471 -1.6961 -1.5469 -0.9315
  172MOL0     H23173   7.660   8.844  10.303  0.0780 -0.3594  0.5714
  172MOL0     H23174   7.806   8.711  10.534  2.5407  0.1599 -2.4342
  172MOL0     H23175   7.809   8.676  10.354 -1.4555 -0.0700 -1.3496
  172MOL0     H23176   7.564   8.633  10.371  3.1067 -1.9103 -3.3774
  172MOL0     H23177   7.575   8.637  10.544 -0.7486  0.5967 -1.0712
  172MOL0     H23178   7.715   8.461  10.560 -0.1347  1.8633  0.5377
  172MOL0     H23179   7.748   8.457  10.378  1.3217  4.8228 -0.0337
  172MOL0     H23180   7.643   8.464  10.192  1.7652 -0.3480 -1.2876
  172MOL0     H23181   7.698   8.370   9.914 -1.3080 -1.0096 -1.3056
  172MOL0     H23182   7.528   8.379   9.880  0.2513 -1.9704 -0.6840
  172MOL0     H23183   7.589   8.513   9.968 -2.1217 -0.6519  2.8233
  172MOL0     H23184   7.262   8.271   9.762  0.3898  0.4831 -0.0884
  172MOL0     H23185   7.150   8.236   9.534  2.8611  1.5274  0.4093
  172MOL0     H23186   6.969   8.133   9.366  1.4268 -1.2555  1.4071
  172MOL0     H23187   7.134   8.144   9.287 -0.0273 -0.1290 -0.5566
  172MOL0     H23188   7.046   7.909   9.197  1.9021  1.2782  1.6525
  172MOL0     H23189   6.893   7.965   9.259  0.5837  1.3732  1.2633
  172MOL0     H23190   7.028   8.153   9.076 -0.8577  0.7424 -0.5308
  172MOL0     H23191   6.857   8.142   9.105  0.1370  0.5378 -1.5649
  172MOL0     H23192   6.943   8.070   8.886  3.0032 -0.3281 -0.1967
  172MOL0     H23193   6.993   7.919   8.950 -0.7371 -0.2983  0.2511
  172MOL0     H23194   6.793   7.868   8.853  3.3383 -1.5140  0.6616
  172MOL0     H23195   6.704   8.002   8.916 -0.6289 -0.4967  0.4609
  172MOL0     H23196   6.804   7.804   9.105  0.0093  0.5606  2.7810
  172MOL0     H23197   6.701   7.936   9.135  3.2411  0.2771 -0.0100
  172MOL0     H23198   6.642   7.684   8.981 -1.6097 -1.0074  0.2439
  172MOL0     H23199   6.530   7.810   8.960  0.7214  1.2011  1.1805
  172MOL0     H23200   6.593   7.682   9.221 -0.5716  1.2385  0.6997
  172MOL0     H23201   6.461   7.649   9.112  2.1459 -1.1081 -2.3197
  172MOL0     H23202   7.184   7.810   9.574  1.4298 -1.8307  3.5889
  172MOL0     H23203   7.272   7.854   9.827  2.1127  2.1973  1.8688
  172MOL0     H23204   7.316   8.096  10.182 -2.1693  1.0699 -1.0386
  172MOL0     H23205   7.368   8.211  10.405 -3.8112 -1.9102 -2.7084
  172MOL0     H23206   8.375  10.124  10.549 -0.2477 -0.0203  0.4494
  172MOL0     H23207   8.444  10.335  10.523 -0.9299 -3.3094  0.2188
  172MOL0     H23208   8.645  10.769  10.505  0.0817  1.0209 -0.0372
  172MOL0     H23209   8.704  10.973  10.404  0.3286 -0.9866 -0.0069
  172MOL0     H23210   8.506  11.292  10.143  0.2566 -1.4705 -1.2013
  172MOL0     H23211   8.372  11.179  10.140  2.0761 -1.9873 -1.5014
  172MOL0     H23212   8.340  11.231  10.389  0.3526 -0.8630 -0.3134
  172MOL0     H23213   8.346  11.380  10.288 -0.0450 -0.2326 -1.3269
  172MOL0     H23214   8.595  11.396  10.344  0.2001 -0.9353  0.4864
  172MOL0     H23215   8.561  11.286  10.476  0.6457  0.3304 -0.2703
  172MOL0     H23216   8.405  11.543  10.428  1.0721  1.5959 -1.2460
  172MOL0     H23217   8.553  11.532  10.520  2.1612 -0.9658 -2.6223
  172MOL0     H23218   8.257  11.395  10.789 -0.4204 -0.9022 -0.9704
  172MOL0     H23219   8.306  11.005  10.241  2.0306  1.1505 -3.1535
  172MOL0     H23220   8.244  10.798  10.339  0.2134  2.7383 -1.3484
  173MOL0     O23221   3.624   7.340   3.158  0.1093  0.2972 -0.9184
  173MOL0     C23222   3.628   7.407   3.262  0.5570 -0.1398 -0.4837
  173MOL0     O23223   3.614   7.545   3.274  0.3639  1.0293 -0.2114
  173MOL0     C23224   3.597   7.611   3.164 -0.0973 -1.1260  0.5802
  173MOL0     C23225   3.692   7.682   3.085  0.7192  0.2270 -1.0420
  173MOL0     C23226   3.657   7.754   2.969 -0.1432 -0.1600 -0.1520
  173MOL0     C23227   3.521   7.754   2.932 -0.3353  0.7128 -0.2765
  173MOL0     O23228   3.460   7.810   2.825 -0.0439 -0.6880 -0.4261
  173MOL0     C23229   3.524   7.924   2.756  0.6185  0.6321 -0.5524
  173MOL0     C23230   3.480   8.034   2.850 -0.3816  0.0772 -0.0415
  173MOL0     C23231   3.581   8.145   2.815 -0.6709  0.1350 -0.2207
  173MOL0     C23232   3.552   8.193   2.672 -0.2568 -0.4847 -0.3787
  173MOL0     C23233   3.653   8.310   2.639 -0.0640  0.2151 -0.3596
  173MOL0     C23234   3.627   8.388   2.510 -0.4261  0.6218  0.0466
  173MOL0     C23235   3.489   8.452   2.494 -0.3309 -1.2755 -0.1913
  173MOL0     C23236   3.501   8.573   2.403  0.0305 -0.4012  0.3941
  173MOL0     N23237   3.584   8.683   2.465  0.3936 -0.2789  0.2775
  173MOL0     C23238   3.682   8.747   2.403  0.5029 -0.5203  0.6580
  173MOL0     C23239   3.697   8.854   2.483 -0.7302  0.3620  0.1407
  173MOL0     C23240   3.805   8.954   2.457  0.0949  0.4855 -0.0029
  173MOL0     C23241   3.936   8.873   2.484  0.4595  1.4963 -0.1633
  173MOL0     C23242   4.063   8.953   2.495 -0.4290  0.4456 -0.0949
  173MOL0     C23243   4.182   8.859   2.522  1.1432 -1.1031  0.3501
  173MOL0     O23244   4.306   8.932   2.557  0.0435  0.4683 -0.1830
  173MOL0     C23245   4.422   8.849   2.548  0.8147 -0.4642  0.5684
  173MOL0     C23246   4.423   8.705   2.537  0.5307  0.1933 -0.2447
  173MOL0     C23247   4.549   8.640   2.558  0.2388 -0.4809  0.5456
  173MOL0     C23248   4.547   8.490   2.542 -0.0229 -0.2418 -0.6149
  173MOL0     C23249   4.665   8.710   2.590 -0.6740 -0.5746 -0.4134
  173MOL0     C23250   4.791   8.644   2.629 -0.2077 -0.6803 -0.5098
  173MOL0     O23251   4.845   8.583   2.526 -0.9886 -0.4989 -0.1443
  173MOL0     C23252   4.964   8.510   2.550  0.4159 -0.6166  0.3211
  173MOL0     C23253   4.970   8.411   2.645 -0.2281 -0.5337  0.0584
  173MOL0     C23254   5.088   8.341   2.662 -0.4288 -0.4752 -0.0457
  173MOL0     C23255   5.210   8.385   2.603 -0.2172 -0.6329 -0.1115
  173MOL0     O23256   5.324   8.322   2.641 -0.2799 -0.3907  0.4233
  173MOL0     C23257   5.451   8.331   2.581 -0.1052  0.1775  0.0270
  173MOL0     C23258   5.531   8.458   2.601  1.3551 -1.0105 -0.2683
  173MOL0     C23259   5.670   8.434   2.533 -0.6831  0.2979  0.5717
  173MOL0     C23260   5.771   8.502   2.622 -0.2503  0.0007  0.7940
  173MOL0     C23261   5.909   8.498   2.564  0.4068  0.9405 -0.0792
  173MOL0     C23262   5.976   8.368   2.546 -0.0694 -0.0557  0.6707
  173MOL0     C23263   5.975   8.266   2.660 -0.0069 -0.9229 -0.5089
  173MOL0     C23264   6.093   8.170   2.642  0.7086  0.7328 -0.4113
  173MOL0    Cl23265   6.056   8.057   2.521  0.3226 -0.1457  0.0593
  173MOL0     C23266   5.206   8.476   2.499  0.2915 -0.1880  0.4372
  173MOL0     C23267   5.091   8.547   2.484  0.8130  1.2629 -0.0783
  173MOL0     O23268   4.830   8.645   2.744 -0.4172 -0.2920  0.9549
  173MOL0     C23269   4.658   8.849   2.593 -0.3321 -0.1923  0.2526
  173MOL0     C23270   4.536   8.913   2.575 -0.4543 -0.6494 -0.2282
  173MOL0     N23271   3.607   8.858   2.595 -0.0174  0.9235 -0.1118
  173MOL0     N23272   3.544   8.746   2.580  0.4832  0.6278  0.5475
  173MOL0     C23273   3.435   7.678   3.009  0.0394 -0.5701  0.0775
  173MOL0     C23274   3.467   7.614   3.128 -0.7602  0.6152 -0.2050
  173MOL0     C23275   3.647   7.322   3.380 -0.0666 -1.5373 -0.4271
  173MOL0     C23276   3.622   7.389   3.507 -0.2183  0.1755  0.3699
  173MOL0     C23277   3.639   7.326   3.627  0.1055  0.6398  0.2765
  173MOL0     C23278   3.672   7.191   3.631 -0.3896  0.0825 -0.5640
  173MOL0     O23279   3.691   7.142   3.761 -0.2853  0.0852  0.0505
  173MOL0     C23280   3.773   7.021   3.761 -1.0020  0.7020 -0.2667
  173MOL0     C23281   3.791   6.975   3.906 -0.2064  0.4409 -0.6534
  173MOL0     C23282   3.672   6.901   3.962  0.0453  0.0288  0.1833
  173MOL0     C23283   3.694   6.848   4.104 -1.1529  0.2412  0.1866
  173MOL0     C23284   3.732   6.966   4.187 -0.3789 -0.0367 -0.5187
  173MOL0     C23285   3.771   7.056   4.256  0.7864 -0.4098  0.6560
  173MOL0     C23286   3.674   7.124   3.508  0.3043  0.0198  0.0874
  173MOL0     C23287   3.672   7.190   3.382  0.4123 -0.3915 -0.5585
  173MOL0     H23288   3.799   7.686   3.106  0.0650  0.5873  2.9486
  173MOL0     H23289   3.738   7.810   2.923 -0.9012  0.6045 -0.5644
  173MOL0     H23290   3.632   7.907   2.755  0.3332 -1.3576 -1.1293
  173MOL0     H23291   3.477   7.947   2.660 -1.9622  2.8111  1.0842
  173MOL0     H23292   3.376   8.062   2.832  0.6291  2.8962 -2.3542
  173MOL0     H23293   3.490   7.997   2.952 -2.6635 -0.6737 -0.0409
  173MOL0     H23294   3.566   8.230   2.883 -1.4834  1.3589 -1.8568
  173MOL0     H23295   3.677   8.096   2.833 -0.5439 -0.0557 -1.3300
  173MOL0     H23296   3.578   8.117   2.598  0.7690 -0.1239 -0.4003
  173MOL0     H23297   3.453   8.237   2.657 -0.0384 -1.1136 -5.0602
  173MOL0     H23298   3.661   8.372   2.728  3.9283 -0.0863 -0.2949
  173MOL0     H23299   3.751   8.262   2.625 -1.1308 -2.1544 -0.1331
  173MOL0     H23300   3.698   8.471   2.523 -2.7952  2.4039  2.9450
  173MOL0     H23301   3.655   8.324   2.426  0.3349  1.9302 -0.7428
  173MOL0     H23302   3.432   8.374   2.442 -1.2394 -0.4525 -0.4534
  173MOL0     H23303   3.440   8.476   2.589  0.4582  1.3891 -0.3668
  173MOL0     H23304   3.402   8.611   2.379  0.8735  3.6344  2.3649
  173MOL0     H23305   3.545   8.543   2.307 -1.0779  0.4434 -0.4083
  173MOL0     H23306   3.720   8.731   2.302  3.6925  2.4987  1.1962
  173MOL0     H23307   3.799   8.981   2.351 -1.1277  2.8496  0.6103
  173MOL0     H23308   3.797   9.047   2.514  3.1508  2.0937 -1.9352
  173MOL0     H23309   3.946   8.808   2.396 -1.4320  2.4546 -1.1514
  173MOL0     H23310   3.923   8.811   2.573  3.9303 -1.6931 -1.6173
  173MOL0     H23311   4.053   9.011   2.587  2.3907 -0.2082  0.7098
  173MOL0     H23312   4.084   9.016   2.409  0.5389  1.6508  0.9872
  173MOL0     H23313   4.203   8.816   2.424 -2.4692 -0.9370 -0.6575
  173MOL0     H23314   4.160   8.779   2.594  1.3495  0.4855  2.2740
  173MOL0     H23315   4.334   8.646   2.522  1.8608 -1.9122 -0.3266
  173MOL0     H23316   4.599   8.458   2.634  0.5616  1.2567 -0.3874
  173MOL0     H23317   4.452   8.436   2.548  0.6867 -1.5804 -0.9371
  173MOL0     H23318   4.602   8.471   2.449 -1.4136 -0.8727 -1.3268
  173MOL0     H23319   4.879   8.380   2.696 -2.4649  1.1190 -2.6365
  173MOL0     H23320   5.086   8.261   2.735  0.9152 -1.7872 -1.3986
  173MOL0     H23321   5.515   8.246   2.607  1.1840  0.7136 -1.2638
  173MOL0     H23322   5.435   8.331   2.473  2.6391 -1.0362 -0.4654
  173MOL0     H23323   5.471   8.528   2.543  2.0684  0.4010  0.6523
  173MOL0     H23324   5.523   8.500   2.702 -1.5296 -1.6334 -0.1553
  173MOL0     H23325   5.680   8.480   2.434  0.6832  0.8222  0.9318
  173MOL0     H23326   5.705   8.331   2.520  0.2163  0.6027  0.5249
  173MOL0     H23327   5.743   8.607   2.620  0.9038  0.3298 -0.4837
  173MOL0     H23328   5.768   8.466   2.725  3.2530  2.5376  1.9817
  173MOL0     H23329   5.975   8.550   2.633  1.0322  0.1291 -0.0440
  173MOL0     H23330   5.912   8.561   2.475 -1.4679  1.6015  0.2858
  173MOL0     H23331   5.927   8.318   2.462  1.7441 -1.0626  0.1617
  173MOL0     H23332   6.082   8.389   2.528  0.5404 -2.5703  0.9982
  173MOL0     H23333   5.887   8.200   2.660  0.3385 -1.3878 -0.2068
  173MOL0     H23334   5.989   8.314   2.757  1.4581 -0.9938 -0.6635
  173MOL0     H23335   6.109   8.109   2.732  2.2682 -2.9692 -2.9411
  173MOL0     H23336   6.182   8.224   2.609  1.4845  0.5871  1.3198
  173MOL0     H23337   5.289   8.501   2.434 -0.6325 -2.1515 -1.6196
  173MOL0     H23338   5.084   8.634   2.419 -0.1465 -0.0023 -1.7616
  173MOL0     H23339   4.741   8.917   2.612  0.2342  0.1734 -2.9677
  173MOL0     H23340   4.542   9.021   2.583  0.1195 -0.5585 -1.5675
  173MOL0     H23341   3.331   7.672   2.979 -0.0328  0.0359  0.1964
  173MOL0     H23342   3.377   7.562   3.161 -0.2199 -0.0305  0.2867
  173MOL0     H23343   3.582   7.486   3.533 -1.2168 -0.7228  2.4345
  173MOL0     H23344   3.607   7.368   3.722 -1.0505 -1.4141  0.8800
  173MOL0     H23345   3.729   6.936   3.709  0.5648 -0.2073 -0.1440
  173MOL0     H23346   3.870   7.032   3.711  1.2060 -2.6088  2.7690
  173MOL0     H23347   3.820   7.057   3.973 -1.8683  0.2402  0.3852
  173MOL0     H23348   3.879   6.910   3.908 -0.6824 -0.3693 -3.3153
  173MOL0     H23349   3.636   6.810   3.914  0.1188 -0.8785  1.8027
  173MOL0     H23350   3.590   6.974   3.965  0.6855  0.7646  0.0025
  173MOL0     H23351   3.776   6.776   4.103  0.2938  1.8098 -0.7867
  173MOL0     H23352   3.607   6.795   4.143 -0.2534 -0.3064  1.5061
  173MOL0     H23353   3.800   7.142   4.313 -1.6835  0.1814  1.1228
  173MOL0     H23354   3.690   7.018   3.488  0.1859 -0.3342  1.7355
  173MOL0     H23355   3.670   7.129   3.292 -4.3854 -3.1667  1.0493
  174MOL0     O23356   4.353   2.422   2.717  0.0335 -0.5434  0.2406
  174MOL0     C23357   4.378   2.538   2.682 -0.5876 -0.2021 -0.9530
  174MOL0     O23358   4.294   2.610   2.611  0.1425  0.0224  0.7559
  174MOL0     C23359   4.175   2.549   2.584 -0.2837  0.5165  0.0027
  174MOL0     C23360   4.134   2.528   2.453  0.2691 -0.5837  0.5295
  174MOL0     C23361   4.004   2.489   2.423  1.1119  0.5517 -0.1483
  174MOL0     C23362   3.907   2.479   2.525 -0.0445  0.9761  0.1680
  174MOL0     O23363   3.784   2.444   2.477 -0.0002  0.0635 -0.3845
  174MOL0     C23364   3.705   2.366   2.569  0.0326  0.2194 -0.7175
  174MOL0     C23365   3.603   2.288   2.481 -0.7840  0.0618 -0.1429
  174MOL0     C23366   3.495   2.381   2.427  0.0273 -0.2669  0.7184
  174MOL0     C23367   3.498   2.401   2.273  0.0274 -0.0118 -0.7251
  174MOL0     C23368   3.366   2.467   2.222 -0.3918  0.6813 -0.0784
  174MOL0     C23369   3.348   2.603   2.289  0.9192 -0.0379  0.3442
  174MOL0     C23370   3.262   2.705   2.206  0.1030  0.0032 -0.4798
  174MOL0     C23371   3.323   2.761   2.074 -0.3947  0.1294 -0.1156
  174MOL0     N23372   3.238   2.878   2.030 -0.4546 -0.3302  0.4457
  174MOL0     C23373   3.236   3.004   2.087 -0.9005 -0.0980  0.6981
  174MOL0     C23374   3.139   3.066   2.023 -0.0267 -0.3334 -0.2856
  174MOL0     C23375   3.077   3.207   2.047  0.6455  0.1656 -0.2697
  174MOL0     C23376   3.138   3.311   1.955 -0.3981 -1.5790 -0.1176
  174MOL0     C23377   3.071   3.449   1.964 -0.4103 -0.0885  0.2218
  174MOL0     C23378   2.922   3.464   1.949  0.5095  0.1451 -0.8621
  174MOL0     O23379   2.890   3.594   1.910 -0.6892  0.1854  0.0777
  174MOL0     C23380   2.885   3.620   1.779  0.8460  0.3235 -0.2680
  174MOL0     C23381   2.813   3.535   1.691 -0.1465 -0.8766 -0.7491
  174MOL0     C23382   2.822   3.556   1.554  0.8944 -0.3032 -0.0916
  174MOL0     C23383   2.749   3.456   1.468  0.2528  0.0691 -0.0074
  174MOL0     C23384   2.883   3.678   1.503  1.3223 -0.0790 -0.3641
  174MOL0     C23385   2.887   3.718   1.364  0.5836  0.1814 -0.0280
  174MOL0     O23386   2.898   3.627   1.268  0.2401 -0.1751 -0.0865
  174MOL0     C23387   2.837   3.661   1.155 -0.4918 -0.0086 -0.7052
  174MOL0     C23388   2.903   3.667   1.027  0.3444 -0.3576  0.1656
  174MOL0     C23389   2.832   3.718   0.923 -0.0636 -0.8025  0.0830
  174MOL0     C23390   2.703   3.755   0.929  0.4637  0.0944 -1.2408
  174MOL0     O23391   2.642   3.797   0.817 -0.3587 -0.0850  0.4442
  174MOL0     C23392   2.508   3.851   0.812  0.6055  0.1859 -0.1977
  174MOL0     C23393   2.489   3.919   0.687  0.8698  0.0802  0.9107
  174MOL0     C23394   2.536   3.841   0.556  0.3634 -0.2510 -0.4839
  174MOL0     C23395   2.472   3.906   0.430 -0.3010 -0.4160 -0.1966
  174MOL0     C23396   2.551   3.858   0.297 -1.1354  0.9587 -0.8694
  174MOL0     C23397   2.699   3.924   0.292 -0.2641 -0.2037  0.4739
  174MOL0     C23398   2.800   3.824   0.237  1.1376  0.3059 -0.6817
  174MOL0     C23399   2.744   3.752   0.111 -0.2146 -0.1497  0.4508
  174MOL0    Cl23400   2.885   3.685  -0.001 -0.0364 -0.1029  0.0366
  174MOL0     C23401   2.634   3.743   1.051 -0.3737  0.2472  0.1868
  174MOL0     C23402   2.699   3.690   1.164 -0.4727 -0.2788  0.0960
  174MOL0     O23403   2.868   3.836   1.342  0.9127  0.0929 -0.1980
  174MOL0     C23404   2.943   3.763   1.602  0.1238 -0.0054  0.2536
  174MOL0     C23405   2.953   3.734   1.738  0.0145 -0.4245  0.8418
  174MOL0     N23406   3.067   2.968   1.949  0.3312 -0.4901 -0.4894
  174MOL0     N23407   3.133   2.861   1.944 -0.1801 -0.3045 -0.5194
  174MOL0     C23408   3.947   2.490   2.657  0.8059 -0.0139 -0.2296
  174MOL0     C23409   4.077   2.515   2.688 -0.2373  0.2146  0.3017
  174MOL0     C23410   4.511   2.600   2.720  0.5848 -0.1801  0.1261
  174MOL0     C23411   4.611   2.528   2.792  0.2864  0.3384 -0.7671
  174MOL0     C23412   4.726   2.585   2.834 -0.6293  0.6263  0.5878
  174MOL0     C23413   4.754   2.718   2.810 -0.6389  0.4907 -0.4105
  174MOL0     O23414   4.868   2.780   2.850 -0.1544  0.4855  0.0373
  174MOL0     C23415   4.962   2.718   2.947 -0.1320  0.6162  0.2858
  174MOL0     C23416   5.069   2.822   3.000 -0.8125 -0.2364  0.0261
  174MOL0     C23417   5.162   2.744   3.102  0.7360  0.0757 -0.7861
  174MOL0     C23418   5.229   2.824   3.214 -0.6279  0.6670 -0.1628
  174MOL0     C23419   5.305   2.728   3.296 -0.2267 -0.0548 -0.8057
  174MOL0     C23420   5.390   2.656   3.351  0.5139 -0.1298 -0.7214
  174MOL0     C23421   4.656   2.791   2.737 -0.1316  0.4773 -0.2733
  174MOL0     C23422   4.533   2.736   2.698 -0.4916  1.0966  0.7969
  174MOL0     H23423   4.210   2.544   2.377 -0.2468  2.1156  0.4873
  174MOL0     H23424   3.978   2.471   2.319 -0.2698  1.4899  0.0112
  174MOL0     H23425   3.760   2.293   2.630  0.2403 -0.1594 -1.3408
  174MOL0     H23426   3.645   2.427   2.637  1.0847  2.1379 -1.4424
  174MOL0     H23427   3.656   2.220   2.414  3.1028  2.2270  0.4049
  174MOL0     H23428   3.549   2.226   2.553 -2.1855  1.6719  0.2505
  174MOL0     H23429   3.398   2.340   2.460  0.6861 -1.8973  0.7165
  174MOL0     H23430   3.489   2.475   2.483  2.8430  0.1148  0.4884
  174MOL0     H23431   3.587   2.456   2.243 -0.5010 -0.3356 -3.0572
  174MOL0     H23432   3.515   2.298   2.239  0.5860 -0.5024  0.9423
  174MOL0     H23433   3.377   2.496   2.117  0.5405  2.3285  0.4488
  174MOL0     H23434   3.275   2.410   2.243  1.1548 -1.7740  0.4643
  174MOL0     H23435   3.308   2.583   2.388 -1.1636  0.4418 -0.3396
  174MOL0     H23436   3.444   2.655   2.304  0.3661  1.9016 -2.1308
  174MOL0     H23437   3.159   2.672   2.192  0.7198 -1.5432 -1.6344
  174MOL0     H23438   3.242   2.785   2.278 -0.1803 -1.1354  0.7446
  174MOL0     H23439   3.302   2.674   2.011 -2.1306  0.1031  0.4339
  174MOL0     H23440   3.429   2.784   2.085 -0.7356  1.1201  1.4980
  174MOL0     H23441   3.288   3.047   2.171  0.4098  1.1783 -0.7088
  174MOL0     H23442   2.968   3.201   2.037  0.2811  1.9925  1.6583
  174MOL0     H23443   3.104   3.233   2.150 -0.1368  1.2371 -0.3190
  174MOL0     H23444   3.153   3.299   1.847 -0.0264  3.8208 -0.9424
  174MOL0     H23445   3.241   3.331   1.986 -0.6076 -3.0990  1.7882
  174MOL0     H23446   3.113   3.505   1.879 -1.5990 -1.2275 -1.1756
  174MOL0     H23447   3.101   3.501   2.055 -0.7084  1.3303 -0.4669
  174MOL0     H23448   2.880   3.439   2.046 -2.3654  3.1174 -1.1588
  174MOL0     H23449   2.886   3.386   1.881  1.8081 -0.3327 -1.0385
  174MOL0     H23450   2.764   3.449   1.736  1.2318 -1.2254  0.1429
  174MOL0     H23451   2.816   3.398   1.403 -1.2277 -0.9364 -0.6933
  174MOL0     H23452   2.694   3.385   1.530  0.0559 -1.2623 -1.6406
  174MOL0     H23453   2.695   3.514   1.393 -0.2832  0.4451  0.6603
  174MOL0     H23454   3.009   3.647   1.013  0.6630 -0.2514  2.0601
  174MOL0     H23455   2.888   3.726   0.830 -1.1329 -1.1565 -0.6021
  174MOL0     H23456   2.434   3.771   0.815 -1.0702  1.6791 -0.0295
  174MOL0     H23457   2.495   3.922   0.894  0.8052 -0.3390  0.2910
  174MOL0     H23458   2.381   3.933   0.673  1.1077  0.0968 -1.3882
  174MOL0     H23459   2.540   4.016   0.687  2.4001 -0.6729 -0.0928
  174MOL0     H23460   2.507   3.736   0.558  0.6209 -0.4578 -3.4724
  174MOL0     H23461   2.645   3.844   0.543  0.0031  1.6042 -4.2541
  174MOL0     H23462   2.364   3.899   0.420 -0.4027  0.1085  0.4402
  174MOL0     H23463   2.493   4.013   0.429  1.0575 -0.5760 -3.7625
  174MOL0     H23464   2.493   3.886   0.209  0.8837  0.8656 -2.3045
  174MOL0     H23465   2.562   3.749   0.300  2.6197  1.0930 -2.6811
  174MOL0     H23466   2.689   4.010   0.225 -4.1937 -3.4756 -3.8889
  174MOL0     H23467   2.741   3.947   0.390  1.7738  0.1069 -0.4350
  174MOL0     H23468   2.831   3.749   0.310  1.9029 -0.7827 -2.0873
  174MOL0     H23469   2.899   3.869   0.222  0.7163  2.0326  1.2717
  174MOL0     H23470   2.682   3.822   0.055 -1.7545 -0.9282  1.1272
  174MOL0     H23471   2.674   3.670   0.131 -0.5310  0.4547  1.9096
  174MOL0     H23472   2.528   3.764   1.064 -1.4028 -1.5902 -3.6424
  174MOL0     H23473   2.650   3.672   1.259  0.7353 -1.9544  0.4566
  174MOL0     H23474   2.989   3.854   1.565  2.8858 -1.5723 -0.4372
  174MOL0     H23475   3.012   3.790   1.809  0.2343  2.6856 -1.5813
  174MOL0     H23476   3.870   2.478   2.732  1.6973  0.0149  0.7151
  174MOL0     H23477   4.108   2.524   2.792  0.8113 -0.0983  0.0275
  174MOL0     H23478   4.602   2.424   2.819  1.4702  0.3804 -0.1785
  174MOL0     H23479   4.795   2.513   2.877  0.5807  1.0428 -0.6038
  174MOL0     H23480   4.903   2.684   3.032 -0.1945 -0.1937 -0.0760
  174MOL0     H23481   5.020   2.641   2.897 -0.4481 -1.1311  2.4678
  174MOL0     H23482   5.038   2.915   3.050  2.7252  2.0109 -1.5529
  174MOL0     H23483   5.137   2.861   2.923 -2.2634  0.8180 -0.7889
  174MOL0     H23484   5.231   2.682   3.044 -2.5590 -3.5082 -1.3592
  174MOL0     H23485   5.090   2.676   3.150  0.4130 -0.1340 -1.5561
  174MOL0     H23486   5.159   2.879   3.278 -0.9652 -0.8747  0.8656
  174MOL0     H23487   5.280   2.897   3.152  0.8630 -1.1098 -1.1191
  174MOL0     H23488   5.453   2.585   3.400  1.0292  0.3146 -0.7324
  174MOL0     H23489   4.668   2.895   2.710 -0.5576  0.6409  0.1572
  174MOL0     H23490   4.463   2.797   2.640 -0.6759 -0.3972 -0.6169
  175MOL0     O23491   2.391   2.093   2.638 -0.6435 -0.3960  0.1015
  175MOL0     C23492   2.274   2.073   2.647  0.5354 -0.4902  0.0221
  175MOL0     O23493   2.188   2.147   2.722  0.0993 -0.4207  0.3680
  175MOL0     C23494   2.224   2.245   2.802  0.6084 -0.0438  0.6536
  175MOL0     C23495   2.239   2.380   2.757  0.6511  1.2791 -0.7317
  175MOL0     C23496   2.265   2.480   2.849 -0.8416 -0.3015 -0.3347
  175MOL0     C23497   2.281   2.450   2.983  0.2235 -0.2982  0.0282
  175MOL0     O23498   2.304   2.554   3.065  0.6898  0.0878  0.0711
  175MOL0     C23499   2.293   2.537   3.203 -0.1206  0.0210 -0.0042
  175MOL0     C23500   2.426   2.477   3.256 -0.4029 -0.1430  1.4940
  175MOL0     C23501   2.522   2.572   3.323 -0.0143 -0.5734 -0.5817
  175MOL0     C23502   2.538   2.711   3.255  0.6620 -0.2557  0.7019
  175MOL0     C23503   2.681   2.774   3.257 -0.3992 -0.1597  0.2419
  175MOL0     C23504   2.664   2.922   3.229 -0.0368 -0.1618 -0.2552
  175MOL0     C23505   2.796   2.993   3.189 -0.3453  0.7766 -0.1641
  175MOL0     C23506   2.878   2.920   3.090  0.5605  0.4767  0.6241
  175MOL0     N23507   2.975   2.999   3.025 -0.3768  0.1898  0.9072
  175MOL0     C23508   3.081   3.070   3.070 -0.3362  0.5349 -0.4250
  175MOL0     C23509   3.111   3.158   2.975 -0.3855 -0.3581  0.2816
  175MOL0     C23510   3.202   3.275   2.998 -0.9648 -0.2717 -0.6184
  175MOL0     C23511   3.338   3.254   2.940 -0.2676 -0.4556  0.0104
  175MOL0     C23512   3.441   3.354   2.979 -0.4171  0.4338 -0.0865
  175MOL0     C23513   3.415   3.484   2.915  0.1953 -0.7702  1.6055
  175MOL0     O23514   3.529   3.574   2.928 -0.5136  0.2945 -0.0888
  175MOL0     C23515   3.652   3.554   2.869  0.8014 -0.2898  0.2217
  175MOL0     C23516   3.741   3.650   2.895 -0.6545  0.1322 -0.1227
  175MOL0     C23517   3.866   3.657   2.840 -0.9655  0.9875 -0.8913
  175MOL0     C23518   3.944   3.782   2.854  0.0905 -0.3365  1.0990
  175MOL0     C23519   3.901   3.554   2.743  0.7124  0.3891  0.2624
  175MOL0     C23520   4.018   3.564   2.644 -0.1746  0.8196 -0.1027
  175MOL0     O23521   4.015   3.468   2.543  0.0591 -0.1673 -0.4407
  175MOL0     C23522   4.080   3.506   2.424  0.0173  0.2368 -0.2556
  175MOL0     C23523   4.190   3.441   2.362 -0.0318  0.3358 -0.3884
  175MOL0     C23524   4.222   3.475   2.232 -0.2671  0.4594 -0.2005
  175MOL0     C23525   4.139   3.546   2.145  0.3321 -0.0193 -0.4730
  175MOL0     O23526   4.167   3.559   2.016 -0.8760 -0.4903 -0.2627
  175MOL0     C23527   4.188   3.438   1.943  0.5946 -0.5173 -0.4177
  175MOL0     C23528   4.158   3.465   1.795  0.4701 -0.5295 -0.8693
  175MOL0     C23529   4.031   3.566   1.769 -0.6742  0.6000 -0.5095
  175MOL0     C23530   3.913   3.530   1.844  1.1037 -0.1829 -0.8243
  175MOL0     C23531   3.833   3.402   1.802 -0.4260 -0.1408  0.2400
  175MOL0     C23532   3.688   3.416   1.844  0.2677 -0.3935 -0.6837
  175MOL0     C23533   3.596   3.313   1.782 -1.2429  0.2581 -0.0125
  175MOL0     C23534   3.615   3.160   1.820  0.1468  0.5357  0.0755
  175MOL0    Cl23535   3.527   3.109   1.959  0.2902  0.3153 -0.2633
  175MOL0     C23536   4.027   3.609   2.207  1.1610  0.2724 -0.2592
  175MOL0     C23537   3.993   3.591   2.343  0.0754  0.0488 -0.4988
  175MOL0     O23538   4.108   3.647   2.654 -0.9894 -0.0011 -0.2151
  175MOL0     C23539   3.809   3.450   2.734 -0.2441  0.5137 -0.3457
  175MOL0     C23540   3.685   3.450   2.793 -0.1730 -0.2702 -0.4598
  175MOL0     N23541   3.040   3.138   2.863 -1.3330  0.4730 -0.3718
  175MOL0     N23542   2.963   3.038   2.891  0.7914  0.1471  0.0860
  175MOL0     C23543   2.264   2.320   3.026 -0.0259 -0.2871  1.2654
  175MOL0     C23544   2.226   2.221   2.939 -0.0307  0.5395  0.1123
  175MOL0     C23545   2.215   1.961   2.569  0.3460  0.9834 -0.1831
  175MOL0     C23546   2.306   1.876   2.507 -0.6600  0.9272 -0.2274
  175MOL0     C23547   2.255   1.778   2.424  0.4774  0.0300  0.3521
  175MOL0     C23548   2.121   1.759   2.396  0.1600 -0.5782  0.3602
  175MOL0     O23549   2.091   1.654   2.308  0.0032  0.1580 -0.4749
  175MOL0     C23550   1.959   1.630   2.268  0.6426 -0.6018  0.1587
  175MOL0     C23551   1.927   1.486   2.253 -0.3929 -0.9877 -0.2073
  175MOL0     C23552   2.000   1.438   2.122 -0.1428 -0.7291 -0.1149
  175MOL0     C23553   1.936   1.485   1.996 -0.2081  0.5647 -0.3388
  175MOL0     C23554   2.001   1.432   1.881 -0.0282  0.6266  0.1205
  175MOL0     C23555   2.058   1.371   1.790  1.4927  0.8388  0.7468
  175MOL0     C23556   2.035   1.845   2.462  0.8019 -0.3405  0.3653
  175MOL0     C23557   2.080   1.951   2.543  0.4747 -0.5746  0.7362
  175MOL0     H23558   2.216   2.423   2.659  0.2389  0.9989 -0.7574
  175MOL0     H23559   2.285   2.584   2.825  2.6561 -0.8991 -0.4865
  175MOL0     H23560   2.272   2.633   3.251 -0.1557  0.7506 -1.4286
  175MOL0     H23561   2.214   2.466   3.230  1.9506 -2.8034 -0.8785
  175MOL0     H23562   2.387   2.399   3.322 -3.0832  1.2332  1.6967
  175MOL0     H23563   2.490   2.438   3.176  2.5763 -0.1363  3.7103
  175MOL0     H23564   2.496   2.600   3.426  1.4194  0.4194 -0.4545
  175MOL0     H23565   2.623   2.531   3.326 -0.2676 -1.1851 -0.4154
  175MOL0     H23566   2.506   2.698   3.151 -2.4580 -2.6489  1.8013
  175MOL0     H23567   2.467   2.780   3.301  0.0178 -0.6383  0.3026
  175MOL0     H23568   2.729   2.773   3.355  0.0949  1.2448  0.0294
  175MOL0     H23569   2.740   2.733   3.175 -2.0572  1.7004 -2.0135
  175MOL0     H23570   2.592   2.938   3.147 -1.1304 -3.2185 -0.0160
  175MOL0     H23571   2.626   2.976   3.316 -0.0850  2.9883 -2.0557
  175MOL0     H23572   2.773   3.084   3.134  2.8113 -1.1262 -5.3541
  175MOL0     H23573   2.866   3.015   3.270  2.2021  3.2708 -2.8211
  175MOL0     H23574   2.806   2.876   3.021 -1.5488 -0.7367  3.4260
  175MOL0     H23575   2.932   2.833   3.130 -2.0453 -2.3988 -1.6134
  175MOL0     H23576   3.122   3.063   3.170 -2.0446 -3.2292  0.1690
  175MOL0     H23577   3.159   3.360   2.944 -4.6665 -2.1722 -0.9493
  175MOL0     H23578   3.205   3.301   3.104 -1.6897 -1.4966 -0.2844
  175MOL0     H23579   3.334   3.243   2.831  3.2150 -1.1448 -0.1678
  175MOL0     H23580   3.368   3.156   2.977 -2.4449 -1.7616 -1.4674
  175MOL0     H23581   3.541   3.317   2.955 -1.3410 -2.9044  0.6830
  175MOL0     H23582   3.434   3.353   3.088  2.7118 -2.2970  0.2677
  175MOL0     H23583   3.325   3.535   2.951  0.1762  1.5249 -1.2962
  175MOL0     H23584   3.392   3.465   2.810  1.0872 -1.9268  1.5979
  175MOL0     H23585   3.721   3.730   2.965 -2.1702 -0.0950 -0.2637
  175MOL0     H23586   3.884   3.851   2.914  0.8641  0.2576  1.1924
  175MOL0     H23587   4.042   3.766   2.900  2.1480 -2.8569 -3.4876
  175MOL0     H23588   3.966   3.830   2.758  1.4902 -2.0536  0.5072
  175MOL0     H23589   4.253   3.380   2.425 -2.2418 -1.5411  0.1763
  175MOL0     H23590   4.312   3.429   2.194  0.9149 -0.0200  2.8848
  175MOL0     H23591   4.287   3.394   1.955  0.2826 -0.6801  2.1604
  175MOL0     H23592   4.120   3.359   1.978  0.2265 -0.1583 -0.3097
  175MOL0     H23593   4.246   3.509   1.746  2.2428 -2.7761  0.0827
  175MOL0     H23594   4.137   3.367   1.750 -0.9148 -0.3713 -0.6019
  175MOL0     H23595   4.017   3.553   1.662 -1.9141 -2.6908 -0.0575
  175MOL0     H23596   4.056   3.673   1.773  0.0454  0.5185 -2.0787
  175MOL0     H23597   3.931   3.517   1.951  3.1492 -2.3296 -1.3435
  175MOL0     H23598   3.844   3.614   1.845  2.5003  1.0741  2.3004
  175MOL0     H23599   3.872   3.313   1.853 -0.9802 -0.7461 -0.3678
  175MOL0     H23600   3.833   3.387   1.693 -1.2013 -0.3100  0.2577
  175MOL0     H23601   3.678   3.418   1.953  2.1132  0.5115 -0.4969
  175MOL0     H23602   3.662   3.518   1.813 -0.2095 -0.7103 -1.3661
  175MOL0     H23603   3.610   3.331   1.675 -1.0362  0.7923  0.1034
  175MOL0     H23604   3.494   3.350   1.793 -0.3548  2.4055  1.7780
  175MOL0     H23605   3.724   3.149   1.827  0.4966  2.6465 -1.0414
  175MOL0     H23606   3.584   3.103   1.732  0.6614 -0.4145  0.4944
  175MOL0     H23607   3.968   3.675   2.145  0.7536 -0.0345 -0.2030
  175MOL0     H23608   3.912   3.634   2.400  1.9762  1.7060  1.1090
  175MOL0     H23609   3.836   3.378   2.659 -2.0352 -0.7658  0.1534
  175MOL0     H23610   3.621   3.365   2.771 -0.4374  0.2898 -1.9971
  175MOL0     H23611   2.290   2.291   3.128  3.8820 -1.6603  0.0821
  175MOL0     H23612   2.215   2.119   2.975  0.5012 -0.1852 -1.6535
  175MOL0     H23613   2.411   1.888   2.527 -0.4712  2.4461 -1.9006
  175MOL0     H23614   2.329   1.712   2.380  0.2382 -0.2717  0.3973
  175MOL0     H23615   1.877   1.669   2.329 -1.9244 -1.7560 -2.3063
  175MOL0     H23616   1.935   1.689   2.179  1.7485  2.8578  1.9658
  175MOL0     H23617   1.818   1.483   2.243 -0.4806  3.1570 -2.9870
  175MOL0     H23618   1.963   1.433   2.342  0.1939  4.1295  3.0060
  175MOL0     H23619   1.998   1.329   2.136 -1.5085 -0.4806  2.2591
  175MOL0     H23620   2.098   1.484   2.134 -0.6150 -0.4432  4.6755
  175MOL0     H23621   1.947   1.594   1.992 -1.2107  0.9030  3.0605
  175MOL0     H23622   1.830   1.460   2.001  0.4176 -2.1442  0.8485
  175MOL0     H23623   2.087   1.299   1.717 -0.9782 -0.1913  0.6787
  175MOL0     H23624   1.927   1.836   2.448  0.6938  0.6085  0.5530
  175MOL0     H23625   2.012   2.017   2.596  1.3516  1.7118 -0.7896
  176MOL0     O23626   8.434   9.680   5.287  0.1311 -0.0723 -0.3819
  176MOL0     C23627   8.451   9.628   5.392 -1.3690  0.0562  0.0825
  176MOL0     O23628   8.445   9.690   5.521  0.2313  0.1519  0.0090
  176MOL0     C23629   8.398   9.817   5.532 -0.3081 -0.4089  0.9116
  176MOL0     C23630   8.453   9.928   5.452  0.6082  0.9286 -0.4290
  176MOL0     C23631   8.402  10.058   5.474 -0.6423  0.2956  0.4280
  176MOL0     C23632   8.315  10.094   5.576  0.6376 -0.0538  0.3600
  176MOL0     O23633   8.304  10.228   5.606 -0.6112 -0.2635 -0.0967
  176MOL0     C23634   8.179  10.289   5.624  0.1359  1.2764  0.5308
  176MOL0     C23635   8.190  10.443   5.647 -1.0074 -0.3736  0.4951
  176MOL0     C23636   8.283  10.494   5.745 -0.7545 -0.3426 -0.1361
  176MOL0     C23637   8.273  10.636   5.806  0.3651  0.2107 -0.4022
  176MOL0     C23638   8.380  10.637   5.925  0.5940 -0.4439  0.7718
  176MOL0     C23639   8.319  10.685   6.059  0.3750  1.1161  0.3604
  176MOL0     C23640   8.198  10.590   6.103  0.5856 -0.4280  0.1952
  176MOL0     C23641   8.245  10.452   6.147 -0.7556  0.5574  0.2326
  176MOL0     N23642   8.152  10.373   6.231  0.2931  0.2941 -0.8109
  176MOL0     C23643   8.104  10.424   6.353 -0.2477 -0.2167  0.5653
  176MOL0     C23644   8.033  10.321   6.405  0.0476  0.2604  0.5095
  176MOL0     C23645   7.995  10.296   6.552 -1.0696  0.3029 -0.2572
  176MOL0     C23646   8.125  10.326   6.627 -1.1380  0.5337 -0.9997
  176MOL0     C23647   8.104  10.304   6.782  0.1525  0.3503  0.2818
  176MOL0     C23648   8.032  10.423   6.841  0.0476  0.6951 -0.5219
  176MOL0     O23649   8.008  10.385   6.978 -0.2012 -0.1893 -0.1707
  176MOL0     C23650   7.911  10.441   7.049  0.4812 -0.5911 -0.0254
  176MOL0     C23651   7.896  10.382   7.174 -0.4146 -0.8535  0.2037
  176MOL0     C23652   7.789  10.427   7.254 -0.1015  0.9178  0.1992
  176MOL0     C23653   7.764  10.342   7.371  1.1425  0.8282  0.2905
  176MOL0     C23654   7.700  10.536   7.222  0.9281  0.7204  0.4331
  176MOL0     C23655   7.609  10.610   7.323 -1.4288 -0.2705  0.2517
  176MOL0     O23656   7.611  10.556   7.450  0.4696  1.0031 -1.1172
  176MOL0     C23657   7.517  10.610   7.540 -0.0615  0.1343  0.3893
  176MOL0     C23658   7.408  10.537   7.581 -0.0288 -0.6869 -0.3240
  176MOL0     C23659   7.311  10.597   7.673  0.1607  0.8096  0.1326
  176MOL0     C23660   7.319  10.724   7.714  0.5953 -0.2174  0.9837
  176MOL0     O23661   7.216  10.766   7.795 -0.5700  0.0697  0.3414
  176MOL0     C23662   7.232  10.891   7.859 -0.6411 -0.7487 -0.1128
  176MOL0     C23663   7.146  10.885   7.979  0.0459 -1.1314 -0.1660
  176MOL0     C23664   7.133  11.009   8.075  0.2015 -0.3225 -0.5708
  176MOL0     C23665   7.222  10.994   8.200 -1.1068  0.0002 -0.2722
  176MOL0     C23666   7.209  11.111   8.299 -0.2330 -0.7191  0.7882
  176MOL0     C23667   7.240  11.069   8.444 -0.1470  0.0537 -0.1484
  176MOL0     C23668   7.252  11.196   8.545 -0.7813  0.6276  1.1251
  176MOL0     C23669   7.252  11.150   8.690 -0.9425 -0.9206 -0.4211
  176MOL0    Cl23670   7.266  11.303   8.796 -0.4549  0.5918 -0.0692
  176MOL0     C23671   7.438  10.795   7.675 -0.4375  0.3063 -0.4310
  176MOL0     C23672   7.526  10.745   7.588 -0.1435 -0.2261 -0.6857
  176MOL0     O23673   7.542  10.708   7.286 -0.4230 -0.2026 -0.5538
  176MOL0     C23674   7.718  10.605   7.106  0.7184 -0.2262  0.0074
  176MOL0     C23675   7.824  10.556   7.018  0.2449 -0.1196 -0.6218
  176MOL0     N23676   8.039  10.220   6.313  1.3084 -0.0910  0.1248
  176MOL0     N23677   8.098  10.249   6.208  0.1950  0.2288  0.5471
  176MOL0     C23678   8.266   9.986   5.661 -0.4205  0.2606  0.4938
  176MOL0     C23679   8.306   9.849   5.636  0.1447  0.1291 -0.6387
  176MOL0     C23680   8.508   9.488   5.382 -0.2500  0.1011  0.1786
  176MOL0     C23681   8.569   9.424   5.494  0.5858 -0.1202 -0.5989
  176MOL0     C23682   8.613   9.294   5.498  0.9610 -0.4369  1.5911
  176MOL0     C23683   8.620   9.216   5.382 -0.2156  0.3347 -0.2059
  176MOL0     O23684   8.680   9.079   5.381 -0.6758  0.3955  0.0888
  176MOL0     C23685   8.628   8.997   5.487  0.3486  0.9922 -0.4987
  176MOL0     C23686   8.695   8.857   5.468 -1.5150  0.0506 -0.8339
  176MOL0     C23687   8.629   8.776   5.354  0.3817  0.5140  0.7690
  176MOL0     C23688   8.658   8.626   5.366  0.3633  1.1576 -1.1248
  176MOL0     C23689   8.625   8.541   5.251  0.3052  0.6197  1.6015
  176MOL0     C23690   8.595   8.465   5.155  0.4147  0.2886 -1.5471
  176MOL0     C23691   8.585   9.278   5.261 -0.1031  0.8809 -0.2005
  176MOL0     C23692   8.520   9.412   5.263 -0.9427 -0.7105 -0.2317
  176MOL0     H23693   8.541   9.917   5.389  0.6739  1.3181 -0.4056
  176MOL0     H23694   8.436  10.138   5.409 -3.8743 -0.0113 -1.8747
  176MOL0     H23695   8.108  10.261   5.545  1.2015  0.2803 -0.1038
  176MOL0     H23696   8.138  10.255   5.720  1.4978  1.6462  1.2722
  176MOL0     H23697   8.236  10.479   5.555  2.9240 -2.3768  1.4664
  176MOL0     H23698   8.087  10.476   5.667 -1.9033 -3.4970  1.5485
  176MOL0     H23699   8.258  10.425   5.826 -0.5771 -0.0469  0.1655
  176MOL0     H23700   8.385  10.482   5.708 -0.9610  0.1230 -0.8858
  176MOL0     H23701   8.296  10.702   5.722 -1.8067  1.0962 -0.3717
  176MOL0     H23702   8.179  10.673   5.847  2.2135  2.3858  2.2510
  176MOL0     H23703   8.427  10.540   5.943  1.3269  0.2426  2.8047
  176MOL0     H23704   8.449  10.715   5.892 -1.5295  1.2967  0.1201
  176MOL0     H23705   8.390  10.693   6.142  1.1218 -1.1026 -0.0192
  176MOL0     H23706   8.281  10.788   6.050 -0.5028  0.6481 -2.0729
  176MOL0     H23707   8.160  10.639   6.193 -0.1591 -0.3001 -0.1850
  176MOL0     H23708   8.115  10.590   6.031  0.8572 -3.3363 -0.2205
  176MOL0     H23709   8.340  10.450   6.202 -1.4230 -2.0290  1.4585
  176MOL0     H23710   8.267  10.375   6.072 -0.8510 -0.9526  1.6955
  176MOL0     H23711   8.124  10.524   6.391 -0.6330 -0.1031  0.4670
  176MOL0     H23712   7.911  10.357   6.585 -2.5474 -2.2321  0.9532
  176MOL0     H23713   7.963  10.193   6.571  1.8613 -0.5561  0.6025
  176MOL0     H23714   8.167  10.422   6.595  0.2031  0.2044 -0.2866
  176MOL0     H23715   8.200  10.253   6.596 -2.2963 -0.5773 -1.2791
  176MOL0     H23716   8.195  10.287   6.840 -0.4630 -1.5408  0.7733
  176MOL0     H23717   8.053  10.209   6.800  1.1128  0.2695  3.0284
  176MOL0     H23718   7.937  10.423   6.786  0.4730  0.8768 -1.2660
  176MOL0     H23719   8.090  10.514   6.824  4.9884 -2.1624 -0.7664
  176MOL0     H23720   7.976  10.314   7.202 -1.2653 -1.2354  1.8631
  176MOL0     H23721   7.660  10.318   7.394  0.5175  2.7320 -0.3819
  176MOL0     H23722   7.819  10.248   7.359 -0.5132  0.0156 -1.4097
  176MOL0     H23723   7.805  10.397   7.457 -0.0896 -0.4622  1.7772
  176MOL0     H23724   7.407  10.433   7.550 -2.8670 -1.2511  1.2985
  176MOL0     H23725   7.228  10.535   7.706  0.2327 -0.2011 -1.4444
  176MOL0     H23726   7.333  10.907   7.896 -0.8551  1.8192 -0.4442
  176MOL0     H23727   7.206  10.979   7.799  1.1606 -1.5947 -2.2588
  176MOL0     H23728   7.045  10.873   7.938 -0.2833  0.2901  0.1800
  176MOL0     H23729   7.170  10.795   8.036 -0.5392 -1.0564  0.2038
  176MOL0     H23730   7.029  11.026   8.102  0.0796  2.4583 -2.3611
  176MOL0     H23731   7.168  11.107   8.039 -2.0345 -0.1343 -2.4430
  176MOL0     H23732   7.193  10.905   8.256 -0.5801 -1.2960 -1.9732
  176MOL0     H23733   7.325  10.973   8.172 -2.5301 -6.5775 -2.4570
  176MOL0     H23734   7.109  11.156   8.298 -1.6151 -3.5407 -0.5716
  176MOL0     H23735   7.283  11.189   8.278  0.0325 -1.3353 -0.6744
  176MOL0     H23736   7.157  11.007   8.479  1.0295 -0.4031  1.9461
  176MOL0     H23737   7.335  11.015   8.439  1.2559  2.3593 -0.3266
  176MOL0     H23738   7.169  11.263   8.523 -1.2192  0.3941  2.0503
  176MOL0     H23739   7.346  11.250   8.528 -0.4622  0.7535  3.0838
  176MOL0     H23740   7.332  11.078   8.712  0.9854  0.0507 -3.5723
  176MOL0     H23741   7.153  11.104   8.700 -1.0033 -0.9780 -1.2037
  176MOL0     H23742   7.431  10.899   7.706  1.4753 -0.0455  1.3907
  176MOL0     H23743   7.607  10.799   7.541  3.4796 -2.6103  2.2875
  176MOL0     H23744   7.678  10.703   7.080  2.8758  0.3306 -1.4752
  176MOL0     H23745   7.840  10.613   6.927 -0.0115 -2.1424 -2.0030
  176MOL0     H23746   8.197  10.001   5.744  0.9723 -3.2756  2.5212
  176MOL0     H23747   8.266   9.760   5.683  0.2043  0.4153 -0.0363
  176MOL0     H23748   8.575   9.475   5.590 -0.1254 -2.3276  0.6876
  176MOL0     H23749   8.638   9.254   5.596  0.3425 -0.4976  1.7333
  176MOL0     H23750   8.664   9.041   5.581  0.4336 -1.3692  0.6485
  176MOL0     H23751   8.519   8.995   5.484  0.3079  2.5162 -0.7766
  176MOL0     H23752   8.695   8.816   5.570 -0.0352 -0.3453 -0.9693
  176MOL0     H23753   8.799   8.878   5.438 -1.6913  0.9481 -0.8558
  176MOL0     H23754   8.667   8.821   5.262  1.1545 -1.1837  0.2192
  176MOL0     H23755   8.521   8.791   5.361 -0.1321 -1.6136 -1.4495
  176MOL0     H23756   8.598   8.589   5.450 -0.9710  0.7801 -2.2116
  176MOL0     H23757   8.765   8.615   5.387  0.0859 -0.2234 -0.2374
  176MOL0     H23758   8.586   8.399   5.071  3.0132  0.9382 -2.4372
  176MOL0     H23759   8.598   9.229   5.166  0.7567  1.1255 -0.2232
  176MOL0     H23760   8.495   9.460   5.169 -0.9712 -0.8198 -0.2803
  177MOL0     O23761   4.603   1.934   8.699 -0.3517 -0.3531  0.2518
  177MOL0     C23762   4.719   1.909   8.723 -0.2186 -0.0477  0.0659
  177MOL0     O23763   4.802   1.840   8.649  0.3016  0.7958  0.1228
  177MOL0     C23764   4.745   1.773   8.537 -0.2242 -0.1359 -0.0613
  177MOL0     C23765   4.646   1.668   8.552 -0.4657 -0.6089 -0.2366
  177MOL0     C23766   4.580   1.612   8.436  0.2036 -0.1334 -0.3193
  177MOL0     C23767   4.622   1.651   8.309  0.0394 -0.2314 -0.7274
  177MOL0     O23768   4.571   1.591   8.198  0.4962  0.1695 -0.0310
  177MOL0     C23769   4.657   1.494   8.123 -0.6447 -1.5461  0.1949
  177MOL0     C23770   4.611   1.476   7.967 -0.1909 -0.2279 -0.1705
  177MOL0     C23771   4.460   1.495   7.959  0.4104 -0.0389  0.5678
  177MOL0     C23772   4.393   1.400   7.859 -0.0629  0.6130 -0.6374
  177MOL0     C23773   4.251   1.430   7.819 -0.1257 -1.1513 -0.3640
  177MOL0     C23774   4.201   1.343   7.704 -0.7346  1.5111  0.2458
  177MOL0     C23775   4.160   1.200   7.750  0.7149 -0.2160  0.6731
  177MOL0     C23776   4.082   1.128   7.628 -0.6549 -0.3065 -0.0429
  177MOL0     N23777   4.071   0.988   7.661 -0.4541 -0.1596  0.3231
  177MOL0     C23778   3.973   0.932   7.737  0.2280  0.5571  0.0563
  177MOL0     C23779   4.023   0.813   7.776  0.5023  0.0555 -0.0532
  177MOL0     C23780   3.974   0.711   7.880  0.7006 -0.8174 -0.3127
  177MOL0     C23781   3.869   0.762   7.986  0.3509  0.0722  0.9001
  177MOL0     C23782   3.822   0.633   8.063  0.3768  0.3126  0.4511
  177MOL0     C23783   3.697   0.668   8.135  0.6705  0.6088 -0.5504
  177MOL0     O23784   3.727   0.647   8.268  0.2920  0.2048  0.2832
  177MOL0     C23785   3.618   0.626   8.346  1.1255 -0.1375 -0.1635
  177MOL0     C23786   3.639   0.567   8.475 -0.4613 -0.0879  0.7236
  177MOL0     C23787   3.531   0.541   8.562 -0.3588 -0.4907  0.2918
  177MOL0     C23788   3.562   0.479   8.689 -0.2086  0.0805 -0.8511
  177MOL0     C23789   3.403   0.595   8.534  0.2793 -0.4615  0.8409
  177MOL0     C23790   3.288   0.571   8.614  0.2789  0.0408  0.6892
  177MOL0     O23791   3.287   0.655   8.723  0.0136 -0.5099 -0.7891
  177MOL0     C23792   3.190   0.640   8.825  0.0671 -0.2529 -0.1655
  177MOL0     C23793   3.177   0.513   8.879  0.9322  0.8377  0.0989
  177MOL0     C23794   3.072   0.496   8.962 -0.6053 -0.1410 -0.1152
  177MOL0     C23795   2.977   0.590   8.995 -0.3035  0.0923 -0.3073
  177MOL0     O23796   2.871   0.554   9.079 -0.2751 -0.8441  0.2131
  177MOL0     C23797   2.816   0.431   9.085  0.0007  0.3133 -0.0263
  177MOL0     C23798   2.676   0.439   9.147 -1.0250  0.0358  0.7571
  177MOL0     C23799   2.654   0.319   9.235 -0.1037  0.3064 -0.5884
  177MOL0     C23800   2.635   0.182   9.156 -0.5388  0.3383  0.0750
  177MOL0     C23801   2.486   0.172   9.129 -0.3071 -0.9977 -0.2703
  177MOL0     C23802   2.434   0.026   9.084 -0.6735 -1.0650  0.2530
  177MOL0     C23803   2.494  -0.018   8.953 -0.8624  0.4767  0.5175
  177MOL0     C23804   2.454  -0.162   8.905 -0.4367 -0.9622 -0.0365
  177MOL0    Cl23805   2.521  -0.292   9.006  0.1365 -0.0072  0.0454
  177MOL0     C23806   3.000   0.720   8.952 -0.3352  1.3208 -0.7562
  177MOL0     C23807   3.107   0.748   8.860  0.7670  0.7565  0.3980
  177MOL0     O23808   3.196   0.500   8.577 -0.6808  0.4392 -0.5916
  177MOL0     C23809   3.386   0.663   8.413 -0.2692 -0.3487 -0.1360
  177MOL0     C23810   3.485   0.666   8.315  0.0361  0.0561  0.2236
  177MOL0     N23811   4.132   0.792   7.692 -0.1342  0.3246 -1.0516
  177MOL0     N23812   4.152   0.896   7.624 -0.5273 -0.2887 -0.3724
  177MOL0     C23813   4.724   1.748   8.294  0.1704  0.1564  0.8164
  177MOL0     C23814   4.783   1.809   8.405 -0.2430  0.6688 -0.3862
  177MOL0     C23815   4.784   1.969   8.846  0.7525  0.5507  0.1243
  177MOL0     C23816   4.736   1.970   8.982  0.3007 -0.1172  1.6651
  177MOL0     C23817   4.810   2.032   9.087  0.2005 -0.2896  0.0201
  177MOL0     C23818   4.930   2.098   9.059 -0.2322  0.4003 -0.0878
  177MOL0     O23819   4.998   2.167   9.159 -1.0182 -0.0696 -0.1359
  177MOL0     C23820   5.041   2.301   9.130  0.1979 -0.0721  0.0167
  177MOL0     C23821   5.017   2.403   9.238 -0.3215 -0.0089 -0.5730
  177MOL0     C23822   5.126   2.398   9.355  0.1427 -0.0489 -0.1134
  177MOL0     C23823   5.254   2.474   9.310 -0.3033  0.5846 -0.1812
  177MOL0     C23824   5.252   2.617   9.340 -0.3823 -0.7928  0.0664
  177MOL0     C23825   5.257   2.733   9.365  0.0547 -0.6581 -0.8978
  177MOL0     C23826   4.980   2.102   8.926 -0.3602 -0.6629 -1.0084
  177MOL0     C23827   4.904   2.034   8.825 -0.6878  0.0115  0.3708
  177MOL0     H23828   4.612   1.645   8.653  5.6538 -0.5607  2.2705
  177MOL0     H23829   4.508   1.532   8.447 -1.6586  1.6552  1.3599
  177MOL0     H23830   4.757   1.537   8.122  0.0855 -2.8142 -4.7009
  177MOL0     H23831   4.682   1.400   8.173  2.0928 -1.6270 -1.1582
  177MOL0     H23832   4.649   1.552   7.899 -2.0518  0.7824 -0.1541
  177MOL0     H23833   4.656   1.389   7.919  3.0614  1.5537 -0.6154
  177MOL0     H23834   4.415   1.475   8.057  1.9185 -2.9306  0.7726
  177MOL0     H23835   4.448   1.603   7.946  1.8426 -0.1324 -2.2947
  177MOL0     H23836   4.459   1.382   7.774  2.4005 -0.4283  1.3445
  177MOL0     H23837   4.405   1.301   7.905 -0.7389 -0.3762 -2.4665
  177MOL0     H23838   4.200   1.418   7.915 -0.8612 -0.0762 -0.6127
  177MOL0     H23839   4.238   1.537   7.804  1.8736 -0.8364 -0.1925
  177MOL0     H23840   4.109   1.390   7.666 -0.5703  1.2469 -0.4813
  177MOL0     H23841   4.285   1.347   7.635  1.1649 -1.2898  2.1621
  177MOL0     H23842   4.237   1.131   7.784 -1.9146 -2.5640  2.3147
  177MOL0     H23843   4.090   1.217   7.832 -2.7749  2.4084 -2.4906
  177MOL0     H23844   4.142   1.132   7.536 -0.2211 -0.3683  0.2334
  177MOL0     H23845   3.984   1.175   7.614 -0.5617  0.3422  1.3326
  177MOL0     H23846   3.879   0.970   7.775  0.6699  0.4720  1.2804
  177MOL0     H23847   3.928   0.628   7.826 -2.6032  2.4019 -2.9398
  177MOL0     H23848   4.062   0.678   7.937 -0.6460 -4.8443 -0.3298
  177MOL0     H23849   3.782   0.815   7.944  1.0117 -0.2280 -0.9637
  177MOL0     H23850   3.927   0.822   8.056 -0.1714 -0.8608  2.1607
  177MOL0     H23851   3.894   0.586   8.130 -0.9504 -0.2494  1.5453
  177MOL0     H23852   3.784   0.558   7.993 -2.1301  0.2416  1.7723
  177MOL0     H23853   3.611   0.612   8.097  1.5526 -0.3313 -1.1987
  177MOL0     H23854   3.677   0.774   8.117 -0.2224 -0.1270 -5.0536
  177MOL0     H23855   3.742   0.551   8.502  0.2749  1.3278 -1.0550
  177MOL0     H23856   3.475   0.428   8.732 -0.1960 -0.0878 -1.0233
  177MOL0     H23857   3.646   0.409   8.687  0.6835  1.0365  0.9359
  177MOL0     H23858   3.593   0.568   8.744 -0.3408  1.8288 -3.3937
  177MOL0     H23859   3.242   0.429   8.857 -0.6213 -1.1729  2.5325
  177MOL0     H23860   3.076   0.395   9.004  0.3182 -1.3415 -2.8776
  177MOL0     H23861   2.807   0.380   8.988  0.7285  2.1145 -1.0955
  177MOL0     H23862   2.879   0.377   9.156  0.4440  2.3162  1.1814
  177MOL0     H23863   2.661   0.523   9.216  2.5782  0.8218  0.7741
  177MOL0     H23864   2.604   0.435   9.065  0.6026 -1.4501 -0.7005
  177MOL0     H23865   2.566   0.335   9.297  1.2945  0.6052  1.4343
  177MOL0     H23866   2.738   0.311   9.306 -1.8127 -1.5498  1.3617
  177MOL0     H23867   2.689   0.178   9.061 -0.6463 -0.6281  0.0534
  177MOL0     H23868   2.683   0.106   9.218 -0.8168  2.0676  2.5400
  177MOL0     H23869   2.458   0.249   9.056 -0.9068  1.1833  2.1157
  177MOL0     H23870   2.429   0.196   9.219  1.9120 -2.9608  1.7831
  177MOL0     H23871   2.471  -0.051   9.152  2.4958  1.1226  1.2385
  177MOL0     H23872   2.326   0.013   9.080 -0.3336 -4.2351 -1.8295
  177MOL0     H23873   2.604  -0.019   8.956 -0.7065 -2.0479 -1.8831
  177MOL0     H23874   2.468   0.060   8.882  1.1487  2.6716  2.0223
  177MOL0     H23875   2.478  -0.183   8.800  3.7468 -1.8115  0.9193
  177MOL0     H23876   2.345  -0.162   8.918 -0.8558  2.9041 -1.9877
  177MOL0     H23877   2.925   0.791   8.986 -2.3315 -0.7124 -0.6487
  177MOL0     H23878   3.131   0.844   8.815  3.1464 -0.8398 -2.0957
  177MOL0     H23879   3.290   0.690   8.370  0.6560 -0.2463 -2.2673
  177MOL0     H23880   3.460   0.703   8.216 -1.0603 -1.6396 -0.1684
  177MOL0     H23881   4.765   1.763   8.195  1.8829 -1.6135  1.1851
  177MOL0     H23882   4.872   1.869   8.387 -0.2691  0.8279  0.0089
  177MOL0     H23883   4.643   1.923   9.011 -0.4087 -1.2675 -1.9863
  177MOL0     H23884   4.769   2.027   9.188  3.5007  1.3155  1.6115
  177MOL0     H23885   5.147   2.295   9.104  0.5750  3.4959  0.2321
  177MOL0     H23886   4.985   2.341   9.044 -0.5915 -1.5508 -0.1861
  177MOL0     H23887   4.920   2.388   9.285 -0.4619  2.6947  0.1396
  177MOL0     H23888   5.024   2.506   9.203  0.0288  0.9751  2.1108
  177MOL0     H23889   5.139   2.290   9.368 -0.2228 -0.1065 -0.2097
  177MOL0     H23890   5.098   2.439   9.453 -0.1229  0.2689 -0.3167
  177MOL0     H23891   5.264   2.467   9.201  2.6087  1.1994 -0.0272
  177MOL0     H23892   5.344   2.427   9.351  0.3879  0.9668 -1.2103
  177MOL0     H23893   5.263   2.839   9.375 -0.1081 -0.8064  1.4267
  177MOL0     H23894   5.074   2.154   8.909 -1.2089  1.4725  0.3231
  177MOL0     H23895   4.946   2.037   8.725  1.6848  3.0812  1.2952
  178MOL0     O23896   7.366   8.810  10.367  0.1119 -0.3673  0.2776
  178MOL0     C23897   7.297   8.848  10.267  0.0927 -0.8310  0.1387
  178MOL0     O23898   7.270   8.986  10.233 -0.4867  0.1734  0.4186
  178MOL0     C23899   7.334   9.088  10.299 -1.0182  0.2350  0.5334
  178MOL0     C23900   7.404   9.184  10.232 -0.4449  0.3483 -0.2129
  178MOL0     C23901   7.461   9.292  10.301  0.3747  0.1391 -1.1363
  178MOL0     C23902   7.454   9.301  10.447 -0.3170  0.4524 -0.1291
  178MOL0     O23903   7.531   9.399  10.497 -0.2862  0.0880 -0.0652
  178MOL0     C23904   7.512   9.424  10.636 -0.2163 -0.1973 -0.2041
  178MOL0     C23905   7.555   9.567  10.684  0.1144  0.0677  0.6929
  178MOL0     C23906   7.541   9.608  10.829  0.1551  0.1940 -0.6419
  178MOL0     C23907   7.400   9.636  10.860  0.8113 -0.2610 -0.5657
  178MOL0     C23908   7.369   9.693  10.991  0.4980  0.6214 -0.5663
  178MOL0     C23909   7.458   9.804  11.046  0.7484  0.0503 -0.4630
  178MOL0     C23910   7.400   9.937  11.002  0.0373  0.1479  0.3196
  178MOL0     C23911   7.478  10.058  11.042  0.5360 -0.3400 -0.1203
  178MOL0     N23912   7.538  10.119  10.920  0.3579  0.0426  0.1050
  178MOL0     C23913   7.661  10.082  10.858  0.1793 -1.0172 -0.0892
  178MOL0     C23914   7.647  10.127  10.730 -0.4169 -0.1147 -0.8516
  178MOL0     C23915   7.733  10.085  10.614 -1.1645  0.4120 -0.2776
  178MOL0     C23916   7.727   9.941  10.576 -0.3099  0.1462 -0.5235
  178MOL0     C23917   7.593   9.899  10.515 -0.2574 -0.1799 -0.7337
  178MOL0     C23918   7.563   9.940  10.379  0.3680 -0.0090 -0.0146
  178MOL0     O23919   7.661   9.904  10.287 -0.1629  0.0184 -0.5208
  178MOL0     C23920   7.689   9.996  10.185  0.7337  0.5168 -0.7693
  178MOL0     C23921   7.819  10.027  10.157  0.5428 -0.0184  0.2271
  178MOL0     C23922   7.856  10.090  10.038  0.3420  0.1246 -0.1180
  178MOL0     C23923   7.996  10.125  10.033 -0.3172 -0.1210  0.2330
  178MOL0     C23924   7.760  10.120   9.945  0.1879  0.3785  1.0644
  178MOL0     C23925   7.786  10.189   9.815  0.4267  0.2323  0.5110
  178MOL0     O23926   7.754  10.121   9.700 -0.9384 -0.2742 -0.0817
  178MOL0     C23927   7.771  10.191   9.582 -0.3226 -0.6819  0.4235
  178MOL0     C23928   7.713  10.319   9.553 -0.1972  0.4906 -0.0898
  178MOL0     C23929   7.718  10.377   9.423  0.4593 -0.4340  0.8719
  178MOL0     C23930   7.777  10.303   9.313  0.4749 -0.1810 -0.1922
  178MOL0     O23931   7.770  10.365   9.193  0.5717 -0.1813 -0.9979
  178MOL0     C23932   7.829  10.297   9.078 -0.0157 -0.0147 -0.0854
  178MOL0     C23933   7.795  10.350   8.936 -0.3110 -1.4636 -0.2092
  178MOL0     C23934   7.647  10.389   8.920 -0.4502  0.4874 -0.5539
  178MOL0     C23935   7.610  10.412   8.772 -0.5514 -0.0178  0.1215
  178MOL0     C23936   7.464  10.450   8.761  0.5458 -0.5026  0.2117
  178MOL0     C23937   7.436  10.521   8.621 -0.0276 -0.1645 -0.1722
  178MOL0     C23938   7.302  10.583   8.633 -0.1209  0.2268 -0.4494
  178MOL0     C23939   7.249  10.636   8.499 -0.0623 -0.0463 -0.4844
  178MOL0    Cl23940   7.374  10.758   8.437  0.4773  0.0940  0.1732
  178MOL0     C23941   7.823  10.178   9.347  0.4491 -0.5732  0.6924
  178MOL0     C23942   7.833  10.120   9.478  0.6749 -0.2247  0.4191
  178MOL0     O23943   7.835  10.301   9.825  0.4851 -0.8856 -0.8171
  178MOL0     C23944   7.626  10.095   9.981  0.4600 -0.0356  0.8758
  178MOL0     C23945   7.590  10.033  10.093 -0.0357  1.3552  0.1012
  178MOL0     N23946   7.533  10.200  10.719  0.8298 -0.1527  0.5441
  178MOL0     N23947   7.484  10.207  10.836 -0.1576  0.8567  0.3799
  178MOL0     C23948   7.383   9.211  10.519 -0.5863 -0.1727  0.2591
  178MOL0     C23949   7.332   9.105  10.442 -0.1298  0.5299  1.3613
  178MOL0     C23950   7.235   8.744  10.183 -1.7213  0.8208  0.6075
  178MOL0     C23951   7.157   8.776  10.070  1.0563  1.1066  0.2838
  178MOL0     C23952   7.094   8.674  10.000  0.5607 -0.1236  0.5070
  178MOL0     C23953   7.098   8.542  10.040 -0.0133  0.0810  0.5390
  178MOL0     O23954   7.028   8.449   9.950 -0.0882  0.2935 -0.7316
  178MOL0     C23955   7.031   8.308   9.972  0.4859 -0.4037  0.0332
  178MOL0     C23956   6.904   8.276  10.048 -0.1080 -0.0858  0.3669
  178MOL0     C23957   6.864   8.135  10.073  0.7293  0.9334  0.4714
  178MOL0     C23958   6.798   8.055   9.964  0.7784  0.2500  0.5064
  178MOL0     C23959   6.666   8.110   9.928 -0.7682 -0.5077  0.5433
  178MOL0     C23960   6.572   8.171   9.915 -0.1090 -0.7222  0.5478
  178MOL0     C23961   7.150   8.511  10.162 -1.3980 -0.4829 -0.2383
  178MOL0     C23962   7.226   8.609  10.233 -0.2229 -0.5181 -0.2241
  178MOL0     H23963   7.416   9.167  10.126 -2.5646 -2.8253 -0.0962
  178MOL0     H23964   7.529   9.359  10.249 -0.2457  0.8208 -1.0879
  178MOL0     H23965   7.405   9.425  10.659  0.4232  1.4959  3.2627
  178MOL0     H23966   7.571   9.348  10.686  0.7672  0.4097 -0.4252
  178MOL0     H23967   7.658   9.574  10.649  0.8723 -0.5082  2.6587
  178MOL0     H23968   7.502   9.631  10.612  0.8822 -1.6824 -1.5650
  178MOL0     H23969   7.572   9.527  10.896 -2.7986 -0.2356  0.3900
  178MOL0     H23970   7.596   9.701  10.845 -0.7674  0.3984  1.9814
  178MOL0     H23971   7.362   9.715  10.794  0.2783 -0.3172 -0.3365
  178MOL0     H23972   7.329   9.555  10.838 -0.9913  1.5261 -1.7041
  178MOL0     H23973   7.261   9.711  10.996  0.5119  0.3626  1.8419
  178MOL0     H23974   7.384   9.606  11.056  3.0351 -1.0834 -3.1979
  178MOL0     H23975   7.453   9.788  11.154 -1.5918  2.4765 -0.0950
  178MOL0     H23976   7.564   9.794  11.025  1.4608 -0.8786  2.9727
  178MOL0     H23977   7.384   9.943  10.894 -2.0730  0.0903  0.5755
  178MOL0     H23978   7.300   9.937  11.046 -0.0272 -2.7734  0.3672
  178MOL0     H23979   7.535  10.030  11.131 -0.6850  1.6511  1.3690
  178MOL0     H23980   7.408  10.135  11.076  1.4754  1.7999 -2.7006
  178MOL0     H23981   7.727   9.999  10.883 -3.0595 -3.1826  2.0687
  178MOL0     H23982   7.706  10.135  10.521  0.4857 -2.0676 -2.2162
  178MOL0     H23983   7.840  10.088  10.635 -0.9734  0.1184 -1.1741
  178MOL0     H23984   7.741   9.889  10.671 -0.5835 -0.0105 -0.5696
  178MOL0     H23985   7.809   9.921  10.507 -0.2239  2.3940 -1.1438
  178MOL0     H23986   7.508   9.915  10.581  0.1654  1.0066 -0.4537
  178MOL0     H23987   7.598   9.790  10.512  0.5720 -0.2193  0.9876
  178MOL0     H23988   7.557  10.049  10.368  2.0228 -0.1508 -4.4880
  178MOL0     H23989   7.467   9.893  10.356  0.1040  0.9167 -0.8803
  178MOL0     H23990   7.885   9.989  10.235 -0.7450 -2.8555  0.0558
  178MOL0     H23991   8.035  10.117   9.931 -3.9010 -1.5921 -1.1926
  178MOL0     H23992   8.000  10.225  10.077 -1.0086  0.7383 -1.5392
  178MOL0     H23993   8.060  10.053  10.085 -2.7478 -2.2305  0.5461
  178MOL0     H23994   7.669  10.371   9.637 -1.1015  2.5231 -1.7424
  178MOL0     H23995   7.675  10.473   9.400 -2.4825 -1.9214 -0.3922
  178MOL0     H23996   7.937  10.287   9.079 -0.1035 -2.4115 -2.6804
  178MOL0     H23997   7.807  10.190   9.078  0.5845 -0.1620  1.0982
  178MOL0     H23998   7.860  10.437   8.921  1.0161 -2.2182  0.9554
  178MOL0     H23999   7.821  10.278   8.858  1.7378 -1.6688  0.6212
  178MOL0     H24000   7.627  10.478   8.980 -0.8062  1.9526 -2.7147
  178MOL0     H24001   7.584  10.306   8.954  0.4669 -0.4984 -1.2153
  178MOL0     H24002   7.675  10.473   8.709 -2.9135  1.2159 -1.2775
  178MOL0     H24003   7.616  10.316   8.720  2.0051  0.5974 -0.8783
  178MOL0     H24004   7.446  10.527   8.836 -4.0866  0.9011 -1.9853
  178MOL0     H24005   7.391  10.370   8.777 -1.7912  0.9389 -2.3115
  178MOL0     H24006   7.517  10.592   8.602  3.4795 -3.5218  0.9704
  178MOL0     H24007   7.439  10.454   8.535  2.1287 -3.0290  1.9723
  178MOL0     H24008   7.298  10.663   8.708 -1.8101  1.2418 -1.5434
  178MOL0     H24009   7.227  10.506   8.653  0.2819 -0.1225 -0.2671
  178MOL0     H24010   7.159  10.692   8.526  1.2703  0.5318  3.4208
  178MOL0     H24011   7.229  10.551   8.432  0.6581 -0.9439  0.4048
  178MOL0     H24012   7.861  10.117   9.266  0.3232 -1.2031  1.0993
  178MOL0     H24013   7.885  10.027   9.499 -0.3817 -0.2712  3.2581
  178MOL0     H24014   7.545  10.113   9.911  1.2395 -2.0188 -0.6469
  178MOL0     H24015   7.485  10.013  10.110 -0.2760  2.2439 -0.2878
  178MOL0     H24016   7.378   9.217  10.627  2.3862 -1.2931  0.5582
  178MOL0     H24017   7.270   9.030  10.491 -2.1657  0.7488 -0.7184
  178MOL0     H24018   7.147   8.878  10.034 -3.1041  0.1921 -1.7321
  178MOL0     H24019   7.057   8.705   9.903  0.4522  0.2554  0.6683
  178MOL0     H24020   7.026   8.270   9.870  0.1122  0.6728 -0.3671
  178MOL0     H24021   7.118   8.259  10.016 -0.2535 -2.6998 -0.9383
  178MOL0     H24022   6.820   8.334  10.010 -0.2460 -0.4129  0.1703
  178MOL0     H24023   6.930   8.328  10.140 -1.6859 -1.9412  1.9624
  178MOL0     H24024   6.797   8.137  10.159  0.2546 -0.1129  0.1414
  178MOL0     H24025   6.948   8.074  10.106  0.5874  0.4608 -0.0212
  178MOL0     H24026   6.788   7.948   9.988 -3.2514  0.2679 -0.4185
  178MOL0     H24027   6.856   8.056   9.872  0.2895  0.2635  0.1953
  178MOL0     H24028   6.482   8.227   9.902  0.9738  0.7450 -1.0937
  178MOL0     H24029   7.157   8.406  10.187  1.0698 -0.8077 -1.9728
  178MOL0     H24030   7.271   8.581  10.328  1.7027  3.1598  0.1258
  179MOL0     O24031   0.290   2.162   8.477  0.1002  0.6891 -0.1434
  179MOL0     C24032   0.220   2.149   8.579 -0.3552  0.1003  1.2554
  179MOL0     O24033   0.211   2.229   8.688 -0.4930 -0.6369  0.5861
  179MOL0     C24034   0.279   2.343   8.699 -0.0653  0.7441  0.2709
  179MOL0     C24035   0.307   2.392   8.826 -0.4306  0.2866 -0.0123
  179MOL0     C24036   0.388   2.502   8.848 -0.6408  0.6527  0.1314
  179MOL0     C24037   0.421   2.586   8.742 -0.2398  0.1644  0.4584
  179MOL0     O24038   0.482   2.705   8.766 -0.4607 -0.4639 -0.8324
  179MOL0     C24039   0.601   2.734   8.685  1.5916  0.7260 -0.2284
  179MOL0     C24040   0.720   2.782   8.774 -0.0774  0.2257  0.0827
  179MOL0     C24041   0.759   2.685   8.887  0.4022  0.1097  0.8141
  179MOL0     C24042   0.907   2.694   8.950  0.1288  0.1679 -0.5169
  179MOL0     C24043   1.030   2.669   8.860 -0.5558  1.1230  0.1892
  179MOL0     C24044   1.156   2.710   8.920 -0.0041  0.1306  0.5089
  179MOL0     C24045   1.254   2.770   8.809  0.3882 -0.0174  0.6430
  179MOL0     C24046   1.377   2.836   8.872  0.4039 -0.0865 -0.2973
  179MOL0     N24047   1.440   2.733   8.969  0.7806 -0.6156  0.0143
  179MOL0     C24048   1.521   2.627   8.935 -0.2809 -0.2678 -0.3270
  179MOL0     C24049   1.583   2.588   9.050 -0.2813 -0.6009 -0.0967
  179MOL0     C24050   1.685   2.480   9.041 -0.0705 -0.1965 -0.0808
  179MOL0     C24051   1.771   2.454   9.159  1.1348  0.5699  0.2910
  179MOL0     C24052   1.822   2.572   9.247  0.7719 -0.6744  0.4665
  179MOL0     C24053   1.952   2.531   9.327  0.6214  1.3047  0.7555
  179MOL0     O24054   2.060   2.476   9.255 -0.2047 -0.1173  0.5391
  179MOL0     C24055   2.169   2.555   9.248  0.6105 -0.4292  0.1171
  179MOL0     C24056   2.289   2.482   9.260  1.0655  0.5044 -0.5810
  179MOL0     C24057   2.415   2.551   9.256 -0.4588 -1.2583  0.2640
  179MOL0     C24058   2.546   2.467   9.279 -0.6833 -0.6046 -0.1426
  179MOL0     C24059   2.415   2.698   9.245  0.4911  0.9298  0.2457
  179MOL0     C24060   2.543   2.762   9.249 -0.0709 -0.4852  0.3104
  179MOL0     O24061   2.619   2.764   9.362  0.1777 -0.0127 -0.5317
  179MOL0     C24062   2.752   2.810   9.349 -1.6140 -0.2867  0.2313
  179MOL0     C24063   2.786   2.927   9.410  0.7725 -0.6796 -0.2769
  179MOL0     C24064   2.914   2.983   9.393  0.0893  0.1511 -0.3791
  179MOL0     C24065   3.012   2.917   9.325  0.6004 -0.1446  0.1827
  179MOL0     O24066   3.131   2.981   9.322  0.5583 -0.4445  0.0145
  179MOL0     C24067   3.234   2.916   9.249 -0.2745 -0.3567 -0.0778
  179MOL0     C24068   3.358   3.009   9.262  0.7441  0.2629 -1.1064
  179MOL0     C24069   3.479   2.957   9.189 -0.1422 -0.3247 -0.2699
  179MOL0     C24070   3.591   3.044   9.194 -0.4614 -0.4973  0.1163
  179MOL0     C24071   3.724   2.980   9.151  0.5819  0.6511  1.0614
  179MOL0     C24072   3.717   2.902   9.014 -0.1955  0.5743  0.4398
  179MOL0     C24073   3.851   2.828   9.011 -0.1585 -0.3444  0.0307
  179MOL0     C24074   3.890   2.757   8.875  0.0620  0.6939 -0.4289
  179MOL0    Cl24075   3.934   2.887   8.754 -0.2533 -0.0396 -0.0708
  179MOL0     C24076   2.977   2.794   9.258 -0.2333 -0.2198 -0.2567
  179MOL0     C24077   2.847   2.743   9.278 -0.4635 -1.1329  0.0429
  179MOL0     O24078   2.583   2.794   9.140  0.5409 -0.5939 -0.1349
  179MOL0     C24079   2.300   2.764   9.218 -0.6846  0.7011 -0.3499
  179MOL0     C24080   2.178   2.693   9.217  0.3176  0.1946 -0.0572
  179MOL0     N24081   1.541   2.673   9.152 -0.4713  0.0953 -0.0944
  179MOL0     N24082   1.453   2.754   9.102  0.7665 -0.0136 -1.4229
  179MOL0     C24083   0.375   2.549   8.611  0.1302 -0.4023 -1.1185
  179MOL0     C24084   0.309   2.427   8.594  0.0404  0.1276  0.7571
  179MOL0     C24085   0.143   2.026   8.582  0.1094  0.8513 -0.2190
  179MOL0     C24086   0.156   1.927   8.473  0.3466 -0.3673  0.0112
  179MOL0     C24087   0.092   1.804   8.482  0.4907  0.1187 -0.0414
  179MOL0     C24088  -0.001   1.773   8.586 -0.5217  0.0966  0.1724
  179MOL0     O24089  -0.067   1.649   8.576  0.8438  0.5792  0.1532
  179MOL0     C24090  -0.139   1.588   8.687  0.1427 -0.6374  0.2952
  179MOL0     C24091  -0.295   1.633   8.684  0.0727  0.2733  0.7778
  179MOL0     C24092  -0.380   1.555   8.780 -0.1608 -0.2745 -0.7654
  179MOL0     C24093  -0.530   1.583   8.777  0.1956  0.7843  0.1382
  179MOL0     C24094  -0.607   1.524   8.888 -0.1785  0.0343  0.7647
  179MOL0     C24095  -0.656   1.484   8.990  0.9832 -0.2307 -0.7101
  179MOL0     C24096  -0.033   1.876   8.676  0.6349  0.2268  0.4222
  179MOL0     C24097   0.044   2.002   8.678 -0.1684 -0.1297  0.5650
  179MOL0     H24098   0.282   2.334   8.914  2.2964  0.6194  1.0766
  179MOL0     H24099   0.409   2.540   8.948 -0.9825  1.7320 -0.1894
  179MOL0     H24100   0.637   2.650   8.624  0.1868 -0.5196  0.6041
  179MOL0     H24101   0.574   2.819   8.621 -0.3504  1.6753  1.7341
  179MOL0     H24102   0.806   2.814   8.713  2.8385 -2.5930  2.3276
  179MOL0     H24103   0.699   2.874   8.829 -0.8423  0.0018  0.1683
  179MOL0     H24104   0.689   2.704   8.969 -0.1359  1.2558  0.1261
  179MOL0     H24105   0.743   2.581   8.858  2.3506 -0.1289  0.5202
  179MOL0     H24106   0.911   2.788   9.005 -1.0355  0.4233 -0.8245
  179MOL0     H24107   0.915   2.609   9.017  1.3743 -0.8135 -1.8348
  179MOL0     H24108   1.042   2.561   8.846 -0.0217  1.3579 -1.3366
  179MOL0     H24109   1.028   2.715   8.761  2.1874  2.9256  0.8742
  179MOL0     H24110   1.137   2.786   8.996 -1.2792 -1.4308  1.8198
  179MOL0     H24111   1.196   2.621   8.971 -2.6974  0.2599  3.0753
  179MOL0     H24112   1.270   2.685   8.742 -2.5608  1.7617 -2.6847
  179MOL0     H24113   1.210   2.848   8.746  1.0590  0.5523  0.8683
  179MOL0     H24114   1.328   2.918   8.925  2.0887  0.8195 -0.0997
  179MOL0     H24115   1.456   2.870   8.805 -0.3412 -3.2616 -3.0756
  179MOL0     H24116   1.539   2.583   8.837 -1.6338 -1.9815  0.1439
  179MOL0     H24117   1.648   2.386   8.998 -0.3783 -0.1300  0.0358
  179MOL0     H24118   1.749   2.536   8.972 -2.5224  0.3449 -2.1156
  179MOL0     H24119   1.855   2.390   9.132  0.0887 -0.3801 -0.8158
  179MOL0     H24120   1.719   2.381   9.222  1.1300 -1.2516 -1.7369
  179MOL0     H24121   1.742   2.595   9.318  0.4684 -0.2693  0.0045
  179MOL0     H24122   1.845   2.661   9.187 -0.8843  0.7091  1.7627
  179MOL0     H24123   1.919   2.455   9.398  0.6826  0.5745  0.0261
  179MOL0     H24124   1.981   2.623   9.378 -1.6868  3.1725 -1.0496
  179MOL0     H24125   2.276   2.375   9.273  3.0067  0.2937  0.0395
  179MOL0     H24126   2.521   2.369   9.319 -1.4141  0.1302  1.2665
  179MOL0     H24127   2.594   2.449   9.182 -3.0399  1.8128 -1.9126
  179MOL0     H24128   2.613   2.510   9.353  0.6429 -1.4238 -0.8258
  179MOL0     H24129   2.703   2.969   9.467  2.3593 -0.4558  2.0145
  179MOL0     H24130   2.950   3.076   9.435  1.6837 -1.9833  3.4910
  179MOL0     H24131   3.266   2.821   9.293 -1.6629 -0.3927  0.9188
  179MOL0     H24132   3.216   2.883   9.146  0.9467 -5.1200  0.9788
  179MOL0     H24133   3.339   3.105   9.214 -0.6967  0.2399 -0.6199
  179MOL0     H24134   3.381   3.020   9.368  3.3798 -3.3597 -1.1021
  179MOL0     H24135   3.454   2.944   9.083 -1.0658 -0.9191  0.0107
  179MOL0     H24136   3.514   2.859   9.221  2.4696  1.8853  4.5841
  179MOL0     H24137   3.561   3.126   9.128 -2.0355 -1.1086  0.0311
  179MOL0     H24138   3.597   3.102   9.287 -2.1928  2.0723 -1.2339
  179MOL0     H24139   3.754   2.904   9.225 -1.1662 -1.1676  0.0087
  179MOL0     H24140   3.801   3.057   9.143  0.0207  1.1194 -0.0420
  179MOL0     H24141   3.630   2.835   9.005  0.0137  0.2222  1.0064
  179MOL0     H24142   3.700   2.983   8.943 -1.4923  0.1402  0.2132
  179MOL0     H24143   3.863   2.761   9.097 -0.1369 -0.5697 -0.1468
  179MOL0     H24144   3.930   2.903   9.015 -3.1208  3.0537 -0.3032
  179MOL0     H24145   3.805   2.697   8.841  1.2462  0.4125 -3.1182
  179MOL0     H24146   3.973   2.687   8.880 -1.4633 -1.1762  3.6664
  179MOL0     H24147   3.055   2.744   9.202 -0.9837  1.2758 -2.8173
  179MOL0     H24148   2.819   2.649   9.232 -0.0911 -0.9145 -0.6570
  179MOL0     H24149   2.310   2.871   9.206  3.9114  0.5019 -0.0974
  179MOL0     H24150   2.087   2.748   9.196  0.7030  0.7710 -0.2509
  179MOL0     H24151   0.394   2.619   8.531  0.3690  0.0684 -0.6595
  179MOL0     H24152   0.278   2.407   8.492 -1.6048  2.0242  0.8223
  179MOL0     H24153   0.237   1.923   8.401  1.0144 -2.4727  0.7909
  179MOL0     H24154   0.117   1.725   8.411  0.5670 -0.5082  0.6739
  179MOL0     H24155  -0.137   1.482   8.658  1.0036  0.2901 -3.5345
  179MOL0     H24156  -0.099   1.612   8.786 -1.2984 -0.9645  0.9858
  179MOL0     H24157  -0.329   1.619   8.581 -0.4378  0.5179  0.9097
  179MOL0     H24158  -0.300   1.738   8.714 -1.5071 -0.0078  1.6390
  179MOL0     H24159  -0.359   1.569   8.887  1.2477 -1.5808 -0.8357
  179MOL0     H24160  -0.354   1.450   8.763  4.3992  0.3352  1.0750
  179MOL0     H24161  -0.566   1.530   8.689  0.5608 -0.7665  0.8933
  179MOL0     H24162  -0.544   1.691   8.769  0.9607  0.7854 -1.9152
  179MOL0     H24163  -0.700   1.454   9.083 -0.9073 -0.1738 -1.5392
  179MOL0     H24164  -0.104   1.846   8.752  1.3202  0.4091  1.1489
  179MOL0     H24165   0.028   2.089   8.741 -2.1450  1.9580 -2.5146
  180MOL0     O24166   5.178   2.677   8.449  0.0945  0.8186 -0.4907
  180MOL0     C24167   5.275   2.725   8.388 -0.3552 -0.1852  0.1233
  180MOL0     O24168   5.393   2.756   8.444  0.0403  0.1611 -0.4316
  180MOL0     C24169   5.430   2.730   8.572  0.1506 -0.2774 -0.8963
  180MOL0     C24170   5.567   2.692   8.602 -0.0547 -0.8895  0.1987
  180MOL0     C24171   5.600   2.670   8.743 -0.1645  0.5313 -0.2350
  180MOL0     C24172   5.506   2.679   8.838 -0.2049 -0.2582  0.7122
  180MOL0     O24173   5.539   2.681   8.971  0.2234  0.1281  0.8406
  180MOL0     C24174   5.664   2.748   9.012  1.2310  0.8070  0.5909
  180MOL0     C24175   5.622   2.849   9.116 -0.3329 -0.0714 -0.6605
  180MOL0     C24176   5.524   2.953   9.053  0.9899 -0.2117  0.6067
  180MOL0     C24177   5.589   3.039   8.957 -0.3940  0.2507  0.6260
  180MOL0     C24178   5.511   3.165   8.931  0.7095  0.4890 -0.7573
  180MOL0     C24179   5.376   3.132   8.873 -0.8544  0.5140  0.0891
  180MOL0     C24180   5.292   3.250   8.834 -0.3287  0.3449  0.0276
  180MOL0     C24181   5.150   3.216   8.786  0.3373  0.3561  0.1377
  180MOL0     N24182   5.115   3.257   8.642 -0.6164  0.1244  0.5911
  180MOL0     C24183   5.136   3.174   8.543  0.2453  0.8378  0.2226
  180MOL0     C24184   5.133   3.244   8.435  0.5871  1.1279 -0.2459
  180MOL0     C24185   5.153   3.192   8.294  0.0171 -0.5418 -0.2119
  180MOL0     C24186   5.055   3.260   8.193 -0.2341  0.4333  0.2065
  180MOL0     C24187   4.904   3.222   8.232 -0.0438  0.1599  0.0001
  180MOL0     C24188   4.809   3.276   8.130 -0.3056 -0.0936  0.4313
  180MOL0     O24189   4.851   3.215   8.006 -0.5165  0.4771 -0.2538
  180MOL0     C24190   4.756   3.212   7.906 -0.7369  0.2816 -0.0109
  180MOL0     C24191   4.623   3.201   7.926  0.0794 -0.3180 -0.5063
  180MOL0     C24192   4.534   3.184   7.822 -0.1342  1.0429  0.6709
  180MOL0     C24193   4.385   3.182   7.861 -0.3083  0.4834  0.5175
  180MOL0     C24194   4.582   3.158   7.693  0.9714  0.8988 -0.7259
  180MOL0     C24195   4.485   3.133   7.583  0.0888 -0.2584 -0.1098
  180MOL0     O24196   4.517   3.180   7.455  0.5914  0.1773  0.6651
  180MOL0     C24197   4.412   3.209   7.366 -0.7839 -0.2949 -0.1968
  180MOL0     C24198   4.454   3.241   7.237 -0.1166  0.2148  0.1795
  180MOL0     C24199   4.370   3.275   7.132  0.1838 -0.9204  0.5619
  180MOL0     C24200   4.237   3.303   7.162 -0.7891 -0.2260 -0.1449
  180MOL0     O24201   4.138   3.326   7.073  0.2736  0.4097  0.6532
  180MOL0     C24202   4.057   3.438   7.098  0.7174 -0.4042  0.4670
  180MOL0     C24203   3.999   3.490   6.960 -0.0986  0.1254  0.2190
  180MOL0     C24204   3.907   3.607   6.986  1.1979 -0.5382  0.2349
  180MOL0     C24205   3.840   3.665   6.859  0.0606  0.9916 -0.1927
  180MOL0     C24206   3.763   3.790   6.900 -0.8619  0.4813 -0.3891
  180MOL0     C24207   3.645   3.755   7.000 -0.5331  0.2276 -0.7328
  180MOL0     C24208   3.555   3.879   7.020 -1.3312 -0.6104  0.3708
  180MOL0     C24209   3.491   3.939   6.896 -0.9805  0.7221  0.3693
  180MOL0    Cl24210   3.407   3.809   6.815  0.3636  0.5999  0.2393
  180MOL0     C24211   4.194   3.283   7.295 -0.4691 -0.9984 -0.8602
  180MOL0     C24212   4.274   3.229   7.399  0.6984  0.1459 -0.3613
  180MOL0     O24213   4.389   3.055   7.611  0.1949 -0.8041  0.1753
  180MOL0     C24214   4.716   3.169   7.665 -1.1055  0.0218  0.0963
  180MOL0     C24215   4.808   3.194   7.777  0.2522 -0.2447  0.5604
  180MOL0     N24216   5.096   3.375   8.476  0.6597 -0.5208  0.6821
  180MOL0     N24217   5.081   3.382   8.604  0.8299  0.0014 -0.3081
  180MOL0     C24218   5.376   2.713   8.813  0.1745  0.3959  0.5280
  180MOL0     C24219   5.344   2.735   8.676 -0.6742 -0.5906  0.1810
  180MOL0     C24220   5.255   2.754   8.242 -0.6745 -0.3052 -0.1440
  180MOL0     C24221   5.120   2.746   8.193  0.5991 -0.5422  0.7350
  180MOL0     C24222   5.092   2.780   8.060 -0.1036  0.2458  1.4423
  180MOL0     C24223   5.189   2.821   7.975 -0.0387  0.1986 -0.1284
  180MOL0     O24224   5.151   2.854   7.846 -0.5740  0.6131  0.4844
  180MOL0     C24225   5.020   2.832   7.791  0.1846 -0.0719 -0.2480
  180MOL0     C24226   5.018   2.868   7.648  1.0314  0.9290  0.1335
  180MOL0     C24227   4.874   2.832   7.593 -0.5068  0.2237 -1.0616
  180MOL0     C24228   4.881   2.873   7.446 -0.5077 -0.3095 -0.4208
  180MOL0     C24229   4.753   2.884   7.369  0.6919 -0.9572 -0.5385
  180MOL0     C24230   4.641   2.893   7.313 -0.2758 -0.5370 -1.1050
  180MOL0     C24231   5.326   2.836   8.022  0.5903 -0.3420  0.5978
  180MOL0     C24232   5.351   2.806   8.152  0.2710  0.1447 -0.0385
  180MOL0     H24233   5.643   2.699   8.525  1.2871  2.2809  1.6487
  180MOL0     H24234   5.697   2.634   8.776 -0.6470 -1.8777 -1.2501
  180MOL0     H24235   5.722   2.669   9.060 -1.2006 -1.2851  0.2990
  180MOL0     H24236   5.728   2.793   8.935  2.2515  1.7564  1.9222
  180MOL0     H24237   5.584   2.785   9.196  2.7701 -2.5647 -0.9914
  180MOL0     H24238   5.716   2.886   9.156 -0.9194 -0.8899  1.6551
  180MOL0     H24239   5.434   2.903   9.016 -0.4201  2.0757  0.7598
  180MOL0     H24240   5.490   3.020   9.133  1.5390  2.6096 -1.3818
  180MOL0     H24241   5.686   3.068   8.997  1.0153  0.9281 -2.9031
  180MOL0     H24242   5.605   2.992   8.859  0.4954  1.7613  0.0233
  180MOL0     H24243   5.490   3.209   9.029  0.6403 -0.9139 -0.1119
  180MOL0     H24244   5.569   3.225   8.861  0.0579  1.4238 -0.5156
  180MOL0     H24245   5.383   3.083   8.775 -3.3948 -1.1221  0.6211
  180MOL0     H24246   5.319   3.063   8.936  0.4630  1.2643  2.1630
  180MOL0     H24247   5.292   3.312   8.924 -1.8904 -0.6789  0.7744
  180MOL0     H24248   5.329   3.311   8.751 -0.6494  0.5511  0.0333
  180MOL0     H24249   5.083   3.258   8.862 -1.5916  0.0296 -1.2974
  180MOL0     H24250   5.143   3.107   8.791  1.6171  0.2785  0.7335
  180MOL0     H24251   5.156   3.067   8.541  1.3018  1.0314 -0.1605
  180MOL0     H24252   5.249   3.233   8.260 -0.9749  3.3603  1.1479
  180MOL0     H24253   5.143   3.083   8.288 -0.3081 -0.4668 -1.1899
  180MOL0     H24254   5.060   3.230   8.088 -2.1587  1.7331 -0.3314
  180MOL0     H24255   5.075   3.367   8.181  3.4202  0.4543  4.1974
  180MOL0     H24256   4.865   3.257   8.329 -1.2357  0.9414 -0.7299
  180MOL0     H24257   4.885   3.114   8.225 -1.6252  0.4415 -0.5339
  180MOL0     H24258   4.823   3.384   8.135 -2.4400  0.1935  1.0846
  180MOL0     H24259   4.707   3.252   8.159 -0.2193  0.4450  1.2043
  180MOL0     H24260   4.582   3.194   8.026  3.3391  0.3492  0.9758
  180MOL0     H24261   4.319   3.229   7.788 -4.1964  0.4738  3.6628
  180MOL0     H24262   4.344   3.084   7.885  0.6000  0.3932  1.8463
  180MOL0     H24263   4.382   3.234   7.957  1.0877 -2.1662  2.1267
  180MOL0     H24264   4.556   3.221   7.208  1.0605  1.7889  2.8112
  180MOL0     H24265   4.398   3.299   7.029 -0.3278  4.4096  1.3900
  180MOL0     H24266   3.977   3.403   7.163 -0.3682 -4.1690 -2.5027
  180MOL0     H24267   4.111   3.525   7.137 -1.5228  1.4453 -0.3557
  180MOL0     H24268   4.084   3.523   6.901  1.8106  0.6439  3.0978
  180MOL0     H24269   3.948   3.406   6.910  2.9035  0.1962 -3.3979
  180MOL0     H24270   3.957   3.687   7.040  2.0519  2.3522 -4.2749
  180MOL0     H24271   3.827   3.579   7.055  2.0292  0.7050  1.7637
  180MOL0     H24272   3.923   3.694   6.794 -0.2714  1.5178 -0.3878
  180MOL0     H24273   3.765   3.598   6.817 -1.2134  2.3879 -0.2137
  180MOL0     H24274   3.733   3.832   6.803 -1.2279 -0.9741 -0.9298
  180MOL0     H24275   3.826   3.859   6.958  0.8624  0.0866 -1.6875
  180MOL0     H24276   3.588   3.669   6.965 -0.4991 -0.3981  0.6539
  180MOL0     H24277   3.685   3.721   7.097 -0.2598  0.9540 -0.5834
  180MOL0     H24278   3.616   3.961   7.061  0.2434  0.3721 -3.5308
  180MOL0     H24279   3.479   3.839   7.088 -1.1588  0.6512  1.3586
  180MOL0     H24280   3.569   3.985   6.834  0.9434 -0.2021  1.9798
  180MOL0     H24281   3.419   4.011   6.936 -1.6742 -1.7654  4.0433
  180MOL0     H24282   4.094   3.303   7.331 -1.2082 -0.1915 -3.1807
  180MOL0     H24283   4.237   3.190   7.493  2.0658 -2.3095 -0.7368
  180MOL0     H24284   4.755   3.175   7.564  1.3221  0.1643  0.9889
  180MOL0     H24285   4.913   3.196   7.748 -0.0252  2.2026 -0.5163
  180MOL0     H24286   5.296   2.728   8.884 -0.8742  2.5187 -0.9749
  180MOL0     H24287   5.242   2.769   8.666 -0.3300  1.0542  1.7420
  180MOL0     H24288   5.042   2.715   8.261  0.8660  0.5713  1.5816
  180MOL0     H24289   4.985   2.771   8.040  0.0762 -1.0312  0.9412
  180MOL0     H24290   4.981   2.730   7.796 -1.0973  0.3930 -0.5348
  180MOL0     H24291   4.947   2.898   7.838 -0.1971 -2.1769  2.3336
  180MOL0     H24292   5.096   2.803   7.609  0.9007  1.3217 -0.7952
  180MOL0     H24293   5.027   2.977   7.650  0.9226  0.9493  1.9901
  180MOL0     H24294   4.805   2.887   7.658  2.7356  2.2467  0.9817
  180MOL0     H24295   4.853   2.725   7.599 -3.3113  0.6571 -1.8501
  180MOL0     H24296   4.938   2.792   7.398 -0.3375 -2.6719  3.3549
  180MOL0     H24297   4.925   2.973   7.435 -5.1600  1.7132 -4.8998
  180MOL0     H24298   4.542   2.904   7.275 -0.2805  2.5786 -0.5044
  180MOL0     H24299   5.404   2.866   7.953  0.3847 -0.9572  0.0823
  180MOL0     H24300   5.456   2.803   8.180  0.0347 -2.1554  0.8509
  181MOL0     O24301   5.259   0.941   7.839  0.3802  0.7331 -0.0983
  181MOL0     C24302   5.246   0.812   7.841 -0.0906 -0.0172 -1.0623
  181MOL0     O24303   5.344   0.715   7.888  0.5409  0.4453 -0.9002
  181MOL0     C24304   5.474   0.752   7.919  1.2673 -1.2418 -0.1126
  181MOL0     C24305   5.539   0.862   7.872 -0.3706 -0.3884  0.9634
  181MOL0     C24306   5.673   0.887   7.915 -0.2901  1.3092  0.0388
  181MOL0     C24307   5.736   0.790   7.995 -0.5541 -0.3824 -0.3848
  181MOL0     O24308   5.859   0.797   8.044 -0.0621 -0.3661  0.5114
  181MOL0     C24309   5.935   0.916   8.032  1.0303 -0.4112  1.8892
  181MOL0     C24310   6.079   0.889   8.081 -0.3324  0.0026  0.8204
  181MOL0     C24311   6.064   0.860   8.229 -0.1156  0.0048 -0.8755
  181MOL0     C24312   6.200   0.812   8.280 -0.3184  0.5114  0.0565
  181MOL0     C24313   6.213   0.773   8.434 -0.4081  0.0848 -0.0213
  181MOL0     C24314   6.168   0.633   8.457 -0.3033  0.8567  0.4709
  181MOL0     C24315   6.287   0.535   8.457  0.2085  0.7398  0.0159
  181MOL0     C24316   6.375   0.516   8.329  0.2982 -0.1962 -0.0433
  181MOL0     N24317   6.307   0.419   8.234  0.1481  0.2413 -0.3865
  181MOL0     C24318   6.216   0.434   8.138  0.0533 -0.8363 -0.3417
  181MOL0     C24319   6.197   0.316   8.074  0.1061 -0.8546  1.2706
  181MOL0     C24320   6.094   0.289   7.968 -1.1702  0.5210  0.2067
  181MOL0     C24321   6.077   0.404   7.863 -0.1137 -0.3483  0.5257
  181MOL0     C24322   5.934   0.401   7.799  0.2843 -0.4995 -0.4516
  181MOL0     C24323   5.899   0.522   7.712 -0.0581  0.1145 -0.4083
  181MOL0     O24324   5.928   0.502   7.566 -0.0215  0.8682 -0.4802
  181MOL0     C24325   5.856   0.434   7.485 -0.1065 -0.5985  1.3278
  181MOL0     C24326   5.745   0.371   7.520  0.3585  0.1972 -0.3392
  181MOL0     C24327   5.667   0.287   7.441  0.1682 -0.0078 -1.3911
  181MOL0     C24328   5.557   0.217   7.515 -0.5424  0.3862  0.3135
  181MOL0     C24329   5.701   0.285   7.300 -0.1963  1.2373 -0.2775
  181MOL0     C24330   5.636   0.192   7.207  0.1109 -1.2751 -0.2146
  181MOL0     O24331   5.717   0.153   7.092  0.4454  0.6222  0.2615
  181MOL0     C24332   5.661   0.120   6.969 -0.3936  0.8459 -0.2954
  181MOL0     C24333   5.762   0.087   6.880  0.3143 -0.6262 -0.5916
  181MOL0     C24334   5.726   0.046   6.754 -0.4131 -0.4878  0.5428
  181MOL0     C24335   5.591   0.031   6.716  1.1080 -0.2890  0.3794
  181MOL0     O24336   5.564  -0.014   6.585  0.3651 -0.1585  0.4681
  181MOL0     C24337   5.421  -0.032   6.545  0.5431  0.6330  1.0175
  181MOL0     C24338   5.398  -0.103   6.411  0.5708  1.0646 -0.0391
  181MOL0     C24339   5.246  -0.143   6.391 -0.0942  0.6452 -0.1765
  181MOL0     C24340   5.219  -0.250   6.290 -1.2159 -0.7404  0.1359
  181MOL0     C24341   5.247  -0.392   6.345 -0.7082 -0.0057 -0.7068
  181MOL0     C24342   5.186  -0.503   6.244 -0.5806 -0.3424 -0.5943
  181MOL0     C24343   5.029  -0.507   6.254 -1.1847 -0.1115  0.4167
  181MOL0     C24344   4.980  -0.629   6.174  0.3688 -0.7009  0.1037
  181MOL0    Cl24345   4.845  -0.708   6.259 -0.1672 -0.4422  0.3661
  181MOL0     C24346   5.486   0.067   6.811  0.0371 -0.3388  0.3995
  181MOL0     C24347   5.524   0.116   6.939 -0.2717  0.6316  0.9144
  181MOL0     O24348   5.519   0.154   7.227 -0.8815 -0.6506 -0.7035
  181MOL0     C24349   5.813   0.369   7.255 -0.0323  0.5239  0.6575
  181MOL0     C24350   5.895   0.436   7.346  0.4963  0.0115  0.0782
  181MOL0     N24351   6.271   0.224   8.138  0.3905 -1.0130 -0.2042
  181MOL0     N24352   6.337   0.284   8.222  0.0742 -0.0659  0.3344
  181MOL0     C24353   5.679   0.672   8.022 -0.4447 -0.3707 -0.5734
  181MOL0     C24354   5.546   0.649   7.978  0.0915 -0.1211 -0.8925
  181MOL0     C24355   5.122   0.761   7.792  0.0953 -0.5072  0.6467
  181MOL0     C24356   5.106   0.629   7.748 -0.0878 -0.3177 -0.1185
  181MOL0     C24357   4.989   0.591   7.678 -0.6470  0.2691  1.0945
  181MOL0     C24358   4.884   0.668   7.650  0.6436  0.3176 -0.4028
  181MOL0     O24359   4.760   0.622   7.607  0.4669  0.6744  0.2943
  181MOL0     C24360   4.688   0.721   7.532  0.3362 -0.0818 -0.2765
  181MOL0     C24361   4.586   0.643   7.446 -1.7015  0.8518  0.1615
  181MOL0     C24362   4.648   0.530   7.348  0.3689  0.4988 -0.8021
  181MOL0     C24363   4.702   0.571   7.214 -0.4517  0.3155  0.1182
  181MOL0     C24364   4.804   0.680   7.218  0.1180  0.2510  0.7078
  181MOL0     C24365   4.865   0.789   7.217 -0.5810  0.5562  0.8766
  181MOL0     C24366   4.897   0.804   7.697 -0.3252  0.2071  0.5232
  181MOL0     C24367   5.012   0.849   7.764 -0.6823 -0.7442 -0.0084
  181MOL0     H24368   5.493   0.944   7.817 -0.5845 -2.0739 -1.5184
  181MOL0     H24369   5.721   0.981   7.890  1.7297  0.8351  1.8723
  181MOL0     H24370   5.950   0.951   7.930 -4.4298  2.1380  1.5720
  181MOL0     H24371   5.892   1.005   8.079 -1.5319 -0.0315 -0.8792
  181MOL0     H24372   6.123   0.811   8.018  0.4869 -0.3563  1.8193
  181MOL0     H24373   6.127   0.987   8.068 -0.6426  0.1421  0.6923
  181MOL0     H24374   6.018   0.943   8.283  0.8399  2.4975 -3.6079
  181MOL0     H24375   5.995   0.775   8.233 -2.0259  1.5259 -0.2777
  181MOL0     H24376   6.242   0.724   8.231  3.6982  2.0987  0.2672
  181MOL0     H24377   6.270   0.895   8.265  0.7335  0.1370  2.4846
  181MOL0     H24378   6.320   0.779   8.458  0.0976 -1.2587 -1.7439
  181MOL0     H24379   6.157   0.850   8.489  3.6476  2.8015  0.7678
  181MOL0     H24380   6.128   0.626   8.559 -1.0302  2.7991  0.3665
  181MOL0     H24381   6.088   0.599   8.390  0.1841  0.4110  0.1143
  181MOL0     H24382   6.356   0.577   8.531  1.3506 -2.0209  0.6564
  181MOL0     H24383   6.251   0.440   8.498 -0.5556 -0.6233 -3.4988
  181MOL0     H24384   6.467   0.467   8.362 -0.1798 -2.5312 -1.8679
  181MOL0     H24385   6.408   0.610   8.283 -1.7952  0.2745 -0.6499
  181MOL0     H24386   6.160   0.527   8.129  1.5309  0.4668  2.4481
  181MOL0     H24387   6.115   0.197   7.912  2.7812  1.9554 -0.9944
  181MOL0     H24388   5.998   0.272   8.018 -2.3372 -1.6768 -2.4724
  181MOL0     H24389   6.153   0.398   7.784 -1.1454  1.2244 -0.6539
  181MOL0     H24390   6.090   0.498   7.917 -0.8698  0.2582 -0.3268
  181MOL0     H24391   5.854   0.386   7.872  0.4741 -0.2534 -0.1873
  181MOL0     H24392   5.930   0.309   7.740 -0.0498 -1.6681  1.2958
  181MOL0     H24393   5.951   0.611   7.749 -1.1868  1.8602 -2.7980
  181MOL0     H24394   5.794   0.547   7.730  0.5520  1.7259  1.2425
  181MOL0     H24395   5.716   0.372   7.624 -2.7603  1.7593 -1.1032
  181MOL0     H24396   5.461   0.257   7.482 -0.2736  1.1074  0.3787
  181MOL0     H24397   5.553   0.119   7.468 -0.5036  1.5021 -2.1505
  181MOL0     H24398   5.565   0.207   7.624 -1.1302 -2.7339  0.1480
  181MOL0     H24399   5.865   0.084   6.916 -0.3118 -3.0673  1.2496
  181MOL0     H24400   5.801  -0.006   6.695 -2.4110 -1.0545 -1.6668
  181MOL0     H24401   5.372  -0.100   6.615 -1.7663  0.9109 -0.2147
  181MOL0     H24402   5.375   0.067   6.538 -2.8644 -0.7493  1.4467
  181MOL0     H24403   5.427  -0.036   6.330  2.2786  2.2140  1.4562
  181MOL0     H24404   5.466  -0.189   6.410 -1.0803 -0.3097 -0.6808
  181MOL0     H24405   5.181  -0.061   6.357 -3.0934 -2.0385 -1.4851
  181MOL0     H24406   5.207  -0.164   6.491  2.0671  0.5351  0.6901
  181MOL0     H24407   5.113  -0.244   6.265 -0.7442 -0.5904 -2.0183
  181MOL0     H24408   5.271  -0.226   6.197 -1.4849  0.0216  0.1789
  181MOL0     H24409   5.191  -0.407   6.438  0.5591 -0.7694 -0.0245
  181MOL0     H24410   5.353  -0.407   6.367 -1.6487 -3.6265  2.6980
  181MOL0     H24411   5.212  -0.477   6.141 -1.6219  1.6503 -0.4042
  181MOL0     H24412   5.235  -0.599   6.262  2.1395  1.2437  0.9589
  181MOL0     H24413   4.991  -0.425   6.192 -2.2212 -2.4140 -2.2016
  181MOL0     H24414   4.995  -0.513   6.358 -0.3440 -0.9555  0.6576
  181MOL0     H24415   5.059  -0.704   6.172 -0.5534 -1.7843  1.8262
  181MOL0     H24416   4.954  -0.604   6.070  3.8347 -0.0639 -0.7629
  181MOL0     H24417   5.381   0.052   6.788  0.3454 -3.1067  0.3825
  181MOL0     H24418   5.449   0.136   7.014 -1.6305  1.0277 -0.4983
  181MOL0     H24419   5.851   0.379   7.154  0.8944 -1.3034  0.7906
  181MOL0     H24420   5.970   0.508   7.318 -1.4515  2.2301  0.2472
  181MOL0     H24421   5.727   0.589   8.073 -1.6240 -1.9773 -1.9593
  181MOL0     H24422   5.497   0.555   8.005 -0.3182  0.2528 -0.3132
  181MOL0     H24423   5.198   0.573   7.755  2.3942  2.8235 -3.6192
  181MOL0     H24424   4.979   0.483   7.672  2.2146 -0.0435  0.6331
  181MOL0     H24425   4.650   0.794   7.605  2.8390  0.7402  0.3208
  181MOL0     H24426   4.760   0.772   7.467  0.2417  1.0784  0.4782
  181MOL0     H24427   4.531   0.717   7.389 -0.7266 -0.9362 -3.4281
  181MOL0     H24428   4.517   0.593   7.514  0.5341 -1.0903  1.1458
  181MOL0     H24429   4.576   0.450   7.332 -2.6129  2.6827  0.6552
  181MOL0     H24430   4.729   0.478   7.400 -0.7999 -2.4444 -1.7536
  181MOL0     H24431   4.623   0.605   7.145  0.5966 -2.3048 -2.5908
  181MOL0     H24432   4.753   0.488   7.164  0.0815  0.6910  0.0269
  181MOL0     H24433   4.920   0.880   7.213  0.1077  0.1612  1.2219
  181MOL0     H24434   4.817   0.877   7.698  0.9351  1.6243  1.3308
  181MOL0     H24435   5.018   0.954   7.790  1.0861 -1.1795  1.5483
  182MOL0     O24436  11.385  11.354   8.391 -0.3386 -0.2495  1.3157
  182MOL0     C24437  11.488  11.383   8.443  0.2843 -0.9237  0.3578
  182MOL0     O24438  11.505  11.471   8.550  0.2149 -0.0319 -0.0642
  182MOL0     C24439  11.394  11.542   8.604  0.0508  0.6337  0.8239
  182MOL0     C24440  11.270  11.496   8.640  0.2622 -0.1951  0.4231
  182MOL0     C24441  11.176  11.578   8.714 -0.5988  0.7297  0.0508
  182MOL0     C24442  11.206  11.716   8.736 -0.3260  0.1386 -0.4428
  182MOL0     O24443  11.125  11.787   8.820  0.4475 -0.0493 -0.1385
  182MOL0     C24444  10.995  11.728   8.861 -0.2641 -0.6519 -0.1330
  182MOL0     C24445  10.892  11.735   8.750 -0.1529  1.2783 -1.1073
  182MOL0     C24446  10.749  11.731   8.812  0.8051  0.2990  0.0328
  182MOL0     C24447  10.699  11.586   8.812 -0.6341  0.4705  0.1887
  182MOL0     C24448  10.550  11.575   8.840  0.3076  0.4607  0.4868
  182MOL0     C24449  10.524  11.432   8.897  0.6228  0.0116 -0.3866
  182MOL0     C24450  10.367  11.417   8.913  0.2907 -0.6109  0.6612
  182MOL0     C24451  10.321  11.266   8.916  0.1119  0.0831 -0.3066
  182MOL0     N24452  10.315  11.233   9.063  0.1375 -0.6287  0.3462
  182MOL0     C24453  10.418  11.166   9.127  0.3187 -0.1849  0.5531
  182MOL0     C24454  10.411  11.204   9.257  0.2528  0.9008 -0.5523
  182MOL0     C24455  10.515  11.148   9.361 -0.2365 -0.0773 -0.1297
  182MOL0     C24456  10.492  11.001   9.377 -0.2752  1.7761 -0.7117
  182MOL0     C24457  10.541  10.960   9.517 -1.0092  0.0032  0.0957
  182MOL0     C24458  10.504  10.820   9.550 -0.6572 -0.0044 -0.1258
  182MOL0     O24459  10.583  10.742   9.470 -0.8191 -0.3792  0.5058
  182MOL0     C24460  10.594  10.610   9.510 -0.3942  0.2750  0.5817
  182MOL0     C24461  10.551  10.549   9.620  0.0297  0.3307 -1.1681
  182MOL0     C24462  10.545  10.412   9.627  0.1527 -0.2333  0.3893
  182MOL0     C24463  10.469  10.361   9.739  0.2406 -0.5135 -0.8480
  182MOL0     C24464  10.589  10.336   9.511 -0.2967  0.3965  0.2091
  182MOL0     C24465  10.573  10.183   9.508  0.4262  0.4515  0.6254
  182MOL0     O24466  10.561  10.134   9.382 -0.2337  0.4299  0.5603
  182MOL0     C24467  10.561   9.996   9.365  0.0515 -0.3018 -0.4142
  182MOL0     C24468  10.450   9.912   9.366 -0.1291 -0.0242 -0.0562
  182MOL0     C24469  10.457   9.775   9.323 -0.8660  0.0627 -0.0065
  182MOL0     C24470  10.573   9.711   9.296 -0.1253  0.7833  0.2142
  182MOL0     O24471  10.572   9.587   9.250  0.4296  0.4274  1.2022
  182MOL0     C24472  10.656   9.492   9.316  0.7092  0.4984  0.0521
  182MOL0     C24473  10.688   9.386   9.214  0.7830 -0.1060  0.7330
  182MOL0     C24474  10.823   9.308   9.248  0.7668 -0.4966  0.6605
  182MOL0     C24475  10.854   9.175   9.180  0.8459 -0.4789 -0.8912
  182MOL0     C24476  10.844   9.179   9.025  0.0363 -0.2981 -0.3647
  182MOL0     C24477  10.937   9.283   8.959  1.0850  0.9275  0.7462
  182MOL0     C24478  10.962   9.223   8.816  0.0745 -0.6978  0.2897
  182MOL0     C24479  11.073   9.298   8.744  0.3657 -0.4172 -0.1323
  182MOL0    Cl24480  11.013   9.468   8.758  0.3275  0.0935  0.3962
  182MOL0     C24481  10.692   9.792   9.297 -0.1966  0.7752  0.9252
  182MOL0     C24482  10.685   9.928   9.340  0.9456 -0.9758  0.9555
  182MOL0     O24483  10.586  10.108   9.611 -0.2039 -0.0286 -0.6115
  182MOL0     C24484  10.642  10.400   9.400 -0.2475  0.3754 -0.6846
  182MOL0     C24485  10.632  10.540   9.398  0.0629  0.1551 -0.2951
  182MOL0     N24486  10.286  11.261   9.281 -0.1587  0.3530  0.9199
  182MOL0     N24487  10.235  11.284   9.162  0.3763  0.2856  0.3946
  182MOL0     C24488  11.325  11.767   8.689 -0.3838 -0.6916 -0.2770
  182MOL0     C24489  11.415  11.672   8.633 -0.2744 -0.0497  0.3729
  182MOL0     C24490  11.615  11.324   8.384 -1.2943 -1.5377  0.0455
  182MOL0     C24491  11.740  11.336   8.449 -1.3025 -0.8475 -0.1278
  182MOL0     C24492  11.843  11.250   8.421  0.3303 -0.2833 -1.0307
  182MOL0     C24493  11.834  11.155   8.318  0.1330  0.1985  0.8934
  182MOL0     O24494  11.929  11.066   8.280 -0.7480  0.2266  0.0232
  182MOL0     C24495  12.037  11.135   8.236 -0.9841 -0.2602  1.2301
  182MOL0     C24496  12.128  11.035   8.156  1.4310 -0.1460 -1.7152
  182MOL0     C24497  12.144  11.073   8.015  0.1270  0.0770  0.5204
  182MOL0     C24498  12.025  11.083   7.916 -0.3457 -0.5461  0.3108
  182MOL0     C24499  11.957  10.953   7.914  0.2872 -0.1840 -1.1830
  182MOL0     C24500  11.899  10.848   7.928 -0.6730  0.4406  0.6421
  182MOL0     C24501  11.715  11.157   8.243 -0.1761 -0.4436 -0.7790
  182MOL0     C24502  11.615  11.244   8.277 -0.3194 -0.4488 -0.9617
  182MOL0     H24503  11.246  11.392   8.625 -0.5881 -0.2692  2.0233
  182MOL0     H24504  11.101  11.513   8.757 -1.0595 -1.0972 -3.2009
  182MOL0     H24505  11.017  11.631   8.905  3.5228 -0.3924 -1.1166
  182MOL0     H24506  10.967  11.786   8.949  2.2129 -0.3267  0.5171
  182MOL0     H24507  10.906  11.826   8.691  3.0091  1.7663  0.1942
  182MOL0     H24508  10.908  11.648   8.686 -1.4591 -0.5290  0.8980
  182MOL0     H24509  10.752  11.770   8.914  0.2486 -2.5073  1.2031
  182MOL0     H24510  10.684  11.798   8.754 -0.5595  0.1491  1.3246
  182MOL0     H24511  10.716  11.545   8.711 -0.2078  1.9320 -0.3527
  182MOL0     H24512  10.767  11.537   8.882  1.7494  3.8076  0.3981
  182MOL0     H24513  10.511  11.653   8.906 -1.1963  1.0181 -1.0045
  182MOL0     H24514  10.484  11.589   8.755 -1.1802 -0.4140  1.4673
  182MOL0     H24515  10.555  11.356   8.825  2.2311 -0.2885  0.5756
  182MOL0     H24516  10.569  11.422   8.996 -0.1091  1.0989  0.0801
  182MOL0     H24517  10.334  11.476   8.999 -2.1770 -1.6944  0.5389
  182MOL0     H24518  10.311  11.461   8.831 -3.1039 -1.0535  2.5748
  182MOL0     H24519  10.378  11.198   8.852 -0.2054 -0.3598 -0.1213
  182MOL0     H24520  10.216  11.256   8.888 -0.4336  0.8074  1.3185
  182MOL0     H24521  10.489  11.103   9.075  2.4801  1.2741  1.6230
  182MOL0     H24522  10.618  11.158   9.326  0.3344  0.3390  1.5935
  182MOL0     H24523  10.512  11.196   9.458 -1.3675 -0.6742  0.1503
  182MOL0     H24524  10.543  10.937   9.305 -3.5176 -1.5144 -0.4095
  182MOL0     H24525  10.387  10.975   9.357  1.2909 -4.2826 -3.4363
  182MOL0     H24526  10.488  11.029   9.583 -2.7672 -0.1650 -1.0738
  182MOL0     H24527  10.649  10.969   9.511 -1.1344  1.0229 -1.0143
  182MOL0     H24528  10.398  10.808   9.525 -0.1791 -1.0082 -1.7976
  182MOL0     H24529  10.525  10.800   9.655  2.8854 -3.4020 -1.2673
  182MOL0     H24530  10.513  10.610   9.702 -0.2364  1.8252 -2.3480
  182MOL0     H24531  10.365  10.332   9.718  0.5732 -4.8571  2.0420
  182MOL0     H24532  10.515  10.276   9.791 -0.2117 -1.9065 -2.6313
  182MOL0     H24533  10.459  10.435   9.819  1.4602 -2.0638  0.8382
  182MOL0     H24534  10.352   9.945   9.401  0.5658  0.4906  1.5081
  182MOL0     H24535  10.362   9.721   9.325 -0.7682 -0.0986  0.9967
  182MOL0     H24536  10.744   9.542   9.359 -0.2011  2.5541 -0.3244
  182MOL0     H24537  10.612   9.447   9.405  0.6710  0.8869  0.2327
  182MOL0     H24538  10.601   9.319   9.221 -0.4675  1.3440 -0.3325
  182MOL0     H24539  10.698   9.430   9.115 -1.7456  1.8243  1.2129
  182MOL0     H24540  10.818   9.290   9.356  2.1895 -2.8364  0.3985
  182MOL0     H24541  10.907   9.373   9.221  2.2565 -2.6136 -0.0996
  182MOL0     H24542  10.960   9.152   9.197  0.0674 -1.5460  3.9985
  182MOL0     H24543  10.795   9.094   9.222  1.1624  0.1986  1.0020
  182MOL0     H24544  10.745   9.195   8.980  0.0050 -1.6440 -0.8250
  182MOL0     H24545  10.874   9.080   8.988 -0.1719 -0.6222  0.3092
  182MOL0     H24546  10.887   9.380   8.961 -0.2889  0.2539  2.7048
  182MOL0     H24547  11.031   9.293   9.013  0.6994  0.3456  1.5552
  182MOL0     H24548  10.875   9.258   8.761 -0.7228 -1.4372  1.0410
  182MOL0     H24549  10.985   9.117   8.801  2.6425  0.0355 -1.7537
  182MOL0     H24550  11.088   9.276   8.638  1.2949 -0.7851  0.0693
  182MOL0     H24551  11.166   9.263   8.789 -0.0852  1.1998  2.2777
  182MOL0     H24552  10.782   9.741   9.264 -1.5608 -0.3589 -1.3012
  182MOL0     H24553  10.784   9.973   9.334  0.9478 -1.0755  0.0496
  182MOL0     H24554  10.673  10.343   9.313  3.1258 -1.5336  1.5342
  182MOL0     H24555  10.641  10.590   9.302 -0.3095 -1.4269 -1.2090
  182MOL0     H24556  11.358  11.869   8.702 -1.6571  0.0809 -2.5933
  182MOL0     H24557  11.520  11.699   8.627 -0.8034  2.9285  2.5657
  182MOL0     H24558  11.747  11.394   8.541 -2.3141  1.7017 -1.5504
  182MOL0     H24559  11.924  11.246   8.492  0.9898  0.9927 -1.6857
  182MOL0     H24560  12.007  11.218   8.172 -2.6099 -0.3366  1.8426
  182MOL0     H24561  12.092  11.165   8.326 -0.5196 -3.2768  2.0751
  182MOL0     H24562  12.072  10.941   8.164 -2.5000  2.1093  0.7918
  182MOL0     H24563  12.225  11.026   8.204  1.2286  1.0634 -1.0344
  182MOL0     H24564  12.216  11.000   7.977  2.7968  2.6065  0.3291
  182MOL0     H24565  12.191  11.172   8.022 -3.2456  1.6935  3.6966
  182MOL0     H24566  12.073  11.093   7.817 -1.3151  2.3039  0.0288
  182MOL0     H24567  11.953  11.162   7.938 -1.2325 -0.7290 -1.6764
  182MOL0     H24568  11.841  10.760   7.949 -0.2392  0.2754  1.1952
  182MOL0     H24569  11.697  11.079   8.170  1.6701 -2.4666  0.7738
  182MOL0     H24570  11.526  11.221   8.218  0.9798 -2.9987 -2.0761
  183MOL0     O24571   0.281   2.353   5.312 -0.6019 -0.3184 -0.6528
  183MOL0     C24572   0.182   2.413   5.266 -0.5193 -0.1600 -0.4457
  183MOL0     O24573   0.137   2.527   5.313  0.2127  0.9175  0.6972
  183MOL0     C24574   0.193   2.577   5.429 -0.3821  0.2211  0.5913
  183MOL0     C24575   0.290   2.685   5.424 -0.3249  0.2879  0.7081
  183MOL0     C24576   0.367   2.710   5.531  0.3844 -0.7156 -0.2841
  183MOL0     C24577   0.333   2.654   5.661 -1.0497 -0.7774  0.8648
  183MOL0     O24578   0.389   2.686   5.784 -0.6812  0.4635 -0.3295
  183MOL0     C24579   0.494   2.780   5.784 -0.5484 -0.1803  0.0408
  183MOL0     C24580   0.512   2.836   5.926 -0.1319 -0.4143  0.6969
  183MOL0     C24581   0.623   2.945   5.917  0.2440 -0.5291 -0.0239
  183MOL0     C24582   0.674   2.971   6.062 -0.0613 -0.0673  0.2646
  183MOL0     C24583   0.575   3.029   6.179 -0.4078 -0.6589  0.0935
  183MOL0     C24584   0.539   3.181   6.155  0.2992 -0.3087 -0.8879
  183MOL0     C24585   0.399   3.224   6.220  0.0493 -0.7575 -0.6966
  183MOL0     C24586   0.373   3.168   6.362  0.4202 -0.5753  1.0562
  183MOL0     N24587   0.442   3.261   6.453 -0.3037 -0.2364 -0.2218
  183MOL0     C24588   0.531   3.218   6.549  0.1198 -0.2108  0.2993
  183MOL0     C24589   0.541   3.335   6.622 -0.7053 -0.5815  0.2746
  183MOL0     C24590   0.648   3.356   6.729  0.4244  0.5508  0.5130
  183MOL0     C24591   0.612   3.305   6.863 -0.1186  0.5784  0.3944
  183MOL0     C24592   0.738   3.296   6.952  0.1254  0.9374  0.0323
  183MOL0     C24593   0.822   3.430   6.956 -0.2253  0.1816  0.6145
  183MOL0     O24594   0.946   3.399   7.020  0.2070 -0.0243  0.6566
  183MOL0     C24595   0.963   3.452   7.136 -0.6071 -0.4367  0.3189
  183MOL0     C24596   0.986   3.590   7.134  0.8790  0.6617  0.2920
  183MOL0     C24597   1.017   3.657   7.254 -0.4401 -0.0767 -0.0274
  183MOL0     C24598   1.016   3.806   7.250 -0.4636  0.7157  0.4992
  183MOL0     C24599   1.050   3.584   7.363  0.3768  0.1589 -0.3779
  183MOL0     C24600   1.084   3.649   7.489 -1.1514  0.2988  0.3615
  183MOL0     O24601   1.018   3.596   7.596  0.1211 -0.8122  0.4287
  183MOL0     C24602   1.029   3.657   7.721  0.0844 -0.6098 -0.1828
  183MOL0     C24603   0.926   3.660   7.819 -0.5034  1.3388 -0.4759
  183MOL0     C24604   0.959   3.693   7.956 -0.1796  0.3450 -1.0210
  183MOL0     C24605   1.092   3.735   8.002 -0.1196 -0.3037  0.3066
  183MOL0     O24606   1.119   3.771   8.134 -0.0890  0.0241 -0.2862
  183MOL0     C24607   1.240   3.847   8.165  0.6228 -0.2631  0.8137
  183MOL0     C24608   1.250   3.928   8.301  0.8127  0.0174  0.4514
  183MOL0     C24609   1.109   3.965   8.348  0.4243 -0.0334 -0.7518
  183MOL0     C24610   1.106   4.018   8.497 -0.6678  0.9837  0.2649
  183MOL0     C24611   0.972   4.084   8.525  0.1832 -0.0046  0.3636
  183MOL0     C24612   0.957   4.139   8.668 -0.1379 -0.1156  0.6031
  183MOL0     C24613   0.885   4.047   8.753  0.3435 -0.2904  0.5116
  183MOL0     C24614   0.906   4.081   8.904 -0.2004  0.1104 -0.5285
  183MOL0    Cl24615   0.910   4.266   8.936  0.3964 -0.4105  0.1436
  183MOL0     C24616   1.193   3.725   7.905 -0.6858 -0.7934  0.4687
  183MOL0     C24617   1.158   3.696   7.773 -0.1990 -0.0919 -0.1747
  183MOL0     O24618   1.186   3.718   7.490 -0.3240  0.0027 -0.1552
  183MOL0     C24619   1.034   3.446   7.360 -0.1973  0.0687  0.0449
  183MOL0     C24620   0.992   3.379   7.252 -1.1945 -0.6975  0.3438
  183MOL0     N24621   0.459   3.429   6.581  0.5855 -0.3804 -0.6379
  183MOL0     N24622   0.408   3.393   6.473  1.4826  0.4936  0.0267
  183MOL0     C24623   0.228   2.560   5.669 -0.6441 -0.4305  0.2030
  183MOL0     C24624   0.167   2.512   5.555  0.7012 -0.5588  0.5244
  183MOL0     C24625   0.108   2.356   5.150  0.9417  0.7313  0.4844
  183MOL0     C24626   0.121   2.217   5.120  0.4166  0.2229 -0.5218
  183MOL0     C24627   0.051   2.170   5.013  0.2130  0.1286  1.0558
  183MOL0     C24628  -0.019   2.255   4.920  0.3915 -0.4649  0.2661
  183MOL0     O24629  -0.076   2.211   4.800  0.6221 -0.9803 -0.2947
  183MOL0     C24630  -0.025   2.097   4.740 -0.6628 -0.4638 -0.2930
  183MOL0     C24631   0.113   2.111   4.668 -0.0175 -1.3095 -0.3721
  183MOL0     C24632   0.200   1.996   4.654  0.1958  0.3817 -0.1126
  183MOL0     C24633   0.341   2.041   4.611 -0.1142  0.1222  0.2665
  183MOL0     C24634   0.404   1.917   4.567 -0.2435  0.7785  0.2638
  183MOL0     C24635   0.457   1.819   4.509 -0.1925 -0.1153 -0.4941
  183MOL0     C24636  -0.029   2.391   4.952 -0.7386 -0.3827  0.1728
  183MOL0     C24637   0.033   2.440   5.060  0.2734 -0.3811  0.3860
  183MOL0     H24638   0.293   2.743   5.333  0.4311  0.5294  0.8850
  183MOL0     H24639   0.461   2.763   5.521  1.3620 -2.5286 -1.2608
  183MOL0     H24640   0.580   2.728   5.740 -2.1990 -2.7192 -0.4395
  183MOL0     H24641   0.459   2.865   5.725  1.0270  0.2606 -0.3070
  183MOL0     H24642   0.430   2.889   5.975  1.4500  1.6532  1.2617
  183MOL0     H24643   0.537   2.748   5.987 -1.6246 -1.4516 -0.1274
  183MOL0     H24644   0.712   2.915   5.860  3.3924  1.4090  3.3850
  183MOL0     H24645   0.586   3.042   5.886  4.3330  0.8021 -1.4171
  183MOL0     H24646   0.724   2.879   6.096  0.3056 -1.4563 -3.5438
  183MOL0     H24647   0.764   3.032   6.051  0.6302 -1.1190 -0.1680
  183MOL0     H24648   0.478   2.980   6.165 -0.9113  0.5723 -0.8518
  183MOL0     H24649   0.619   3.021   6.279  1.1659 -0.2452 -0.5352
  183MOL0     H24650   0.611   3.257   6.187 -0.1522 -0.7849  1.4905
  183MOL0     H24651   0.531   3.206   6.049 -3.6031  5.9513  0.3772
  183MOL0     H24652   0.386   3.332   6.214 -1.7153 -0.9487 -0.8644
  183MOL0     H24653   0.322   3.178   6.158 -0.8385 -1.4368  0.8402
  183MOL0     H24654   0.392   3.060   6.369  4.2988  0.0625  3.3264
  183MOL0     H24655   0.267   3.187   6.376  0.2303  0.2104 -1.0561
  183MOL0     H24656   0.585   3.125   6.565  1.4792  0.1317 -1.8504
  183MOL0     H24657   0.742   3.311   6.694  1.1876  3.2793 -1.3675
  183MOL0     H24658   0.670   3.463   6.741  2.2986  0.1208  1.3946
  183MOL0     H24659   0.554   3.213   6.854  0.8164  0.0888 -0.8868
  183MOL0     H24660   0.543   3.375   6.912  1.3305  1.8861  0.6617
  183MOL0     H24661   0.810   3.218   6.925  2.2068  3.0345 -0.7835
  183MOL0     H24662   0.692   3.287   7.050 -0.1874  4.0081  0.2564
  183MOL0     H24663   0.761   3.503   7.009  1.4662  1.1618  1.2977
  183MOL0     H24664   0.847   3.470   6.857 -2.7601  3.4975  1.1567
  183MOL0     H24665   0.956   3.644   7.044  2.9903 -0.9698 -1.4974
  183MOL0     H24666   1.119   3.841   7.249 -0.9086  2.2128 -2.1969
  183MOL0     H24667   0.968   3.845   7.160  0.7938 -1.0433 -1.0266
  183MOL0     H24668   0.963   3.830   7.343  1.1657  0.0083  1.6515
  183MOL0     H24669   0.826   3.621   7.798  0.2663 -0.7065 -0.5915
  183MOL0     H24670   0.883   3.697   8.033  0.8975 -0.4743  0.1132
  183MOL0     H24671   1.324   3.778   8.165  1.2284  0.4549  1.7940
  183MOL0     H24672   1.245   3.922   8.085  0.5188  0.5871  1.5863
  183MOL0     H24673   1.300   3.859   8.370  0.1053  0.6863  1.6648
  183MOL0     H24674   1.312   4.018   8.288  0.3462  0.2576 -0.1340
  183MOL0     H24675   1.035   3.885   8.342 -0.6411  0.9619 -1.1015
  183MOL0     H24676   1.068   4.039   8.279 -1.4066 -1.3081 -1.0969
  183MOL0     H24677   1.123   3.938   8.569 -0.0833  1.9396  1.2370
  183MOL0     H24678   1.192   4.085   8.510  0.0867  1.2561 -4.2885
  183MOL0     H24679   0.888   4.022   8.491 -0.7329  2.0628 -1.3642
  183MOL0     H24680   0.980   4.173   8.463  1.0274  2.3576  3.6131
  183MOL0     H24681   1.051   4.164   8.719 -1.0423  4.7847  0.3110
  183MOL0     H24682   0.907   4.236   8.672  0.1338  0.0033  3.7219
  183MOL0     H24683   0.916   3.945   8.728  1.7546 -0.7118  3.5162
  183MOL0     H24684   0.777   4.048   8.737  0.2760 -1.4756  0.8098
  183MOL0     H24685   1.007   4.046   8.929  0.3670 -1.6583 -4.4460
  183MOL0     H24686   0.826   4.036   8.963 -0.9622  0.8394 -0.9819
  183MOL0     H24687   1.293   3.751   7.937  0.1362 -1.9393 -1.0308
  183MOL0     H24688   1.239   3.667   7.707 -0.5874 -0.4599 -0.4967
  183MOL0     H24689   1.058   3.393   7.451  0.9780 -0.0305 -0.3040
  183MOL0     H24690   0.984   3.271   7.254 -3.0260 -0.6647 -2.1151
  183MOL0     H24691   0.199   2.530   5.769  3.2711  0.4681  1.8122
  183MOL0     H24692   0.093   2.433   5.556 -0.1783  0.1734 -1.4526
  183MOL0     H24693   0.156   2.130   5.174 -2.6142 -1.0866 -0.5069
  183MOL0     H24694   0.057   2.064   4.989  0.2482  0.1978  0.7560
  183MOL0     H24695  -0.022   2.009   4.806 -0.0999 -0.3037 -0.1008
  183MOL0     H24696  -0.094   2.066   4.660 -0.3839 -0.0069 -0.7136
  183MOL0     H24697   0.180   2.168   4.733 -0.0258  2.2375 -3.1866
  183MOL0     H24698   0.105   2.175   4.580 -3.5973  0.5816  1.1330
  183MOL0     H24699   0.157   1.921   4.587 -0.5056  1.6253 -1.0945
  183MOL0     H24700   0.219   1.947   4.750  1.1298  0.2446 -0.3606
  183MOL0     H24701   0.396   2.077   4.698  1.3478 -1.0635 -0.1411
  183MOL0     H24702   0.347   2.108   4.525 -0.2962 -1.2363 -0.8292
  183MOL0     H24703   0.497   1.731   4.464  0.2031 -1.0746  1.6412
  183MOL0     H24704  -0.099   2.455   4.899 -1.7790 -0.3247  1.5531
  183MOL0     H24705   0.021   2.544   5.089 -3.0060 -0.4843 -0.1600
  184MOL0     O24706   9.819   4.809  11.063  0.4646  0.4949  0.1107
  184MOL0     C24707   9.746   4.868  11.141  0.0065  0.4917 -0.0402
  184MOL0     O24708   9.657   4.819  11.232 -0.1442  0.0274  0.6989
  184MOL0     C24709   9.644   4.685  11.255  0.1239  0.5749  0.0579
  184MOL0     C24710   9.505   4.652  11.289  0.5540  0.4555 -0.9051
  184MOL0     C24711   9.471   4.521  11.313  0.3993  0.3605 -0.1996
  184MOL0     C24712   9.561   4.418  11.286  1.3459 -0.3101  0.9903
  184MOL0     O24713   9.537   4.281  11.294  0.0964  0.0221 -0.8646
  184MOL0     C24714   9.399   4.239  11.269  0.7927  0.6753  0.5553
  184MOL0     C24715   9.384   4.087  11.274 -0.4332  0.6464  0.0844
  184MOL0     C24716   9.243   4.020  11.275 -1.4744 -0.5774 -0.3715
  184MOL0     C24717   9.145   4.070  11.377  0.2091 -0.2468  0.8498
  184MOL0     C24718   9.007   4.003  11.377 -0.0396  1.2720  0.3945
  184MOL0     C24719   9.025   3.851  11.385  1.1288 -0.0191 -0.0720
  184MOL0     C24720   8.880   3.782  11.406 -0.0960 -0.1161  0.3170
  184MOL0     C24721   8.890   3.637  11.385  0.0889  0.1066  0.0962
  184MOL0     N24722   8.757   3.571  11.396  0.7200 -0.9724  0.1154
  184MOL0     C24723   8.728   3.483  11.502 -0.0841 -0.5534 -0.3862
  184MOL0     C24724   8.610   3.429  11.472  0.3401  0.2006 -0.0230
  184MOL0     C24725   8.538   3.319  11.544 -0.1599 -0.3716 -0.0141
  184MOL0     C24726   8.633   3.200  11.579 -0.1694  0.7980  0.3375
  184MOL0     C24727   8.565   3.066  11.600 -0.1469  0.0471  0.4994
  184MOL0     C24728   8.520   3.003  11.468 -0.8137  0.1302 -0.5865
  184MOL0     O24729   8.540   2.864  11.498 -0.0081 -0.1258 -0.5333
  184MOL0     C24730   8.514   2.777  11.387 -0.0674  0.8059  0.0039
  184MOL0     C24731   8.513   2.819  11.248 -0.5327 -0.4852 -0.1564
  184MOL0     C24732   8.463   2.739  11.149 -0.6951  0.4008 -0.1413
  184MOL0     C24733   8.447   2.803  11.015  0.9998  0.1515 -0.4942
  184MOL0     C24734   8.434   2.602  11.180 -0.3079  0.6059 -0.4463
  184MOL0     C24735   8.410   2.497  11.076 -0.2340  0.2599 -0.3071
  184MOL0     O24736   8.401   2.366  11.122  0.5600 -0.4200  0.0768
  184MOL0     C24737   8.416   2.258  11.034  0.8305 -0.7972 -1.2353
  184MOL0     C24738   8.302   2.204  10.978  0.8677  0.1546 -0.4147
  184MOL0     C24739   8.303   2.116  10.873  0.5160  0.5318  0.6286
  184MOL0     C24740   8.427   2.069  10.839  0.1323  0.1134 -0.4285
  184MOL0     O24741   8.417   1.972  10.750  0.0092 -0.1088 -0.1036
  184MOL0     C24742   8.535   1.897  10.719  0.1370 -0.4415  0.0751
  184MOL0     C24743   8.508   1.806  10.605  0.5897  0.6958 -0.5659
  184MOL0     C24744   8.494   1.882  10.471 -0.2130 -0.7212 -0.3636
  184MOL0     C24745   8.422   1.797  10.362 -0.0779  1.2734 -0.1075
  184MOL0     C24746   8.442   1.841  10.216 -0.5621 -0.4475 -1.4005
  184MOL0     C24747   8.578   1.826  10.164  0.1626 -0.6564 -0.6147
  184MOL0     C24748   8.580   1.840  10.010 -0.4331  0.5839 -0.4951
  184MOL0     C24749   8.694   1.769   9.952 -0.3386 -0.2401  0.3791
  184MOL0    Cl24750   8.669   1.589   9.990  0.0028  0.1158  0.3462
  184MOL0     C24751   8.550   2.115  10.896  0.5641  0.0823 -0.7197
  184MOL0     C24752   8.537   2.215  10.993  0.3584 -0.0062  0.4819
  184MOL0     O24753   8.413   2.520  10.953  1.1304 -0.6447  0.3920
  184MOL0     C24754   8.431   2.560  11.308  0.1522 -0.3433 -0.7813
  184MOL0     C24755   8.476   2.645  11.407 -0.5366  0.2766 -0.4067
  184MOL0     N24756   8.561   3.477  11.357 -0.1978  0.2053  0.5090
  184MOL0     N24757   8.647   3.571  11.310 -0.0926 -0.3038 -0.6486
  184MOL0     C24758   9.694   4.452  11.247 -0.4037 -0.1628 -0.2167
  184MOL0     C24759   9.740   4.585  11.245 -0.3782  0.2528  0.6224
  184MOL0     C24760   9.749   5.016  11.131 -1.1622 -0.1566 -0.2483
  184MOL0     C24761   9.639   5.097  11.170  0.1399  0.0547 -0.1380
  184MOL0     C24762   9.653   5.232  11.156 -0.3236  0.5143  0.1312
  184MOL0     C24763   9.766   5.291  11.102 -0.1938  0.4353 -0.7116
  184MOL0     O24764   9.788   5.422  11.089  0.0497 -0.3435 -0.0905
  184MOL0     C24765   9.691   5.530  11.122 -0.5221 -0.3241 -0.6545
  184MOL0     C24766   9.733   5.596  11.258  0.0295 -0.0825  0.2625
  184MOL0     C24767   9.716   5.506  11.383  0.9571  0.5165 -0.6020
  184MOL0     C24768   9.734   5.570  11.519 -0.7147  0.3497  0.5904
  184MOL0     C24769   9.870   5.625  11.514 -1.0163 -0.1816  0.0196
  184MOL0     C24770   9.986   5.668  11.521  0.7656 -0.4266 -0.4739
  184MOL0     C24771   9.875   5.209  11.061  0.0307  0.0810  0.0555
  184MOL0     C24772   9.866   5.076  11.068  0.6519  0.7837  0.9474
  184MOL0     H24773   9.425   4.723  11.305  0.2971  0.1336 -0.7482
  184MOL0     H24774   9.367   4.495  11.329  1.2344 -2.8402  0.5645
  184MOL0     H24775   9.341   4.281  11.352 -0.9583 -0.0512 -0.2767
  184MOL0     H24776   9.354   4.277  11.177  1.4055  2.3799  0.9102
  184MOL0     H24777   9.436   4.051  11.185 -0.6051  0.8563 -0.1009
  184MOL0     H24778   9.446   4.061  11.360  0.4072  1.7446 -0.1734
  184MOL0     H24779   9.208   4.049  11.176  1.9692  2.2575 -0.9209
  184MOL0     H24780   9.273   3.914  11.274  2.6763  0.4182 -2.4225
  184MOL0     H24781   9.191   4.046  11.474 -0.1337 -2.7530  0.4401
  184MOL0     H24782   9.137   4.178  11.359  3.8362  0.0420  0.1138
  184MOL0     H24783   8.950   4.041  11.462 -4.6449 -1.9387 -0.8650
  184MOL0     H24784   8.944   4.030  11.291  1.6180  0.8360 -1.0268
  184MOL0     H24785   9.067   3.822  11.288  0.0809  1.7512 -1.1196
  184MOL0     H24786   9.085   3.820  11.471 -0.4179 -5.1663 -0.5275
  184MOL0     H24787   8.849   3.811  11.507 -0.3184  3.4388 -0.6088
  184MOL0     H24788   8.815   3.808  11.321  1.1476 -1.4970 -1.1246
  184MOL0     H24789   8.978   3.595  11.434 -1.2791 -0.5887  2.1089
  184MOL0     H24790   8.912   3.626  11.278  0.2458  2.1461 -0.1159
  184MOL0     H24791   8.787   3.447  11.586 -2.9133 -2.4383  0.9430
  184MOL0     H24792   8.498   3.356  11.638  0.2919  0.6936 -0.2290
  184MOL0     H24793   8.464   3.276  11.475  1.9861 -0.5510 -2.3790
  184MOL0     H24794   8.692   3.226  11.668  0.5021 -1.3453  0.5645
  184MOL0     H24795   8.716   3.195  11.507  2.3044  2.1820  2.8932
  184MOL0     H24796   8.496   3.043  11.681 -1.9429 -0.6454 -1.1764
  184MOL0     H24797   8.655   3.008  11.622  0.7256  1.3772  0.5946
  184MOL0     H24798   8.578   3.037  11.382  0.7489 -1.3449 -0.1699
  184MOL0     H24799   8.413   3.015  11.450 -1.0650 -2.8342 -1.6286
  184MOL0     H24800   8.542   2.921  11.222 -1.8699 -0.4329 -1.5789
  184MOL0     H24801   8.344   2.797  10.977  1.3700 -1.6225 -1.3328
  184MOL0     H24802   8.459   2.911  11.022  0.8933  0.1845 -0.7921
  184MOL0     H24803   8.509   2.767  10.932 -0.6233 -0.5028 -1.4863
  184MOL0     H24804   8.203   2.248  10.987  0.3965 -0.8901 -0.2927
  184MOL0     H24805   8.219   2.086  10.811 -0.5565  4.6957 -0.2536
  184MOL0     H24806   8.608   1.968  10.679 -0.9945  0.3404 -0.6662
  184MOL0     H24807   8.563   1.847  10.812 -2.6626  0.1286  1.3404
  184MOL0     H24808   8.595   1.741  10.597 -0.8047 -1.3677  0.2991
  184MOL0     H24809   8.418   1.746  10.619 -1.0138  2.9255 -0.6583
  184MOL0     H24810   8.593   1.908  10.434 -0.3294  2.2613  1.1404
  184MOL0     H24811   8.440   1.975  10.493  3.2072  0.8470  2.2928
  184MOL0     H24812   8.447   1.690  10.370  0.7649  1.5917  3.9420
  184MOL0     H24813   8.318   1.807  10.393 -0.3845  2.3269 -1.4046
  184MOL0     H24814   8.399   1.942  10.215 -2.7832 -1.2386  1.4157
  184MOL0     H24815   8.373   1.771  10.168 -0.5271 -2.4850  1.2895
  184MOL0     H24816   8.646   1.902  10.204  0.0220  0.1757 -1.9075
  184MOL0     H24817   8.619   1.731  10.199 -0.5797 -0.0118  2.3026
  184MOL0     H24818   8.592   1.942   9.973  0.0671  1.6769  2.4153
  184MOL0     H24819   8.490   1.793   9.970  0.2839  1.4292 -3.2906
  184MOL0     H24820   8.779   1.819   9.999 -1.2326 -1.2380  3.2832
  184MOL0     H24821   8.684   1.798   9.847  1.4881  3.2248  1.0538
  184MOL0     H24822   8.652   2.081  10.884  0.7916 -0.3230  1.7381
  184MOL0     H24823   8.625   2.256  11.041  1.8223 -1.2738 -0.9479
  184MOL0     H24824   8.403   2.461  11.342  0.4394 -0.0981  0.2067
  184MOL0     H24825   8.454   2.617  11.510 -2.3440 -0.5353 -0.9894
  184MOL0     H24826   9.763   4.373  11.220  2.2755  2.1680 -0.5421
  184MOL0     H24827   9.844   4.602  11.218  0.5966 -1.4788  2.9774
  184MOL0     H24828   9.550   5.048  11.208  1.9655 -2.6891  0.9423
  184MOL0     H24829   9.571   5.298  11.181 -0.9712 -0.1958 -0.0783
  184MOL0     H24830   9.702   5.608  11.047  2.8849  1.9410  1.8790
  184MOL0     H24831   9.585   5.501  11.121  0.3109 -3.9986  0.5932
  184MOL0     H24832   9.684   5.692  11.276  1.2081  0.5551  0.1231
  184MOL0     H24833   9.838   5.622  11.247 -0.0436  1.4996  2.6219
  184MOL0     H24834   9.786   5.423  11.372  1.1241 -0.0837  3.5112
  184MOL0     H24835   9.616   5.462  11.381  1.7600 -1.4041 -0.3589
  184MOL0     H24836   9.729   5.489  11.593 -2.6806 -0.0478  0.0858
  184MOL0     H24837   9.661   5.649  11.539 -0.6411  0.9848 -1.3887
  184MOL0     H24838  10.084   5.709  11.535  0.3218  0.6737 -0.5011
  184MOL0     H24839   9.961   5.261  11.020  2.5865 -2.4414  1.7624
  184MOL0     H24840   9.934   5.001  11.028  0.3726  0.5313  0.9350
  185MOL0     O24841   9.367   1.011  11.398 -0.2008 -0.6499  0.1271
  185MOL0     C24842   9.327   1.071  11.298  0.5807 -0.7670 -0.3581
  185MOL0     O24843   9.196   1.062  11.247  0.0092  0.0341 -0.8678
  185MOL0     C24844   9.100   1.015  11.324  0.6130  0.4839 -0.1018
  185MOL0     C24845   9.098   1.055  11.459  0.2932 -0.2503 -0.2787
  185MOL0     C24846   9.001   1.004  11.544  0.8024  0.5848  0.3730
  185MOL0     C24847   8.903   0.919  11.500  0.3159  0.7147 -0.0017
  185MOL0     O24848   8.824   0.872  11.602 -0.2033 -0.3892  0.5761
  185MOL0     C24849   8.788   0.725  11.591 -0.2116  0.5611 -0.3391
  185MOL0     C24850   8.688   0.698  11.710 -0.0371  0.7367  0.3547
  185MOL0     C24851   8.771   0.711  11.841 -0.6522  0.1706  0.2030
  185MOL0     C24852   8.847   0.580  11.871 -0.6173  0.7231 -0.6171
  185MOL0     C24853   8.753   0.494  11.954  0.5902  0.0896  0.6444
  185MOL0     C24854   8.811   0.356  11.937 -0.6087  0.5511 -0.2394
  185MOL0     C24855   8.732   0.255  12.023 -0.0594  0.4851  0.3644
  185MOL0     C24856   8.580   0.229  11.987  0.1747 -0.1328  0.4681
  185MOL0     N24857   8.563   0.214  11.834  0.6881 -0.2426 -0.5163
  185MOL0     C24858   8.514   0.095  11.783 -0.2605 -0.2266 -0.4701
  185MOL0     C24859   8.468   0.120  11.666  0.8738  0.4655  0.1478
  185MOL0     C24860   8.420   0.009  11.568 -0.2792  0.4555  0.4091
  185MOL0     C24861   8.343  -0.108  11.643  1.0355 -0.0940  0.0311
  185MOL0     C24862   8.281  -0.199  11.536 -0.2494 -0.0417  0.5442
  185MOL0     C24863   8.198  -0.323  11.584  0.7431  0.3948 -0.1916
  185MOL0     O24864   8.159  -0.293  11.720 -0.2809 -1.3888  0.8125
  185MOL0     C24865   8.100  -0.395  11.788  0.3296  0.5236  0.1275
  185MOL0     C24866   7.958  -0.386  11.815  0.6375 -0.4468 -0.8020
  185MOL0     C24867   7.896  -0.488  11.891  0.6531  0.5177  1.0113
  185MOL0     C24868   7.752  -0.482  11.921  1.3622 -0.2462  0.3481
  185MOL0     C24869   7.972  -0.600  11.942 -0.3446  0.6748  0.7778
  185MOL0     C24870   7.924  -0.709  12.030  0.5124 -0.2190 -1.2516
  185MOL0     O24871   7.983  -0.836  12.023  0.0263  0.9598 -0.5547
  185MOL0     C24872   7.945  -0.931  12.112 -0.4592  0.9663  1.2476
  185MOL0     C24873   7.881  -0.912  12.243  0.3243  0.5108  0.0200
  185MOL0     C24874   7.819  -1.025  12.306 -0.3119  0.0557 -0.3047
  185MOL0     C24875   7.828  -1.154  12.243 -0.2739 -0.0862 -1.0707
  185MOL0     O24876   7.775  -1.267  12.306  0.3469 -0.0955 -0.2624
  185MOL0     C24877   7.819  -1.403  12.275  0.0671 -0.2788 -0.0208
  185MOL0     C24878   7.882  -1.459  12.406 -0.4335  0.5756 -1.0026
  185MOL0     C24879   7.776  -1.471  12.523  0.2696  0.8428  0.6010
  185MOL0     C24880   7.841  -1.489  12.655 -0.7713 -0.2132 -0.2615
  185MOL0     C24881   7.734  -1.465  12.760 -0.5110  0.7033 -0.4403
  185MOL0     C24882   7.786  -1.484  12.899  0.3444 -0.3605 -0.5110
  185MOL0     C24883   7.674  -1.473  13.005  0.0766  0.0972  0.1344
  185MOL0     C24884   7.703  -1.566  13.121 -0.4158  0.5134 -1.1620
  185MOL0    Cl24885   7.848  -1.531  13.229  0.3395  0.1818 -0.4618
  185MOL0     C24886   7.899  -1.159  12.125  0.3646 -0.0041 -0.5840
  185MOL0     C24887   7.960  -1.059  12.061  0.0825  0.3717 -0.0848
  185MOL0     O24888   7.828  -0.678  12.104 -0.3179 -0.2534 -0.4633
  185MOL0     C24889   8.105  -0.610  11.906  0.0798 -0.1566 -0.8253
  185MOL0     C24890   8.165  -0.512  11.824 -0.1149  1.1836  0.7004
  185MOL0     N24891   8.496   0.256  11.638 -0.7046 -0.0575  0.0582
  185MOL0     N24892   8.548   0.313  11.744 -0.0119  0.0135 -0.4530
  185MOL0     C24893   8.901   0.879  11.369 -0.3671  0.0558  0.3556
  185MOL0     C24894   8.993   0.926  11.285  0.2269 -0.8793 -0.1558
  185MOL0     C24895   9.411   1.167  11.227 -1.0059  0.0784  1.4171
  185MOL0     C24896   9.370   1.220  11.105 -0.8991  0.0584  0.2536
  185MOL0     C24897   9.455   1.309  11.032 -0.2903  0.2942  0.1027
  185MOL0     C24898   9.583   1.350  11.078  0.5723  0.3778  0.3887
  185MOL0     O24899   9.673   1.426  11.007  0.4961  0.4128 -0.3330
  185MOL0     C24900   9.798   1.486  11.056 -1.1217 -0.2511 -0.4094
  185MOL0     C24901   9.837   1.579  10.937 -1.1105  0.2726  0.7801
  185MOL0     C24902   9.936   1.695  10.986 -0.6752  0.3111 -0.0387
  185MOL0     C24903   9.847   1.805  11.032 -1.1016  0.4742 -0.7914
  185MOL0     C24904   9.922   1.904  11.106  0.4217  0.2973 -0.2462
  185MOL0     C24905   9.989   1.993  11.141  1.7570  0.0321  0.6998
  185MOL0     C24906   9.615   1.306  11.209 -0.2041 -0.1923  0.5250
  185MOL0     C24907   9.534   1.215  11.273 -0.4493  0.9744 -0.3555
  185MOL0     H24908   9.166   1.133  11.492 -1.7704  1.9045 -0.8377
  185MOL0     H24909   9.010   1.034  11.648  0.8448  2.4886 -0.1350
  185MOL0     H24910   8.728   0.710  11.501 -0.3973  0.3355 -0.1805
  185MOL0     H24911   8.877   0.662  11.595 -2.1042 -2.2690  2.2320
  185MOL0     H24912   8.600   0.760  11.726 -0.5241  0.0905  0.2080
  185MOL0     H24913   8.649   0.597  11.702 -0.9494  1.0728  0.5005
  185MOL0     H24914   8.842   0.794  11.844 -1.2730  0.8253 -1.6088
  185MOL0     H24915   8.706   0.727  11.927 -0.6051  0.3195  0.2102
  185MOL0     H24916   8.879   0.521  11.785  2.4381  1.0292  0.1635
  185MOL0     H24917   8.943   0.608  11.916  0.6233 -0.1758 -2.5907
  185MOL0     H24918   8.757   0.517  12.061  1.4149  0.9053  0.4481
  185MOL0     H24919   8.648   0.489  11.922 -0.8831  2.2701  4.3805
  185MOL0     H24920   8.813   0.317  11.835  0.5232 -0.9687  0.3307
  185MOL0     H24921   8.912   0.351  11.980 -0.0714 -0.1596 -1.5277
  185MOL0     H24922   8.775   0.161  11.985 -0.1125  1.6075 -2.7397
  185MOL0     H24923   8.742   0.283  12.128 -1.0423  3.6085 -0.2833
  185MOL0     H24924   8.511   0.310  12.010 -0.8315 -0.1290 -2.1616
  185MOL0     H24925   8.553   0.135  12.037 -4.6052  0.8449  0.2361
  185MOL0     H24926   8.518   0.002  11.839  1.0054  2.7119  5.1445
  185MOL0     H24927   8.360   0.066  11.497 -0.0630  0.1562 -0.0184
  185MOL0     H24928   8.508  -0.017  11.509  0.9765  4.2788  0.2861
  185MOL0     H24929   8.266  -0.052  11.697  0.0702  0.2648 -1.6383
  185MOL0     H24930   8.405  -0.172  11.706  0.4676  0.3183  1.0176
  185MOL0     H24931   8.371  -0.229  11.481  0.9004 -2.3426  3.4025
  185MOL0     H24932   8.224  -0.137  11.466 -1.6555 -1.3490  0.4809
  185MOL0     H24933   8.260  -0.412  11.575 -0.4639 -0.4106 -1.0001
  185MOL0     H24934   8.104  -0.326  11.527  0.7244  5.0292 -0.8168
  185MOL0     H24935   7.909  -0.303  11.766  3.0485  1.3921 -0.2917
  185MOL0     H24936   7.707  -0.582  11.924 -3.4978  1.6410 -0.6781
  185MOL0     H24937   7.743  -0.436  12.020  1.6146  0.1374  0.1983
  185MOL0     H24938   7.702  -0.414  11.852 -1.2687 -1.9133  0.4570
  185MOL0     H24939   7.853  -0.821  12.295  1.6157 -0.6592  2.9435
  185MOL0     H24940   7.772  -1.011  12.403 -3.0859 -3.2465 -0.9850
  185MOL0     H24941   7.731  -1.462  12.248 -0.8822 -1.1150  4.1623
  185MOL0     H24942   7.895  -1.422  12.199  1.5525 -2.8196  1.9164
  185MOL0     H24943   7.920  -1.561  12.400 -1.6161  0.2067 -2.8398
  185MOL0     H24944   7.960  -1.391  12.442 -1.0157 -0.4839  2.6586
  185MOL0     H24945   7.710  -1.556  12.503 -3.7286  2.7424  3.9436
  185MOL0     H24946   7.708  -1.385  12.525 -1.1099 -0.1479 -0.8567
  185MOL0     H24947   7.872  -1.593  12.664  1.1988  0.3380 -0.2532
  185MOL0     H24948   7.927  -1.421  12.659 -0.3185 -0.7886 -0.2301
  185MOL0     H24949   7.644  -1.526  12.757 -0.1363 -0.0859  2.0280
  185MOL0     H24950   7.709  -1.358  12.753  0.8677  1.1314  0.6857
  185MOL0     H24951   7.841  -1.578  12.913  2.8816  0.8176 -1.8445
  185MOL0     H24952   7.850  -1.397  12.917 -1.4779  0.6733  1.4445
  185MOL0     H24953   7.578  -1.514  12.974  1.1355 -2.8669  0.3898
  185MOL0     H24954   7.652  -1.370  13.033 -1.0435 -0.3778  1.0868
  185MOL0     H24955   7.715  -1.666  13.077  3.0413  0.3355 -0.1191
  185MOL0     H24956   7.614  -1.564  13.185  0.1438  2.2756 -0.4023
  185MOL0     H24957   7.908  -1.254  12.073  1.6124 -0.5511  0.5844
  185MOL0     H24958   8.019  -1.071  11.971  1.6226  2.2563  0.6037
  185MOL0     H24959   8.164  -0.693  11.944 -0.3911  0.2404  0.8386
  185MOL0     H24960   8.268  -0.514  11.790 -0.4089  0.8287 -0.2010
  185MOL0     H24961   8.833   0.808  11.322  0.4465 -1.9020  1.9523
  185MOL0     H24962   8.982   0.916  11.178 -1.9475 -2.1780  0.1196
  185MOL0     H24963   9.277   1.202  11.052 -1.5478  2.1242  0.5994
  185MOL0     H24964   9.423   1.349  10.937  0.7059  2.6435  0.7052
  185MOL0     H24965   9.789   1.544  11.149  2.0479 -1.5480  0.8367
  185MOL0     H24966   9.872   1.406  11.063  1.1608  1.8533  0.6110
  185MOL0     H24967   9.754   1.620  10.880 -0.3154  0.8743  0.0262
  185MOL0     H24968   9.894   1.521  10.863 -1.2470  1.6407 -0.4365
  185MOL0     H24969   9.984   1.741  10.899 -0.8892  0.0127 -0.3186
  185MOL0     H24970  10.012   1.674  11.061 -0.3471  1.3100 -0.0784
  185MOL0     H24971   9.765   1.767  11.094 -1.3622 -2.1229 -2.5974
  185MOL0     H24972   9.810   1.859  10.945 -1.7799 -0.1016 -0.8706
  185MOL0     H24973  10.055   2.072  11.171  1.8273  0.6711 -1.0492
  185MOL0     H24974   9.705   1.339  11.259 -0.3792 -0.5090  1.0563
  185MOL0     H24975   9.555   1.181  11.374 -3.5130 -2.5369 -0.6954
  186MOL0     O24976   5.040   7.092   0.393 -0.1345  0.4482 -0.6541
  186MOL0     C24977   4.955   7.172   0.356  0.4073 -1.2211 -0.1771
  186MOL0     O24978   4.984   7.276   0.261  0.2988  0.8980 -0.2623
  186MOL0     C24979   5.094   7.294   0.184  0.3089 -0.8464  0.2983
  186MOL0     C24980   5.178   7.191   0.150  0.0222 -0.8525  0.0400
  186MOL0     C24981   5.286   7.218   0.060  0.0134 -0.1842 -0.5938
  186MOL0     C24982   5.308   7.350   0.024 -0.0192 -0.4379 -0.1799
  186MOL0     O24983   5.403   7.401  -0.056 -0.7762 -0.6834  0.0130
  186MOL0     C24984   5.524   7.334  -0.059 -0.6642 -0.8226 -0.7078
  186MOL0     C24985   5.629   7.421  -0.128  0.0710  0.4831 -0.1114
  186MOL0     C24986   5.754   7.337  -0.154 -0.1001  0.7041  0.1681
  186MOL0     C24987   5.870   7.424  -0.194 -0.1836 -0.3042 -0.3266
  186MOL0     C24988   6.008   7.345  -0.189  1.2079 -0.1738 -0.5610
  186MOL0     C24989   6.120   7.435  -0.237  0.3232 -0.6904  0.1918
  186MOL0     C24990   6.259   7.394  -0.187 -0.1548 -0.5056 -0.0823
  186MOL0     C24991   6.360   7.502  -0.224 -0.4855 -0.3383  0.1733
  186MOL0     N24992   6.493   7.464  -0.165 -0.8698 -0.0032 -0.7420
  186MOL0     C24993   6.584   7.384  -0.234 -0.8967 -0.1823  0.1982
  186MOL0     C24994   6.699   7.389  -0.164 -0.2264 -0.3644 -0.0614
  186MOL0     C24995   6.822   7.323  -0.220  0.4885  0.2699  0.4112
  186MOL0     C24996   6.940   7.344  -0.128 -0.0612  0.1186  0.4056
  186MOL0     C24997   7.086   7.296  -0.196 -0.2336  0.1376 -0.2857
  186MOL0     C24998   7.212   7.302  -0.104  0.0931  0.3981  0.7807
  186MOL0     O24999   7.192   7.217   0.002 -0.1340  0.3783 -0.5122
  186MOL0     C25000   7.307   7.159   0.045 -0.0348 -0.2219 -1.1560
  186MOL0     C25001   7.443   7.211   0.050  0.3455  0.2132  0.1096
  186MOL0     C25002   7.547   7.135   0.107 -0.8945 -0.2313 -1.2842
  186MOL0     C25003   7.697   7.173   0.092 -0.1581  0.7735  0.3090
  186MOL0     C25004   7.512   7.010   0.165 -0.7539 -0.2324  0.4044
  186MOL0     C25005   7.615   6.912   0.194  0.1633  0.4711 -0.6143
  186MOL0     O25006   7.692   6.862   0.082  0.3173 -0.4397 -0.4296
  186MOL0     C25007   7.747   6.732   0.069  0.8038 -0.0914 -0.4340
  186MOL0     C25008   7.701   6.622   0.147  0.4837  0.4515  0.4293
  186MOL0     C25009   7.754   6.497   0.111 -0.4059 -0.0345 -0.6744
  186MOL0     C25010   7.852   6.474   0.018  0.8279 -0.2752 -0.7918
  186MOL0     O25011   7.891   6.344  -0.011 -0.3574  0.1641 -0.2547
  186MOL0     C25012   8.036   6.320  -0.032  0.4354 -0.1905 -0.1843
  186MOL0     C25013   8.032   6.171  -0.075  0.0171  0.0533  0.7718
  186MOL0     C25014   8.178   6.134  -0.115 -0.3854 -0.3396 -0.1985
  186MOL0     C25015   8.195   5.987  -0.164  2.0725 -0.4170  0.0499
  186MOL0     C25016   8.325   5.919  -0.177 -0.9160 -0.1633  0.0827
  186MOL0     C25017   8.328   5.767  -0.193 -0.0669  0.1550  0.6595
  186MOL0     C25018   8.465   5.707  -0.166 -0.0777 -0.3825  0.4155
  186MOL0     C25019   8.462   5.555  -0.162 -0.0369  0.9608 -0.5769
  186MOL0    Cl25020   8.617   5.475  -0.148 -0.2001 -0.1630  0.2892
  186MOL0     C25021   7.895   6.586  -0.047  1.1381  0.6225  0.0818
  186MOL0     C25022   7.842   6.711  -0.026  0.3887 -0.1600  0.3370
  186MOL0     O25023   7.606   6.865   0.310 -0.3046 -0.1111 -0.0566
  186MOL0     C25024   7.380   6.968   0.170 -0.1289  1.2221  0.8697
  186MOL0     C25025   7.277   7.035   0.106  0.1180  0.0891 -0.0898
  186MOL0     N25026   6.678   7.469  -0.056  0.0258 -0.4928  0.8101
  186MOL0     N25027   6.554   7.518  -0.055  0.1316  0.5558  0.6221
  186MOL0     C25028   5.222   7.446   0.067  0.4996 -0.1991 -0.6574
  186MOL0     C25029   5.107   7.425   0.145 -0.8491 -0.1751 -0.7860
  186MOL0     C25030   4.824   7.181   0.425  1.0485 -0.1728 -0.1736
  186MOL0     C25031   4.769   7.073   0.498 -0.3833  0.4501 -0.0878
  186MOL0     C25032   4.640   7.070   0.530 -0.4272 -0.5123 -0.2210
  186MOL0     C25033   4.547   7.172   0.493  0.1869 -0.1100 -0.2502
  186MOL0     O25034   4.415   7.165   0.522  0.6433  0.1810  0.3249
  186MOL0     C25035   4.317   7.266   0.493 -0.3102 -0.1165 -0.4491
  186MOL0     C25036   4.330   7.373   0.607 -0.5996 -0.0833 -0.1083
  186MOL0     C25037   4.317   7.304   0.746  0.4293 -0.1399 -0.4491
  186MOL0     C25038   4.357   7.392   0.862  0.0700 -0.1591  0.1150
  186MOL0     C25039   4.264   7.503   0.882  0.3608  1.1873  0.0304
  186MOL0     C25040   4.171   7.568   0.911 -0.7637  0.2708  1.1264
  186MOL0     C25041   4.600   7.275   0.424  0.2078 -1.1473  1.5050
  186MOL0     C25042   4.730   7.283   0.388  0.4443  0.0843 -0.1393
  186MOL0     H25043   5.158   7.092   0.188  1.0020 -1.2838 -0.5230
  186MOL0     H25044   5.347   7.142   0.012  1.1000  0.3959 -0.1681
  186MOL0     H25045   5.557   7.314   0.043  0.6293  0.2591 -0.8822
  186MOL0     H25046   5.515   7.234  -0.104  2.9961 -2.0687  0.9745
  186MOL0     H25047   5.596   7.467  -0.222  4.6238 -1.0089 -2.7539
  186MOL0     H25048   5.644   7.503  -0.057 -3.2716  4.2757 -3.3246
  186MOL0     H25049   5.782   7.285  -0.062  0.3001 -2.5856 -1.6964
  186MOL0     H25050   5.736   7.270  -0.238 -2.9259  0.2239  1.0655
  186MOL0     H25051   5.862   7.465  -0.294 -0.2427  0.4089 -0.0330
  186MOL0     H25052   5.870   7.509  -0.125  0.1936  1.1109 -2.0056
  186MOL0     H25053   6.035   7.329  -0.085  1.8752 -0.6318 -0.7998
  186MOL0     H25054   6.004   7.245  -0.235 -0.2554 -0.9102  1.0251
  186MOL0     H25055   6.123   7.437  -0.347  2.0787 -0.3449  0.2224
  186MOL0     H25056   6.096   7.539  -0.212  0.5814 -0.6169  0.1384
  186MOL0     H25057   6.259   7.381  -0.078  1.8599 -0.7530 -0.0805
  186MOL0     H25058   6.298   7.301  -0.231  1.4599 -1.5283  3.1462
  186MOL0     H25059   6.326   7.603  -0.198  4.6048  1.9698 -0.9303
  186MOL0     H25060   6.366   7.504  -0.334  1.9281  0.6728  0.2632
  186MOL0     H25061   6.570   7.334  -0.329 -1.8096  2.2546 -1.0648
  186MOL0     H25062   6.810   7.216  -0.237  3.3734 -0.0090 -0.3389
  186MOL0     H25063   6.842   7.368  -0.318  0.1951  0.0159  0.2322
  186MOL0     H25064   6.933   7.289  -0.034 -1.0063  1.5084  1.1855
  186MOL0     H25065   6.945   7.448  -0.095  0.1155  0.5502 -0.9148
  186MOL0     H25066   7.109   7.361  -0.281 -1.1788 -0.2663 -0.8679
  186MOL0     H25067   7.064   7.198  -0.241 -1.9233  0.8295 -1.0264
  186MOL0     H25068   7.226   7.401  -0.060 -3.2344  0.8257  1.1656
  186MOL0     H25069   7.298   7.273  -0.165  0.3857  0.4921  1.1485
  186MOL0     H25070   7.456   7.316   0.028 -0.5463  0.1034 -1.0574
  186MOL0     H25071   7.714   7.277   0.063 -0.5424  0.3572 -1.5503
  186MOL0     H25072   7.750   7.164   0.187  0.7440 -4.9244 -0.3540
  186MOL0     H25073   7.746   7.111   0.016  3.4665  1.1578  2.1507
  186MOL0     H25074   7.623   6.634   0.222  0.5197 -2.5504  1.0921
  186MOL0     H25075   7.722   6.413   0.172 -2.0197  0.6956 -0.4452
  186MOL0     H25076   8.053   6.383  -0.119  1.2775  0.4874  0.4516
  186MOL0     H25077   8.090   6.341   0.061 -1.2050  3.0846  0.2028
  186MOL0     H25078   7.987   6.107   0.001  2.4251 -2.2223  0.4459
  186MOL0     H25079   7.964   6.152  -0.159 -0.2330 -2.4717  1.4637
  186MOL0     H25080   8.242   6.126  -0.027 -0.6660 -0.0464  0.0362
  186MOL0     H25081   8.229   6.214  -0.168  2.6383 -1.4962  0.7497
  186MOL0     H25082   8.140   5.914  -0.104  2.8476 -2.0664 -1.1634
  186MOL0     H25083   8.140   5.975  -0.258  0.3947  2.4799  0.5167
  186MOL0     H25084   8.385   5.937  -0.087 -2.9686 -1.7942  1.9052
  186MOL0     H25085   8.373   5.975  -0.257 -1.1153  1.5166  1.0982
  186MOL0     H25086   8.252   5.727  -0.124 -2.8296  0.6031 -1.9414
  186MOL0     H25087   8.295   5.740  -0.294  3.4775 -2.0124 -0.0811
  186MOL0     H25088   8.494   5.738  -0.065  2.0326 -1.7591  0.2949
  186MOL0     H25089   8.531   5.756  -0.238  1.5921  0.7634  2.5820
  186MOL0     H25090   8.420   5.527  -0.259 -0.1035  1.3873 -0.6749
  186MOL0     H25091   8.388   5.529  -0.085  0.2916  0.8524 -0.2951
  186MOL0     H25092   7.967   6.580  -0.127 -2.8038 -0.0454 -3.8137
  186MOL0     H25093   7.877   6.800  -0.078 -1.6859 -0.2627 -1.3730
  186MOL0     H25094   7.360   6.872   0.217  1.8401  0.9058  1.1421
  186MOL0     H25095   7.172   7.010   0.117 -1.1697  5.2586  2.2211
  186MOL0     H25096   5.237   7.547   0.028 -0.0540  0.4592  0.7514
  186MOL0     H25097   5.030   7.498   0.166 -0.4257 -0.7127  3.5150
  186MOL0     H25098   4.844   6.999   0.521  0.4909  0.8583 -1.4860
  186MOL0     H25099   4.600   6.992   0.594 -1.8805 -0.6663 -1.2658
  186MOL0     H25100   4.323   7.297   0.388 -0.6199  1.0873 -0.1349
  186MOL0     H25101   4.221   7.221   0.516  1.0934 -2.3733  1.4727
  186MOL0     H25102   4.259   7.455   0.600 -0.8203  0.2205  3.4530
  186MOL0     H25103   4.425   7.425   0.594 -1.2726  1.4020  0.6811
  186MOL0     H25104   4.373   7.211   0.764 -0.9311 -0.5983  1.6939
  186MOL0     H25105   4.218   7.260   0.760  1.6383 -2.5991  1.2608
  186MOL0     H25106   4.454   7.428   0.827 -0.6491  0.1631 -1.6440
  186MOL0     H25107   4.361   7.342   0.960  0.0221  1.4832  0.9834
  186MOL0     H25108   4.098   7.646   0.922 -0.3652  1.0399 -1.2394
  186MOL0     H25109   4.535   7.358   0.397  0.4336 -1.4812 -0.2238
  186MOL0     H25110   4.759   7.361   0.319  1.5218  0.9098  1.1989
  187MOL0     O25111   0.349   7.552  11.003 -0.9446 -0.4983 -0.3379
  187MOL0     C25112   0.411   7.597  10.906  0.8824  0.7485 -0.8354
  187MOL0     O25113   0.363   7.669  10.807  0.0840 -0.7420  0.1644
  187MOL0     C25114   0.228   7.688  10.770 -0.4242  0.3225 -0.5948
  187MOL0     C25115   0.190   7.793  10.686  0.2381  0.2052 -0.0731
  187MOL0     C25116   0.057   7.814  10.659  0.5866 -0.8307  0.1117
  187MOL0     C25117  -0.044   7.715  10.684 -0.3360  0.5570 -0.4530
  187MOL0     O25118  -0.175   7.728  10.656  0.7078 -0.6123 -0.0516
  187MOL0     C25119  -0.207   7.659  10.538 -0.3853 -0.5475  0.9681
  187MOL0     C25120  -0.334   7.718  10.462 -0.8415 -1.1789  0.3112
  187MOL0     C25121  -0.291   7.858  10.412 -0.4902  0.1175  0.2647
  187MOL0     C25122  -0.210   7.862  10.280  0.0289  1.0835 -0.6303
  187MOL0     C25123  -0.241   7.753  10.175  0.6125 -0.2147 -0.5399
  187MOL0     C25124  -0.392   7.766  10.134 -1.0793  0.2861  0.5914
  187MOL0     C25125  -0.435   7.660  10.029  0.1997 -0.0193 -0.2673
  187MOL0     C25126  -0.407   7.524  10.095 -0.4467  0.2728  0.4119
  187MOL0     N25127  -0.499   7.423  10.039 -0.0726  0.5582 -0.1324
  187MOL0     C25128  -0.455   7.324   9.948  0.2843 -0.4690 -1.3985
  187MOL0     C25129  -0.535   7.221   9.962 -0.2066 -0.2714 -0.2667
  187MOL0     C25130  -0.528   7.099   9.878  0.0591  0.2436  0.1184
  187MOL0     C25131  -0.630   6.994   9.910 -0.4636  0.1176  0.0510
  187MOL0     C25132  -0.619   6.867   9.822  0.0013 -0.4529 -0.3812
  187MOL0     C25133  -0.732   6.763   9.844 -0.1101 -1.3455  0.6292
  187MOL0     O25134  -0.753   6.671   9.736  0.1099  0.7061  0.3917
  187MOL0     C25135  -0.859   6.587   9.755 -0.3667  0.2969 -0.5383
  187MOL0     C25136  -0.936   6.576   9.873  0.3455 -0.2782  0.5489
  187MOL0     C25137  -1.062   6.497   9.887 -0.0795 -0.1305 -1.9850
  187MOL0     C25138  -1.140   6.516  10.020  0.0228  0.1110 -0.4882
  187MOL0     C25139  -1.092   6.422   9.777  0.6859 -0.3010 -1.2824
  187MOL0     C25140  -1.208   6.322   9.767 -0.3973  0.2918  0.9405
  187MOL0     O25141  -1.221   6.248   9.655  0.5486 -0.0042  0.6041
  187MOL0     C25142  -1.345   6.188   9.633  0.0986 -0.2880 -0.1827
  187MOL0     C25143  -1.367   6.065   9.682 -0.2335  1.0933 -0.1534
  187MOL0     C25144  -1.481   5.987   9.646  0.0697  0.2745  0.3557
  187MOL0     C25145  -1.573   6.043   9.556  0.3513 -0.2689 -1.1452
  187MOL0     O25146  -1.689   5.979   9.518 -0.1547 -0.3739  1.3475
  187MOL0     C25147  -1.783   5.956   9.623  0.1735 -0.0811 -0.5566
  187MOL0     C25148  -1.890   6.070   9.637  0.0467  0.4443 -0.7946
  187MOL0     C25149  -1.979   6.035   9.755 -0.2108  0.2764  0.3529
  187MOL0     C25150  -2.097   6.134   9.754 -0.6590  0.2315 -0.4575
  187MOL0     C25151  -2.199   6.104   9.860 -0.2600 -0.6517 -0.5362
  187MOL0     C25152  -2.328   6.173   9.844 -0.2532  0.2950 -0.8018
  187MOL0     C25153  -2.439   6.103   9.923  0.5411  0.5768  0.5670
  187MOL0     C25154  -2.566   6.177   9.927 -0.4195 -0.8496  0.2049
  187MOL0    Cl25155  -2.655   6.175   9.775  0.1812  0.0824 -0.5314
  187MOL0     C25156  -1.560   6.181   9.529  0.0780 -0.4936  1.1853
  187MOL0     C25157  -1.447   6.254   9.567 -0.0211 -0.1537  0.6028
  187MOL0     O25158  -1.293   6.334   9.853  0.0236 -0.6302  0.3082
  187MOL0     C25159  -1.019   6.442   9.661 -0.3691  0.0414 -0.2278
  187MOL0     C25160  -0.910   6.532   9.641 -0.4743  1.0955 -0.6729
  187MOL0     N25161  -0.629   7.243  10.063 -0.2739  0.1121 -0.3087
  187MOL0     N25162  -0.607   7.366  10.107  0.7812  0.1458  0.0421
  187MOL0     C25163  -0.002   7.605  10.753  0.1261  0.4992  0.0308
  187MOL0     C25164   0.127   7.594  10.806 -0.3661 -0.0779  0.8672
  187MOL0     C25165   0.545   7.540  10.886 -0.2818 -1.1830 -0.6879
  187MOL0     C25166   0.618   7.553  10.769  0.6275  0.6075  0.0958
  187MOL0     C25167   0.737   7.485  10.752  0.7386 -0.5625 -0.6477
  187MOL0     C25168   0.803   7.429  10.859 -0.2132 -0.1049 -0.3641
  187MOL0     O25169   0.931   7.391  10.876 -0.1291  0.3977  0.0655
  187MOL0     C25170   1.026   7.431  10.775 -1.5065 -0.0993  0.0389
  187MOL0     C25171   1.063   7.587  10.783  0.7933 -0.3120  0.1036
  187MOL0     C25172   1.110   7.657  10.664 -0.2229  0.3056  0.1833
  187MOL0     C25173   1.142   7.802  10.693 -0.1596  0.3508 -0.4852
  187MOL0     C25174   1.168   7.879  10.567  0.3681  0.2506  0.0501
  187MOL0     C25175   1.170   7.953  10.472  0.8483 -0.1632  0.2251
  187MOL0     C25176   0.729   7.401  10.973 -0.9435 -1.8144 -0.3415
  187MOL0     C25177   0.604   7.456  10.987  0.1909 -0.1203  0.1092
  187MOL0     H25178   0.263   7.863  10.648  0.9679 -1.8795 -2.8538
  187MOL0     H25179   0.038   7.894  10.589  4.3331  2.3215  2.3215
  187MOL0     H25180  -0.125   7.647  10.467 -0.0800  0.0869  1.2071
  187MOL0     H25181  -0.242   7.561  10.573 -1.4089  0.1749  2.0177
  187MOL0     H25182  -0.355   7.653  10.377 -0.9864 -1.7293  0.7686
  187MOL0     H25183  -0.427   7.716  10.520 -1.7374  0.5507 -0.9826
  187MOL0     H25184  -0.385   7.913  10.400  0.3842  2.0116  1.6463
  187MOL0     H25185  -0.230   7.907  10.488  0.9811  0.1413 -0.8785
  187MOL0     H25186  -0.231   7.954  10.225 -2.0971 -0.9518 -3.5728
  187MOL0     H25187  -0.103   7.867  10.304  0.6464  2.7213 -3.3290
  187MOL0     H25188  -0.194   7.778  10.079 -0.3957  0.4018 -0.8924
  187MOL0     H25189  -0.204   7.656  10.209 -1.8967  0.4933  5.4548
  187MOL0     H25190  -0.459   7.748  10.219 -1.9305  0.8726  0.0633
  187MOL0     H25191  -0.405   7.868  10.096 -2.4575 -1.1092 -3.1825
  187MOL0     H25192  -0.542   7.668  10.009  0.2874  4.8824  0.1183
  187MOL0     H25193  -0.370   7.661   9.941  0.2385  0.3047 -0.2330
  187MOL0     H25194  -0.415   7.534  10.204 -1.0941 -0.3607  0.4275
  187MOL0     H25195  -0.307   7.485  10.077 -1.0436 -0.4616 -1.5897
  187MOL0     H25196  -0.372   7.333   9.878  1.2425 -1.0366 -0.3578
  187MOL0     H25197  -0.551   7.131   9.776 -0.1380 -1.2890 -0.3475
  187MOL0     H25198  -0.424   7.070   9.898  0.3967  2.2090  1.5632
  187MOL0     H25199  -0.721   7.047   9.879 -1.0801 -1.3748 -0.8356
  187MOL0     H25200  -0.635   6.963  10.015 -2.1005 -1.7592 -0.5052
  187MOL0     H25201  -0.532   6.808   9.853  0.3830  1.4707  2.6666
  187MOL0     H25202  -0.611   6.885   9.715  0.7702 -0.6474 -0.3573
  187MOL0     H25203  -0.826   6.819   9.853 -0.0953 -1.1654 -0.2930
  187MOL0     H25204  -0.712   6.712   9.939  0.8541  0.2983  1.3625
  187MOL0     H25205  -0.898   6.623   9.963  1.3462 -0.1868  0.0998
  187MOL0     H25206  -1.246   6.535  10.000  0.0395 -2.8707 -4.8564
  187MOL0     H25207  -1.135   6.420  10.073 -1.7944 -0.0229 -0.5029
  187MOL0     H25208  -1.101   6.592  10.088 -1.0345  0.9182 -0.7612
  187MOL0     H25209  -1.286   6.015   9.734 -0.9855 -0.0495 -0.0154
  187MOL0     H25210  -1.488   5.886   9.685  1.6199 -0.4452 -1.0973
  187MOL0     H25211  -1.828   5.858   9.607  1.6090 -0.7048 -0.9482
  187MOL0     H25212  -1.731   5.951   9.719  2.7012 -1.2201 -1.9086
  187MOL0     H25213  -1.852   6.172   9.647 -0.7348  0.8037 -1.3438
  187MOL0     H25214  -1.948   6.076   9.544  1.0428  0.9572 -1.3967
  187MOL0     H25215  -1.918   6.039   9.845  2.3681 -0.6931 -1.2431
  187MOL0     H25216  -2.017   5.932   9.752  0.3503  0.0922 -0.8303
  187MOL0     H25217  -2.044   6.228   9.774 -0.7797  0.3754 -0.8060
  187MOL0     H25218  -2.152   6.148   9.660 -1.7566  2.1980  0.4214
  187MOL0     H25219  -2.145   6.130   9.951  0.4076 -2.1572 -0.4706
  187MOL0     H25220  -2.211   5.995   9.865  1.3091 -0.9016 -1.5975
  187MOL0     H25221  -2.306   6.276   9.875 -3.3233  0.7602  0.1691
  187MOL0     H25222  -2.345   6.165   9.736  1.5013 -1.8091 -1.0003
  187MOL0     H25223  -2.400   6.061  10.017 -0.2961 -2.9524 -0.5025
  187MOL0     H25224  -2.462   6.016   9.860 -0.6618  1.6038 -0.4603
  187MOL0     H25225  -2.551   6.282   9.956 -1.4176 -0.8755  0.8628
  187MOL0     H25226  -2.634   6.132  10.000 -2.2856 -2.0247 -2.0883
  187MOL0     H25227  -1.644   6.230   9.480 -0.0904 -0.1517  1.7982
  187MOL0     H25228  -1.433   6.360   9.550 -0.6453  0.3311  2.8873
  187MOL0     H25229  -1.050   6.394   9.569  1.2344 -1.8255  0.1239
  187MOL0     H25230  -0.871   6.560   9.544  2.4993  0.3271  0.1663
  187MOL0     H25231  -0.076   7.529  10.774 -1.1030  1.4192 -0.8419
  187MOL0     H25232   0.155   7.499  10.851  0.8750  0.5074  1.3611
  187MOL0     H25233   0.584   7.612  10.684  2.3560  2.1200  0.3708
  187MOL0     H25234   0.788   7.476  10.656 -1.9320  1.5237 -2.4049
  187MOL0     H25235   1.113   7.373  10.807 -1.1584  1.4692  2.1786
  187MOL0     H25236   0.986   7.397  10.679 -0.6949 -1.7774  0.2617
  187MOL0     H25237   1.132   7.598  10.867  0.6459 -1.1536  0.3471
  187MOL0     H25238   0.966   7.636  10.797 -1.7519 -3.9617 -2.6876
  187MOL0     H25239   1.038   7.661  10.582  1.5460 -1.9603 -1.6310
  187MOL0     H25240   1.199   7.601  10.634 -2.1495 -1.9695 -1.6659
  187MOL0     H25241   1.227   7.821  10.758 -1.1066  0.6777  0.6980
  187MOL0     H25242   1.058   7.860  10.735  0.8869  0.7355  1.1536
  187MOL0     H25243   1.170   8.025  10.393  1.3048  0.4418  0.7699
  187MOL0     H25244   0.781   7.347  11.051  4.6385  0.6810 -1.8482
  187MOL0     H25245   0.534   7.429  11.066 -1.4021  2.2101 -0.3951
  188MOL0     O25246  11.271   3.460   2.050 -0.2206  0.0488  0.0150
  188MOL0     C25247  11.265   3.562   2.107  0.1268  0.5240  0.4581
  188MOL0     O25248  11.349   3.668   2.085 -0.2507  0.4505 -0.6757
  188MOL0     C25249  11.442   3.659   1.981  0.3609 -0.3739  0.0719
  188MOL0     C25250  11.555   3.587   1.992  0.7610 -0.0341  0.7200
  188MOL0     C25251  11.646   3.582   1.886 -0.1926 -0.2876 -1.3282
  188MOL0     C25252  11.643   3.670   1.786 -0.0296 -0.7171 -0.1726
  188MOL0     O25253  11.744   3.682   1.699 -0.8420 -0.4352  0.1082
  188MOL0     C25254  11.841   3.576   1.677  0.9196 -0.6055 -0.4520
  188MOL0     C25255  11.766   3.443   1.653  0.2403 -0.6687  0.1055
  188MOL0     C25256  11.685   3.436   1.512  0.6488  0.0953 -1.1852
  188MOL0     C25257  11.560   3.352   1.513  0.9642  0.2158 -0.3213
  188MOL0     C25258  11.452   3.402   1.613 -0.3912  0.5003 -0.1698
  188MOL0     C25259  11.313   3.374   1.573  0.4447  0.0109  0.0683
  188MOL0     C25260  11.214   3.433   1.689 -0.6531  0.3457 -0.9595
  188MOL0     C25261  11.070   3.421   1.661  0.5638 -0.5170  0.3542
  188MOL0     N25262  10.971   3.455   1.774 -0.7026 -0.1040  0.7869
  188MOL0     C25263  10.949   3.385   1.897 -0.0814 -1.3516 -0.2906
  188MOL0     C25264  10.843   3.450   1.945 -0.2904  0.0954  0.5829
  188MOL0     C25265  10.775   3.430   2.081  0.0333  0.0283  0.3247
  188MOL0     C25266  10.748   3.567   2.150  0.4521 -0.2063  0.8774
  188MOL0     C25267  10.622   3.637   2.107  0.8067 -0.2170  0.5635
  188MOL0     C25268  10.482   3.580   2.148 -0.0749 -0.1489 -0.3193
  188MOL0     O25269  10.470   3.616   2.288 -0.4071  0.6689  0.6107
  188MOL0     C25270  10.355   3.569   2.354 -0.7190  0.6943  0.0078
  188MOL0     C25271  10.299   3.442   2.333 -0.4567 -0.1471  0.2427
  188MOL0     C25272  10.185   3.399   2.413  0.1247  0.2162  0.5142
  188MOL0     C25273  10.139   3.258   2.393  0.2580  0.3937 -0.4181
  188MOL0     C25274  10.122   3.493   2.495  0.1607  0.4956 -0.1992
  188MOL0     C25275  10.012   3.461   2.586  0.6743 -1.1874 -0.6860
  188MOL0     O25276   9.921   3.562   2.609  0.0708 -0.3655 -0.1071
  188MOL0     C25277   9.817   3.542   2.700  0.7566 -0.8477 -0.0671
  188MOL0     C25278   9.712   3.457   2.683 -0.4483 -0.2958  0.4213
  188MOL0     C25279   9.605   3.447   2.776 -0.7564  0.7482 -0.3505
  188MOL0     C25280   9.600   3.524   2.890  0.5725  0.3902  0.3308
  188MOL0     O25281   9.495   3.496   2.979 -0.0755 -0.1460 -0.3149
  188MOL0     C25282   9.464   3.589   3.084 -0.0278  0.3765 -0.1707
  188MOL0     C25283   9.346   3.535   3.168  0.0339  0.2138 -0.7538
  188MOL0     C25284   9.393   3.400   3.228 -0.1705  0.9316  0.3820
  188MOL0     C25285   9.297   3.359   3.348  0.0304  0.5305 -0.0996
  188MOL0     C25286   9.172   3.302   3.291 -0.5611  0.6276  0.3770
  188MOL0     C25287   9.102   3.196   3.376  0.3634  0.6014 -0.3499
  188MOL0     C25288   8.969   3.179   3.305  0.9578 -0.1724  0.3499
  188MOL0     C25289   8.858   3.252   3.392  0.0589  0.0038 -0.3337
  188MOL0    Cl25290   8.894   3.432   3.397 -0.2659  0.6493 -0.1330
  188MOL0     C25291   9.704   3.616   2.909 -0.0514 -0.8173  1.3333
  188MOL0     C25292   9.816   3.618   2.823 -1.1921 -0.6485  0.2426
  188MOL0     O25293  10.007   3.352   2.636 -0.2874  0.1536 -0.7730
  188MOL0     C25294  10.171   3.627   2.504  0.5437  0.4479  0.4303
  188MOL0     C25295  10.295   3.655   2.448  0.0523  0.5307 -0.4806
  188MOL0     N25296  10.805   3.549   1.855  0.0096 -0.0624 -1.0366
  188MOL0     N25297  10.876   3.546   1.751  0.6120 -0.4912 -0.2296
  188MOL0     C25298  11.532   3.746   1.768 -0.2657  0.8125  1.1155
  188MOL0     C25299  11.426   3.738   1.866  0.1141  0.1231  0.9145
  188MOL0     C25300  11.167   3.574   2.213  0.2217 -0.4334  0.3177
  188MOL0     C25301  11.162   3.688   2.289 -0.7082  0.3007 -0.2486
  188MOL0     C25302  11.083   3.697   2.407  0.0330 -0.6823 -0.9644
  188MOL0     C25303  10.987   3.600   2.427  0.0229 -0.1521  0.5753
  188MOL0     O25304  10.906   3.592   2.537 -0.5916 -0.4829 -0.1410
  188MOL0     C25305  10.835   3.710   2.577  0.2262  0.2451 -0.2802
  188MOL0     C25306  10.725   3.656   2.666  0.2284  0.6702 -1.1492
  188MOL0     C25307  10.653   3.789   2.720 -0.1458 -0.1462 -0.0795
  188MOL0     C25308  10.529   3.759   2.811  0.3497 -0.4098  0.4551
  188MOL0     C25309  10.494   3.888   2.878  0.6124 -0.6839  0.1831
  188MOL0     C25310  10.476   3.998   2.929 -0.5696  0.2202  0.1734
  188MOL0     C25311  10.984   3.490   2.343 -0.3373 -0.1392 -0.2648
  188MOL0     C25312  11.072   3.480   2.241 -0.3630  0.9091 -0.1375
  188MOL0     H25313  11.559   3.520   2.077 -0.8159 -2.5330 -1.0452
  188MOL0     H25314  11.728   3.516   1.912 -2.2323 -2.4154  0.2623
  188MOL0     H25315  11.903   3.616   1.596  0.7113  1.2520  0.2680
  188MOL0     H25316  11.900   3.557   1.767  0.9383 -2.5055 -0.8044
  188MOL0     H25317  11.843   3.366   1.643  3.3554  2.3125 -0.7310
  188MOL0     H25318  11.690   3.412   1.725 -0.6542 -0.1459 -0.5919
  188MOL0     H25319  11.656   3.539   1.489  0.1701 -0.5063 -3.5634
  188MOL0     H25320  11.755   3.397   1.438  1.2089 -1.0784 -0.0753
  188MOL0     H25321  11.532   3.361   1.408 -1.8214  1.4799  0.4190
  188MOL0     H25322  11.590   3.248   1.531  2.3731  0.0199 -3.3612
  188MOL0     H25323  11.469   3.361   1.713 -0.3120 -0.3553 -0.5249
  188MOL0     H25324  11.469   3.509   1.611 -0.4541  0.5432 -3.3711
  188MOL0     H25325  11.296   3.413   1.472 -1.2777  0.5298  0.5120
  188MOL0     H25326  11.297   3.266   1.583  1.7462 -0.0222  2.5550
  188MOL0     H25327  11.227   3.380   1.784 -1.9921 -0.0481 -0.9792
  188MOL0     H25328  11.236   3.537   1.715  2.7119 -1.3066  4.5574
  188MOL0     H25329  11.054   3.319   1.624  2.4710  0.1896 -2.7642
  188MOL0     H25330  11.067   3.493   1.579 -1.2065 -0.4799  0.3983
  188MOL0     H25331  11.021   3.317   1.941  0.6488 -1.2501 -1.2857
  188MOL0     H25332  10.677   3.383   2.068 -0.4382  1.1411 -0.2326
  188MOL0     H25333  10.831   3.365   2.149  0.3076  0.1045  0.1737
  188MOL0     H25334  10.826   3.639   2.122  1.2826 -1.7809 -1.1868
  188MOL0     H25335  10.739   3.556   2.258 -0.5887  0.0764  0.8290
  188MOL0     H25336  10.623   3.623   1.998  4.9982 -0.7596  0.5040
  188MOL0     H25337  10.625   3.743   2.134  0.0916 -0.0624  0.0797
  188MOL0     H25338  10.468   3.472   2.130 -3.1665 -0.0429  0.7962
  188MOL0     H25339  10.396   3.624   2.097 -1.4315 -3.9419 -1.7341
  188MOL0     H25340  10.339   3.371   2.262  1.1812 -1.4938  2.4118
  188MOL0     H25341  10.051   3.225   2.449  0.0459 -1.4119 -1.7508
  188MOL0     H25342  10.097   3.255   2.293 -1.2939 -2.1331  0.2175
  188MOL0     H25343  10.224   3.189   2.400 -3.0475 -3.9885  4.9693
  188MOL0     H25344   9.712   3.390   2.598  3.9867 -2.7600  2.0732
  188MOL0     H25345   9.528   3.375   2.753  0.7337 -0.1885 -2.8373
  188MOL0     H25346   9.555   3.590   3.144  0.5124 -3.9707 -0.5752
  188MOL0     H25347   9.438   3.686   3.041 -0.9108  1.6404  2.8941
  188MOL0     H25348   9.315   3.600   3.249  2.6559  0.4358  0.1581
  188MOL0     H25349   9.260   3.515   3.102 -1.9879 -1.0818  2.0682
  188MOL0     H25350   9.497   3.409   3.261  0.3395  1.0845 -1.2096
  188MOL0     H25351   9.396   3.324   3.150 -0.7460  0.3587  0.9014
  188MOL0     H25352   9.341   3.279   3.408 -1.1297  0.8722  1.2470
  188MOL0     H25353   9.266   3.441   3.413 -1.7682 -0.0271 -0.1919
  188MOL0     H25354   9.187   3.252   3.195 -2.4355  0.0693  0.3362
  188MOL0     H25355   9.108   3.384   3.258  1.5839  1.9609 -0.7000
  188MOL0     H25356   9.155   3.100   3.375 -0.4615  0.1383 -0.6409
  188MOL0     H25357   9.089   3.251   3.470 -1.3325  0.7452 -0.6426
  188MOL0     H25358   8.935   3.076   3.313 -1.4594  0.5919  1.0981
  188MOL0     H25359   8.963   3.217   3.203 -1.7058  1.0569  0.8616
  188MOL0     H25360   8.842   3.204   3.489 -1.4265 -4.3786 -2.4793
  188MOL0     H25361   8.761   3.236   3.343 -1.5425 -0.0079  2.6489
  188MOL0     H25362   9.687   3.683   2.993  1.5434 -1.5592  2.2917
  188MOL0     H25363   9.909   3.670   2.841 -0.4389 -2.0848  0.6245
  188MOL0     H25364  10.115   3.699   2.563 -1.3612  1.8981 -2.8676
  188MOL0     H25365  10.325   3.758   2.463  0.2141  0.5600 -0.9702
  188MOL0     H25366  11.530   3.805   1.677 -1.9530  1.6594  1.6531
  188MOL0     H25367  11.344   3.809   1.854  1.2079  1.2742  0.0766
  188MOL0     H25368  11.234   3.770   2.289 -1.7361  1.2311 -0.0840
  188MOL0     H25369  11.090   3.786   2.470 -2.6594  0.6298 -2.3426
  188MOL0     H25370  10.911   3.766   2.633 -0.2411  0.9534 -0.3503
  188MOL0     H25371  10.798   3.762   2.489  3.8590 -0.6564 -2.5368
  188MOL0     H25372  10.774   3.597   2.743 -1.1795 -2.3378 -2.4173
  188MOL0     H25373  10.659   3.584   2.616 -0.2282 -1.5178  2.3148
  188MOL0     H25374  10.631   3.854   2.635  0.8784 -0.1870 -0.3911
  188MOL0     H25375  10.725   3.850   2.776 -1.0655  2.8372 -1.9313
  188MOL0     H25376  10.558   3.681   2.882 -0.2477  0.5410  1.7813
  188MOL0     H25377  10.441   3.727   2.755  2.1345 -1.3447 -2.0048
  188MOL0     H25378  10.448   4.091   2.973  0.0957  1.6618 -2.2397
  188MOL0     H25379  10.920   3.404   2.360  0.6463 -0.7567  0.4454
  188MOL0     H25380  11.066   3.390   2.181  1.6740 -0.2700  1.2788
  189MOL0     O25381   1.812  10.251   8.882  0.9876  0.6833 -0.2962
  189MOL0     C25382   1.705  10.214   8.824 -0.9239 -0.1674 -0.6256
  189MOL0     O25383   1.699  10.182   8.691  0.4030  0.6588  0.1735
  189MOL0     C25384   1.796  10.235   8.606 -0.3945  0.4180  0.0437
  189MOL0     C25385   1.844  10.151   8.508  0.0302  0.0903  0.5654
  189MOL0     C25386   1.939  10.198   8.409 -0.2874 -0.4986 -0.1342
  189MOL0     C25387   1.998  10.332   8.417  0.8481 -0.2983 -0.4735
  189MOL0     O25388   2.079  10.374   8.309 -0.2110 -0.3622  0.8873
  189MOL0     C25389   2.146  10.497   8.303 -0.4410  0.4506  0.0400
  189MOL0     C25390   2.195  10.502   8.161  0.8249  0.5102  1.3734
  189MOL0     C25391   2.233  10.634   8.106 -0.3280  0.0428 -0.0827
  189MOL0     C25392   2.329  10.713   8.196  0.3974  0.7284  0.3978
  189MOL0     C25393   2.479  10.678   8.201 -0.3884  0.2084 -0.1265
  189MOL0     C25394   2.562  10.812   8.202 -0.0486  0.0863 -0.0383
  189MOL0     C25395   2.711  10.766   8.193  0.4269  0.2943  0.1340
  189MOL0     C25396   2.815  10.869   8.242  0.2140 -0.2070 -0.0284
  189MOL0     N25397   2.808  10.985   8.151  0.0695  0.5541 -0.2505
  189MOL0     C25398   2.880  11.097   8.174 -0.2141 -0.2503  0.4774
  189MOL0     C25399   2.871  11.174   8.067 -0.4161 -0.5502 -0.0624
  189MOL0     C25400   2.956  11.299   8.048  0.5940 -0.0293  0.9921
  189MOL0     C25401   3.072  11.253   7.968  0.2143  0.2564 -0.9743
  189MOL0     C25402   3.166  11.368   7.929  0.0925  0.0786  0.1779
  189MOL0     C25403   3.277  11.302   7.837  0.2834 -0.4757 -0.1861
  189MOL0     O25404   3.376  11.413   7.820  0.2962  0.4198  0.1537
  189MOL0     C25405   3.501  11.377   7.869  0.3833  0.8000 -0.0761
  189MOL0     C25406   3.552  11.392   8.002 -0.0288 -0.1859  0.4997
  189MOL0     C25407   3.676  11.355   8.034  0.1480 -0.6424  0.3872
  189MOL0     C25408   3.715  11.360   8.181 -0.1774 -0.6608  0.1011
  189MOL0     C25409   3.764  11.313   7.933  0.4846  0.1325 -0.4088
  189MOL0     C25410   3.900  11.267   7.957  0.2100 -0.9171 -0.1940
  189MOL0     O25411   3.964  11.192   7.866  0.0657  0.2416  0.8363
  189MOL0     C25412   4.098  11.177   7.872  0.5039 -0.3291 -0.3359
  189MOL0     C25413   4.187  11.286   7.853  0.9849 -0.2915  0.7264
  189MOL0     C25414   4.323  11.276   7.834  0.4298  0.3694 -0.4929
  189MOL0     C25415   4.377  11.143   7.834  0.3790 -0.6620 -0.6748
  189MOL0     O25416   4.510  11.134   7.813  0.0176 -0.3845  0.4668
  189MOL0     C25417   4.553  11.018   7.735  0.7571  0.4160  0.1839
  189MOL0     C25418   4.702  11.024   7.709  0.0836  0.0503 -0.5677
  189MOL0     C25419   4.790  11.059   7.836  0.2187 -0.2352 -0.2746
  189MOL0     C25420   4.947  11.069   7.806 -0.2683 -0.0413  0.5599
  189MOL0     C25421   5.041  11.082   7.920 -0.6131 -1.1470  0.0812
  189MOL0     C25422   5.059  11.231   7.954 -0.5851  0.2323  0.8501
  189MOL0     C25423   5.173  11.247   8.062  0.0929 -0.1781  0.0281
  189MOL0     C25424   5.301  11.165   8.040 -0.0420 -0.0012 -0.5468
  189MOL0    Cl25425   5.384  11.225   7.900  0.4306  0.0462  0.1293
  189MOL0     C25426   4.291  11.037   7.855  0.1344 -0.5372 -0.2934
  189MOL0     C25427   4.159  11.052   7.865 -0.7883  0.4613  0.3249
  189MOL0     O25428   3.955  11.312   8.060  0.0994  0.3531  0.1616
  189MOL0     C25429   3.718  11.292   7.803  0.5064  0.1575  0.2978
  189MOL0     C25430   3.591  11.329   7.773 -0.1645 -0.3497 -0.0537
  189MOL0     N25431   2.788  11.106   7.972 -0.5606 -0.9559  0.6368
  189MOL0     N25432   2.741  11.006   8.036 -0.3657  0.1535 -0.2036
  189MOL0     C25433   1.939  10.418   8.510 -0.2869  0.1975 -0.1087
  189MOL0     C25434   1.842  10.371   8.599  0.5375  0.2790 -0.5126
  189MOL0     C25435   1.586  10.200   8.903 -0.1501  0.7096 -0.4471
  189MOL0     C25436   1.474  10.130   8.851 -0.6854 -0.1697  0.1867
  189MOL0     C25437   1.352  10.126   8.920  0.5148 -0.2245 -0.0218
  189MOL0     C25438   1.332  10.191   9.046 -0.1303  0.6155  0.3177
  189MOL0     O25439   1.204  10.185   9.111 -0.4538  0.3309 -0.1935
  189MOL0     C25440   1.192  10.183   9.253 -0.3560  0.1440  0.1531
  189MOL0     C25441   1.064  10.137   9.299  0.6022  0.1177  0.0278
  189MOL0     C25442   0.971  10.250   9.325  0.0302 -0.0389  0.4020
  189MOL0     C25443   0.848  10.219   9.396  0.4110  0.5930  0.3960
  189MOL0     C25444   0.866  10.175   9.534 -0.1622 -1.1331 -0.2348
  189MOL0     C25445   0.884  10.133   9.644 -0.6988 -0.0641 -0.0813
  189MOL0     C25446   1.453  10.240   9.104 -0.2301 -0.1375 -1.5142
  189MOL0     C25447   1.576  10.251   9.043 -1.1574  1.5224 -0.2987
  189MOL0     H25448   1.810  10.048   8.498  0.3111  0.1304 -1.1499
  189MOL0     H25449   1.974  10.125   8.337 -0.2932  0.1737 -0.8291
  189MOL0     H25450   2.082  10.581   8.329 -0.8748  0.1908 -0.1769
  189MOL0     H25451   2.234  10.489   8.368 -0.9239 -0.7613  0.5662
  189MOL0     H25452   2.273  10.427   8.145 -0.2936 -0.7530  1.5887
  189MOL0     H25453   2.122  10.464   8.089  0.1096  3.0705  0.6426
  189MOL0     H25454   2.266  10.627   8.002  0.4840 -0.6809  0.2157
  189MOL0     H25455   2.142  10.694   8.095 -1.6047 -1.7481  0.3666
  189MOL0     H25456   2.327  10.816   8.159 -0.5217  0.7159  0.4010
  189MOL0     H25457   2.301  10.717   8.302  1.6716  0.4617  0.7588
  189MOL0     H25458   2.502  10.623   8.292  2.0858 -1.4626 -1.6369
  189MOL0     H25459   2.504  10.613   8.116  0.2592 -0.4429  0.5509
  189MOL0     H25460   2.532  10.855   8.106 -1.6791 -1.4881 -0.2895
  189MOL0     H25461   2.545  10.872   8.292  0.4670 -0.0676  0.1667
  189MOL0     H25462   2.729  10.684   8.262 -1.2152 -0.1167  0.1222
  189MOL0     H25463   2.728  10.724   8.094 -1.4927  0.5484 -0.3612
  189MOL0     H25464   2.911  10.818   8.227  0.9261  1.6623 -2.6109
  189MOL0     H25465   2.798  10.899   8.346 -0.5494  0.4670 -0.3400
  189MOL0     H25466   2.940  11.121   8.260  0.4684  2.9144 -0.7421
  189MOL0     H25467   2.900  11.377   7.996  2.5257  0.0559 -1.1328
  189MOL0     H25468   2.978  11.334   8.148  2.0686  3.6061 -0.4489
  189MOL0     H25469   3.018  11.206   7.885 -2.3153  1.5934 -0.2015
  189MOL0     H25470   3.118  11.180   8.035 -1.3338 -0.2843 -0.4559
  189MOL0     H25471   3.198  11.416   8.022 -1.0651 -0.3876  0.8268
  189MOL0     H25472   3.109  11.444   7.876 -3.1966 -1.4198  1.3306
  189MOL0     H25473   3.223  11.277   7.745 -2.0786 -1.2515  1.3392
  189MOL0     H25474   3.308  11.210   7.888 -2.5356 -1.1818  0.4363
  189MOL0     H25475   3.502  11.447   8.081  1.4590  1.9606  0.0275
  189MOL0     H25476   3.798  11.431   8.191  1.5911 -2.7120  0.7937
  189MOL0     H25477   3.629  11.392   8.241  0.1982 -0.2551  0.4346
  189MOL0     H25478   3.747  11.261   8.215  3.6194  0.5257  0.4182
  189MOL0     H25479   4.145  11.386   7.849  2.0821  0.1767  0.3817
  189MOL0     H25480   4.389  11.355   7.803  5.4608 -2.3864  1.9241
  189MOL0     H25481   4.533  10.926   7.791 -0.4694  0.3505 -0.3355
  189MOL0     H25482   4.498  11.023   7.641  1.4003 -1.0726 -0.2992
  189MOL0     H25483   4.747  10.932   7.669 -0.6340 -1.6322  2.2306
  189MOL0     H25484   4.710  11.102   7.633 -1.5893  1.2516  0.4216
  189MOL0     H25485   4.772  10.996   7.924 -1.8792  0.7307  0.0482
  189MOL0     H25486   4.764  11.158   7.876  1.1581 -0.4742  1.0069
  189MOL0     H25487   4.977  10.982   7.747 -0.7646 -0.3014  0.6810
  189MOL0     H25488   4.969  11.148   7.733 -1.1627  0.3985  0.7550
  189MOL0     H25489   5.129  11.027   7.886  0.0505  1.0012 -1.9002
  189MOL0     H25490   4.993  11.025   8.001 -2.2782 -1.0239 -0.7694
  189MOL0     H25491   5.103  11.277   7.865 -1.4512 -2.9287 -1.3920
  189MOL0     H25492   4.962  11.277   7.978 -1.4252 -1.3801  0.7118
  189MOL0     H25493   5.126  11.217   8.156  0.9551 -2.1251 -0.1220
  189MOL0     H25494   5.196  11.350   8.089  1.0600 -1.3617  4.6859
  189MOL0     H25495   5.286  11.058   8.027 -0.8387  0.3082 -2.4338
  189MOL0     H25496   5.371  11.181   8.122 -0.0506  1.1594 -0.7491
  189MOL0     H25497   4.321  10.934   7.868  0.6609 -0.4505 -0.8236
  189MOL0     H25498   4.104  10.959   7.878  2.5979 -1.5831  1.2853
  189MOL0     H25499   3.776  11.253   7.720 -2.8622  1.0385 -2.7231
  189MOL0     H25500   3.556  11.321   7.670 -0.8810 -0.8791  0.2219
  189MOL0     H25501   1.960  10.524   8.509 -0.0377  0.1515 -0.8856
  189MOL0     H25502   1.796  10.435   8.673  4.1220 -0.8196  3.0557
  189MOL0     H25503   1.478  10.082   8.754  1.0525  1.1673 -0.4629
  189MOL0     H25504   1.279  10.067   8.864  1.5668  0.0040 -1.6817
  189MOL0     H25505   1.272  10.114   9.279  0.0797  0.0010 -1.4855
  189MOL0     H25506   1.229  10.272   9.304 -0.6908 -0.3168  1.2307
  189MOL0     H25507   1.086  10.088   9.394  1.5702  2.2485  0.9723
  189MOL0     H25508   1.022  10.065   9.228 -1.2625 -1.4573  2.5296
  189MOL0     H25509   0.946  10.273   9.221 -0.9639 -6.4139 -1.1928
  189MOL0     H25510   1.027  10.335   9.367  2.3101 -0.5993 -1.3075
  189MOL0     H25511   0.803  10.136   9.340 -0.1536 -0.3490  2.1765
  189MOL0     H25512   0.777  10.300   9.379 -3.0244 -2.3444 -0.5625
  189MOL0     H25513   0.890  10.119   9.750  1.0013  2.2708  0.2190
  189MOL0     H25514   1.435  10.279   9.204 -1.5948 -0.7044 -1.5115
  189MOL0     H25515   1.664  10.298   9.086 -2.1864  0.0700  3.8108
  190MOL0     O25516   7.950   7.124   2.120  0.3729 -0.6238 -0.1068
  190MOL0     C25517   7.905   7.225   2.181  0.1084  0.7398  0.0680
  190MOL0     O25518   7.777   7.263   2.180  0.3866  0.4541  0.3765
  190MOL0     C25519   7.694   7.208   2.085  1.0014 -0.7035 -0.6503
  190MOL0     C25520   7.618   7.095   2.114 -1.1621 -0.3011  1.5286
  190MOL0     C25521   7.537   7.031   2.020  0.5399 -0.9581  0.3658
  190MOL0     C25522   7.529   7.080   1.890  0.8582  0.7387 -0.6885
  190MOL0     O25523   7.457   7.021   1.789 -0.2010  0.0706 -0.1884
  190MOL0     C25524   7.415   6.883   1.807  0.3400 -0.2197 -0.9589
  190MOL0     C25525   7.315   6.869   1.689 -0.0079 -0.3712 -0.2226
  190MOL0     C25526   7.253   6.728   1.677 -0.1239 -0.5758  0.4828
  190MOL0     C25527   7.156   6.740   1.558  0.3948 -0.5679  1.0140
  190MOL0     C25528   7.066   6.612   1.535  0.3588 -0.0658  0.4334
  190MOL0     C25529   6.935   6.630   1.620  0.0468  0.8737 -0.1057
  190MOL0     C25530   6.846   6.511   1.586 -0.2165 -0.9422 -0.3555
  190MOL0     C25531   6.716   6.487   1.678 -0.0725 -0.4313 -1.0437
  190MOL0     N25532   6.591   6.448   1.615 -0.2708  0.3354 -0.2648
  190MOL0     C25533   6.470   6.506   1.609  0.7696 -0.4085  0.2262
  190MOL0     C25534   6.390   6.411   1.546 -0.4276 -0.2733  0.3300
  190MOL0     C25535   6.237   6.426   1.518 -1.2553  0.2904 -0.1117
  190MOL0     C25536   6.159   6.401   1.644  0.5202 -0.1316  0.2128
  190MOL0     C25537   6.004   6.433   1.640 -0.2577 -1.1889 -0.3770
  190MOL0     C25538   5.990   6.590   1.631  0.1606 -0.1517  0.3261
  190MOL0     O25539   6.039   6.673   1.744 -0.7803  0.2056 -0.1182
  190MOL0     C25540   6.151   6.745   1.721  0.7136  0.0439 -0.0312
  190MOL0     C25541   6.263   6.739   1.815  0.0588  0.1099  0.2696
  190MOL0     C25542   6.384   6.811   1.795 -0.2471 -0.0316 -0.5766
  190MOL0     C25543   6.500   6.788   1.895 -0.0738  0.7712  0.8767
  190MOL0     C25544   6.390   6.904   1.687 -0.7841  0.6978  0.7048
  190MOL0     C25545   6.510   6.967   1.631 -0.4243 -0.3438  0.9737
  190MOL0     O25546   6.496   7.046   1.518 -0.4082  0.1592 -0.0714
  190MOL0     C25547   6.602   7.122   1.470 -0.4047  1.1390 -0.1411
  190MOL0     C25548   6.653   7.223   1.550  0.3447  1.0716 -0.4384
  190MOL0     C25549   6.776   7.289   1.517 -0.2077  0.9831  0.6008
  190MOL0     C25550   6.841   7.254   1.393  0.7075 -1.2608 -0.4492
  190MOL0     O25551   6.943   7.337   1.345 -0.0472  0.4141 -0.3013
  190MOL0     C25552   7.076   7.319   1.396 -0.5831  0.2721  0.1910
  190MOL0     C25553   7.121   7.181   1.409 -0.6020 -0.3823 -0.6412
  190MOL0     C25554   7.201   7.135   1.278  0.6551  0.3511  0.6278
  190MOL0     C25555   7.247   6.987   1.289 -0.2132 -0.6514  0.2359
  190MOL0     C25556   7.368   6.962   1.194  0.8599 -0.0546 -0.3576
  190MOL0     C25557   7.343   6.986   1.043  0.5270 -0.2502 -0.2281
  190MOL0     C25558   7.466   6.939   0.970 -0.4364  0.6008 -0.6085
  190MOL0     C25559   7.451   6.933   0.825  0.1880  0.0798  0.0491
  190MOL0    Cl25560   7.293   6.859   0.782  0.0450  0.4277  0.1343
  190MOL0     C25561   6.790   7.148   1.319  0.4397 -0.3300 -0.1210
  190MOL0     C25562   6.675   7.079   1.356 -0.2993 -0.3575 -1.0728
  190MOL0     O25563   6.613   6.929   1.682  0.1754 -0.1106 -0.4052
  190MOL0     C25564   6.272   6.922   1.606 -0.3027  0.3222 -0.0204
  190MOL0     C25565   6.158   6.841   1.623  0.2336 -1.0680 -0.8191
  190MOL0     N25566   6.467   6.299   1.511  1.0470  1.3612  0.0256
  190MOL0     N25567   6.579   6.319   1.559  0.2025 -0.4317  0.3213
  190MOL0     C25568   7.603   7.189   1.861 -0.5625  0.6248  0.8160
  190MOL0     C25569   7.683   7.249   1.954 -0.4281 -0.4946  0.1747
  190MOL0     C25570   8.006   7.302   2.267  0.2938  0.1457 -0.2020
  190MOL0     C25571   7.968   7.400   2.361  1.0388  1.1436  0.3536
  190MOL0     C25572   8.056   7.478   2.434  0.6964 -0.1575  0.1396
  190MOL0     C25573   8.185   7.469   2.409 -0.0898  0.1757 -0.1435
  190MOL0     O25574   8.279   7.539   2.480 -0.8619  0.0279  0.0661
  190MOL0     C25575   8.262   7.680   2.486  0.0522 -0.0998  0.6590
  190MOL0     C25576   8.395   7.746   2.515 -0.3501  0.3052 -0.1726
  190MOL0     C25577   8.395   7.831   2.640  0.2065 -0.4164 -0.2377
  190MOL0     C25578   8.527   7.826   2.716 -0.7205 -0.4198  0.0883
  190MOL0     C25579   8.634   7.859   2.615  0.4056 -0.5837  0.1090
  190MOL0     C25580   8.709   7.894   2.531 -0.2592 -1.4764 -1.6244
  190MOL0     C25581   8.239   7.372   2.326 -0.4749 -1.1236  0.4529
  190MOL0     C25582   8.147   7.289   2.252  0.2834 -0.2768 -0.6098
  190MOL0     H25583   7.638   7.052   2.212  2.4474 -0.5613  0.8194
  190MOL0     H25584   7.492   6.944   2.067  1.0199  0.7450  4.4581
  190MOL0     H25585   7.497   6.810   1.809  0.6029  0.0902  0.0478
  190MOL0     H25586   7.362   6.883   1.903 -1.0927  1.6844 -1.6904
  190MOL0     H25587   7.236   6.943   1.705 -0.1932 -0.8671  1.2582
  190MOL0     H25588   7.379   6.888   1.601  0.1871 -1.0843 -0.2392
  190MOL0     H25589   7.326   6.648   1.662  0.2722 -0.2525  0.6488
  190MOL0     H25590   7.202   6.706   1.772  1.1595 -2.0241  0.8720
  190MOL0     H25591   7.091   6.827   1.572 -1.0897 -0.8115 -3.1914
  190MOL0     H25592   7.213   6.756   1.466  0.4001  1.4513  1.3129
  190MOL0     H25593   7.038   6.598   1.430  2.1949 -1.0954  0.0444
  190MOL0     H25594   7.122   6.524   1.566  2.0680  0.8098 -0.0236
  190MOL0     H25595   6.970   6.639   1.724 -0.3706 -0.5776  0.1852
  190MOL0     H25596   6.881   6.719   1.585 -0.9815  0.7355  1.0484
  190MOL0     H25597   6.824   6.519   1.479  0.2017  0.9132 -0.3336
  190MOL0     H25598   6.917   6.429   1.601 -0.2923 -1.0101 -0.3621
  190MOL0     H25599   6.700   6.570   1.748 -0.2732 -0.6228 -0.8605
  190MOL0     H25600   6.745   6.403   1.741  0.0125 -1.6140 -2.5798
  190MOL0     H25601   6.441   6.600   1.655 -0.4744 -1.5285  1.8489
  190MOL0     H25602   6.224   6.531   1.489 -2.5856  0.8680  2.3132
  190MOL0     H25603   6.207   6.365   1.432 -0.2315  1.2941 -1.2196
  190MOL0     H25604   6.201   6.449   1.733 -1.4980  1.1734  0.5247
  190MOL0     H25605   6.162   6.292   1.660  1.0899  0.2493  3.5799
  190MOL0     H25606   5.960   6.399   1.734  1.6460  1.3131  1.5589
  190MOL0     H25607   5.958   6.379   1.557  1.4029 -1.2374 -1.3127
  190MOL0     H25608   5.886   6.611   1.605 -0.5740 -2.6432  0.9026
  190MOL0     H25609   6.036   6.620   1.537  2.3010 -0.9367  1.0496
  190MOL0     H25610   6.251   6.663   1.891 -0.0531 -1.5494 -1.3489
  190MOL0     H25611   6.565   6.721   1.839  1.8987  2.1829  1.3901
  190MOL0     H25612   6.552   6.880   1.920 -0.0720  1.2965 -0.9208
  190MOL0     H25613   6.463   6.744   1.988  0.7493 -1.4338  0.2299
  190MOL0     H25614   6.595   7.247   1.639  0.6176  0.4592 -0.0840
  190MOL0     H25615   6.821   7.367   1.578  0.8770  0.1369  0.9038
  190MOL0     H25616   7.148   7.383   1.343 -0.4132 -0.9199 -1.0650
  190MOL0     H25617   7.068   7.364   1.495 -2.3340  1.3464 -0.4005
  190MOL0     H25618   7.191   7.166   1.492 -1.4189 -1.8543 -0.1821
  190MOL0     H25619   7.042   7.112   1.440  3.6402 -4.7604  1.8068
  190MOL0     H25620   7.284   7.206   1.266  1.3873 -0.9068 -2.9365
  190MOL0     H25621   7.143   7.142   1.186  0.6255 -1.1862  0.5149
  190MOL0     H25622   7.276   6.957   1.390 -0.9461 -1.6979  0.1420
  190MOL0     H25623   7.166   6.919   1.261 -0.7870  0.3981 -0.7134
  190MOL0     H25624   7.416   6.865   1.211 -0.1816 -0.8328 -1.6967
  190MOL0     H25625   7.442   7.035   1.228 -0.4389 -0.1648  3.2343
  190MOL0     H25626   7.259   6.921   1.015  0.5781 -1.6628  2.5420
  190MOL0     H25627   7.325   7.089   1.013 -2.4482 -0.7147 -0.3908
  190MOL0     H25628   7.497   6.838   0.997  0.0714  1.3120  1.6510
  190MOL0     H25629   7.552   7.006   0.973 -0.4338  0.5704  0.1308
  190MOL0     H25630   7.540   6.882   0.787 -0.6666  0.2522 -2.3684
  190MOL0     H25631   7.459   7.035   0.786  2.0380  0.3465  1.0280
  190MOL0     H25632   6.847   7.122   1.230  3.7421  3.8792  0.4074
  190MOL0     H25633   6.641   6.989   1.306  2.2335 -2.1790  0.2509
  190MOL0     H25634   6.274   6.996   1.527  0.0024  0.3825  0.0453
  190MOL0     H25635   6.072   6.857   1.558 -0.0541  1.7784  0.1306
  190MOL0     H25636   7.590   7.223   1.759  2.8819  0.0679  0.0763
  190MOL0     H25637   7.742   7.337   1.929 -0.1217 -0.8460 -0.3597
  190MOL0     H25638   7.863   7.428   2.363  0.8698  0.5170  0.6104
  190MOL0     H25639   8.008   7.551   2.499  2.4731  2.2722 -1.1311
  190MOL0     H25640   8.224   7.704   2.387  0.3136  1.1061  0.8379
  190MOL0     H25641   8.185   7.706   2.559  0.6734 -1.9850  2.1067
  190MOL0     H25642   8.438   7.799   2.430 -0.9293  1.8024  0.4226
  190MOL0     H25643   8.465   7.664   2.530 -0.2265  0.8241  2.5863
  190MOL0     H25644   8.314   7.808   2.709  2.1370  0.8235  2.6678
  190MOL0     H25645   8.390   7.935   2.606  2.2566 -0.5850 -1.2185
  190MOL0     H25646   8.545   7.723   2.748 -0.4237 -1.5284 -3.2329
  190MOL0     H25647   8.538   7.891   2.803 -3.1275 -0.8630  0.7726
  190MOL0     H25648   8.772   7.934   2.454 -0.1519 -1.7582 -1.6823
  190MOL0     H25649   8.347   7.364   2.319 -0.1857  1.9650  0.0337
  190MOL0     H25650   8.201   7.220   2.189  3.4190 -0.7107  2.2739
  191MOL0     O25651   6.173   6.226   8.478  0.1456  0.4463 -0.2491
  191MOL0     C25652   6.235   6.330   8.456 -0.4293 -0.0837 -0.1627
  191MOL0     O25653   6.209   6.410   8.357 -0.0488 -0.3073 -0.7675
  191MOL0     C25654   6.118   6.376   8.256  0.5009  0.2891  0.8220
  191MOL0     C25655   6.164   6.414   8.132  0.0011  0.6526  0.4655
  191MOL0     C25656   6.079   6.404   8.022 -0.3126 -0.0359  0.1598
  191MOL0     C25657   5.960   6.341   8.034  0.0039  0.0507  0.6135
  191MOL0     O25658   5.894   6.328   7.908  0.2225 -0.1406 -0.6638
  191MOL0     C25659   5.755   6.314   7.914 -1.4024  1.0560  0.3826
  191MOL0     C25660   5.707   6.271   7.774  0.4992  0.0224 -0.5712
  191MOL0     C25661   5.569   6.205   7.772  1.2671  0.5090 -1.0521
  191MOL0     C25662   5.537   6.129   7.639 -0.5062  0.3490 -0.2589
  191MOL0     C25663   5.414   6.055   7.663  0.0224 -0.3066  0.9532
  191MOL0     C25664   5.383   5.938   7.564  0.5747  0.4269 -0.2366
  191MOL0     C25665   5.368   5.977   7.415 -0.0678  0.0802 -0.0143
  191MOL0     C25666   5.362   5.859   7.324  0.1188  0.2092 -0.2065
  191MOL0     N25667   5.482   5.851   7.241 -0.6677 -0.1941 -0.3873
  191MOL0     C25668   5.595   5.776   7.275 -0.2333  0.3897 -0.2041
  191MOL0     C25669   5.675   5.789   7.168 -0.4595  0.4467 -0.6891
  191MOL0     C25670   5.816   5.738   7.159 -0.0758  0.2532  0.3599
  191MOL0     C25671   5.922   5.788   7.254 -0.1889  0.0793  0.3611
  191MOL0     C25672   6.057   5.755   7.204 -0.3015 -0.5869  0.4954
  191MOL0     C25673   6.169   5.783   7.297 -0.0914  0.5450 -0.3858
  191MOL0     O25674   6.199   5.917   7.298 -0.4201 -0.2839  0.3094
  191MOL0     C25675   6.291   5.980   7.215 -0.0608 -0.0549 -0.0459
  191MOL0     C25676   6.331   5.934   7.093  0.4855 -0.1423  1.2331
  191MOL0     C25677   6.426   6.008   7.016  0.9774  0.2727 -0.8223
  191MOL0     C25678   6.452   5.947   6.884 -0.0590  0.4609  0.1347
  191MOL0     C25679   6.478   6.130   7.064  0.1352 -0.4761 -0.8289
  191MOL0     C25680   6.576   6.222   6.981 -0.5154  0.7848 -0.6926
  191MOL0     O25681   6.563   6.362   7.004  0.1984 -0.3785  0.2316
  191MOL0     C25682   6.658   6.458   6.970  0.1160  0.5686  0.1730
  191MOL0     C25683   6.616   6.596   6.974  0.0980  0.6408 -0.1658
  191MOL0     C25684   6.713   6.693   6.923  0.0635  0.5085 -0.0093
  191MOL0     C25685   6.832   6.658   6.862  0.2150  0.2447  0.4925
  191MOL0     O25686   6.903   6.759   6.817  0.4363  0.7372  0.3024
  191MOL0     C25687   7.019   6.716   6.736  0.0864  0.7290 -0.2110
  191MOL0     C25688   7.083   6.836   6.675 -0.5589  0.4212 -1.1534
  191MOL0     C25689   7.161   6.910   6.778 -0.0900 -0.9982 -0.6074
  191MOL0     C25690   7.213   7.030   6.715 -0.6970 -0.5239 -0.2437
  191MOL0     C25691   7.266   7.152   6.805  0.3520 -0.1551 -0.0211
  191MOL0     C25692   7.302   7.270   6.712  0.1155 -0.1140  0.6359
  191MOL0     C25693   7.258   7.404   6.765 -0.2093 -0.4653 -0.4677
  191MOL0     C25694   7.296   7.532   6.696  0.2119 -0.7494 -0.0476
  191MOL0    Cl25695   7.248   7.534   6.527 -0.1600  0.1679  0.1535
  191MOL0     C25696   6.863   6.526   6.861  0.3107  1.5496 -0.3495
  191MOL0     C25697   6.778   6.422   6.915  0.3187  0.2032  0.3771
  191MOL0     O25698   6.643   6.166   6.895  0.1401 -0.1106  0.8958
  191MOL0     C25699   6.434   6.168   7.186 -0.1262  0.2319  0.0700
  191MOL0     C25700   6.341   6.098   7.261 -0.8733  0.2511 -0.2028
  191MOL0     N25701   5.620   5.869   7.072  0.3713  0.2769 -0.3929
  191MOL0     N25702   5.504   5.899   7.115  0.2974  0.5328 -0.1796
  191MOL0     C25703   5.911   6.313   8.160  1.0822  0.2321  0.2317
  191MOL0     C25704   5.987   6.330   8.271 -0.1341 -0.2774 -0.8639
  191MOL0     C25705   6.318   6.377   8.556  0.0164 -0.7352  0.6917
  191MOL0     C25706   6.399   6.491   8.525 -0.0128  0.2512 -0.6200
  191MOL0     C25707   6.472   6.555   8.624 -0.1571 -0.3511  0.4989
  191MOL0     C25708   6.492   6.504   8.746  0.4928  0.0665 -0.0388
  191MOL0     O25709   6.576   6.562   8.834  0.3167  0.9699 -0.1569
  191MOL0     C25710   6.696   6.495   8.852 -0.0190  0.4879  0.0267
  191MOL0     C25711   6.737   6.480   9.003  0.1244 -0.4457 -0.2956
  191MOL0     C25712   6.705   6.601   9.097 -0.2082  0.2982 -0.4281
  191MOL0     C25713   6.791   6.614   9.218 -0.2611  0.4194 -0.4627
  191MOL0     C25714   6.739   6.720   9.296  0.7647  0.4972 -0.0161
  191MOL0     C25715   6.700   6.810   9.369 -1.0900 -0.4088 -0.4264
  191MOL0     C25716   6.419   6.386   8.778  0.1755  0.2066  0.7281
  191MOL0     C25717   6.336   6.326   8.690  1.1173 -0.4829  0.4403
  191MOL0     H25718   6.268   6.440   8.114 -0.2703  1.7887  0.4696
  191MOL0     H25719   6.107   6.429   7.920  2.8367  1.5241  1.2586
  191MOL0     H25720   5.716   6.239   7.985 -0.5323 -2.0986 -2.2301
  191MOL0     H25721   5.712   6.412   7.937 -1.1439  1.0132  1.0681
  191MOL0     H25722   5.720   6.350   7.700 -1.5683  1.7478  0.7758
  191MOL0     H25723   5.774   6.188   7.748 -0.2751 -1.0312  0.6704
  191MOL0     H25724   5.556   6.133   7.853  3.7930  2.5432  1.3953
  191MOL0     H25725   5.493   6.282   7.788  2.2111  0.9643  1.5961
  191MOL0     H25726   5.533   6.192   7.550  0.7759 -1.6271 -1.8087
  191MOL0     H25727   5.616   6.053   7.635  0.7873  1.6945 -1.5857
  191MOL0     H25728   5.398   6.022   7.767 -0.5072 -1.5309  0.5105
  191MOL0     H25729   5.327   6.121   7.654  0.8335  0.4933 -1.8065
  191MOL0     H25730   5.464   5.864   7.577 -0.2006 -0.2106  1.2200
  191MOL0     H25731   5.293   5.886   7.597  0.4762  0.5206 -0.3571
  191MOL0     H25732   5.269   6.022   7.406 -0.2092 -0.4825 -1.5693
  191MOL0     H25733   5.445   6.050   7.387 -1.5794  1.5133 -0.6135
  191MOL0     H25734   5.276   5.867   7.258 -0.1785  2.5454  0.3501
  191MOL0     H25735   5.351   5.763   7.375 -0.2677 -1.0578 -2.5453
  191MOL0     H25736   5.603   5.717   7.366  0.7899 -0.3757 -0.7675
  191MOL0     H25737   5.801   5.630   7.173  1.7187  0.1356  1.5889
  191MOL0     H25738   5.858   5.755   7.060  0.3855 -0.4890  0.4198
  191MOL0     H25739   5.917   5.732   7.347 -2.1091 -1.2025 -0.4600
  191MOL0     H25740   5.906   5.893   7.282 -3.0308 -0.7224  2.0786
  191MOL0     H25741   6.076   5.808   7.110  0.7266  1.5386  1.8100
  191MOL0     H25742   6.058   5.646   7.191  0.8514 -0.2688 -3.4173
  191MOL0     H25743   6.260   5.731   7.264  1.3109  2.1752  0.7296
  191MOL0     H25744   6.134   5.762   7.398 -3.4715 -2.4083 -1.9399
  191MOL0     H25745   6.287   5.845   7.051 -3.8181 -0.1852  5.0574
  191MOL0     H25746   6.371   5.885   6.845  2.3523 -0.6821 -3.6094
  191MOL0     H25747   6.446   6.024   6.806 -4.3031 -0.3078 -0.5884
  191MOL0     H25748   6.535   5.876   6.886 -1.2705 -1.1220 -1.6460
  191MOL0     H25749   6.524   6.637   7.013  1.9769  0.6635  5.0254
  191MOL0     H25750   6.682   6.797   6.927 -0.4522  0.3350  1.2272
  191MOL0     H25751   7.087   6.658   6.800 -0.5583  2.1848  1.9181
  191MOL0     H25752   6.978   6.648   6.661  1.5948 -0.7727  0.2599
  191MOL0     H25753   7.157   6.806   6.600  3.4239  1.5418  1.9946
  191MOL0     H25754   7.007   6.895   6.622 -0.3768 -1.1024 -3.2575
  191MOL0     H25755   7.245   6.854   6.820 -0.4944 -1.1829 -0.0318
  191MOL0     H25756   7.086   6.925   6.856  0.3021 -2.1377  0.0080
  191MOL0     H25757   7.293   6.997   6.649 -1.1161  1.7600 -2.0095
  191MOL0     H25758   7.142   7.067   6.641 -1.2355 -2.2532 -0.6487
  191MOL0     H25759   7.354   7.127   6.866  0.9785 -0.5245 -1.0587
  191MOL0     H25760   7.187   7.184   6.873 -0.0220  0.2249 -0.6330
  191MOL0     H25761   7.408   7.259   6.687  0.0078  1.4688 -0.5835
  191MOL0     H25762   7.245   7.262   6.619 -0.5175  0.9524  0.9194
  191MOL0     H25763   7.315   7.401   6.859 -2.0888 -2.2807  0.6878
  191MOL0     H25764   7.151   7.413   6.785 -0.3125 -1.1663 -0.6915
  191MOL0     H25765   7.403   7.551   6.700 -0.4023  3.4443  0.6440
  191MOL0     H25766   7.251   7.616   6.749  0.0004 -1.8343  1.5500
  191MOL0     H25767   6.949   6.484   6.811 -2.9885 -2.8956 -3.1112
  191MOL0     H25768   6.824   6.324   6.904 -0.9528 -0.4738  0.8127
  191MOL0     H25769   6.470   6.255   7.241  0.1366 -0.2841  0.7290
  191MOL0     H25770   6.315   6.136   7.359  0.6154 -0.4400  0.5085
  191MOL0     H25771   5.809   6.281   8.174  0.8484 -0.0008 -1.8061
  191MOL0     H25772   5.958   6.309   8.373  4.0119 -1.9212  0.2133
  191MOL0     H25773   6.395   6.534   8.426 -0.0676  1.2196 -0.2079
  191MOL0     H25774   6.501   6.653   8.588 -2.5795  0.1084 -0.4474
  191MOL0     H25775   6.698   6.398   8.803  0.7536  0.3789  0.2573
  191MOL0     H25776   6.775   6.548   8.797 -1.6293 -2.1378 -5.5096
  191MOL0     H25777   6.842   6.448   9.008 -0.1376 -1.2519  0.2142
  191MOL0     H25778   6.674   6.398   9.038 -0.2872  0.0418  0.1223
  191MOL0     H25779   6.605   6.582   9.136 -0.3231  1.1766 -0.2910
  191MOL0     H25780   6.697   6.695   9.043 -1.2980 -0.1046 -0.9928
  191MOL0     H25781   6.892   6.647   9.193 -0.6980  1.3098 -1.0840
  191MOL0     H25782   6.790   6.519   9.273 -0.3748  1.0546  0.6442
  191MOL0     H25783   6.669   6.898   9.423  4.1703  2.9335 -2.0451
  191MOL0     H25784   6.403   6.355   8.881  0.5756 -1.9606  0.1858
  191MOL0     H25785   6.274   6.241   8.717 -2.1730  0.9884 -1.8730
  192MOL0     O25786  10.048   0.942   5.007  0.3384  0.0436 -0.6687
  192MOL0     C25787  10.002   0.844   5.072 -0.3560 -0.7988 -0.2315
  192MOL0     O25788   9.982   0.717   5.014 -1.0617  0.4877  0.4443
  192MOL0     C25789  10.053   0.676   4.903  0.1734  1.0222 -0.9865
  192MOL0     C25790  10.191   0.703   4.875  0.4446 -1.2945  0.5674
  192MOL0     C25791  10.252   0.637   4.766  0.5122 -0.7148 -0.3689
  192MOL0     C25792  10.188   0.539   4.697  0.0251  0.3313  1.0840
  192MOL0     O25793  10.258   0.478   4.595 -0.9867 -0.8384 -0.8173
  192MOL0     C25794  10.201   0.380   4.517  0.0157  0.6834 -0.2220
  192MOL0     C25795  10.223   0.231   4.569 -0.1957  0.1456  0.1284
  192MOL0     C25796  10.366   0.179   4.600 -0.7087 -0.0010  0.3453
  192MOL0     C25797  10.459   0.199   4.484  0.2321 -0.4625  0.3548
  192MOL0     C25798  10.580   0.104   4.484  0.1540 -0.3269 -1.1476
  192MOL0     C25799  10.683   0.117   4.600 -0.1612  0.1413  0.1123
  192MOL0     C25800  10.817   0.049   4.564 -0.2888  0.3845 -0.5843
  192MOL0     C25801  10.808  -0.104   4.593 -0.9347 -0.2604  0.0747
  192MOL0     N25802  10.944  -0.159   4.575 -0.4450 -0.0453 -0.4459
  192MOL0     C25803  11.054  -0.135   4.655 -0.6313 -0.5855 -0.3802
  192MOL0     C25804  11.165  -0.188   4.582 -0.1179 -0.5941 -0.1693
  192MOL0     C25805  11.307  -0.189   4.631  1.2816  0.0760 -0.1166
  192MOL0     C25806  11.399  -0.111   4.541 -1.0168 -0.4939 -0.2077
  192MOL0     C25807  11.383   0.037   4.578  0.9145 -0.9525 -0.1897
  192MOL0     C25808  11.482   0.118   4.504  0.2812 -0.2664  0.5412
  192MOL0     O25809  11.446   0.261   4.517 -0.0871 -0.1186  0.2593
  192MOL0     C25810  11.531   0.356   4.475  0.8945  0.9660  0.5065
  192MOL0     C25811  11.481   0.484   4.473  0.6767  0.6852  0.4364
  192MOL0     C25812  11.544   0.602   4.433 -0.6910  0.1013  0.2312
  192MOL0     C25813  11.469   0.727   4.430  0.3659 -0.6757  0.9105
  192MOL0     C25814  11.690   0.589   4.406  0.7034 -0.0554  0.1491
  192MOL0     C25815  11.782   0.692   4.369 -0.3398 -0.2332  0.1632
  192MOL0     O25816  11.912   0.652   4.342  0.4635 -0.0354  0.0439
  192MOL0     C25817  12.013   0.740   4.300  0.8897  0.0608  0.2566
  192MOL0     C25818  11.995   0.818   4.184 -0.2553  1.0866 -0.5877
  192MOL0     C25819  12.092   0.909   4.136 -0.4864  0.3003  0.1785
  192MOL0     C25820  12.204   0.935   4.215  0.0591 -0.1588  0.0753
  192MOL0     O25821  12.303   1.022   4.188 -0.3542 -0.2233 -0.6872
  192MOL0     C25822  12.297   1.109   4.076  0.5491  0.0680  0.5389
  192MOL0     C25823  12.422   1.173   4.050  0.5685  0.2997 -0.0514
  192MOL0     C25824  12.522   1.074   3.990 -0.4572  0.2964  0.2102
  192MOL0     C25825  12.569   0.957   4.084 -0.3816 -0.9199  0.6931
  192MOL0     C25826  12.699   0.878   4.051  0.2901 -0.0031  0.1184
  192MOL0     C25827  12.722   0.764   4.152  0.6393  1.1074  0.0078
  192MOL0     C25828  12.842   0.670   4.129  0.3611  0.4358  0.8329
  192MOL0     C25829  12.805   0.564   4.025  0.1536  0.4888 -0.8521
  192MOL0    Cl25830  12.672   0.463   4.088  0.1013 -0.4788  0.0685
  192MOL0     C25831  12.217   0.867   4.336 -1.1164 -0.3457 -0.6927
  192MOL0     C25832  12.126   0.769   4.385  0.3923  0.6873  0.1859
  192MOL0     O25833  11.749   0.814   4.380  0.3295  0.3312 -0.1630
  192MOL0     C25834  11.735   0.454   4.413  0.3109  0.1575  0.4517
  192MOL0     C25835  11.659   0.345   4.439  0.1225  0.5810  0.6796
  192MOL0     N25836  11.111  -0.254   4.468  0.6898  0.4135 -0.3075
  192MOL0     N25837  10.983  -0.235   4.464 -0.3567  0.0914  0.4929
  192MOL0     C25838  10.055   0.502   4.732 -0.1788  0.3060  0.3158
  192MOL0     C25839   9.994   0.569   4.837  0.1511 -0.2370  0.3812
  192MOL0     C25840   9.962   0.853   5.213 -0.0019 -0.0414 -0.2347
  192MOL0     C25841   9.877   0.761   5.271  0.0421  0.2667  0.8800
  192MOL0     C25842   9.835   0.769   5.405 -0.1189  0.1871 -0.4592
  192MOL0     C25843   9.882   0.884   5.478 -0.0395  0.1268 -1.5146
  192MOL0     O25844   9.843   0.892   5.614 -0.4477  0.6139  0.1879
  192MOL0     C25845   9.921   0.965   5.711 -0.1974  0.4676 -0.8693
  192MOL0     C25846  10.069   0.919   5.728 -0.1431  0.9999  0.5063
  192MOL0     C25847  10.093   0.762   5.711  0.1632  0.3336 -0.1457
  192MOL0     C25848  10.016   0.695   5.819  0.3838 -0.5697  0.5167
  192MOL0     C25849   9.999   0.560   5.803 -0.1130  0.5282  0.6873
  192MOL0     C25850  10.003   0.436   5.786 -0.0967 -0.1032 -0.6204
  192MOL0     C25851   9.958   0.983   5.425 -0.3727 -0.1359  1.1511
  192MOL0     C25852  10.009   0.970   5.290  0.6153  0.4253 -0.1745
  192MOL0     H25853  10.254   0.772   4.930  1.4194 -1.2833 -0.5179
  192MOL0     H25854  10.353   0.665   4.737  0.6603 -0.1415  0.6727
  192MOL0     H25855  10.099   0.413   4.494 -0.7417 -0.5597  1.1711
  192MOL0     H25856  10.259   0.386   4.425  1.7240  0.6156  0.7998
  192MOL0     H25857  10.167   0.216   4.662 -0.4501  0.4498  0.0280
  192MOL0     H25858  10.179   0.170   4.490  0.9649  0.4310 -0.7690
  192MOL0     H25859  10.409   0.232   4.686  0.3764 -0.1960 -0.0677
  192MOL0     H25860  10.355   0.075   4.630  1.7768 -0.3492  0.2884
  192MOL0     H25861  10.410   0.177   4.389  1.7873 -3.0938  0.0633
  192MOL0     H25862  10.493   0.303   4.485 -1.4271  0.1141 -0.3080
  192MOL0     H25863  10.544   0.003   4.462 -2.0846  0.3152 -0.7099
  192MOL0     H25864  10.647   0.140   4.405  1.7004 -2.2916 -0.8004
  192MOL0     H25865  10.697   0.224   4.618  0.3383 -0.0235  0.7020
  192MOL0     H25866  10.637   0.074   4.690  1.3622 -1.7317  0.0474
  192MOL0     H25867  10.851   0.067   4.462 -0.3582  1.0438 -0.4933
  192MOL0     H25868  10.886   0.088   4.640 -0.1171 -1.6415  0.3537
  192MOL0     H25869  10.732  -0.152   4.529 -1.8804 -0.2116  1.1326
  192MOL0     H25870  10.771  -0.102   4.696 -1.6317  3.8016 -0.1196
  192MOL0     H25871  11.050  -0.099   4.758  0.7728 -2.2313  0.2906
  192MOL0     H25872  11.311  -0.152   4.734  2.2846 -0.5947  0.0989
  192MOL0     H25873  11.344  -0.292   4.641  0.1393 -0.4550 -1.1114
  192MOL0     H25874  11.376  -0.133   4.437 -2.5128 -0.6758  0.1399
  192MOL0     H25875  11.501  -0.137   4.571 -0.8202  0.4781  0.0091
  192MOL0     H25876  11.412   0.041   4.684  0.0010  0.1714  0.0366
  192MOL0     H25877  11.284   0.077   4.556  0.7216 -0.2957  1.6555
  192MOL0     H25878  11.484   0.088   4.399 -3.3603 -0.4235  0.4144
  192MOL0     H25879  11.584   0.102   4.542 -0.8636  0.0417  4.1777
  192MOL0     H25880  11.379   0.491   4.509  0.3224 -0.5522 -0.2573
  192MOL0     H25881  11.528   0.813   4.397 -1.4659  0.9535  1.6747
  192MOL0     H25882  11.376   0.719   4.375 -0.0322  3.1809  0.7536
  192MOL0     H25883  11.426   0.746   4.529 -1.8842  0.5832 -0.2414
  192MOL0     H25884  11.898   0.803   4.139 -0.8339  1.7963  0.3808
  192MOL0     H25885  12.081   0.951   4.037  1.7709 -2.3202 -1.3478
  192MOL0     H25886  12.258   1.052   3.991  0.5895 -1.9542  1.8349
  192MOL0     H25887  12.220   1.186   4.091 -1.9222 -1.3014 -3.3912
  192MOL0     H25888  12.403   1.256   3.981 -1.5592 -0.5658 -0.5869
  192MOL0     H25889  12.456   1.214   4.145 -1.1532  2.6503 -0.3662
  192MOL0     H25890  12.604   1.143   3.965  1.8011 -1.9740  0.8849
  192MOL0     H25891  12.476   1.029   3.901  3.0682 -1.8221 -0.7741
  192MOL0     H25892  12.584   0.995   4.186  2.1678 -0.6783  0.3039
  192MOL0     H25893  12.489   0.883   4.091  0.5910 -2.3180 -1.7446
  192MOL0     H25894  12.784   0.946   4.056 -0.8272  1.3952  1.0687
  192MOL0     H25895  12.685   0.845   3.948  0.8678 -1.6568  0.5327
  192MOL0     H25896  12.743   0.811   4.248  2.7436 -1.8361  1.1332
  192MOL0     H25897  12.626   0.713   4.159  1.6190 -0.9938 -1.0035
  192MOL0     H25898  12.874   0.618   4.220  1.7806  0.3985  0.3293
  192MOL0     H25899  12.931   0.721   4.093 -0.3773  1.5790  0.6029
  192MOL0     H25900  12.896   0.507   4.007 -0.6854 -1.0999 -0.2849
  192MOL0     H25901  12.768   0.594   3.927 -1.1999  0.8304 -0.2650
  192MOL0     H25902  12.307   0.889   4.393 -1.4679  0.1404 -0.3128
  192MOL0     H25903  12.141   0.717   4.479  0.1838  0.0766 -0.1193
  192MOL0     H25904  11.839   0.428   4.399  0.4250 -1.6790  3.7099
  192MOL0     H25905  11.710   0.249   4.432  0.3573  0.7120  0.5698
  192MOL0     H25906  10.007   0.417   4.684  0.6699  1.2354 -2.3865
  192MOL0     H25907   9.896   0.540   4.874  0.1495 -0.8477 -0.0966
  192MOL0     H25908   9.842   0.676   5.213 -0.5033 -0.2297  1.9136
  192MOL0     H25909   9.781   0.692   5.459  1.8576 -1.8372 -1.2009
  192MOL0     H25910   9.907   1.072   5.691  0.5602  0.9690  1.0555
  192MOL0     H25911   9.873   0.945   5.808 -1.7707  3.0850 -0.9989
  192MOL0     H25912  10.109   0.955   5.823 -1.0879 -1.5442  1.9894
  192MOL0     H25913  10.126   0.969   5.650  0.9980  1.0101  1.3330
  192MOL0     H25914  10.200   0.742   5.719 -0.1183 -0.5228  2.2774
  192MOL0     H25915  10.057   0.741   5.610 -0.7753  3.0455 -0.4534
  192MOL0     H25916   9.908   0.706   5.811  0.4224  0.0288  0.7501
  192MOL0     H25917  10.058   0.725   5.916 -0.6065  2.7655  0.0584
  192MOL0     H25918  10.003   0.333   5.756 -0.4402 -0.9532  2.0446
  192MOL0     H25919   9.977   1.073   5.483  2.8054 -0.8044  1.2926
  192MOL0     H25920  10.072   1.041   5.238  3.7853 -0.9797  1.4760
  193MOL0     O25921   1.507   0.812   3.862  0.3121 -0.1193  0.7732
  193MOL0     C25922   1.526   0.822   3.739 -0.3555 -0.1648 -0.3805
  193MOL0     O25923   1.600   0.734   3.666  0.1620 -0.4130 -0.4890
  193MOL0     C25924   1.686   0.658   3.732  0.8985 -0.4311  0.2191
  193MOL0     C25925   1.643   0.540   3.785 -0.4518  0.2053  0.3117
  193MOL0     C25926   1.742   0.459   3.851  0.7955  0.5042  0.0307
  193MOL0     C25927   1.882   0.500   3.857 -0.7131 -0.1398  1.3254
  193MOL0     O25928   1.969   0.412   3.920 -0.5633 -0.3072  0.3090
  193MOL0     C25929   2.114   0.438   3.902  0.7261  0.4175 -0.3343
  193MOL0     C25930   2.154   0.371   3.777 -0.2151 -0.6171 -0.1452
  193MOL0     C25931   2.150   0.221   3.807  0.1423 -0.0854 -0.0557
  193MOL0     C25932   2.207   0.142   3.691 -1.2945  0.2591 -0.3021
  193MOL0     C25933   2.218  -0.006   3.723  0.4238  0.7165  0.0153
  193MOL0     C25934   2.255  -0.095   3.599 -0.5187  1.0043  0.0344
  193MOL0     C25935   2.298  -0.233   3.639 -0.5981 -0.3215 -0.3368
  193MOL0     C25936   2.355  -0.315   3.510  0.6226  0.1850 -0.3060
  193MOL0     N25937   2.257  -0.372   3.425 -0.4250  0.4415 -0.1456
  193MOL0     C25938   2.156  -0.455   3.462 -0.2818  0.0451 -0.1287
  193MOL0     C25939   2.061  -0.439   3.368 -0.1464 -0.5406 -0.4374
  193MOL0     C25940   1.938  -0.526   3.368 -0.9475  0.3348  0.4013
  193MOL0     C25941   1.965  -0.665   3.307 -0.0007 -0.2461  0.3585
  193MOL0     C25942   1.982  -0.667   3.155 -0.0574 -0.0515 -0.2895
  193MOL0     C25943   2.022  -0.791   3.077  0.4167  0.1113  0.0148
  193MOL0     O25944   2.023  -0.755   2.942  0.9621 -0.3844  0.0382
  193MOL0     C25945   2.074  -0.843   2.847  0.0975 -0.9119 -0.9759
  193MOL0     C25946   2.139  -0.954   2.879  0.3674  0.7484  0.1063
  193MOL0     C25947   2.193  -1.045   2.775 -0.3614 -0.0718 -0.1351
  193MOL0     C25948   2.286  -1.151   2.820  1.2769  0.0614 -0.6415
  193MOL0     C25949   2.162  -1.023   2.632 -0.1658 -0.4288 -0.3395
  193MOL0     C25950   2.203  -1.115   2.532 -0.9314 -0.1330  0.9629
  193MOL0     O25951   2.316  -1.090   2.455  0.2197 -0.0041  0.1451
  193MOL0     C25952   2.355  -0.955   2.422  0.4733  0.6632 -0.6199
  193MOL0     C25953   2.474  -0.912   2.476 -0.1893  0.0167  0.4118
  193MOL0     C25954   2.522  -0.775   2.461  0.7615  0.4555  0.1766
  193MOL0     C25955   2.438  -0.690   2.381 -1.1241 -0.7323 -0.7051
  193MOL0     O25956   2.463  -0.554   2.367 -0.4088 -0.2817  0.4986
  193MOL0     C25957   2.497  -0.516   2.230 -0.1935 -0.2600 -0.0461
  193MOL0     C25958   2.544  -0.371   2.211 -0.6728 -0.3637  0.2622
  193MOL0     C25959   2.574  -0.339   2.062  0.0667 -0.2048  0.3337
  193MOL0     C25960   2.620  -0.198   2.034 -0.1816  0.4595  1.2166
  193MOL0     C25961   2.623  -0.155   1.885  0.3086  0.7408 -0.3194
  193MOL0     C25962   2.497  -0.134   1.807  0.2245  0.5822 -0.5130
  193MOL0     C25963   2.503  -0.076   1.673 -1.1142 -0.5285  0.9809
  193MOL0     C25964   2.486   0.074   1.668  0.3452 -0.6603  0.1678
  193MOL0    Cl25965   2.464   0.117   1.490 -0.4379  0.4550  0.3205
  193MOL0     C25966   2.321  -0.739   2.319 -0.1609  0.2183 -1.1193
  193MOL0     C25967   2.276  -0.867   2.343 -1.1239  0.4697 -0.1885
  193MOL0     O25968   2.146  -1.226   2.536 -0.1845 -0.4545 -0.2448
  193MOL0     C25969   2.074  -0.924   2.611  0.0533 -0.4219  0.0714
  193MOL0     C25970   2.037  -0.821   2.713 -0.3690 -1.3273 -0.6510
  193MOL0     N25971   2.093  -0.333   3.283 -0.9775  1.0010 -0.7876
  193MOL0     N25972   2.205  -0.292   3.324  0.0904 -0.5394 -0.3728
  193MOL0     C25973   1.912   0.628   3.802  0.1488  0.5912  0.4771
  193MOL0     C25974   1.816   0.697   3.739  0.0436 -0.6659  0.1462
  193MOL0     C25975   1.469   0.933   3.663 -0.0232 -0.3441  0.0289
  193MOL0     C25976   1.493   0.954   3.525 -0.4667 -0.4250 -0.2919
  193MOL0     C25977   1.446   1.066   3.456 -0.3473 -0.7593  0.4946
  193MOL0     C25978   1.371   1.162   3.526 -0.3830 -0.0625 -0.3573
  193MOL0     O25979   1.322   1.262   3.443  0.7404 -0.6981  0.7036
  193MOL0     C25980   1.271   1.371   3.513 -0.3256  0.3529 -0.1314
  193MOL0     C25981   1.123   1.361   3.566 -0.8128 -0.4210  0.3970
  193MOL0     C25982   1.066   1.489   3.632 -1.0505 -0.4120  0.1482
  193MOL0     C25983   1.073   1.608   3.534  0.0591  0.3618 -0.1256
  193MOL0     C25984   1.050   1.738   3.589 -0.5379 -0.2459 -0.0504
  193MOL0     C25985   1.057   1.846   3.651 -0.0350 -0.2252 -0.3868
  193MOL0     C25986   1.351   1.148   3.666  0.1001  0.3401  0.3676
  193MOL0     C25987   1.403   1.040   3.732 -0.2216 -0.6995 -0.4504
  193MOL0     H25988   1.539   0.511   3.784 -0.0510 -1.3172  0.4827
  193MOL0     H25989   1.732   0.361   3.897  2.7007  0.6318  0.8336
  193MOL0     H25990   2.141   0.544   3.908  0.6785  0.5830 -2.3810
  193MOL0     H25991   2.183   0.396   3.976  1.5748 -0.5019 -1.5997
  193MOL0     H25992   2.078   0.384   3.699 -0.2192 -2.1183 -0.4177
  193MOL0     H25993   2.254   0.407   3.750 -0.2195  0.1629  0.8571
  193MOL0     H25994   2.211   0.194   3.894  0.3820  0.2494 -0.1176
  193MOL0     H25995   2.044   0.197   3.822 -0.1183  1.8433  1.7200
  193MOL0     H25996   2.146   0.151   3.601 -0.1804  1.3622 -0.9744
  193MOL0     H25997   2.311   0.165   3.666 -1.8892  0.7999 -2.5187
  193MOL0     H25998   2.293  -0.021   3.801  1.8637  2.1607 -1.0243
  193MOL0     H25999   2.128  -0.039   3.775  0.3985  0.1208 -0.3932
  193MOL0     H26000   2.170  -0.094   3.530 -0.5411 -1.3713 -0.0439
  193MOL0     H26001   2.336  -0.040   3.551 -1.6813  4.6895  1.9379
  193MOL0     H26002   2.373  -0.216   3.717  1.9307 -2.0530 -2.2269
  193MOL0     H26003   2.214  -0.292   3.675  1.3519 -2.3524  1.1229
  193MOL0     H26004   2.408  -0.404   3.544 -2.9534 -3.3221 -2.9734
  193MOL0     H26005   2.417  -0.248   3.449 -0.4538  0.9809 -0.5572
  193MOL0     H26006   2.149  -0.515   3.553  2.6349  0.7827  0.7028
  193MOL0     H26007   1.881  -0.531   3.462 -1.2923  2.5498  0.3662
  193MOL0     H26008   1.878  -0.471   3.295 -0.7303 -0.8545 -0.6949
  193MOL0     H26009   1.876  -0.723   3.332 -1.3648  0.9306 -1.5280
  193MOL0     H26010   2.045  -0.705   3.371 -0.4249  0.6740  1.4782
  193MOL0     H26011   2.052  -0.586   3.131  4.0078 -3.1381  0.0156
  193MOL0     H26012   1.881  -0.645   3.120 -1.4898 -1.5013  2.5872
  193MOL0     H26013   1.952  -0.873   3.093 -1.4925  0.8366 -3.5850
  193MOL0     H26014   2.123  -0.811   3.114  0.8641 -0.3801 -1.4416
  193MOL0     H26015   2.151  -0.993   2.980 -0.0574 -3.9052 -1.3988
  193MOL0     H26016   2.303  -1.145   2.928 -0.4873  2.6586 -0.4181
  193MOL0     H26017   2.241  -1.250   2.804  2.5079  0.0471 -5.3258
  193MOL0     H26018   2.377  -1.151   2.760  1.5365 -0.5707 -0.2626
  193MOL0     H26019   2.541  -0.976   2.532 -1.7211 -0.2078  2.0623
  193MOL0     H26020   2.610  -0.746   2.516  0.7846  2.6518 -0.9315
  193MOL0     H26021   2.580  -0.584   2.207  0.9734  0.2846  2.2492
  193MOL0     H26022   2.425  -0.546   2.153 -2.2510 -0.0480  1.6978
  193MOL0     H26023   2.465  -0.309   2.254  0.7970  2.1697 -0.4549
  193MOL0     H26024   2.633  -0.365   2.274 -1.7555 -0.0518  1.8321
  193MOL0     H26025   2.484  -0.367   2.007 -0.4508  2.4684 -0.3178
  193MOL0     H26026   2.657  -0.403   2.031  0.6767  2.2716 -4.0732
  193MOL0     H26027   2.556  -0.121   2.078 -2.2483 -1.8614  2.5245
  193MOL0     H26028   2.719  -0.175   2.073  0.7258  1.9157 -1.6600
  193MOL0     H26029   2.679  -0.243   1.850  2.6754  1.7901  0.5977
  193MOL0     H26030   2.683  -0.065   1.870  0.3193  0.8460  0.3482
  193MOL0     H26031   2.447  -0.229   1.793 -0.8284  1.0470  0.0201
  193MOL0     H26032   2.432  -0.072   1.869  1.5779 -0.9431  2.6283
  193MOL0     H26033   2.422  -0.117   1.612 -1.4217  2.8412 -1.1305
  193MOL0     H26034   2.598  -0.108   1.629 -1.4343 -0.1362 -0.0300
  193MOL0     H26035   2.576   0.120   1.709 -0.0241 -0.8619  1.2594
  193MOL0     H26036   2.400   0.107   1.727 -0.6087  2.1377 -2.5470
  193MOL0     H26037   2.269  -0.675   2.248  1.7219 -0.2169 -2.9711
  193MOL0     H26038   2.186  -0.900   2.292 -1.2581 -2.7689  1.8578
  193MOL0     H26039   2.033  -0.917   2.511  3.3548  0.1045 -1.3497
  193MOL0     H26040   1.991  -0.726   2.686 -2.2768 -1.3470  2.0356
  193MOL0     H26041   2.013   0.667   3.799  0.2610  0.2369 -1.1378
  193MOL0     H26042   1.825   0.799   3.701 -2.4753 -0.2637  0.4165
  193MOL0     H26043   1.554   0.878   3.477 -0.9402  0.0885 -1.7789
  193MOL0     H26044   1.454   1.079   3.349  3.1970  3.0103  0.9601
  193MOL0     H26045   1.330   1.398   3.600  3.0469 -1.3236 -1.7231
  193MOL0     H26046   1.289   1.462   3.455  2.4459  0.2511  0.4283
  193MOL0     H26047   1.113   1.277   3.635 -1.3157 -0.8839 -0.2198
  193MOL0     H26048   1.061   1.336   3.479 -1.4425 -1.1100  1.0299
  193MOL0     H26049   1.129   1.499   3.721  0.6829 -3.4749 -0.5794
  193MOL0     H26050   0.959   1.479   3.647 -1.6212  2.8332 -0.9714
  193MOL0     H26051   1.011   1.582   3.448 -1.2037  1.6757  0.3605
  193MOL0     H26052   1.178   1.617   3.503 -0.0408  1.3957 -0.1942
  193MOL0     H26053   1.031   1.932   3.709 -0.4494 -0.1867 -0.6288
  193MOL0     H26054   1.303   1.215   3.736 -0.1802  0.5688 -0.0442
  193MOL0     H26055   1.386   1.031   3.839 -0.6498  0.4337 -0.4093
  194MOL0     O26056   3.137   0.602   6.721  0.3788  0.0232 -0.2116
  194MOL0     C26057   3.108   0.512   6.644  0.2303 -1.6607  0.4003
  194MOL0     O26058   3.190   0.482   6.534 -0.4693  0.7698 -0.3277
  194MOL0     C26059   3.299   0.560   6.502 -0.6542  0.3269  0.4467
  194MOL0     C26060   3.333   0.551   6.367 -0.0409 -0.8998  0.7328
  194MOL0     C26061   3.434   0.636   6.313 -0.4503  0.2690  0.0283
  194MOL0     C26062   3.511   0.720   6.396 -0.4780  0.4414 -0.1044
  194MOL0     O26063   3.605   0.803   6.335  0.8517  1.0778  0.4136
  194MOL0     C26064   3.654   0.916   6.404 -0.9940  0.0233  0.0131
  194MOL0     C26065   3.792   0.950   6.335  1.1071  0.1700 -0.3294
  194MOL0     C26066   3.756   1.050   6.224  0.1393  0.2793 -0.0909
  194MOL0     C26067   3.738   0.992   6.091  0.1173 -0.0376  1.6280
  194MOL0     C26068   3.678   1.093   5.989 -0.5130  1.0780  0.3422
  194MOL0     C26069   3.761   1.211   5.926 -0.5273  0.0932  0.8494
  194MOL0     C26070   3.687   1.279   5.811  0.6096 -1.2641  0.9837
  194MOL0     C26071   3.779   1.388   5.743 -0.2873  0.5766 -0.0178
  194MOL0     N26072   3.912   1.353   5.694  0.3445  0.1194  1.3418
  194MOL0     C26073   3.927   1.237   5.619 -0.2913 -0.9941  0.4609
  194MOL0     C26074   4.057   1.201   5.636 -0.3715 -1.3521  1.2635
  194MOL0     C26075   4.115   1.091   5.557 -0.0528 -0.3568 -0.9254
  194MOL0     C26076   4.050   1.053   5.436  0.4628  0.2516  1.3442
  194MOL0     C26077   4.134   0.946   5.351  0.0385 -0.4755 -0.3386
  194MOL0     C26078   4.172   0.818   5.424  0.5321  0.5135  0.4621
  194MOL0     O26079   4.222   0.712   5.331  0.5290  0.1294  0.3038
  194MOL0     C26080   4.226   0.587   5.377 -0.2750  0.2267  0.3664
  194MOL0     C26081   4.178   0.540   5.501 -0.0653 -0.1870  0.7498
  194MOL0     C26082   4.157   0.402   5.535 -1.0998  0.3891  0.7485
  194MOL0     C26083   4.102   0.379   5.674  0.4503 -0.2804 -0.3036
  194MOL0     C26084   4.200   0.297   5.447  0.5005  0.4110 -0.0410
  194MOL0     C26085   4.158   0.160   5.463  0.0119  0.3563  0.4685
  194MOL0     O26086   4.036   0.137   5.528  0.3671  0.4292  0.5114
  194MOL0     C26087   3.984   0.005   5.536  0.0911  0.4589  0.1355
  194MOL0     C26088   3.891  -0.002   5.642  0.2594  0.0922 -0.2896
  194MOL0     C26089   3.803  -0.117   5.650 -0.4450 -0.7836 -0.8489
  194MOL0     C26090   3.837  -0.233   5.580  0.4267 -0.4674  0.9284
  194MOL0     O26091   3.768  -0.350   5.594 -0.2557  0.9830 -0.6517
  194MOL0     C26092   3.809  -0.480   5.550 -0.2446  0.6473  1.1219
  194MOL0     C26093   3.929  -0.551   5.631  0.0045 -0.3092  0.7844
  194MOL0     C26094   4.046  -0.596   5.537 -0.6318 -0.8924 -0.0132
  194MOL0     C26095   4.136  -0.705   5.609 -0.1935 -0.8847 -0.8711
  194MOL0     C26096   4.219  -0.793   5.511  0.0155 -0.3971 -0.0299
  194MOL0     C26097   4.347  -0.843   5.578  0.5017 -0.3316 -0.1387
  194MOL0     C26098   4.382  -0.980   5.524 -0.8975 -0.3770  0.5386
  194MOL0     C26099   4.419  -0.992   5.371 -0.0681 -0.6373 -0.4237
  194MOL0    Cl26100   4.582  -0.924   5.361 -0.7994  0.6657  0.5236
  194MOL0     C26101   3.935  -0.227   5.479  0.0720 -0.4376 -0.6987
  194MOL0     C26102   4.001  -0.110   5.458 -0.9712  0.5684  0.0150
  194MOL0     O26103   4.245   0.071   5.431  0.8663 -0.1431  0.0833
  194MOL0     C26104   4.268   0.342   5.325  1.0554  0.3975 -0.1904
  194MOL0     C26105   4.276   0.483   5.293  0.2455  1.0031  1.1321
  194MOL0     N26106   4.119   1.299   5.716 -0.8031  0.5027 -1.0970
  194MOL0     N26107   4.028   1.384   5.756 -0.1632 -0.6429 -0.1543
  194MOL0     C26108   3.488   0.708   6.536 -0.6051 -0.5795  0.0875
  194MOL0     C26109   3.375   0.635   6.587 -0.5135  0.6892 -0.7725
  194MOL0     C26110   3.001   0.426   6.686  0.5877 -0.1677 -0.2433
  194MOL0     C26111   3.011   0.291   6.643  0.1941 -1.0133 -0.7180
  194MOL0     C26112   2.917   0.202   6.696  0.3647 -0.3937  0.9375
  194MOL0     C26113   2.811   0.243   6.785 -0.3013  0.4866 -0.0637
  194MOL0     O26114   2.715   0.162   6.835  0.5242 -0.7564  0.0985
  194MOL0     C26115   2.676   0.047   6.767  0.5006  0.6511 -0.3302
  194MOL0     C26116   2.569  -0.030   6.850 -0.9421  0.6288 -0.2841
  194MOL0     C26117   2.493  -0.135   6.771 -1.2108 -0.0812 -0.4500
  194MOL0     C26118   2.447  -0.250   6.860  0.7769  0.3656  0.5490
  194MOL0     C26119   2.364  -0.334   6.767  0.9478  0.6043 -0.5852
  194MOL0     C26120   2.293  -0.390   6.681 -0.7431  0.3070 -0.4395
  194MOL0     C26121   2.802   0.378   6.816  0.0319  0.2640  0.1790
  194MOL0     C26122   2.899   0.468   6.772  0.3784 -0.7704 -0.8945
  194MOL0     H26123   3.276   0.497   6.292 -1.2118 -0.6987  1.4511
  194MOL0     H26124   3.457   0.628   6.207 -4.9126 -1.2413 -1.0785
  194MOL0     H26125   3.587   1.003   6.401 -1.3125 -0.1134  1.9178
  194MOL0     H26126   3.671   0.891   6.509 -4.5928  3.0141  1.5374
  194MOL0     H26127   3.862   0.996   6.406  0.3943  0.5239  0.1634
  194MOL0     H26128   3.823   0.856   6.289 -2.0970  0.4679 -3.5789
  194MOL0     H26129   3.676   1.118   6.257 -0.1722 -0.0255 -0.2151
  194MOL0     H26130   3.836   1.125   6.220 -0.3769  0.8101 -0.5399
  194MOL0     H26131   3.832   0.959   6.047 -0.6653  0.7750 -0.8656
  194MOL0     H26132   3.672   0.905   6.097  0.3641 -0.7015 -2.3448
  194MOL0     H26133   3.650   1.029   5.904 -0.6400  0.3661  0.9085
  194MOL0     H26134   3.580   1.125   6.025 -1.2110  0.5357 -1.0013
  194MOL0     H26135   3.777   1.282   6.008 -0.9060 -0.0889  1.0815
  194MOL0     H26136   3.854   1.163   5.893 -0.5409  0.4987  0.1950
  194MOL0     H26137   3.655   1.208   5.734  2.1285 -0.2601 -0.6378
  194MOL0     H26138   3.596   1.329   5.846  0.5186  0.3072 -1.3010
  194MOL0     H26139   3.804   1.459   5.823  1.1196 -0.0572  0.1304
  194MOL0     H26140   3.737   1.447   5.660  3.9273  1.4437 -1.8035
  194MOL0     H26141   3.854   1.190   5.554  1.8362  1.4660 -4.2416
  194MOL0     H26142   4.221   1.108   5.533  1.3502 -1.6772  3.3836
  194MOL0     H26143   4.110   1.009   5.629  2.1268  0.5550  0.3942
  194MOL0     H26144   4.020   1.135   5.370 -0.7165  0.0358  1.5945
  194MOL0     H26145   3.959   1.008   5.476  1.0641 -2.6511 -0.2193
  194MOL0     H26146   4.231   0.991   5.324 -0.1133 -0.5926 -1.1125
  194MOL0     H26147   4.071   0.919   5.266  0.0484  1.3265 -0.9722
  194MOL0     H26148   4.091   0.781   5.487  1.1300  0.5738  1.2920
  194MOL0     H26149   4.246   0.849   5.499  2.1234  0.6834 -1.1036
  194MOL0     H26150   4.153   0.614   5.576 -0.8989  1.0000 -0.6523
  194MOL0     H26151   4.157   0.301   5.728 -0.7748 -0.2698  1.0314
  194MOL0     H26152   4.104   0.477   5.722  0.6375  0.2624 -1.4012
  194MOL0     H26153   3.996   0.354   5.672  0.6898 -1.8562  2.2021
  194MOL0     H26154   3.871   0.092   5.693 -0.1933  0.5533 -1.2931
  194MOL0     H26155   3.724  -0.123   5.725  1.2760 -2.0585  0.9803
  194MOL0     H26156   3.725  -0.549   5.560  2.0965 -2.8686 -1.1103
  194MOL0     H26157   3.833  -0.484   5.444 -1.5976 -4.0416  0.7604
  194MOL0     H26158   3.974  -0.497   5.715 -0.0975  0.3105  0.4461
  194MOL0     H26159   3.876  -0.635   5.677 -3.2156  0.6053 -0.9835
  194MOL0     H26160   4.114  -0.515   5.509  2.7581 -3.3136  0.5623
  194MOL0     H26161   4.005  -0.640   5.446 -1.5974 -2.8472  1.2992
  194MOL0     H26162   4.206  -0.638   5.661 -1.4335  2.8783 -3.5939
  194MOL0     H26163   4.086  -0.771   5.680  1.3635  0.0819  1.2095
  194MOL0     H26164   4.237  -0.733   5.422  1.3165  1.7620  1.5861
  194MOL0     H26165   4.165  -0.882   5.479  2.8290 -1.5131 -2.1054
  194MOL0     H26166   4.420  -0.768   5.546 -1.6911  1.9882 -0.0729
  194MOL0     H26167   4.330  -0.838   5.686 -1.5696  2.9564 -0.4745
  194MOL0     H26168   4.301  -1.047   5.555 -1.0446  0.0956  1.1954
  194MOL0     H26169   4.476  -0.999   5.575  1.2328  0.9802 -2.5849
  194MOL0     H26170   4.362  -0.922   5.309  0.2516  0.0420  0.0353
  194MOL0     H26171   4.408  -1.094   5.334 -1.2562 -1.2884  1.5847
  194MOL0     H26172   3.967  -0.312   5.420 -1.6925 -1.3855 -0.3756
  194MOL0     H26173   4.073  -0.117   5.377  1.4049 -1.5060  2.0797
  194MOL0     H26174   4.312   0.265   5.264  2.4947 -0.4248  1.7757
  194MOL0     H26175   4.327   0.501   5.199  0.6409 -1.0176  0.9277
  194MOL0     H26176   3.540   0.765   6.613 -2.1814  4.2538 -2.0279
  194MOL0     H26177   3.360   0.618   6.693 -1.8639  1.9634 -0.7270
  194MOL0     H26178   3.081   0.252   6.570  0.9815 -0.9568 -0.0192
  194MOL0     H26179   2.935   0.096   6.680  0.8687  0.0605 -2.3372
  194MOL0     H26180   2.647   0.074   6.665  1.1067 -3.5277 -1.8094
  194MOL0     H26181   2.755  -0.030   6.765 -0.5802 -0.5701  1.6891
  194MOL0     H26182   2.488   0.038   6.878  2.0225  5.1082 -1.4782
  194MOL0     H26183   2.621  -0.082   6.931  0.6766 -0.2283 -1.8099
  194MOL0     H26184   2.552  -0.171   6.686  1.4540  1.8115  0.4672
  194MOL0     H26185   2.406  -0.083   6.731  0.1810 -0.0852 -3.7944
  194MOL0     H26186   2.396  -0.224   6.953  2.1686  2.2023  0.8671
  194MOL0     H26187   2.537  -0.309   6.880  0.4249 -0.9159 -1.3486
  194MOL0     H26188   2.245  -0.440   6.599  3.4456 -0.5886 -2.6399
  194MOL0     H26189   2.720   0.410   6.879  0.1178  2.2383 -0.6600
  194MOL0     H26190   2.906   0.573   6.798  2.8884 -1.3548  1.1970
  195MOL0     O26191   4.617   5.915   2.085 -0.3823 -0.1750 -0.1703
  195MOL0     C26192   4.536   5.880   2.160 -0.1152 -0.3681 -0.6294
  195MOL0     O26193   4.449   5.976   2.213 -0.6076  1.0517 -0.7059
  195MOL0     C26194   4.423   6.098   2.168 -0.5899  0.6673  0.1849
  195MOL0     C26195   4.468   6.219   2.227  0.7062 -0.5256 -0.0183
  195MOL0     C26196   4.431   6.337   2.160 -0.3554  0.1844 -0.5072
  195MOL0     C26197   4.367   6.334   2.041  0.7750  0.2368 -0.4618
  195MOL0     O26198   4.318   6.436   1.970 -0.7882 -0.1345 -0.3043
  195MOL0     C26199   4.296   6.572   2.033  0.9426  0.4945 -0.0778
  195MOL0     C26200   4.229   6.656   1.922 -0.4452  0.8844  0.8518
  195MOL0     C26201   4.169   6.780   1.984 -0.3313  0.3863 -0.8039
  195MOL0     C26202   4.056   6.840   1.895  0.3525  0.2256  0.3023
  195MOL0     C26203   4.048   6.989   1.900 -0.9240 -0.6048 -0.2585
  195MOL0     C26204   4.020   7.061   2.027  0.0291 -0.1275 -0.5286
  195MOL0     C26205   3.901   7.001   2.106 -0.5863 -0.0154 -0.3114
  195MOL0     C26206   3.872   7.070   2.249  0.2275  0.3455  0.4911
  195MOL0     N26207   3.756   7.019   2.319 -0.4607  0.2437 -0.0807
  195MOL0     C26208   3.650   7.096   2.364 -0.6042 -0.2358  0.4126
  195MOL0     C26209   3.554   7.012   2.396 -0.1304 -0.7046 -0.1674
  195MOL0     C26210   3.420   7.048   2.465  0.5116 -1.5626 -0.0366
  195MOL0     C26211   3.389   7.203   2.488 -0.3208  0.0856 -0.2706
  195MOL0     C26212   3.487   7.288   2.581 -0.5859  0.2414  0.1885
  195MOL0     C26213   3.473   7.255   2.726  0.6114 -0.1721 -0.1578
  195MOL0     O26214   3.344   7.303   2.776 -0.1749  0.2089  0.4638
  195MOL0     C26215   3.294   7.255   2.899  0.2064  0.2743  0.3347
  195MOL0     C26216   3.165   7.273   2.934 -1.2642 -0.2977 -0.0661
  195MOL0     C26217   3.107   7.221   3.057  0.5999 -1.2399  0.6161
  195MOL0     C26218   2.960   7.257   3.076 -0.1319 -1.0516 -0.0653
  195MOL0     C26219   3.192   7.148   3.139 -0.0556  0.2781 -0.4781
  195MOL0     C26220   3.144   7.076   3.263 -0.8728 -0.4524 -0.5101
  195MOL0     O26221   3.244   7.057   3.358 -0.4779  0.7416 -0.5084
  195MOL0     C26222   3.201   7.014   3.490 -0.4260  0.7091  0.8023
  195MOL0     C26223   3.278   7.063   3.589 -0.2823  0.5114  0.3678
  195MOL0     C26224   3.249   7.028   3.716  0.0905 -0.1500  0.3061
  195MOL0     C26225   3.136   6.948   3.757 -0.2801  0.0321 -0.2729
  195MOL0     O26226   3.109   6.904   3.891  0.2071  0.2264 -0.0906
  195MOL0     C26227   3.154   6.983   4.000  0.5762 -0.4106  0.9084
  195MOL0     C26228   3.150   6.902   4.125  0.0740 -0.9208  0.7284
  195MOL0     C26229   3.205   6.755   4.113  0.1499 -0.5119 -0.8278
  195MOL0     C26230   3.359   6.761   4.102 -0.4027 -0.5068  1.4648
  195MOL0     C26231   3.422   6.630   4.056 -0.6146 -0.6689  0.1253
  195MOL0     C26232   3.429   6.514   4.153  0.1788 -0.3859  0.0236
  195MOL0     C26233   3.482   6.387   4.091 -0.1194  0.4433 -0.1260
  195MOL0     C26234   3.395   6.261   4.143 -0.3596  0.4186 -0.3596
  195MOL0    Cl26235   3.266   6.231   4.033 -0.1898  0.0275  0.2411
  195MOL0     C26236   3.069   6.889   3.654  0.6600 -0.7941  0.6543
  195MOL0     C26237   3.089   6.916   3.517  0.4329  0.1893 -0.7690
  195MOL0     O26238   3.026   7.053   3.276 -1.0169  0.5811  0.3839
  195MOL0     C26239   3.328   7.131   3.099  1.0813  0.3688  0.5183
  195MOL0     C26240   3.378   7.186   2.988  0.3568 -0.5994 -0.3290
  195MOL0     N26241   3.592   6.880   2.366 -1.3320 -0.0211 -0.3686
  195MOL0     N26242   3.711   6.889   2.317 -0.0505  0.3727  0.1146
  195MOL0     C26243   4.334   6.218   1.978 -0.4374  0.0227  0.0618
  195MOL0     C26244   4.360   6.094   2.037  1.3184  0.8831  0.0431
  195MOL0     C26245   4.525   5.746   2.228  0.0759 -0.0837  0.1360
  195MOL0     C26246   4.634   5.670   2.248  0.3215  0.2268 -0.2930
  195MOL0     C26247   4.624   5.542   2.304  0.3296 -0.1124 -0.4466
  195MOL0     C26248   4.497   5.486   2.328  0.6726 -0.0934  0.4431
  195MOL0     O26249   4.490   5.360   2.381  0.3021 -0.9600  0.5468
  195MOL0     C26250   4.371   5.289   2.415 -0.0138 -0.1020  1.0114
  195MOL0     C26251   4.319   5.340   2.544  0.8750 -0.0948 -0.0947
  195MOL0     C26252   4.313   5.216   2.637 -0.3413  0.1900  0.0729
  195MOL0     C26253   4.244   5.214   2.765 -0.5634  0.0880  0.3150
  195MOL0     C26254   4.141   5.108   2.778  0.0570 -0.6690 -0.5006
  195MOL0     C26255   4.058   5.018   2.775  0.1586 -0.1259 -0.6004
  195MOL0     C26256   4.391   5.574   2.320 -0.7724  0.3515 -0.4757
  195MOL0     C26257   4.404   5.704   2.280 -0.7267  0.1873  0.7431
  195MOL0     H26258   4.528   6.227   2.317 -0.8418 -1.5478  1.1476
  195MOL0     H26259   4.455   6.431   2.208 -0.5782  0.4603 -0.9193
  195MOL0     H26260   4.219   6.558   2.109  0.7793 -0.7425 -0.4537
  195MOL0     H26261   4.376   6.630   2.080  1.1555 -0.3923  0.6917
  195MOL0     H26262   4.289   6.678   1.832 -2.2764 -3.1250 -1.6615
  195MOL0     H26263   4.134   6.614   1.887 -0.5169 -0.4998  2.5455
  195MOL0     H26264   4.121   6.747   2.077 -1.0665 -0.9959 -1.6377
  195MOL0     H26265   4.252   6.849   2.002  0.0365  0.2018 -1.7240
  195MOL0     H26266   4.086   6.805   1.796 -0.2106  0.7960 -0.0792
  195MOL0     H26267   3.958   6.793   1.912  0.1169  1.3557  2.4023
  195MOL0     H26268   4.140   7.027   1.855 -0.9055 -1.3048 -0.8306
  195MOL0     H26269   3.971   7.004   1.823 -0.7348 -1.4005 -0.6161
  195MOL0     H26270   4.115   7.053   2.081 -0.4784 -1.4437  0.2194
  195MOL0     H26271   3.996   7.166   2.007 -2.6871 -0.3949  0.8220
  195MOL0     H26272   3.813   7.007   2.041 -2.0428  3.5126  1.6620
  195MOL0     H26273   3.928   6.899   2.133  1.8124  0.6913  0.1962
  195MOL0     H26274   3.849   7.169   2.207  0.8810  0.1414 -0.3692
  195MOL0     H26275   3.959   7.062   2.314 -1.9286 -3.9063  3.3164
  195MOL0     H26276   3.656   7.204   2.378  4.0697 -0.4664  2.2928
  195MOL0     H26277   3.341   7.016   2.397 -0.4642  1.3712 -0.4247
  195MOL0     H26278   3.412   6.988   2.556  0.4163 -2.3289 -0.5390
  195MOL0     H26279   3.286   7.224   2.518 -0.5757  0.7548 -1.5526
  195MOL0     H26280   3.387   7.245   2.387 -4.0389  0.2737 -0.2644
  195MOL0     H26281   3.461   7.394   2.568  0.5831  0.6788  1.1724
  195MOL0     H26282   3.590   7.271   2.552  0.4372  1.5514  2.7042
  195MOL0     H26283   3.551   7.308   2.781  0.2718  0.6723 -0.4676
  195MOL0     H26284   3.499   7.149   2.732  1.2889 -0.2716 -3.0883
  195MOL0     H26285   3.113   7.342   2.868  2.1636  0.5069 -2.1522
  195MOL0     H26286   2.913   7.162   3.048  2.2410 -2.2112 -0.3128
  195MOL0     H26287   2.946   7.288   3.180  2.0165 -1.1451  0.2957
  195MOL0     H26288   2.932   7.334   3.003  0.1798  0.5800  1.4606
  195MOL0     H26289   3.363   7.130   3.579 -1.1938  2.0512  2.0827
  195MOL0     H26290   3.324   7.066   3.784 -0.0813  1.5310 -0.3809
  195MOL0     H26291   3.254   7.017   3.973 -1.2090  4.8737 -0.1381
  195MOL0     H26292   3.093   7.073   4.008  1.8542  0.4864  0.9097
  195MOL0     H26293   3.210   6.941   4.208  2.6941 -0.9395 -1.0320
  195MOL0     H26294   3.043   6.899   4.149 -0.9667  0.8902 -2.9840
  195MOL0     H26295   3.160   6.701   4.029 -1.2889 -2.5200  1.1299
  195MOL0     H26296   3.179   6.700   4.203  2.4397 -2.2993 -1.1526
  195MOL0     H26297   3.382   6.832   4.022  2.8964 -2.3506  0.5817
  195MOL0     H26298   3.408   6.781   4.197  2.0269  1.8128 -0.1449
  195MOL0     H26299   3.512   6.650   3.998 -2.9755  3.4285 -2.6658
  195MOL0     H26300   3.355   6.594   3.977  2.9115 -1.1382 -2.8802
  195MOL0     H26301   3.488   6.536   4.243 -1.1038  0.9655  0.5775
  195MOL0     H26302   3.329   6.489   4.189 -0.3638 -0.5726 -1.5353
  195MOL0     H26303   3.587   6.380   4.122 -0.0874  2.6990  0.4717
  195MOL0     H26304   3.489   6.373   3.983 -0.4115 -2.4774  0.1421
  195MOL0     H26305   3.365   6.280   4.247 -0.2162  1.5076 -0.4989
  195MOL0     H26306   3.456   6.171   4.148 -2.0736 -0.8601 -1.4898
  195MOL0     H26307   2.993   6.816   3.683 -0.0093 -1.8514 -3.1382
  195MOL0     H26308   3.014   6.885   3.446  1.3796  0.8898 -2.1301
  195MOL0     H26309   3.390   7.062   3.156  0.5275 -0.6729 -0.1102
  195MOL0     H26310   3.477   7.167   2.947  0.7245 -2.0629  1.1298
  195MOL0     H26311   4.277   6.227   1.886 -1.2214  1.1806  0.6281
  195MOL0     H26312   4.325   6.005   1.985  3.1925 -0.0722  0.3079
  195MOL0     H26313   4.732   5.710   2.221  1.3455 -1.5037  0.6669
  195MOL0     H26314   4.708   5.485   2.342  2.3915  0.8719 -3.2164
  195MOL0     H26315   4.293   5.318   2.344  0.8127 -1.0324 -0.3138
  195MOL0     H26316   4.385   5.181   2.408 -2.4061 -0.3750 -1.0110
  195MOL0     H26317   4.218   5.377   2.525  0.7246  0.2495  1.2962
  195MOL0     H26318   4.373   5.421   2.593 -1.4670  2.6505 -1.6860
  195MOL0     H26319   4.419   5.191   2.647 -0.1115  0.2757 -1.7893
  195MOL0     H26320   4.277   5.126   2.586 -0.4908 -1.1927  2.4475
  195MOL0     H26321   4.192   5.307   2.786 -0.6460  0.5611 -1.7390
  195MOL0     H26322   4.326   5.190   2.833  1.9109 -1.9031 -3.0466
  195MOL0     H26323   3.987   4.937   2.777  1.3369 -1.3050  3.6041
  195MOL0     H26324   4.289   5.553   2.351 -0.3457 -0.1816  0.6145
  195MOL0     H26325   4.317   5.768   2.287 -0.1853  1.0821 -0.3915
  196MOL0     O26326   6.589   7.357   7.522 -0.3394 -0.2950 -0.5110
  196MOL0     C26327   6.690   7.324   7.461 -0.9064 -0.4500 -0.5013
  196MOL0     O26328   6.743   7.401   7.354 -0.1252  0.0723  0.4673
  196MOL0     C26329   6.707   7.528   7.324 -0.2388  0.4378  0.6044
  196MOL0     C26330   6.606   7.608   7.380  0.5715  0.6913  0.5835
  196MOL0     C26331   6.586   7.734   7.337 -0.2247 -0.2081  1.0816
  196MOL0     C26332   6.649   7.799   7.224  0.0172  0.3032 -0.9139
  196MOL0     O26333   6.609   7.928   7.182 -0.2465 -0.1471  0.6630
  196MOL0     C26334   6.696   7.993   7.091 -0.4094  0.2834 -0.2739
  196MOL0     C26335   6.683   8.149   7.121 -0.1036 -0.2686 -0.4761
  196MOL0     C26336   6.787   8.228   7.047 -1.1423 -0.2197 -0.1470
  196MOL0     C26337   6.743   8.245   6.900 -0.3520 -0.4461 -0.4012
  196MOL0     C26338   6.830   8.354   6.834  0.2830 -0.3602 -0.1679
  196MOL0     C26339   6.982   8.307   6.839  0.1609 -0.0520 -0.1048
  196MOL0     C26340   7.060   8.438   6.808  0.2617  0.2445 -0.5550
  196MOL0     C26341   7.215   8.423   6.786  0.0892 -1.2752 -0.2142
  196MOL0     N26342   7.257   8.366   6.666  0.1339  0.0545  0.2611
  196MOL0     C26343   7.262   8.430   6.547 -0.3703 -0.6832 -0.4656
  196MOL0     C26344   7.322   8.338   6.461  1.0626  0.6867 -1.5526
  196MOL0     C26345   7.339   8.353   6.314 -0.6216 -0.6857  0.2632
  196MOL0     C26346   7.319   8.218   6.237  1.1524 -0.6537  0.4378
  196MOL0     C26347   7.251   8.259   6.103 -0.4486  0.0541 -0.1093
  196MOL0     C26348   7.245   8.144   6.007  0.9172  0.4706 -0.5801
  196MOL0     O26349   7.170   8.036   6.065 -0.3849 -0.8777 -0.2222
  196MOL0     C26350   7.034   8.033   6.073 -0.5532 -0.9503 -0.3099
  196MOL0     C26351   6.983   7.917   6.138 -0.2196 -0.3285 -0.0845
  196MOL0     C26352   6.846   7.891   6.167 -0.5429  0.0158  0.2004
  196MOL0     C26353   6.817   7.764   6.242  0.2140 -0.2714  0.1243
  196MOL0     C26354   6.756   7.996   6.126 -0.2546  0.2416  0.4068
  196MOL0     C26355   6.612   7.989   6.158  0.1827  0.9165 -0.3472
  196MOL0     O26356   6.538   8.093   6.117  0.3780  0.9815  0.5470
  196MOL0     C26357   6.398   8.100   6.137  0.1890  0.4343 -0.4304
  196MOL0     C26358   6.323   8.146   6.026  0.4527  0.0778 -0.2587
  196MOL0     C26359   6.190   8.160   6.033  0.6848 -0.5333  0.3792
  196MOL0     C26360   6.113   8.128   6.155 -0.1424 -0.4669  0.2408
  196MOL0     O26361   5.977   8.145   6.155  0.0092 -0.2223 -0.0504
  196MOL0     C26362   5.891   8.051   6.229 -0.2638 -0.9738  0.6614
  196MOL0     C26363   5.740   8.082   6.196  0.0603 -0.4366 -1.6461
  196MOL0     C26364   5.712   8.097   6.049 -0.2799 -0.8099 -0.7732
  196MOL0     C26365   5.570   8.091   6.019  0.7670 -0.0027  0.2860
  196MOL0     C26366   5.540   8.026   5.882 -0.2032  0.4408 -0.4062
  196MOL0     C26367   5.391   8.024   5.841  0.1416 -0.6742  0.2149
  196MOL0     C26368   5.311   8.132   5.909  0.0671  0.8043 -0.5240
  196MOL0     C26369   5.168   8.110   5.871  0.6401 -0.7243  0.0300
  196MOL0    Cl26370   5.060   8.239   5.946  0.9254 -0.5955 -0.2666
  196MOL0     C26371   6.191   8.076   6.265  0.2588 -1.1842  0.0701
  196MOL0     C26372   6.329   8.066   6.251  0.1849 -0.4792 -0.4563
  196MOL0     O26373   6.561   7.885   6.193 -1.0889  0.6870  0.4882
  196MOL0     C26374   6.808   8.112   6.058 -0.1627 -0.2119 -0.0781
  196MOL0     C26375   6.942   8.133   6.043 -0.2884 -0.0634 -0.2766
  196MOL0     N26376   7.332   8.219   6.535 -0.5246  0.1326  0.2241
  196MOL0     N26377   7.298   8.237   6.654 -0.2682  0.1313  0.5269
  196MOL0     C26378   6.740   7.715   7.162 -0.4458 -0.8267 -0.4662
  196MOL0     C26379   6.773   7.588   7.215  0.5720 -0.0029 -0.1951
  196MOL0     C26380   6.756   7.196   7.500 -0.0706 -0.4578  0.5845
  196MOL0     C26381   6.712   7.128   7.615 -0.5191  0.0498 -0.6800
  196MOL0     C26382   6.794   7.019   7.662  0.8550 -0.6249 -0.2349
  196MOL0     C26383   6.915   6.986   7.597  0.4467  0.5280 -0.3511
  196MOL0     O26384   6.970   6.872   7.640  0.4232  0.4807 -0.2200
  196MOL0     C26385   7.081   6.819   7.572 -0.4709 -0.1796 -0.7114
  196MOL0     C26386   7.127   6.695   7.646 -0.8771  0.2888  0.0504
  196MOL0     C26387   7.224   6.731   7.755 -0.1371 -0.2206 -0.3689
  196MOL0     C26388   7.142   6.776   7.874  0.7309 -0.1826  0.0153
  196MOL0     C26389   7.222   6.810   7.997  0.0908 -0.1339 -0.0743
  196MOL0     C26390   7.282   6.857   8.092 -0.1496  0.4633 -0.3948
  196MOL0     C26391   6.957   7.058   7.490 -1.0843  0.3386  0.1941
  196MOL0     C26392   6.876   7.159   7.431  0.2154 -0.0827  0.0990
  196MOL0     H26393   6.552   7.580   7.470 -0.0547  6.2088  2.3308
  196MOL0     H26394   6.510   7.797   7.384  0.2552 -0.2465  1.9348
  196MOL0     H26395   6.801   7.964   7.102  0.5277  2.9801 -1.2480
  196MOL0     H26396   6.665   7.970   6.989  0.1823  2.1934 -0.9298
  196MOL0     H26397   6.583   8.173   7.086  0.0430  0.9810 -0.0967
  196MOL0     H26398   6.687   8.171   7.228  3.6422  1.4712 -0.8170
  196MOL0     H26399   6.803   8.325   7.095 -2.5141  0.1099 -0.3162
  196MOL0     H26400   6.879   8.170   7.056  0.1174  1.7854  0.5777
  196MOL0     H26401   6.756   8.151   6.846 -1.4577  0.7172 -2.8872
  196MOL0     H26402   6.640   8.278   6.887 -0.4347  0.0922  1.3419
  196MOL0     H26403   6.797   8.367   6.730 -2.9583 -2.7649  0.4058
  196MOL0     H26404   6.810   8.449   6.883  1.3316 -0.3625  0.3063
  196MOL0     H26405   7.025   8.273   6.934 -0.0455  2.9022  1.1360
  196MOL0     H26406   6.997   8.241   6.753 -0.3020  1.1007 -1.0889
  196MOL0     H26407   7.021   8.482   6.716  0.1517  2.5734  0.5396
  196MOL0     H26408   7.053   8.504   6.895  0.9237  2.8705 -2.3835
  196MOL0     H26409   7.257   8.373   6.874  4.5151  1.0325 -0.7207
  196MOL0     H26410   7.252   8.524   6.806 -3.1821 -0.3839  2.2571
  196MOL0     H26411   7.246   8.536   6.525  1.5134 -0.9709 -4.0437
  196MOL0     H26412   7.280   8.432   6.267  0.7675 -0.2885 -0.9031
  196MOL0     H26413   7.438   8.396   6.300 -2.7700  4.1870 -2.3809
  196MOL0     H26414   7.255   8.146   6.288  2.0169 -2.4256 -0.8719
  196MOL0     H26415   7.419   8.182   6.213  1.3809  0.1453  0.1544
  196MOL0     H26416   7.300   8.344   6.054 -0.6294  1.9150  2.7387
  196MOL0     H26417   7.151   8.289   6.134  0.1802  0.3171  1.8269
  196MOL0     H26418   7.348   8.115   5.986  1.4186  0.7864  1.2337
  196MOL0     H26419   7.201   8.181   5.914 -0.9122 -2.7986 -1.1536
  196MOL0     H26420   7.058   7.841   6.155 -1.7452 -2.2454 -1.5502
  196MOL0     H26421   6.714   7.727   6.243  0.3086 -0.5459  0.9486
  196MOL0     H26422   6.876   7.681   6.200 -1.1329 -1.0233 -0.3245
  196MOL0     H26423   6.852   7.775   6.346 -1.7163 -5.2642  1.6330
  196MOL0     H26424   6.388   8.175   5.944 -0.6026 -0.0941 -1.1753
  196MOL0     H26425   6.136   8.188   5.943  0.8151  1.0600  0.7722
  196MOL0     H26426   5.904   7.949   6.191 -0.8989 -0.1170 -2.1168
  196MOL0     H26427   5.918   8.064   6.334  2.9790  1.6847 -0.3229
  196MOL0     H26428   5.691   7.995   6.241 -0.9671  1.8305  2.1376
  196MOL0     H26429   5.701   8.173   6.244 -1.8573 -2.0524  0.0355
  196MOL0     H26430   5.777   8.035   5.988  3.6792  1.7701  0.4473
  196MOL0     H26431   5.743   8.198   6.020 -2.6559 -0.1026 -1.1078
  196MOL0     H26432   5.523   8.042   6.104 -1.4316  1.0150 -0.2511
  196MOL0     H26433   5.530   8.192   6.026 -0.8380 -0.7128  2.5704
  196MOL0     H26434   5.569   7.921   5.894 -1.1330  0.3643  1.6336
  196MOL0     H26435   5.603   8.078   5.810 -1.4027  3.6438  0.6700
  196MOL0     H26436   5.387   8.048   5.734  0.3916 -1.0823  0.1117
  196MOL0     H26437   5.342   7.927   5.855 -0.4364 -0.4792 -0.4028
  196MOL0     H26438   5.345   8.228   5.869  0.3651  0.3897 -1.2939
  196MOL0     H26439   5.322   8.128   6.018  1.3576 -1.6656 -0.6697
  196MOL0     H26440   5.136   8.015   5.915 -1.4582 -2.0801 -3.8867
  196MOL0     H26441   5.164   8.101   5.762  0.7714 -1.7933  0.1030
  196MOL0     H26442   6.137   8.053   6.356 -2.1714 -0.7935 -1.1847
  196MOL0     H26443   6.390   8.029   6.333  0.5248  2.5241  0.8017
  196MOL0     H26444   6.731   8.187   6.040  0.8816  1.4101  1.7359
  196MOL0     H26445   6.992   8.215   5.993  1.6212  0.1914  1.8916
  196MOL0     H26446   6.787   7.752   7.072  0.0956 -0.1108  0.0973
  196MOL0     H26447   6.855   7.537   7.164 -1.6871 -0.3420 -3.8710
  196MOL0     H26448   6.626   7.158   7.675  2.5277  2.1237  3.0812
  196MOL0     H26449   6.757   6.969   7.751 -1.2723 -1.5311 -1.5359
  196MOL0     H26450   7.039   6.788   7.476 -2.0143  2.8060 -1.1264
  196MOL0     H26451   7.161   6.893   7.565 -2.9655  2.9764  1.3489
  196MOL0     H26452   7.154   6.618   7.573 -1.5631  1.1725 -1.1997
  196MOL0     H26453   7.039   6.641   7.682  0.0475 -2.7798 -1.9405
  196MOL0     H26454   7.306   6.799   7.729  1.8513 -1.1309  2.8800
  196MOL0     H26455   7.281   6.639   7.774  2.1190  1.8765  4.7990
  196MOL0     H26456   7.069   6.698   7.896  1.5051 -1.0889 -0.5550
  196MOL0     H26457   7.082   6.864   7.851  0.7998  0.3905  1.8426
  196MOL0     H26458   7.343   6.906   8.165  1.5367 -0.0629 -1.3939
  196MOL0     H26459   7.050   7.034   7.441 -1.1061  3.1080 -1.3487
  196MOL0     H26460   6.915   7.210   7.344  3.6625 -0.9810  0.9452
  197MOL0     O26461  10.675   2.734   1.801 -0.5543  0.2192 -0.2177
  197MOL0     C26462  10.577   2.802   1.831  0.0534 -0.0258 -0.1626
  197MOL0     O26463  10.559   2.934   1.796  0.0231  0.2919 -1.0667
  197MOL0     C26464  10.647   2.997   1.707  0.1092 -0.8259 -0.3593
  197MOL0     C26465  10.690   2.955   1.579  0.0473  0.5737 -0.1969
  197MOL0     C26466  10.766   3.033   1.497 -0.3368 -0.3554  0.0947
  197MOL0     C26467  10.805   3.161   1.526 -0.3535  0.1381 -0.0575
  197MOL0     O26468  10.890   3.244   1.462 -0.2843 -0.4742 -0.5442
  197MOL0     C26469  10.954   3.183   1.344 -0.8475  0.3351 -0.2176
  197MOL0     C26470  11.054   3.289   1.278  0.4756  0.3729 -1.4175
  197MOL0     C26471  11.122   3.249   1.146  0.8649  0.0179 -0.4968
  197MOL0     C26472  11.026   3.269   1.032  1.0575  0.6993  0.2270
  197MOL0     C26473  11.083   3.241   0.888  0.1780  0.5122 -0.6636
  197MOL0     C26474  10.967   3.289   0.777  0.0294  0.1273  0.6185
  197MOL0     C26475  11.009   3.261   0.637  0.4025 -0.2771  0.3258
  197MOL0     C26476  10.913   3.323   0.536  1.2390 -0.0750 -0.2754
  197MOL0     N26477  10.956   3.312   0.397 -1.0880 -0.3464  0.2722
  197MOL0     C26478  11.076   3.369   0.358 -0.2819  0.8209  0.7803
  197MOL0     C26479  11.089   3.354   0.220 -0.8170 -0.1170 -0.6688
  197MOL0     C26480  11.199   3.365   0.130 -0.5291  0.6970  0.3832
  197MOL0     C26481  11.335   3.387   0.190 -0.0587 -0.4233 -0.0737
  197MOL0     C26482  11.443   3.402   0.077 -0.4151  0.0847 -0.2911
  197MOL0     C26483  11.581   3.440   0.138  0.7304 -1.4280  0.4248
  197MOL0     O26484  11.616   3.351   0.242 -0.2746 -0.5487  0.0496
  197MOL0     C26485  11.629   3.223   0.213  1.1908  1.2383  0.1156
  197MOL0     C26486  11.592   3.116   0.303  1.1274 -0.0460 -0.4891
  197MOL0     C26487  11.602   2.977   0.266 -0.3982  0.4445 -0.4171
  197MOL0     C26488  11.583   2.872   0.383 -0.2446 -0.1269  0.4137
  197MOL0     C26489  11.640   2.942   0.137 -0.3087  0.6970  0.0002
  197MOL0     C26490  11.640   2.804   0.090 -0.2971 -0.4521 -0.2227
  197MOL0     O26491  11.581   2.708   0.174  0.0768 -0.0007 -0.2025
  197MOL0     C26492  11.569   2.587   0.126 -0.2101  0.6947  0.4218
  197MOL0     C26493  11.616   2.481   0.190 -0.3075  0.4864  0.7572
  197MOL0     C26494  11.563   2.354   0.178  0.2085 -0.8522 -0.8609
  197MOL0     C26495  11.458   2.333   0.085 -0.7502 -0.0414  0.5052
  197MOL0     O26496  11.415   2.209   0.030 -0.1526 -0.3871 -0.2519
  197MOL0     C26497  11.448   2.095   0.099 -0.0729 -0.5467 -0.1219
  197MOL0     C26498  11.373   2.085   0.236 -0.7955 -0.0391  0.3254
  197MOL0     C26499  11.438   1.974   0.327 -1.0311  0.1552 -0.5123
  197MOL0     C26500  11.390   2.003   0.479 -0.2666 -1.5102  0.7440
  197MOL0     C26501  11.447   1.889   0.560 -0.2214  0.7763  0.7196
  197MOL0     C26502  11.394   1.881   0.698 -0.7393 -0.4802 -0.0524
  197MOL0     C26503  11.450   1.766   0.788 -0.2808  0.6551  0.6149
  197MOL0     C26504  11.396   1.765   0.928  0.8405  0.5501 -0.2706
  197MOL0    Cl26505  11.485   1.895   1.022  0.1256 -0.1048  0.0639
  197MOL0     C26506  11.408   2.442   0.018 -0.5424 -0.5303  0.6272
  197MOL0     C26507  11.452   2.574   0.044  0.2765 -0.2417  0.3883
  197MOL0     O26508  11.665   2.784  -0.027 -0.1703 -0.7337  0.3426
  197MOL0     C26509  11.673   3.043   0.057 -0.3562  0.3568 -0.0236
  197MOL0     C26510  11.671   3.180   0.093  0.6456  0.5131 -0.6964
  197MOL0     N26511  10.975   3.291   0.188 -0.4817 -0.1922 -0.1236
  197MOL0     N26512  10.893   3.275   0.285  0.0782 -0.2743  0.2370
  197MOL0     C26513  10.746   3.216   1.645  0.4049  0.0849 -0.7142
  197MOL0     C26514  10.669   3.132   1.731  0.5248  0.5798  0.7839
  197MOL0     C26515  10.458   2.741   1.897 -0.0321  0.2888 -0.8047
  197MOL0     C26516  10.455   2.597   1.920  0.4707 -0.1512 -0.2480
  197MOL0     C26517  10.341   2.535   1.979  0.0424  1.3498 -0.0778
  197MOL0     C26518  10.229   2.607   2.009  0.6369  0.0681 -0.4720
  197MOL0     O26519  10.110   2.531   2.036 -0.5492 -0.0496  0.5818
  197MOL0     C26520  10.015   2.583   2.128  0.1359 -0.0842  0.8425
  197MOL0     C26521   9.976   2.480   2.232  0.3055  0.5805 -0.1601
  197MOL0     C26522  10.071   2.378   2.298  0.6811  0.7135  0.1391
  197MOL0     C26523  10.109   2.254   2.210 -1.4124 -0.4222 -0.6675
  197MOL0     C26524  10.011   2.180   2.138  0.8794 -0.3151 -0.7848
  197MOL0     C26525   9.919   2.111   2.091  0.6901  0.0489  0.8474
  197MOL0     C26526  10.225   2.749   1.990  0.3261  0.0573  0.3066
  197MOL0     C26527  10.338   2.816   1.938  0.4412  0.5158 -0.1362
  197MOL0     H26528  10.665   2.854   1.547  1.7767  0.5179 -1.4926
  197MOL0     H26529  10.803   2.968   1.419  0.8336  2.6175 -2.0227
  197MOL0     H26530  11.016   3.096   1.368  0.1727  0.5180 -1.9965
  197MOL0     H26531  10.880   3.159   1.266  1.0346 -1.4002 -1.5813
  197MOL0     H26532  11.005   3.387   1.281 -0.4252 -0.0949  0.1955
  197MOL0     H26533  11.137   3.310   1.345 -0.4110 -1.4018  0.3253
  197MOL0     H26534  11.206   3.316   1.128  0.0788  2.1355  2.8682
  197MOL0     H26535  11.161   3.149   1.167  0.6632  0.0252 -0.0770
  197MOL0     H26536  10.952   3.189   1.041  0.4696  1.2942  0.8202
  197MOL0     H26537  10.976   3.366   1.026 -2.2856 -0.9803 -1.7930
  197MOL0     H26538  11.173   3.298   0.865  0.7767 -0.9868 -2.2490
  197MOL0     H26539  11.100   3.135   0.869  0.0034 -0.6413  4.2363
  197MOL0     H26540  10.873   3.236   0.798 -1.7995  2.1581 -1.8458
  197MOL0     H26541  10.943   3.395   0.793  0.5530  0.4053 -0.3743
  197MOL0     H26542  11.112   3.295   0.625  0.9081 -1.3720  1.3250
  197MOL0     H26543  11.027   3.156   0.611  0.1766  0.0182 -1.1111
  197MOL0     H26544  10.900   3.426   0.571  2.0299 -0.6917  2.0676
  197MOL0     H26545  10.816   3.272   0.541  1.5604 -0.8872 -1.7967
  197MOL0     H26546  11.140   3.409   0.435 -0.6758  0.9253  1.0569
  197MOL0     H26547  11.203   3.269   0.077  0.2980  0.7999  0.2374
  197MOL0     H26548  11.186   3.447   0.059  1.6184  1.6327  0.9738
  197MOL0     H26549  11.362   3.300   0.250  2.4149 -0.7760 -1.5842
  197MOL0     H26550  11.333   3.480   0.248 -2.0625 -1.9606  2.5717
  197MOL0     H26551  11.421   3.484   0.009  2.1978 -0.4968 -1.9754
  197MOL0     H26552  11.458   3.311   0.018 -1.3734  1.1737 -2.3066
  197MOL0     H26553  11.581   3.543   0.177  0.7398 -1.7494  1.2930
  197MOL0     H26554  11.653   3.450   0.056  0.2052  1.4593  0.1959
  197MOL0     H26555  11.565   3.157   0.400  1.2082  1.7359 -1.1812
  197MOL0     H26556  11.683   2.831   0.401 -1.2194 -2.6136  0.6487
  197MOL0     H26557  11.556   2.920   0.476  0.6154 -1.3235  1.3199
  197MOL0     H26558  11.513   2.792   0.356  5.0626 -4.1334 -4.0798
  197MOL0     H26559  11.698   2.497   0.259 -1.4177  3.2726  1.5564
  197MOL0     H26560  11.600   2.269   0.233  1.4033  0.7199  0.9118
  197MOL0     H26561  11.431   2.010   0.031 -2.2143 -0.3425  0.0969
  197MOL0     H26562  11.557   2.094   0.115  0.1740 -2.3631 -1.5387
  197MOL0     H26563  11.378   2.178   0.293  0.5321 -0.4507  0.9151
  197MOL0     H26564  11.266   2.062   0.227 -0.3077 -2.2652 -0.4349
  197MOL0     H26565  11.546   1.985   0.328 -0.8656 -1.1499  1.0976
  197MOL0     H26566  11.420   1.869   0.301 -2.9501  0.6410 -1.3328
  197MOL0     H26567  11.400   2.107   0.510 -1.0424 -0.8228 -1.1916
  197MOL0     H26568  11.281   1.990   0.479 -0.5737  0.7192  0.6990
  197MOL0     H26569  11.556   1.889   0.574 -0.0879 -0.3233 -0.1714
  197MOL0     H26570  11.408   1.797   0.516  0.7911  0.2119  0.9712
  197MOL0     H26571  11.411   1.975   0.752  0.1260 -1.3026  1.1304
  197MOL0     H26572  11.285   1.874   0.704 -0.7238  0.5436  2.8048
  197MOL0     H26573  11.559   1.773   0.789 -0.2395  0.3224 -0.2554
  197MOL0     H26574  11.425   1.667   0.749 -0.5551  0.9799 -0.0428
  197MOL0     H26575  11.411   1.668   0.977  2.2447  1.0740  0.4080
  197MOL0     H26576  11.288   1.781   0.933  0.4966 -1.5550  0.2312
  197MOL0     H26577  11.323   2.421  -0.046  0.6592  0.0887 -1.2517
  197MOL0     H26578  11.382   2.652   0.017  2.9461  2.4825  0.7561
  197MOL0     H26579  11.715   3.041  -0.044 -0.3671 -0.3930 -0.0180
  197MOL0     H26580  11.722   3.243   0.021  2.6849  0.6092  0.7443
  197MOL0     H26581  10.772   3.320   1.661 -2.1791  0.8014 -0.7250
  197MOL0     H26582  10.633   3.174   1.825  1.2162 -1.4162  1.9973
  197MOL0     H26583  10.550   2.548   1.904  0.4772 -0.6229  1.1058
  197MOL0     H26584  10.350   2.432   2.011  0.0840  1.1177 -0.8172
  197MOL0     H26585  10.053   2.670   2.182 -2.9685  2.4366 -0.6607
  197MOL0     H26586   9.919   2.608   2.081 -0.8248  0.3172  2.9299
  197MOL0     H26587   9.895   2.424   2.184  0.7854 -0.3349  0.0650
  197MOL0     H26588   9.921   2.526   2.315 -1.6256 -1.9260  0.0938
  197MOL0     H26589  10.046   2.343   2.398  1.1271  0.0079  0.0072
  197MOL0     H26590  10.156   2.444   2.315  1.1708 -0.6142  3.5141
  197MOL0     H26591  10.155   2.184   2.280 -0.2776 -1.8607 -2.7382
  197MOL0     H26592  10.182   2.287   2.135 -0.9230 -4.1841 -2.0317
  197MOL0     H26593   9.832   2.065   2.049  0.4177  2.8221 -2.0665
  197MOL0     H26594  10.132   2.802   2.005 -1.5345 -1.6179 -3.8591
  197MOL0     H26595  10.319   2.917   1.903  1.6020  0.5615 -0.6755
  198MOL0     O26596   1.336  10.209  10.065  0.3835  0.3991 -0.0370
  198MOL0     C26597   1.426  10.131  10.041  0.1276  0.5592 -1.0977
  198MOL0     O26598   1.485  10.048  10.141  0.6702  0.2203 -0.7831
  198MOL0     C26599   1.441  10.043  10.272 -0.2729 -0.2185 -0.5070
  198MOL0     C26600   1.483   9.924  10.337 -0.3433 -0.6338 -0.1995
  198MOL0     C26601   1.461   9.901  10.471  0.6580 -0.6040 -0.3724
  198MOL0     C26602   1.376   9.992  10.542 -0.4388 -0.3513  0.9984
  198MOL0     O26603   1.328   9.962  10.664  0.2208 -0.6580 -0.1870
  198MOL0     C26604   1.416   9.900  10.763  0.2817  0.1719 -0.4239
  198MOL0     C26605   1.368   9.953  10.898 -0.2462  0.1139 -0.1031
  198MOL0     C26606   1.465   9.933  11.008  0.1123 -0.1576 -0.0501
  198MOL0     C26607   1.395   9.949  11.147  0.0053  0.0598  0.1521
  198MOL0     C26608   1.484   9.987  11.262 -0.3853 -0.0119  0.0078
  198MOL0     C26609   1.429  10.012  11.408  0.1516 -0.6527 -1.2431
  198MOL0     C26610   1.335  10.129  11.411 -0.3172 -0.6085 -0.8219
  198MOL0     C26611   1.403  10.254  11.350  1.2644  0.8803 -0.3357
  198MOL0     N26612   1.314  10.373  11.339  0.3924  0.4423  0.0927
  198MOL0     C26613   1.275  10.447  11.444 -0.6976 -0.3207 -0.5084
  198MOL0     C26614   1.222  10.561  11.391  0.1946  0.1154  0.3081
  198MOL0     C26615   1.166  10.667  11.473 -0.1963 -1.4646  0.1419
  198MOL0     C26616   1.154  10.807  11.402  0.2465 -0.3224 -0.3408
  198MOL0     C26617   1.070  10.900  11.488 -0.1626  0.7423  1.1742
  198MOL0     C26618   1.090  11.054  11.462  0.2268 -1.2899  0.9143
  198MOL0     O26619   1.209  11.089  11.533 -0.5297 -0.2191 -0.2040
  198MOL0     C26620   1.203  11.133  11.666 -0.4080 -0.1217 -0.9634
  198MOL0     C26621   1.098  11.163  11.751  0.4476  0.4445 -0.2878
  198MOL0     C26622   1.106  11.220  11.885 -0.0021  0.1933  0.8048
  198MOL0     C26623   0.982  11.279  11.948  0.6590  0.0694 -0.5941
  198MOL0     C26624   1.235  11.230  11.940  0.7573  0.4325 -0.3912
  198MOL0     C26625   1.252  11.268  12.083  0.4852 -0.6304  0.2634
  198MOL0     O26626   1.158  11.245  12.183 -0.1202  0.2209  0.6531
  198MOL0     C26627   1.193  11.253  12.314 -0.7152 -0.3540  0.1617
  198MOL0     C26628   1.172  11.373  12.389  0.0986  0.5006  0.2773
  198MOL0     C26629   1.208  11.388  12.526  0.2401 -0.4157  0.0162
  198MOL0     C26630   1.268  11.282  12.587 -0.5294  0.9378  0.2516
  198MOL0     O26631   1.324  11.289  12.717 -0.1702  0.2010  0.0874
  198MOL0     C26632   1.289  11.398  12.800  0.3528  0.0619  0.8634
  198MOL0     C26633   1.356  11.381  12.936 -0.6959 -1.1135  0.2524
  198MOL0     C26634   1.318  11.490  13.034  0.1439 -0.0824 -0.1040
  198MOL0     C26635   1.374  11.630  13.005  0.3312  0.6933  0.7935
  198MOL0     C26636   1.343  11.727  13.122 -0.6881  0.0539 -0.7059
  198MOL0     C26637   1.435  11.848  13.128 -0.7149  0.7848 -0.0471
  198MOL0     C26638   1.419  11.902  13.275  0.4778 -0.3535  0.9273
  198MOL0     C26639   1.464  12.048  13.288 -1.0874 -0.4632  0.2720
  198MOL0    Cl26640   1.643  12.055  13.233  0.2580  0.3636  0.4783
  198MOL0     C26641   1.293  11.166  12.511  0.3027  0.4694  0.6228
  198MOL0     C26642   1.264  11.149  12.377 -1.0038  0.1866  0.5016
  198MOL0     O26643   1.355  11.336  12.099 -0.0604  0.8912  0.5420
  198MOL0     C26644   1.345  11.185  11.863  0.3882 -0.3588  0.2572
  198MOL0     C26645   1.327  11.151  11.732 -0.8189  0.6914  0.0145
  198MOL0     N26646   1.220  10.545  11.258 -0.1992  0.0013  0.1129
  198MOL0     N26647   1.286  10.434  11.222 -0.8596  0.1992 -1.2587
  198MOL0     C26648   1.320  10.106  10.473  0.0116 -0.7918  0.2951
  198MOL0     C26649   1.359  10.138  10.341 -0.1786  1.3536  0.3232
  198MOL0     C26650   1.492  10.122   9.909  0.5914 -0.5602  0.4624
  198MOL0     C26651   1.433  10.195   9.805 -1.0474  0.5171  0.1681
  198MOL0     C26652   1.480  10.176   9.668  0.1918  0.3856  0.6043
  198MOL0     C26653   1.584  10.086   9.647 -0.1944 -0.5700 -0.7008
  198MOL0     O26654   1.632  10.035   9.528  1.0136  0.3936  0.4534
  198MOL0     C26655   1.550  10.069   9.414 -0.1361 -0.2996  0.1055
  198MOL0     C26656   1.605   9.984   9.307 -0.0712  0.2007 -0.5721
  198MOL0     C26657   1.739  10.036   9.243  0.7303 -0.5054  0.1823
  198MOL0     C26658   1.758   9.950   9.106 -1.0767  0.4582  0.3079
  198MOL0     C26659   1.899   9.983   9.071  0.4030  0.2328  0.7513
  198MOL0     C26660   2.006  10.000   9.019 -0.8745  0.1009 -0.6698
  198MOL0     C26661   1.641  10.026   9.752 -0.3559  0.2264 -0.8515
  198MOL0     C26662   1.597  10.039   9.880  0.0784 -0.3037 -0.1740
  198MOL0     H26663   1.553   9.867  10.277  1.4892  1.5361 -0.2642
  198MOL0     H26664   1.490   9.806  10.517  0.4139 -2.8612 -4.3882
  198MOL0     H26665   1.418   9.790  10.757  2.4177  0.0849  0.7073
  198MOL0     H26666   1.516   9.941  10.743  0.7783 -0.4009  0.7492
  198MOL0     H26667   1.335  10.057  10.883  1.9344  0.8448 -0.2209
  198MOL0     H26668   1.280   9.891  10.919  0.6982 -1.3359 -0.2787
  198MOL0     H26669   1.516   9.836  11.003  1.2473  0.4592 -0.5827
  198MOL0     H26670   1.541  10.008  10.984 -0.9729  0.7302 -0.8590
  198MOL0     H26671   1.318  10.026  11.135 -0.5739 -0.3561  1.0853
  198MOL0     H26672   1.337   9.863  11.183  1.1142 -0.0681  1.7138
  198MOL0     H26673   1.560   9.910  11.278  0.8460  1.8238  4.9504
  198MOL0     H26674   1.551  10.067  11.231 -0.4075  1.2442  2.8645
  198MOL0     H26675   1.386   9.923  11.454  3.8626 -0.6585  2.8690
  198MOL0     H26676   1.523  10.031  11.461 -0.5670  0.6474 -0.3762
  198MOL0     H26677   1.239  10.111  11.362 -2.1574  0.5343  2.0792
  198MOL0     H26678   1.320  10.143  11.518  2.8007 -1.0708 -0.2335
  198MOL0     H26679   1.429  10.232  11.246 -0.0014  1.3588 -0.7735
  198MOL0     H26680   1.494  10.276  11.407  0.7438  1.6757  0.2271
  198MOL0     H26681   1.292  10.428  11.549 -0.0642  0.1628 -0.5156
  198MOL0     H26682   1.059  10.646  11.482 -0.6987 -0.4446 -2.3878
  198MOL0     H26683   1.213  10.676  11.571  2.5899  2.1379 -1.2686
  198MOL0     H26684   1.133  10.806  11.295 -0.0567  1.3617 -0.3186
  198MOL0     H26685   1.258  10.842  11.398  0.7529 -1.8093 -0.7687
  198MOL0     H26686   1.087  10.871  11.592  0.9594 -0.5999  0.6512
  198MOL0     H26687   0.967  10.889  11.454 -0.1993 -1.4375  1.8173
  198MOL0     H26688   0.993  11.101  11.481 -0.2450 -1.7988 -0.0926
  198MOL0     H26689   1.111  11.074  11.357  2.6098 -2.0975  1.1858
  198MOL0     H26690   0.994  11.160  11.719 -0.7598 -4.5056  2.9059
  198MOL0     H26691   1.000  11.358  12.022 -0.1694 -0.1780 -0.1187
  198MOL0     H26692   0.906  11.318  11.881  1.4678  4.1450  0.5809
  198MOL0     H26693   0.939  11.191  11.997  1.3346  0.2657  0.3886
  198MOL0     H26694   1.124  11.460  12.346  1.3699  2.1170  1.9415
  198MOL0     H26695   1.178  11.475  12.583 -2.5137 -2.4164  1.8765
  198MOL0     H26696   1.333  11.491  12.761  1.6400 -0.5625  0.7518
  198MOL0     H26697   1.182  11.415  12.812 -0.3908 -2.3483 -1.3917
  198MOL0     H26698   1.337  11.284  12.982  1.0029 -0.8441  1.6517
  198MOL0     H26699   1.463  11.381  12.913 -1.0510 -0.8968 -1.4673
  198MOL0     H26700   1.345  11.458  13.135 -0.8999 -0.8974 -0.0650
  198MOL0     H26701   1.210  11.503  13.028 -0.0647  0.1031  2.7500
  198MOL0     H26702   1.482  11.621  12.995  0.1787  0.6838 -1.6686
  198MOL0     H26703   1.339  11.668  12.908  3.1530  0.8362 -0.2732
  198MOL0     H26704   1.364  11.669  13.212  0.9011  2.2962  0.4651
  198MOL0     H26705   1.240  11.763  13.133  0.3351  2.6547  1.6828
  198MOL0     H26706   1.539  11.816  13.117 -1.6330 -2.7475  0.2531
  198MOL0     H26707   1.410  11.918  13.048 -0.2577  0.4599 -0.4788
  198MOL0     H26708   1.484  11.845  13.343  0.0044  0.8983  2.4936
  198MOL0     H26709   1.315  11.913  13.306  0.3057 -2.9982  1.5021
  198MOL0     H26710   1.452  12.068  13.395 -1.7171  2.5021 -0.2557
  198MOL0     H26711   1.394  12.117  13.240  2.4498  0.5465 -4.1216
  198MOL0     H26712   1.343  11.079  12.552 -1.2334 -0.7725 -0.0084
  198MOL0     H26713   1.284  11.061  12.317  2.9102  2.4883 -1.9661
  198MOL0     H26714   1.441  11.197  11.911  0.9037  0.8128 -0.9929
  198MOL0     H26715   1.414  11.125  11.674 -0.7296  0.8395  0.0795
  198MOL0     H26716   1.264  10.179  10.532  0.8715  2.2155 -2.3106
  198MOL0     H26717   1.322  10.232  10.302  2.0500  1.8704 -0.7394
  198MOL0     H26718   1.351  10.265   9.809  0.2812  2.5927 -3.8869
  198MOL0     H26719   1.435  10.235   9.589 -3.3441 -1.0071  1.3521
  198MOL0     H26720   1.442  10.052   9.425 -0.5595  2.1174  0.2378
  198MOL0     H26721   1.569  10.173   9.385  1.4470 -0.2761  1.0833
  198MOL0     H26722   1.527   9.984   9.230 -1.6154 -1.7822  0.8935
  198MOL0     H26723   1.621   9.879   9.332  2.6099  0.5225 -0.6423
  198MOL0     H26724   1.815  10.037   9.321 -1.0224  4.1277  2.1587
  198MOL0     H26725   1.720  10.142   9.222  0.0281 -0.7116 -0.2634
  198MOL0     H26726   1.694   9.981   9.024  0.2455  1.3992 -0.3928
  198MOL0     H26727   1.734   9.846   9.131 -0.5648  0.8127  2.5255
  198MOL0     H26728   2.091  10.044   8.971 -2.5591  2.7108 -1.5002
  198MOL0     H26729   1.720   9.952   9.745 -0.9306 -0.4907  0.0406
  198MOL0     H26730   1.643   9.975   9.954  3.2338  1.3082 -0.6036
  199MOL0     O26731   0.934   5.051  10.935  0.1310  0.2776 -1.4589
  199MOL0     C26732   0.945   4.934  10.983 -0.0643 -0.9545 -0.2265
  199MOL0     O26733   0.848   4.863  11.038  0.0908  0.8646 -0.2855
  199MOL0     C26734   0.727   4.892  11.092  0.3155 -0.3868 -0.4273
  199MOL0     C26735   0.651   4.781  11.132  0.3043  0.8177 -0.1625
  199MOL0     C26736   0.526   4.793  11.190 -0.8369 -0.4103  0.9948
  199MOL0     C26737   0.467   4.922  11.192 -0.2647 -0.8755  0.8621
  199MOL0     O26738   0.331   4.925  11.226 -0.0236  0.0629 -0.4172
  199MOL0     C26739   0.294   5.052  11.279 -0.2160  0.0815 -0.1765
  199MOL0     C26740   0.155   5.027  11.359  0.4252 -0.0768  0.4088
  199MOL0     C26741   0.024   5.000  11.281  0.1141 -0.1477 -0.0577
  199MOL0     C26742   0.010   4.854  11.225 -0.1684  0.2220 -0.2528
  199MOL0     C26743  -0.140   4.828  11.168 -0.0898 -0.2474  0.0232
  199MOL0     C26744  -0.164   4.884  11.024 -0.3099 -0.2737  0.0496
  199MOL0     C26745  -0.308   4.923  11.010 -0.1372  0.3351  0.3873
  199MOL0     C26746  -0.328   5.073  11.023 -0.1387  0.6722  0.8402
  199MOL0     N26747  -0.358   5.111  11.161 -0.1318  0.5349 -0.2250
  199MOL0     C26748  -0.476   5.077  11.228 -0.4229 -0.5049  0.0450
  199MOL0     C26749  -0.461   5.117  11.348 -0.5224 -0.2317 -0.8289
  199MOL0     C26750  -0.559   5.098  11.462  0.0067 -0.0400  1.3073
  199MOL0     C26751  -0.680   5.198  11.451 -0.8551  0.5526 -0.5574
  199MOL0     C26752  -0.754   5.200  11.310 -0.3252 -0.2773  0.2700
  199MOL0     C26753  -0.870   5.292  11.297  0.8226 -0.7210  0.2892
  199MOL0     O26754  -0.921   5.294  11.156  0.9643 -0.7184 -0.9672
  199MOL0     C26755  -0.973   5.415  11.142 -0.9758 -0.5354 -0.0675
  199MOL0     C26756  -1.106   5.440  11.175  0.5321  0.9822  0.8404
  199MOL0     C26757  -1.166   5.563  11.147  0.3381  0.2657 -0.4211
  199MOL0     C26758  -1.309   5.582  11.185  1.3716 -0.3567  0.4686
  199MOL0     C26759  -1.088   5.672  11.092  0.1958 -0.3203 -0.7205
  199MOL0     C26760  -1.150   5.807  11.059  0.6075 -0.8658  0.2517
  199MOL0     O26761  -1.283   5.836  11.078 -0.0502 -0.7470 -0.1860
  199MOL0     C26762  -1.337   5.935  11.005  0.4118  0.5217 -0.0680
  199MOL0     C26763  -1.285   5.967  10.873 -0.1378 -0.2001 -0.8105
  199MOL0     C26764  -1.340   6.085  10.811 -0.2041  0.6945  0.2441
  199MOL0     C26765  -1.450   6.155  10.870  0.3550 -0.4109 -0.1794
  199MOL0     O26766  -1.523   6.252  10.803  0.1767 -0.4185  1.1867
  199MOL0     C26767  -1.490   6.383  10.837  1.2448 -0.6623 -0.7175
  199MOL0     C26768  -1.615   6.456  10.884  0.1357  0.2559  0.1850
  199MOL0     C26769  -1.723   6.459  10.779  0.9587 -0.6627 -0.2860
  199MOL0     C26770  -1.689   6.523  10.646 -0.8274  0.4151 -0.6338
  199MOL0     C26771  -1.822   6.546  10.570  0.3737 -0.0437 -0.3253
  199MOL0     C26772  -1.786   6.592  10.422  0.4591  0.0008 -0.4826
  199MOL0     C26773  -1.921   6.572  10.334 -1.1164 -0.3891  0.3959
  199MOL0     C26774  -1.879   6.585  10.183 -0.1371  0.5556 -0.1624
  199MOL0    Cl26775  -2.012   6.545  10.072  0.1690  0.9506  0.1412
  199MOL0     C26776  -1.483   6.117  11.002  0.7758 -0.1306  0.8589
  199MOL0     C26777  -1.442   6.002  11.065  0.3861  0.8390 -0.5326
  199MOL0     O26778  -1.056   5.890  11.032 -0.0057  0.2370  0.3949
  199MOL0     C26779  -0.957   5.641  11.052  0.7791  0.3043  0.5105
  199MOL0     C26780  -0.895   5.513  11.074  0.0453  0.0409 -0.2813
  199MOL0     N26781  -0.334   5.173  11.362  0.8497 -0.7168  0.0502
  199MOL0     N26782  -0.283   5.172  11.249 -0.6974  0.2889 -0.9514
  199MOL0     C26783   0.535   5.032  11.146 -0.2558  0.3751 -0.6740
  199MOL0     C26784   0.673   5.026  11.113 -0.7294 -0.8594  0.5770
  199MOL0     C26785   1.072   4.861  10.957  0.1948  1.2907 -0.5204
  199MOL0     C26786   1.162   4.915  10.864 -0.1484  0.4324 -0.3894
  199MOL0     C26787   1.284   4.852  10.841  0.0564  0.1234  0.1935
  199MOL0     C26788   1.325   4.737  10.914 -0.4493 -0.7173  0.2174
  199MOL0     O26789   1.446   4.674  10.876 -0.4319 -0.4548  0.0575
  199MOL0     C26790   1.542   4.739  10.798  0.0431 -0.3386  0.8526
  199MOL0     C26791   1.671   4.659  10.790 -0.6580 -1.3524 -0.7243
  199MOL0     C26792   1.729   4.623  10.931 -0.6466  0.3994 -0.2389
  199MOL0     C26793   1.729   4.737  11.036 -1.2013 -0.1648  0.0816
  199MOL0     C26794   1.790   4.860  10.982 -0.5191  0.2819  0.5170
  199MOL0     C26795   1.850   4.962  10.937 -0.0274  0.4402  0.0365
  199MOL0     C26796   1.239   4.680  11.008 -0.2536  0.3725  0.0644
  199MOL0     C26797   1.111   4.743  11.034  0.1745 -0.1985 -0.7905
  199MOL0     H26798   0.695   4.682  11.119 -2.0642 -0.1711 -1.3684
  199MOL0     H26799   0.462   4.708  11.211 -2.5587  0.5989  0.1370
  199MOL0     H26800   0.367   5.073  11.357  0.2359 -0.5109 -0.4301
  199MOL0     H26801   0.288   5.123  11.196 -1.1860  1.1294  0.7606
  199MOL0     H26802   0.173   4.949  11.433  0.4210 -0.8052 -0.3379
  199MOL0     H26803   0.129   5.117  11.415 -0.6140 -0.3887  0.4592
  199MOL0     H26804  -0.057   5.013  11.353  2.5700 -1.1874  3.1404
  199MOL0     H26805   0.025   5.068  11.195 -0.1935  0.5675  0.4887
  199MOL0     H26806   0.090   4.827  11.155  0.7409  0.9487  0.4916
  199MOL0     H26807   0.028   4.786  11.309 -2.0631  0.9442  0.7975
  199MOL0     H26808  -0.170   4.723  11.166 -1.3180  0.0979 -0.9377
  199MOL0     H26809  -0.211   4.876  11.235  1.7926  1.6721  0.7680
  199MOL0     H26810  -0.099   4.971  11.014  1.2920 -1.6116 -1.8651
  199MOL0     H26811  -0.120   4.820  10.947  1.5569  0.9595  0.0306
  199MOL0     H26812  -0.332   4.909  10.904 -0.1748  1.5130  0.2317
  199MOL0     H26813  -0.375   4.856  11.065 -1.9489 -0.4914 -2.6388
  199MOL0     H26814  -0.407   5.100  10.952 -0.8875 -0.1669  1.3320
  199MOL0     H26815  -0.235   5.120  10.991  0.0560 -1.2678 -1.7841
  199MOL0     H26816  -0.566   5.027  11.194 -0.7536 -0.9805  1.5477
  199MOL0     H26817  -0.598   4.996  11.465  0.0884 -0.1890 -0.8933
  199MOL0     H26818  -0.508   5.118  11.556  0.2092 -3.7661  2.1519
  199MOL0     H26819  -0.637   5.294  11.479 -0.7790  0.3745 -0.0543
  199MOL0     H26820  -0.754   5.163  11.524 -0.8435  0.0223 -0.7946
  199MOL0     H26821  -0.799   5.106  11.278 -0.2441  0.2145 -1.3594
  199MOL0     H26822  -0.681   5.234  11.236  1.1735 -0.3910  1.6292
  199MOL0     H26823  -0.847   5.395  11.327  0.9213 -1.0896  1.4985
  199MOL0     H26824  -0.951   5.252  11.359  1.6014 -2.1351  0.4267
  199MOL0     H26825  -1.155   5.360  11.228 -3.6161  3.7783  1.6927
  199MOL0     H26826  -1.319   5.661  11.260 -1.2363  2.0249 -2.1256
  199MOL0     H26827  -1.365   5.596  11.092  0.1694 -1.9115  0.9183
  199MOL0     H26828  -1.357   5.497  11.234 -0.8720 -1.1335 -2.7352
  199MOL0     H26829  -1.204   5.917  10.821 -0.2575 -2.3635  0.9444
  199MOL0     H26830  -1.309   6.112  10.711  0.2510 -2.7467 -0.6929
  199MOL0     H26831  -1.420   6.376  10.921 -1.8383  0.1022  2.1168
  199MOL0     H26832  -1.457   6.437  10.748 -2.5548 -1.1990 -2.6725
  199MOL0     H26833  -1.655   6.400  10.969  1.4395  1.8885  1.9717
  199MOL0     H26834  -1.591   6.553  10.929  3.0519 -0.4684  0.3726
  199MOL0     H26835  -1.804   6.511  10.831 -0.1059 -3.7950  1.4002
  199MOL0     H26836  -1.771   6.365  10.750 -1.9483  0.2292  1.3006
  199MOL0     H26837  -1.628   6.613  10.661  1.9696 -1.5545  0.6388
  199MOL0     H26838  -1.622   6.453  10.595 -1.5241  0.2670 -1.3764
  199MOL0     H26839  -1.898   6.602  10.625  0.7035 -1.9697  2.2569
  199MOL0     H26840  -1.864   6.450  10.538  3.9750 -1.0711 -2.5440
  199MOL0     H26841  -1.753   6.697  10.430 -0.7261  0.3625 -0.1901
  199MOL0     H26842  -1.709   6.533  10.371  0.6082  1.5258 -2.1431
  199MOL0     H26843  -1.993   6.642  10.377 -0.9216  0.2227 -0.2610
  199MOL0     H26844  -1.955   6.468  10.344  1.1848 -1.5443 -2.3208
  199MOL0     H26845  -1.785   6.535  10.159  0.4801  1.3426  0.5702
  199MOL0     H26846  -1.853   6.691  10.174 -2.1867  1.2284  1.1414
  199MOL0     H26847  -1.563   6.168  11.055  1.1763 -1.4776  2.8571
  199MOL0     H26848  -1.478   5.966  11.161 -0.7252  3.6900  0.2139
  199MOL0     H26849  -0.899   5.714  10.996  0.2860  0.7957  0.6371
  199MOL0     H26850  -0.800   5.480  11.032  0.9779  0.2581  1.5300
  199MOL0     H26851   0.491   5.131  11.138  2.2302  1.7269  1.0714
  199MOL0     H26852   0.745   5.098  11.075 -0.8498  0.5268  2.8056
  199MOL0     H26853   1.145   5.009  10.813 -3.8008  1.2088  1.8058
  199MOL0     H26854   1.351   4.887  10.764 -0.5390 -1.7694 -1.2783
  199MOL0     H26855   1.487   4.751  10.704 -0.2297 -0.6177  0.9735
  199MOL0     H26856   1.577   4.838  10.828  2.3139 -0.3716 -1.3045
  199MOL0     H26857   1.749   4.714  10.737 -1.6670  1.4159  0.4338
  199MOL0     H26858   1.647   4.573  10.727 -3.1834 -0.6116 -0.8755
  199MOL0     H26859   1.833   4.588  10.929 -1.7172 -3.2015  0.6845
  199MOL0     H26860   1.684   4.538  10.983 -3.3580  2.5655  1.2087
  199MOL0     H26861   1.792   4.713  11.122  1.2730 -2.0177 -2.0996
  199MOL0     H26862   1.624   4.758  11.058 -1.2940  1.2729 -1.5322
  199MOL0     H26863   1.921   5.028  10.891 -0.9669  3.5048  2.6281
  199MOL0     H26864   1.272   4.594  11.065  0.1861  0.7740  0.4230
  199MOL0     H26865   1.039   4.698  11.100 -2.7062  0.6133 -3.1479
  200MOL0     O26866  10.723  10.471   6.872  0.0400  0.2050 -0.0627
  200MOL0     C26867  10.689  10.539   6.974  0.3562  1.3228  0.5329
  200MOL0     O26868  10.596  10.644   6.977  0.4627 -0.3412  0.3849
  200MOL0     C26869  10.551  10.709   6.863 -0.0258  0.1755 -0.1917
  200MOL0     C26870  10.588  10.678   6.732  0.0104  0.1972 -0.1913
  200MOL0     C26871  10.517  10.759   6.642  0.3752  0.4322  0.7895
  200MOL0     C26872  10.433  10.872   6.672  0.7901  0.1401 -0.1657
  200MOL0     O26873  10.377  10.939   6.565 -0.1931 -0.1920 -0.2147
  200MOL0     C26874  10.337  11.069   6.590  0.4504 -0.8325  0.1193
  200MOL0     C26875  10.301  11.148   6.465 -0.4455  0.1863 -1.0305
  200MOL0     C26876  10.192  11.095   6.377  0.3035  0.0787  0.5473
  200MOL0     C26877  10.061  11.048   6.439  0.1431  0.1552 -0.8074
  200MOL0     C26878   9.974  11.012   6.323  0.5946 -0.0437  0.0928
  200MOL0     C26879   9.847  10.930   6.354  0.4818 -1.2923  0.0415
  200MOL0     C26880   9.731  11.006   6.417 -0.0692 -1.2726 -0.3603
  200MOL0     C26881   9.747  11.043   6.568  0.1160 -0.1722  0.4968
  200MOL0     N26882   9.619  11.103   6.626 -0.9281 -0.2584 -0.1252
  200MOL0     C26883   9.527  11.056   6.715 -0.3264  1.5600 -0.6268
  200MOL0     C26884   9.411  11.133   6.696 -0.9485 -0.4517  0.0350
  200MOL0     C26885   9.266  11.090   6.742  0.0051  0.6962 -0.8320
  200MOL0     C26886   9.234  10.938   6.732 -0.1535  0.2626  0.4120
  200MOL0     C26887   9.098  10.926   6.799  0.6560  0.0176 -0.5557
  200MOL0     C26888   9.044  10.780   6.825 -0.2215 -0.6615  0.5067
  200MOL0     O26889   9.112  10.723   6.937  0.2796 -0.7239 -0.3134
  200MOL0     C26890   9.044  10.614   6.983  0.0213  0.0033 -1.1625
  200MOL0     C26891   9.073  10.555   7.113  0.2792  0.3540  0.1177
  200MOL0     C26892   9.000  10.448   7.163  0.2669  0.1318 -0.3608
  200MOL0     C26893   9.012  10.395   7.308 -0.2904 -0.4550  0.3541
  200MOL0     C26894   8.913  10.369   7.082  0.6410 -0.0207  0.5083
  200MOL0     C26895   8.857  10.235   7.121  0.8578 -0.8799  0.6632
  200MOL0     O26896   8.902  10.130   7.047  0.0051 -0.6672  0.1915
  200MOL0     C26897   8.818  10.042   6.981  0.0448  0.2796  0.9945
  200MOL0     C26898   8.851   9.905   6.975  0.1539 -0.1353  0.2528
  200MOL0     C26899   8.774   9.816   6.902  1.0359  0.0524 -0.9132
  200MOL0     C26900   8.654   9.858   6.851 -0.1587 -0.4135 -0.2872
  200MOL0     O26901   8.564   9.781   6.781 -0.4211 -0.1732 -0.6700
  200MOL0     C26902   8.597   9.658   6.731 -0.5979  0.3358  0.1284
  200MOL0     C26903   8.694   9.680   6.616  0.5467 -0.9391  0.6886
  200MOL0     C26904   8.712   9.548   6.542 -0.2833  0.3618  0.3743
  200MOL0     C26905   8.797   9.566   6.413 -0.2733  0.4323 -0.3227
  200MOL0     C26906   8.846   9.433   6.348  0.4825  0.0854 -0.6693
  200MOL0     C26907   8.724   9.350   6.299 -0.8508 -0.5936 -0.5742
  200MOL0     C26908   8.659   9.408   6.176 -0.4989  0.8674 -0.0299
  200MOL0     C26909   8.518   9.471   6.199  0.3958 -0.7380  0.8085
  200MOL0    Cl26910   8.460   9.532   6.040  0.3720  0.0751 -0.6760
  200MOL0     C26911   8.617   9.992   6.853 -0.1460 -0.4384 -0.7199
  200MOL0     C26912   8.708  10.085   6.915 -0.4152  0.0082  0.1442
  200MOL0     O26913   8.764  10.231   7.200  0.8086 -0.6604  0.1806
  200MOL0     C26914   8.891  10.420   6.958  0.3252  0.1843  0.0982
  200MOL0     C26915   8.957  10.535   6.907  0.0059  0.8209  0.2752
  200MOL0     N26916   9.448  11.228   6.605  0.5112  0.2980 -0.0493
  200MOL0     N26917   9.560  11.206   6.551 -0.8791  0.7086  0.5016
  200MOL0     C26918  10.403  10.897   6.804 -0.0517  0.1881 -0.4896
  200MOL0     C26919  10.477  10.825   6.899  1.1958  0.0467  0.9053
  200MOL0     C26920  10.740  10.482   7.098 -0.1021  0.4532 -0.0777
  200MOL0     C26921  10.689  10.518   7.221 -0.1002 -0.4535  0.0114
  200MOL0     C26922  10.744  10.468   7.334 -0.7051 -1.2461  0.1877
  200MOL0     C26923  10.826  10.355   7.320 -1.0406 -0.0083 -0.1407
  200MOL0     O26924  10.869  10.278   7.427 -0.4665  0.0149 -0.1692
  200MOL0     C26925  10.947  10.339   7.530  0.9506 -0.1770  0.0720
  200MOL0     C26926  11.087  10.297   7.509 -0.8078  0.2661 -0.0047
  200MOL0     C26927  11.168  10.352   7.618 -0.0872 -0.3499 -0.4628
  200MOL0     C26928  11.319  10.326   7.591 -0.0790 -0.5040 -0.2468
  200MOL0     C26929  11.387  10.401   7.487 -0.7055 -0.2234 -0.1960
  200MOL0     C26930  11.445  10.480   7.414 -0.2989 -0.2740  0.0934
  200MOL0     C26931  10.875  10.319   7.198  0.0178 -0.0129  0.4640
  200MOL0     C26932  10.833  10.384   7.088  0.8826 -0.9760  0.0244
  200MOL0     H26933  10.643  10.591   6.698 -1.7736 -1.2093  0.3670
  200MOL0     H26934  10.530  10.726   6.540  0.5918  3.2041 -0.1567
  200MOL0     H26935  10.248  11.087   6.652 -1.1117 -0.5782 -2.0911
  200MOL0     H26936  10.426  11.116   6.633  0.7231 -0.2376 -1.0749
  200MOL0     H26937  10.261  11.247   6.485 -0.7139 -0.0465 -0.3978
  200MOL0     H26938  10.396  11.157   6.411 -0.0065  0.3279 -0.2374
  200MOL0     H26939  10.166  11.166   6.299  2.0643  1.4360  1.1390
  200MOL0     H26940  10.238  11.009   6.326  1.2628  1.8545 -1.7417
  200MOL0     H26941  10.061  10.973   6.518 -2.4843 -0.1749 -1.0422
  200MOL0     H26942  10.020  11.140   6.482  0.6330 -1.1512  2.7452
  200MOL0     H26943   9.954  11.094   6.254  2.3709  2.8865  2.8450
  200MOL0     H26944  10.034  10.944   6.261 -1.1663  0.3834 -2.2060
  200MOL0     H26945   9.801  10.899   6.260  0.2483 -0.9700  0.0436
  200MOL0     H26946   9.870  10.839   6.410 -3.2823 -1.4337  1.7160
  200MOL0     H26947   9.730  11.101   6.363 -2.8600  1.4420  3.8988
  200MOL0     H26948   9.639  10.949   6.404 -0.1546 -1.6219  1.5434
  200MOL0     H26949   9.818  11.126   6.567 -2.0868  1.8523 -1.8716
  200MOL0     H26950   9.781  10.957   6.627 -0.3808 -1.2084 -0.6585
  200MOL0     H26951   9.535  10.963   6.769 -0.9494  0.6989 -1.9659
  200MOL0     H26952   9.269  11.118   6.848 -1.6272 -1.5760 -0.1069
  200MOL0     H26953   9.183  11.136   6.686  0.7663 -1.2303 -3.7551
  200MOL0     H26954   9.308  10.870   6.776 -0.8816 -0.9677 -0.2196
  200MOL0     H26955   9.220  10.901   6.630 -1.1069  0.0133  0.6249
  200MOL0     H26956   9.022  10.975   6.736  1.1332  0.7755 -0.5554
  200MOL0     H26957   9.099  10.977   6.896  1.4722  0.7615 -0.9475
  200MOL0     H26958   9.050  10.719   6.735 -0.6955  0.3329 -0.2111
  200MOL0     H26959   8.940  10.786   6.859  0.6504  2.4560  3.1532
  200MOL0     H26960   9.144  10.592   7.187 -0.5178 -0.6621  1.4402
  200MOL0     H26961   9.090  10.458   7.352  2.8115 -1.4363 -3.1977
  200MOL0     H26962   8.918  10.393   7.363 -1.3992  3.1611 -1.1665
  200MOL0     H26963   9.057  10.295   7.310 -2.3396 -1.4166  0.2291
  200MOL0     H26964   8.943   9.867   7.018 -1.1876 -2.2272  1.4302
  200MOL0     H26965   8.805   9.712   6.903  0.5386 -0.2004  2.6715
  200MOL0     H26966   8.646   9.588   6.800  1.4794 -1.9032 -3.3005
  200MOL0     H26967   8.499   9.621   6.701  0.8407 -2.3983 -1.6224
  200MOL0     H26968   8.658   9.756   6.547 -2.0112 -0.5329  2.3490
  200MOL0     H26969   8.794   9.708   6.649  0.1321  3.1522 -0.9137
  200MOL0     H26970   8.616   9.509   6.507  0.9870 -2.0195 -0.7164
  200MOL0     H26971   8.753   9.473   6.610 -1.7517 -1.7282 -0.9400
  200MOL0     H26972   8.744   9.617   6.333  3.4910  0.7010 -2.9154
  200MOL0     H26973   8.883   9.629   6.441 -1.7479  1.9824  0.9538
  200MOL0     H26974   8.896   9.374   6.425 -3.4210  0.2065  2.3346
  200MOL0     H26975   8.915   9.454   6.266  1.4799  2.2779  0.6162
  200MOL0     H26976   8.767   9.257   6.259 -0.4242 -0.7520  0.2310
  200MOL0     H26977   8.653   9.340   6.381  0.3479 -0.4152  0.5180
  200MOL0     H26978   8.643   9.327   6.103 -0.4833 -0.1257  1.0401
  200MOL0     H26979   8.718   9.492   6.139  0.1071  1.4184  2.0430
  200MOL0     H26980   8.521   9.557   6.266 -0.3457 -0.2268  0.1951
  200MOL0     H26981   8.451   9.392   6.233  2.5985 -2.9117  0.4148
  200MOL0     H26982   8.520  10.025   6.817  0.6667  3.3434  0.1367
  200MOL0     H26983   8.677  10.188   6.926  0.7697  0.3644  0.1869
  200MOL0     H26984   8.816  10.380   6.890  0.1729  1.8389 -0.7728
  200MOL0     H26985   8.934  10.571   6.807 -2.0232  0.4407  0.5746
  200MOL0     H26986  10.325  10.965   6.836 -1.1696 -0.3561 -1.9365
  200MOL0     H26987  10.467  10.843   7.006 -0.9831  1.2856  0.5447
  200MOL0     H26988  10.613  10.593   7.236 -1.6741 -2.1006  0.6068
  200MOL0     H26989  10.703  10.514   7.424 -3.2727  0.8587 -1.8901
  200MOL0     H26990  10.934  10.448   7.527 -3.1384 -0.5327  0.0536
  200MOL0     H26991  10.906  10.303   7.624  1.4441  1.5999  1.0059
  200MOL0     H26992  11.137  10.341   7.422  1.1031  0.4757  1.1373
  200MOL0     H26993  11.103  10.190   7.491  3.6063  0.9041 -1.0188
  200MOL0     H26994  11.130  10.305   7.710  0.8416  0.6346  0.4497
  200MOL0     H26995  11.146  10.458   7.634 -0.4199 -0.9432  4.4674
  200MOL0     H26996  11.328  10.224   7.553  0.5094 -0.1555 -1.0689
  200MOL0     H26997  11.368  10.338   7.688 -0.8418  1.6463 -0.0783
  200MOL0     H26998  11.498  10.543   7.346  0.6999  1.7441  2.5970
  200MOL0     H26999  10.943  10.235   7.192  0.8992  0.4378  2.9506
  200MOL0     H27000  10.851  10.329   6.996 -0.3721  0.1810 -0.9460
  201MOL0     O27001   4.200   1.976   4.607 -1.0330 -0.4746  0.0381
  201MOL0     C27002   4.181   2.087   4.573 -0.2978 -0.3838 -0.3698
  201MOL0     O27003   4.078   2.136   4.490  0.0405 -0.1750  0.1208
  201MOL0     C27004   3.979   2.044   4.455 -0.8109 -0.1395  0.4561
  201MOL0     C27005   4.002   1.916   4.403  0.2993  0.1123  0.0429
  201MOL0     C27006   3.891   1.843   4.358 -0.4349  0.7815  0.1837
  201MOL0     C27007   3.758   1.895   4.371 -0.1526  0.3011  1.2841
  201MOL0     O27008   3.644   1.818   4.333 -0.4046  0.3908  0.0332
  201MOL0     C27009   3.665   1.680   4.299 -0.5589 -0.1479 -0.4357
  201MOL0     C27010   3.559   1.641   4.203  0.7015  0.0686 -0.1145
  201MOL0     C27011   3.562   1.494   4.150  0.4435 -1.3873  0.4902
  201MOL0     C27012   3.488   1.397   4.238 -0.4324 -1.0957  0.6917
  201MOL0     C27013   3.476   1.266   4.161  0.0454  0.2888  0.4859
  201MOL0     C27014   3.391   1.173   4.249 -0.0832 -0.8441  0.4878
  201MOL0     C27015   3.355   1.038   4.189 -0.4490  0.7722  0.2483
  201MOL0     C27016   3.225   1.056   4.103 -0.0415 -0.4265 -0.5722
  201MOL0     N27017   3.179   0.923   4.061  0.7276 -0.7136  0.2470
  201MOL0     C27018   3.242   0.858   3.963 -0.1743 -0.9283  0.2290
  201MOL0     C27019   3.161   0.759   3.927 -0.2113  0.3930  0.2483
  201MOL0     C27020   3.181   0.659   3.820 -0.3405  0.6315 -0.5953
  201MOL0     C27021   3.162   0.515   3.879  0.8608  0.2320 -0.0170
  201MOL0     C27022   3.255   0.425   3.800  0.3715 -0.4093  0.2172
  201MOL0     C27023   3.237   0.282   3.844 -0.4938 -0.0614  0.1508
  201MOL0     O27024   3.331   0.208   3.756 -0.5995 -0.8445  0.3164
  201MOL0     C27025   3.285   0.109   3.672  0.0357  0.0190  0.1801
  201MOL0     C27026   3.382   0.059   3.583  0.5618  1.0528  0.2083
  201MOL0     C27027   3.361  -0.059   3.509  0.9683 -0.7721 -0.3467
  201MOL0     C27028   3.473  -0.115   3.421  0.8304 -0.8856 -0.5583
  201MOL0     C27029   3.230  -0.114   3.513  1.1118  0.1454 -0.5779
  201MOL0     C27030   3.179  -0.223   3.419  0.0551 -0.3158 -0.7380
  201MOL0     O27031   3.198  -0.206   3.288 -0.1901  0.9767  0.1501
  201MOL0     C27032   3.163  -0.308   3.192 -0.0493 -0.9766 -0.9382
  201MOL0     C27033   3.188  -0.268   3.062 -0.3169  0.3057 -0.5220
  201MOL0     C27034   3.151  -0.352   2.956 -0.4571  0.0593  0.4883
  201MOL0     C27035   3.103  -0.482   2.974 -1.2126  0.4723 -0.2829
  201MOL0     O27036   3.067  -0.554   2.861  0.1154 -0.6730 -0.1645
  201MOL0     C27037   3.041  -0.690   2.870 -1.1956  0.1244 -0.3487
  201MOL0     C27038   3.031  -0.756   2.730  0.8441 -0.5054 -0.0823
  201MOL0     C27039   2.945  -0.880   2.728  0.5714  0.2012  0.1353
  201MOL0     C27040   2.913  -0.939   2.585 -0.0957  1.2008  0.5821
  201MOL0     C27041   2.945  -1.094   2.588  0.5239  0.8008  1.1299
  201MOL0     C27042   2.921  -1.148   2.442 -0.5069  0.0655 -0.0110
  201MOL0     C27043   3.029  -1.102   2.344  1.0172 -0.0935  0.6936
  201MOL0     C27044   3.031  -1.184   2.214  0.5487 -0.1370  0.4348
  201MOL0    Cl27045   2.876  -1.168   2.138 -0.1001 -0.0088  0.0552
  201MOL0     C27046   3.083  -0.529   3.111  0.0434 -1.1596  0.5033
  201MOL0     C27047   3.114  -0.443   3.220 -0.4476 -0.0984  0.7242
  201MOL0     O27048   3.143  -0.328   3.466 -0.1273  0.4846  0.1680
  201MOL0     C27049   3.135  -0.068   3.608  0.1302  1.0519 -0.7569
  201MOL0     C27050   3.164   0.045   3.690 -0.2069  0.0621  0.3178
  201MOL0     N27051   3.048   0.756   4.015  0.7196  0.4497  0.3305
  201MOL0     N27052   3.057   0.869   4.087 -0.7728  1.2171  0.4182
  201MOL0     C27053   3.734   2.014   4.432  0.2894 -0.8284  0.3965
  201MOL0     C27054   3.845   2.086   4.476  0.2456 -0.9599  0.1867
  201MOL0     C27055   4.281   2.184   4.617  0.3053 -0.6998  0.1643
  201MOL0     C27056   4.381   2.143   4.702  0.7381  0.5823  0.3451
  201MOL0     C27057   4.464   2.236   4.748  0.2266  0.9330 -0.1403
  201MOL0     C27058   4.463   2.363   4.708 -1.0214 -0.5307  0.7691
  201MOL0     O27059   4.553   2.458   4.765  0.0969 -0.2054 -0.0934
  201MOL0     C27060   4.601   2.444   4.901  1.1046  0.4522  0.3834
  201MOL0     C27061   4.751   2.458   4.909 -0.4272 -0.0703  0.2816
  201MOL0     C27062   4.800   2.590   4.854  0.5023 -0.3929 -1.0704
  201MOL0     C27063   4.959   2.600   4.855 -1.0039 -0.1432 -0.4054
  201MOL0     C27064   5.005   2.559   4.987  0.4625 -0.5049 -0.6332
  201MOL0     C27065   5.044   2.512   5.098 -0.2823  0.0831 -0.1905
  201MOL0     C27066   4.375   2.404   4.614 -0.3880  0.0165  0.2077
  201MOL0     C27067   4.275   2.318   4.572 -0.0224 -0.7068 -0.5363
  201MOL0     H27068   4.099   1.869   4.405  1.1006  1.7231  0.4972
  201MOL0     H27069   3.913   1.748   4.312 -0.9522  0.7445 -0.0011
  201MOL0     H27070   3.755   1.647   4.246  1.6212  1.3198  2.1633
  201MOL0     H27071   3.657   1.624   4.392 -0.8649  0.0694 -0.3255
  201MOL0     H27072   3.462   1.647   4.253  1.3808  1.0906  1.1736
  201MOL0     H27073   3.559   1.718   4.126  0.7041  0.2046  0.0199
  201MOL0     H27074   3.515   1.496   4.052 -0.1570  1.2937  0.7446
  201MOL0     H27075   3.664   1.460   4.131  0.5633 -0.2636 -1.0666
  201MOL0     H27076   3.542   1.382   4.332  5.1425  1.1315 -1.7110
  201MOL0     H27077   3.393   1.445   4.265 -1.2847 -2.5493  0.3404
  201MOL0     H27078   3.424   1.294   4.069  0.9815  1.3828  0.2762
  201MOL0     H27079   3.578   1.228   4.149  0.4486  1.3587  0.4317
  201MOL0     H27080   3.446   1.165   4.343 -0.5993  0.1687  0.8995
  201MOL0     H27081   3.300   1.227   4.279 -1.3989 -2.8849  0.3818
  201MOL0     H27082   3.436   0.994   4.131 -0.2304 -0.0878  1.1706
  201MOL0     H27083   3.325   0.967   4.267  1.5285 -0.6241 -0.1875
  201MOL0     H27084   3.239   1.132   4.026 -1.2673  0.2142 -0.1870
  201MOL0     H27085   3.148   1.089   4.173  1.3742 -1.9212  1.8296
  201MOL0     H27086   3.329   0.895   3.909  0.3934 -1.3081  0.8663
  201MOL0     H27087   3.097   0.657   3.750 -2.2242 -0.5838  1.5671
  201MOL0     H27088   3.280   0.668   3.775 -0.9149  1.0584 -1.8220
  201MOL0     H27089   3.056   0.491   3.883  1.0506 -1.0682 -1.6996
  201MOL0     H27090   3.203   0.520   3.980 -0.6527  1.5293  0.5738
  201MOL0     H27091   3.358   0.460   3.813 -0.5849  2.2555  1.4936
  201MOL0     H27092   3.232   0.439   3.694  0.2857 -3.4174 -0.2421
  201MOL0     H27093   3.132   0.250   3.839 -0.8500  0.9314  0.9429
  201MOL0     H27094   3.272   0.254   3.944  0.9366 -0.3473 -0.4190
  201MOL0     H27095   3.480   0.105   3.585  1.4872 -0.8459  1.4905
  201MOL0     H27096   3.567  -0.069   3.452 -0.4309  0.4376  1.5726
  201MOL0     H27097   3.482  -0.224   3.417 -0.0509 -1.0298  0.7229
  201MOL0     H27098   3.443  -0.076   3.323 -0.5449  1.0217  0.5359
  201MOL0     H27099   3.219  -0.169   3.033 -0.2546 -0.2930 -2.7407
  201MOL0     H27100   3.174  -0.311   2.858  0.7382 -1.7636 -0.0415
  201MOL0     H27101   3.105  -0.736   2.946 -1.1094 -0.1999 -0.6114
  201MOL0     H27102   2.944  -0.716   2.913  0.0968 -3.8788  0.5759
  201MOL0     H27103   2.993  -0.673   2.669  3.3458  0.7127 -0.1452
  201MOL0     H27104   3.136  -0.779   2.708  2.2191  3.5835  1.1631
  201MOL0     H27105   2.849  -0.865   2.779  0.8428  0.1560  0.6602
  201MOL0     H27106   3.001  -0.957   2.781  5.0433  1.8278 -1.7796
  201MOL0     H27107   2.814  -0.912   2.546 -0.7703 -0.3058  1.1643
  201MOL0     H27108   2.978  -0.897   2.508 -0.5912 -0.1752 -0.6228
  201MOL0     H27109   2.872  -1.142   2.653 -0.6743 -1.7351 -1.8466
  201MOL0     H27110   3.047  -1.116   2.621  1.4014  1.7093 -0.7998
  201MOL0     H27111   2.921  -1.257   2.438 -0.7908 -0.0032  1.2617
  201MOL0     H27112   2.818  -1.124   2.411 -1.7831 -1.6899  2.4686
  201MOL0     H27113   3.127  -1.110   2.390  1.3903  1.0649  0.1406
  201MOL0     H27114   3.012  -0.997   2.317 -0.3394 -0.2054  1.0004
  201MOL0     H27115   3.063  -1.284   2.245  1.2239 -0.5991 -1.5623
  201MOL0     H27116   3.119  -1.157   2.155  0.4916  5.7353  2.3816
  201MOL0     H27117   3.050  -0.632   3.120  0.1541 -1.1387  1.2076
  201MOL0     H27118   3.115  -0.484   3.320  1.2831 -0.3129  0.6579
  201MOL0     H27119   3.038  -0.115   3.603  0.6081  0.0396 -0.7047
  201MOL0     H27120   3.104   0.062   3.779  1.1632  1.5354  1.0031
  201MOL0     H27121   3.630   2.047   4.435  0.9418  1.4251 -0.1975
  201MOL0     H27122   3.826   2.178   4.531 -1.2006 -0.7375 -0.6192
  201MOL0     H27123   4.389   2.045   4.749  2.3675  0.4286 -0.1829
  201MOL0     H27124   4.530   2.193   4.822 -2.7571 -1.4806  1.3457
  201MOL0     H27125   4.555   2.527   4.955  0.8146  0.6933 -0.2261
  201MOL0     H27126   4.567   2.347   4.938 -0.0664 -0.2312 -2.2097
  201MOL0     H27127   4.793   2.376   4.850  2.1945  0.8186  0.7778
  201MOL0     H27128   4.784   2.425   5.008  1.4619 -1.0641 -0.6348
  201MOL0     H27129   4.766   2.671   4.920 -5.3894 -2.6803 -0.7294
  201MOL0     H27130   4.749   2.615   4.761 -2.1364 -0.7018  0.1960
  201MOL0     H27131   4.988   2.703   4.832 -1.7227  0.3245  0.7308
  201MOL0     H27132   5.000   2.534   4.777  1.0574 -0.7087  1.0816
  201MOL0     H27133   5.077   2.474   5.193 -3.1610  2.4938  1.9787
  201MOL0     H27134   4.386   2.507   4.581  2.2063  0.4860  2.2008
  201MOL0     H27135   4.199   2.333   4.496 -0.7495 -2.8187 -0.3015
  202MOL0     O27136   9.089   9.458  11.057 -0.1119 -0.4010  0.3379
  202MOL0     C27137   9.088   9.492  10.943 -0.2442 -0.3427  0.1186
  202MOL0     O27138   8.978   9.541  10.876 -0.0758  0.7769 -0.3200
  202MOL0     C27139   8.888   9.452  10.841 -0.7837 -0.2264 -0.1691
  202MOL0     C27140   8.906   9.314  10.846 -0.1238 -0.4948  0.8218
  202MOL0     C27141   8.798   9.234  10.812 -0.6362  0.3778 -0.0750
  202MOL0     C27142   8.674   9.289  10.787 -0.9232 -0.4895  0.3468
  202MOL0     O27143   8.572   9.208  10.745  0.2591  0.3261  0.3566
  202MOL0     C27144   8.503   9.136  10.851 -0.4115 -0.4822 -0.4164
  202MOL0     C27145   8.391   9.052  10.783 -0.7068  0.1146 -0.7297
  202MOL0     C27146   8.293   8.987  10.879  0.5873  0.4936 -0.4043
  202MOL0     C27147   8.236   8.855  10.821  0.4373 -0.3623  0.4620
  202MOL0     C27148   8.114   8.790  10.891 -0.1618 -0.0105  0.6432
  202MOL0     C27149   8.074   8.663  10.814  0.3625  0.1200 -0.3249
  202MOL0     C27150   7.960   8.583  10.880  0.8092 -0.3974  0.3670
  202MOL0     C27151   7.921   8.478  10.781  0.9155 -0.1942 -0.2153
  202MOL0     N27152   7.798   8.412  10.813 -0.1396  0.4716 -0.1175
  202MOL0     C27153   7.771   8.276  10.802 -0.1744 -0.1096  0.5847
  202MOL0     C27154   7.647   8.252  10.849 -0.1125 -0.8404 -0.7703
  202MOL0     C27155   7.567   8.124  10.852  0.0262  0.2635 -0.8450
  202MOL0     C27156   7.508   8.087  10.988 -0.8052 -0.7513  0.0514
  202MOL0     C27157   7.599   8.105  11.106 -0.4898  0.0169 -0.2002
  202MOL0     C27158   7.526   8.058  11.229  0.1780 -0.7054 -0.4369
  202MOL0     O27159   7.594   8.071  11.355 -1.0586  0.0633 -0.3193
  202MOL0     C27160   7.674   7.962  11.401  0.2417 -0.6145  0.4163
  202MOL0     C27161   7.693   7.959  11.540 -0.4976  0.8693 -0.7992
  202MOL0     C27162   7.756   7.863  11.610 -0.7524  0.2782 -0.5878
  202MOL0     C27163   7.762   7.857  11.760  0.4138 -0.7505  0.0268
  202MOL0     C27164   7.822   7.751  11.534 -0.3711 -0.1632  0.4932
  202MOL0     C27165   7.899   7.633  11.586 -0.4541 -0.0363 -0.0469
  202MOL0     O27166   8.002   7.568  11.514 -0.2720 -0.3910  0.2870
  202MOL0     C27167   8.066   7.472  11.585  0.1547  0.3670 -0.2902
  202MOL0     C27168   8.162   7.510  11.683 -0.4898  0.2787  0.8287
  202MOL0     C27169   8.234   7.420  11.760  0.3951  0.2908  0.8512
  202MOL0     C27170   8.191   7.287  11.763  0.0999  0.3745  0.4017
  202MOL0     O27171   8.255   7.177  11.831  0.0804 -0.1525 -0.1320
  202MOL0     C27172   8.366   7.209  11.922 -0.3569  0.4420  0.5721
  202MOL0     C27173   8.402   7.073  11.999  0.3084  0.6627  0.0403
  202MOL0     C27174   8.467   6.979  11.891 -0.7921  0.5680 -0.4082
  202MOL0     C27175   8.616   7.013  11.864 -1.0041  0.3508  0.7649
  202MOL0     C27176   8.698   6.908  11.793 -0.0008 -0.7489  0.0090
  202MOL0     C27177   8.650   6.878  11.645  0.6415 -0.3301  0.1422
  202MOL0     C27178   8.743   6.774  11.579  0.6207 -0.8527 -0.0247
  202MOL0     C27179   8.739   6.774  11.428 -0.3522 -0.1453  0.4432
  202MOL0    Cl27180   8.802   6.926  11.349  0.0163  0.3244  0.0889
  202MOL0     C27181   8.092   7.246  11.667 -0.0623  0.3266 -0.8823
  202MOL0     C27182   8.027   7.337  11.590  0.1994  0.5330 -0.0516
  202MOL0     O27183   7.855   7.594  11.693 -0.2849 -0.4325 -0.4282
  202MOL0     C27184   7.803   7.761  11.390 -0.4048  1.0775  0.5591
  202MOL0     C27185   7.736   7.859  11.315 -0.1222  0.0194  0.9069
  202MOL0     N27186   7.607   8.381  10.899 -0.5997  0.4778 -0.1508
  202MOL0     N27187   7.695   8.466  10.879 -1.3638 -0.2798 -0.0249
  202MOL0     C27188   8.655   9.428  10.789  0.0471  0.1565 -0.3522
  202MOL0     C27189   8.763   9.513  10.819 -0.1290 -0.1059 -0.0735
  202MOL0     C27190   9.214   9.511  10.872  0.5954  0.8606 -0.5121
  202MOL0     C27191   9.325   9.432  10.918  0.1518 -0.5604  0.4033
  202MOL0     C27192   9.448   9.448  10.857 -0.4331 -0.9672  0.2928
  202MOL0     C27193   9.466   9.534  10.749 -0.6164  0.3102 -0.4801
  202MOL0     O27194   9.593   9.529  10.688  0.4647 -0.1335 -1.2828
  202MOL0     C27195   9.639   9.648  10.626  0.4716 -0.2185  0.1676
  202MOL0     C27196   9.688   9.745  10.724 -0.3426  0.0257  0.0347
  202MOL0     C27197   9.772   9.859  10.667  0.5588 -0.4254 -0.6603
  202MOL0     C27198   9.703   9.938  10.565 -0.5329 -0.6198 -0.8404
  202MOL0     C27199   9.701   9.881  10.430  0.4258 -0.6875 -0.1071
  202MOL0     C27200   9.694   9.838  10.312  0.8974 -0.2587 -0.4457
  202MOL0     C27201   9.359   9.616  10.713 -1.0189 -0.0611 -0.3259
  202MOL0     C27202   9.240   9.603  10.778  0.0266 -0.2796 -0.8426
  202MOL0     H27203   9.006   9.276  10.869 -0.5131 -0.4585  2.8163
  202MOL0     H27204   8.805   9.127  10.799 -0.3725  0.0799  2.2448
  202MOL0     H27205   8.574   9.090  10.920 -2.9848 -0.8194  2.2050
  202MOL0     H27206   8.458   9.201  10.927  0.2847  0.2773 -0.6367
  202MOL0     H27207   8.339   9.126  10.721 -1.1334  1.3606  1.0326
  202MOL0     H27208   8.436   8.973  10.723  2.4688  0.2399  1.2326
  202MOL0     H27209   8.345   8.972  10.974  1.8946  0.9997 -1.0117
  202MOL0     H27210   8.215   9.062  10.895  0.5137 -0.2296  3.7408
  202MOL0     H27211   8.193   8.877  10.723 -0.4011 -2.5748  0.2755
  202MOL0     H27212   8.316   8.781  10.803  0.0790 -0.7961  0.6247
  202MOL0     H27213   8.146   8.764  10.992  0.6403  0.3737  0.4943
  202MOL0     H27214   8.029   8.858  10.894 -1.3475 -1.5042  3.0793
  202MOL0     H27215   8.046   8.697  10.713 -0.4935  1.4273  0.3176
  202MOL0     H27216   8.169   8.609  10.814  2.2177  3.1275 -0.2590
  202MOL0     H27217   7.978   8.527  10.972 -0.3804 -0.6363  0.4718
  202MOL0     H27218   7.866   8.637  10.896 -0.9997 -2.0007 -3.3867
  202MOL0     H27219   8.000   8.404  10.770  2.1849  0.9386  0.8167
  202MOL0     H27220   7.901   8.512  10.679 -0.0271 -0.8589 -0.2584
  202MOL0     H27221   7.838   8.200  10.763 -0.8029  0.4059 -1.6355
  202MOL0     H27222   7.495   8.132  10.769  1.7099 -0.3751 -2.4215
  202MOL0     H27223   7.636   8.046  10.821 -1.2651 -1.1991 -0.1605
  202MOL0     H27224   7.465   7.986  10.989  1.8349 -1.9953  1.8069
  202MOL0     H27225   7.421   8.149  11.009 -0.4030 -0.9201  2.4872
  202MOL0     H27226   7.630   8.208  11.130 -0.3960 -0.2507  0.8724
  202MOL0     H27227   7.687   8.047  11.074  0.1418  1.1234 -0.5455
  202MOL0     H27228   7.506   7.951  11.224 -0.5736 -0.7712  2.4537
  202MOL0     H27229   7.429   8.109  11.231 -0.2185 -1.2548 -2.7276
  202MOL0     H27230   7.652   8.038  11.602 -2.2227  3.0162 -4.3615
  202MOL0     H27231   7.723   7.948  11.807  0.1716 -0.9261  0.1681
  202MOL0     H27232   7.685   7.782  11.781  1.9504 -1.9570  1.6536
  202MOL0     H27233   7.861   7.839  11.802  0.0925 -0.3727  0.9895
  202MOL0     H27234   8.192   7.614  11.684  0.4538  0.0409  3.3481
  202MOL0     H27235   8.314   7.455  11.825  2.6726  0.4347 -1.8525
  202MOL0     H27236   8.462   7.243  11.881  0.2146 -2.9709 -1.2942
  202MOL0     H27237   8.334   7.283  11.996 -2.6618 -0.1512  0.2281
  202MOL0     H27238   8.471   7.098  12.080 -0.7855  6.0767 -0.3225
  202MOL0     H27239   8.308   7.025  12.027  1.1056 -0.7932  0.3024
  202MOL0     H27240   8.409   6.987  11.799 -0.0185  1.6856 -0.8169
  202MOL0     H27241   8.473   6.878  11.934  4.2311  0.2901 -1.1773
  202MOL0     H27242   8.621   7.108  11.810 -0.8197 -0.9782 -1.6967
  202MOL0     H27243   8.661   7.037  11.961  2.3158  0.5061 -0.6589
  202MOL0     H27244   8.690   6.814  11.848 -1.3631  0.5472  2.1411
  202MOL0     H27245   8.802   6.943  11.786  0.0479 -0.9854 -0.5035
  202MOL0     H27246   8.547   6.841  11.652  0.3597  0.5039  0.5373
  202MOL0     H27247   8.654   6.968  11.583 -0.8173  0.2649  0.8724
  202MOL0     H27248   8.717   6.671  11.606 -1.8769 -0.8404 -2.0012
  202MOL0     H27249   8.848   6.798  11.601  0.9302 -1.2061 -1.0299
  202MOL0     H27250   8.636   6.752  11.398 -0.0834 -0.8006 -0.0110
  202MOL0     H27251   8.799   6.689  11.394 -0.4368 -0.1289  0.2540
  202MOL0     H27252   8.066   7.140  11.667  1.2190 -0.0103 -0.6327
  202MOL0     H27253   7.949   7.309  11.520 -1.8240  0.2905  2.1700
  202MOL0     H27254   7.829   7.667  11.341 -3.9848  0.7218 -0.9213
  202MOL0     H27255   7.721   7.836  11.210  0.6967 -4.1584  1.5315
  202MOL0     H27256   8.566   9.468  10.744  0.5261  1.5861 -0.0653
  202MOL0     H27257   8.747   9.619  10.798 -4.6433 -0.8227 -1.2898
  202MOL0     H27258   9.304   9.367  11.003  0.9593 -0.9564  0.3118
  202MOL0     H27259   9.527   9.381  10.888  2.3637  3.4269  3.8967
  202MOL0     H27260   9.729   9.624  10.568  1.4815  2.3814  0.4857
  202MOL0     H27261   9.565   9.690  10.558  2.7837  4.2467 -0.0048
  202MOL0     H27262   9.745   9.691  10.800 -0.2848 -0.2441 -0.1964
  202MOL0     H27263   9.597   9.777  10.775 -2.2684 -3.2211 -1.0463
  202MOL0     H27264   9.861   9.817  10.620 -1.5919 -2.3319 -3.3852
  202MOL0     H27265   9.794   9.911  10.761  0.1867  0.5855 -1.1164
  202MOL0     H27266   9.754  10.033  10.551 -3.4301  1.7481  2.8493
  202MOL0     H27267   9.603   9.969  10.595  0.8263  4.2526 -0.4682
  202MOL0     H27268   9.694   9.812  10.208  4.6246  1.5474 -1.0677
  202MOL0     H27269   9.393   9.695  10.646  6.2927 -0.0675  2.4146
  202MOL0     H27270   9.147   9.647  10.744  0.5332  1.8558  0.3362
  203MOL0     O27271   3.996   8.076   6.223 -0.3040 -0.4266  0.0540
  203MOL0     C27272   4.027   8.025   6.115 -0.9125 -0.6556  0.8791
  203MOL0     O27273   4.063   8.097   6.013  0.0948 -0.2378  1.1668
  203MOL0     C27274   4.063   8.237   6.008  0.9532 -0.5110  0.6109
  203MOL0     C27275   3.984   8.305   5.911  0.2093  0.0288 -0.1729
  203MOL0     C27276   3.993   8.444   5.912  0.2707  0.1987 -0.4629
  203MOL0     C27277   4.078   8.518   5.992 -0.0535  0.5922 -0.4806
  203MOL0     O27278   4.077   8.661   5.995 -0.4206 -0.0644 -0.3784
  203MOL0     C27279   4.189   8.726   6.059 -0.3429  0.1099 -0.9454
  203MOL0     C27280   4.141   8.881   6.071 -0.1694  0.0425  0.3810
  203MOL0     C27281   4.006   8.918   6.145  0.6724 -1.0801 -0.2562
  203MOL0     C27282   3.993   9.069   6.156 -0.1480 -0.0847 -0.5428
  203MOL0     C27283   3.858   9.109   6.205 -0.0106  0.0779 -0.0855
  203MOL0     C27284   3.839   9.259   6.201  0.2238  0.4623 -0.2757
  203MOL0     C27285   3.711   9.297   6.270  0.5699 -0.3208  0.0606
  203MOL0     C27286   3.586   9.294   6.178  0.1007 -0.0497  0.6104
  203MOL0     N27287   3.471   9.326   6.248  1.6642 -0.4550  0.3825
  203MOL0     C27288   3.361   9.405   6.217 -0.2822  0.6500  0.0892
  203MOL0     C27289   3.260   9.393   6.311  1.1681  0.8568  0.8178
  203MOL0     C27290   3.134   9.484   6.308  0.6901  0.1375 -0.6419
  203MOL0     C27291   3.165   9.624   6.366  0.7692 -0.2914  0.7700
  203MOL0     C27292   3.119   9.642   6.506  0.1494 -0.5853 -0.2823
  203MOL0     C27293   3.131   9.792   6.536  0.0388  0.1554 -0.8831
  203MOL0     O27294   3.047   9.818   6.653 -0.6312 -0.0329  0.0163
  203MOL0     C27295   3.049   9.944   6.701 -0.9143 -0.4433  0.4414
  203MOL0     C27296   3.125  10.045   6.653 -0.7658  0.0385  0.6502
  203MOL0     C27297   3.127  10.178   6.696 -0.0505 -0.6121 -0.6957
  203MOL0     C27298   3.225  10.268   6.617  0.2060  0.4719 -0.0881
  203MOL0     C27299   3.036  10.211   6.800  0.8419 -0.0832  0.1102
  203MOL0     C27300   3.035  10.340   6.857  1.1509 -0.5202 -0.5564
  203MOL0     O27301   3.140  10.369   6.928  0.2834  0.1046 -0.6801
  203MOL0     C27302   3.144  10.470   7.020  0.2831  0.3391 -0.7195
  203MOL0     C27303   3.151  10.602   6.984 -1.7107  0.5678  0.5562
  203MOL0     C27304   3.182  10.692   7.082  0.0852  0.2234 -0.7050
  203MOL0     C27305   3.199  10.651   7.217 -0.8100 -0.1943 -0.3399
  203MOL0     O27306   3.250  10.736   7.316 -0.1708  0.2515  0.6047
  203MOL0     C27307   3.317  10.855   7.263  0.3323 -1.2076  0.6056
  203MOL0     C27308   3.401  10.932   7.361  0.2461  0.9307  0.3492
  203MOL0     C27309   3.343  11.081   7.372 -0.5638 -0.5295 -0.1123
  203MOL0     C27310   3.438  11.177   7.457 -0.6425 -0.6550 -0.4754
  203MOL0     C27311   3.395  11.317   7.436 -0.2619 -0.7872 -0.4844
  203MOL0     C27312   3.463  11.382   7.310 -0.8871  0.2520 -0.6630
  203MOL0     C27313   3.440  11.534   7.330 -0.5156 -0.4094 -0.3330
  203MOL0     C27314   3.462  11.617   7.207 -0.7103  0.8768 -0.4222
  203MOL0    Cl27315   3.444  11.802   7.251  0.8490  0.0839 -0.2466
  203MOL0     C27316   3.187  10.515   7.248 -0.3727  0.6260  0.2357
  203MOL0     C27317   3.166  10.423   7.150  0.5455  0.0890  0.5324
  203MOL0     O27318   2.940  10.419   6.829  0.3390  0.8172 -0.5905
  203MOL0     C27319   2.955  10.113   6.846 -0.2706  0.3653 -0.0291
  203MOL0     C27320   2.968   9.979   6.806  0.0738  0.0046  0.2617
  203MOL0     N27321   3.318   9.302   6.396  0.1907  0.6095 -1.0443
  203MOL0     N27322   3.433   9.262   6.365 -1.0087  0.5834 -0.2732
  203MOL0     C27323   4.174   8.447   6.076  0.3004  0.3774  0.1097
  203MOL0     C27324   4.159   8.310   6.085 -0.1177  0.3100 -0.1286
  203MOL0     C27325   4.035   7.882   6.114 -0.0002  0.1462  0.0933
  203MOL0     C27326   4.030   7.799   6.232 -0.5178 -0.2379 -0.2172
  203MOL0     C27327   4.039   7.657   6.219  0.5514 -0.0433 -0.2083
  203MOL0     C27328   4.067   7.596   6.095 -0.0411  0.1618 -0.0824
  203MOL0     O27329   4.071   7.457   6.064 -0.4447 -0.0258 -0.5627
  203MOL0     C27330   4.138   7.372   6.160 -0.2265  0.9332  0.1591
  203MOL0     C27331   4.192   7.248   6.091 -0.4041 -0.1461  1.8004
  203MOL0     C27332   4.203   7.150   6.205 -0.6456 -0.4502  0.2765
  203MOL0     C27333   4.229   7.006   6.151 -0.4852 -0.7461  0.2502
  203MOL0     C27334   4.226   6.931   6.268 -0.1649  0.1097  0.7003
  203MOL0     C27335   4.218   6.851   6.359 -0.6825 -0.3779  0.8404
  203MOL0     C27336   4.071   7.677   5.984  0.7589 -0.1972  0.6427
  203MOL0     C27337   4.049   7.816   5.991  0.2097 -0.0151 -0.1923
  203MOL0     H27338   3.912   8.259   5.844 -2.0040  1.2656  1.2298
  203MOL0     H27339   3.919   8.503   5.860 -2.8827  0.0517  3.3998
  203MOL0     H27340   4.211   8.701   6.163  3.2130  1.3308 -1.2713
  203MOL0     H27341   4.276   8.718   5.994 -2.3224 -0.1505 -3.7342
  203MOL0     H27342   4.222   8.925   6.130 -2.3179  2.7203  1.5489
  203MOL0     H27343   4.140   8.923   5.971 -2.0744 -0.0608  0.3170
  203MOL0     H27344   3.918   8.890   6.085 -1.5145  0.7829  1.9131
  203MOL0     H27345   3.995   8.866   6.240 -3.0713 -0.3842 -0.1670
  203MOL0     H27346   4.069   9.102   6.227  1.2644 -2.4800 -0.8450
  203MOL0     H27347   4.014   9.113   6.058  0.4572 -2.0362 -1.3423
  203MOL0     H27348   3.782   9.051   6.153  0.7165 -1.1026  0.1267
  203MOL0     H27349   3.861   9.072   6.308  2.6982 -4.4515 -1.5007
  203MOL0     H27350   3.924   9.301   6.255  1.9398 -0.9328 -1.7657
  203MOL0     H27351   3.853   9.285   6.096  0.7797 -1.6452 -0.7704
  203MOL0     H27352   3.689   9.241   6.362 -0.3837 -0.5624 -0.2976
  203MOL0     H27353   3.715   9.395   6.318 -1.0829 -1.0054  1.7113
  203MOL0     H27354   3.570   9.189   6.152 -0.5152  0.4206 -1.0526
  203MOL0     H27355   3.603   9.340   6.080 -0.1697 -1.2370 -0.0215
  203MOL0     H27356   3.358   9.472   6.132  0.3005 -1.4546 -1.6753
  203MOL0     H27357   3.081   9.495   6.212 -1.1358  2.6995  0.5449
  203MOL0     H27358   3.074   9.445   6.391  2.1892 -2.1919 -0.5646
  203MOL0     H27359   3.112   9.691   6.297  0.4745 -1.7570 -0.5019
  203MOL0     H27360   3.272   9.637   6.352  0.7126 -1.8624 -1.9130
  203MOL0     H27361   3.168   9.574   6.576  1.9753 -1.4799 -2.3134
  203MOL0     H27362   3.013   9.619   6.515  0.5004 -1.7544  1.1678
  203MOL0     H27363   3.097   9.851   6.450  1.7282  2.1217 -0.2799
  203MOL0     H27364   3.236   9.813   6.558 -0.5607  1.8434  0.5922
  203MOL0     H27365   3.211  10.027   6.589 -1.3803 -2.9407  0.5124
  203MOL0     H27366   3.326  10.229   6.633 -0.1191  0.7142  3.2692
  203MOL0     H27367   3.206  10.255   6.510  0.8120 -2.2264  0.0561
  203MOL0     H27368   3.222  10.376   6.637 -1.7759  0.6045 -0.9366
  203MOL0     H27369   3.135  10.644   6.886  1.0794  2.4036  0.7792
  203MOL0     H27370   3.191  10.796   7.051 -1.2013 -0.3670 -3.3962
  203MOL0     H27371   3.377  10.836   7.174 -1.5758 -0.7498 -0.8256
  203MOL0     H27372   3.241  10.925   7.228  2.7513  0.0630 -2.5874
  203MOL0     H27373   3.402  10.898   7.465 -1.3443  0.7085  0.3056
  203MOL0     H27374   3.506  10.935   7.331  0.4252 -0.8234  0.7204
  203MOL0     H27375   3.242  11.073   7.413  0.1445 -1.9568  1.4821
  203MOL0     H27376   3.342  11.127   7.272 -0.5265  0.3502  0.2810
  203MOL0     H27377   3.429  11.150   7.563  0.0174 -0.2519 -0.3108
  203MOL0     H27378   3.545  11.174   7.433 -0.8222 -1.6076 -1.2211
  203MOL0     H27379   3.410  11.379   7.525  1.3989 -1.7502 -0.0485
  203MOL0     H27380   3.286  11.315   7.429 -0.2025 -0.8426 -1.5262
  203MOL0     H27381   3.572  11.373   7.309 -0.3254  4.7582  0.2904
  203MOL0     H27382   3.420  11.340   7.218  0.2941  0.5923 -1.3894
  203MOL0     H27383   3.510  11.583   7.398  2.4459 -0.8255 -2.8276
  203MOL0     H27384   3.339  11.548   7.370 -0.8325 -0.1866 -1.1895
  203MOL0     H27385   3.395  11.597   7.122  1.2692  0.9341 -2.0794
  203MOL0     H27386   3.555  11.586   7.159 -0.6600 -1.5223  1.0778
  203MOL0     H27387   3.210  10.482   7.348 -0.2254  0.3595  0.1135
  203MOL0     H27388   3.138  10.321   7.174 -1.7934  0.2487 -1.1745
  203MOL0     H27389   2.879  10.145   6.916  0.1639 -0.4286  0.8365
  203MOL0     H27390   2.913   9.894   6.846  1.1282 -1.0406 -0.4464
  203MOL0     H27391   4.243   8.495   6.145 -0.1330  0.8421  0.2320
  203MOL0     H27392   4.235   8.264   6.148  0.9302 -1.3155 -2.4478
  203MOL0     H27393   4.029   7.828   6.336  3.5555 -1.8150  0.4552
  203MOL0     H27394   4.034   7.600   6.312  2.6477  1.6128  1.0080
  203MOL0     H27395   4.220   7.411   6.220 -0.1463  0.4154  0.3946
  203MOL0     H27396   4.052   7.360   6.227 -0.4282 -0.5612 -0.3303
  203MOL0     H27397   4.292   7.266   6.049 -3.2451  1.1862 -6.1526
  203MOL0     H27398   4.127   7.217   6.009  1.2281  0.0324  0.3810
  203MOL0     H27399   4.118   7.156   6.273  0.2867  2.0652  1.3346
  203MOL0     H27400   4.299   7.178   6.250 -1.5175  4.0997 -0.2915
  203MOL0     H27401   4.326   7.000   6.100 -0.9331  1.4742 -0.9994
  203MOL0     H27402   4.156   6.968   6.079  0.5181 -3.2643  0.4647
  203MOL0     H27403   4.203   6.777   6.434 -0.3131 -0.5981  0.7001
  203MOL0     H27404   4.074   7.632   5.885 -1.1472 -1.8261  1.2526
  203MOL0     H27405   4.046   7.868   5.896  1.9530 -3.9075 -2.6394
  204MOL0     O27406   8.949   8.544  10.685  0.0261  0.0795  0.0465
  204MOL0     C27407   9.012   8.532  10.584  0.7038  0.2331  0.7086
  204MOL0     O27408   9.028   8.418  10.516  0.3132 -0.1106  0.2999
  204MOL0     C27409   8.933   8.317  10.523 -0.1925 -0.0639 -0.8657
  204MOL0     C27410   8.990   8.197  10.482  0.2295  0.6880 -0.1749
  204MOL0     C27411   8.913   8.087  10.469  0.1585 -0.3624 -0.5352
  204MOL0     C27412   8.776   8.084  10.483  0.3451 -0.0882 -0.0453
  204MOL0     O27413   8.707   7.961  10.464  0.2840 -0.0536  0.0347
  204MOL0     C27414   8.769   7.862  10.375  0.2030 -0.1745 -0.6762
  204MOL0     C27415   8.662   7.759  10.336  0.0387 -0.0077 -0.6969
  204MOL0     C27416   8.718   7.642  10.258  0.2631  0.7634 -0.2053
  204MOL0     C27417   8.622   7.513  10.271  0.3381 -0.4453  0.9630
  204MOL0     C27418   8.474   7.568  10.242 -0.0876  0.5563  0.3331
  204MOL0     C27419   8.378   7.462  10.187 -0.5061 -0.0649  0.3303
  204MOL0     C27420   8.425   7.398  10.055  0.3614 -0.3365 -1.4724
  204MOL0     C27421   8.488   7.489   9.960 -0.6050 -0.9087  0.0932
  204MOL0     N27422   8.475   7.432   9.824  0.0583 -0.4514  0.5209
  204MOL0     C27423   8.538   7.322   9.776 -0.7674  1.0393  0.3446
  204MOL0     C27424   8.509   7.319   9.645  0.4184  0.3495 -0.1215
  204MOL0     C27425   8.561   7.219   9.543 -0.0894  0.3065  0.2757
  204MOL0     C27426   8.678   7.282   9.466 -0.3777 -0.2787 -0.0924
  204MOL0     C27427   8.633   7.389   9.374  0.1307  0.1058  0.7447
  204MOL0     C27428   8.734   7.423   9.266 -0.3315 -0.2247 -0.0236
  204MOL0     O27429   8.848   7.490   9.331 -0.1483  1.0754 -0.6747
  204MOL0     C27430   8.848   7.626   9.339  0.2306  0.6446 -0.1950
  204MOL0     C27431   8.780   7.718   9.266 -0.4590  0.4205  0.1621
  204MOL0     C27432   8.816   7.856   9.253 -0.7398  0.6596  0.1273
  204MOL0     C27433   8.764   7.928   9.139  0.0960 -0.1095 -0.3085
  204MOL0     C27434   8.911   7.912   9.343 -0.7500  0.3096 -0.5865
  204MOL0     C27435   8.964   8.054   9.351 -0.8082 -0.2940 -0.0753
  204MOL0     O27436   9.066   8.090   9.435 -0.4171  0.0969  0.2744
  204MOL0     C27437   9.074   8.220   9.482  0.4393  0.6780  0.1155
  204MOL0     C27438   8.997   8.266   9.588 -0.6116 -0.3608 -0.1436
  204MOL0     C27439   8.998   8.405   9.621  0.4747  0.0690 -0.7571
  204MOL0     C27440   9.090   8.494   9.562  0.7013  1.0685 -0.5900
  204MOL0     O27441   9.096   8.625   9.599  0.2219  0.0466 -0.4347
  204MOL0     C27442   9.228   8.681   9.591 -0.4234 -0.3714 -0.4088
  204MOL0     C27443   9.225   8.818   9.653  0.7237  0.4236 -0.2081
  204MOL0     C27444   9.131   8.912   9.583 -0.5742 -1.3260  0.7259
  204MOL0     C27445   9.146   9.053   9.654  0.5086 -0.3022  0.1721
  204MOL0     C27446   9.254   9.138   9.584 -0.2192  1.4344 -0.1829
  204MOL0     C27447   9.303   9.256   9.657  0.7116  0.5147 -0.8813
  204MOL0     C27448   9.391   9.337   9.562 -0.0326 -0.1418 -0.6228
  204MOL0     C27449   9.471   9.437   9.633 -0.1342 -0.8327  0.1079
  204MOL0    Cl27450   9.589   9.504   9.523  0.3317 -0.0931  0.5466
  204MOL0     C27451   9.171   8.446   9.459  0.7146  0.4686  0.0480
  204MOL0     C27452   9.157   8.314   9.419 -0.8490 -0.4093  0.6345
  204MOL0     O27453   8.881   8.134   9.300  0.4853  0.4707 -0.2507
  204MOL0     C27454   8.960   7.822   9.440 -0.7398 -0.7799  0.6233
  204MOL0     C27455   8.935   7.686   9.432 -0.0669  0.6311 -0.1178
  204MOL0     N27456   8.427   7.424   9.621 -0.6235  0.1184 -0.9357
  204MOL0     N27457   8.400   7.491   9.727 -0.4610  0.1652 -0.5349
  204MOL0     C27458   8.714   8.204  10.519 -0.7250 -0.2370  0.4801
  204MOL0     C27459   8.798   8.321  10.534  0.1150 -0.4841 -0.0682
  204MOL0     C27460   9.107   8.652  10.552  0.1203  0.7563  0.7228
  204MOL0     C27461   9.108   8.770  10.634 -0.1223 -0.8152 -0.1028
  204MOL0     C27462   9.206   8.871  10.610 -0.2149  0.8471 -0.5130
  204MOL0     C27463   9.297   8.859  10.500  0.4771 -0.1264  0.3695
  204MOL0     O27464   9.381   8.971  10.490  0.0689 -0.0365  0.2943
  204MOL0     C27465   9.473   8.991  10.383 -0.2053 -0.1347  0.2669
  204MOL0     C27466   9.536   9.127  10.398 -0.1768  0.2289 -0.0066
  204MOL0     C27467   9.434   9.234  10.350  0.0977 -0.9990  0.2694
  204MOL0     C27468   9.451   9.370  10.412  0.2400 -0.4544 -0.2466
  204MOL0     C27469   9.577   9.427  10.362 -0.5248  0.2727 -0.3961
  204MOL0     C27470   9.687   9.465  10.314 -0.2787 -0.6690 -0.5763
  204MOL0     C27471   9.294   8.740  10.426 -0.1863  0.0067  0.0852
  204MOL0     C27472   9.201   8.638  10.449  0.4629 -0.0176 -0.2441
  204MOL0     H27473   9.097   8.182  10.469 -0.1125 -3.3173  0.2382
  204MOL0     H27474   8.966   7.995  10.450  2.6310  0.7815  0.4001
  204MOL0     H27475   8.810   7.895  10.278 -1.0629  0.7676 -0.9060
  204MOL0     H27476   8.840   7.801  10.432  0.5957  0.3853 -0.5610
  204MOL0     H27477   8.615   7.722  10.428 -1.7510  1.9197 -0.7510
  204MOL0     H27478   8.590   7.819  10.279 -0.3932 -0.7761 -0.9709
  204MOL0     H27479   8.714   7.676  10.154  0.3873  1.2408 -0.0560
  204MOL0     H27480   8.822   7.620  10.282  0.4921  1.9696 -0.0452
  204MOL0     H27481   8.660   7.428  10.214  1.0776  0.7309 -0.3546
  204MOL0     H27482   8.624   7.478  10.375 -0.1735 -0.3949  0.9910
  204MOL0     H27483   8.425   7.613  10.329 -2.4448 -0.4104 -0.4311
  204MOL0     H27484   8.482   7.654  10.175  1.5600 -0.4306 -0.7973
  204MOL0     H27485   8.374   7.387  10.266  1.8316  0.6602  1.2337
  204MOL0     H27486   8.289   7.525  10.185 -1.1199 -0.9050  0.7452
  204MOL0     H27487   8.500   7.322  10.079 -0.6639 -0.9846 -0.2047
  204MOL0     H27488   8.350   7.336  10.006 -0.0580  0.8481 -2.3802
  204MOL0     H27489   8.593   7.508   9.983 -0.9554  3.1638 -0.8708
  204MOL0     H27490   8.439   7.586   9.949 -2.4138 -1.4190  2.5736
  204MOL0     H27491   8.588   7.256   9.846  2.2901 -1.1910 -3.5186
  204MOL0     H27492   8.584   7.134   9.608  1.5982  0.7689  0.3354
  204MOL0     H27493   8.485   7.183   9.473 -0.8598 -1.8307  2.0851
  204MOL0     H27494   8.734   7.203   9.416  0.3380  0.4288 -0.4283
  204MOL0     H27495   8.746   7.322   9.541  0.8714  0.4385 -1.5397
  204MOL0     H27496   8.612   7.479   9.434  4.1219  1.3846  0.4966
  204MOL0     H27497   8.546   7.342   9.327  0.6189 -2.7321  2.4298
  204MOL0     H27498   8.692   7.489   9.190  1.0845  2.0105  1.0541
  204MOL0     H27499   8.764   7.332   9.212 -0.9273 -1.2989  1.3839
  204MOL0     H27500   8.708   7.696   9.188 -0.9153 -0.9640  0.9271
  204MOL0     H27501   8.687   7.999   9.171  2.0752  1.3958  1.3984
  204MOL0     H27502   8.836   7.997   9.095 -0.4547  0.6930  0.0037
  204MOL0     H27503   8.725   7.860   9.063 -0.2555  2.2635 -2.4226
  204MOL0     H27504   8.928   8.195   9.633 -0.8343 -0.3972 -0.5360
  204MOL0     H27505   8.935   8.439   9.703  1.3189  1.0185 -0.4855
  204MOL0     H27506   9.306   8.619   9.636 -2.6631 -2.5767  0.6687
  204MOL0     H27507   9.276   8.701   9.494  0.1407 -2.0693 -0.5252
  204MOL0     H27508   9.202   8.808   9.760  1.5756 -0.4722 -0.0890
  204MOL0     H27509   9.330   8.850   9.651  0.3435  1.7476  0.1587
  204MOL0     H27510   9.028   8.874   9.590 -1.2255 -0.2252 -1.7169
  204MOL0     H27511   9.156   8.899   9.477 -2.4206 -1.6523  0.2887
  204MOL0     H27512   9.048   9.100   9.642 -2.5847 -4.6258  4.5415
  204MOL0     H27513   9.162   9.054   9.762  2.8353  0.9952 -0.1260
  204MOL0     H27514   9.214   9.166   9.486  0.4678  3.0569 -0.0242
  204MOL0     H27515   9.342   9.074   9.573  0.5703  1.5202  4.0144
  204MOL0     H27516   9.218   9.317   9.688  1.6775  1.0685  0.8327
  204MOL0     H27517   9.360   9.231   9.746 -1.2099  2.5082  1.0450
  204MOL0     H27518   9.323   9.396   9.499  0.2347  0.2145 -0.5745
  204MOL0     H27519   9.465   9.281   9.504  1.7032 -0.0918  1.4265
  204MOL0     H27520   9.532   9.403   9.717  0.4785  1.2926  0.5998
  204MOL0     H27521   9.410   9.520   9.668 -1.6888 -1.9451  0.1468
  204MOL0     H27522   9.237   8.514   9.407  0.5345  0.2423 -0.4833
  204MOL0     H27523   9.224   8.271   9.346  1.0813 -0.9788  2.6183
  204MOL0     H27524   9.037   7.845   9.513 -0.3458 -1.1970  0.3438
  204MOL0     H27525   8.990   7.626   9.504 -1.6489  3.0463  3.3930
  204MOL0     H27526   8.606   8.200  10.516 -0.7322 -3.9442  1.4145
  204MOL0     H27527   8.743   8.411  10.559 -2.2343 -1.2200 -2.0992
  204MOL0     H27528   9.047   8.799  10.718  1.0350  3.6289 -0.5371
  204MOL0     H27529   9.225   8.950  10.682  2.5720 -1.0470  0.9792
  204MOL0     H27530   9.547   8.912  10.370  0.3596  0.6433 -1.7730
  204MOL0     H27531   9.410   8.994  10.294  0.4165  3.3301 -0.2103
  204MOL0     H27532   9.626   9.140  10.337  0.6530 -0.3576  1.0466
  204MOL0     H27533   9.570   9.143  10.501 -1.3007  0.1590  0.3906
  204MOL0     H27534   9.331   9.204  10.376 -0.6181  0.2082 -1.0787
  204MOL0     H27535   9.434   9.250  10.242  2.5489 -1.0638  0.1981
  204MOL0     H27536   9.450   9.372  10.521  1.4766  3.4227 -0.1505
  204MOL0     H27537   9.371   9.437  10.381  1.2089  0.6748 -0.3644
  204MOL0     H27538   9.788   9.482  10.285  0.0298 -2.6599 -0.8644
  204MOL0     H27539   9.370   8.721  10.351  0.4383 -1.2721  0.9971
  204MOL0     H27540   9.214   8.549  10.388  0.1614 -1.1814  1.3265
  205MOL0     O27541   1.962   7.780   3.657 -0.4385 -0.6860 -0.8219
  205MOL0     C27542   1.880   7.692   3.624  1.1015 -0.1607 -0.2643
  205MOL0     O27543   1.889   7.567   3.685  0.1444  0.9623  0.5445
  205MOL0     C27544   2.010   7.550   3.748 -0.1532 -1.0984 -0.7178
  205MOL0     C27545   2.100   7.464   3.692  0.1898  0.8287  0.6194
  205MOL0     C27546   2.211   7.418   3.759  1.3046 -0.0364  0.2680
  205MOL0     C27547   2.241   7.478   3.882  0.2534  1.0323 -1.3318
  205MOL0     O27548   2.348   7.444   3.953 -0.9172 -0.1688 -0.7239
  205MOL0     C27549   2.472   7.488   3.891 -0.0207 -0.7505  0.4300
  205MOL0     C27550   2.487   7.638   3.887  0.3564  0.1763  0.0594
  205MOL0     C27551   2.468   7.708   4.022 -0.6549  1.3235 -1.3863
  205MOL0     C27552   2.495   7.858   4.002  0.0777  0.7678 -0.6427
  205MOL0     C27553   2.514   7.937   4.127 -0.5399  0.2996 -0.7641
  205MOL0     C27554   2.620   7.905   4.239 -0.1952 -1.1192 -0.0690
  205MOL0     C27555   2.597   7.994   4.363 -0.2107  0.2477  0.5303
  205MOL0     C27556   2.610   8.146   4.339  0.0131 -0.5469  0.1034
  205MOL0     N27557   2.743   8.188   4.282 -0.4306  0.2342  0.7861
  205MOL0     C27558   2.759   8.293   4.195  0.0038 -0.6777 -1.1489
  205MOL0     C27559   2.879   8.357   4.233  0.1269 -0.1955 -0.0862
  205MOL0     C27560   2.941   8.473   4.166  0.6426 -0.7201  0.2786
  205MOL0     C27561   2.860   8.598   4.220 -0.1828  0.0867 -0.5529
  205MOL0     C27562   2.927   8.737   4.199 -0.1644 -0.6444  0.0149
  205MOL0     C27563   2.843   8.866   4.234 -0.0085 -0.4486  0.0812
  205MOL0     O27564   2.720   8.865   4.175  0.2078  0.4388  0.2584
  205MOL0     C27565   2.652   8.987   4.141  0.3149 -0.0407  0.0881
  205MOL0     C27566   2.520   8.998   4.175 -0.3161 -0.0936  0.2722
  205MOL0     C27567   2.444   9.108   4.136  0.0998  0.7020 -0.5111
  205MOL0     C27568   2.304   9.101   4.186 -0.0597 -0.4350  0.0192
  205MOL0     C27569   2.496   9.205   4.050 -0.9450 -0.3013  0.0396
  205MOL0     C27570   2.419   9.329   4.012 -0.2491 -1.3454 -0.0967
  205MOL0     O27571   2.497   9.437   3.975 -0.4244 -0.1899 -0.0822
  205MOL0     C27572   2.428   9.545   3.935 -1.0487 -0.2393 -0.0805
  205MOL0     C27573   2.358   9.548   3.813  0.2040  1.0271 -0.2576
  205MOL0     C27574   2.300   9.660   3.767  0.5156 -0.0291  0.0677
  205MOL0     C27575   2.289   9.776   3.839  0.3406 -0.3905  0.4692
  205MOL0     O27576   2.225   9.886   3.785  0.1613 -0.8503 -0.3880
  205MOL0     C27577   2.303  10.007   3.796  1.0305 -0.4142  0.2098
  205MOL0     C27578   2.270  10.067   3.659  0.7674  0.4058  0.2431
  205MOL0     C27579   2.345  10.196   3.646  0.7802  0.5817 -0.4137
  205MOL0     C27580   2.494  10.181   3.631  0.1069 -0.6173  0.7883
  205MOL0     C27581   2.566  10.307   3.650  0.3037 -0.4370  0.2135
  205MOL0     C27582   2.537  10.415   3.550 -0.5937  0.1668 -0.3651
  205MOL0     C27583   2.576  10.382   3.412 -0.4654  0.0566  0.0505
  205MOL0     C27584   2.572  10.505   3.329  0.3826 -0.1973 -0.8428
  205MOL0    Cl27585   2.417  10.601   3.361  0.1421  0.4613 -0.0058
  205MOL0     C27586   2.357   9.780   3.966 -0.4493 -0.4379  0.0065
  205MOL0     C27587   2.422   9.661   4.018 -0.2443  1.5217 -0.7898
  205MOL0     O27588   2.300   9.319   4.005 -0.9338 -0.6595 -0.0638
  205MOL0     C27589   2.630   9.189   4.011  0.5701  0.0100  0.5000
  205MOL0     C27590   2.706   9.082   4.055 -0.1112  0.0733  0.2402
  205MOL0     N27591   2.924   8.297   4.341 -0.7067  0.3979  0.0894
  205MOL0     N27592   2.850   8.194   4.367  0.2574 -0.1641  0.3493
  205MOL0     C27593   2.148   7.563   3.943 -0.6270 -0.0881 -0.1495
  205MOL0     C27594   2.032   7.602   3.874  0.0831 -0.0485  0.2284
  205MOL0     C27595   1.782   7.718   3.527 -0.2528  1.2742  0.0564
  205MOL0     C27596   1.713   7.604   3.470 -0.2488 -0.2267 -0.5951
  205MOL0     C27597   1.618   7.622   3.367  0.1176 -0.0389 -0.5597
  205MOL0     C27598   1.606   7.743   3.297  0.0596  0.0503 -0.4032
  205MOL0     O27599   1.528   7.777   3.191 -0.0642 -0.0350 -0.6455
  205MOL0     C27600   1.492   7.683   3.089 -0.1962  0.4037 -1.5033
  205MOL0     C27601   1.340   7.656   3.095  0.0006 -0.4440  1.4619
  205MOL0     C27602   1.275   7.594   2.967  0.5889 -0.9104 -0.6078
  205MOL0     C27603   1.316   7.448   2.914  0.9872 -0.5911  0.4665
  205MOL0     C27604   1.281   7.448   2.771  0.2388 -0.2320 -1.1012
  205MOL0     C27605   1.273   7.463   2.656 -1.4966  0.0929  0.3411
  205MOL0     C27606   1.691   7.846   3.340  0.1766 -0.0506 -1.3473
  205MOL0     C27607   1.769   7.835   3.456 -0.2021 -0.6028  1.3507
  205MOL0     H27608   2.058   7.414   3.606  3.1687 -2.4160  0.8417
  205MOL0     H27609   2.281   7.351   3.709  1.5652  1.8192 -2.0628
  205MOL0     H27610   2.558   7.441   3.940  0.1868 -0.0430  0.7571
  205MOL0     H27611   2.485   7.441   3.793  3.7612 -0.6463  0.7242
  205MOL0     H27612   2.586   7.665   3.848  0.8843 -1.3793  0.2466
  205MOL0     H27613   2.413   7.678   3.818 -1.4359  1.6822  2.6732
  205MOL0     H27614   2.371   7.687   4.068  0.5058  0.8789  0.9945
  205MOL0     H27615   2.538   7.662   4.092  0.2339  2.8737 -1.1953
  205MOL0     H27616   2.584   7.859   3.939  0.0030 -0.2406 -0.7824
  205MOL0     H27617   2.414   7.906   3.946 -3.1857 -1.4866  1.7647
  205MOL0     H27618   2.534   8.040   4.097  0.7566 -0.3339 -2.1675
  205MOL0     H27619   2.419   7.934   4.181  1.3181 -0.8709  2.7251
  205MOL0     H27620   2.615   7.804   4.280 -2.5944 -1.0880 -0.1375
  205MOL0     H27621   2.720   7.923   4.197 -1.2009  0.0489 -2.1007
  205MOL0     H27622   2.500   7.980   4.411  0.7803  0.2778  2.6438
  205MOL0     H27623   2.672   7.969   4.438  0.9842  3.1691  0.4425
  205MOL0     H27624   2.591   8.206   4.428  0.4872 -2.2313  1.3901
  205MOL0     H27625   2.526   8.173   4.274 -0.8961  1.2717  1.9198
  205MOL0     H27626   2.695   8.335   4.118 -0.3779 -0.8247 -0.9125
  205MOL0     H27627   3.047   8.486   4.189  0.7615 -2.5963  0.9876
  205MOL0     H27628   2.921   8.489   4.059  0.3593  0.8381  0.5495
  205MOL0     H27629   2.847   8.594   4.329  1.3208 -1.3455 -0.3918
  205MOL0     H27630   2.759   8.594   4.178 -2.0759 -1.5205  3.5749
  205MOL0     H27631   2.948   8.744   4.092 -1.9728  0.1774 -0.3215
  205MOL0     H27632   3.026   8.743   4.245 -0.4904 -1.3266  0.8296
  205MOL0     H27633   2.900   8.953   4.199 -2.0475  1.3296  0.9148
  205MOL0     H27634   2.839   8.872   4.343  2.9845  1.9917  0.2054
  205MOL0     H27635   2.482   8.924   4.244  1.1485  0.3707  1.6669
  205MOL0     H27636   2.238   9.061   4.109  2.1199  1.2338 -2.9390
  205MOL0     H27637   2.295   9.047   4.281  0.6287  2.1221  1.6278
  205MOL0     H27638   2.269   9.203   4.205  1.7500  0.2094  0.1637
  205MOL0     H27639   2.349   9.454   3.760  1.5557 -0.0659  1.3540
  205MOL0     H27640   2.258   9.658   3.666 -1.6082  1.2344  0.8507
  205MOL0     H27641   2.254  10.066   3.874  0.0017 -0.3020 -0.4987
  205MOL0     H27642   2.409   9.996   3.821  0.9510  1.1211  1.3929
  205MOL0     H27643   2.295   9.989   3.586 -0.9212  0.5986 -0.5977
  205MOL0     H27644   2.165  10.087   3.638  1.1121  0.8257 -1.2031
  205MOL0     H27645   2.323  10.260   3.732 -1.6288 -0.0539 -0.4913
  205MOL0     H27646   2.317  10.248   3.554 -0.8655 -2.3281 -1.7132
  205MOL0     H27647   2.530  10.104   3.700  1.6176 -0.9861 -0.3639
  205MOL0     H27648   2.515  10.149   3.528  1.6694  0.7671  0.6319
  205MOL0     H27649   2.671  10.275   3.649 -0.1369 -2.1682 -2.4797
  205MOL0     H27650   2.536  10.347   3.747 -0.4965  0.5383 -0.4220
  205MOL0     H27651   2.432  10.444   3.558 -1.3512 -2.1374 -0.9631
  205MOL0     H27652   2.600  10.501   3.572  0.9987 -0.5905 -1.7562
  205MOL0     H27653   2.505  10.310   3.371 -2.2373  1.3763  0.6619
  205MOL0     H27654   2.676  10.340   3.427 -0.5835  0.2288  1.4759
  205MOL0     H27655   2.579  10.499   3.220  1.3990  1.1346 -0.8774
  205MOL0     H27656   2.655  10.569   3.361  2.0257 -0.3813 -4.2477
  205MOL0     H27657   2.357   9.877   4.013  3.0899 -0.6189  0.6865
  205MOL0     H27658   2.469   9.647   4.115 -1.8433  0.0884 -0.1644
  205MOL0     H27659   2.668   9.279   3.963  1.5260  1.1629  3.2116
  205MOL0     H27660   2.811   9.069   4.029  0.0199  2.2837 -0.5702
  205MOL0     H27661   2.164   7.595   4.045 -0.3926  0.4525 -0.3525
  205MOL0     H27662   1.946   7.662   3.903  1.5671  2.2296  0.1538
  205MOL0     H27663   1.719   7.508   3.520 -0.0107 -0.4709 -1.0847
  205MOL0     H27664   1.554   7.539   3.340  1.1485 -0.9248 -0.3473
  205MOL0     H27665   1.514   7.737   2.997  1.2237  2.8821  0.1860
  205MOL0     H27666   1.535   7.585   3.112 -1.1847 -0.7964 -4.2956
  205MOL0     H27667   1.293   7.751   3.125  2.1098  0.9365  0.6086
  205MOL0     H27668   1.325   7.588   3.179 -1.7394 -2.1775 -0.1348
  205MOL0     H27669   1.310   7.657   2.885 -0.9687 -1.5101 -1.7740
  205MOL0     H27670   1.167   7.613   2.968  0.9838  1.8319 -0.8422
  205MOL0     H27671   1.264   7.364   2.962 -1.9351  0.9483  0.2270
  205MOL0     H27672   1.423   7.439   2.935  1.0739 -0.9918 -0.1136
  205MOL0     H27673   1.268   7.462   2.549  1.3895 -5.4695 -0.0937
  205MOL0     H27674   1.692   7.940   3.285 -3.3255  0.1316 -1.3111
  205MOL0     H27675   1.827   7.915   3.499 -2.1964  1.6994  0.0278
  206MOL0     O27676   6.514   1.700  11.379  0.0563 -0.0653 -0.1680
  206MOL0     C27677   6.585   1.759  11.298  0.4953  0.2992 -0.1574
  206MOL0     O27678   6.651   1.709  11.184 -0.0874 -0.4907  0.1051
  206MOL0     C27679   6.641   1.586  11.136  0.2841  0.8926  0.2628
  206MOL0     C27680   6.517   1.523  11.110 -0.0520  0.4455  0.6756
  206MOL0     C27681   6.516   1.384  11.102 -0.0478  0.1373 -0.6555
  206MOL0     C27682   6.633   1.313  11.074  0.2363 -0.4743 -0.2005
  206MOL0     O27683   6.630   1.182  11.039 -0.0138  0.1128 -0.2212
  206MOL0     C27684   6.581   1.086  11.136  0.7391 -0.3482 -0.2170
  206MOL0     C27685   6.685   0.974  11.154 -0.1092 -0.5194 -0.4470
  206MOL0     C27686   6.668   0.873  11.264  0.8067 -0.4741  0.6523
  206MOL0     C27687   6.729   0.738  11.209  0.0846 -0.7079  0.6560
  206MOL0     C27688   6.696   0.616  11.290 -0.6649  0.3180  0.3607
  206MOL0     C27689   6.698   0.480  11.215  0.0316 -1.0561 -0.5543
  206MOL0     C27690   6.662   0.366  11.308 -0.0081  0.2983 -0.6059
  206MOL0     C27691   6.516   0.347  11.366  0.2316 -0.6648 -0.4790
  206MOL0     N27692   6.404   0.363  11.273  0.5301  0.1616  0.1814
  206MOL0     C27693   6.377   0.284  11.155 -0.4727 -0.0486 -0.4201
  206MOL0     C27694   6.261   0.330  11.114 -0.0314  0.1138  0.6460
  206MOL0     C27695   6.178   0.265  11.009  0.3993 -0.2116 -0.6404
  206MOL0     C27696   6.081   0.163  11.071 -0.6534 -0.3799  0.8812
  206MOL0     C27697   5.987   0.107  10.951 -0.2435 -0.3038 -0.1823
  206MOL0     C27698   6.065   0.012  10.853 -0.1530 -1.5650  0.5140
  206MOL0     O27699   6.080  -0.108  10.915  0.4528  1.3802  0.5529
  206MOL0     C27700   6.166  -0.204  10.857  0.2893 -0.2910 -0.0905
  206MOL0     C27701   6.172  -0.331  10.908  0.5431  1.1053  1.1000
  206MOL0     C27702   6.261  -0.427  10.855  0.3900 -0.1442  0.0018
  206MOL0     C27703   6.272  -0.552  10.945 -0.4104 -0.1386  0.8223
  206MOL0     C27704   6.336  -0.403  10.742  0.2284  1.1687  0.4226
  206MOL0     C27705   6.411  -0.507  10.671 -0.5246  1.0777  0.0084
  206MOL0     O27706   6.415  -0.494  10.536 -0.2701  0.1549  0.6124
  206MOL0     C27707   6.480  -0.591  10.469 -0.2262 -0.3784 -0.5841
  206MOL0     C27708   6.467  -0.729  10.491  0.1997 -0.7606  0.3754
  206MOL0     C27709   6.534  -0.819  10.403  0.6847 -0.2122 -0.5034
  206MOL0     C27710   6.624  -0.777  10.306 -0.3939 -0.1782 -0.5135
  206MOL0     O27711   6.704  -0.868  10.241 -0.2000  0.4690 -0.8772
  206MOL0     C27712   6.842  -0.841  10.210  0.0869 -0.2381 -0.8590
  206MOL0     C27713   6.892  -0.969  10.158 -0.7234 -0.5782 -0.7189
  206MOL0     C27714   6.887  -1.074  10.265  0.2062  0.0265  0.4185
  206MOL0     C27715   6.948  -1.201  10.216 -0.0066  0.6104  0.0082
  206MOL0     C27716   6.958  -1.288  10.345 -0.1238 -0.3822 -0.2940
  206MOL0     C27717   7.038  -1.435  10.326 -1.0175 -0.1569 -0.8043
  206MOL0     C27718   7.181  -1.396  10.263  0.7525 -0.0173 -0.4148
  206MOL0     C27719   7.269  -1.293  10.341  0.3706  0.0208 -0.0124
  206MOL0    Cl27720   7.400  -1.230  10.238 -0.1322 -0.1715  0.6364
  206MOL0     C27721   6.636  -0.641  10.282 -1.0927 -0.1434 -0.0732
  206MOL0     C27722   6.564  -0.549  10.365  0.9104  0.4602 -0.1260
  206MOL0     O27723   6.478  -0.581  10.740 -0.2549 -0.4198  0.2007
  206MOL0     C27724   6.313  -0.275  10.680  0.0843  1.2079 -1.0899
  206MOL0     C27725   6.246  -0.175  10.745  0.4165  0.0730 -0.8546
  206MOL0     N27726   6.243   0.452  11.180  1.3683 -0.3575  0.5860
  206MOL0     N27727   6.320   0.470  11.275  1.3779  0.9015  0.3018
  206MOL0     C27728   6.757   1.385  11.074  0.5020  1.2137  0.2892
  206MOL0     C27729   6.764   1.519  11.118  1.2458  0.3159 -0.6456
  206MOL0     C27730   6.582   1.907  11.307  0.0644  0.2357  0.1095
  206MOL0     C27731   6.491   1.977  11.394  0.5570 -0.1052  0.8270
  206MOL0     C27732   6.502   2.115  11.414  0.7607  0.2679 -0.5006
  206MOL0     C27733   6.587   2.191  11.342  0.3027  0.8440 -0.6016
  206MOL0     O27734   6.613   2.324  11.358  0.0492 -0.3479  0.1535
  206MOL0     C27735   6.510   2.401  11.430 -0.8010 -0.6739  0.5386
  206MOL0     C27736   6.553   2.542  11.462  0.7476  0.6027  0.3274
  206MOL0     C27737   6.584   2.624  11.345 -0.7879 -0.4916  0.0870
  206MOL0     C27738   6.471   2.674  11.253 -0.3451  0.5210 -0.0185
  206MOL0     C27739   6.446   2.574  11.148  0.8602  0.9112 -0.3225
  206MOL0     C27740   6.453   2.474  11.081  0.3365  0.2514  0.8117
  206MOL0     C27741   6.676   2.118  11.249 -0.5067  0.0503 -0.3846
  206MOL0     C27742   6.679   1.981  11.238 -0.2074  0.4055 -0.0805
  206MOL0     H27743   6.423   1.576  11.122  0.8892  2.0840  1.1024
  206MOL0     H27744   6.418   1.341  11.087  0.1731 -1.6643  2.2107
  206MOL0     H27745   6.573   1.127  11.238  2.2920  0.4961 -0.4033
  206MOL0     H27746   6.478   1.053  11.119  0.4407  1.2520 -1.8048
  206MOL0     H27747   6.684   0.927  11.055 -0.5877 -0.1537 -0.6204
  206MOL0     H27748   6.778   1.030  11.168 -0.3138  0.1128 -1.4643
  206MOL0     H27749   6.731   0.897  11.350  1.0571 -1.3033  0.7117
  206MOL0     H27750   6.563   0.864  11.291  0.6575 -4.5839 -0.5917
  206MOL0     H27751   6.695   0.727  11.105 -0.9621 -0.6526  0.9806
  206MOL0     H27752   6.838   0.741  11.209  0.0814 -0.3335  0.0010
  206MOL0     H27753   6.777   0.610  11.363  1.9754  0.6616 -2.3558
  206MOL0     H27754   6.601   0.618  11.345 -1.6148  2.1470 -1.2165
  206MOL0     H27755   6.628   0.493  11.132 -1.5636  1.8525  1.0649
  206MOL0     H27756   6.796   0.451  11.176 -0.1304  1.4935 -3.2038
  206MOL0     H27757   6.687   0.275  11.253  2.3145 -0.5007  1.5715
  206MOL0     H27758   6.730   0.358  11.394  0.4262 -2.6696 -1.1226
  206MOL0     H27759   6.505   0.435  11.430  1.0372 -1.0629  0.2198
  206MOL0     H27760   6.506   0.254  11.421  0.7870  0.4878  1.6578
  206MOL0     H27761   6.425   0.190  11.129 -0.6789 -1.4339  3.5364
  206MOL0     H27762   6.112   0.344  10.973  1.4648  0.6986 -0.6564
  206MOL0     H27763   6.240   0.222  10.929 -1.4722 -3.4912 -0.5060
  206MOL0     H27764   6.011   0.211  11.139 -1.8453 -1.0481  0.1716
  206MOL0     H27765   6.127   0.077  11.122 -2.2270 -0.7859  1.6818
  206MOL0     H27766   5.957   0.202  10.906  2.9656  1.2902  0.7288
  206MOL0     H27767   5.904   0.055  10.999  0.7825  0.2567  2.3195
  206MOL0     H27768   6.161   0.058  10.826  1.0332 -3.1508  1.8375
  206MOL0     H27769   6.001  -0.001  10.765 -3.9443  0.1293  2.7439
  206MOL0     H27770   6.114  -0.362  10.994  1.9811 -1.0749  1.3777
  206MOL0     H27771   6.228  -0.521  11.040  1.2416  2.4632  0.8201
  206MOL0     H27772   6.221  -0.640  10.905 -0.1675  0.2793 -0.4645
  206MOL0     H27773   6.376  -0.581  10.964  0.7269  2.1253 -1.3321
  206MOL0     H27774   6.405  -0.759  10.575  2.8369  1.1631  3.2403
  206MOL0     H27775   6.531  -0.926  10.419  3.1087 -0.2489  0.0982
  206MOL0     H27776   6.847  -0.768  10.129 -1.8464 -1.7061 -2.4218
  206MOL0     H27777   6.899  -0.805  10.296 -1.8291 -1.1348  0.8742
  206MOL0     H27778   6.830  -0.995  10.072  0.3556  1.5892 -2.2425
  206MOL0     H27779   6.998  -0.958  10.132 -0.3944 -0.1785  0.7263
  206MOL0     H27780   6.783  -1.097  10.290  0.9229 -2.5576  1.3379
  206MOL0     H27781   6.937  -1.036  10.355  0.4394 -2.3335  1.3480
  206MOL0     H27782   6.899  -1.245  10.128  2.2722 -0.5718 -0.7675
  206MOL0     H27783   7.051  -1.173  10.190  0.6963  1.0531  2.9408
  206MOL0     H27784   6.855  -1.307  10.379  0.4007 -3.5445 -0.0913
  206MOL0     H27785   7.019  -1.243  10.423 -0.8025  0.6567 -0.3481
  206MOL0     H27786   7.043  -1.481  10.426  0.9250  1.9795  0.1716
  206MOL0     H27787   6.985  -1.497  10.253 -0.6969 -1.9349  0.4078
  206MOL0     H27788   7.158  -1.361  10.162  0.4298  2.7340  0.5314
  206MOL0     H27789   7.229  -1.494  10.265 -0.8441 -0.8453 -0.2258
  206MOL0     H27790   7.312  -1.333  10.434  1.6421  1.6920  0.1762
  206MOL0     H27791   7.212  -1.204  10.371 -2.0840 -0.7522 -2.0756
  206MOL0     H27792   6.699  -0.620  10.196  1.0735 -3.9849  0.3357
  206MOL0     H27793   6.562  -0.445  10.334  0.1175 -0.0859 -2.0515
  206MOL0     H27794   6.355  -0.252  10.582  2.4418  1.7246 -0.0340
  206MOL0     H27795   6.253  -0.073  10.708  1.8037 -0.2357 -1.4830
  206MOL0     H27796   6.852   1.338  11.053 -0.3144  0.0183 -0.9116
  206MOL0     H27797   6.862   1.564  11.133  2.7416 -2.3731 -1.6548
  206MOL0     H27798   6.417   1.923  11.453 -1.4137  2.4064  0.8050
  206MOL0     H27799   6.438   2.153  11.493  2.4495 -2.3962  2.3900
  206MOL0     H27800   6.416   2.407  11.375 -0.2334  4.0028 -0.2944
  206MOL0     H27801   6.491   2.342  11.520 -2.8464  0.4928  0.9211
  206MOL0     H27802   6.644   2.535  11.523  1.2439 -0.2639 -0.4940
  206MOL0     H27803   6.478   2.598  11.518  1.3256  0.5204  1.2168
  206MOL0     H27804   6.669   2.588  11.285  0.7682  0.5675  1.5614
  206MOL0     H27805   6.626   2.718  11.381  0.8306 -0.3766 -1.9043
  206MOL0     H27806   6.519   2.758  11.202 -0.1132  0.3258 -0.1245
  206MOL0     H27807   6.380   2.706  11.304 -0.8373 -0.8735  0.0082
  206MOL0     H27808   6.438   2.389  11.017 -0.6931 -0.5817  2.1065
  206MOL0     H27809   6.746   2.179  11.193 -2.5937  1.1041 -2.0068
  206MOL0     H27810   6.765   1.936  11.189 -0.7139 -1.5910  0.7523
  207MOL0     O27811   8.451   6.712  10.586  0.2721 -0.4175  0.4241
  207MOL0     C27812   8.545   6.779  10.634 -0.1714 -0.1969 -0.1787
  207MOL0     O27813   8.663   6.728  10.675  0.3556  0.5698 -0.1127
  207MOL0     C27814   8.679   6.590  10.689 -0.2167 -0.1290  0.9572
  207MOL0     C27815   8.576   6.503  10.713  0.3135 -0.6243  0.0318
  207MOL0     C27816   8.613   6.375  10.764 -0.7438  0.4516 -0.2609
  207MOL0     C27817   8.744   6.325  10.759 -0.1063 -0.0020 -0.0552
  207MOL0     O27818   8.755   6.192  10.791  0.2316  0.0764 -0.8231
  207MOL0     C27819   8.888   6.138  10.800  0.1705 -0.2808 -0.9781
  207MOL0     C27820   8.949   6.111  10.665 -0.1599 -0.0785 -0.1985
  207MOL0     C27821   8.900   5.974  10.598  0.3726  0.2683  0.1344
  207MOL0     C27822   9.006   5.858  10.570 -0.1250 -1.0538 -0.5778
  207MOL0     C27823   8.961   5.742  10.472 -0.5830  1.2247 -0.5261
  207MOL0     C27824   9.078   5.644  10.430  0.0327 -0.7443 -0.3051
  207MOL0     C27825   9.027   5.508  10.385 -0.4187  0.1558 -0.4443
  207MOL0     C27826   9.149   5.437  10.321  0.1701 -0.5785  0.7182
  207MOL0     N27827   9.137   5.294  10.330  0.0694 -0.0257  0.0972
  207MOL0     C27828   9.236   5.207  10.334 -0.3380 -0.2074  0.6416
  207MOL0     C27829   9.180   5.076  10.362  1.4626 -0.1224  0.4069
  207MOL0     C27830   9.242   4.941  10.376 -0.3262 -0.1145 -0.7060
  207MOL0     C27831   9.202   4.878  10.510  0.4801  0.4465 -0.7459
  207MOL0     C27832   9.079   4.775  10.505 -0.0752  0.8609  0.2600
  207MOL0     C27833   9.034   4.725  10.638  0.6167  0.5962 -0.1679
  207MOL0     O27834   8.972   4.840  10.714 -0.5207  0.4233 -0.4088
  207MOL0     C27835   9.053   4.913  10.793 -0.3042 -0.5769 -1.0548
  207MOL0     C27836   9.157   4.864  10.869 -0.0270  0.5063 -1.2515
  207MOL0     C27837   9.227   4.953  10.959 -0.1782  0.8641 -0.1119
  207MOL0     C27838   9.346   4.890  11.036  0.2814  0.3301 -0.2366
  207MOL0     C27839   9.193   5.089  10.962  0.0650  0.1689  0.2236
  207MOL0     C27840   9.248   5.190  11.063 -0.5873  0.1701 -0.0698
  207MOL0     O27841   9.221   5.318  11.051  0.4870 -0.4840  0.1523
  207MOL0     C27842   9.257   5.405  11.155 -1.0814  1.0946  0.2493
  207MOL0     C27843   9.321   5.523  11.121  0.4020 -0.3711 -0.3351
  207MOL0     C27844   9.368   5.605  11.227  0.0393 -0.6097  0.3050
  207MOL0     C27845   9.354   5.573  11.364 -0.5144  0.2848  0.4739
  207MOL0     O27846   9.373   5.662  11.464  0.7158  0.1050 -0.7792
  207MOL0     C27847   9.397   5.799  11.439 -0.4300  0.1985  0.1742
  207MOL0     C27848   9.438   5.874  11.564 -0.1099  0.4055  0.2081
  207MOL0     C27849   9.313   5.903  11.647  0.6811  1.1413 -0.4865
  207MOL0     C27850   9.352   5.964  11.770 -0.6541 -0.6268 -0.0441
  207MOL0     C27851   9.229   6.020  11.841  1.0814  0.4937 -0.8660
  207MOL0     C27852   9.243   6.061  11.990  0.2665  0.0316  0.6045
  207MOL0     C27853   9.108   6.087  12.058 -0.4057 -1.0260  0.8248
  207MOL0     C27854   9.123   6.162  12.186  0.3724  0.3507 -0.0151
  207MOL0    Cl27855   9.237   6.299  12.161  0.2791 -0.1669 -0.1371
  207MOL0     C27856   9.293   5.454  11.396  1.1871  0.4287 -0.9620
  207MOL0     C27857   9.241   5.374  11.291  0.8867  0.7389  0.2656
  207MOL0     O27858   9.319   5.140  11.150 -0.0245  0.6726 -0.2302
  207MOL0     C27859   9.091   5.136  10.877 -0.4166  0.6933 -0.2799
  207MOL0     C27860   9.030   5.049  10.782 -0.4428 -0.3156  0.2684
  207MOL0     N27861   9.042   5.102  10.375 -0.4144 -0.5637 -0.7982
  207MOL0     N27862   9.023   5.223  10.330 -0.7309 -0.1882 -0.0689
  207MOL0     C27863   8.840   6.420  10.722  0.6973  0.2320 -0.2495
  207MOL0     C27864   8.809   6.548  10.685  0.2489 -0.0330 -0.1069
  207MOL0     C27865   8.541   6.921  10.626  0.3962 -0.2159 -0.5431
  207MOL0     C27866   8.615   6.998  10.704  0.5564  0.2914 -0.1779
  207MOL0     C27867   8.603   7.139  10.697 -0.4069  0.5136  0.6855
  207MOL0     C27868   8.520   7.208  10.610  0.6049 -0.1312  0.1699
  207MOL0     O27869   8.509   7.348  10.606  0.3899  0.4747  0.8109
  207MOL0     C27870   8.440   7.416  10.704  0.0672 -0.5060 -0.7624
  207MOL0     C27871   8.435   7.567  10.679 -1.1080  0.3506  0.0098
  207MOL0     C27872   8.434   7.645  10.813  0.0558 -0.4218 -0.2873
  207MOL0     C27873   8.564   7.673  10.877 -0.8779 -0.5017  0.1715
  207MOL0     C27874   8.647   7.777  10.815 -0.2355  0.0872  0.6851
  207MOL0     C27875   8.719   7.863  10.761  0.2441  0.0799  1.1039
  207MOL0     C27876   8.444   7.121  10.531  0.2660 -0.9305 -0.1092
  207MOL0     C27877   8.447   6.983  10.546  0.5610 -0.0946 -0.5953
  207MOL0     H27878   8.469   6.522  10.711  0.2761 -0.5270  1.7623
  207MOL0     H27879   8.538   6.308  10.805  2.8215 -3.4981  0.5211
  207MOL0     H27880   8.939   6.223  10.846 -0.2245  0.6492 -2.2183
  207MOL0     H27881   8.900   6.049  10.863 -1.5174  0.9539  1.2147
  207MOL0     H27882   8.920   6.189  10.594  1.7566 -0.8321 -1.8894
  207MOL0     H27883   9.058   6.116  10.662 -0.1450  0.1718 -3.6310
  207MOL0     H27884   8.815   5.936  10.656 -0.0728 -1.1210 -1.3575
  207MOL0     H27885   8.855   5.991  10.500 -2.3165 -2.0604  0.8479
  207MOL0     H27886   9.105   5.890  10.537  1.9532 -3.4804  2.6561
  207MOL0     H27887   9.024   5.822  10.672  2.7171 -1.0182 -1.0033
  207MOL0     H27888   8.895   5.682  10.535  2.1879 -0.3178  1.1519
  207MOL0     H27889   8.905   5.781  10.387 -1.8080  1.2326  0.2658
  207MOL0     H27890   9.127   5.685  10.341 -1.1850  0.7874 -0.3026
  207MOL0     H27891   9.148   5.638  10.514  1.9810 -0.4816 -1.8254
  207MOL0     H27892   8.996   5.456  10.476  0.5514 -1.8291 -1.1971
  207MOL0     H27893   8.949   5.509  10.308 -0.4407 -0.9571 -0.4449
  207MOL0     H27894   9.236   5.457  10.384 -1.2094  0.0589  2.5204
  207MOL0     H27895   9.158   5.471  10.217 -5.7899 -2.7204 -0.9525
  207MOL0     H27896   9.340   5.234  10.314 -0.3744  0.0580  0.8094
  207MOL0     H27897   9.212   4.872  10.297 -0.9587 -1.9953  1.0934
  207MOL0     H27898   9.351   4.951  10.367 -0.4529  0.4427 -1.7730
  207MOL0     H27899   9.173   4.957  10.580  1.2325 -2.6914  3.5309
  207MOL0     H27900   9.290   4.827  10.552 -0.3663  0.1049  0.6624
  207MOL0     H27901   9.105   4.698  10.431 -0.0511  2.6900 -1.7058
  207MOL0     H27902   8.990   4.821  10.461 -1.2251 -2.0574 -0.7717
  207MOL0     H27903   9.124   4.683  10.685  1.0615 -0.3172 -1.7397
  207MOL0     H27904   8.966   4.640  10.634  0.5862  0.5931  0.3162
  207MOL0     H27905   9.192   4.763  10.852  2.9731  1.4105 -0.9816
  207MOL0     H27906   9.343   4.785  11.007 -2.9105  0.4613 -0.6926
  207MOL0     H27907   9.440   4.945  11.021  0.0195  0.6903 -0.5749
  207MOL0     H27908   9.326   4.890  11.144  0.5557 -0.1760 -0.1851
  207MOL0     H27909   9.317   5.557  11.018  0.6137 -0.4580 -0.3712
  207MOL0     H27910   9.403   5.707  11.211  0.8701 -0.1500  4.1656
  207MOL0     H27911   9.479   5.805  11.367 -0.1126  2.4002  0.6429
  207MOL0     H27912   9.311   5.851  11.397 -0.8804  0.6388  1.5658
  207MOL0     H27913   9.510   5.821  11.628  0.9099  1.0501 -0.3820
  207MOL0     H27914   9.493   5.965  11.541  0.4971 -0.0982 -0.3822
  207MOL0     H27915   9.246   5.819  11.671  2.6719 -0.9283 -1.7581
  207MOL0     H27916   9.250   5.977  11.596  2.2552  3.0700  0.2419
  207MOL0     H27917   9.396   5.901  11.848  1.6063  0.4220 -0.3843
  207MOL0     H27918   9.430   6.041  11.760  2.0657 -2.8989  1.8677
  207MOL0     H27919   9.157   5.938  11.832 -0.1663  1.1757  1.9033
  207MOL0     H27920   9.191   6.109  11.790 -1.4732  1.2705  2.0837
  207MOL0     H27921   9.289   5.981  12.050 -1.5304 -1.3400  0.2504
  207MOL0     H27922   9.325   6.133  11.987  0.3175  0.0962  2.3435
  207MOL0     H27923   9.035   6.006  12.058 -4.1652  2.0900 -0.6528
  207MOL0     H27924   9.062   6.168  12.003 -0.6197 -2.0140 -0.4918
  207MOL0     H27925   9.156   6.090  12.262  0.4928 -0.1462 -0.5307
  207MOL0     H27926   9.022   6.194  12.211  0.0540 -2.3764  2.8150
  207MOL0     H27927   9.277   5.427  11.500 -0.8916  0.9751 -1.1160
  207MOL0     H27928   9.176   5.288  11.307  0.6216  1.1375  1.4142
  207MOL0     H27929   9.062   5.241  10.877  0.3551  0.9391  1.6525
  207MOL0     H27930   8.952   5.071  10.711  0.9163  4.0439 -0.1418
  207MOL0     H27931   8.944   6.392  10.709  0.5151 -0.9938  0.7763
  207MOL0     H27932   8.891   6.610  10.649  0.3497 -0.0268  0.1367
  207MOL0     H27933   8.689   6.966  10.777  0.9788 -0.1814 -0.8011
  207MOL0     H27934   8.665   7.182  10.776  0.1212 -0.3882  0.7784
  207MOL0     H27935   8.334   7.389  10.703 -0.3438  0.9926 -1.1379
  207MOL0     H27936   8.488   7.389  10.798 -0.3112  2.7851  0.5039
  207MOL0     H27937   8.342   7.595  10.629 -1.2803 -1.5999 -0.8486
  207MOL0     H27938   8.520   7.589  10.613 -0.2712 -3.6368 -0.4871
  207MOL0     H27939   8.374   7.595  10.889  0.8286 -1.9134 -0.6117
  207MOL0     H27940   8.378   7.735  10.786 -1.7322 -1.2987  0.3461
  207MOL0     H27941   8.626   7.583  10.884 -1.3556 -0.9154 -0.7617
  207MOL0     H27942   8.543   7.703  10.980  0.3662  0.0341  0.2817
  207MOL0     H27943   8.769   7.949  10.720 -1.7861  0.8126  0.0241
  207MOL0     H27944   8.387   7.171  10.453 -0.9831  1.3756  2.1459
  207MOL0     H27945   8.380   6.930  10.478  1.6134  1.6262 -3.1153
  208MOL0     O27946   9.497   0.286   5.427 -0.2194  0.3240  0.2156
  208MOL0     C27947   9.615   0.285   5.386 -0.3618 -0.2455 -0.0571
  208MOL0     O27948   9.714   0.304   5.468 -0.2065  0.0897  0.3384
  208MOL0     C27949   9.697   0.289   5.597  0.2825  0.2283  0.5508
  208MOL0     C27950   9.627   0.395   5.661  0.1194  0.5339  0.6852
  208MOL0     C27951   9.621   0.383   5.800 -0.0433  0.2422  0.3987
  208MOL0     C27952   9.683   0.278   5.874  0.3601 -0.0265 -0.8041
  208MOL0     O27953   9.665   0.282   6.009  0.2788 -0.8502 -0.0299
  208MOL0     C27954   9.774   0.237   6.083  0.4650  0.7011 -0.8296
  208MOL0     C27955   9.856   0.355   6.143 -1.1798  0.6520  0.6290
  208MOL0     C27956   9.783   0.433   6.249  0.4680  0.2934 -1.1034
  208MOL0     C27957   9.870   0.549   6.316  0.4413  0.5313  0.5657
  208MOL0     C27958   9.802   0.591   6.448 -0.6824 -0.0246  0.3480
  208MOL0     C27959   9.878   0.703   6.520 -0.2117 -0.3317 -0.5896
  208MOL0     C27960   9.855   0.680   6.669 -0.2573 -0.6292  0.3504
  208MOL0     C27961   9.908   0.784   6.762 -0.1959  0.1234 -0.1496
  208MOL0     N27962  10.050   0.810   6.742  0.1774 -0.0434 -0.0120
  208MOL0     C27963  10.106   0.927   6.712 -0.3736 -0.4457 -0.8847
  208MOL0     C27964  10.236   0.915   6.685 -0.9850 -0.1986 -0.1226
  208MOL0     C27965  10.334   1.017   6.633 -0.1361  1.0471 -0.5533
  208MOL0     C27966  10.329   1.022   6.479 -0.1982 -0.0476 -1.2298
  208MOL0     C27967  10.466   1.064   6.426  0.0062  0.4740  0.4827
  208MOL0     C27968  10.489   1.209   6.406 -0.0457  0.9991  0.2009
  208MOL0     O27969  10.422   1.283   6.510 -0.3823 -0.4842  0.2026
  208MOL0     C27970  10.485   1.308   6.622  0.1682 -0.7840 -0.2728
  208MOL0     C27971  10.597   1.237   6.670 -0.4253 -0.4811  0.2960
  208MOL0     C27972  10.667   1.269   6.792 -0.1225  0.2795  0.2133
  208MOL0     C27973  10.785   1.185   6.819 -0.4573  0.2215  0.2812
  208MOL0     C27974  10.615   1.385   6.872  0.0174  0.4796 -0.6469
  208MOL0     C27975  10.690   1.442   6.985  0.4154  0.3017 -0.1057
  208MOL0     O27976  10.613   1.491   7.088  0.3511 -0.7867 -0.2897
  208MOL0     C27977  10.659   1.549   7.203  0.6581 -0.5827 -0.5190
  208MOL0     C27978  10.782   1.521   7.268  1.0970 -0.1447  0.5887
  208MOL0     C27979  10.828   1.612   7.367  0.1986 -1.0111  0.2072
  208MOL0     C27980  10.740   1.710   7.419  0.0925  0.5057  0.1391
  208MOL0     O27981  10.787   1.775   7.527  0.0571  0.4153  0.9262
  208MOL0     C27982  10.711   1.874   7.596  1.2732 -0.3020  0.4717
  208MOL0     C27983  10.774   1.906   7.723 -1.1038 -0.1998  0.1064
  208MOL0     C27984  10.709   2.016   7.809  0.3888  0.4464  0.2244
  208MOL0     C27985  10.786   2.013   7.942  0.2383  0.4968  0.4286
  208MOL0     C27986  10.756   2.131   8.039 -0.3653  1.1059 -1.0150
  208MOL0     C27987  10.614   2.178   8.041 -0.5661 -0.2349  0.1903
  208MOL0     C27988  10.590   2.271   8.164  0.3211  0.6876  0.8437
  208MOL0     C27989  10.680   2.399   8.165  0.6825  0.1330  0.9727
  208MOL0    Cl27990  10.849   2.374   8.225  0.2477  0.5318 -0.3584
  208MOL0     C27991  10.611   1.714   7.367  0.5901  0.0135  1.0883
  208MOL0     C27992  10.574   1.651   7.248 -0.8383  0.1503 -0.3827
  208MOL0     O27993  10.808   1.436   6.977 -0.5166 -0.2412 -0.9540
  208MOL0     C27994  10.493   1.452   6.836  0.1106 -0.3663  0.1724
  208MOL0     C27995  10.447   1.415   6.706 -0.2785  0.2978 -0.0747
  208MOL0     N27996  10.262   0.783   6.713  0.0420  0.1773 -0.1943
  208MOL0     N27997  10.150   0.720   6.733  0.4905 -0.2328 -0.1857
  208MOL0     C27998   9.752   0.183   5.800  0.6537 -0.4574  0.1793
  208MOL0     C27999   9.762   0.186   5.662  0.1936 -0.8606 -0.7987
  208MOL0     C28000   9.639   0.304   5.245 -0.5120  0.0411 -0.6846
  208MOL0     C28001   9.535   0.326   5.158 -0.2595  0.0323 -0.7552
  208MOL0     C28002   9.552   0.342   5.022 -0.1431  0.5029  0.1445
  208MOL0     C28003   9.680   0.329   4.964  0.2538  0.0170 -0.1506
  208MOL0     O28004   9.713   0.370   4.833 -1.1551 -0.4669 -0.7151
  208MOL0     C28005   9.613   0.428   4.746 -0.4600 -0.2437  0.3557
  208MOL0     C28006   9.679   0.462   4.612  0.0461 -0.4704 -0.2776
  208MOL0     C28007   9.575   0.535   4.521  1.0575  0.6627  0.8630
  208MOL0     C28008   9.643   0.595   4.400 -0.6454 -1.1374 -0.4465
  208MOL0     C28009   9.538   0.609   4.294  1.1201 -0.5086  0.2751
  208MOL0     C28010   9.466   0.632   4.198 -0.3107  0.8377  0.3716
  208MOL0     C28011   9.784   0.321   5.056  0.2028 -0.4694  0.0128
  208MOL0     C28012   9.764   0.303   5.190  0.0665  0.8496  1.0229
  208MOL0     H28013   9.574   0.475   5.611 -0.6064  0.1230  0.7801
  208MOL0     H28014   9.559   0.463   5.841 -0.8887  0.3917 -1.0947
  208MOL0     H28015   9.742   0.169   6.163  1.0990  2.9964  1.5063
  208MOL0     H28016   9.835   0.172   6.021 -1.5631 -1.0972 -1.0384
  208MOL0     H28017   9.943   0.310   6.191 -2.1023 -1.0173  0.7857
  208MOL0     H28018   9.886   0.432   6.071  1.4621  0.8126  1.7948
  208MOL0     H28019   9.693   0.477   6.205 -1.7710 -2.6659  0.1458
  208MOL0     H28020   9.762   0.357   6.325  0.2008  0.7937 -0.6657
  208MOL0     H28021   9.971   0.512   6.332  0.5722  0.5615 -0.1320
  208MOL0     H28022   9.882   0.627   6.240  1.5647 -0.6829 -0.5612
  208MOL0     H28023   9.698   0.622   6.433  0.0625  1.1739 -3.2160
  208MOL0     H28024   9.809   0.504   6.514 -1.2512 -0.6753 -0.4313
  208MOL0     H28025   9.987   0.700   6.513  0.0192  1.6914  1.1108
  208MOL0     H28026   9.837   0.797   6.480  0.1213 -0.6616 -1.7523
  208MOL0     H28027   9.750   0.659   6.694 -1.0615  1.1192 -1.3119
  208MOL0     H28028   9.914   0.591   6.690  1.2043  0.0981 -0.5372
  208MOL0     H28029   9.906   0.740   6.862  3.2159 -1.7037 -0.7193
  208MOL0     H28030   9.845   0.874   6.759 -1.5350 -0.8196 -1.6801
  208MOL0     H28031  10.058   1.023   6.692 -0.7932 -0.5364 -0.3394
  208MOL0     H28032  10.311   1.116   6.673 -0.5883  1.4150 -1.6811
  208MOL0     H28033  10.435   0.995   6.669 -0.5281  1.6939  1.0193
  208MOL0     H28034  10.260   1.099   6.443 -1.1135 -1.3809 -2.4685
  208MOL0     H28035  10.286   0.928   6.444  0.0456 -0.7184  0.2336
  208MOL0     H28036  10.487   1.008   6.334  0.5494  0.5660  0.5501
  208MOL0     H28037  10.545   1.019   6.487 -0.9935  1.7226  2.8606
  208MOL0     H28038  10.444   1.226   6.308  3.8602  2.4547 -1.5342
  208MOL0     H28039  10.593   1.241   6.394  0.4331 -0.6976 -0.4399
  208MOL0     H28040  10.641   1.153   6.617  2.5118 -0.0515  1.8175
  208MOL0     H28041  10.875   1.247   6.815  0.1961 -0.6932  0.4769
  208MOL0     H28042  10.776   1.125   6.909 -0.4926  0.7070  0.6046
  208MOL0     H28043  10.798   1.113   6.738 -1.0522  0.9831 -0.5170
  208MOL0     H28044  10.825   1.423   7.251 -1.2308 -1.7822  3.2606
  208MOL0     H28045  10.916   1.601   7.429 -0.0782 -3.1684  0.2703
  208MOL0     H28046  10.705   1.966   7.536  2.8719 -0.3278  0.2271
  208MOL0     H28047  10.608   1.839   7.607  1.1112  0.7253  2.5805
  208MOL0     H28048  10.780   1.814   7.781 -1.3138  0.1604  0.7005
  208MOL0     H28049  10.880   1.927   7.705 -0.8064 -0.7667  1.1457
  208MOL0     H28050  10.604   1.989   7.825 -0.1050  1.6894 -0.7844
  208MOL0     H28051  10.717   2.114   7.761  1.3547 -2.1634 -5.7973
  208MOL0     H28052  10.749   1.925   7.996 -2.4748  1.0361 -0.4052
  208MOL0     H28053  10.895   2.006   7.932  0.3134 -0.9149  1.7498
  208MOL0     H28054  10.820   2.213   8.005  3.1623 -1.6608 -1.7398
  208MOL0     H28055  10.797   2.096   8.134 -3.2244 -2.9728 -1.0421
  208MOL0     H28056  10.592   2.232   7.949 -3.7141  1.7181  1.8877
  208MOL0     H28057  10.544   2.095   8.039 -1.3663  0.4006  0.8403
  208MOL0     H28058  10.602   2.212   8.255 -0.3734 -0.1630  0.3909
  208MOL0     H28059  10.482   2.289   8.156 -0.0687 -1.2237  1.4993
  208MOL0     H28060  10.634   2.483   8.218  1.4528  1.2389 -0.0607
  208MOL0     H28061  10.680   2.435   8.062  0.7828  0.6197  1.1388
  208MOL0     H28062  10.535   1.783   7.401  0.8834  2.0720 -1.9929
  208MOL0     H28063  10.478   1.662   7.200 -2.7190 -1.7191  2.6293
  208MOL0     H28064  10.447   1.525   6.901  1.6732  0.5585  0.2681
  208MOL0     H28065  10.383   1.494   6.668 -0.1884 -0.1061 -1.0970
  208MOL0     H28066   9.792   0.093   5.845  1.5308  1.0538  2.5896
  208MOL0     H28067   9.808   0.108   5.602  0.8484 -0.0287 -1.4158
  208MOL0     H28068   9.438   0.357   5.196  1.3792  4.4115  0.5309
  208MOL0     H28069   9.469   0.373   4.961  0.8593  0.1318 -1.4723
  208MOL0     H28070   9.528   0.361   4.733 -0.7639  0.5496 -2.3210
  208MOL0     H28071   9.563   0.517   4.786 -1.0089  0.6284 -2.1205
  208MOL0     H28072   9.718   0.371   4.565  0.7005  0.4311 -1.5322
  208MOL0     H28073   9.764   0.531   4.621 -1.9068  1.9948  0.3380
  208MOL0     H28074   9.522   0.610   4.578  0.1023 -0.2900  1.2578
  208MOL0     H28075   9.497   0.466   4.488  0.0319  1.6471  1.1849
  208MOL0     H28076   9.728   0.541   4.359 -0.2494 -1.1896  0.4196
  208MOL0     H28077   9.682   0.697   4.412  0.0041 -0.8581 -3.8738
  208MOL0     H28078   9.422   0.640   4.101 -1.1082 -0.8629  0.5502
  208MOL0     H28079   9.877   0.343   5.005 -2.6633  2.3460 -4.7987
  208MOL0     H28080   9.846   0.293   5.261 -2.0061 -2.1405  3.2097
  209MOL0     O28081   3.525   9.012   7.705  0.9268  0.0497  0.3154
  209MOL0     C28082   3.606   8.927   7.673 -0.1772 -0.3146 -0.5915
  209MOL0     O28083   3.603   8.857   7.550  0.5752  0.3154  0.1338
  209MOL0     C28084   3.520   8.868   7.444  0.3206 -0.1072  0.0524
  209MOL0     C28085   3.526   8.762   7.359  0.2692  0.2903 -0.6404
  209MOL0     C28086   3.453   8.746   7.247  0.1704 -0.4362 -0.2443
  209MOL0     C28087   3.369   8.861   7.218  0.4144 -0.1872 -1.0496
  209MOL0     O28088   3.290   8.871   7.109 -0.5023 -0.3119  0.9626
  209MOL0     C28089   3.183   8.774   7.105  0.8070 -0.1423 -0.1994
  209MOL0     C28090   3.108   8.780   6.971 -0.9923 -0.5907 -0.0891
  209MOL0     C28091   3.203   8.803   6.846  1.6275  0.0857 -0.8994
  209MOL0     C28092   3.118   8.785   6.717  0.9572 -0.3729 -0.6800
  209MOL0     C28093   3.013   8.901   6.687  0.3329  1.1833 -0.4227
  209MOL0     C28094   3.070   9.031   6.715 -0.0446 -1.1523 -0.0670
  209MOL0     C28095   2.967   9.140   6.671 -0.2872 -0.0964 -1.5272
  209MOL0     C28096   3.041   9.266   6.648  0.0089 -0.9716 -0.3025
  209MOL0     N28097   2.957   9.393   6.660 -0.1283  0.2892 -0.2881
  209MOL0     C28098   2.946   9.497   6.754 -0.6115  0.2865 -1.1680
  209MOL0     C28099   2.833   9.564   6.730  0.7095 -0.2450  0.1632
  209MOL0     C28100   2.773   9.672   6.812  0.7284 -0.6501 -0.3569
  209MOL0     C28101   2.640   9.629   6.858 -0.0026 -0.7184  0.2823
  209MOL0     C28102   2.560   9.757   6.898  0.0527  0.2836  0.0856
  209MOL0     C28103   2.611   9.840   7.017  0.0480  0.5336 -0.1450
  209MOL0     O28104   2.508   9.904   7.084  0.2008 -0.1021 -0.6905
  209MOL0     C28105   2.460  10.009   7.002 -0.1423  0.4473  0.1983
  209MOL0     C28106   2.536  10.075   6.906 -0.2890 -0.6059  0.7262
  209MOL0     C28107   2.469  10.171   6.820 -0.7943  0.2516 -0.2194
  209MOL0     C28108   2.552  10.234   6.712 -0.1845  0.4972  0.2882
  209MOL0     C28109   2.333  10.212   6.848 -0.5451 -0.0567 -0.0662
  209MOL0     C28110   2.267  10.316   6.772 -0.2148 -0.1354  0.3061
  209MOL0     O28111   2.335  10.367   6.663 -0.1630 -0.9296 -0.1081
  209MOL0     C28112   2.305  10.487   6.604  0.1686 -0.6410  0.1588
  209MOL0     C28113   2.316  10.497   6.459  0.6308  0.4369 -0.3935
  209MOL0     C28114   2.270  10.611   6.398  0.5796  0.0459  0.1634
  209MOL0     C28115   2.214  10.719   6.462 -0.3215 -0.1421 -1.0592
  209MOL0     O28116   2.168  10.816   6.376  0.0180  0.3065 -0.8816
  209MOL0     C28117   2.044  10.879   6.431 -0.3524 -0.4705  0.3939
  209MOL0     C28118   1.965  10.937   6.317 -0.2069  0.0031 -0.7702
  209MOL0     C28119   1.832  10.990   6.362 -0.9161  0.4109 -0.3549
  209MOL0     C28120   1.722  10.898   6.355  0.1565  0.8842  0.6859
  209MOL0     C28121   1.588  10.969   6.400  0.0332  0.7220  0.0007
  209MOL0     C28122   1.561  10.988   6.541 -0.4701  0.0010 -0.5649
  209MOL0     C28123   1.409  11.001   6.583  0.1896  1.0126 -0.1780
  209MOL0     C28124   1.347  10.865   6.622  0.0250  0.5449  0.6281
  209MOL0    Cl28125   1.431  10.779   6.764 -0.0968  0.2107  0.2835
  209MOL0     C28126   2.209  10.713   6.606  0.0523 -0.5879  0.3088
  209MOL0     C28127   2.258  10.602   6.669  0.2701 -0.1602  0.1775
  209MOL0     O28128   2.165  10.359   6.825  0.2629 -0.3429 -0.1176
  209MOL0     C28129   2.264  10.145   6.954 -0.5895 -0.3269  0.7414
  209MOL0     C28130   2.325  10.043   7.023 -0.9420  0.0069 -0.5948
  209MOL0     N28131   2.775   9.511   6.614  0.6689  0.3631  0.1661
  209MOL0     N28132   2.847   9.403   6.580  0.9634 -0.7437  0.7164
  209MOL0     C28133   3.363   8.982   7.298  0.3702  0.7893 -1.0124
  209MOL0     C28134   3.449   8.987   7.408 -0.1941 -0.3910 -0.0906
  209MOL0     C28135   3.713   8.895   7.769 -0.7097 -0.0713 -0.0078
  209MOL0     C28136   3.790   8.774   7.757  0.1849  0.3817 -0.3159
  209MOL0     C28137   3.890   8.746   7.845 -0.6651 -1.0009  0.6689
  209MOL0     C28138   3.923   8.830   7.958  0.0334 -0.3676 -0.4785
  209MOL0     O28139   4.029   8.812   8.049  0.3039 -0.6658 -0.0254
  209MOL0     C28140   4.085   8.905   8.144  0.3323  0.6541 -0.8264
  209MOL0     C28141   4.030   8.860   8.275  0.1945 -0.1609 -0.5420
  209MOL0     C28142   4.070   8.720   8.316 -0.1851  0.1628 -0.0932
  209MOL0     C28143   4.050   8.721   8.471  0.1237  0.1843 -0.2978
  209MOL0     C28144   4.025   8.584   8.516 -0.6398  0.1927 -0.0392
  209MOL0     C28145   4.013   8.468   8.560  0.5098 -0.0148  0.0593
  209MOL0     C28146   3.844   8.951   7.971  1.2024  0.9723 -0.5901
  209MOL0     C28147   3.740   8.989   7.876 -0.1477  0.7222 -0.6460
  209MOL0     H28148   3.598   8.686   7.390  1.0771  2.1585  2.5093
  209MOL0     H28149   3.459   8.653   7.192 -2.4961 -3.4969  4.0198
  209MOL0     H28150   3.221   8.675   7.134  0.0048  0.3281  2.7155
  209MOL0     H28151   3.117   8.819   7.179  2.1580  2.7496 -0.5922
  209MOL0     H28152   3.071   8.679   6.953  1.5275 -1.6037 -0.0154
  209MOL0     H28153   3.042   8.866   6.986 -0.1153 -0.1850  1.7208
  209MOL0     H28154   3.261   8.895   6.860  1.8880 -0.1481 -0.4111
  209MOL0     H28155   3.264   8.713   6.858 -1.1574 -1.5986  2.1604
  209MOL0     H28156   3.187   8.788   6.632 -2.0188 -0.7956 -3.3319
  209MOL0     H28157   3.075   8.685   6.721 -1.6468  0.6651 -0.6921
  209MOL0     H28158   2.999   8.899   6.578 -2.9166  2.0316 -0.1421
  209MOL0     H28159   2.922   8.875   6.742  0.4375 -0.1880 -0.8734
  209MOL0     H28160   3.078   9.045   6.823 -0.8836  0.9713 -0.2351
  209MOL0     H28161   3.174   9.031   6.680 -0.4015 -1.8669 -1.1954
  209MOL0     H28162   2.910   9.115   6.581  1.2631 -0.4007 -2.4540
  209MOL0     H28163   2.889   9.159   6.745  1.1789  2.1104 -0.4517
  209MOL0     H28164   3.095   9.263   6.553  0.6444 -0.6111  0.0455
  209MOL0     H28165   3.115   9.272   6.728  3.2702 -2.2076 -2.9841
  209MOL0     H28166   3.002   9.503   6.847 -1.8918  3.5336 -0.4671
  209MOL0     H28167   2.833   9.691   6.902 -1.2683 -0.2069  0.9399
  209MOL0     H28168   2.771   9.766   6.756  1.0471 -0.2910  0.2260
  209MOL0     H28169   2.644   9.562   6.944  0.1323 -3.6121 -1.8135
  209MOL0     H28170   2.582   9.574   6.783 -1.7625  2.3754 -0.8473
  209MOL0     H28171   2.460   9.720   6.924  0.9218 -0.6089  2.4823
  209MOL0     H28172   2.551   9.825   6.813 -2.1912  0.5300  0.4702
  209MOL0     H28173   2.704   9.896   7.006  1.1301 -1.0616  0.5215
  209MOL0     H28174   2.629   9.760   7.089 -2.1271  2.3111  2.5843
  209MOL0     H28175   2.641  10.057   6.885 -0.2088  0.7535 -0.1035
  209MOL0     H28176   2.648  10.185   6.694 -0.3700 -0.6630  2.2347
  209MOL0     H28177   2.497  10.221   6.618 -0.3309  0.5658  0.3642
  209MOL0     H28178   2.574  10.339   6.732  4.2219 -0.2543  0.4809
  209MOL0     H28179   2.345  10.408   6.404  1.6624 -1.1984  2.5282
  209MOL0     H28180   2.282  10.615   6.290  2.2395  1.0931  0.3504
  209MOL0     H28181   1.986  10.811   6.494  2.7903 -1.9720  1.8440
  209MOL0     H28182   2.071  10.972   6.482 -0.2174  0.7684 -1.7739
  209MOL0     H28183   2.028  11.014   6.273 -0.0312  0.9837  1.1258
  209MOL0     H28184   1.959  10.861   6.238  0.1036 -0.2527 -0.5470
  209MOL0     H28185   1.806  11.083   6.309  0.6648 -0.4880 -2.9234
  209MOL0     H28186   1.833  11.020   6.467 -2.6951 -0.9726  0.1013
  209MOL0     H28187   1.716  10.874   6.248  3.3151 -2.4394  1.0461
  209MOL0     H28188   1.731  10.799   6.401  1.1841 -0.5199 -2.2518
  209MOL0     H28189   1.512  10.897   6.366  1.8850 -2.3423  1.9401
  209MOL0     H28190   1.577  11.064   6.346  0.1000 -0.9161 -3.1843
  209MOL0     H28191   1.601  10.905   6.600 -4.0866 -0.5408  1.3808
  209MOL0     H28192   1.620  11.067   6.588 -2.3013  2.4294 -2.1369
  209MOL0     H28193   1.361  11.048   6.497 -0.0947 -1.6744 -1.5737
  209MOL0     H28194   1.392  11.076   6.661 -0.1981 -0.9649  1.7489
  209MOL0     H28195   1.338  10.785   6.548 -3.0624  0.0001  1.4576
  209MOL0     H28196   1.244  10.879   6.657  0.1630  0.9559  0.8756
  209MOL0     H28197   2.153  10.792   6.655 -1.5187 -0.7738 -1.1037
  209MOL0     H28198   2.241  10.610   6.776 -0.5116 -1.3194  0.1724
  209MOL0     H28199   2.160  10.165   6.976 -1.6809 -0.7398 -3.2304
  209MOL0     H28200   2.276   9.992   7.106  0.4297 -0.4021 -0.0195
  209MOL0     H28201   3.296   9.064   7.273 -1.4648 -0.5354 -0.6462
  209MOL0     H28202   3.456   9.074   7.474  2.8273 -0.7902  0.2828
  209MOL0     H28203   3.763   8.700   7.683  2.9561  2.1181 -3.3466
  209MOL0     H28204   3.929   8.646   7.835 -0.2769 -0.9666  1.7237
  209MOL0     H28205   4.194   8.912   8.149  0.3362 -0.2469  1.0279
  209MOL0     H28206   4.063   9.007   8.109 -1.4148  0.2839 -0.8705
  209MOL0     H28207   3.922   8.874   8.269  0.3400  2.5793  1.3499
  209MOL0     H28208   4.060   8.934   8.349  0.8281 -1.3775  0.4565
  209MOL0     H28209   4.177   8.704   8.301  0.0288 -0.8660  2.1274
  209MOL0     H28210   4.009   8.647   8.262  1.0111 -0.5425 -0.5360
  209MOL0     H28211   3.957   8.769   8.502  0.1556 -2.1458  4.1099
  209MOL0     H28212   4.136   8.759   8.528  0.1318 -3.4199  2.4692
  209MOL0     H28213   4.001   8.367   8.593  0.3361  0.0420  0.1741
  209MOL0     H28214   3.849   9.021   8.054  1.2399  4.0394 -3.0138
  209MOL0     H28215   3.685   9.082   7.877 -0.0288  0.8183 -1.9657
  210MOL0     O28216   5.992  11.252   1.275  0.6737  0.0189 -0.4375
  210MOL0     C28217   6.059  11.230   1.379 -0.1880  0.6276  0.3971
  210MOL0     O28218   6.144  11.123   1.404  0.2402 -0.4806 -0.6344
  210MOL0     C28219   6.177  11.064   1.280 -1.0303 -0.2681  0.0067
  210MOL0     C28220   6.260  11.131   1.186  0.1837 -0.5975 -0.0220
  210MOL0     C28221   6.279  11.085   1.060 -0.2671  0.0847  0.6725
  210MOL0     C28222   6.210  10.969   1.017 -0.5203  0.0970  0.4373
  210MOL0     O28223   6.223  10.920   0.891  0.4650 -0.2025 -0.4761
  210MOL0     C28224   6.197  11.019   0.788  0.9080  0.5954  0.0466
  210MOL0     C28225   6.249  10.964   0.648 -0.0046 -0.2087  0.9125
  210MOL0     C28226   6.174  10.836   0.604  0.9389  0.3118 -0.1117
  210MOL0     C28227   6.198  10.789   0.453 -0.5570  0.1774  0.8350
  210MOL0     C28228   6.135  10.658   0.419 -0.1199  0.1886 -0.3959
  210MOL0     C28229   6.170  10.601   0.273 -0.3668  1.7304  0.3425
  210MOL0     C28230   6.156  10.442   0.271 -0.4012 -0.7840  0.3720
  210MOL0     C28231   6.177  10.389   0.128 -0.0681 -0.1112  0.2244
  210MOL0     N28232   6.120  10.253   0.107  0.4447 -0.0262  0.9719
  210MOL0     C28233   6.055  10.176   0.199  0.8049 -1.1457 -0.2745
  210MOL0     C28234   6.023  10.064   0.139 -0.3990 -0.1173  0.9347
  210MOL0     C28235   5.952   9.946   0.193  0.0365 -0.6819 -0.1984
  210MOL0     C28236   5.831   9.988   0.289  1.0777  0.3951 -0.0826
  210MOL0     C28237   5.700  10.051   0.231  0.9912  0.1527 -0.0819
  210MOL0     C28238   5.640   9.958   0.134  0.3216  0.4023 -0.7115
  210MOL0     O28239   5.654   9.818   0.175 -0.2196  0.1056  0.7448
  210MOL0     C28240   5.607   9.713   0.097  0.3032  1.5567 -0.9800
  210MOL0     C28241   5.632   9.583   0.132  0.0312  0.7458  0.0042
  210MOL0     C28242   5.598   9.471   0.065  0.5443  1.0027 -0.1631
  210MOL0     C28243   5.651   9.333   0.122 -1.0532  1.1426  0.3078
  210MOL0     C28244   5.541   9.481  -0.065 -0.7364 -0.9764  0.1515
  210MOL0     C28245   5.512   9.375  -0.169  0.6973 -0.6161  0.3509
  210MOL0     O28246   5.454   9.424  -0.286  0.1768 -0.1359  0.6389
  210MOL0     C28247   5.429   9.331  -0.377 -0.2847  0.5134  0.5777
  210MOL0     C28248   5.530   9.291  -0.470  0.1425 -0.4050 -0.6005
  210MOL0     C28249   5.502   9.195  -0.569 -0.1722 -0.2902  1.3769
  210MOL0     C28250   5.379   9.129  -0.581 -0.6931 -0.3547  0.3741
  210MOL0     O28251   5.348   9.043  -0.680  0.4833  0.6691  0.9677
  210MOL0     C28252   5.441   8.926  -0.690  0.3291 -0.5297  0.1821
  210MOL0     C28253   5.373   8.802  -0.745  0.0163  0.2554  0.6426
  210MOL0     C28254   5.367   8.809  -0.896  0.2133 -0.8008  0.5600
  210MOL0     C28255   5.343   8.671  -0.962 -0.5768  0.9561  0.9080
  210MOL0     C28256   5.212   8.605  -0.930 -0.3799  0.3000  0.1671
  210MOL0     C28257   5.087   8.668  -1.003  0.2344 -0.2983  0.0738
  210MOL0     C28258   5.096   8.685  -1.161  0.4397  0.0030  0.3270
  210MOL0     C28259   5.097   8.561  -1.241 -0.4367  0.8011 -0.1573
  210MOL0    Cl28260   4.979   8.432  -1.182 -0.0816  0.1617  0.0954
  210MOL0     C28261   5.282   9.179  -0.495  0.3971 -1.3321  0.2042
  210MOL0     C28262   5.300   9.277  -0.394 -0.3771  0.7557  0.0010
  210MOL0     O28263   5.557   9.263  -0.154  0.2113 -0.6495  0.2746
  210MOL0     C28264   5.502   9.615  -0.106  0.3521 -0.3699 -1.0651
  210MOL0     C28265   5.530   9.732  -0.020  0.6407 -0.5324  1.1164
  210MOL0     N28266   6.081  10.063   0.019  0.2228 -0.0119  0.4951
  210MOL0     N28267   6.152  10.168   0.009 -0.4942  0.2994  0.5818
  210MOL0     C28268   6.143  10.890   1.108 -0.0782 -0.1933 -0.0078
  210MOL0     C28269   6.116  10.944   1.238  1.2170 -0.2194  0.1197
  210MOL0     C28270   6.060  11.330   1.481  0.6315  0.6897  0.2953
  210MOL0     C28271   6.080  11.296   1.609  0.2080 -0.7668 -0.4493
  210MOL0     C28272   6.063  11.398   1.708 -0.2784  0.5134 -0.6001
  210MOL0     C28273   6.040  11.530   1.682 -0.6812 -0.2936  0.6791
  210MOL0     O28274   6.036  11.610   1.794  0.0856 -0.1289 -0.7794
  210MOL0     C28275   6.017  11.748   1.780  1.2930  0.5156  0.3014
  210MOL0     C28276   5.872  11.781   1.765  0.4363 -0.1416  0.2979
  210MOL0     C28277   5.849  11.930   1.734 -0.1809 -0.4474  0.3321
  210MOL0     C28278   5.697  11.953   1.765 -0.4509 -0.6028  0.0846
  210MOL0     C28279   5.645  12.084   1.723  0.3474  0.2024 -0.0660
  210MOL0     C28280   5.581  12.182   1.686 -0.3699 -1.1607 -0.7053
  210MOL0     C28281   6.030  11.565   1.549 -0.4585  0.7311 -0.0817
  210MOL0     C28282   6.041  11.464   1.446 -0.6377 -0.3955  0.3566
  210MOL0     H28283   6.311  11.218   1.225 -1.7406 -0.1982  1.7797
  210MOL0     H28284   6.345  11.129   0.986 -0.4132 -1.7387 -0.6122
  210MOL0     H28285   6.092  11.041   0.768 -0.9245 -4.3794  2.5179
  210MOL0     H28286   6.245  11.112   0.823  3.4526 -0.6000 -0.0014
  210MOL0     H28287   6.243  11.037   0.567  2.7482  0.6385  1.3496
  210MOL0     H28288   6.355  10.946   0.671 -0.3589  0.6649  3.7309
  210MOL0     H28289   6.188  10.749   0.670 -1.8775 -0.3388 -0.2605
  210MOL0     H28290   6.071  10.870   0.597  1.2302  1.0722 -0.9013
  210MOL0     H28291   6.155  10.869   0.392 -0.1353 -0.1126  0.1355
  210MOL0     H28292   6.305  10.782   0.431 -0.8110 -0.9380 -0.1531
  210MOL0     H28293   6.157  10.583   0.495  1.3887 -0.2925 -1.2641
  210MOL0     H28294   6.028  10.679   0.431 -0.0048  1.2622 -1.0473
  210MOL0     H28295   6.107  10.644   0.195  1.0678 -0.2646 -2.0534
  210MOL0     H28296   6.271  10.628   0.243  0.6054 -0.3352  1.4982
  210MOL0     H28297   6.228  10.416   0.350  1.5511  1.4903 -0.5164
  210MOL0     H28298   6.051  10.426   0.299 -1.8924  1.4268 -3.2975
  210MOL0     H28299   6.286  10.385   0.120  0.0404 -0.1702  1.5455
  210MOL0     H28300   6.133  10.458   0.056  1.8006  1.8468  0.8755
  210MOL0     H28301   6.036  10.199   0.304 -1.3937 -1.4241 -0.5681
  210MOL0     H28302   5.919   9.886   0.108  0.8441 -2.1380  0.4897
  210MOL0     H28303   6.026   9.890   0.251  1.1814 -0.2158 -1.1830
  210MOL0     H28304   5.866  10.056   0.368 -0.1869  1.8613 -0.7196
  210MOL0     H28305   5.798   9.905   0.351 -3.1890  3.0037  1.6176
  210MOL0     H28306   5.733  10.147   0.191  1.5479  1.8904  3.9760
  210MOL0     H28307   5.639  10.080   0.317  0.0742 -2.7717  0.3581
  210MOL0     H28308   5.680   9.968   0.033  3.1764 -2.8697 -0.1030
  210MOL0     H28309   5.532   9.979   0.139  0.4684  0.8609  1.2571
  210MOL0     H28310   5.696   9.566   0.218  0.9617  2.3978 -0.3105
  210MOL0     H28311   5.591   9.247   0.091 -1.9776  1.3730  1.3535
  210MOL0     H28312   5.751   9.323   0.079 -0.0707  0.5440  2.5864
  210MOL0     H28313   5.661   9.317   0.230  1.1664 -1.6536 -0.1967
  210MOL0     H28314   5.624   9.345  -0.469 -1.8418  3.5412 -2.3793
  210MOL0     H28315   5.586   9.178  -0.636 -1.9475  0.1298 -1.0994
  210MOL0     H28316   5.529   8.960  -0.746 -0.6141 -0.2958 -1.2108
  210MOL0     H28317   5.480   8.917  -0.588  0.6923  0.3746  0.1393
  210MOL0     H28318   5.417   8.710  -0.705 -4.2604 -0.7321  3.7654
  210MOL0     H28319   5.269   8.793  -0.715  0.2078  0.9490  1.5480
  210MOL0     H28320   5.463   8.842  -0.937 -0.0606 -1.1448 -0.3967
  210MOL0     H28321   5.288   8.881  -0.919 -0.3474 -0.5564  2.9938
  210MOL0     H28322   5.365   8.692  -1.067 -0.8522  2.7056  1.1721
  210MOL0     H28323   5.430   8.613  -0.929  1.3863  3.0321 -0.2688
  210MOL0     H28324   5.197   8.620  -0.823  1.9245 -0.1606  0.6192
  210MOL0     H28325   5.219   8.496  -0.937 -1.7409 -0.2250  4.1518
  210MOL0     H28326   5.002   8.613  -0.963 -1.8953  2.7967  0.1317
  210MOL0     H28327   5.081   8.770  -0.964  1.2251 -0.3122  0.2849
  210MOL0     H28328   5.187   8.744  -1.174  0.0183  0.7479  0.7249
  210MOL0     H28329   5.015   8.752  -1.191  0.8795  0.7214  0.7396
  210MOL0     H28330   5.198   8.519  -1.240 -1.0076 -0.6771 -1.2873
  210MOL0     H28331   5.081   8.570  -1.348  0.0772 -3.0850 -0.7054
  210MOL0     H28332   5.180   9.142  -0.495  1.4462 -4.5482 -1.4438
  210MOL0     H28333   5.208   9.308  -0.346  0.4857  1.5642  1.2027
  210MOL0     H28334   5.443   9.630  -0.195 -2.1854  1.0430  0.7285
  210MOL0     H28335   5.497   9.825  -0.065  0.1117  0.0205  2.5833
  210MOL0     H28336   6.090  10.804   1.070 -0.3248  0.8255 -2.1479
  210MOL0     H28337   6.046  10.896   1.306  0.7684 -0.2823 -0.3745
  210MOL0     H28338   6.091  11.197   1.651  0.4962  0.9751  4.1289
  210MOL0     H28339   6.070  11.371   1.813 -0.6855  1.7277 -0.2462
  210MOL0     H28340   6.062  11.799   1.866 -1.0129 -1.3403  2.7914
  210MOL0     H28341   6.080  11.784   1.698 -0.6288  2.7139 -0.3465
  210MOL0     H28342   5.826  11.750   1.860  0.3599  1.3026  0.7479
  210MOL0     H28343   5.832  11.726   1.680 -0.0862  2.1352 -1.0028
  210MOL0     H28344   5.863  11.955   1.629 -0.5035  1.2958  0.6633
  210MOL0     H28345   5.926  11.994   1.778  0.8537  1.1683 -3.4091
  210MOL0     H28346   5.683  11.968   1.873 -1.8021  1.1673 -0.2835
  210MOL0     H28347   5.643  11.864   1.731  3.3239 -1.9011 -3.3079
  210MOL0     H28348   5.526  12.269   1.657 -1.4779 -1.3430  0.7375
  210MOL0     H28349   6.034  11.668   1.515 -1.3417  1.1337  0.9615
  210MOL0     H28350   6.037  11.480   1.339  0.9061 -1.0951  0.1682
  211MOL0     O28351   0.485   8.388  11.158  0.3231  0.2488 -0.1309
  211MOL0     C28352   0.479   8.361  11.044 -0.0248  0.1919  0.5338
  211MOL0     O28353   0.574   8.403  10.949  0.7547  0.0593  0.2210
  211MOL0     C28354   0.688   8.448  10.995 -0.1168  0.5019 -0.7114
  211MOL0     C28355   0.762   8.365  11.084 -0.0662 -0.6235 -0.7024
  211MOL0     C28356   0.876   8.415  11.146  0.2640 -0.1186  0.4263
  211MOL0     C28357   0.920   8.550  11.125 -0.4899  1.4176  0.2976
  211MOL0     O28358   1.022   8.620  11.179 -0.1256  0.4806  1.3448
  211MOL0     C28359   1.155   8.562  11.170  0.9917 -0.6233 -0.4055
  211MOL0     C28360   1.225   8.648  11.268  0.1141 -0.4019  0.2722
  211MOL0     C28361   1.375   8.614  11.289  0.0794 -0.8588 -0.2335
  211MOL0     C28362   1.439   8.718  11.383  0.6116  0.4014  0.7391
  211MOL0     C28363   1.572   8.677  11.445 -0.2221 -0.4242 -0.3256
  211MOL0     C28364   1.561   8.620  11.579 -0.7473  0.7740  0.3006
  211MOL0     C28365   1.491   8.478  11.581 -0.7284 -0.5582 -0.6590
  211MOL0     C28366   1.571   8.370  11.512 -0.3293  0.6419  0.7652
  211MOL0     N28367   1.508   8.244  11.525  0.5338  0.7585 -1.2857
  211MOL0     C28368   1.565   8.150  11.606 -0.8772  0.2932  0.6127
  211MOL0     C28369   1.472   8.056  11.628  0.0210  0.2938  0.1171
  211MOL0     C28370   1.493   7.941  11.722  0.4781  1.1167 -0.4637
  211MOL0     C28371   1.541   7.974  11.862  0.6453 -0.7212 -0.9890
  211MOL0     C28372   1.495   7.875  11.967  1.8139 -0.2048  0.0689
  211MOL0     C28373   1.349   7.847  12.003  0.1320  0.4875  0.0955
  211MOL0     O28374   1.315   7.933  12.115 -0.1254 -0.3144  0.4156
  211MOL0     C28375   1.311   8.064  12.078 -0.0345 -0.7555  0.7371
  211MOL0     C28376   1.390   8.158  12.136  0.5636 -0.4043 -0.0527
  211MOL0     C28377   1.395   8.295  12.094  0.3319  0.3399  1.0952
  211MOL0     C28378   1.492   8.386  12.173  0.3441 -0.6220 -0.6545
  211MOL0     C28379   1.311   8.342  11.992  0.9797  0.4422  0.4545
  211MOL0     C28380   1.299   8.472  11.928  0.2890 -0.1376  0.0213
  211MOL0     O28381   1.183   8.518  11.875 -0.4266 -0.9376  0.0878
  211MOL0     C28382   1.179   8.643  11.814 -0.2253  0.4908  0.1241
  211MOL0     C28383   1.241   8.760  11.852 -0.2329  0.5748  0.7214
  211MOL0     C28384   1.240   8.874  11.773  0.2712  0.3791 -0.1350
  211MOL0     C28385   1.152   8.880  11.664  0.5413 -0.1669 -0.3129
  211MOL0     O28386   1.143   9.006  11.601 -0.3239 -0.3983  0.5099
  211MOL0     C28387   1.047   9.012  11.493 -0.3103 -0.8526  0.3057
  211MOL0     C28388   1.036   9.161  11.439 -0.0143  0.8462  0.0036
  211MOL0     C28389   1.108   9.183  11.308  0.2566  0.7372 -0.1307
  211MOL0     C28390   1.257   9.170  11.339 -0.8292 -0.2341  0.4350
  211MOL0     C28391   1.340   9.238  11.227  0.4857 -0.2480  0.1041
  211MOL0     C28392   1.316   9.173  11.096  0.5593 -0.3654  0.8829
  211MOL0     C28393   1.366   9.255  10.971  0.1747  0.3138 -0.7535
  211MOL0     C28394   1.521   9.248  10.980 -0.1979 -0.5966 -0.8347
  211MOL0    Cl28395   1.597   9.349  10.861 -0.4798  0.1005 -0.2151
  211MOL0     C28396   1.082   8.759  11.616 -0.3173 -0.6011 -0.1993
  211MOL0     C28397   1.093   8.652  11.699  0.5246 -0.6036 -0.1364
  211MOL0     O28398   1.404   8.532  11.927 -0.2459  0.4117 -0.2002
  211MOL0     C28399   1.222   8.242  11.935 -0.4907  0.3193  0.0585
  211MOL0     C28400   1.230   8.110  11.967 -0.5185  1.4633  0.1366
  211MOL0     N28401   1.362   8.082  11.549  0.5676  0.5787 -1.1532
  211MOL0     N28402   1.382   8.202  11.492  0.3126  0.4010  0.6741
  211MOL0     C28403   0.826   8.624  11.050 -0.6652 -0.9315  0.8554
  211MOL0     C28404   0.708   8.584  10.983  0.4523  0.5813  0.5043
  211MOL0     C28405   0.355   8.296  10.994 -0.4312 -0.9959 -0.4391
  211MOL0     C28406   0.267   8.233  11.081 -0.5264 -0.5605 -1.0900
  211MOL0     C28407   0.151   8.166  11.042  0.3372 -0.3554  0.3573
  211MOL0     C28408   0.141   8.134  10.902  0.3647  0.4510 -0.7826
  211MOL0     O28409   0.051   8.049  10.852  0.0217 -0.1508 -0.4247
  211MOL0     C28410  -0.043   7.987  10.941 -0.1336 -0.0835  0.8305
  211MOL0     C28411   0.009   7.871  11.018  0.5856 -0.0675  0.7095
  211MOL0     C28412  -0.108   7.793  11.092 -0.7668 -0.6880  0.8599
  211MOL0     C28413  -0.118   7.828  11.236 -0.1734 -0.1480 -0.7633
  211MOL0     C28414  -0.222   7.747  11.301  0.4371  0.3575  0.1278
  211MOL0     C28415  -0.309   7.690  11.367  0.9394 -0.1068 -0.3041
  211MOL0     C28416   0.234   8.194  10.816 -0.6626 -0.0314  0.4463
  211MOL0     C28417   0.333   8.285  10.854  0.1890  1.0345 -0.7170
  211MOL0     H28418   0.736   8.261  11.099 -0.3824 -0.3426  0.7981
  211MOL0     H28419   0.926   8.348  11.216 -1.8207  0.7301  2.9085
  211MOL0     H28420   1.167   8.456  11.197 -2.4610 -0.8016  0.9692
  211MOL0     H28421   1.180   8.563  11.064 -1.8412 -2.4678 -1.2212
  211MOL0     H28422   1.216   8.753  11.240 -0.7885  0.3764  3.0823
  211MOL0     H28423   1.181   8.645  11.368  1.4726  0.4800  0.9324
  211MOL0     H28424   1.376   8.514  11.334 -3.4097 -1.3075 -0.8345
  211MOL0     H28425   1.424   8.607  11.192 -1.7070 -0.2545 -1.2199
  211MOL0     H28426   1.437   8.813  11.328  3.0003  0.3056  0.3907
  211MOL0     H28427   1.372   8.732  11.469  0.7103  2.3634  0.5486
  211MOL0     H28428   1.622   8.617  11.369  1.3738  1.7262 -1.0955
  211MOL0     H28429   1.631   8.769  11.450  2.0222 -1.7665 -0.7302
  211MOL0     H28430   1.665   8.619  11.614 -1.3640  0.9166  2.2305
  211MOL0     H28431   1.522   8.681  11.661  0.1525  1.2184  0.4149
  211MOL0     H28432   1.480   8.433  11.680 -1.0101 -0.9719 -0.8750
  211MOL0     H28433   1.391   8.476  11.535 -0.1320 -1.4956 -1.9826
  211MOL0     H28434   1.672   8.360  11.553  0.5833  0.9256 -1.2970
  211MOL0     H28435   1.582   8.398  11.407  2.2315 -1.1283  0.4810
  211MOL0     H28436   1.660   8.162  11.657 -0.0377  1.2422 -1.0859
  211MOL0     H28437   1.395   7.894  11.734 -0.1104  2.8449  2.5167
  211MOL0     H28438   1.573   7.871  11.694  0.7680  0.4811  1.7452
  211MOL0     H28439   1.501   8.070  11.895  0.2805 -1.0832 -0.3542
  211MOL0     H28440   1.650   7.990  11.861  0.2703  2.7889  0.1743
  211MOL0     H28441   1.550   7.895  12.059  1.6894  1.9527 -0.2870
  211MOL0     H28442   1.534   7.775  11.944 -1.0329 -1.3184 -0.3545
  211MOL0     H28443   1.347   7.739  12.021  2.2090  0.1936 -1.0878
  211MOL0     H28444   1.296   7.867  11.909  0.7606 -0.1009 -0.3987
  211MOL0     H28445   1.460   8.125  12.212 -0.0405 -1.9383 -0.1232
  211MOL0     H28446   1.450   8.486  12.189  4.2474  1.5158 -2.2708
  211MOL0     H28447   1.531   8.337  12.262  2.7841  0.9437 -0.7803
  211MOL0     H28448   1.570   8.411  12.100 -1.6303 -0.4548 -2.8557
  211MOL0     H28449   1.301   8.759  11.943  0.0964  0.5370  0.5040
  211MOL0     H28450   1.281   8.968  11.808  3.5294 -1.4181  1.3446
  211MOL0     H28451   1.075   8.938  11.417 -0.1036 -2.0126  1.4711
  211MOL0     H28452   0.947   8.982  11.525 -0.7608  1.3271  1.0851
  211MOL0     H28453   0.930   9.190  11.435 -0.9239 -2.2617 -0.6661
  211MOL0     H28454   1.087   9.224  11.513 -1.0192  1.6495  0.0366
  211MOL0     H28455   1.069   9.277  11.268  0.7245  1.3849  0.8815
  211MOL0     H28456   1.089   9.093  11.249  2.6908 -1.9315  2.7328
  211MOL0     H28457   1.272   9.234  11.426 -1.5347  2.3223 -1.2215
  211MOL0     H28458   1.268   9.062  11.355  1.5884 -0.2500 -0.9078
  211MOL0     H28459   1.444   9.220  11.254  0.7839  0.9927 -0.1131
  211MOL0     H28460   1.313   9.344  11.221  0.8103 -0.1808 -0.2553
  211MOL0     H28461   1.355   9.072  11.085 -1.4617 -1.2191  1.0466
  211MOL0     H28462   1.210   9.161  11.069  0.5191  2.1365 -0.3802
  211MOL0     H28463   1.334   9.358  10.987  2.6616  0.9901  0.3854
  211MOL0     H28464   1.337   9.206  10.877 -0.2716 -3.1860  1.0539
  211MOL0     H28465   1.539   9.151  10.932 -1.7891 -1.3593  0.0523
  211MOL0     H28466   1.567   9.242  11.079  2.4268  1.2127 -1.8535
  211MOL0     H28467   0.998   8.761  11.547 -0.8664  0.2941  0.4773
  211MOL0     H28468   1.049   8.558  11.666  1.6508 -0.6398 -1.7022
  211MOL0     H28469   1.164   8.273  11.849 -2.9517  1.5549  2.0514
  211MOL0     H28470   1.165   8.041  11.915  0.9840 -0.0536  0.1952
  211MOL0     H28471   0.860   8.727  11.053  3.8844 -2.0659 -2.4408
  211MOL0     H28472   0.637   8.647  10.931  1.0095 -0.0225 -1.0553
  211MOL0     H28473   0.274   8.251  11.188 -0.3368 -1.9025 -0.8563
  211MOL0     H28474   0.084   8.117  11.112 -1.7156  0.2784 -1.0709
  211MOL0     H28475  -0.090   8.071  10.994 -0.4917  2.3529 -2.9275
  211MOL0     H28476  -0.125   7.958  10.874 -0.5022 -1.2009  1.7373
  211MOL0     H28477   0.099   7.894  11.076  0.4166  1.3258  0.4441
  211MOL0     H28478   0.054   7.805  10.943 -0.1784  0.3053 -0.0835
  211MOL0     H28479  -0.095   7.685  11.081  1.8992 -0.1855 -3.2532
  211MOL0     H28480  -0.204   7.829  11.053 -1.3347  3.2225  5.0786
  211MOL0     H28481  -0.133   7.934  11.257  4.6237  0.2163  2.2729
  211MOL0     H28482  -0.029   7.803  11.294 -1.9939 -1.4448  1.6242
  211MOL0     H28483  -0.386   7.641  11.423  1.0347 -2.4676 -2.0754
  211MOL0     H28484   0.239   8.158  10.713  2.3497  0.5653  0.3027
  211MOL0     H28485   0.407   8.327  10.787 -0.8380  0.7158 -2.0769
  212MOL0     O28486   5.220   4.475   7.286  0.8455  0.7335  0.0201
  212MOL0     C28487   5.186   4.552   7.375  0.4204  0.2550  0.2217
  212MOL0     O28488   5.069   4.618   7.383  0.1768 -0.2069 -0.2935
  212MOL0     C28489   4.972   4.617   7.284  0.8881  0.0087  0.4870
  212MOL0     C28490   4.879   4.717   7.309 -0.2430  0.3866 -0.2057
  212MOL0     C28491   4.772   4.734   7.211  0.6925  0.6943 -0.3605
  212MOL0     C28492   4.752   4.660   7.091 -0.3208  0.2741 -0.8616
  212MOL0     O28493   4.646   4.688   7.012  0.4230  0.3193 -0.2783
  212MOL0     C28494   4.635   4.617   6.888  1.3033  0.0203  0.1790
  212MOL0     C28495   4.749   4.660   6.790  0.5760  0.8912 -0.1614
  212MOL0     C28496   4.691   4.752   6.678  0.3146 -0.6832 -0.4077
  212MOL0     C28497   4.618   4.669   6.567 -0.5390  0.2784  0.0961
  212MOL0     C28498   4.668   4.717   6.427  0.6231  0.3105  0.4017
  212MOL0     C28499   4.612   4.618   6.311 -0.2254 -0.1374  0.6615
  212MOL0     C28500   4.666   4.651   6.167 -0.8565 -0.2441 -0.3600
  212MOL0     C28501   4.813   4.689   6.159 -0.0633 -0.3674  0.3665
  212MOL0     N28502   4.893   4.569   6.188  0.2455 -1.0057 -0.0627
  212MOL0     C28503   4.891   4.451   6.118  0.6853  1.6565  0.2885
  212MOL0     C28504   4.963   4.366   6.187 -0.0244  0.9981 -0.3530
  212MOL0     C28505   4.995   4.213   6.176  0.3583  0.0773  0.0058
  212MOL0     C28506   5.092   4.167   6.286  0.1104  0.7746  0.2408
  212MOL0     C28507   5.238   4.221   6.280  1.1066  0.0937 -0.0220
  212MOL0     C28508   5.340   4.144   6.198  0.5223  0.5141  0.6736
  212MOL0     O28509   5.361   3.997   6.227  0.8817 -0.3448 -1.2091
  212MOL0     C28510   5.479   3.951   6.273  0.3507 -0.3472  0.3444
  212MOL0     C28511   5.528   3.832   6.233 -0.4919 -0.4162 -0.9843
  212MOL0     C28512   5.653   3.779   6.279  0.4890 -0.1927 -0.1977
  212MOL0     C28513   5.690   3.640   6.217  0.8729 -0.3053  0.3395
  212MOL0     C28514   5.740   3.860   6.361  1.0477  0.2758 -0.2333
  212MOL0     C28515   5.882   3.815   6.382  0.4051  0.6043  0.3947
  212MOL0     O28516   5.934   3.697   6.333 -0.1840 -0.8125  0.4944
  212MOL0     C28517   6.072   3.690   6.324 -0.3489 -0.2077  0.7740
  212MOL0     C28518   6.140   3.628   6.424 -0.8346 -0.0086 -0.1708
  212MOL0     C28519   6.280   3.628   6.433  0.0212 -0.2276  0.3897
  212MOL0     C28520   6.362   3.693   6.340  0.6421  1.1120  0.0009
  212MOL0     O28521   6.499   3.690   6.356  0.0401  0.1302 -0.4225
  212MOL0     C28522   6.582   3.767   6.259  0.7033 -0.0921  0.1197
  212MOL0     C28523   6.730   3.764   6.301  0.1586  0.4537  0.1990
  212MOL0     C28524   6.795   3.635   6.246  0.1242 -0.7737  1.1835
  212MOL0     C28525   6.767   3.510   6.330 -1.2388  0.2202  1.2061
  212MOL0     C28526   6.866   3.405   6.290  0.3357 -0.1017  0.8553
  212MOL0     C28527   6.835   3.275   6.365  0.4619 -0.3173  0.2370
  212MOL0     C28528   6.910   3.143   6.311  0.4448  0.7692 -0.0546
  212MOL0     C28529   6.892   3.033   6.413 -0.5094  0.0604 -0.8537
  212MOL0    Cl28530   6.729   2.966   6.422  0.2991  0.1388 -0.1162
  212MOL0     C28531   6.299   3.757   6.227 -0.0618 -0.6305 -0.5039
  212MOL0     C28532   6.152   3.742   6.217  0.1776 -0.5906  0.9595
  212MOL0     O28533   5.944   3.881   6.466 -0.8124  0.1462  0.5371
  212MOL0     C28534   5.685   3.985   6.398  0.3205  0.0670 -0.8386
  212MOL0     C28535   5.562   4.030   6.356 -0.0530 -0.5702 -0.6780
  212MOL0     N28536   5.005   4.440   6.293 -0.5571 -0.4168  0.7863
  212MOL0     N28537   4.964   4.563   6.296  0.5096  0.4918 -0.5115
  212MOL0     C28538   4.859   4.563   7.071 -0.0389 -1.4164  0.5234
  212MOL0     C28539   4.957   4.543   7.164 -0.5090 -0.2199 -0.6880
  212MOL0     C28540   5.292   4.577   7.485 -0.1091 -0.4368 -0.4435
  212MOL0     C28541   5.422   4.525   7.482 -0.2720 -0.6373 -0.0595
  212MOL0     C28542   5.518   4.562   7.579 -0.9505  0.4887 -0.5867
  212MOL0     C28543   5.471   4.640   7.690 -0.7418 -0.1058  0.3330
  212MOL0     O28544   5.558   4.657   7.797 -1.2571 -0.4386 -0.2736
  212MOL0     C28545   5.576   4.778   7.860 -0.3183  0.1871  0.3547
  212MOL0     C28546   5.685   4.855   7.787 -0.3167 -1.1295 -0.2113
  212MOL0     C28547   5.635   4.968   7.689  0.0819 -0.4598 -0.4910
  212MOL0     C28548   5.554   5.088   7.744  0.3385  0.2112  0.0791
  212MOL0     C28549   5.640   5.185   7.798 -0.0517  0.6033  0.9319
  212MOL0     C28550   5.723   5.264   7.840  0.1989 -0.4034  0.8679
  212MOL0     C28551   5.347   4.692   7.688  0.2968  0.6993  0.7966
  212MOL0     C28552   5.259   4.658   7.593 -0.4507 -0.6264  0.9852
  212MOL0     H28553   4.896   4.780   7.395  1.9997  0.4341 -0.6283
  212MOL0     H28554   4.700   4.811   7.234 -3.5294 -3.4918  2.3163
  212MOL0     H28555   4.638   4.509   6.907  1.6092  0.1227  0.7182
  212MOL0     H28556   4.531   4.630   6.856  0.9254  3.6784  2.3294
  212MOL0     H28557   4.830   4.708   6.845  0.5583  0.7079  0.0278
  212MOL0     H28558   4.781   4.561   6.755 -1.4706 -0.5699  1.7645
  212MOL0     H28559   4.634   4.836   6.719 -0.5230 -0.4353 -1.9821
  212MOL0     H28560   4.773   4.813   6.637 -1.1093  2.1299  0.6349
  212MOL0     H28561   4.636   4.562   6.578 -2.3951 -0.1688 -0.7991
  212MOL0     H28562   4.509   4.674   6.580 -0.6394  1.0964 -0.8569
  212MOL0     H28563   4.646   4.820   6.398 -0.4367 -0.6998 -2.8022
  212MOL0     H28564   4.777   4.701   6.422  0.8866  1.4715  1.7872
  212MOL0     H28565   4.643   4.516   6.333  2.7197  0.9990  2.2898
  212MOL0     H28566   4.503   4.618   6.304 -0.3850  1.6529  2.2318
  212MOL0     H28567   4.648   4.566   6.101  2.4695 -1.3877  0.0479
  212MOL0     H28568   4.601   4.732   6.131 -0.7430  1.6488  3.2113
  212MOL0     H28569   4.842   4.772   6.225 -0.3387  1.5397 -1.7987
  212MOL0     H28570   4.838   4.727   6.060  1.1701  1.3260  1.2599
  212MOL0     H28571   4.825   4.423   6.036 -0.0255 -1.0496  1.6683
  212MOL0     H28572   4.904   4.154   6.181 -1.0877  2.2444  0.5924
  212MOL0     H28573   5.050   4.191   6.084  3.5993  1.6909  1.3751
  212MOL0     H28574   5.106   4.058   6.286  1.9675  0.9731 -0.1826
  212MOL0     H28575   5.047   4.196   6.381 -2.1366  0.3132 -0.6298
  212MOL0     H28576   5.265   4.234   6.385  3.6131 -1.3404 -0.4084
  212MOL0     H28577   5.238   4.322   6.237  0.0808 -0.7491 -2.1865
  212MOL0     H28578   5.434   4.195   6.220 -0.1166  1.7777  0.5634
  212MOL0     H28579   5.308   4.162   6.095  0.6885  0.8708  0.6845
  212MOL0     H28580   5.464   3.772   6.168 -1.6999 -0.1658 -0.0682
  212MOL0     H28581   5.721   3.576   6.300  1.8959  1.1030  1.1062
  212MOL0     H28582   5.604   3.608   6.158 -0.6264  1.8831  1.2156
  212MOL0     H28583   5.770   3.651   6.144  0.1615 -2.9901 -0.9664
  212MOL0     H28584   6.082   3.587   6.507 -1.2152 -0.6008 -0.7205
  212MOL0     H28585   6.331   3.576   6.513  0.4839 -2.3044 -1.1656
  212MOL0     H28586   6.575   3.726   6.157  0.8131 -3.0051  1.1863
  212MOL0     H28587   6.557   3.873   6.260 -0.7711 -0.4264  0.2204
  212MOL0     H28588   6.787   3.842   6.249 -1.8851  0.2852 -2.5584
  212MOL0     H28589   6.745   3.758   6.409  0.5450 -1.0007  0.0938
  212MOL0     H28590   6.904   3.647   6.244  0.0742 -0.2082 -1.4737
  212MOL0     H28591   6.768   3.621   6.141  2.1192  0.6571  0.4267
  212MOL0     H28592   6.782   3.527   6.437 -0.0580  1.6721  0.8583
  212MOL0     H28593   6.667   3.471   6.312 -0.4874 -0.3350 -2.4796
  212MOL0     H28594   6.969   3.435   6.314  0.6610 -0.4298 -0.0757
  212MOL0     H28595   6.863   3.390   6.182 -2.2291  2.9976  0.3468
  212MOL0     H28596   6.865   3.296   6.468 -1.3916  1.4341  0.4763
  212MOL0     H28597   6.728   3.253   6.375  0.3330  0.1402 -0.0969
  212MOL0     H28598   7.015   3.164   6.289 -0.0199  1.8472 -1.4173
  212MOL0     H28599   6.865   3.125   6.213 -2.5177  1.4196  1.0882
  212MOL0     H28600   6.923   3.061   6.514 -3.5304 -1.6777  0.7038
  212MOL0     H28601   6.969   2.961   6.382  0.9391  0.1485  2.1508
  212MOL0     H28602   6.351   3.824   6.159  0.4338  0.0328  0.4981
  212MOL0     H28603   6.102   3.788   6.133  1.2648  3.2220  2.2046
  212MOL0     H28604   5.741   4.055   6.459 -3.1729  0.8046  1.7856
  212MOL0     H28605   5.531   4.117   6.414 -0.0893 -0.0662 -1.4404
  212MOL0     H28606   4.859   4.506   6.979 -1.0535 -2.6947  1.2793
  212MOL0     H28607   5.037   4.470   7.151  0.9883  1.3864 -0.7679
  212MOL0     H28608   5.459   4.475   7.393  1.8086  0.8572 -0.0990
  212MOL0     H28609   5.621   4.527   7.575 -0.5793  0.9304  2.4500
  212MOL0     H28610   5.483   4.835   7.873  1.6994  3.5743  1.0912
  212MOL0     H28611   5.618   4.750   7.957  0.6690 -1.6429 -0.5440
  212MOL0     H28612   5.754   4.789   7.733  1.1522 -0.5299  0.8718
  212MOL0     H28613   5.745   4.902   7.865 -0.9207 -1.0740  0.2254
  212MOL0     H28614   5.573   4.923   7.611 -1.5234 -0.4363  0.7213
  212MOL0     H28615   5.730   4.996   7.642  0.0239 -0.8676 -0.8553
  212MOL0     H28616   5.481   5.061   7.821  0.0737 -0.3991 -0.3780
  212MOL0     H28617   5.499   5.125   7.656 -0.8146 -5.1552 -1.8349
  212MOL0     H28618   5.786   5.335   7.888  0.8220  0.3266 -0.9501
  212MOL0     H28619   5.314   4.752   7.772  0.4929 -0.1980  1.5309
  212MOL0     H28620   5.155   4.688   7.591  0.2255  2.0186 -1.5348
  213MOL0     O28621   5.175   4.187  11.396 -0.4684 -0.5833 -0.0337
  213MOL0     C28622   5.121   4.108  11.465 -1.5464 -0.1768 -0.8516
  213MOL0     O28623   4.991   4.119  11.495  0.4179 -0.1414  0.5532
  213MOL0     C28624   4.925   4.230  11.465 -0.2481  0.5646 -0.5487
  213MOL0     C28625   4.825   4.238  11.372 -0.2704 -0.5644 -1.2860
  213MOL0     C28626   4.749   4.356  11.364 -0.1182 -0.1212  0.0597
  213MOL0     C28627   4.777   4.477  11.428  0.0675  1.1091 -0.3015
  213MOL0     O28628   4.699   4.589  11.408 -0.5152  0.4415 -0.5014
  213MOL0     C28629   4.686   4.680  11.519  0.7973  0.1705  0.2481
  213MOL0     C28630   4.787   4.793  11.496  0.5384  1.0695 -0.5966
  213MOL0     C28631   4.741   4.935  11.506  0.6570 -0.2651  0.1270
  213MOL0     C28632   4.709   4.977  11.647 -0.3311  1.1895 -0.4457
  213MOL0     C28633   4.660   5.126  11.658  0.1803  0.2120 -0.2024
  213MOL0     C28634   4.524   5.148  11.583  0.0102  0.5424 -0.2426
  213MOL0     C28635   4.398   5.060  11.615 -0.3172  0.4199 -0.1358
  213MOL0     C28636   4.349   5.088  11.760  0.2276  0.5118  0.1434
  213MOL0     N28637   4.340   5.228  11.805  0.0558  0.3610 -0.4222
  213MOL0     C28638   4.255   5.314  11.743  0.6144 -0.2860 -0.0557
  213MOL0     C28639   4.272   5.430  11.823  1.0414  0.5335 -0.4088
  213MOL0     C28640   4.191   5.561  11.818  0.9147  0.4927 -0.4206
  213MOL0     C28641   4.144   5.607  11.962 -0.5298 -1.2579  0.0682
  213MOL0     C28642   4.058   5.734  11.955 -0.2868  0.0004  1.0357
  213MOL0     C28643   4.085   5.814  12.081  1.1162 -0.4113 -0.0113
  213MOL0     O28644   4.014   5.934  12.048  0.0652 -0.5478 -0.8475
  213MOL0     C28645   4.005   6.028  12.149  1.5135 -0.0438 -0.2986
  213MOL0     C28646   3.893   6.108  12.147 -0.5301  0.0019  0.0965
  213MOL0     C28647   3.884   6.226  12.230  0.6588  0.8112 -0.3110
  213MOL0     C28648   3.794   6.343  12.184  0.5105  0.6314 -0.0064
  213MOL0     C28649   3.980   6.239  12.337  0.1127  1.3657 -0.6345
  213MOL0     C28650   3.967   6.339  12.438  0.1786 -0.4637 -0.1706
  213MOL0     O28651   3.849   6.386  12.471  0.9228 -0.2451 -0.2596
  213MOL0     C28652   3.835   6.470  12.578  0.5851  0.5098  0.0771
  213MOL0     C28653   3.879   6.602  12.567  0.9077  0.6238  0.4910
  213MOL0     C28654   3.858   6.696  12.671 -1.2906 -0.2758 -0.1122
  213MOL0     C28655   3.801   6.645  12.794 -0.3541 -0.7709  0.5958
  213MOL0     O28656   3.785   6.731  12.904 -0.9032  0.2323  0.3102
  213MOL0     C28657   3.779   6.679  13.037 -0.9270 -0.8645 -0.4960
  213MOL0     C28658   3.808   6.793  13.141  0.2681  0.6970  0.2466
  213MOL0     C28659   3.698   6.908  13.148  0.5567 -0.5550  1.3099
  213MOL0     C28660   3.746   7.034  13.216  0.3671 -0.2295  1.3071
  213MOL0     C28661   3.656   7.146  13.187  0.3241  0.6185  0.9310
  213MOL0     C28662   3.685   7.263  13.286  0.5498  0.5626 -0.4881
  213MOL0     C28663   3.599   7.240  13.414 -0.1047  0.1583  0.2114
  213MOL0     C28664   3.440   7.268  13.398  0.2618 -0.5744 -0.1578
  213MOL0    Cl28665   3.373   7.361  13.529 -0.6214 -0.5722 -0.1694
  213MOL0     C28666   3.763   6.516  12.807  0.0210  1.0167  0.5161
  213MOL0     C28667   3.774   6.428  12.700 -0.0876 -0.5737  0.4087
  213MOL0     O28668   4.073   6.378  12.482  0.1444 -0.4686  1.2568
  213MOL0     C28669   4.088   6.137  12.353 -1.2893 -0.1095 -0.6196
  213MOL0     C28670   4.098   6.035  12.258 -0.2037  0.2008 -0.4112
  213MOL0     N28671   4.374   5.407  11.909  1.1511 -0.1730 -0.9178
  213MOL0     N28672   4.418   5.282  11.905 -0.0970 -0.6440  0.4349
  213MOL0     C28673   4.893   4.473  11.512  0.6775 -0.5302  1.7661
  213MOL0     C28674   4.967   4.348  11.522 -0.0312 -0.2495  0.2602
  213MOL0     C28675   5.204   3.999  11.512 -0.2081 -0.0030  0.6901
  213MOL0     C28676   5.160   3.920  11.623 -0.3946 -0.5151 -0.1870
  213MOL0     C28677   5.241   3.825  11.665 -0.1234  0.1842  0.1101
  213MOL0     C28678   5.366   3.803  11.611 -0.7671 -0.3167 -0.0603
  213MOL0     O28679   5.428   3.694  11.677  0.8067  0.1433 -0.0330
  213MOL0     C28680   5.563   3.658  11.645 -0.5467 -0.2161  0.4072
  213MOL0     C28681   5.675   3.733  11.722 -0.1420  0.0604 -0.2904
  213MOL0     C28682   5.692   3.667  11.859 -0.2576  0.5028  0.1593
  213MOL0     C28683   5.703   3.781  11.967  0.1155 -0.6459  0.1282
  213MOL0     C28684   5.573   3.843  11.980  0.7500  0.1243  0.2545
  213MOL0     C28685   5.468   3.881  12.001 -0.5071 -0.0025  0.6125
  213MOL0     C28686   5.415   3.882  11.502  0.1292  0.2024  0.4482
  213MOL0     C28687   5.328   3.969  11.446 -0.2784  0.3155  0.2087
  213MOL0     H28688   4.798   4.152  11.311  0.9202 -0.9933 -1.2371
  213MOL0     H28689   4.658   4.366  11.305  0.4340  0.3673 -0.7129
  213MOL0     H28690   4.590   4.730  11.531  0.8031  0.3008 -0.2176
  213MOL0     H28691   4.703   4.627  11.613 -4.0218 -2.2477  0.0816
  213MOL0     H28692   4.877   4.788  11.558  0.6791  1.2584 -0.7843
  213MOL0     H28693   4.823   4.778  11.394 -2.7471 -0.9266 -1.6052
  213MOL0     H28694   4.824   4.994  11.466  2.1809 -3.5237 -1.8910
  213MOL0     H28695   4.653   4.940  11.440 -0.6783 -1.7382  1.7021
  213MOL0     H28696   4.633   4.911  11.691 -1.3544  2.1433 -0.7428
  213MOL0     H28697   4.802   4.964  11.702  0.5452  1.3834 -1.8203
  213MOL0     H28698   4.642   5.159  11.761  2.4326  0.4358  0.1654
  213MOL0     H28699   4.733   5.193  11.612  0.1534  0.0234 -0.5195
  213MOL0     H28700   4.502   5.255  11.590  1.2840  1.1059 -3.1438
  213MOL0     H28701   4.548   5.138  11.476  3.8130  3.8291  0.0947
  213MOL0     H28702   4.315   5.083  11.547 -1.8393  2.2321  2.1712
  213MOL0     H28703   4.414   4.953  11.606 -0.3025  0.5737 -2.5765
  213MOL0     H28704   4.418   5.036  11.828 -1.2707  1.1776  2.2800
  213MOL0     H28705   4.260   5.026  11.772  0.1948  0.1760 -1.5492
  213MOL0     H28706   4.185   5.299  11.661  1.7059 -1.6105 -0.7896
  213MOL0     H28707   4.253   5.637  11.769 -0.4773  1.1662 -1.1671
  213MOL0     H28708   4.103   5.560  11.754  0.2787  2.5146  0.3441
  213MOL0     H28709   4.228   5.616  12.032 -1.0383 -0.0193  0.5607
  213MOL0     H28710   4.084   5.523  12.000  2.2880 -2.7711  1.4987
  213MOL0     H28711   3.955   5.705  11.934  0.3728 -2.1849  0.5758
  213MOL0     H28712   4.095   5.804  11.880  3.8957  0.3788  3.1481
  213MOL0     H28713   4.193   5.819  12.099  1.1950 -2.9779  0.6561
  213MOL0     H28714   4.025   5.764  12.158 -1.9789 -1.6211 -2.9311
  213MOL0     H28715   3.816   6.108  12.071 -0.9365 -0.0198  0.5064
  213MOL0     H28716   3.698   6.346  12.237  1.1043  1.4989  1.0725
  213MOL0     H28717   3.844   6.430  12.227  1.7663  0.4156 -0.9866
  213MOL0     H28718   3.790   6.357  12.075 -2.3186 -0.2782 -0.1126
  213MOL0     H28719   3.921   6.638  12.473 -0.4393  0.4340 -0.1999
  213MOL0     H28720   3.862   6.804  12.663 -3.9069 -0.1826 -1.1483
  213MOL0     H28721   3.681   6.637  13.059 -1.3030  0.1676 -0.1510
  213MOL0     H28722   3.855   6.602  13.055  0.5261  0.2236 -1.7433
  213MOL0     H28723   3.818   6.738  13.235 -1.9616  0.7165  0.5389
  213MOL0     H28724   3.905   6.840  13.118  0.4229  1.4385  2.1845
  213MOL0     H28725   3.618   6.873  13.214  0.5074 -2.3712  0.3521
  213MOL0     H28726   3.665   6.929  13.046  0.5812 -3.4549  0.6035
  213MOL0     H28727   3.749   7.006  13.322  0.0062  0.6092  1.5473
  213MOL0     H28728   3.840   7.059  13.168  0.2694 -3.0316 -0.5472
  213MOL0     H28729   3.555   7.104  13.198  0.3368 -0.0551 -1.1224
  213MOL0     H28730   3.676   7.174  13.084 -1.5196 -2.1468 -0.3089
  213MOL0     H28731   3.792   7.265  13.308  0.6716 -0.2326 -0.9495
  213MOL0     H28732   3.644   7.352  13.238 -3.4108 -1.0595 -0.4584
  213MOL0     H28733   3.635   7.304  13.495  1.0434 -0.2008  0.0042
  213MOL0     H28734   3.595   7.137  13.451 -3.9485  1.0965  3.0643
  213MOL0     H28735   3.378   7.178  13.399 -0.6913 -0.0077 -2.6554
  213MOL0     H28736   3.412   7.319  13.306  0.1668  0.1928  0.2833
  213MOL0     H28737   3.710   6.475  12.893  1.7948 -0.8867  0.7658
  213MOL0     H28738   3.740   6.326  12.712 -0.5349 -0.6833 -1.4855
  213MOL0     H28739   4.163   6.144  12.431 -1.9186  1.6949 -0.1426
  213MOL0     H28740   4.189   5.979  12.277 -0.9718 -0.9886 -0.0960
  213MOL0     H28741   4.931   4.565  11.556 -1.4736  2.0217 -1.2627
  213MOL0     H28742   5.051   4.337  11.590 -0.7373 -2.0913  0.9029
  213MOL0     H28743   5.061   3.944  11.661 -0.2814 -0.7854  0.2850
  213MOL0     H28744   5.212   3.754  11.742  1.3534 -3.2579 -2.2752
  213MOL0     H28745   5.585   3.555  11.674 -2.0033 -0.6113  0.1880
  213MOL0     H28746   5.586   3.670  11.539  0.2286  0.8939  0.6765
  213MOL0     H28747   5.667   3.842  11.731  0.3170  0.1678 -1.0700
  213MOL0     H28748   5.770   3.714  11.671  1.8119 -1.6534  3.5487
  213MOL0     H28749   5.781   3.604  11.873 -0.1664  0.8255  1.1514
  213MOL0     H28750   5.610   3.599  11.881  2.3976 -2.1940  2.7815
  213MOL0     H28751   5.780   3.848  11.927  1.6959 -3.0052 -0.9863
  213MOL0     H28752   5.743   3.746  12.062  0.9982  0.9082  0.3632
  213MOL0     H28753   5.375   3.912  12.045 -0.7130 -1.6241  1.4218
  213MOL0     H28754   5.514   3.849  11.471  0.1078  0.7607 -0.2429
  213MOL0     H28755   5.369   4.029  11.365 -1.1523 -0.1122 -0.5551
  214MOL0     O28756   4.807  10.316   4.398 -1.1945 -0.6910  0.9136
  214MOL0     C28757   4.812  10.218   4.322  0.7390 -0.0774  0.0876
  214MOL0     O28758   4.916  10.124   4.311 -0.3336 -0.3976  0.5717
  214MOL0     C28759   5.037  10.156   4.372  0.5068 -2.2594 -0.2125
  214MOL0     C28760   5.050  10.134   4.509 -0.1197  0.2333 -0.6884
  214MOL0     C28761   5.169  10.172   4.569 -0.1039  0.3913  0.9232
  214MOL0     C28762   5.279  10.232   4.512  0.0770 -0.1562 -0.0257
  214MOL0     O28763   5.398  10.274   4.568  0.1845  0.9975 -0.0297
  214MOL0     C28764   5.427  10.202   4.681 -0.4090 -1.2627 -0.3760
  214MOL0     C28765   5.575  10.203   4.695 -0.2199  0.2947  1.1821
  214MOL0     C28766   5.651  10.141   4.572 -0.1977  0.7559 -0.1473
  214MOL0     C28767   5.707   9.998   4.604  0.0548  0.3920  0.7069
  214MOL0     C28768   5.766   9.912   4.495 -0.1346 -0.3122 -0.6116
  214MOL0     C28769   5.861   9.985   4.397  0.9932 -0.3831 -0.1756
  214MOL0     C28770   5.936   9.915   4.297 -0.2085 -0.2664 -0.1772
  214MOL0     C28771   6.040   9.821   4.368  0.0504  0.0480 -0.4427
  214MOL0     N28772   6.156   9.780   4.294  0.4407 -0.2092  0.5822
  214MOL0     C28773   6.283   9.822   4.323 -0.9299 -0.9206  0.6226
  214MOL0     C28774   6.362   9.746   4.242 -0.2897  0.0575  0.1976
  214MOL0     C28775   6.511   9.743   4.246  0.0315 -0.2703 -0.4483
  214MOL0     C28776   6.551   9.680   4.381  0.0640  0.1500  0.3992
  214MOL0     C28777   6.677   9.738   4.411  1.1831 -0.5089 -0.4970
  214MOL0     C28778   6.790   9.687   4.326  0.1527  0.5947  0.1353
  214MOL0     O28779   6.912   9.747   4.368  0.0535 -0.2546  0.4213
  214MOL0     C28780   6.984   9.818   4.275  0.0396 -0.7404 -0.1950
  214MOL0     C28781   6.947   9.947   4.256 -0.0640 -0.3572 -1.7991
  214MOL0     C28782   7.034  10.038   4.185 -0.8078  0.1463  0.8925
  214MOL0     C28783   6.999  10.188   4.170 -1.0490  1.0644  0.6482
  214MOL0     C28784   7.149   9.979   4.123  0.1656 -0.2122  0.4812
  214MOL0     C28785   7.259  10.051   4.053 -0.6658 -0.4084  0.6433
  214MOL0     O28786   7.291  10.176   4.103  0.6001  0.0530 -0.5223
  214MOL0     C28787   7.369  10.258   4.033 -0.8935  0.2600  0.9116
  214MOL0     C28788   7.349  10.294   3.901 -0.1246 -0.2555  0.5148
  214MOL0     C28789   7.439  10.384   3.843  0.6078  0.5193  0.5459
  214MOL0     C28790   7.555  10.422   3.903 -0.1724 -0.9110 -0.6082
  214MOL0     O28791   7.651  10.490   3.846  0.3076 -0.6506  0.3597
  214MOL0     C28792   7.607  10.557   3.722 -0.5939  0.7582 -0.3160
  214MOL0     C28793   7.700  10.673   3.685 -0.1842  0.1549  0.2473
  214MOL0     C28794   7.655  10.745   3.560  0.0458 -0.5545 -0.2190
  214MOL0     C28795   7.768  10.788   3.473  0.6437  0.6109  1.1254
  214MOL0     C28796   7.701  10.859   3.350  0.3311 -0.3184  0.0688
  214MOL0     C28797   7.808  10.924   3.266 -0.1507 -0.1528 -0.1445
  214MOL0     C28798   7.775  11.002   3.133  0.5666 -0.4583 -0.8728
  214MOL0     C28799   7.667  10.946   3.045 -0.1370 -0.5878 -0.3822
  214MOL0    Cl28800   7.514  10.982   3.133  0.1770 -0.0974 -0.4187
  214MOL0     C28801   7.574  10.388   4.039 -0.2649 -0.0864 -0.5831
  214MOL0     C28802   7.476  10.310   4.100 -0.2160 -0.7458 -0.3992
  214MOL0     O28803   7.311  10.004   3.947  0.0805  0.1146  0.7104
  214MOL0     C28804   7.173   9.843   4.139  0.9086  1.0282  0.2903
  214MOL0     C28805   7.092   9.765   4.216 -0.8825 -0.3414  0.4440
  214MOL0     N28806   6.287   9.667   4.158  0.3705 -0.1351 -0.6818
  214MOL0     N28807   6.160   9.677   4.197  0.3627  0.6397 -0.1849
  214MOL0     C28808   5.263  10.257   4.377  0.6200 -0.1973  1.5525
  214MOL0     C28809   5.147  10.217   4.303 -0.0988  0.8195  0.9090
  214MOL0     C28810   4.701  10.209   4.227  0.4401 -0.2550  0.2429
  214MOL0     C28811   4.694  10.090   4.143  0.9452  0.6159  0.1814
  214MOL0     C28812   4.595  10.078   4.042 -0.4466  0.8726 -0.0239
  214MOL0     C28813   4.506  10.183   4.025 -1.0035 -0.4557 -0.1851
  214MOL0     O28814   4.388  10.172   3.959  1.7460  0.2687 -0.1062
  214MOL0     C28815   4.376  10.043   3.894 -0.8010 -0.2907 -0.4452
  214MOL0     C28816   4.234  10.047   3.841  0.7685 -0.0283 -0.0143
  214MOL0     C28817   4.211   9.937   3.738 -1.2696  0.3057 -0.3554
  214MOL0     C28818   4.064   9.892   3.734 -0.4664 -0.1304 -0.4441
  214MOL0     C28819   3.988   9.992   3.670  0.5467  0.2035  0.4822
  214MOL0     C28820   3.942  10.067   3.584  0.5358 -0.2047 -0.8656
  214MOL0     C28821   4.521  10.302   4.100  0.3835 -0.4589  0.8087
  214MOL0     C28822   4.615  10.327   4.197  0.0700  0.8479  0.3276
  214MOL0     H28823   4.977  10.077   4.565  1.1308  1.1464  2.0397
  214MOL0     H28824   5.155  10.174   4.677 -0.7606  1.8193  0.8281
  214MOL0     H28825   5.384  10.259   4.764 -2.0618  1.9737 -3.1877
  214MOL0     H28826   5.384  10.102   4.677 -0.0563 -1.3913 -2.1701
  214MOL0     H28827   5.610  10.306   4.700 -2.6544  1.5091 -2.5389
  214MOL0     H28828   5.598  10.151   4.788 -2.7673  0.0252  1.7372
  214MOL0     H28829   5.589  10.148   4.483  3.3932  1.7818 -2.8092
  214MOL0     H28830   5.739  10.197   4.540 -0.9381  0.9359 -1.9998
  214MOL0     H28831   5.793  10.016   4.669  1.0440  4.5320 -1.3926
  214MOL0     H28832   5.632   9.931   4.647  1.7795 -2.3351 -0.3071
  214MOL0     H28833   5.819   9.823   4.529 -0.9452 -0.4944  0.2236
  214MOL0     H28834   5.677   9.869   4.447 -1.4904  0.0467  1.4543
  214MOL0     H28835   5.812  10.064   4.340  0.6077  0.1398  0.8508
  214MOL0     H28836   5.935  10.048   4.448 -0.1814 -1.8873  3.7866
  214MOL0     H28837   5.875   9.848   4.235 -0.8097  0.3453 -0.2527
  214MOL0     H28838   5.980   9.981   4.222 -2.6543  3.4562  1.3499
  214MOL0     H28839   5.982   9.730   4.388 -0.9143  0.7382 -0.0082
  214MOL0     H28840   6.071   9.867   4.462  1.5853  0.9993 -1.3770
  214MOL0     H28841   6.319   9.900   4.389  2.4519 -0.5812 -1.3772
  214MOL0     H28842   6.567   9.684   4.173  1.2968 -1.0004  1.0532
  214MOL0     H28843   6.544   9.846   4.235 -3.2050  1.1943  2.0069
  214MOL0     H28844   6.566   9.572   4.383  3.2347  0.4754 -0.2969
  214MOL0     H28845   6.481   9.721   4.454 -0.4075  2.5854 -1.2779
  214MOL0     H28846   6.695   9.714   4.516 -3.8529 -1.2921  0.4541
  214MOL0     H28847   6.673   9.847   4.414  1.0371 -0.4992  3.0952
  214MOL0     H28848   6.766   9.704   4.220 -0.7441 -2.6544 -0.3156
  214MOL0     H28849   6.786   9.577   4.330  0.6248  0.5133 -1.0182
  214MOL0     H28850   6.867   9.999   4.307  1.7093  0.4158  0.3539
  214MOL0     H28851   6.891  10.191   4.187 -0.9692  0.2756  1.3839
  214MOL0     H28852   7.053  10.245   4.246 -1.5760  1.4408  0.7408
  214MOL0     H28853   7.017  10.231   4.071  2.2381 -2.5296 -0.5960
  214MOL0     H28854   7.263  10.257   3.846  0.4474 -3.2022  1.4809
  214MOL0     H28855   7.418  10.419   3.742  3.9555  0.2571 -0.3918
  214MOL0     H28856   7.606  10.478   3.647 -1.4047  0.0192  0.4476
  214MOL0     H28857   7.510  10.607   3.725 -0.0340  2.1511 -2.7976
  214MOL0     H28858   7.710  10.745   3.767  2.8777  1.1380 -0.8218
  214MOL0     H28859   7.798  10.624   3.676 -0.7287 -0.5932 -2.7967
  214MOL0     H28860   7.604  10.835   3.594  1.1803  0.3426 -0.8197
  214MOL0     H28861   7.589  10.675   3.510 -0.4179 -0.6226  0.4733
  214MOL0     H28862   7.836  10.859   3.521 -0.0540  0.4142  2.4611
  214MOL0     H28863   7.827  10.701   3.445  0.6569  0.2706  2.1454
  214MOL0     H28864   7.636  10.938   3.388  1.6007 -0.5417  2.9402
  214MOL0     H28865   7.640  10.781   3.303 -0.5083  0.9482 -1.0201
  214MOL0     H28866   7.874  10.986   3.327  0.1127 -0.6338  0.0643
  214MOL0     H28867   7.867  10.838   3.233 -0.2328 -0.4024  0.3448
  214MOL0     H28868   7.869  10.988   3.078  2.2268  0.0605  1.6358
  214MOL0     H28869   7.760  11.110   3.148 -2.8251 -1.0889  1.4340
  214MOL0     H28870   7.688  10.840   3.032  2.2689  0.0396 -2.4217
  214MOL0     H28871   7.666  10.998   2.948  1.5901  2.0138  0.8774
  214MOL0     H28872   7.672  10.408   4.080 -1.0772  0.3779  1.2102
  214MOL0     H28873   7.494  10.290   4.206  1.1599 -0.4249 -0.5563
  214MOL0     H28874   7.263   9.802   4.094  0.9429  2.2043 -0.7831
  214MOL0     H28875   7.108   9.660   4.238  1.2988  0.1469  1.5572
  214MOL0     H28876   5.336  10.300   4.309  0.0656 -1.4582  0.1061
  214MOL0     H28877   5.146  10.226   4.195  1.2077  1.5397  0.9396
  214MOL0     H28878   4.771  10.016   4.159  0.1377 -0.4456 -0.6444
  214MOL0     H28879   4.608   9.983   3.991  0.9634 -0.4439  2.6125
  214MOL0     H28880   4.433  10.030   3.802 -0.1899 -0.6638 -0.0227
  214MOL0     H28881   4.391   9.957   3.961  1.2764 -0.2997 -0.8841
  214MOL0     H28882   4.206  10.143   3.796 -2.2589 -0.8436 -0.0902
  214MOL0     H28883   4.166  10.045   3.926  1.1489 -1.2970  0.2882
  214MOL0     H28884   4.267   9.847   3.767 -1.1199  0.5963  0.2810
  214MOL0     H28885   4.252   9.959   3.639 -1.8665 -0.5739 -0.8107
  214MOL0     H28886   4.017   9.867   3.830 -0.6532 -3.1629 -1.2268
  214MOL0     H28887   4.053   9.801   3.675 -2.3857 -0.3333  0.1325
  214MOL0     H28888   3.895  10.156   3.547  0.1618  1.3466  2.8670
  214MOL0     H28889   4.456  10.383   4.068 -0.6475 -2.0309 -1.3848
  214MOL0     H28890   4.637  10.420   4.248  2.3495  0.3639  0.3507
  215MOL0     O28891   4.716   9.437   0.552 -0.5846  0.2419  0.1998
  215MOL0     C28892   4.669   9.327   0.583  0.7853 -0.1780 -1.8741
  215MOL0     O28893   4.559   9.264   0.524 -0.3443  0.1325 -0.0423
  215MOL0     C28894   4.492   9.313   0.415 -1.1715 -0.1114 -0.0200
  215MOL0     C28895   4.496   9.439   0.363 -0.2025  0.5916 -0.3311
  215MOL0     C28896   4.441   9.472   0.239  1.3043  0.0169  1.0596
  215MOL0     C28897   4.362   9.372   0.161  1.1510  0.7153 -0.2137
  215MOL0     O28898   4.275   9.383   0.052  0.3377 -0.1763 -0.6631
  215MOL0     C28899   4.226   9.516   0.027 -0.5292  0.4559  0.3690
  215MOL0     C28900   4.110   9.516  -0.076 -0.5156  0.2278  0.4443
  215MOL0     C28901   3.983   9.457  -0.028  1.1526  0.3598  0.8887
  215MOL0     C28902   3.891   9.437  -0.154  0.0810  0.0768  0.2386
  215MOL0     C28903   3.781   9.338  -0.140  0.0349 -0.3408 -0.0589
  215MOL0     C28904   3.698   9.316  -0.265  0.7827 -0.0233  0.3672
  215MOL0     C28905   3.780   9.246  -0.379 -0.3418  0.5058 -0.6674
  215MOL0     C28906   3.694   9.241  -0.505 -0.3684  1.0843 -0.2006
  215MOL0     N28907   3.665   9.372  -0.561 -0.2185  0.5843 -0.2294
  215MOL0     C28908   3.559   9.449  -0.539  0.4473  1.3221  0.0787
  215MOL0     C28909   3.567   9.565  -0.603  0.2637  1.0628 -0.5732
  215MOL0     C28910   3.462   9.668  -0.605 -0.3140  0.4137 -0.1280
  215MOL0     C28911   3.490   9.773  -0.715 -0.0658 -0.1977  0.1060
  215MOL0     C28912   3.364   9.858  -0.755 -0.2743  0.4852  0.2111
  215MOL0     C28913   3.404   9.982  -0.845 -1.2433  0.3286  0.3767
  215MOL0     O28914   3.291  10.031  -0.919  0.4970  0.9272 -0.7004
  215MOL0     C28915   3.312  10.129  -1.009 -1.5236  0.2649 -0.7178
  215MOL0     C28916   3.433  10.172  -1.062  0.1892 -0.9255 -0.1668
  215MOL0     C28917   3.442  10.287  -1.142  0.5883  0.1311  0.5908
  215MOL0     C28918   3.576  10.336  -1.203 -0.6319  0.0645 -0.5156
  215MOL0     C28919   3.324  10.365  -1.155 -1.4448  0.1130  0.0728
  215MOL0     C28920   3.316  10.492  -1.233  1.1830  0.6437  0.5503
  215MOL0     O28921   3.196  10.507  -1.307  0.0889  0.8294 -0.5287
  215MOL0     C28922   3.152  10.634  -1.347  0.0087 -0.1432 -0.2250
  215MOL0     C28923   3.053  10.622  -1.446 -0.7471 -0.3669  0.1588
  215MOL0     C28924   2.995  10.741  -1.500  0.4184 -0.2394  0.2009
  215MOL0     C28925   3.045  10.864  -1.456  0.1340 -0.0218 -0.8834
  215MOL0     O28926   2.987  10.981  -1.508  0.5271  0.0830  0.2594
  215MOL0     C28927   2.991  11.097  -1.431 -0.2546  0.0936  0.7708
  215MOL0     C28928   2.874  11.195  -1.471  0.1832 -0.0381  0.0517
  215MOL0     C28929   2.876  11.331  -1.401  1.2084  0.9311  0.3620
  215MOL0     C28930   2.753  11.406  -1.433  0.3051 -0.2184  1.0024
  215MOL0     C28931   2.771  11.559  -1.422 -0.4309  0.1341  0.8541
  215MOL0     C28932   2.876  11.628  -1.515  0.4684 -0.4337  0.4399
  215MOL0     C28933   2.870  11.775  -1.503  0.6485 -0.6901  0.1743
  215MOL0     C28934   2.991  11.844  -1.455  0.1224 -1.1890 -0.5824
  215MOL0    Cl28935   3.046  11.779  -1.292  0.2009 -0.2580 -0.0902
  215MOL0     C28936   3.141  10.873  -1.353  0.4581 -0.4421  0.3871
  215MOL0     C28937   3.182  10.760  -1.290 -0.0717  0.5812 -0.4015
  215MOL0     O28938   3.397  10.576  -1.217 -0.4036 -0.1746 -0.2202
  215MOL0     C28939   3.206  10.325  -1.096  0.1225 -0.0773  0.0432
  215MOL0     C28940   3.194  10.202  -1.031 -1.3398  0.4997  0.1132
  215MOL0     N28941   3.681   9.552  -0.677 -0.6161 -0.6633 -0.6358
  215MOL0     N28942   3.743   9.444  -0.642  0.0373  0.5092  0.4548
  215MOL0     C28943   4.365   9.239   0.208  0.5337  0.3540 -0.3180
  215MOL0     C28944   4.425   9.216   0.336 -0.4767  1.2205  0.2155
  215MOL0     C28945   4.736   9.267   0.705 -0.1256 -0.3245  0.4865
  215MOL0     C28946   4.679   9.160   0.775  0.6431 -0.4134  0.7509
  215MOL0     C28947   4.750   9.094   0.873 -0.3081  0.4554 -0.2571
  215MOL0     C28948   4.888   9.120   0.892  0.8343  0.2713 -0.2554
  215MOL0     O28949   4.945   9.044   0.993  0.0291  0.4279  0.4020
  215MOL0     C28950   5.092   9.057   0.994  0.5685 -0.1924 -0.1673
  215MOL0     C28951   5.151   8.946   1.071 -0.6628 -0.2192 -0.3667
  215MOL0     C28952   5.293   8.984   1.135  0.3877  0.1104  0.3935
  215MOL0     C28953   5.266   9.058   1.271 -0.5221  0.0738  0.3316
  215MOL0     C28954   5.389   9.104   1.346  0.7575  0.1079 -0.6185
  215MOL0     C28955   5.473   9.151   1.415 -0.3238  0.2518 -0.2552
  215MOL0     C28956   4.944   9.222   0.820 -0.2215  0.1185 -0.6462
  215MOL0     C28957   4.871   9.306   0.736 -0.7479 -0.0861  0.0752
  215MOL0     H28958   4.538   9.512   0.430  0.0784 -0.8219  1.0923
  215MOL0     H28959   4.432   9.576   0.208  4.9008  1.1447  3.2330
  215MOL0     H28960   4.194   9.563   0.120  1.7924  2.2759  0.3410
  215MOL0     H28961   4.315   9.561  -0.018  0.9519 -1.0987  1.5600
  215MOL0     H28962   4.094   9.615  -0.119  2.9761  1.0823  0.8111
  215MOL0     H28963   4.150   9.455  -0.157 -1.2583 -1.2750  1.1666
  215MOL0     H28964   4.005   9.363   0.024 -3.3325 -1.4708 -0.0256
  215MOL0     H28965   3.926   9.513   0.047 -0.3245 -1.5747  1.3059
  215MOL0     H28966   3.853   9.540  -0.155  3.0166  1.3252  2.2256
  215MOL0     H28967   3.953   9.421  -0.242  1.2202 -0.9511  1.1920
  215MOL0     H28968   3.829   9.244  -0.109 -0.6623 -0.2272  1.4505
  215MOL0     H28969   3.722   9.378  -0.058  1.5061 -1.2692  1.5149
  215MOL0     H28970   3.609   9.256  -0.242  0.0657  1.8384  2.8805
  215MOL0     H28971   3.650   9.410  -0.292 -0.2229 -0.4157  0.7133
  215MOL0     H28972   3.880   9.290  -0.389  0.9646 -1.4280  2.2949
  215MOL0     H28973   3.804   9.148  -0.338 -0.6475 -0.0399 -1.7615
  215MOL0     H28974   3.607   9.177  -0.490  0.1561  0.7101  1.5015
  215MOL0     H28975   3.754   9.186  -0.579 -0.7221 -1.0972  1.0302
  215MOL0     H28976   3.473   9.426  -0.477 -0.5757 -1.7177 -2.2176
  215MOL0     H28977   3.367   9.623  -0.637  0.6916 -1.0911 -1.1564
  215MOL0     H28978   3.460   9.715  -0.506 -0.4384  1.4949 -0.6256
  215MOL0     H28979   3.522   9.722  -0.806 -0.8384 -0.5977  0.0488
  215MOL0     H28980   3.571   9.837  -0.678  2.3014 -3.5304  1.0816
  215MOL0     H28981   3.334   9.909  -0.663  0.5672  2.1027 -0.3655
  215MOL0     H28982   3.283   9.804  -0.802  0.2656 -0.1937  0.0489
  215MOL0     H28983   3.479   9.942  -0.914 -2.6841 -5.3378  1.5806
  215MOL0     H28984   3.442  10.069  -0.791 -0.5855  1.3847 -1.6786
  215MOL0     H28985   3.520  10.118  -1.028 -1.2330 -2.6744  0.8471
  215MOL0     H28986   3.569  10.413  -1.281 -0.5402 -0.6159 -1.2035
  215MOL0     H28987   3.640  10.366  -1.119 -0.4249 -1.5950 -0.0447
  215MOL0     H28988   3.629  10.251  -1.247 -1.3061  0.0438 -1.3141
  215MOL0     H28989   3.022  10.525  -1.484  0.5095 -1.7715  2.4567
  215MOL0     H28990   2.903  10.745  -1.557 -1.3773  1.9118  2.9461
  215MOL0     H28991   2.983  11.065  -1.326  1.7189 -1.1697  0.6092
  215MOL0     H28992   3.089  11.146  -1.439  0.3971 -0.8491  2.3564
  215MOL0     H28993   2.880  11.227  -1.575  0.9005 -0.5384 -0.0686
  215MOL0     H28994   2.780  11.149  -1.439 -0.6885  1.3849 -0.3828
  215MOL0     H28995   2.965  11.390  -1.422  1.6565  1.6495  3.6811
  215MOL0     H28996   2.861  11.323  -1.293  1.4392 -1.3404  0.2732
  215MOL0     H28997   2.736  11.381  -1.538  1.3637  3.7964 -0.3055
  215MOL0     H28998   2.669  11.377  -1.368 -0.4846 -1.9317 -0.6688
  215MOL0     H28999   2.808  11.573  -1.320 -0.3018  1.3025  0.6606
  215MOL0     H29000   2.671  11.602  -1.428 -0.9841 -1.1856  0.4153
  215MOL0     H29001   2.981  11.608  -1.489  1.1181  1.1733 -0.7711
  215MOL0     H29002   2.857  11.584  -1.614 -0.8442  0.4258  0.2922
  215MOL0     H29003   2.788  11.808  -1.439  0.1509  2.2113 -1.7443
  215MOL0     H29004   2.849  11.818  -1.602  1.3454 -0.3956  0.1493
  215MOL0     H29005   2.983  11.952  -1.438  2.1540 -1.1096  0.1869
  215MOL0     H29006   3.072  11.834  -1.529 -0.4983  2.8791 -2.0332
  215MOL0     H29007   3.175  10.974  -1.332 -1.9180  0.3362  0.8035
  215MOL0     H29008   3.250  10.762  -1.206 -1.7950 -1.3614  1.1459
  215MOL0     H29009   3.117  10.387  -1.107  0.9457  0.7600 -2.7968
  215MOL0     H29010   3.101  10.161  -0.994 -1.8327 -1.3470 -2.8650
  215MOL0     H29011   4.308   9.166   0.152 -1.0083  1.2170  0.0914
  215MOL0     H29012   4.424   9.112   0.367 -2.1124  1.5835  1.5532
  215MOL0     H29013   4.584   9.117   0.748  1.6554 -0.7286 -2.7544
  215MOL0     H29014   4.694   9.016   0.925  2.5997 -3.1261 -1.9965
  215MOL0     H29015   5.146   9.075   0.900  2.2959 -0.5857  0.7281
  215MOL0     H29016   5.115   9.149   1.049 -0.7392  0.5487 -0.7909
  215MOL0     H29017   5.185   8.858   1.016  0.2852 -1.7845  2.5565
  215MOL0     H29018   5.084   8.906   1.147 -1.6511 -0.3304 -1.2696
  215MOL0     H29019   5.350   9.056   1.077  3.8405 -1.1220  1.9837
  215MOL0     H29020   5.360   8.899   1.149  2.0265  1.4291  0.8929
  215MOL0     H29021   5.204   8.991   1.331  0.6816 -0.0214  1.5005
  215MOL0     H29022   5.211   9.151   1.249  0.5171  1.6686  3.7670
  215MOL0     H29023   5.544   9.193   1.483  1.0284  1.1618 -2.1357
  215MOL0     H29024   5.050   9.242   0.833 -0.4016  1.9014 -1.5992
  215MOL0     H29025   4.919   9.394   0.696  0.0208  0.8067  2.7169
  216MOL0     O29026   2.173   4.492   2.925  0.2848 -0.1936  0.9594
  216MOL0     C29027   2.160   4.540   2.816 -0.7734 -0.0203 -0.1142
  216MOL0     O29028   2.244   4.634   2.761  0.0367 -0.1765  0.4134
  216MOL0     C29029   2.363   4.664   2.823 -0.1291 -0.2786 -0.2756
  216MOL0     C29030   2.438   4.561   2.879  1.0522 -0.0349  0.2502
  216MOL0     C29031   2.563   4.598   2.939 -0.8731  0.3592 -0.0150
  216MOL0     C29032   2.600   4.738   2.940 -1.0421  0.4086  0.3742
  216MOL0     O29033   2.716   4.789   2.988 -0.1047 -0.7493  0.0959
  216MOL0     C29034   2.842   4.732   2.953  0.5990 -0.1385  0.6977
  216MOL0     C29035   2.939   4.815   3.034  0.0539  0.7922 -0.2148
  216MOL0     C29036   3.068   4.811   2.958 -1.0174  0.3198 -0.1025
  216MOL0     C29037   3.185   4.870   3.041  0.0971 -0.1378  0.3442
  216MOL0     C29038   3.303   4.906   2.954 -0.4585  1.5359  0.9591
  216MOL0     C29039   3.439   4.945   3.014  0.0120 -0.0388 -0.4466
  216MOL0     C29040   3.532   4.993   2.905  0.0387 -0.4997  1.2964
  216MOL0     C29041   3.681   5.017   2.960 -0.0653  0.1066  0.3941
  216MOL0     N29042   3.683   5.141   3.045  0.6624 -0.0359  0.4699
  216MOL0     C29043   3.664   5.145   3.182  0.6195  0.3223  0.2455
  216MOL0     C29044   3.652   5.271   3.214  1.5863  0.3119 -1.0313
  216MOL0     C29045   3.636   5.331   3.348  0.4887  0.1709 -0.1645
  216MOL0     C29046   3.486   5.356   3.366  0.5501  0.0784  0.6843
  216MOL0     C29047   3.475   5.436   3.497 -0.1156  0.4034 -0.3966
  216MOL0     C29048   3.336   5.447   3.557  1.1444 -0.3182  0.7840
  216MOL0     O29049   3.289   5.321   3.578  0.6087  0.4318  0.3358
  216MOL0     C29050   3.163   5.300   3.621  0.1143  0.3725 -0.2289
  216MOL0     C29051   3.111   5.177   3.631  0.2719 -0.3827 -1.0772
  216MOL0     C29052   2.977   5.145   3.672 -0.6653 -0.1413 -0.1529
  216MOL0     C29053   2.946   4.997   3.672 -0.4476 -0.8045 -0.7185
  216MOL0     C29054   2.889   5.243   3.703  0.4275 -0.9016 -0.0091
  216MOL0     C29055   2.740   5.222   3.735 -0.7404 -0.2807 -0.2360
  216MOL0     O29056   2.682   5.101   3.755  0.0380 -0.3556  0.6467
  216MOL0     C29057   2.543   5.104   3.768 -0.3719  0.6942  0.1748
  216MOL0     C29058   2.467   5.073   3.654  0.3637  0.4062 -0.3882
  216MOL0     C29059   2.325   5.076   3.648  0.4549  0.5526 -0.2264
  216MOL0     C29060   2.250   5.095   3.770 -0.1123  0.3322 -0.5764
  216MOL0     O29061   2.116   5.071   3.786 -0.3081  0.1445  0.0144
  216MOL0     C29062   2.036   5.039   3.674  0.9887  0.4493  0.0437
  216MOL0     C29063   1.896   5.029   3.740  0.1660  0.0953 -0.6455
  216MOL0     C29064   1.870   4.886   3.787  0.4740  0.3745 -0.1254
  216MOL0     C29065   1.722   4.865   3.843 -0.0411 -0.3414 -1.0898
  216MOL0     C29066   1.616   4.860   3.724  0.6999 -0.2940 -0.3922
  216MOL0     C29067   1.605   4.724   3.643 -0.2549 -0.7734  0.4015
  216MOL0     C29068   1.543   4.613   3.731  0.3906  0.5923 -0.4229
  216MOL0     C29069   1.577   4.474   3.679  0.4200  0.5314 -0.1052
  216MOL0    Cl29070   1.514   4.468   3.505 -0.4850 -0.2260  0.2386
  216MOL0     C29071   2.330   5.104   3.883 -0.7954  0.0515  0.1458
  216MOL0     C29072   2.470   5.122   3.885 -0.5584 -0.3599 -0.1492
  216MOL0     O29073   2.677   5.326   3.746 -0.2671 -0.4311 -0.3434
  216MOL0     C29074   2.948   5.372   3.718  0.5217 -1.1223  0.6148
  216MOL0     C29075   3.081   5.398   3.683  0.1692  0.6513 -0.1026
  216MOL0     N29076   3.633   5.353   3.107 -0.3403 -0.0561 -0.8629
  216MOL0     N29077   3.658   5.277   3.007  0.2249  0.5828 -0.0980
  216MOL0     C29078   2.524   4.834   2.875 -0.7491 -0.0353  1.2794
  216MOL0     C29079   2.408   4.794   2.807 -0.1300 -0.4328 -0.1121
  216MOL0     C29080   2.037   4.503   2.742 -0.6018  0.6466  0.0507
  216MOL0     C29081   1.935   4.425   2.798 -0.8032 -0.0750  0.4663
  216MOL0     C29082   1.815   4.405   2.732  0.0275  0.7974 -0.0551
  216MOL0     C29083   1.792   4.447   2.601 -0.7937  0.0422 -0.1555
  216MOL0     O29084   1.664   4.441   2.549 -0.5898  0.4577  0.0757
  216MOL0     C29085   1.639   4.478   2.418 -0.0627  0.4464  0.1053
  216MOL0     C29086   1.494   4.461   2.381 -0.0840  0.3947 -0.7051
  216MOL0     C29087   1.464   4.313   2.427  0.5630  0.6560 -0.0329
  216MOL0     C29088   1.322   4.276   2.380 -0.4273  1.3404  0.3368
  216MOL0     C29089   1.262   4.159   2.446  0.1104 -0.5211  0.7092
  216MOL0     C29090   1.215   4.062   2.502 -1.0088  1.0116  0.0131
  216MOL0     C29091   1.903   4.518   2.540  0.9826 -0.0607 -0.0199
  216MOL0     C29092   2.024   4.540   2.604 -0.2167  0.0060 -0.2070
  216MOL0     H29093   2.408   4.459   2.897  0.4115  0.4355  2.0941
  216MOL0     H29094   2.632   4.524   2.979  0.1185  2.1092  1.6867
  216MOL0     H29095   2.841   4.625   2.974 -2.1707 -0.1660  0.8259
  216MOL0     H29096   2.862   4.740   2.845  0.2813  1.7260  0.7377
  216MOL0     H29097   2.908   4.913   3.072 -1.4772 -0.3313  1.6373
  216MOL0     H29098   2.953   4.753   3.123  1.9967  1.5677  0.0619
  216MOL0     H29099   3.090   4.714   2.911  1.0821 -0.1274  1.6439
  216MOL0     H29100   3.056   4.876   2.872 -0.6283 -3.9300 -3.7458
  216MOL0     H29101   3.153   4.965   3.085  1.9399  0.5792  0.2098
  216MOL0     H29102   3.218   4.805   3.123  0.6664 -0.6486 -0.2913
  216MOL0     H29103   3.326   4.817   2.895  4.6035  4.7497 -2.6900
  216MOL0     H29104   3.265   4.972   2.876 -1.4733 -2.5420 -2.3728
  216MOL0     H29105   3.424   5.031   3.080  1.0292 -1.9869  2.5209
  216MOL0     H29106   3.484   4.863   3.071  0.1565  0.0763 -0.3951
  216MOL0     H29107   3.533   4.930   2.815 -1.1079  2.2211 -0.7682
  216MOL0     H29108   3.493   5.091   2.877 -3.9381 -2.8088 -2.5419
  216MOL0     H29109   3.763   5.011   2.888  1.1752  0.0068  1.7633
  216MOL0     H29110   3.711   4.929   3.017  0.9662  1.2562  1.6805
  216MOL0     H29111   3.662   5.060   3.250  2.0279 -0.5931 -0.7838
  216MOL0     H29112   3.660   5.261   3.429 -0.3918 -0.6633 -0.6072
  216MOL0     H29113   3.698   5.422   3.347  2.7362 -1.1734 -3.2167
  216MOL0     H29114   3.428   5.264   3.375 -3.1269  2.2194  0.9807
  216MOL0     H29115   3.433   5.424   3.299 -0.4902  0.6546  2.0332
  216MOL0     H29116   3.519   5.535   3.482  2.8737 -0.4033  1.8902
  216MOL0     H29117   3.538   5.394   3.576 -2.0171 -1.4705  0.1881
  216MOL0     H29118   3.266   5.502   3.493 -1.7746 -1.9773  2.3180
  216MOL0     H29119   3.344   5.501   3.652  1.2839 -0.4948  0.8721
  216MOL0     H29120   3.182   5.099   3.605  1.6737  1.0449 -1.6667
  216MOL0     H29121   3.023   4.931   3.629 -0.3900 -1.6515  0.6188
  216MOL0     H29122   2.940   4.951   3.771  0.5516 -1.0255 -0.7524
  216MOL0     H29123   2.848   4.980   3.627 -0.7838 -1.5967  0.2618
  216MOL0     H29124   2.513   5.066   3.555  0.8481  2.0421 -0.3222
  216MOL0     H29125   2.280   5.041   3.555 -0.1061 -3.3663  1.3034
  216MOL0     H29126   2.028   5.130   3.613 -3.4122  2.2688  2.8534
  216MOL0     H29127   2.068   4.954   3.613  2.7868  2.0060 -1.3087
  216MOL0     H29128   1.888   5.097   3.825  1.8711 -0.8735  0.3558
  216MOL0     H29129   1.816   5.058   3.672  0.0165  1.2051 -0.0153
  216MOL0     H29130   1.945   4.858   3.862  4.7624  2.3477 -3.3076
  216MOL0     H29131   1.879   4.822   3.699 -0.2837 -0.0813  0.1118
  216MOL0     H29132   1.712   4.774   3.903 -0.7662  1.1577  1.2001
  216MOL0     H29133   1.693   4.950   3.906  0.7057 -2.1787  1.9849
  216MOL0     H29134   1.632   4.941   3.652 -1.7587  0.5991 -0.0085
  216MOL0     H29135   1.519   4.894   3.759  1.6168  1.2617  0.7485
  216MOL0     H29136   1.537   4.731   3.557 -2.2999 -4.8268  1.4585
  216MOL0     H29137   1.699   4.690   3.598 -0.5077  1.0920 -1.7191
  216MOL0     H29138   1.434   4.619   3.730  0.3361  0.6241 -3.1880
  216MOL0     H29139   1.577   4.630   3.833 -1.5924 -0.4493  0.4739
  216MOL0     H29140   1.524   4.398   3.737 -3.3711 -0.2354 -4.0101
  216MOL0     H29141   1.684   4.457   3.668  0.4417  1.0294 -0.7246
  216MOL0     H29142   2.286   5.116   3.981 -2.3434 -0.1724 -0.4814
  216MOL0     H29143   2.524   5.122   3.979 -2.7706  0.5970  1.2080
  216MOL0     H29144   2.896   5.464   3.743 -0.9136 -1.4824 -0.8523
  216MOL0     H29145   3.109   5.501   3.699 -3.4437  2.2673 -2.8723
  216MOL0     H29146   2.553   4.938   2.868 -0.8655  0.1464  3.0545
  216MOL0     H29147   2.339   4.862   2.757  0.2278  0.0493  0.0480
  216MOL0     H29148   1.961   4.391   2.898 -0.7180 -1.4704 -0.0142
  216MOL0     H29149   1.741   4.362   2.798  1.6666 -1.1919  0.6072
  216MOL0     H29150   1.663   4.584   2.403 -0.5820  0.3722 -1.4886
  216MOL0     H29151   1.705   4.421   2.352 -0.5186 -0.2931  0.2764
  216MOL0     H29152   1.494   4.475   2.273  0.9036  0.2557 -0.7242
  216MOL0     H29153   1.428   4.539   2.419  2.1817  1.6796  0.8029
  216MOL0     H29154   1.479   4.298   2.534 -0.2827 -3.7019 -0.3511
  216MOL0     H29155   1.530   4.248   2.369 -1.0261  0.0498 -1.2439
  216MOL0     H29156   1.337   4.257   2.273 -2.3827  0.2621  0.2124
  216MOL0     H29157   1.257   4.363   2.395  0.8039  1.8820  3.3242
  216MOL0     H29158   1.176   3.980   2.559 -2.1093  2.8924  2.1427
  216MOL0     H29159   1.891   4.557   2.439  2.9419  0.3467 -0.1352
  216MOL0     H29160   2.104   4.606   2.571  0.7126 -0.4097  1.1319
  217MOL0     O29161   2.068   8.347   9.662 -0.0709 -0.3833 -0.1071
  217MOL0     C29162   2.072   8.315   9.543 -0.2036  0.4688 -0.5140
  217MOL0     O29163   2.088   8.410   9.441 -0.3345 -0.4168  0.1790
  217MOL0     C29164   2.096   8.539   9.477 -0.2213 -0.1965 -0.6105
  217MOL0     C29165   1.998   8.614   9.541  0.3722  0.1803 -0.6398
  217MOL0     C29166   2.018   8.753   9.560  0.2730  0.4127  0.3058
  217MOL0     C29167   2.143   8.807   9.533  0.0455 -0.2695  0.5544
  217MOL0     O29168   2.144   8.944   9.560  0.5417 -0.6799 -0.2536
  217MOL0     C29169   2.258   9.028   9.548 -0.6803  0.2003 -0.1920
  217MOL0     C29170   2.232   9.166   9.600  1.7874  0.8597  0.0858
  217MOL0     C29171   2.346   9.259   9.614 -0.2184  1.0034  0.7432
  217MOL0     C29172   2.293   9.400   9.639 -0.0983 -0.2289  0.5125
  217MOL0     C29173   2.406   9.498   9.654 -0.9946  0.4873 -0.0859
  217MOL0     C29174   2.348   9.643   9.673  0.1471 -0.3913 -0.7662
  217MOL0     C29175   2.264   9.648   9.807  0.6900 -0.3375  0.2154
  217MOL0     C29176   2.351   9.637   9.926 -1.5033 -0.0268  0.1929
  217MOL0     N29177   2.468   9.730   9.932 -0.7110  0.6152 -0.1275
  217MOL0     C29178   2.587   9.706   9.988 -0.5195 -0.1423  0.9180
  217MOL0     C29179   2.655   9.825   9.982  1.0645  0.3525 -1.2385
  217MOL0     C29180   2.783   9.855  10.042  0.0061 -0.1873 -0.4523
  217MOL0     C29181   2.857   9.733  10.101 -0.4056 -0.7907 -0.1555
  217MOL0     C29182   2.920   9.650   9.992  0.3396 -0.3280  0.1775
  217MOL0     C29183   3.016   9.533  10.045  0.3489 -0.0955 -0.5718
  217MOL0     O29184   3.060   9.468   9.933  0.1303  0.1148  0.0913
  217MOL0     C29185   3.195   9.436   9.922 -0.1259 -1.0498  0.4705
  217MOL0     C29186   3.278   9.393  10.028 -0.4240 -0.1876  0.4545
  217MOL0     C29187   3.411   9.357  10.006 -0.2121 -0.3327 -0.3377
  217MOL0     C29188   3.475   9.279  10.112 -0.3965  1.0303 -0.7944
  217MOL0     C29189   3.484   9.384   9.884  0.2469  0.5790  0.5973
  217MOL0     C29190   3.628   9.361   9.849 -0.6544  0.3571 -0.8293
  217MOL0     O29191   3.708   9.273   9.921  0.2595  0.2055  0.0909
  217MOL0     C29192   3.839   9.239   9.889  1.1157  0.1873 -1.3416
  217MOL0     C29193   3.927   9.348   9.875 -0.9706  0.3983 -0.4411
  217MOL0     C29194   4.061   9.309   9.861  0.2644  0.1272 -0.5363
  217MOL0     C29195   4.107   9.178   9.870  0.1920 -0.3019 -0.1803
  217MOL0     O29196   4.241   9.166   9.876  0.4624 -0.4501  0.2916
  217MOL0     C29197   4.306   9.055   9.931 -0.3211 -0.5772 -0.2165
  217MOL0     C29198   4.298   9.045  10.082 -0.1694  0.5230  0.3878
  217MOL0     C29199   4.352   9.173  10.151  0.2868  0.8118  0.4466
  217MOL0     C29200   4.494   9.210  10.111 -0.2582 -0.2150 -0.8193
  217MOL0     C29201   4.535   9.338  10.191 -0.5060  0.4754 -0.2031
  217MOL0     C29202   4.689   9.360  10.212  0.3547 -0.1678  0.6142
  217MOL0     C29203   4.721   9.489  10.277 -0.2375  0.2001 -1.2458
  217MOL0     C29204   4.675   9.506  10.425 -0.0624 -0.1048  1.6120
  217MOL0    Cl29205   4.790   9.436  10.531 -0.0342  0.1643  0.0008
  217MOL0     C29206   4.015   9.074   9.898 -0.6745  0.3972 -0.3675
  217MOL0     C29207   3.883   9.109   9.909  0.2771 -0.1132 -0.5113
  217MOL0     O29208   3.673   9.430   9.759  0.0182  0.2849 -0.5686
  217MOL0     C29209   3.407   9.428   9.785 -0.5151  0.0575  0.1728
  217MOL0     C29210   3.262   9.453   9.802 -0.3490  0.1541 -0.7464
  217MOL0     N29211   2.571   9.920   9.913  0.2096 -0.0763  0.2276
  217MOL0     N29212   2.462   9.855   9.872 -1.8451 -0.5200  0.1405
  217MOL0     C29213   2.249   8.722   9.488 -0.1589 -0.3722  0.1426
  217MOL0     C29214   2.215   8.600   9.439  0.6049 -0.0255  0.1424
  217MOL0     C29215   2.042   8.177   9.522 -0.3802 -0.2444 -0.4435
  217MOL0     C29216   2.016   8.083   9.624 -0.5533  0.3366 -0.5730
  217MOL0     C29217   1.975   7.947   9.595  0.7212  0.2181  0.7822
  217MOL0     C29218   1.957   7.912   9.465  0.7956  0.5114  1.0151
  217MOL0     O29219   1.901   7.792   9.425 -0.2730  0.7702  0.4607
  217MOL0     C29220   1.893   7.683   9.515  0.1700 -0.2936  0.4763
  217MOL0     C29221   1.846   7.576   9.431  0.0944 -0.6951  0.5930
  217MOL0     C29222   1.964   7.500   9.366 -0.1166  0.1768  0.0174
  217MOL0     C29223   2.038   7.389   9.450 -0.2676 -0.8760  0.1335
  217MOL0     C29224   1.948   7.280   9.492  0.1604 -0.1163 -0.1294
  217MOL0     C29225   1.868   7.197   9.526 -0.1143  0.1347 -0.1085
  217MOL0     C29226   1.981   8.009   9.362 -0.6094  0.4376  0.5468
  217MOL0     C29227   2.028   8.135   9.391 -0.4862 -0.4642  0.4473
  217MOL0     H29228   1.902   8.578   9.578  1.3925 -2.7708 -0.6348
  217MOL0     H29229   1.946   8.815   9.613 -1.1489 -1.6676  0.9416
  217MOL0     H29230   2.336   8.986   9.614 -0.9745 -0.6244 -0.3608
  217MOL0     H29231   2.291   9.023   9.444  1.7467 -1.4209  0.5681
  217MOL0     H29232   2.150   9.193   9.533 -1.9570 -2.0813  3.0636
  217MOL0     H29233   2.185   9.144   9.696 -2.8128 -1.3303 -2.3203
  217MOL0     H29234   2.404   9.219   9.698  1.3502  0.4777 -0.5387
  217MOL0     H29235   2.421   9.268   9.534  2.0204  2.9216  2.8620
  217MOL0     H29236   2.219   9.431   9.564 -0.2875  0.0757  0.8215
  217MOL0     H29237   2.232   9.388   9.729 -1.6503 -1.0712 -0.6073
  217MOL0     H29238   2.481   9.471   9.729 -2.2668  1.4395  1.5935
  217MOL0     H29239   2.462   9.504   9.560  1.2574 -2.3527  0.9274
  217MOL0     H29240   2.417   9.726   9.656  0.1578 -0.2314  0.0211
  217MOL0     H29241   2.278   9.656   9.590 -0.0306  1.6784 -0.3372
  217MOL0     H29242   2.210   9.741   9.828 -2.5308 -2.5371  2.7169
  217MOL0     H29243   2.183   9.575   9.798 -1.4236  2.1272 -3.9351
  217MOL0     H29244   2.388   9.534   9.924 -1.7088 -0.2651  3.2940
  217MOL0     H29245   2.294   9.649  10.019 -1.9955 -3.8671  0.5281
  217MOL0     H29246   2.637   9.613  10.013  1.2010  0.1844 -0.9963
  217MOL0     H29247   2.852   9.910   9.977 -0.6694 -2.4053 -3.2139
  217MOL0     H29248   2.756   9.937  10.110  2.2399  0.1305  0.1496
  217MOL0     H29249   2.802   9.669  10.171 -1.1710  0.7869  0.7323
  217MOL0     H29250   2.941   9.764  10.163 -0.2965 -3.0950  0.9662
  217MOL0     H29251   2.977   9.708   9.919 -1.1638 -0.6362 -1.2912
  217MOL0     H29252   2.841   9.597   9.937 -0.3919  0.5302  0.3764
  217MOL0     H29253   2.958   9.470  10.113 -1.5688  0.7014 -1.3945
  217MOL0     H29254   3.091   9.573  10.115 -1.8393 -0.9513  2.4900
  217MOL0     H29255   3.240   9.379  10.129  0.6523 -1.8156  0.6513
  217MOL0     H29256   3.546   9.211  10.065 -0.9912 -1.1477  1.2920
  217MOL0     H29257   3.534   9.346  10.175  0.8693 -2.4116  2.0452
  217MOL0     H29258   3.414   9.215  10.176  2.0612 -0.8579 -0.1779
  217MOL0     H29259   3.907   9.453   9.854  1.0191  0.8206 -0.3808
  217MOL0     H29260   4.130   9.391   9.843 -2.0008  2.0856 -0.8800
  217MOL0     H29261   4.277   8.958   9.891 -1.7810 -0.1502 -0.2362
  217MOL0     H29262   4.411   9.062   9.901 -0.0123  1.9183  1.1516
  217MOL0     H29263   4.193   9.040  10.111 -0.8879 -6.2427 -1.6206
  217MOL0     H29264   4.352   8.954  10.112 -3.4172 -1.9236 -0.5761
  217MOL0     H29265   4.337   9.152  10.257 -0.0594 -2.8314 -0.2074
  217MOL0     H29266   4.286   9.254  10.119 -1.0169 -0.8070 -1.1496
  217MOL0     H29267   4.561   9.129  10.141  1.2164  0.1490 -2.9021
  217MOL0     H29268   4.518   9.209  10.004  2.1373  0.6632 -0.3253
  217MOL0     H29269   4.491   9.317  10.289  0.3586 -0.7330 -0.0583
  217MOL0     H29270   4.489   9.426  10.145 -3.5648 -1.0220 -0.2158
  217MOL0     H29271   4.725   9.279  10.277  1.8651 -1.4039 -1.6017
  217MOL0     H29272   4.737   9.348  10.114 -0.9401  0.6471 -0.1505
  217MOL0     H29273   4.664   9.568  10.229 -0.1586  2.2587  1.7759
  217MOL0     H29274   4.829   9.504  10.281  0.2411 -2.7781  0.2820
  217MOL0     H29275   4.578   9.460  10.444  0.1912 -0.5948  1.7638
  217MOL0     H29276   4.660   9.612  10.446  1.7494  0.3672  0.7525
  217MOL0     H29277   4.058   8.975   9.887 -0.2609  0.7527 -2.2557
  217MOL0     H29278   3.822   9.021   9.926  2.3563 -1.8293 -1.3945
  217MOL0     H29279   3.438   9.437   9.681 -1.1840 -0.0523 -0.0460
  217MOL0     H29280   3.207   9.500   9.722  1.5787  0.8450 -1.7326
  217MOL0     H29281   2.352   8.756   9.492 -0.4352  0.4510  0.5765
  217MOL0     H29282   2.295   8.538   9.400 -1.4255  0.0242 -4.8674
  217MOL0     H29283   2.043   8.110   9.725  1.3987  0.1936 -1.0173
  217MOL0     H29284   1.939   7.880   9.673 -0.9167  0.0098 -0.1009
  217MOL0     H29285   1.989   7.649   9.554  0.4163  0.1562  0.2659
  217MOL0     H29286   1.831   7.714   9.600  1.0240 -1.3687  1.5338
  217MOL0     H29287   1.782   7.616   9.353 -0.3133 -2.1136  0.1583
  217MOL0     H29288   1.779   7.513   9.491 -0.7145 -0.2889  0.1267
  217MOL0     H29289   2.037   7.572   9.328  0.8830 -0.5402  0.5616
  217MOL0     H29290   1.921   7.450   9.278  2.4062  1.1622 -1.8777
  217MOL0     H29291   2.086   7.443   9.532 -0.3449  0.6992 -0.8315
  217MOL0     H29292   2.111   7.346   9.380 -0.7088  1.6407 -2.0322
  217MOL0     H29293   1.807   7.110   9.539  2.1306 -1.5229  0.0046
  217MOL0     H29294   1.962   7.986   9.258  1.8576 -1.0001  0.3399
  217MOL0     H29295   2.048   8.192   9.300 -0.7944  0.5046  0.9723
  218MOL0     O29296   2.693   0.551   7.138 -0.6137 -0.0042 -0.2929
  218MOL0     C29297   2.653   0.538   7.253 -0.8044  0.9052  0.4114
  218MOL0     O29298   2.541   0.476   7.286 -0.1448 -0.4661 -0.2322
  218MOL0     C29299   2.504   0.354   7.252  0.1517 -0.5911 -0.0750
  218MOL0     C29300   2.591   0.256   7.199  0.4609  0.4863 -0.2606
  218MOL0     C29301   2.553   0.133   7.166 -0.5124 -0.4921 -0.0718
  218MOL0     C29302   2.426   0.090   7.200 -0.2076  0.4760  0.6012
  218MOL0     O29303   2.384  -0.036   7.160  0.3084  0.1159  0.4275
  218MOL0     C29304   2.272  -0.096   7.226  0.5636  0.4175 -0.1513
  218MOL0     C29305   2.143  -0.065   7.146  0.8267 -0.2422 -0.5005
  218MOL0     C29306   2.132  -0.137   7.026  0.3494  0.4805  0.1864
  218MOL0     C29307   1.993  -0.114   6.973 -0.2491 -0.9793  0.7539
  218MOL0     C29308   1.949  -0.213   6.863  0.0493  0.0788  0.2861
  218MOL0     C29309   1.841  -0.176   6.759  0.2723  0.6870  0.8421
  218MOL0     C29310   1.704  -0.147   6.832  0.2954  0.3602 -0.7017
  218MOL0     C29311   1.617  -0.032   6.771 -0.1441  1.1041 -1.1093
  218MOL0     N29312   1.553  -0.087   6.649 -0.9021 -0.0801 -0.1819
  218MOL0     C29313   1.422  -0.062   6.629 -0.7702  0.4304 -0.3672
  218MOL0     C29314   1.400  -0.107   6.503 -0.2618 -0.2403  0.1047
  218MOL0     C29315   1.277  -0.111   6.439  1.1021 -0.3274  0.4001
  218MOL0     C29316   1.215   0.024   6.417 -0.1343 -0.6733 -0.2159
  218MOL0     C29317   1.063   0.007   6.421 -0.6013  0.2206  0.4381
  218MOL0     C29318   1.000  -0.082   6.312  0.7430  0.6735  0.5576
  218MOL0     O29319   1.021  -0.218   6.336 -0.2675  0.5166  0.2800
  218MOL0     C29320   0.942  -0.314   6.286  0.2300 -1.5960  0.3903
  218MOL0     C29321   0.938  -0.441   6.344  0.3703  0.1136  0.5447
  218MOL0     C29322   0.857  -0.549   6.290 -0.1202  0.4438 -0.6668
  218MOL0     C29323   0.841  -0.679   6.376 -0.6875 -0.2289 -0.0224
  218MOL0     C29324   0.788  -0.533   6.164 -0.8020 -0.3112  1.2297
  218MOL0     C29325   0.713  -0.640   6.097  0.2615  0.0466  0.3187
  218MOL0     O29326   0.591  -0.612   6.043  0.5763 -0.2991  0.2166
  218MOL0     C29327   0.525  -0.697   5.959 -0.2943  0.6026 -0.4348
  218MOL0     C29328   0.586  -0.798   5.878  0.2870  0.4052  0.8641
  218MOL0     C29329   0.505  -0.864   5.775 -0.1020 -0.0792  0.6918
  218MOL0     C29330   0.369  -0.838   5.767 -0.1149 -0.9992  0.0932
  218MOL0     O29331   0.288  -0.893   5.672 -0.6848 -0.4150  0.2106
  218MOL0     C29332   0.312  -1.040   5.647  0.2641 -0.0841  0.6054
  218MOL0     C29333   0.315  -1.065   5.495 -0.6312 -0.2075 -0.0949
  218MOL0     C29334   0.265  -1.204   5.464 -0.6971  0.2330 -0.0451
  218MOL0     C29335   0.215  -1.206   5.321  0.0957  0.2397 -0.3361
  218MOL0     C29336   0.178  -1.349   5.284  0.9187  0.7030  0.3309
  218MOL0     C29337   0.043  -1.402   5.322  0.2257  0.3513 -0.0564
  218MOL0     C29338   0.014  -1.528   5.226 -0.3944 -0.2210 -1.1840
  218MOL0     C29339  -0.047  -1.486   5.094 -1.0972  0.3030  0.9921
  218MOL0    Cl29340  -0.205  -1.391   5.092  0.1400  0.1379 -0.2266
  218MOL0     C29341   0.314  -0.748   5.862  0.8317  0.0767  0.2753
  218MOL0     C29342   0.391  -0.684   5.952  0.1636 -0.4347 -0.2550
  218MOL0     O29343   0.768  -0.751   6.107 -0.0111 -0.3895 -0.5952
  218MOL0     C29344   0.795  -0.405   6.105 -0.5909 -0.3039 -0.2669
  218MOL0     C29345   0.865  -0.298   6.168  0.6807 -0.9691  0.2444
  218MOL0     N29346   1.527  -0.150   6.447  0.5117  0.0077 -0.1318
  218MOL0     N29347   1.615  -0.128   6.538 -0.1269 -0.6458 -0.2318
  218MOL0     C29348   2.335   0.184   7.255  0.1274  0.3587 -0.4270
  218MOL0     C29349   2.373   0.315   7.274  0.6974  1.0717 -0.4055
  218MOL0     C29350   2.729   0.610   7.360  0.6218 -0.0059  0.1855
  218MOL0     C29351   2.700   0.580   7.499 -1.1633 -0.6605  0.9017
  218MOL0     C29352   2.785   0.637   7.595  0.9123 -0.2277  0.1604
  218MOL0     C29353   2.874   0.736   7.564  0.2155 -0.4539 -1.1452
  218MOL0     O29354   2.952   0.814   7.649 -0.0248  0.7543 -0.1076
  218MOL0     C29355   2.925   0.810   7.792 -0.5698 -0.0854 -0.0879
  218MOL0     C29356   2.946   0.958   7.840  1.2957  0.1978 -0.8827
  218MOL0     C29357   3.062   1.028   7.772 -0.1745  0.8098 -0.2451
  218MOL0     C29358   3.123   1.142   7.849  0.3968 -0.6151 -0.4713
  218MOL0     C29359   3.239   1.197   7.781  0.1248  0.1325  0.1549
  218MOL0     C29360   3.343   1.220   7.721 -0.1795  0.9561  0.1429
  218MOL0     C29361   2.885   0.772   7.435  0.8002  0.2962  0.1171
  218MOL0     C29362   2.822   0.707   7.329  0.1250 -0.8214 -0.5702
  218MOL0     H29363   2.690   0.296   7.178 -0.6468  2.7573 -1.4498
  218MOL0     H29364   2.634   0.073   7.124  0.3225 -0.7295  1.7803
  218MOL0     H29365   2.291  -0.204   7.236 -1.4635  0.1376  1.3117
  218MOL0     H29366   2.264  -0.065   7.330  1.8466  2.1141 -0.5180
  218MOL0     H29367   2.063  -0.088   7.218  1.4538 -1.8216 -0.2543
  218MOL0     H29368   2.133   0.041   7.125  0.9923 -0.4137 -1.4593
  218MOL0     H29369   2.198  -0.110   6.943  0.5071 -0.0776  0.1229
  218MOL0     H29370   2.146  -0.243   7.050 -2.2789 -0.3453 -1.5942
  218MOL0     H29371   1.921  -0.126   7.055 -0.3800  0.8322  0.9613
  218MOL0     H29372   1.996  -0.012   6.934 -1.9313 -1.1967 -0.0401
  218MOL0     H29373   2.037  -0.247   6.808 -0.7360 -3.1660  0.8159
  218MOL0     H29374   1.905  -0.291   6.927  0.2151 -0.4809 -0.2631
  218MOL0     H29375   1.872  -0.087   6.702  0.7533  0.1586  0.2570
  218MOL0     H29376   1.819  -0.261   6.694  2.0379 -0.3687  1.5392
  218MOL0     H29377   1.644  -0.238   6.848  0.6821  0.3368  0.7519
  218MOL0     H29378   1.728  -0.119   6.935 -1.5563  0.9118 -0.3881
  218MOL0     H29379   1.678   0.054   6.740  1.7566  0.2746  0.1010
  218MOL0     H29380   1.540  -0.001   6.841  0.6986 -1.2626  1.0361
  218MOL0     H29381   1.341  -0.034   6.696 -0.3021 -1.9055  1.2947
  218MOL0     H29382   1.298  -0.156   6.342 -2.7098 -0.6869 -0.3998
  218MOL0     H29383   1.211  -0.178   6.495 -0.2659  1.8603  1.5589
  218MOL0     H29384   1.247   0.085   6.332 -0.0120  3.2039  2.3356
  218MOL0     H29385   1.241   0.086   6.504 -0.6408 -0.1831 -0.4084
  218MOL0     H29386   1.021   0.106   6.404 -0.5327 -0.0947 -1.8633
  218MOL0     H29387   1.039  -0.017   6.525  1.8710 -0.7124  0.8610
  218MOL0     H29388   1.032  -0.051   6.212  1.5621 -0.7388  0.3520
  218MOL0     H29389   0.893  -0.073   6.329  0.5661  0.1031 -0.2257
  218MOL0     H29390   0.997  -0.454   6.434 -0.7780 -0.9396  1.1844
  218MOL0     H29391   0.740  -0.716   6.393 -0.8475  0.2735  0.1169
  218MOL0     H29392   0.891  -0.761   6.322  1.2522  1.0164 -0.2297
  218MOL0     H29393   0.892  -0.669   6.472  0.6248 -1.2712 -0.5827
  218MOL0     H29394   0.694  -0.790   5.874  0.1759  1.6614 -0.9857
  218MOL0     H29395   0.547  -0.939   5.709 -3.5499  0.1999 -2.1431
  218MOL0     H29396   0.408  -1.067   5.691  2.9234  3.3931 -2.4825
  218MOL0     H29397   0.233  -1.105   5.685  1.4141 -1.7821  0.1600
  218MOL0     H29398   0.265  -0.990   5.433  1.1419 -0.4439 -1.9260
  218MOL0     H29399   0.416  -1.068   5.454 -1.4328  0.0008 -2.2136
  218MOL0     H29400   0.181  -1.233   5.527  1.7830 -0.1730  3.3147
  218MOL0     H29401   0.343  -1.278   5.485 -1.6224 -1.1414 -1.2107
  218MOL0     H29402   0.126  -1.143   5.311  0.0802  0.2367 -0.2055
  218MOL0     H29403   0.300  -1.171   5.262  1.1657 -0.8830  0.4945
  218MOL0     H29404   0.254  -1.419   5.318  0.9948  1.4893  1.8722
  218MOL0     H29405   0.179  -1.365   5.175 -1.0136 -2.3476  0.6328
  218MOL0     H29406   0.050  -1.418   5.430 -2.5554  3.3548  0.7414
  218MOL0     H29407  -0.042  -1.333   5.315  1.2240  1.6097 -0.1763
  218MOL0     H29408  -0.067  -1.584   5.274  0.0619  0.8541  0.9602
  218MOL0     H29409   0.106  -1.587   5.218  2.8025  3.9546  0.9248
  218MOL0     H29410  -0.068  -1.579   5.040 -1.2917  0.0700  1.4700
  218MOL0     H29411   0.038  -1.443   5.039  1.5901 -3.2619  1.9451
  218MOL0     H29412   0.208  -0.732   5.840  0.4813 -2.0738  0.1167
  218MOL0     H29413   0.351  -0.608   6.017  1.7010  0.1710  0.0125
  218MOL0     H29414   0.750  -0.388   6.008 -0.3544 -1.2567 -0.5579
  218MOL0     H29415   0.877  -0.202   6.120  0.6990 -0.6427  0.8851
  218MOL0     H29416   2.234   0.149   7.274  0.3871 -0.1688  0.0201
  218MOL0     H29417   2.299   0.390   7.301 -1.8638  0.6717 -5.2263
  218MOL0     H29418   2.625   0.507   7.527 -0.6555 -0.7830  1.9813
  218MOL0     H29419   2.764   0.605   7.697  2.2571  0.6717  0.7590
  218MOL0     H29420   2.824   0.782   7.822 -0.7398  1.3642  0.7822
  218MOL0     H29421   2.995   0.745   7.846 -0.1698  2.1609  2.2850
  218MOL0     H29422   2.979   0.959   7.945  3.2162  2.6693 -1.4337
  218MOL0     H29423   2.857   1.021   7.835  0.1218 -1.1616  1.2252
  218MOL0     H29424   3.023   1.077   7.682  0.7239 -0.2874 -1.2680
  218MOL0     H29425   3.146   0.961   7.752  0.5929  2.4381 -3.0682
  218MOL0     H29426   3.161   1.116   7.948  1.1071  3.2766  0.4659
  218MOL0     H29427   3.044   1.217   7.864  1.4496  0.6468 -1.0479
  218MOL0     H29428   3.432   1.240   7.665 -0.3574 -1.4039 -1.1206
  218MOL0     H29429   2.960   0.844   7.404 -2.0616  3.7400  0.5357
  218MOL0     H29430   2.846   0.738   7.227 -0.6575  0.9644 -0.2478
  219MOL0     O29431   5.053   3.888  10.441  0.2425 -0.2611  0.4262
  219MOL0     C29432   5.015   3.852  10.553 -1.2454 -0.3611 -0.0095
  219MOL0     O29433   4.905   3.893  10.622  0.4079  0.0077  0.2605
  219MOL0     C29434   4.816   3.976  10.564  0.9487  0.7826  0.1821
  219MOL0     C29435   4.730   4.049  10.649  0.5692 -0.6258 -0.2576
  219MOL0     C29436   4.634   4.142  10.604  0.0190  0.1493  0.0514
  219MOL0     C29437   4.601   4.155  10.458 -0.1738 -0.5104 -0.2777
  219MOL0     O29438   4.508   4.247  10.411  0.0390  0.5969 -0.9562
  219MOL0     C29439   4.445   4.322  10.515  0.6797 -0.6694 -0.9174
  219MOL0     C29440   4.362   4.436  10.449 -0.0563 -0.4768 -0.6252
  219MOL0     C29441   4.285   4.534  10.533 -0.0675  0.4408 -0.6781
  219MOL0     C29442   4.155   4.478  10.600 -0.9963 -0.9536  0.0136
  219MOL0     C29443   4.044   4.481  10.501 -0.0855  0.1716  0.4443
  219MOL0     C29444   3.929   4.397  10.543 -0.4907 -0.9216  0.5646
  219MOL0     C29445   3.801   4.414  10.476  0.2121  0.0149 -0.0683
  219MOL0     C29446   3.689   4.310  10.517 -0.8354 -0.1722 -0.5257
  219MOL0     N29447   3.554   4.350  10.491  0.1968 -0.3966  0.4692
  219MOL0     C29448   3.495   4.343  10.372  0.1273  1.4260  0.6311
  219MOL0     C29449   3.366   4.387  10.387  0.0691  0.6484 -0.1137
  219MOL0     C29450   3.282   4.394  10.263  0.0636  1.1080  0.3399
  219MOL0     C29451   3.155   4.478  10.281 -0.1930 -0.5616  0.4886
  219MOL0     C29452   3.081   4.485  10.137 -0.1795  0.5514 -0.1260
  219MOL0     C29453   2.948   4.559  10.143 -0.4674 -0.0829  0.0530
  219MOL0     O29454   2.896   4.529  10.276  0.7671 -0.2628 -0.1289
  219MOL0     C29455   2.802   4.427  10.294 -0.4442 -0.4423  0.3661
  219MOL0     C29456   2.785   4.389  10.430 -0.0993  0.0237 -0.6111
  219MOL0     C29457   2.690   4.290  10.466 -0.3557  0.8407  0.0806
  219MOL0     C29458   2.689   4.253  10.619  0.4288 -0.8473  0.3330
  219MOL0     C29459   2.603   4.233  10.370  0.6106  0.5446  0.0317
  219MOL0     C29460   2.497   4.125  10.392 -0.6784 -0.0578  1.0797
  219MOL0     O29461   2.454   4.058  10.276  0.3231 -0.0612 -0.7646
  219MOL0     C29462   2.352   3.966  10.293  0.0773  0.1033 -0.6208
  219MOL0     C29463   2.219   4.001  10.309 -0.1054 -0.4200  0.0393
  219MOL0     C29464   2.114   3.915  10.326  0.0477  0.7621  0.1554
  219MOL0     C29465   2.151   3.779  10.329 -0.0781  0.5801 -0.5565
  219MOL0     O29466   2.064   3.679  10.341  0.3086 -0.9691 -0.1839
  219MOL0     C29467   1.924   3.716  10.359  0.9852 -0.1323  0.3657
  219MOL0     C29468   1.834   3.590  10.360  0.7159  0.1234 -0.3684
  219MOL0     C29469   1.684   3.620  10.337 -0.2024  0.3831 -0.6016
  219MOL0     C29470   1.630   3.700  10.456  0.7466 -0.4003  0.4394
  219MOL0     C29471   1.467   3.713  10.446 -0.0102  0.1547 -0.4987
  219MOL0     C29472   1.408   3.832  10.527 -0.4797  0.0349  0.1037
  219MOL0     C29473   1.279   3.883  10.462 -1.1642  0.3391 -0.8530
  219MOL0     C29474   1.157   3.840  10.534  0.8761 -0.3473  0.2559
  219MOL0    Cl29475   1.095   3.675  10.492 -0.2294  0.3366  0.6633
  219MOL0     C29476   2.281   3.735  10.331 -0.0964 -0.1179 -0.2387
  219MOL0     C29477   2.379   3.834  10.318 -0.2580 -0.9262  0.2390
  219MOL0     O29478   2.456   4.106  10.500  0.4988 -0.3115  0.0329
  219MOL0     C29479   2.612   4.278  10.239 -0.3065 -0.3714  0.4686
  219MOL0     C29480   2.715   4.368  10.197 -0.1948 -0.7007 -0.5652
  219MOL0     N29481   3.353   4.426  10.520 -0.2772 -0.0551  0.4130
  219MOL0     N29482   3.458   4.383  10.587 -0.2814 -0.0515 -0.0736
  219MOL0     C29483   4.675   4.075  10.382  0.0641  0.3621  0.4771
  219MOL0     C29484   4.776   3.985  10.429  0.2763 -0.1552 -0.1584
  219MOL0     C29485   5.105   3.760  10.625 -0.9929  1.1385 -0.0411
  219MOL0     C29486   5.210   3.703  10.556 -0.1078  0.1578  0.6026
  219MOL0     C29487   5.298   3.624  10.626  0.0081 -0.3103  0.5646
  219MOL0     C29488   5.274   3.599  10.763  0.5331 -0.1075  0.1342
  219MOL0     O29489   5.355   3.510  10.814  0.1219  0.1141 -0.2961
  219MOL0     C29490   5.379   3.498  10.953 -0.5650  1.0791  0.3309
  219MOL0     C29491   5.479   3.602  11.005 -0.7150  1.0314 -0.1394
  219MOL0     C29492   5.629   3.559  11.014  0.1428 -0.6059  0.3083
  219MOL0     C29493   5.732   3.673  11.026 -0.1136 -0.1826  0.6402
  219MOL0     C29494   5.740   3.716  11.167  0.5413 -0.2301  0.6661
  219MOL0     C29495   5.733   3.748  11.282  0.5137 -0.2925 -0.3446
  219MOL0     C29496   5.151   3.635  10.816  0.4163  1.1317  0.2648
  219MOL0     C29497   5.072   3.726  10.754  0.2983  1.0336 -0.0747
  219MOL0     H29498   4.748   4.045  10.756  0.1663 -0.6667 -0.1913
  219MOL0     H29499   4.596   4.203  10.685  2.6336 -0.9093  2.2274
  219MOL0     H29500   4.380   4.251  10.567  2.2089  0.2705  2.6073
  219MOL0     H29501   4.513   4.365  10.590  0.8034 -4.0094  1.0940
  219MOL0     H29502   4.439   4.497  10.401 -1.1708  1.4580 -0.0729
  219MOL0     H29503   4.299   4.382  10.378 -0.3773 -0.7187 -0.1634
  219MOL0     H29504   4.359   4.568  10.606 -0.1966 -1.1323  0.2415
  219MOL0     H29505   4.267   4.623  10.471  0.2292  0.5248 -0.6426
  219MOL0     H29506   4.187   4.380  10.636  3.3684  1.0054  2.2798
  219MOL0     H29507   4.119   4.530  10.689 -0.8845 -0.1538 -0.3953
  219MOL0     H29508   4.022   4.587  10.484  2.1207  0.8174  1.2107
  219MOL0     H29509   4.073   4.436  10.406  0.1986  1.6058 -0.1643
  219MOL0     H29510   3.958   4.295  10.519  1.0480  0.1682 -3.0039
  219MOL0     H29511   3.917   4.422  10.649 -1.8553  3.4281 -0.4020
  219MOL0     H29512   3.769   4.514  10.506  3.6446  1.5692 -1.0914
  219MOL0     H29513   3.812   4.404  10.367 -1.6551 -2.0676 -0.1494
  219MOL0     H29514   3.697   4.312  10.626  2.6790  1.4859 -0.6688
  219MOL0     H29515   3.698   4.206  10.484  0.2085 -0.9887  2.0202
  219MOL0     H29516   3.524   4.302  10.276 -1.2248 -0.1763  0.8609
  219MOL0     H29517   3.351   4.435  10.189 -0.4114  0.2780 -0.5894
  219MOL0     H29518   3.260   4.288  10.247  2.9662 -0.1157  3.2502
  219MOL0     H29519   3.184   4.580  10.309 -3.0106  0.8433 -1.2509
  219MOL0     H29520   3.103   4.421  10.359 -1.6279 -0.9902 -0.7272
  219MOL0     H29521   3.055   4.385  10.103 -0.3471  0.6362 -0.2486
  219MOL0     H29522   3.139   4.531  10.057 -0.7900  0.1849 -0.7819
  219MOL0     H29523   2.882   4.513  10.068 -1.7619 -2.1853  2.3281
  219MOL0     H29524   2.966   4.665  10.123  1.8048  0.0624  2.3916
  219MOL0     H29525   2.860   4.433  10.494  0.6216  2.1193 -2.7584
  219MOL0     H29526   2.681   4.144  10.615  2.2704 -0.9657 -2.7711
  219MOL0     H29527   2.783   4.288  10.664  0.8410  0.0896 -1.1923
  219MOL0     H29528   2.599   4.282  10.675  1.0247  2.4410 -0.2006
  219MOL0     H29529   2.198   4.105  10.287 -0.2808 -0.7008 -1.1703
  219MOL0     H29530   2.017   3.961  10.313  0.3059  1.0444 -0.9036
  219MOL0     H29531   1.908   3.782  10.444 -3.0492  1.2699 -1.2575
  219MOL0     H29532   1.889   3.766  10.268  1.5060 -0.1896  0.1322
  219MOL0     H29533   1.872   3.521  10.284  3.6847  1.6680 -0.4539
  219MOL0     H29534   1.840   3.537  10.455  1.4380  1.3521  0.2971
  219MOL0     H29535   1.625   3.528  10.336  0.6864 -0.2074 -0.3899
  219MOL0     H29536   1.686   3.674  10.242  1.2191  2.3843  0.4870
  219MOL0     H29537   1.662   3.649  10.547 -0.2299 -3.1533 -0.6522
  219MOL0     H29538   1.674   3.799  10.438  0.3876 -0.0326  1.5224
  219MOL0     H29539   1.435   3.611  10.466  4.0101 -1.4990 -1.6172
  219MOL0     H29540   1.441   3.719  10.340 -1.7968 -0.0110 -0.1116
  219MOL0     H29541   1.384   3.812  10.632  2.4560 -2.0902  0.5180
  219MOL0     H29542   1.476   3.917  10.538  0.1370 -0.3853 -0.3631
  219MOL0     H29543   1.266   3.869  10.354  2.0045  1.7857 -1.5547
  219MOL0     H29544   1.283   3.992  10.461 -1.9447  0.3909  0.0851
  219MOL0     H29545   1.074   3.908  10.510  0.6354 -1.2619 -1.6858
  219MOL0     H29546   1.170   3.851  10.642 -0.4108  4.5498  0.1683
  219MOL0     H29547   2.307   3.629  10.332  2.1181  0.0704  5.6741
  219MOL0     H29548   2.476   3.788  10.302  0.0812 -0.1176 -0.0925
  219MOL0     H29549   2.559   4.239  10.152  2.1862  0.1829 -1.3892
  219MOL0     H29550   2.725   4.390  10.091  2.0818  0.1973 -0.2078
  219MOL0     H29551   4.651   4.065  10.276 -0.8544  1.8163  0.5250
  219MOL0     H29552   4.819   3.915  10.358  1.9456 -0.1127  0.7439
  219MOL0     H29553   5.219   3.720  10.449 -0.9908  2.4064  0.8447
  219MOL0     H29554   5.377   3.590  10.560  0.2050 -0.0297  0.6531
  219MOL0     H29555   5.285   3.497  11.009 -0.8897 -1.8835 -0.1181
  219MOL0     H29556   5.414   3.398  10.977 -1.6827  1.1234  2.3866
  219MOL0     H29557   5.449   3.621  11.109  0.1677 -0.1504  0.3463
  219MOL0     H29558   5.480   3.699  10.954  0.2675  0.5779 -1.0133
  219MOL0     H29559   5.656   3.517  10.917 -0.6173  1.0394 -0.6629
  219MOL0     H29560   5.642   3.483  11.091 -0.0480 -1.3622 -0.3830
  219MOL0     H29561   5.716   3.757  10.957 -0.3607 -3.0482 -3.1287
  219MOL0     H29562   5.832   3.640  10.994  0.0167 -0.1523  1.0080
  219MOL0     H29563   5.741   3.773  11.386 -2.5629 -1.6281  0.3238
  219MOL0     H29564   5.121   3.588  10.910 -1.2456 -2.6193 -1.9078
  219MOL0     H29565   4.979   3.745  10.807 -0.2819  0.7557 -0.9583
  220MOL0     O29566   1.713   3.565   3.477  0.0341 -0.5934  0.9492
  220MOL0     C29567   1.783   3.645   3.411 -0.3404  1.0702  0.1412
  220MOL0     O29568   1.912   3.685   3.446 -0.3643 -0.7108 -0.0301
  220MOL0     C29569   1.952   3.728   3.580  0.5940  0.6022  0.7758
  220MOL0     C29570   1.857   3.738   3.683  0.1402 -0.4518  0.2577
  220MOL0     C29571   1.893   3.801   3.798 -0.0517  0.4444 -0.2794
  220MOL0     C29572   2.020   3.845   3.818  0.5069 -0.4923 -0.2602
  220MOL0     O29573   2.058   3.903   3.932  0.2838  0.1486 -0.2749
  220MOL0     C29574   1.958   3.962   4.016  0.4603  0.8791 -0.9109
  220MOL0     C29575   2.014   4.032   4.142  1.0653 -0.9815  0.0956
  220MOL0     C29576   2.099   3.936   4.228  0.2398  0.5062 -0.1832
  220MOL0     C29577   2.220   4.002   4.288  0.2386  0.0400 -0.8764
  220MOL0     C29578   2.344   3.909   4.309 -0.0843 -0.1195  0.2119
  220MOL0     C29579   2.447   4.005   4.366  0.8533  0.7537 -0.2126
  220MOL0     C29580   2.580   3.939   4.402  0.7176  0.1288  0.8941
  220MOL0     C29581   2.663   4.037   4.475  0.7109 -0.5179 -0.3086
  220MOL0     N29582   2.641   4.043   4.619  0.2619  0.6698  0.4729
  220MOL0     C29583   2.692   3.939   4.700  0.3443  0.6083 -0.2361
  220MOL0     C29584   2.719   3.993   4.825  0.0950  0.0579 -0.0434
  220MOL0     C29585   2.757   3.923   4.949  1.0489 -0.0790  0.0130
  220MOL0     C29586   2.654   3.916   5.062  0.3673  0.7700 -0.3662
  220MOL0     C29587   2.520   3.883   5.008 -0.6693  0.1130  1.4081
  220MOL0     C29588   2.417   3.875   5.124 -0.6914 -0.2653 -0.3590
  220MOL0     O29589   2.278   3.859   5.074 -0.8196  0.1163 -0.1561
  220MOL0     C29590   2.209   3.746   5.027 -0.6544 -0.2668 -0.6273
  220MOL0     C29591   2.075   3.758   5.006 -0.4613  0.4944 -0.2435
  220MOL0     C29592   2.001   3.655   4.960 -0.0922 -0.1996  0.1381
  220MOL0     C29593   1.855   3.690   4.928  0.1002 -0.7671  0.0314
  220MOL0     C29594   2.059   3.528   4.935 -0.9153  0.4666 -0.4841
  220MOL0     C29595   1.982   3.409   4.875  0.0496  0.1630  0.4279
  220MOL0     O29596   1.848   3.431   4.842  0.3076  0.4713 -0.2078
  220MOL0     C29597   1.795   3.331   4.771  0.5130  0.5438  0.5907
  220MOL0     C29598   1.731   3.221   4.835  0.3108  0.1628  0.8010
  220MOL0     C29599   1.684   3.114   4.762 -1.1473 -0.5538  0.1516
  220MOL0     C29600   1.689   3.115   4.628  0.5801  0.3856  0.1902
  220MOL0     O29601   1.637   3.010   4.555 -0.0768 -0.2736  0.1460
  220MOL0     C29602   1.744   2.913   4.540  0.7080  0.6194  0.5680
  220MOL0     C29603   1.696   2.800   4.452  0.1899 -0.3186  0.7575
  220MOL0     C29604   1.579   2.721   4.511  0.2883  0.5200 -0.2599
  220MOL0     C29605   1.551   2.591   4.433  0.0096  0.0813 -0.4233
  220MOL0     C29606   1.420   2.531   4.470  0.7866 -0.2109  0.2088
  220MOL0     C29607   1.428   2.375   4.450  0.2620 -0.3800 -0.3337
  220MOL0     C29608   1.400   2.342   4.297  0.0997  0.6152 -0.4197
  220MOL0     C29609   1.255   2.301   4.274  0.6750 -0.3016  0.1841
  220MOL0    Cl29610   1.208   2.156   4.366  0.3550  0.7046  0.1791
  220MOL0     C29611   1.741   3.224   4.562 -0.6619 -0.3500  0.7927
  220MOL0     C29612   1.797   3.341   4.626 -0.3123 -0.2968 -1.2236
  220MOL0     O29613   2.051   3.304   4.865 -0.0397  0.3869 -0.4927
  220MOL0     C29614   2.192   3.510   4.972 -0.1646  0.5995 -0.8250
  220MOL0     C29615   2.268   3.620   5.033  0.0856  0.5749  0.2753
  220MOL0     N29616   2.709   4.129   4.810  0.2434 -0.0186 -0.1661
  220MOL0     N29617   2.654   4.154   4.691  0.8226 -0.1523  0.4712
  220MOL0     C29618   2.109   3.834   3.720 -0.0844  0.5199 -0.2636
  220MOL0     C29619   2.081   3.783   3.595 -0.1163 -0.3293  0.6702
  220MOL0     C29620   1.732   3.701   3.290  0.4696 -0.1009  0.4083
  220MOL0     C29621   1.802   3.806   3.221  0.2311 -0.3535 -0.2216
  220MOL0     C29622   1.737   3.865   3.114 -0.9869  0.2965 -0.2663
  220MOL0     C29623   1.606   3.830   3.072  0.2540  0.3280  0.0360
  220MOL0     O29624   1.551   3.898   2.967 -0.3704  0.2734  0.3892
  220MOL0     C29625   1.421   3.953   3.010  0.4138 -0.0363 -0.8228
  220MOL0     C29626   1.367   4.061   2.922  0.9458  0.1451  0.3668
  220MOL0     C29627   1.455   4.181   2.915 -0.0612  0.0124 -0.2904
  220MOL0     C29628   1.480   4.254   3.040  0.7780 -0.2146  0.5609
  220MOL0     C29629   1.551   4.381   3.025  0.5640 -1.1468 -0.5369
  220MOL0     C29630   1.602   4.492   3.007  0.4683 -0.7917 -0.0253
  220MOL0     C29631   1.550   3.722   3.130  0.0577 -0.1396  0.2248
  220MOL0     C29632   1.606   3.666   3.244  0.1770 -0.5323 -0.5903
  220MOL0     H29633   1.758   3.695   3.671  1.3732 -2.9456 -2.1419
  220MOL0     H29634   1.816   3.800   3.874 -0.7135 -0.3496 -0.9421
  220MOL0     H29635   1.896   4.028   3.955  0.9718  1.6191 -0.6307
  220MOL0     H29636   1.903   3.886   4.074  0.6830  1.3641 -0.0560
  220MOL0     H29637   2.076   4.113   4.101  0.7247  0.7083  2.6803
  220MOL0     H29638   1.930   4.078   4.195  1.0153 -0.0978 -0.7249
  220MOL0     H29639   2.041   3.886   4.306  3.3962 -1.2599  1.2038
  220MOL0     H29640   2.131   3.856   4.160 -1.4374  0.4165 -0.9286
  220MOL0     H29641   2.245   4.090   4.227 -2.0603  1.3712 -0.0180
  220MOL0     H29642   2.200   4.040   4.388  4.5088 -1.5735  0.8367
  220MOL0     H29643   2.328   3.837   4.390 -1.3787  2.1278  2.0920
  220MOL0     H29644   2.375   3.865   4.214 -1.1919  4.1432 -2.3655
  220MOL0     H29645   2.455   4.099   4.311 -2.5392  0.3906 -1.5872
  220MOL0     H29646   2.391   4.033   4.456  0.4277  1.1920 -0.6069
  220MOL0     H29647   2.569   3.843   4.453 -1.4552 -0.6235 -0.7971
  220MOL0     H29648   2.628   3.924   4.304  2.4529  0.1241  1.6971
  220MOL0     H29649   2.652   4.134   4.425 -0.7827 -1.7102 -2.4867
  220MOL0     H29650   2.768   4.009   4.466  0.6806 -0.9344  0.4939
  220MOL0     H29651   2.701   3.835   4.669 -0.7510  0.1445  0.9186
  220MOL0     H29652   2.769   3.823   4.907 -2.4092 -0.0447 -1.3247
  220MOL0     H29653   2.847   3.964   4.995 -1.1278  2.3319  2.4417
  220MOL0     H29654   2.648   4.016   5.106 -2.4805  0.3179  0.5107
  220MOL0     H29655   2.687   3.843   5.137  2.1364  1.0747 -0.8057
  220MOL0     H29656   2.516   3.795   4.944 -1.3030  1.2680 -0.2314
  220MOL0     H29657   2.489   3.960   4.936 -2.7935  1.4668  3.6002
  220MOL0     H29658   2.426   3.959   5.194  0.2082  0.0414 -0.8250
  220MOL0     H29659   2.431   3.783   5.181 -1.5304 -0.4037 -0.3714
  220MOL0     H29660   2.040   3.859   5.022  0.2312  0.7977 -0.6192
  220MOL0     H29661   1.832   3.794   4.950 -1.2957 -0.7866 -1.1636
  220MOL0     H29662   1.839   3.668   4.821  0.8984 -1.7743  0.0966
  220MOL0     H29663   1.779   3.631   4.981  0.0184 -0.3877  0.3380
  220MOL0     H29664   1.713   3.229   4.942 -6.2204  0.7345  0.0330
  220MOL0     H29665   1.630   3.034   4.811  0.9898 -1.6066  0.9022
  220MOL0     H29666   1.830   2.963   4.495  1.1814 -1.6778 -1.2570
  220MOL0     H29667   1.784   2.880   4.636  0.1941 -1.5311  0.1129
  220MOL0     H29668   1.672   2.838   4.353  1.6114  0.6978  0.7678
  220MOL0     H29669   1.779   2.734   4.425  2.1779  2.2144  0.2536
  220MOL0     H29670   1.493   2.787   4.516 -0.6540 -0.7569  1.1756
  220MOL0     H29671   1.606   2.698   4.614 -0.7996 -1.0641 -0.2831
  220MOL0     H29672   1.553   2.602   4.324 -1.6667 -0.2912 -0.5173
  220MOL0     H29673   1.630   2.518   4.456  1.5558  1.0345 -2.3809
  220MOL0     H29674   1.339   2.577   4.412 -0.2810 -1.7694  0.3893
  220MOL0     H29675   1.404   2.553   4.576  0.7367 -0.9296  0.3574
  220MOL0     H29676   1.530   2.348   4.478  1.1297  3.7388  1.1462
  220MOL0     H29677   1.365   2.321   4.522  2.5426 -2.9684 -0.1470
  220MOL0     H29678   1.456   2.255   4.263  0.2108 -0.4693  2.2366
  220MOL0     H29679   1.421   2.424   4.228  0.0072  1.3864  0.4365
  220MOL0     H29680   1.249   2.261   4.172 -3.0814 -2.1366  0.9597
  220MOL0     H29681   1.202   2.396   4.285  0.2003 -0.6435  0.9013
  220MOL0     H29682   1.740   3.233   4.454 -1.8015 -1.0618  0.7337
  220MOL0     H29683   1.824   3.433   4.575 -3.2710 -0.0507 -2.5351
  220MOL0     H29684   2.260   3.429   4.947  2.9118  2.9038 -0.5550
  220MOL0     H29685   2.366   3.593   5.070  0.1200 -3.0364 -1.9353
  220MOL0     H29686   2.203   3.881   3.746  1.3913 -1.6089 -1.4342
  220MOL0     H29687   2.162   3.781   3.523  0.4552 -0.2381  1.3051
  220MOL0     H29688   1.899   3.842   3.253  0.2838 -0.8687  0.2201
  220MOL0     H29689   1.790   3.946   3.064 -1.6180  1.4881  0.9404
  220MOL0     H29690   1.348   3.872   2.996 -0.3242  0.7935 -1.9221
  220MOL0     H29691   1.411   3.992   3.112 -1.5823  2.0410 -1.7290
  220MOL0     H29692   1.270   4.089   2.963  1.7381  2.3132  0.8599
  220MOL0     H29693   1.350   4.024   2.820 -0.6933 -0.3993  0.8133
  220MOL0     H29694   1.422   4.246   2.834  2.5142  0.7140 -0.8764
  220MOL0     H29695   1.558   4.158   2.886  1.0003  1.8803  1.7187
  220MOL0     H29696   1.526   4.188   3.115 -2.4842 -3.1354  0.2767
  220MOL0     H29697   1.385   4.278   3.088  0.9397  0.6780  0.4620
  220MOL0     H29698   1.642   4.587   2.978  1.3777 -0.2292  2.7299
  220MOL0     H29699   1.453   3.693   3.091  0.2568  0.0311 -0.3938
  220MOL0     H29700   1.537   3.595   3.288 -2.8365  3.6086  2.0990
  221MOL0     O29701   4.520   0.096   8.567 -0.2181  0.2980 -0.1395
  221MOL0     C29702   4.551  -0.019   8.606  0.6628 -1.2084 -0.1052
  221MOL0     O29703   4.614  -0.042   8.726  0.8125 -0.1187  0.1277
  221MOL0     C29704   4.703   0.048   8.781 -0.4492 -0.1276 -0.1404
  221MOL0     C29705   4.753   0.164   8.721 -0.2601 -0.6713 -0.3919
  221MOL0     C29706   4.857   0.244   8.783 -0.7147 -0.5757 -0.5970
  221MOL0     C29707   4.908   0.207   8.905 -0.6561 -0.2936 -0.6247
  221MOL0     O29708   4.993   0.304   8.963 -0.7018  0.2624  0.0460
  221MOL0     C29709   5.016   0.313   9.105 -0.3083 -0.3650  0.0974
  221MOL0     C29710   5.088   0.451   9.127  1.3951  1.1275 -0.0271
  221MOL0     C29711   4.994   0.567   9.081 -0.6864  0.7201  0.3761
  221MOL0     C29712   5.055   0.706   9.092 -0.2122  0.2217 -0.2594
  221MOL0     C29713   5.022   0.776   9.231 -0.2091  0.5385 -0.4616
  221MOL0     C29714   5.118   0.883   9.240  0.3940 -0.0749 -0.5028
  221MOL0     C29715   5.097   0.958   9.377  0.3207 -0.9244  0.2690
  221MOL0     C29716   5.202   1.068   9.394  0.1208  0.2787 -0.9685
  221MOL0     N29717   5.158   1.164   9.500  0.5083  0.2200 -1.0607
  221MOL0     C29718   5.047   1.244   9.499  0.2361  0.5830 -0.2145
  221MOL0     C29719   5.062   1.320   9.610  0.4565  0.0520 -0.6291
  221MOL0     C29720   4.953   1.415   9.657  0.4963 -0.5438  0.3165
  221MOL0     C29721   4.870   1.362   9.775  0.1693 -0.2510  0.0445
  221MOL0     C29722   4.717   1.343   9.737 -0.5656  0.2292 -0.6943
  221MOL0     C29723   4.675   1.211   9.672  0.0725  0.5339  0.4657
  221MOL0     O29724   4.749   1.178   9.549 -0.0940 -1.2098 -1.0117
  221MOL0     C29725   4.715   1.053   9.508 -0.9044 -0.0171  0.2759
  221MOL0     C29726   4.791   0.960   9.578  0.6965 -0.3212  0.0585
  221MOL0     C29727   4.788   0.826   9.538  0.9383  0.6328  0.8273
  221MOL0     C29728   4.870   0.724   9.615  0.3594 -0.3662  1.0309
  221MOL0     C29729   4.698   0.779   9.433 -0.3947  0.2828 -0.2974
  221MOL0     C29730   4.695   0.641   9.377 -0.4196 -0.3640  0.3636
  221MOL0     O29731   4.617   0.636   9.271  0.1451  0.4171  0.1178
  221MOL0     C29732   4.576   0.512   9.223 -0.2727 -0.2331  0.1256
  221MOL0     C29733   4.649   0.457   9.113 -1.0266 -0.5605 -0.9180
  221MOL0     C29734   4.593   0.336   9.056 -0.1234  0.5402 -0.1477
  221MOL0     C29735   4.473   0.280   9.101 -0.3263  0.4602  0.1387
  221MOL0     O29736   4.423   0.179   9.028 -0.6704  0.2533 -0.2323
  221MOL0     C29737   4.398   0.067   9.108 -0.1097 -0.0511 -0.2371
  221MOL0     C29738   4.391  -0.061   9.026  0.0505  0.0538  0.0233
  221MOL0     C29739   4.301  -0.053   8.907  0.9044 -0.0848 -0.1248
  221MOL0     C29740   4.236  -0.184   8.847 -0.7422  0.1598  0.7631
  221MOL0     C29741   4.127  -0.154   8.736 -1.3071  0.6057 -0.4673
  221MOL0     C29742   4.164  -0.044   8.648 -0.0398 -0.0417 -1.2792
  221MOL0     C29743   4.098  -0.070   8.521  0.0566 -0.1484  1.1204
  221MOL0     C29744   4.129   0.050   8.435 -0.4849  0.3754 -1.1034
  221MOL0    Cl29745   4.119  -0.004   8.269 -0.6442  0.0197  0.0640
  221MOL0     C29746   4.407   0.336   9.214 -0.3999 -0.0677 -0.4133
  221MOL0     C29747   4.456   0.459   9.266 -0.2405 -0.0138  0.8493
  221MOL0     O29748   4.765   0.549   9.426  0.3771  0.4443 -0.1543
  221MOL0     C29749   4.615   0.878   9.381  0.1651  0.3690  0.2200
  221MOL0     C29750   4.620   1.015   9.418 -0.2477  0.4944  0.1922
  221MOL0     N29751   5.181   1.295   9.674  0.3983 -0.0120  0.6003
  221MOL0     N29752   5.234   1.197   9.603  0.2068 -0.4286  0.8300
  221MOL0     C29753   4.857   0.096   8.969 -0.2825 -1.3301 -0.0469
  221MOL0     C29754   4.760   0.022   8.905  0.0898 -0.7858  1.0445
  221MOL0     C29755   4.506  -0.136   8.527  0.1903  0.3238  0.2783
  221MOL0     C29756   4.511  -0.260   8.589 -1.2417 -0.5396 -0.0833
  221MOL0     C29757   4.474  -0.371   8.515 -0.2593 -0.3843  0.5173
  221MOL0     C29758   4.404  -0.360   8.389 -0.7242 -0.3213 -0.4865
  221MOL0     O29759   4.351  -0.475   8.338 -0.3216  0.5989 -0.5057
  221MOL0     C29760   4.285  -0.476   8.213 -0.9435  0.4338  0.6208
  221MOL0     C29761   4.129  -0.458   8.235  1.0147 -0.0053  0.0381
  221MOL0     C29762   4.057  -0.565   8.318  0.3844  0.1663 -0.6741
  221MOL0     C29763   3.947  -0.647   8.258 -0.9061 -1.4356 -0.1045
  221MOL0     C29764   3.914  -0.762   8.351 -0.4471 -0.5309  0.2170
  221MOL0     C29765   3.908  -0.862   8.420  0.3545 -0.7980  0.0249
  221MOL0     C29766   4.387  -0.232   8.343 -0.0148  0.1346 -0.0952
  221MOL0     C29767   4.437  -0.124   8.408 -0.3164 -0.9256 -0.9413
  221MOL0     H29768   4.715   0.196   8.624 -1.6132  1.8839  0.8850
  221MOL0     H29769   4.902   0.335   8.743  0.4984 -1.2000 -0.7029
  221MOL0     H29770   4.926   0.314   9.167 -0.6594  2.5298 -0.3226
  221MOL0     H29771   5.087   0.236   9.139  0.9165  1.7287  2.6499
  221MOL0     H29772   5.100   0.455   9.236 -1.5701 -0.3135  0.4770
  221MOL0     H29773   5.177   0.463   9.066 -0.3947  2.6054 -2.5591
  221MOL0     H29774   4.966   0.546   8.978  1.4175  0.1310 -0.1416
  221MOL0     H29775   4.905   0.562   9.144 -2.0729 -0.5058 -1.5698
  221MOL0     H29776   5.164   0.696   9.081 -0.1192 -0.6222  1.1461
  221MOL0     H29777   5.021   0.769   9.010  2.8449  0.9042 -1.1378
  221MOL0     H29778   4.916   0.799   9.239 -0.7087 -1.8652  1.0235
  221MOL0     H29779   5.036   0.706   9.314 -0.3073 -0.0284 -0.9117
  221MOL0     H29780   5.220   0.845   9.237  0.8963  1.1068  0.7264
  221MOL0     H29781   5.120   0.949   9.152 -0.4899 -1.7489 -1.8251
  221MOL0     H29782   4.998   1.004   9.370  1.5067  1.6454 -0.8500
  221MOL0     H29783   5.094   0.882   9.455  0.3905 -1.4294 -0.2094
  221MOL0     H29784   5.210   1.117   9.296  0.5138  3.9850  0.7433
  221MOL0     H29785   5.296   1.024   9.427 -1.0176  0.6817  3.3754
  221MOL0     H29786   4.965   1.243   9.428 -0.7652  0.1678  0.9046
  221MOL0     H29787   5.003   1.510   9.678  1.0406 -0.4151 -1.3952
  221MOL0     H29788   4.893   1.450   9.573  1.6367  0.8386  0.0349
  221MOL0     H29789   4.878   1.442   9.850 -1.6787  0.0545 -0.0254
  221MOL0     H29790   4.924   1.278   9.818 -1.4411 -2.6335 -2.3026
  221MOL0     H29791   4.687   1.419   9.664 -0.4259  1.0634  0.0935
  221MOL0     H29792   4.666   1.333   9.833 -0.0700 -0.9170 -0.5396
  221MOL0     H29793   4.569   1.221   9.645  0.6312  2.7150 -1.1914
  221MOL0     H29794   4.681   1.136   9.751  0.2026 -0.9838 -0.9167
  221MOL0     H29795   4.859   0.982   9.660 -1.4297  1.0555  1.5511
  221MOL0     H29796   4.941   0.700   9.536 -1.5190 -0.7645 -0.6125
  221MOL0     H29797   4.919   0.777   9.698 -2.0370  0.0892  2.2507
  221MOL0     H29798   4.817   0.635   9.650  0.5002 -0.7111  0.3809
  221MOL0     H29799   4.738   0.502   9.073 -0.7979 -1.4785 -1.4647
  221MOL0     H29800   4.655   0.304   8.973  0.6463  0.1902  0.5592
  221MOL0     H29801   4.478   0.055   9.181  1.2874  0.6877 -1.5817
  221MOL0     H29802   4.301   0.063   9.159  0.0074 -1.7798 -0.0630
  221MOL0     H29803   4.492  -0.082   8.989  1.9860  3.1665  3.0376
  221MOL0     H29804   4.353  -0.143   9.088  1.4698  0.3282  1.3030
  221MOL0     H29805   4.345   0.010   8.830 -2.7291  1.3951 -1.1889
  221MOL0     H29806   4.215   0.010   8.933  1.9978  1.1257  0.6211
  221MOL0     H29807   4.315  -0.246   8.803 -0.9718 -1.0194  1.9388
  221MOL0     H29808   4.190  -0.237   8.931 -1.2936  1.5939  1.3939
  221MOL0     H29809   4.035  -0.129   8.790 -1.1076  1.3830 -0.4715
  221MOL0     H29810   4.114  -0.245   8.678  0.0761  0.4351 -0.5535
  221MOL0     H29811   4.127   0.044   8.701 -0.4805  0.6228 -2.6496
  221MOL0     H29812   4.273  -0.048   8.635  0.1398 -0.4701  0.2080
  221MOL0     H29813   3.990  -0.078   8.537  0.0949  1.2134  2.3215
  221MOL0     H29814   4.137  -0.159   8.472  1.4233  1.7315 -1.4257
  221MOL0     H29815   4.232   0.081   8.455 -1.2597  1.4501  1.7400
  221MOL0     H29816   4.068   0.138   8.458 -0.4308 -0.5243  3.3959
  221MOL0     H29817   4.310   0.298   9.245 -2.0269  1.6822 -3.0006
  221MOL0     H29818   4.405   0.516   9.344 -2.5396 -0.8271  0.0428
  221MOL0     H29819   4.542   0.861   9.303 -0.2104 -1.2709  0.9026
  221MOL0     H29820   4.550   1.083   9.370 -0.1492  2.2234  2.3145
  221MOL0     H29821   4.894   0.085   9.071 -0.9418 -0.0138  0.3612
  221MOL0     H29822   4.715  -0.060   8.960  0.8595 -2.2891 -0.4862
  221MOL0     H29823   4.562  -0.279   8.683 -0.8063 -2.6164 -0.6978
  221MOL0     H29824   4.486  -0.468   8.561 -0.3230  0.0244  1.4189
  221MOL0     H29825   4.328  -0.404   8.144  0.2898 -1.1266 -0.2853
  221MOL0     H29826   4.296  -0.572   8.162  0.2572 -0.1291  1.8531
  221MOL0     H29827   4.086  -0.458   8.134 -1.5917  0.8228  1.0482
  221MOL0     H29828   4.112  -0.358   8.277  1.7947  1.7975 -3.5405
  221MOL0     H29829   4.006  -0.506   8.395 -3.7517 -1.3573 -1.9663
  221MOL0     H29830   4.124  -0.637   8.365  0.4029  0.9265  0.4937
  221MOL0     H29831   3.989  -0.677   8.161  4.2474  2.6990  0.3794
  221MOL0     H29832   3.854  -0.592   8.243  1.3490  3.3673  1.7169
  221MOL0     H29833   3.916  -0.952   8.477  3.2390  0.1483  1.2889
  221MOL0     H29834   4.326  -0.222   8.253 -0.0507 -0.7690 -0.1875
  221MOL0     H29835   4.419  -0.026   8.364  1.3477  0.1058  0.5573
  222MOL0     O29836   5.203   6.187   0.711  0.9936 -0.2502 -0.0684
  222MOL0     C29837   5.217   6.088   0.638 -0.8919 -0.1283  0.1668
  222MOL0     O29838   5.269   6.082   0.508 -0.1937 -0.0765 -0.5451
  222MOL0     C29839   5.333   6.202   0.465 -0.1641  0.7186 -0.4255
  222MOL0     C29840   5.451   6.242   0.523 -0.2485 -0.6124  1.1742
  222MOL0     C29841   5.497   6.370   0.497 -0.4353  0.5513  0.4264
  222MOL0     C29842   5.427   6.461   0.414  0.2120  0.2983 -0.5408
  222MOL0     O29843   5.463   6.598   0.412  0.1207 -0.9378 -0.1764
  222MOL0     C29844   5.595   6.614   0.361 -0.1620  0.5631 -0.3952
  222MOL0     C29845   5.587   6.758   0.303 -0.9018 -0.5415  0.1745
  222MOL0     C29846   5.551   6.879   0.392 -0.7717  0.3036  0.1053
  222MOL0     C29847   5.550   6.998   0.298  1.0058 -0.3777 -0.2274
  222MOL0     C29848   5.501   7.128   0.359 -0.0416  0.3397  0.2056
  222MOL0     C29849   5.584   7.204   0.471 -0.6059  0.2588  0.6469
  222MOL0     C29850   5.734   7.213   0.447 -1.0108 -0.6327  0.2471
  222MOL0     C29851   5.769   7.285   0.317  1.3648  0.4052  0.2336
  222MOL0     N29852   5.905   7.276   0.275  0.0477 -0.1297 -0.8056
  222MOL0     C29853   6.006   7.313   0.366 -0.0175 -0.5394 -0.2379
  222MOL0     C29854   6.121   7.267   0.305  0.3976 -0.0618  0.6246
  222MOL0     C29855   6.254   7.259   0.367 -0.3907 -0.2997  0.1730
  222MOL0     C29856   6.263   7.298   0.522  0.5701 -0.4983  0.7333
  222MOL0     C29857   6.410   7.272   0.574  0.1268 -0.3895  0.6231
  222MOL0     C29858   6.432   7.130   0.633  0.2477 -0.4781  0.2455
  222MOL0     O29859   6.333   7.103   0.738  0.2261 -0.3010  0.0115
  222MOL0     C29860   6.222   7.019   0.717  0.8370 -1.1778 -0.6861
  222MOL0     C29861   6.174   6.963   0.594 -0.1810  0.0975 -0.3897
  222MOL0     C29862   6.060   6.883   0.591 -0.3180  0.5204  0.0918
  222MOL0     C29863   6.014   6.857   0.446 -0.9035 -0.4787  0.6963
  222MOL0     C29864   5.998   6.853   0.713 -0.1107  0.5782  0.8007
  222MOL0     C29865   5.879   6.763   0.720  0.5529  0.1913  0.6060
  222MOL0     O29866   5.813   6.756   0.842 -0.3804 -0.3406  0.0259
  222MOL0     C29867   5.704   6.682   0.857 -0.3069  0.2645 -0.9259
  222MOL0     C29868   5.715   6.604   0.974 -0.3836  0.4140 -0.1387
  222MOL0     C29869   5.613   6.509   1.005 -0.0969  0.2096 -0.8443
  222MOL0     C29870   5.507   6.494   0.914 -0.4851 -0.4693  0.5748
  222MOL0     O29871   5.413   6.398   0.929  0.5558 -0.4580 -1.1258
  222MOL0     C29872   5.451   6.268   0.975 -0.4963  0.8613 -0.7657
  222MOL0     C29873   5.407   6.244   1.120  0.3014  0.0425 -0.3548
  222MOL0     C29874   5.443   6.098   1.177 -0.1800  0.0520  0.1526
  222MOL0     C29875   5.336   5.997   1.137  0.5375  0.7560  0.3324
  222MOL0     C29876   5.364   5.861   1.203 -0.1932 -0.1357 -0.1887
  222MOL0     C29877   5.252   5.756   1.177  0.2675  0.9047 -0.6887
  222MOL0     C29878   5.263   5.634   1.270  0.4629  0.2179  0.5768
  222MOL0     C29879   5.392   5.560   1.268 -0.5157 -0.5260 -0.9009
  222MOL0    Cl29880   5.377   5.412   1.371  0.6067 -0.2819  0.1009
  222MOL0     C29881   5.496   6.577   0.797  0.3911  0.2092  0.0334
  222MOL0     C29882   5.603   6.665   0.761  1.5251 -0.4151 -0.7483
  222MOL0     O29883   5.862   6.685   0.622  0.2685  0.0771 -0.3864
  222MOL0     C29884   6.054   6.897   0.832 -0.3631  0.7896  0.1164
  222MOL0     C29885   6.158   6.988   0.838  0.2575  0.1262 -0.4773
  222MOL0     N29886   6.082   7.203   0.181 -0.2351 -0.1096  0.3250
  222MOL0     N29887   5.954   7.208   0.165  0.5353 -0.3130 -0.6014
  222MOL0     C29888   5.300   6.422   0.358  0.1174  1.0829 -0.9643
  222MOL0     C29889   5.254   6.287   0.380  0.8144 -0.8055  1.0007
  222MOL0     C29890   5.149   5.963   0.686 -0.3722  0.4457 -0.1536
  222MOL0     C29891   5.102   5.962   0.812  0.4879 -0.1505  0.8074
  222MOL0     C29892   5.046   5.843   0.855 -0.7214  0.3330 -0.7675
  222MOL0     C29893   5.047   5.719   0.784 -1.1308  0.7211  0.4561
  222MOL0     O29894   5.004   5.595   0.830  0.4109 -0.1599 -0.1921
  222MOL0     C29895   4.942   5.601   0.953 -0.8237 -0.7081 -0.9932
  222MOL0     C29896   4.967   5.469   1.017 -0.1648 -0.2421 -0.3267
  222MOL0     C29897   4.914   5.468   1.168  0.7218  0.7066  0.0912
  222MOL0     C29898   4.911   5.331   1.225 -0.7610  0.1538  0.3671
  222MOL0     C29899   4.853   5.329   1.355  0.6685  0.1002 -0.4916
  222MOL0     C29900   4.794   5.317   1.455 -0.1825 -1.0558  0.0919
  222MOL0     C29901   5.093   5.727   0.654 -0.1824  0.4506 -0.0576
  222MOL0     C29902   5.128   5.853   0.604 -0.3835  0.5689 -0.0172
  222MOL0     H29903   5.497   6.179   0.599 -1.3069 -1.3845  1.1888
  222MOL0     H29904   5.592   6.396   0.544  0.1749 -1.0590  0.1501
  222MOL0     H29905   5.668   6.620   0.442 -1.2851  3.1855  0.5457
  222MOL0     H29906   5.625   6.550   0.277  0.4619  1.5622 -0.9551
  222MOL0     H29907   5.686   6.786   0.265 -1.4979  2.3774  0.5519
  222MOL0     H29908   5.522   6.744   0.216  0.0930 -0.2620 -0.6377
  222MOL0     H29909   5.450   6.871   0.434 -0.4394  3.3094  1.7407
  222MOL0     H29910   5.628   6.893   0.468 -1.0215  5.4332 -0.1964
  222MOL0     H29911   5.652   7.008   0.261  1.4631 -0.4133  1.0022
  222MOL0     H29912   5.495   6.982   0.204  2.6584  0.1618 -1.3342
  222MOL0     H29913   5.490   7.195   0.273  0.6000 -1.3102 -1.2162
  222MOL0     H29914   5.397   7.125   0.392 -0.2938 -2.7159 -0.5677
  222MOL0     H29915   5.554   7.307   0.488 -0.1487  0.4878  0.0826
  222MOL0     H29916   5.569   7.158   0.569 -1.2565 -0.5961  0.1671
  222MOL0     H29917   5.776   7.270   0.531  0.0154  1.4767 -1.5997
  222MOL0     H29918   5.788   7.117   0.443 -1.0583 -0.7320  1.6072
  222MOL0     H29919   5.725   7.385   0.329  0.3564  0.3952 -2.5974
  222MOL0     H29920   5.717   7.249   0.227 -0.3005  1.8858  0.5359
  222MOL0     H29921   5.990   7.348   0.468 -0.2761 -1.8326  0.1928
  222MOL0     H29922   6.297   7.159   0.357  0.3785  0.1933 -1.9926
  222MOL0     H29923   6.318   7.324   0.308 -2.4458 -0.0889 -1.9622
  222MOL0     H29924   6.186   7.241   0.574  1.4915 -1.0881  1.4764
  222MOL0     H29925   6.237   7.404   0.534  4.1262  1.1356 -3.0306
  222MOL0     H29926   6.426   7.338   0.660  2.9974 -2.7882  2.0978
  222MOL0     H29927   6.490   7.304   0.506 -0.4578  0.9419  0.5288
  222MOL0     H29928   6.529   7.133   0.684  1.3128  2.5714 -1.6300
  222MOL0     H29929   6.424   7.057   0.552 -0.1751 -1.4499  1.1573
  222MOL0     H29930   6.223   6.982   0.499  0.5033  0.5520  0.0399
  222MOL0     H29931   5.905   6.855   0.451 -0.9047 -1.6442  0.5336
  222MOL0     H29932   6.035   6.937   0.375 -3.1723  3.0906  3.6782
  222MOL0     H29933   6.044   6.756   0.416 -1.7571  0.4392 -3.9124
  222MOL0     H29934   5.802   6.623   1.037  2.1732 -2.5113 -2.4733
  222MOL0     H29935   5.620   6.445   1.093  1.3541  0.8876 -0.4303
  222MOL0     H29936   5.406   6.186   0.919 -2.2078 -1.0691  3.0388
  222MOL0     H29937   5.559   6.248   0.966 -0.7458 -2.9631  2.1626
  222MOL0     H29938   5.454   6.316   1.189 -1.3477  0.1011  0.7633
  222MOL0     H29939   5.299   6.256   1.129 -0.1396 -1.7139 -2.4862
  222MOL0     H29940   5.450   6.104   1.286  0.3751 -0.6319  0.1603
  222MOL0     H29941   5.541   6.068   1.140 -0.2316  1.5657 -1.3412
  222MOL0     H29942   5.238   6.029   1.172  1.2770  1.9401  1.4351
  222MOL0     H29943   5.324   5.992   1.029 -0.5350 -1.5763  0.5078
  222MOL0     H29944   5.364   5.899   1.306 -4.3496  1.7153 -0.6676
  222MOL0     H29945   5.462   5.815   1.189 -1.4971 -3.1898 -0.1009
  222MOL0     H29946   5.156   5.807   1.189 -1.3718 -2.2344  0.7425
  222MOL0     H29947   5.258   5.716   1.075 -3.1418 -0.7420 -0.3899
  222MOL0     H29948   5.193   5.559   1.231  0.9875 -0.5450  1.0938
  222MOL0     H29949   5.242   5.663   1.373  1.8463  2.7518  0.2213
  222MOL0     H29950   5.465   5.624   1.319 -1.3515  1.1500 -1.7217
  222MOL0     H29951   5.423   5.527   1.169  0.6293 -2.2656 -0.0043
  222MOL0     H29952   5.405   6.562   0.739 -1.3976  0.0674  2.6661
  222MOL0     H29953   5.608   6.729   0.673  1.4510 -1.5137 -1.5896
  222MOL0     H29954   6.004   6.881   0.927  1.9381 -0.6930  1.1672
  222MOL0     H29955   6.182   7.029   0.935 -1.0922 -1.7718  0.7408
  222MOL0     H29956   5.238   6.488   0.297 -2.0705 -2.3100 -2.7127
  222MOL0     H29957   5.157   6.253   0.348  0.2328  2.2995 -1.0509
  222MOL0     H29958   5.112   6.044   0.882  2.3331 -0.8692  1.4487
  222MOL0     H29959   5.015   5.855   0.958 -1.5967 -1.8285 -0.7153
  222MOL0     H29960   4.986   5.677   1.019  2.4481 -2.1417 -1.3354
  222MOL0     H29961   4.836   5.628   0.943 -0.5985  1.1272  0.7693
  222MOL0     H29962   5.076   5.456   1.021 -0.1668  0.0637  1.4560
  222MOL0     H29963   4.921   5.395   0.951  0.8253 -0.1826 -1.1013
  222MOL0     H29964   4.822   5.525   1.182  3.0070  4.1564  2.8297
  222MOL0     H29965   4.977   5.522   1.240  1.0379  0.9986 -0.3960
  222MOL0     H29966   5.018   5.311   1.229 -0.3019  1.9573 -1.3183
  222MOL0     H29967   4.854   5.267   1.157  1.2285  2.1417 -3.5210
  222MOL0     H29968   4.738   5.317   1.547 -0.7195  0.3392 -0.2036
  222MOL0     H29969   5.102   5.640   0.590 -0.0626  0.9357 -0.7099
  222MOL0     H29970   5.157   5.849   0.499  2.2823 -4.8015  0.5527
  223MOL0     O29971   7.384   8.981   1.717 -0.5833 -0.5458 -0.3505
  223MOL0     C29972   7.376   9.072   1.637 -1.5416 -0.1004  0.1221
  223MOL0     O29973   7.269   9.166   1.635  0.3135  0.3875 -0.3874
  223MOL0     C29974   7.183   9.166   1.739  0.0407  0.3245  0.9816
  223MOL0     C29975   7.210   9.166   1.871  0.6530 -0.1875  1.0719
  223MOL0     C29976   7.114   9.165   1.968  0.5362  0.1837  0.0561
  223MOL0     C29977   6.982   9.144   1.933 -0.5801  1.9852  0.3606
  223MOL0     O29978   6.878   9.121   2.014 -0.2930 -0.0750 -0.3350
  223MOL0     C29979   6.891   9.173   2.152 -0.4362  0.7219  1.2853
  223MOL0     C29980   6.761   9.172   2.227  0.6091 -1.1107  0.2715
  223MOL0     C29981   6.772   9.183   2.382  0.4875 -0.1112  0.5391
  223MOL0     C29982   6.627   9.154   2.427  0.0681 -0.3202 -0.0373
  223MOL0     C29983   6.616   9.174   2.577  0.1096  0.1783 -0.8536
  223MOL0     C29984   6.477   9.129   2.641 -1.5323 -0.8644  0.1511
  223MOL0     C29985   6.483   8.985   2.681  0.2001  1.1205 -1.1512
  223MOL0     C29986   6.356   8.944   2.751  0.1832  0.7910 -0.4871
  223MOL0     N29987   6.365   8.796   2.790 -0.6293  0.0166 -0.7317
  223MOL0     C29988   6.453   8.727   2.870  0.5069  0.7117  0.1274
  223MOL0     C29989   6.416   8.594   2.856 -0.4334  0.0323  0.7042
  223MOL0     C29990   6.467   8.484   2.937  1.5386 -0.7009 -0.9856
  223MOL0     C29991   6.608   8.437   2.911 -0.0273 -0.1612 -0.2522
  223MOL0     C29992   6.624   8.358   2.784 -0.1202 -0.7707 -0.3924
  223MOL0     C29993   6.545   8.230   2.772  0.1966 -0.0236 -0.2084
  223MOL0     O29994   6.594   8.155   2.654  0.8659 -0.2998  0.1131
  223MOL0     C29995   6.592   8.021   2.661 -1.3950  0.8287 -0.2024
  223MOL0     C29996   6.685   7.959   2.581 -1.4146 -0.5403  0.2374
  223MOL0     C29997   6.693   7.825   2.585  0.1551  0.0246  0.3610
  223MOL0     C29998   6.789   7.770   2.480 -0.3668  0.6412 -0.7635
  223MOL0     C29999   6.619   7.739   2.683  0.1734 -0.2754  0.2576
  223MOL0     C30000   6.637   7.595   2.710 -0.1742  0.0868  0.7753
  223MOL0     O30001   6.709   7.522   2.614  0.3036  0.1158  0.2586
  223MOL0     C30002   6.709   7.380   2.609  0.1258 -0.6699 -0.1994
  223MOL0     C30003   6.835   7.323   2.599  0.7254  0.8398  0.1479
  223MOL0     C30004   6.848   7.185   2.602  0.0182  0.0529  0.2607
  223MOL0     C30005   6.731   7.101   2.614  0.6391 -0.0842 -0.3595
  223MOL0     O30006   6.723   6.971   2.629 -0.1888  0.2336 -0.6720
  223MOL0     C30007   6.838   6.885   2.645 -0.3846  1.0427 -0.0050
  223MOL0     C30008   6.771   6.749   2.673 -1.0977  0.2021 -1.0835
  223MOL0     C30009   6.886   6.643   2.683  0.8887  0.5666  0.5990
  223MOL0     C30010   6.830   6.512   2.765  0.4948 -0.6939  0.2361
  223MOL0     C30011   6.723   6.444   2.679 -0.1477 -0.3675 -0.5768
  223MOL0     C30012   6.785   6.392   2.543  0.7815  0.0663 -0.3430
  223MOL0     C30013   6.675   6.319   2.467  0.7741 -0.5217 -0.4800
  223MOL0     C30014   6.708   6.292   2.323  0.4996  0.0018  0.3766
  223MOL0    Cl30015   6.864   6.224   2.319  0.2358  0.0572 -0.2516
  223MOL0     C30016   6.602   7.162   2.607 -0.1043  0.4816  0.2719
  223MOL0     C30017   6.593   7.301   2.603 -0.1184  0.4486  0.1550
  223MOL0     O30018   6.581   7.545   2.806  0.6624  0.9246  0.1686
  223MOL0     C30019   6.517   7.807   2.758 -0.5955  0.1090  0.5006
  223MOL0     C30020   6.505   7.946   2.737  0.0637  0.3378 -0.8138
  223MOL0     N30021   6.316   8.584   2.761 -0.0019 -0.1851 -0.1837
  223MOL0     N30022   6.279   8.703   2.735 -0.1647  0.2940  0.0389
  223MOL0     C30023   6.948   9.132   1.796  0.4965 -0.8356 -0.4774
  223MOL0     C30024   7.050   9.150   1.705 -0.6134  0.7218 -0.5648
  223MOL0     C30025   7.497   9.099   1.560  0.3125 -0.0076  0.0502
  223MOL0     C30026   7.619   9.038   1.587 -0.2348 -0.9893  0.7380
  223MOL0     C30027   7.721   9.050   1.487 -0.7678 -0.0093 -0.1696
  223MOL0     C30028   7.708   9.141   1.379  0.4007  0.0566 -0.5322
  223MOL0     O30029   7.814   9.170   1.290 -0.2142 -0.4537 -1.0427
  223MOL0     C30030   7.949   9.136   1.328  0.0839  0.1538 -0.4735
  223MOL0     C30031   8.027   9.266   1.290 -0.3553  0.6335 -0.5989
  223MOL0     C30032   8.178   9.226   1.283 -0.2866  0.6175  0.7124
  223MOL0     C30033   8.271   9.344   1.319  0.6856 -0.0091  0.4668
  223MOL0     C30034   8.260   9.371   1.465 -0.8487 -0.1785 -0.4330
  223MOL0     C30035   8.242   9.402   1.583 -0.1930 -0.3361 -0.3416
  223MOL0     C30036   7.586   9.203   1.364 -0.2432 -0.2434  0.1862
  223MOL0     C30037   7.475   9.177   1.441  0.0412 -0.1585 -1.2895
  223MOL0     H30038   7.308   9.179   1.916 -0.1652  1.9254  2.3984
  223MOL0     H30039   7.142   9.167   2.073 -0.1461  1.5485  0.2294
  223MOL0     H30040   6.966   9.109   2.199 -0.9594 -1.1006 -0.2350
  223MOL0     H30041   6.943   9.269   2.162 -3.1387  2.1581  2.8021
  223MOL0     H30042   6.699   9.253   2.186  3.3474 -0.4254 -3.0307
  223MOL0     H30043   6.719   9.074   2.203 -0.8706  0.6108 -6.4809
  223MOL0     H30044   6.838   9.108   2.426 -0.0262 -0.8646  0.0513
  223MOL0     H30045   6.802   9.285   2.409  0.1389 -0.2030  1.2914
  223MOL0     H30046   6.567   9.230   2.377  0.7409 -1.0049 -2.0156
  223MOL0     H30047   6.581   9.061   2.393 -1.7617  0.1825  0.9253
  223MOL0     H30048   6.693   9.115   2.628 -1.0045 -4.5209 -3.9545
  223MOL0     H30049   6.632   9.282   2.589 -4.3340  1.2522 -2.4331
  223MOL0     H30050   6.445   9.189   2.728 -2.6058  1.8440 -1.9580
  223MOL0     H30051   6.395   9.144   2.570 -1.1364 -0.2798 -0.1952
  223MOL0     H30052   6.488   8.920   2.593 -2.1412  0.2053 -0.6906
  223MOL0     H30053   6.568   8.959   2.743  0.2201 -1.8625 -2.2637
  223MOL0     H30054   6.274   8.960   2.680  0.9133  0.8090 -1.3403
  223MOL0     H30055   6.340   8.996   2.845  2.7855 -1.3579  1.2929
  223MOL0     H30056   6.536   8.761   2.931  0.0357 -0.8887  1.7481
  223MOL0     H30057   6.460   8.517   3.041 -1.9264 -3.2725 -0.1941
  223MOL0     H30058   6.387   8.410   2.925 -0.8731  1.1892  1.9922
  223MOL0     H30059   6.655   8.385   2.995  0.7318 -0.5771 -0.9250
  223MOL0     H30060   6.662   8.529   2.887 -0.2045  1.0977  3.4688
  223MOL0     H30061   6.729   8.328   2.773 -0.1814 -1.6208  1.0566
  223MOL0     H30062   6.604   8.430   2.704  0.8939 -1.9721 -1.7816
  223MOL0     H30063   6.440   8.257   2.774 -0.2341 -1.5341  2.9027
  223MOL0     H30064   6.569   8.173   2.863  1.1242  1.2311  0.3607
  223MOL0     H30065   6.757   8.008   2.517 -0.2852  0.0977  1.9121
  223MOL0     H30066   6.789   7.845   2.400 -1.7997  1.1275 -0.3336
  223MOL0     H30067   6.888   7.753   2.522  0.5400 -0.9493 -3.2960
  223MOL0     H30068   6.744   7.682   2.434 -0.1590 -0.2999  0.7498
  223MOL0     H30069   6.925   7.381   2.587 -0.2869  2.2209 -1.0796
  223MOL0     H30070   6.943   7.138   2.628  0.5032  0.2219 -1.1238
  223MOL0     H30071   6.914   6.901   2.569  0.7978 -0.0730  0.8993
  223MOL0     H30072   6.890   6.900   2.740  2.7302 -0.2917 -1.3653
  223MOL0     H30073   6.720   6.745   2.770  0.4220  1.5090 -0.1691
  223MOL0     H30074   6.700   6.719   2.596 -2.5206 -1.3673  0.7512
  223MOL0     H30075   6.976   6.691   2.723  0.7951  2.0051 -0.8492
  223MOL0     H30076   6.915   6.604   2.585  0.9610 -1.0203  1.2104
  223MOL0     H30077   6.909   6.436   2.775 -0.9330 -3.2223 -4.5119
  223MOL0     H30078   6.782   6.531   2.862  2.5479 -3.7005  2.0439
  223MOL0     H30079   6.631   6.503   2.668 -1.1500 -2.1163 -1.9908
  223MOL0     H30080   6.674   6.361   2.730 -1.6988  0.0472 -1.3050
  223MOL0     H30081   6.826   6.474   2.484  4.3584 -0.4714  1.1445
  223MOL0     H30082   6.868   6.327   2.571  1.6588  1.0022 -0.7284
  223MOL0     H30083   6.587   6.384   2.467 -1.6411 -3.5352 -0.2870
  223MOL0     H30084   6.634   6.238   2.528 -0.0092  1.4017  1.6863
  223MOL0     H30085   6.713   6.384   2.264 -1.2139  0.5956  1.1074
  223MOL0     H30086   6.625   6.232   2.285 -1.9660  3.5509 -0.3810
  223MOL0     H30087   6.512   7.102   2.622  1.1245 -2.4799 -2.8699
  223MOL0     H30088   6.498   7.352   2.611 -1.0114 -1.0672 -0.3492
  223MOL0     H30089   6.451   7.752   2.824 -0.4244 -1.7165 -0.7685
  223MOL0     H30090   6.427   8.001   2.789  1.1503  2.4337 -1.2929
  223MOL0     H30091   6.845   9.109   1.771  1.1148 -0.2888 -4.1440
  223MOL0     H30092   7.017   9.127   1.605  0.5808 -5.2674  0.0354
  223MOL0     H30093   7.643   8.987   1.680  2.3911  5.1009  4.0182
  223MOL0     H30094   7.810   8.992   1.510 -0.7902 -0.5765 -1.3865
  223MOL0     H30095   7.961   9.114   1.434 -1.9735 -2.5285 -0.7059
  223MOL0     H30096   7.983   9.048   1.272 -2.8804 -1.6328  0.3181
  223MOL0     H30097   8.011   9.343   1.366  0.5561 -1.7156  2.1225
  223MOL0     H30098   7.995   9.296   1.189  1.4326  3.4482 -0.4289
  223MOL0     H30099   8.210   9.205   1.180  0.0490  1.0781  0.7243
  223MOL0     H30100   8.210   9.138   1.341  0.3278 -0.1817 -0.7826
  223MOL0     H30101   8.243   9.431   1.259 -1.1611 -1.9482 -1.6529
  223MOL0     H30102   8.375   9.314   1.302  1.0849  0.1991  2.3911
  223MOL0     H30103   8.225   9.418   1.687  2.9612 -4.9058  1.1937
  223MOL0     H30104   7.570   9.264   1.276  0.0933  1.5286  1.2968
  223MOL0     H30105   7.376   9.205   1.406  0.0993 -1.4408 -2.5811
  224MOL0     O30106   0.286   4.319   5.191  0.4319 -0.1571  0.4743
  224MOL0     C30107   0.234   4.213   5.209  0.6553  0.0957  1.3746
  224MOL0     O30108   0.175   4.176   5.327  0.6022  0.1008  0.4307
  224MOL0     C30109   0.253   4.211   5.440 -0.0279  0.4247  1.2276
  224MOL0     C30110   0.229   4.319   5.530 -0.2379  1.2893  1.0444
  224MOL0     C30111   0.318   4.344   5.638 -0.2208  0.2801  0.7240
  224MOL0     C30112   0.422   4.254   5.670 -1.1043 -0.4194 -0.5363
  224MOL0     O30113   0.503   4.263   5.780  0.1229 -0.3683 -0.0831
  224MOL0     C30114   0.564   4.389   5.798  0.4445 -1.3346  0.2271
  224MOL0     C30115   0.691   4.375   5.884  0.2757  0.3035 -0.8164
  224MOL0     C30116   0.656   4.306   6.021  0.4733 -0.5139  0.2942
  224MOL0     C30117   0.776   4.292   6.110 -0.0767 -0.0760  0.2925
  224MOL0     C30118   0.736   4.244   6.250 -0.6599 -0.0942 -0.1855
  224MOL0     C30119   0.850   4.181   6.330 -0.0613 -0.0736 -0.4701
  224MOL0     C30120   0.786   4.133   6.473 -0.5269  0.3826  0.4299
  224MOL0     C30121   0.901   4.135   6.579  0.7036 -0.0316  0.4139
  224MOL0     N30122   1.017   4.071   6.528  0.1137  0.5299  0.0977
  224MOL0     C30123   1.030   3.947   6.461  0.1803  0.0336  0.0811
  224MOL0     C30124   1.156   3.943   6.414  0.1195  0.1767 -0.2429
  224MOL0     C30125   1.231   3.825   6.353  0.4243 -0.1438  0.1252
  224MOL0     C30126   1.314   3.760   6.467 -0.3340  0.1067 -1.2770
  224MOL0     C30127   1.461   3.811   6.474  0.2304 -0.3489  0.3978
  224MOL0     C30128   1.529   3.827   6.610  0.0853 -0.2772  0.0357
  224MOL0     O30129   1.667   3.870   6.596 -0.4047 -0.5372  0.1728
  224MOL0     C30130   1.687   3.989   6.533 -0.3524  0.7444  0.5496
  224MOL0     C30131   1.651   4.107   6.580 -0.2322 -0.6114  0.4696
  224MOL0     C30132   1.687   4.225   6.513  1.4077  0.1530 -1.1203
  224MOL0     C30133   1.652   4.354   6.579  0.4387 -0.0475 -0.1221
  224MOL0     C30134   1.758   4.227   6.386 -0.9541  0.1645 -0.2756
  224MOL0     C30135   1.788   4.352   6.309  0.1785  0.0379 -0.3425
  224MOL0     O30136   1.920   4.365   6.254 -0.0847 -0.1278  0.4447
  224MOL0     C30137   1.962   4.495   6.221 -0.0905  0.7583  0.1990
  224MOL0     C30138   1.928   4.571   6.104  0.2138 -0.3327  0.4275
  224MOL0     C30139   1.986   4.698   6.085 -0.5592  0.8907 -0.1616
  224MOL0     C30140   2.053   4.766   6.192 -0.3068  1.2297 -0.3961
  224MOL0     O30141   2.115   4.884   6.186 -0.4111 -0.0452 -0.0384
  224MOL0     C30142   2.043   4.990   6.131  0.2210  0.4056 -0.6275
  224MOL0     C30143   2.104   5.120   6.178 -0.2305 -0.0689 -0.5388
  224MOL0     C30144   2.016   5.238   6.141  0.6004  0.4375 -0.7955
  224MOL0     C30145   2.084   5.316   6.032 -0.3809  0.0916 -0.4478
  224MOL0     C30146   1.992   5.428   5.997 -0.0431  0.9857 -0.8605
  224MOL0     C30147   2.009   5.458   5.843  0.0443  0.6987  0.1546
  224MOL0     C30148   2.125   5.553   5.805 -1.0957  0.8470 -0.8383
  224MOL0     C30149   2.076   5.697   5.808 -0.5970 -0.4895 -0.5615
  224MOL0    Cl30150   2.225   5.776   5.734 -0.7795  0.5256 -0.4144
  224MOL0     C30151   2.088   4.687   6.299  0.3035  0.2688  0.3092
  224MOL0     C30152   2.038   4.559   6.326  0.4504 -0.5185  0.7157
  224MOL0     O30153   1.695   4.434   6.304  0.9848 -0.2357  0.2769
  224MOL0     C30154   1.780   4.100   6.329 -0.6298 -0.4590  0.3401
  224MOL0     C30155   1.746   3.983   6.403 -0.2366 -0.3247  0.5353
  224MOL0     N30156   1.221   4.048   6.472  0.2560 -1.0732 -1.0292
  224MOL0     N30157   1.141   4.117   6.544 -0.6749  0.5161  0.2232
  224MOL0     C30158   0.445   4.147   5.585  1.2341 -0.6096 -0.1043
  224MOL0     C30159   0.373   4.125   5.467  0.5360 -0.3962  0.6709
  224MOL0     C30160   0.211   4.135   5.078  0.0725  0.2061 -0.9543
  224MOL0     C30161   0.241   4.179   4.953 -0.1539  0.0973  0.5398
  224MOL0     C30162   0.192   4.116   4.835  0.0957  0.2728 -0.5460
  224MOL0     C30163   0.114   3.999   4.843 -0.5169  0.5594 -0.3563
  224MOL0     O30164   0.058   3.931   4.742  0.0812  0.7175  0.1762
  224MOL0     C30165   0.057   3.993   4.613  0.3015 -0.1031  0.1057
  224MOL0     C30166  -0.025   3.900   4.529  0.6066 -0.0280  0.2828
  224MOL0     C30167  -0.166   3.872   4.598 -0.2589 -0.2786  0.4066
  224MOL0     C30168  -0.241   3.753   4.532 -0.0340 -0.6220  1.4819
  224MOL0     C30169  -0.199   3.618   4.573 -0.8855 -1.7437  0.3241
  224MOL0     C30170  -0.176   3.501   4.579 -1.0306  0.4068  0.1577
  224MOL0     C30171   0.100   3.937   4.975  0.5886  0.0213 -0.7101
  224MOL0     C30172   0.142   4.006   5.088  0.2091 -0.2448 -0.2164
  224MOL0     H30173   0.135   4.364   5.500 -0.5661 -1.4209 -2.6299
  224MOL0     H30174   0.307   4.430   5.704  2.0141 -1.0094  2.9832
  224MOL0     H30175   0.615   4.426   5.709  2.0287  0.0455  1.6388
  224MOL0     H30176   0.490   4.462   5.833 -0.0171 -1.9282  0.5032
  224MOL0     H30177   0.750   4.312   5.817  1.8662 -0.5515  1.2807
  224MOL0     H30178   0.743   4.470   5.898  0.0800 -0.0080  2.7407
  224MOL0     H30179   0.571   4.356   6.068 -0.8076  0.0373 -2.4168
  224MOL0     H30180   0.629   4.203   5.995  0.3900 -0.0643 -1.5349
  224MOL0     H30181   0.846   4.221   6.066  0.0105  1.0153 -1.4348
  224MOL0     H30182   0.825   4.390   6.116 -0.2921  0.0506 -0.0038
  224MOL0     H30183   0.709   4.335   6.304  0.1843  0.0026  0.0963
  224MOL0     H30184   0.646   4.181   6.249  0.0154 -1.1883  1.7221
  224MOL0     H30185   0.878   4.091   6.274 -0.2714 -0.0452 -0.6270
  224MOL0     H30186   0.931   4.254   6.341 -0.0542 -0.5497  4.7636
  224MOL0     H30187   0.696   4.188   6.502 -0.6873  0.3690 -0.0265
  224MOL0     H30188   0.749   4.031   6.458 -1.4412  0.9214 -1.2645
  224MOL0     H30189   0.866   4.082   6.668 -1.3583  0.1594 -0.2320
  224MOL0     H30190   0.924   4.239   6.602 -0.9506  0.1633  1.3071
  224MOL0     H30191   0.956   3.870   6.442  0.0744 -0.0747  0.8726
  224MOL0     H30192   1.163   3.761   6.296  2.1242 -2.3408  0.4364
  224MOL0     H30193   1.298   3.862   6.275 -2.0114 -1.9995 -3.1073
  224MOL0     H30194   1.329   3.653   6.449  0.7361  0.0551 -0.2596
  224MOL0     H30195   1.261   3.770   6.562 -2.2608 -0.9350 -2.1847
  224MOL0     H30196   1.471   3.902   6.413 -2.5729  0.3214  0.7766
  224MOL0     H30197   1.528   3.746   6.417  1.8677 -0.5781  2.4678
  224MOL0     H30198   1.530   3.724   6.649 -3.4744 -1.1789 -1.8250
  224MOL0     H30199   1.465   3.883   6.678 -0.6335  1.4953 -1.9801
  224MOL0     H30200   1.598   4.110   6.675  0.3385  0.3440  0.7779
  224MOL0     H30201   1.723   4.431   6.548 -0.9681  0.6900 -1.6734
  224MOL0     H30202   1.551   4.388   6.554  0.3533  1.5957  2.0550
  224MOL0     H30203   1.654   4.341   6.688 -1.1528 -0.0230 -0.0642
  224MOL0     H30204   1.870   4.536   6.020  0.3265  0.6506 -0.0696
  224MOL0     H30205   1.966   4.749   5.992  0.1723  1.2108 -0.1528
  224MOL0     H30206   2.037   4.976   6.023 -0.2354 -3.2917 -0.2620
  224MOL0     H30207   1.941   4.995   6.171 -0.5358  4.0015 -2.5871
  224MOL0     H30208   2.109   5.107   6.286 -1.8477  1.4587 -0.2488
  224MOL0     H30209   2.207   5.123   6.141 -0.0828 -0.2112 -0.1420
  224MOL0     H30210   1.994   5.306   6.224 -4.0643  0.7439 -1.9849
  224MOL0     H30211   1.918   5.201   6.109  1.1230 -1.6955 -0.1061
  224MOL0     H30212   2.176   5.367   6.060 -2.3241  3.0425  1.1514
  224MOL0     H30213   2.106   5.250   5.947  2.8366 -0.9540  1.0634
  224MOL0     H30214   2.026   5.519   6.047  2.8516  1.0071 -2.6447
  224MOL0     H30215   1.886   5.417   6.018  0.4782 -0.8870  1.0812
  224MOL0     H30216   2.022   5.361   5.794 -0.2200  0.0654  1.3140
  224MOL0     H30217   1.917   5.493   5.795  0.1653  0.2242 -0.4474
  224MOL0     H30218   2.154   5.521   5.705 -0.0147  0.7155 -0.5029
  224MOL0     H30219   2.206   5.533   5.876 -0.2785 -0.6657 -2.1326
  224MOL0     H30220   2.045   5.722   5.910 -0.7446 -0.5724 -0.5867
  224MOL0     H30221   1.986   5.716   5.749  0.0697  0.4143 -1.3342
  224MOL0     H30222   2.161   4.737   6.362 -2.0113 -2.0964  5.4277
  224MOL0     H30223   2.067   4.513   6.420  0.1454  1.3305  1.7760
  224MOL0     H30224   1.826   4.089   6.232 -2.1868  0.5865 -0.5767
  224MOL0     H30225   1.774   3.884   6.370  0.3595 -0.5301  1.6172
  224MOL0     H30226   0.524   4.074   5.606  0.8521 -1.1365 -0.4719
  224MOL0     H30227   0.399   4.039   5.404  2.4875  1.1685 -0.7946
  224MOL0     H30228   0.300   4.270   4.947  1.1208 -0.7411 -0.2396
  224MOL0     H30229   0.221   4.146   4.735 -2.7321  0.6434 -1.3393
  224MOL0     H30230   0.007   4.090   4.625  0.0091 -0.1228 -0.8708
  224MOL0     H30231   0.154   4.021   4.571 -1.6813  5.5261 -1.7061
  224MOL0     H30232   0.028   3.805   4.517  2.4596  1.1224 -1.2567
  224MOL0     H30233  -0.042   3.941   4.429 -0.1786 -0.5153  0.2084
  224MOL0     H30234  -0.228   3.962   4.591 -1.2650 -1.0519 -1.2640
  224MOL0     H30235  -0.152   3.847   4.704 -0.5486  1.9659  1.0462
  224MOL0     H30236  -0.234   3.751   4.423 -0.4488  1.3795  1.3854
  224MOL0     H30237  -0.345   3.765   4.564 -0.3568 -2.5732  1.2601
  224MOL0     H30238  -0.159   3.395   4.582 -1.0154  0.3489 -1.3845
  224MOL0     H30239   0.059   3.838   4.992 -1.9312  0.8160 -1.6107
  224MOL0     H30240   0.104   3.971   5.184 -2.9758  2.0012 -0.4803
  225MOL0     O30241   2.204   1.316  10.608 -0.2336  0.1151  0.7003
  225MOL0     C30242   2.132   1.360  10.509  0.4734 -0.0322 -0.1624
  225MOL0     O30243   2.090   1.490  10.492 -0.2703  0.3189 -0.0780
  225MOL0     C30244   2.095   1.571  10.600  0.3359  0.3364 -0.3290
  225MOL0     C30245   1.983   1.592  10.689 -0.3314  0.1342 -0.5025
  225MOL0     C30246   2.002   1.683  10.796  0.1752 -0.3077  0.0374
  225MOL0     C30247   2.120   1.750  10.814 -0.4185 -0.6761  0.6310
  225MOL0     O30248   2.135   1.841  10.917  0.6848 -0.3632  0.0056
  225MOL0     C30249   2.242   1.935  10.939  0.1012  0.1439 -0.9062
  225MOL0     C30250   2.223   2.047  10.839 -0.5423 -0.3940 -0.1380
  225MOL0     C30251   2.312   2.165  10.889  0.5444 -0.6302 -1.0638
  225MOL0     C30252   2.458   2.147  10.871 -0.1770  0.3035 -0.7373
  225MOL0     C30253   2.505   2.118  10.739 -0.4717 -0.3208  0.1945
  225MOL0     C30254   2.657   2.147  10.718  0.2218 -0.1326  0.4339
  225MOL0     C30255   2.739   2.044  10.793  0.3441  0.0331  0.8329
  225MOL0     C30256   2.878   2.047  10.739 -0.6319 -0.3107 -0.0309
  225MOL0     N30257   2.968   1.961  10.809 -0.2517 -0.1075 -0.0805
  225MOL0     C30258   2.934   1.834  10.855  0.2143  0.6793 -0.4994
  225MOL0     C30259   3.040   1.788  10.919  0.6981 -0.3200 -0.3861
  225MOL0     C30260   3.043   1.644  10.971 -0.4967  0.0095  0.7516
  225MOL0     C30261   3.076   1.552  10.852  0.3055  0.5837 -1.1571
  225MOL0     C30262   2.960   1.501  10.754  0.2292 -0.6219  0.5994
  225MOL0     C30263   3.016   1.435  10.634 -0.4467 -0.3217  0.7680
  225MOL0     O30264   2.904   1.386  10.547 -0.1505  0.1354  0.3168
  225MOL0     C30265   2.917   1.331  10.423  0.6708  0.3084 -0.1328
  225MOL0     C30266   3.038   1.326  10.354  0.7522 -0.5433 -0.9248
  225MOL0     C30267   3.046   1.288  10.224 -0.4269 -0.1233 -0.5774
  225MOL0     C30268   3.183   1.299  10.157 -0.1785  0.2023  0.3448
  225MOL0     C30269   2.933   1.232  10.165 -0.3592  0.5431 -0.6021
  225MOL0     C30270   2.930   1.181  10.029  0.1143  0.3054  0.7042
  225MOL0     O30271   2.800   1.136   9.995 -0.0712 -0.1904 -0.5166
  225MOL0     C30272   2.777   1.065   9.876 -0.1831 -0.6257 -0.7330
  225MOL0     C30273   2.744   1.132   9.762 -0.9651 -0.7282  0.0372
  225MOL0     C30274   2.723   1.063   9.645 -0.2873 -0.9329 -0.4822
  225MOL0     C30275   2.725   0.919   9.635 -0.1662  0.9123 -1.1547
  225MOL0     O30276   2.700   0.841   9.524 -0.1620  0.9636  0.5744
  225MOL0     C30277   2.642   0.895   9.408 -0.6614 -0.3758  0.0352
  225MOL0     C30278   2.639   0.789   9.287 -0.3144 -0.1861 -0.2663
  225MOL0     C30279   2.578   0.850   9.148  0.0875  0.7647 -0.2856
  225MOL0     C30280   2.678   0.849   9.034  0.2807  0.9268  0.1978
  225MOL0     C30281   2.623   0.898   8.908  0.1314 -0.3729  0.0637
  225MOL0     C30282   2.632   1.049   8.903 -1.0190 -0.4380  0.0832
  225MOL0     C30283   2.581   1.112   8.758  0.2342 -0.6861  0.7705
  225MOL0     C30284   2.619   1.264   8.744 -0.2279  0.3287  1.0747
  225MOL0    Cl30285   2.533   1.338   8.600  0.0910  0.1753 -0.5706
  225MOL0     C30286   2.748   0.850   9.763 -0.3256  0.3201 -0.2577
  225MOL0     C30287   2.785   0.922   9.881 -0.1275 -0.1036  0.7499
  225MOL0     O30288   3.011   1.205   9.943 -0.9824 -0.0353  0.2718
  225MOL0     C30289   2.813   1.223  10.238 -1.0045  0.3943  0.6816
  225MOL0     C30290   2.802   1.269  10.363 -0.1486 -0.4653  0.1465
  225MOL0     N30291   3.133   1.883  10.924 -0.3622  0.2515  0.4209
  225MOL0     N30292   3.097   1.989  10.856 -0.8467 -0.6945 -0.6313
  225MOL0     C30293   2.222   1.732  10.720 -0.2490  0.5969 -0.0458
  225MOL0     C30294   2.214   1.641  10.619 -0.7977  0.1796  1.0428
  225MOL0     C30295   2.074   1.262  10.412 -0.4476  0.9649  0.2783
  225MOL0     C30296   2.069   1.121  10.434  0.8153 -0.2361  0.2989
  225MOL0     C30297   2.017   1.033  10.347  0.2914 -0.0675 -0.2151
  225MOL0     C30298   1.962   1.079  10.226  0.4752  0.6960  0.1705
  225MOL0     O30299   1.915   0.983  10.143  1.0360  0.6096 -0.0112
  225MOL0     C30300   1.861   1.016  10.013 -0.1737 -0.3311  0.5890
  225MOL0     C30301   1.728   1.092  10.024 -0.6337 -0.2120  0.8681
  225MOL0     C30302   1.640   1.099   9.892  0.6589 -0.1776  0.3729
  225MOL0     C30303   1.714   1.147   9.768  0.8231  0.1138  0.3609
  225MOL0     C30304   1.744   1.293   9.797 -0.1017  0.4966  0.1688
  225MOL0     C30305   1.780   1.410   9.828  0.1011  0.1800  0.1697
  225MOL0     C30306   1.979   1.219  10.201  0.9496  0.1588 -0.3346
  225MOL0     C30307   2.043   1.309  10.287  0.3303  0.0679  0.4137
  225MOL0     H30308   1.890   1.547  10.654  0.6174  0.2639 -3.4761
  225MOL0     H30309   1.915   1.710  10.854  0.2575  2.5324 -0.9604
  225MOL0     H30310   2.236   1.976  11.040  1.5959 -4.5693  1.3984
  225MOL0     H30311   2.337   1.882  10.928  1.6090  1.5595  3.3991
  225MOL0     H30312   2.259   2.010  10.743 -0.6220 -3.6300  0.9540
  225MOL0     H30313   2.122   2.083  10.817 -0.3400 -1.3653 -2.9829
  225MOL0     H30314   2.292   2.254  10.829  1.0599  1.6258  1.8772
  225MOL0     H30315   2.294   2.196  10.992  1.0988  1.7531 -1.6140
  225MOL0     H30316   2.513   2.236  10.903 -0.2363 -0.5665  2.0443
  225MOL0     H30317   2.489   2.065  10.937 -0.7508  0.9739  0.4082
  225MOL0     H30318   2.483   2.016  10.707  3.7188 -1.6546  0.9147
  225MOL0     H30319   2.447   2.183  10.672 -1.2799 -1.1146  0.1224
  225MOL0     H30320   2.686   2.147  10.612  3.6171 -0.9231  1.2448
  225MOL0     H30321   2.680   2.250  10.749  0.6067  0.1073 -0.6077
  225MOL0     H30322   2.730   2.050  10.902 -0.1979 -0.0401  0.7943
  225MOL0     H30323   2.694   1.945  10.779  0.6834  0.2154 -2.0027
  225MOL0     H30324   2.932   2.142  10.743  2.4149 -1.8793 -1.1619
  225MOL0     H30325   2.875   2.027  10.632 -2.3198  2.5491 -0.6497
  225MOL0     H30326   2.850   1.772  10.827  1.5943 -0.2690 -2.7899
  225MOL0     H30327   3.128   1.637  11.039  2.1445  1.8189 -2.0936
  225MOL0     H30328   2.951   1.616  11.024 -1.0477 -0.9020 -0.6423
  225MOL0     H30329   3.115   1.467  10.908  0.0484  0.6566 -0.8617
  225MOL0     H30330   3.154   1.592  10.787  0.2718  1.1191 -0.8745
  225MOL0     H30331   2.881   1.574  10.735 -0.0211 -1.0673 -0.1230
  225MOL0     H30332   2.920   1.410  10.800 -0.6010 -0.9483 -0.7061
  225MOL0     H30333   3.094   1.360  10.650 -0.6432 -0.8332 -0.5143
  225MOL0     H30334   3.064   1.516  10.578  0.6501 -1.4606  0.0085
  225MOL0     H30335   3.135   1.366  10.384  0.8111 -0.6485 -0.9763
  225MOL0     H30336   3.183   1.383  10.087  0.0877 -0.5332 -0.5529
  225MOL0     H30337   3.262   1.313  10.230  0.2225 -1.0930  0.1809
  225MOL0     H30338   3.220   1.214  10.099  2.8366  2.8091 -1.9078
  225MOL0     H30339   2.728   1.239   9.755 -0.4601 -0.7392 -1.8988
  225MOL0     H30340   2.711   1.109   9.548 -0.1897 -0.0767 -0.1029
  225MOL0     H30341   2.541   0.932   9.424 -0.0176  2.7509 -2.3327
  225MOL0     H30342   2.687   0.985   9.367 -1.7150  0.8862  1.5240
  225MOL0     H30343   2.736   0.747   9.257 -0.1935  1.6496 -2.7707
  225MOL0     H30344   2.576   0.705   9.316  1.0156 -0.8798  0.7711
  225MOL0     H30345   2.536   0.950   9.164 -4.7454 -0.7541 -1.6368
  225MOL0     H30346   2.493   0.786   9.121  2.9844 -3.6486  0.0569
  225MOL0     H30347   2.772   0.897   9.060  2.0645 -2.2720  0.1141
  225MOL0     H30348   2.697   0.742   9.023 -0.7063  0.6452  1.0835
  225MOL0     H30349   2.518   0.868   8.900 -0.1241  0.6954 -0.7387
  225MOL0     H30350   2.678   0.847   8.828  0.7470 -1.1290  0.9550
  225MOL0     H30351   2.569   1.088   8.983 -1.6129 -4.1756  1.6499
  225MOL0     H30352   2.737   1.076   8.916 -0.6216 -1.9239  0.1822
  225MOL0     H30353   2.473   1.097   8.755 -0.0909  1.0173  2.1220
  225MOL0     H30354   2.624   1.062   8.671 -2.4619  0.6165 -1.4881
  225MOL0     H30355   2.727   1.266   8.728  0.0472 -0.9703  2.4416
  225MOL0     H30356   2.610   1.327   8.833  2.4043  1.3781  0.6814
  225MOL0     H30357   2.743   0.742   9.759 -0.9962  0.2583  1.5730
  225MOL0     H30358   2.807   0.872   9.975 -0.5731 -1.8163 -0.0204
  225MOL0     H30359   2.718   1.186  10.200  0.8455 -2.8266 -1.2125
  225MOL0     H30360   2.706   1.277  10.413  0.6769  0.7252  1.6158
  225MOL0     H30361   2.318   1.782  10.730 -0.4095  0.8374  0.3246
  225MOL0     H30362   2.288   1.636  10.540 -4.0073  2.1989 -2.4522
  225MOL0     H30363   2.100   1.077  10.529 -0.7419 -2.8089 -0.2730
  225MOL0     H30364   2.008   0.932  10.386 -0.7773  1.0420  2.6244
  225MOL0     H30365   1.927   1.083   9.957 -0.5683  0.8387  1.4880
  225MOL0     H30366   1.847   0.925   9.953  1.2036  0.3896 -0.9215
  225MOL0     H30367   1.738   1.191  10.069  0.1791 -1.0766  2.6986
  225MOL0     H30368   1.672   1.034  10.098  0.9376 -2.2842  0.5311
  225MOL0     H30369   1.556   1.167   9.912  1.3022  0.1669  2.1245
  225MOL0     H30370   1.610   1.001   9.855 -0.2169 -0.5654  2.0049
  225MOL0     H30371   1.642   1.141   9.686  1.7911  1.7431 -0.6686
  225MOL0     H30372   1.798   1.081   9.744  1.0613  1.2087 -2.1874
  225MOL0     H30373   1.793   1.513   9.856 -0.0505  0.0162  0.8717
  225MOL0     H30374   1.932   1.263  10.114 -0.6273 -1.6535 -0.4489
  225MOL0     H30375   2.059   1.415  10.270  1.6084  0.3812  3.1031
  226MOL0     O30376   5.398  10.891  11.157 -0.1884  0.1360 -0.2988
  226MOL0     C30377   5.507  10.908  11.208 -0.5422  1.0023 -0.7788
  226MOL0     O30378   5.630  10.846  11.162  0.0008  0.1065  0.0634
  226MOL0     C30379   5.610  10.748  11.072 -0.1959  0.1131 -0.0789
  226MOL0     C30380   5.541  10.760  10.948  0.7487 -0.0723 -0.5559
  226MOL0     C30381   5.530  10.658  10.854  0.1190  0.2915  0.0953
  226MOL0     C30382   5.606  10.541  10.874 -0.5079 -0.7976  0.0774
  226MOL0     O30383   5.612  10.463  10.767  0.0179  0.8379  0.9383
  226MOL0     C30384   5.655  10.323  10.783  0.3987 -0.7823  1.0408
  226MOL0     C30385   5.610  10.235  10.670  0.4765 -0.6093  1.1883
  226MOL0     C30386   5.661  10.086  10.678  0.0744 -0.4122 -0.1772
  226MOL0     C30387   5.571   9.993  10.593  1.4033  0.5139  0.2592
  226MOL0     C30388   5.592   9.841  10.611 -0.5204 -0.3680  0.1609
  226MOL0     C30389   5.530   9.761  10.494 -1.0813  0.8135 -0.3294
  226MOL0     C30390   5.576   9.610  10.502  0.0790  0.0528  0.0225
  226MOL0     C30391   5.726   9.574  10.500  0.0478  0.2655  0.1554
  226MOL0     N30392   5.755   9.426  10.507 -0.4800 -0.0927  0.8970
  226MOL0     C30393   5.850   9.374  10.422 -0.1792 -1.1215  0.5955
  226MOL0     C30394   5.836   9.242  10.437 -0.3606 -0.2762 -0.0729
  226MOL0     C30395   5.922   9.141  10.366 -0.3855  0.4272  0.2114
  226MOL0     C30396   5.858   9.008  10.343  0.5233 -0.3176  0.2163
  226MOL0     C30397   5.931   8.889  10.288  0.4202  0.3039 -0.4109
  226MOL0     C30398   6.018   8.830  10.399 -0.3134  0.4609  0.4095
  226MOL0     O30399   6.117   8.745  10.340 -0.4081  0.1450  0.2480
  226MOL0     C30400   6.089   8.610  10.296 -0.3524  0.5370  0.3446
  226MOL0     C30401   6.182   8.541  10.221 -0.6574  0.2992 -0.0321
  226MOL0     C30402   6.166   8.412  10.173 -0.2793  0.0344 -0.6125
  226MOL0     C30403   6.282   8.345  10.106  0.0436  0.4078 -0.9058
  226MOL0     C30404   6.042   8.349  10.204 -0.7200  0.4156  0.3827
  226MOL0     C30405   6.010   8.215  10.157  0.1208  0.1845  0.5218
  226MOL0     O30406   6.085   8.151  10.069 -0.9896  0.5202  0.4439
  226MOL0     C30407   6.019   8.050   9.999 -0.6191  0.3471  0.4155
  226MOL0     C30408   5.941   8.069   9.886  0.7359  0.2664  1.1732
  226MOL0     C30409   5.896   7.950   9.810 -1.0629 -0.8828 -0.1070
  226MOL0     C30410   5.939   7.819   9.854  0.1144 -0.7021  0.5667
  226MOL0     O30411   5.886   7.710   9.772  0.2079 -0.4461  0.6908
  226MOL0     C30412   5.874   7.581   9.836 -0.1285 -0.5203  0.2389
  226MOL0     C30413   5.756   7.583   9.937 -0.0057  0.8102 -0.9116
  226MOL0     C30414   5.758   7.460  10.033  0.8602  0.1053 -0.1215
  226MOL0     C30415   5.658   7.453  10.152 -1.3923  0.9106  0.3175
  226MOL0     C30416   5.711   7.538  10.276  0.8211 -0.2649 -1.0416
  226MOL0     C30417   5.820   7.468  10.347 -0.1804  1.0807  0.1190
  226MOL0     C30418   5.840   7.538  10.486 -0.4151  0.1599  0.9516
  226MOL0     C30419   5.923   7.662  10.465  0.2163  0.4348  0.2430
  226MOL0    Cl30420   6.082   7.634  10.395 -0.2538  0.3118 -0.0376
  226MOL0     C30421   6.016   7.801   9.967  0.2043  0.4511  0.4012
  226MOL0     C30422   6.066   7.918  10.019 -0.3137  0.0824 -1.0850
  226MOL0     O30423   5.904   8.169  10.199  1.1367 -0.3539  0.7205
  226MOL0     C30424   5.957   8.408  10.303 -0.3879  1.0065 -0.1756
  226MOL0     C30425   5.982   8.533  10.343  0.8458  0.5301  0.3839
  226MOL0     N30426   5.733   9.215  10.529 -0.6023  0.0579 -0.8856
  226MOL0     N30427   5.681   9.326  10.567 -0.7510  0.1555  0.1330
  226MOL0     C30428   5.675  10.530  10.992  0.0729 -1.0189  0.0600
  226MOL0     C30429   5.675  10.626  11.089  0.0497 -0.1599 -0.3512
  226MOL0     C30430   5.517  10.991  11.330  0.1388  0.2948  0.3372
  226MOL0     C30431   5.399  11.062  11.376  0.4543  0.1657 -0.6179
  226MOL0     C30432   5.405  11.128  11.495  0.4798  0.2655 -0.5361
  226MOL0     C30433   5.530  11.154  11.563 -0.5085 -0.9255  0.8459
  226MOL0     O30434   5.541  11.244  11.663  0.5485 -1.0468 -0.2225
  226MOL0     C30435   5.445  11.221  11.770  0.9150  0.8934  0.1156
  226MOL0     C30436   5.469  11.328  11.878 -0.3733  0.4883 -0.1042
  226MOL0     C30437   5.411  11.458  11.831 -0.4932  0.0389 -0.1856
  226MOL0     C30438   5.425  11.572  11.933  0.4227 -0.3608 -0.6031
  226MOL0     C30439   5.316  11.561  12.028 -0.3543 -0.8673  0.0760
  226MOL0     C30440   5.222  11.554  12.103  0.3102 -0.7623 -0.6448
  226MOL0     C30441   5.649  11.103  11.507 -0.1136  0.0126 -0.4126
  226MOL0     C30442   5.642  11.011  11.399  0.1152 -0.7052 -0.0886
  226MOL0     H30443   5.495  10.857  10.930 -2.5942 -1.3754  0.2473
  226MOL0     H30444   5.480  10.677  10.760  0.0835 -0.8137 -0.1287
  226MOL0     H30445   5.761  10.328  10.807  0.1717  0.2174  1.9149
  226MOL0     H30446   5.616  10.276  10.874 -0.9074 -3.6653 -0.8367
  226MOL0     H30447   5.501  10.231  10.659  0.7790 -3.2677 -3.7272
  226MOL0     H30448   5.647  10.273  10.574 -2.1908 -0.7780  0.0136
  226MOL0     H30449   5.765  10.081  10.645 -0.7638 -1.4957 -2.9829
  226MOL0     H30450   5.656  10.058  10.783  3.1960 -0.1189  0.1298
  226MOL0     H30451   5.466  10.012  10.615  0.6725 -1.2266 -1.4301
  226MOL0     H30452   5.589  10.003  10.486 -1.1864  3.1947 -0.0448
  226MOL0     H30453   5.700   9.834  10.627  0.0791  4.0860 -0.5971
  226MOL0     H30454   5.551   9.795  10.702  1.3623 -2.0672  0.2169
  226MOL0     H30455   5.421   9.771  10.495 -1.3479 -0.4523 -3.8060
  226MOL0     H30456   5.580   9.799  10.404 -0.3171 -0.5071 -0.4868
  226MOL0     H30457   5.538   9.565  10.595  0.6556 -1.3016 -0.3760
  226MOL0     H30458   5.535   9.558  10.415 -0.8302 -1.9219  1.5519
  226MOL0     H30459   5.762   9.604  10.599  2.0348  2.3887 -1.1274
  226MOL0     H30460   5.772   9.631  10.419 -3.2563  1.2820 -1.2081
  226MOL0     H30461   5.905   9.436  10.352 -1.2194 -1.7124 -0.8053
  226MOL0     H30462   5.926   9.192  10.269 -2.4938 -1.5067 -0.9890
  226MOL0     H30463   6.015   9.116  10.418 -0.0320  1.3335  0.0443
  226MOL0     H30464   5.772   9.010  10.275 -0.0013 -2.6714  0.7263
  226MOL0     H30465   5.812   8.962  10.431  0.3555 -0.7315 -0.0859
  226MOL0     H30466   6.007   8.917  10.214 -0.3488 -0.2464 -1.4204
  226MOL0     H30467   5.859   8.814  10.256  1.6552 -2.6079  2.9239
  226MOL0     H30468   5.957   8.774  10.471  0.0092  0.5676  0.7717
  226MOL0     H30469   6.071   8.906  10.457 -0.9815  2.1654 -1.1187
  226MOL0     H30470   6.280   8.587  10.208 -0.4343  0.4241  1.8195
  226MOL0     H30471   6.301   8.244  10.144  0.4569  0.3526 -1.2499
  226MOL0     H30472   6.280   8.321  10.000  2.0852 -1.6856 -0.5634
  226MOL0     H30473   6.376   8.397  10.126  1.1281 -2.2825  1.8197
  226MOL0     H30474   5.894   8.166   9.875  1.2955  0.4287  0.1061
  226MOL0     H30475   5.827   7.967   9.728 -0.3750 -0.7639 -0.6715
  226MOL0     H30476   5.866   7.490   9.776 -1.1721 -1.9315  2.3912
  226MOL0     H30477   5.966   7.563   9.893  2.1626  1.3653 -2.6049
  226MOL0     H30478   5.751   7.672  10.000 -0.5208 -0.8212  1.4597
  226MOL0     H30479   5.666   7.576   9.875 -0.8839 -2.2202  0.5431
  226MOL0     H30480   5.858   7.449  10.078  1.1499 -0.8987 -0.9737
  226MOL0     H30481   5.740   7.368   9.977 -1.2025 -0.2752  1.0860
  226MOL0     H30482   5.559   7.488  10.122 -1.1667 -0.2948 -2.0293
  226MOL0     H30483   5.648   7.349  10.185 -0.0189 -0.0662 -2.1234
  226MOL0     H30484   5.628   7.547  10.346 -0.6506  1.6308 -2.9040
  226MOL0     H30485   5.750   7.636  10.246  0.9907 -0.6190 -2.0247
  226MOL0     H30486   5.788   7.364  10.363  0.0581  1.2192  1.6416
  226MOL0     H30487   5.908   7.467  10.281  0.2533 -0.4393  0.6803
  226MOL0     H30488   5.893   7.479  10.562 -0.2681  0.5339  1.1396
  226MOL0     H30489   5.744   7.557  10.534  0.6220 -2.6801  4.6737
  226MOL0     H30490   5.935   7.719  10.558 -1.7367 -0.2848  0.9981
  226MOL0     H30491   5.861   7.735  10.412 -3.1649 -0.4319  2.6455
  226MOL0     H30492   6.041   7.705  10.011 -3.0357  0.5201  2.8394
  226MOL0     H30493   6.133   7.918  10.105  1.2542 -2.1877 -2.2201
  226MOL0     H30494   5.870   8.363  10.351  1.0429 -0.1833  1.4204
  226MOL0     H30495   5.906   8.566  10.412  0.4279 -3.5002  2.0732
  226MOL0     H30496   5.740  10.444  11.006 -2.1692 -2.6264  1.2105
  226MOL0     H30497   5.729  10.610  11.182  0.5753 -0.4358 -0.6978
  226MOL0     H30498   5.309  11.030  11.325  0.8366 -2.6945  0.2998
  226MOL0     H30499   5.317  11.176  11.537  0.6665  0.4569 -0.3635
  226MOL0     H30500   5.348  11.229  11.721  2.0744  1.6526 -2.2290
  226MOL0     H30501   5.469  11.125  11.817 -1.3607  0.6433  0.8592
  226MOL0     H30502   5.577  11.336  11.892  0.1711  0.1152 -3.3214
  226MOL0     H30503   5.424  11.292  11.971 -1.5679  4.7455  1.1930
  226MOL0     H30504   5.306  11.428  11.825 -0.6353 -0.3316  2.7856
  226MOL0     H30505   5.451  11.477  11.731  1.5211 -2.5730  0.0375
  226MOL0     H30506   5.423  11.670  11.885 -3.5739  0.6263  1.1123
  226MOL0     H30507   5.515  11.554  11.993 -0.7434  3.2895  2.6651
  226MOL0     H30508   5.136  11.559  12.168  0.1845  0.0940 -0.8700
  226MOL0     H30509   5.742  11.141  11.546  0.8592  0.8149 -3.2623
  226MOL0     H30510   5.725  10.964  11.348 -1.5912 -3.0824 -0.9147
  227MOL0     O30511   4.302   4.425   8.975 -0.1227 -0.1409 -0.3540
  227MOL0     C30512   4.311   4.333   8.901  0.4250  0.2051  0.3492
  227MOL0     O30513   4.383   4.227   8.919 -0.4707  0.5286 -0.3244
  227MOL0     C30514   4.471   4.209   9.033 -0.5161  0.1113 -0.1056
  227MOL0     C30515   4.603   4.248   9.036  0.2369 -0.2839 -0.0654
  227MOL0     C30516   4.686   4.227   9.138  0.5324  0.6864 -0.1874
  227MOL0     C30517   4.636   4.164   9.256 -0.0860 -0.3181 -0.5604
  227MOL0     O30518   4.700   4.142   9.374  0.1051  0.1652 -1.1598
  227MOL0     C30519   4.791   4.235   9.424 -0.7548 -1.0100 -0.0050
  227MOL0     C30520   4.862   4.175   9.550 -0.3799 -0.1401  0.5078
  227MOL0     C30521   4.942   4.296   9.606 -0.1874  0.2530 -0.7027
  227MOL0     C30522   5.015   4.266   9.734 -0.3415 -0.3685 -0.0075
  227MOL0     C30523   5.094   4.383   9.781  0.7578  0.2481  0.1371
  227MOL0     C30524   5.190   4.351   9.898 -0.4331  0.6694  0.4412
  227MOL0     C30525   5.257   4.488   9.933 -0.0733  0.2466  0.2975
  227MOL0     C30526   5.379   4.482  10.031  0.2879 -0.5427  0.8637
  227MOL0     N30527   5.396   4.618  10.097 -0.4550 -0.3115  1.0038
  227MOL0     C30528   5.486   4.706  10.032 -0.2506  0.5439 -0.7273
  227MOL0     C30529   5.477   4.817  10.102  0.7836  0.1621 -0.1259
  227MOL0     C30530   5.504   4.956  10.055  0.1147  0.0113 -0.2352
  227MOL0     C30531   5.645   4.990  10.062  0.6113  0.5944  0.1505
  227MOL0     C30532   5.669   5.139  10.089  0.3120 -0.2294  0.0499
  227MOL0     C30533   5.632   5.177  10.233  0.1888  0.5215  0.4333
  227MOL0     O30534   5.689   5.300  10.266 -0.8446 -0.3066 -0.9909
  227MOL0     C30535   5.684   5.335  10.401  0.0302 -0.1865  0.5369
  227MOL0     C30536   5.786   5.419  10.439 -0.1496  0.1072 -0.2000
  227MOL0     C30537   5.806   5.473  10.567 -0.0090 -0.0801 -0.1063
  227MOL0     C30538   5.916   5.573  10.595  0.1264  0.7219 -0.0239
  227MOL0     C30539   5.717   5.419  10.659  0.2456  1.0919 -0.2347
  227MOL0     C30540   5.742   5.428  10.807 -0.1745 -0.8993  0.2737
  227MOL0     O30541   5.665   5.345  10.877 -0.3362  0.4752 -0.2444
  227MOL0     C30542   5.659   5.322  11.012  0.4556 -0.3800 -0.9430
  227MOL0     C30543   5.743   5.378  11.116 -0.4082 -0.3347  0.7079
  227MOL0     C30544   5.728   5.325  11.241  0.4336 -0.9317  0.9518
  227MOL0     C30545   5.638   5.221  11.267  0.6198  0.5262 -0.9845
  227MOL0     O30546   5.640   5.155  11.385  0.1040 -0.3130 -0.8321
  227MOL0     C30547   5.675   5.229  11.509  0.3915 -0.3389 -0.1858
  227MOL0     C30548   5.649   5.149  11.640 -0.3432  0.0512 -0.2714
  227MOL0     C30549   5.664   5.220  11.771 -0.1926 -0.8349 -0.2248
  227MOL0     C30550   5.805   5.202  11.830 -0.1248  0.0780  0.3294
  227MOL0     C30551   5.818   5.306  11.944 -0.0287  0.2068 -0.2355
  227MOL0     C30552   5.958   5.323  12.008 -0.3760  0.6618  0.2773
  227MOL0     C30553   5.958   5.420  12.128 -0.4980  0.7663 -0.5593
  227MOL0     C30554   6.038   5.552  12.113 -0.8064  0.3391 -0.4239
  227MOL0    Cl30555   6.021   5.626  11.945 -0.1766  0.4495 -0.1944
  227MOL0     C30556   5.554   5.169  11.174 -0.0868 -0.2262  0.2906
  227MOL0     C30557   5.561   5.225  11.049 -0.2242  0.0362  0.6480
  227MOL0     O30558   5.831   5.504  10.856  0.6695  0.7104 -0.0817
  227MOL0     C30559   5.601   5.339  10.624  0.2436  0.3843 -0.6014
  227MOL0     C30560   5.588   5.298  10.494  0.0963  0.6754  0.6185
  227MOL0     N30561   5.411   4.796  10.220  0.2314 -0.4899 -0.0009
  227MOL0     N30562   5.364   4.670  10.220  0.7855 -0.8145 -0.1870
  227MOL0     C30563   4.504   4.121   9.257  0.4476  0.9216 -0.5466
  227MOL0     C30564   4.418   4.138   9.151 -0.5324 -0.1130  1.2437
  227MOL0     C30565   4.219   4.343   8.783 -0.7598  0.2036  0.1936
  227MOL0     C30566   4.132   4.453   8.756 -0.2563 -0.1502  0.4777
  227MOL0     C30567   4.045   4.456   8.641 -0.2606  0.8279 -0.2814
  227MOL0     C30568   4.035   4.342   8.563  0.4825  0.1499  0.7536
  227MOL0     O30569   3.949   4.349   8.457 -0.2000 -0.2147  0.2972
  227MOL0     C30570   3.928   4.241   8.364  1.1414  0.0261  0.3550
  227MOL0     C30571   3.807   4.155   8.417  0.3241  0.6185  0.9789
  227MOL0     C30572   3.768   4.034   8.329  0.3212  0.3493  0.5389
  227MOL0     C30573   3.864   3.916   8.348  0.4382  0.2535  0.1948
  227MOL0     C30574   3.839   3.816   8.240  0.5332 -0.5358  0.2705
  227MOL0     C30575   3.836   3.725   8.155 -0.7254  0.4483  0.9891
  227MOL0     C30576   4.118   4.229   8.589 -1.2331 -0.0572 -0.2868
  227MOL0     C30577   4.205   4.233   8.701 -0.1499 -0.9972 -0.5997
  227MOL0     H30578   4.646   4.283   8.942 -0.5994 -1.4239 -0.9071
  227MOL0     H30579   4.793   4.247   9.136  1.1264 -0.5780  5.2508
  227MOL0     H30580   4.865   4.271   9.352 -0.3700 -1.5246  0.1294
  227MOL0     H30581   4.755   4.333   9.458  4.2679  0.7629  1.0080
  227MOL0     H30582   4.781   4.151   9.620 -0.0504 -0.7732  0.6761
  227MOL0     H30583   4.911   4.080   9.528 -1.7176 -0.4498 -1.3572
  227MOL0     H30584   5.013   4.332   9.530 -0.4635  0.0733 -1.0476
  227MOL0     H30585   4.875   4.379   9.632  1.3639  1.4161 -0.2465
  227MOL0     H30586   4.946   4.246   9.817  0.4974  0.8595  1.0360
  227MOL0     H30587   5.086   4.184   9.724 -0.3770 -0.0883 -4.1164
  227MOL0     H30588   5.143   4.416   9.689 -1.3556  1.0331 -0.7879
  227MOL0     H30589   5.028   4.463   9.816  0.8697 -0.6022  2.4148
  227MOL0     H30590   5.142   4.309   9.987  0.3114  2.3014  1.6669
  227MOL0     H30591   5.256   4.277   9.852 -1.0949 -1.5007  2.7789
  227MOL0     H30592   5.296   4.529   9.839 -0.8569 -2.3091 -1.2554
  227MOL0     H30593   5.180   4.561   9.958 -0.2731  1.1445 -2.4884
  227MOL0     H30594   5.466   4.461   9.967 -0.6263  2.2236 -1.5155
  227MOL0     H30595   5.350   4.409  10.107 -3.1373 -0.4908 -0.2255
  227MOL0     H30596   5.536   4.697   9.936  0.9820 -2.5623  0.1170
  227MOL0     H30597   5.460   4.974   9.956 -1.6628  1.5436  0.7711
  227MOL0     H30598   5.443   5.019  10.121  6.8244  4.6269  2.7164
  227MOL0     H30599   5.701   4.969   9.971 -0.3630  0.2332 -0.3819
  227MOL0     H30600   5.692   4.931  10.142  1.8846 -0.9583 -1.6524
  227MOL0     H30601   5.617   5.208  10.022  1.2299  0.5873  0.1587
  227MOL0     H30602   5.777   5.157  10.086  0.0120  1.5426 -1.4265
  227MOL0     H30603   5.660   5.094  10.298 -0.7765 -1.6152 -1.7022
  227MOL0     H30604   5.524   5.195  10.240  0.0936  1.5651 -2.3678
  227MOL0     H30605   5.864   5.453  10.371 -0.9224  1.5773 -0.4075
  227MOL0     H30606   5.935   5.638  10.509  0.5457  2.8130  1.5747
  227MOL0     H30607   5.877   5.644  10.669 -1.9297  0.3418 -0.6671
  227MOL0     H30608   6.004   5.528  10.641 -1.1009  1.8229  3.7251
  227MOL0     H30609   5.814   5.454  11.085  0.1554 -1.1377 -0.0046
  227MOL0     H30610   5.801   5.364  11.312  1.7316 -4.3460  1.7264
  227MOL0     H30611   5.781   5.253  11.492 -0.2761  2.1112 -1.3634
  227MOL0     H30612   5.613   5.318  11.525  0.9090 -0.4935  3.5345
  227MOL0     H30613   5.551   5.101  11.645 -1.8465  2.9807  1.9013
  227MOL0     H30614   5.723   5.069  11.639  0.4122  0.7381 -0.3194
  227MOL0     H30615   5.589   5.197  11.847 -1.1404 -1.3939 -1.2980
  227MOL0     H30616   5.642   5.326  11.752  2.2922 -0.0624  0.7099
  227MOL0     H30617   5.821   5.099  11.863 -0.6149 -0.0360  0.2238
  227MOL0     H30618   5.879   5.222  11.752  1.2990 -0.9303  1.3831
  227MOL0     H30619   5.752   5.270  12.023  0.9383 -2.1618 -0.4224
  227MOL0     H30620   5.784   5.403  11.905  0.0669 -0.2969 -1.6447
  227MOL0     H30621   5.990   5.225  12.045  0.2094  0.1497 -1.4731
  227MOL0     H30622   6.018   5.350  11.920 -1.2782  0.4471 -0.4197
  227MOL0     H30623   6.003   5.374  12.216 -0.6399 -0.3969 -1.0696
  227MOL0     H30624   5.855   5.442  12.153  0.1281 -0.1949  3.5144
  227MOL0     H30625   6.143   5.533  12.136 -0.5490  0.7037 -1.2586
  227MOL0     H30626   6.004   5.629  12.182 -1.2708  0.8678 -1.2289
  227MOL0     H30627   5.485   5.087  11.190 -2.5075  1.2330 -1.8113
  227MOL0     H30628   5.487   5.193  10.976 -1.1941 -2.0968  2.4510
  227MOL0     H30629   5.527   5.309  10.698  0.7852  2.9147  1.0975
  227MOL0     H30630   5.514   5.220  10.480  0.5584  0.2229  0.6573
  227MOL0     H30631   4.465   4.073   9.346  1.3281  2.7174  0.8432
  227MOL0     H30632   4.317   4.098   9.149 -1.3734  1.9238  1.0671
  227MOL0     H30633   4.131   4.540   8.821  0.8535 -2.0026  3.1554
  227MOL0     H30634   3.990   4.545   8.614 -2.2551  0.0101  0.8662
  227MOL0     H30635   3.898   4.278   8.266  0.2366  3.0561  1.6703
  227MOL0     H30636   4.022   4.187   8.348  0.0510 -1.4072 -1.7106
  227MOL0     H30637   3.726   4.228   8.424 -0.1156  0.4462 -1.5006
  227MOL0     H30638   3.828   4.115   8.517  0.0367 -0.3642  0.6615
  227MOL0     H30639   3.760   4.059   8.223 -0.7917  0.6632  0.6825
  227MOL0     H30640   3.669   4.003   8.364  1.3478 -0.7667  2.6299
  227MOL0     H30641   3.857   3.882   8.452  1.4449  1.8106  0.8089
  227MOL0     H30642   3.969   3.949   8.342  1.1357 -1.8781 -0.2084
  227MOL0     H30643   3.841   3.648   8.081 -1.4655  1.7405 -0.4555
  227MOL0     H30644   4.117   4.135   8.534  2.3448  1.2030 -2.9268
  227MOL0     H30645   4.253   4.137   8.717 -2.1296 -2.2986 -2.0240
  228MOL0     O30646   3.346   3.287   3.963  0.7997 -0.0698  0.6939
  228MOL0     C30647   3.417   3.189   3.959  0.1388  0.4771 -0.2751
  228MOL0     O30648   3.541   3.185   3.922 -0.5011 -0.4143 -0.0481
  228MOL0     C30649   3.613   3.298   3.913 -0.2713  0.3763 -0.1131
  228MOL0     C30650   3.644   3.372   4.028  1.0104 -0.4093 -0.5547
  228MOL0     C30651   3.731   3.483   4.021 -0.9628  0.8371  1.5124
  228MOL0     C30652   3.788   3.519   3.900  0.3180  0.2953 -0.5575
  228MOL0     O30653   3.871   3.623   3.899  0.2639  0.8155  0.4883
  228MOL0     C30654   3.990   3.627   3.810  0.6838  0.6496 -0.3705
  228MOL0     C30655   3.965   3.720   3.682 -0.2554  0.2886 -0.6810
  228MOL0     C30656   3.982   3.866   3.703  0.2017  0.3966  0.2965
  228MOL0     C30657   3.984   3.960   3.580  0.3405 -0.1222  0.6990
  228MOL0     C30658   4.010   4.104   3.630  0.2121  0.2774 -0.5464
  228MOL0     C30659   4.140   4.139   3.706 -0.1510 -0.2088 -0.4475
  228MOL0     C30660   4.261   4.112   3.615 -1.4966  0.6034  0.8258
  228MOL0     C30661   4.394   4.156   3.671 -0.5554  0.1856 -0.0942
  228MOL0     N30662   4.496   4.143   3.578 -1.1259 -0.3210 -0.4309
  228MOL0     C30663   4.622   4.194   3.595 -0.3020  0.7307  0.5693
  228MOL0     C30664   4.693   4.133   3.494 -0.6731 -1.0142  1.2111
  228MOL0     C30665   4.833   4.161   3.456  0.0582  0.5769  0.1048
  228MOL0     C30666   4.864   4.302   3.404  0.0065  0.4770 -0.6487
  228MOL0     C30667   4.821   4.317   3.257 -0.1997 -0.0186  0.4968
  228MOL0     C30668   4.867   4.456   3.194 -0.0392  0.8649  0.3294
  228MOL0     O30669   4.812   4.477   3.063 -0.1053 -0.3117  0.0018
  228MOL0     C30670   4.836   4.382   2.972  0.5630 -0.2048 -0.6741
  228MOL0     C30671   4.737   4.287   2.926 -1.0153  0.0518  0.9553
  228MOL0     C30672   4.773   4.184   2.836 -0.4830 -0.1081  0.6192
  228MOL0     C30673   4.671   4.073   2.806  0.4286 -0.0279 -0.9188
  228MOL0     C30674   4.908   4.183   2.776  0.4059 -0.9234 -0.9405
  228MOL0     C30675   4.951   4.079   2.676 -0.1366 -0.0079  0.2847
  228MOL0     O30676   5.074   4.088   2.615 -0.0494  0.2134  0.1037
  228MOL0     C30677   5.119   3.998   2.528  0.1346  0.7768 -0.9442
  228MOL0     C30678   5.170   4.023   2.403  0.3220  0.1645 -0.0598
  228MOL0     C30679   5.235   3.936   2.324  0.4099 -0.9011  0.4214
  228MOL0     C30680   5.270   3.810   2.373 -0.0882 -0.9644  0.3144
  228MOL0     O30681   5.336   3.727   2.288 -0.1785  0.0812  0.0416
  228MOL0     C30682   5.449   3.642   2.328 -0.2782 -0.6461  1.2398
  228MOL0     C30683   5.531   3.614   2.194 -0.2607 -0.2335  0.4710
  228MOL0     C30684   5.449   3.524   2.096  0.3560  0.6406  0.3569
  228MOL0     C30685   5.534   3.481   1.976  0.2872  0.0044 -1.1027
  228MOL0     C30686   5.577   3.595   1.888 -0.2823 -0.0136  0.5551
  228MOL0     C30687   5.649   3.550   1.761 -0.9569  0.2940 -0.3952
  228MOL0     C30688   5.780   3.482   1.788 -0.1447  0.4353 -0.6132
  228MOL0     C30689   5.852   3.449   1.662 -0.6248  1.7672  0.3763
  228MOL0    Cl30690   5.774   3.320   1.565  0.1066 -0.2527 -0.1386
  228MOL0     C30691   5.214   3.772   2.495 -0.1555 -0.6749 -0.7954
  228MOL0     C30692   5.146   3.867   2.575 -0.1494  0.3821 -0.1874
  228MOL0     O30693   4.893   3.967   2.687  0.1399  0.3178  0.2237
  228MOL0     C30694   4.991   4.293   2.818 -0.0659  0.6531 -0.1387
  228MOL0     C30695   4.964   4.390   2.913 -0.2525  0.8449 -0.7337
  228MOL0     N30696   4.608   4.042   3.433 -0.2020 -0.3294 -0.0703
  228MOL0     N30697   4.491   4.046   3.485 -0.7209  0.0899  0.2206
  228MOL0     C30698   3.747   3.450   3.789 -0.7562 -0.1964 -0.4094
  228MOL0     C30699   3.656   3.348   3.793  0.4411  0.2945  1.0750
  228MOL0     C30700   3.346   3.061   3.981  0.6907  0.2348  0.0722
  228MOL0     C30701   3.389   2.941   3.928 -0.3076 -0.7631 -0.5092
  228MOL0     C30702   3.320   2.822   3.968 -0.0552 -1.0208 -0.2159
  228MOL0     C30703   3.202   2.824   4.046  0.7908 -0.0388  0.8629
  228MOL0     O30704   3.155   2.710   4.083 -0.0449 -0.1022 -0.4753
  228MOL0     C30705   3.013   2.703   4.116  0.7021  0.2237  0.1818
  228MOL0     C30706   2.986   2.692   4.275  0.5320  0.0613  0.6215
  228MOL0     C30707   2.862   2.609   4.302  0.0259  0.1606  0.1307
  228MOL0     C30708   2.841   2.593   4.451  0.5890 -0.0272 -0.9794
  228MOL0     C30709   2.708   2.557   4.478  0.9314 -0.0554 -0.0417
  228MOL0     C30710   2.589   2.524   4.493  1.2630  0.0571  0.0433
  228MOL0     C30711   3.160   2.945   4.094 -0.2264  0.1503 -0.2945
  228MOL0     C30712   3.232   3.057   4.067 -1.4006 -0.0361 -0.3829
  228MOL0     H30713   3.600   3.344   4.123 -0.6192  0.8102 -0.8962
  228MOL0     H30714   3.762   3.541   4.107  3.3282  2.0358 -0.5516
  228MOL0     H30715   4.077   3.673   3.856 -0.1793 -0.1234  2.1919
  228MOL0     H30716   4.013   3.525   3.777 -0.5917 -0.0919  0.9090
  228MOL0     H30717   4.042   3.699   3.607 -0.6097 -2.7002 -0.2938
  228MOL0     H30718   3.861   3.704   3.651 -1.7543  1.3153  3.2798
  228MOL0     H30719   3.905   3.915   3.763  1.9160  4.4212 -0.4666
  228MOL0     H30720   4.069   3.870   3.769  0.9644 -3.1600 -0.3057
  228MOL0     H30721   4.052   3.916   3.507 -0.4750 -1.2371  0.5720
  228MOL0     H30722   3.883   3.948   3.539  0.2549 -4.4137  1.6332
  228MOL0     H30723   3.996   4.160   3.537  0.1725 -1.5530 -1.6741
  228MOL0     H30724   3.930   4.133   3.700 -0.2413 -3.4826  0.6889
  228MOL0     H30725   4.145   4.246   3.725 -0.1016  0.0023 -1.6027
  228MOL0     H30726   4.149   4.084   3.801 -1.7094  1.7784  0.9337
  228MOL0     H30727   4.271   4.005   3.593 -1.1412  0.4192  1.8392
  228MOL0     H30728   4.243   4.166   3.522  0.6807 -0.7807 -0.4963
  228MOL0     H30729   4.424   4.109   3.765  3.1275 -0.8947 -1.6302
  228MOL0     H30730   4.376   4.260   3.701  2.0328  0.1361  2.0317
  228MOL0     H30731   4.649   4.272   3.665  1.5689 -0.6503  1.4913
  228MOL0     H30732   4.892   4.131   3.543  0.2396  0.3095 -0.1126
  228MOL0     H30733   4.864   4.089   3.380 -2.2050 -0.4564  0.0698
  228MOL0     H30734   4.970   4.325   3.414  0.0716 -0.5973  1.8760
  228MOL0     H30735   4.809   4.374   3.466 -0.5021  0.1864 -0.7545
  228MOL0     H30736   4.712   4.308   3.252 -0.3671  2.1513 -1.7547
  228MOL0     H30737   4.863   4.235   3.197  0.6219  2.3159 -2.3615
  228MOL0     H30738   4.976   4.456   3.182 -0.2056 -0.8776 -1.6561
  228MOL0     H30739   4.847   4.535   3.267  4.8558  3.4283 -0.6427
  228MOL0     H30740   4.633   4.302   2.954 -1.3766  0.1860 -0.3520
  228MOL0     H30741   4.627   4.079   2.706 -0.7388  3.1785 -0.3470
  228MOL0     H30742   4.710   3.977   2.839 -0.3987 -0.1248 -0.1858
  228MOL0     H30743   4.580   4.089   2.865  0.0271  0.1685 -1.5789
  228MOL0     H30744   5.163   4.124   2.363 -0.3344 -0.6009 -1.9886
  228MOL0     H30745   5.273   3.959   2.225 -2.4523  0.7801 -0.4075
  228MOL0     H30746   5.507   3.698   2.401  3.5208 -1.4499 -0.8824
  228MOL0     H30747   5.402   3.553   2.371 -5.0619  1.1151  0.2844
  228MOL0     H30748   5.550   3.708   2.141 -0.4842 -1.0478 -1.0997
  228MOL0     H30749   5.628   3.578   2.229  1.7911  4.2157  0.0859
  228MOL0     H30750   5.363   3.584   2.065  0.3736 -1.4428 -4.5724
  228MOL0     H30751   5.418   3.430   2.143  2.2302 -1.1041 -1.7225
  228MOL0     H30752   5.619   3.434   2.027 -0.0026  0.3744 -0.2774
  228MOL0     H30753   5.492   3.406   1.908  2.2209 -1.3211 -0.9352
  228MOL0     H30754   5.648   3.658   1.942  0.8784 -1.4260  0.7334
  228MOL0     H30755   5.493   3.659   1.861  3.0253  3.1337 -3.5821
  228MOL0     H30756   5.578   3.482   1.711  0.4327 -0.0977 -1.9093
  228MOL0     H30757   5.673   3.628   1.688 -2.5213  1.7879  0.6124
  228MOL0     H30758   5.765   3.397   1.855  0.7150  1.3898  0.8633
  228MOL0     H30759   5.851   3.549   1.836 -0.2740 -0.5576  1.0417
  228MOL0     H30760   5.950   3.405   1.687 -0.9376 -0.7160 -2.2098
  228MOL0     H30761   5.869   3.537   1.600  2.7364  0.7283 -0.4203
  228MOL0     H30762   5.237   3.669   2.521 -1.8451 -0.4782  1.8407
  228MOL0     H30763   5.109   3.838   2.672  0.7252  1.7924  0.6000
  228MOL0     H30764   5.089   4.309   2.773 -0.5217  2.8747 -0.4608
  228MOL0     H30765   5.033   4.470   2.940  3.4440 -0.9893 -3.7152
  228MOL0     H30766   3.783   3.495   3.696 -1.2898 -1.6689 -1.3554
  228MOL0     H30767   3.618   3.306   3.700  3.3153  2.5201 -1.3066
  228MOL0     H30768   3.472   2.942   3.858  1.8293  4.1105  1.6207
  228MOL0     H30769   3.358   2.734   3.918 -0.5149 -0.4939 -1.5501
  228MOL0     H30770   2.955   2.789   4.083  1.0199  1.7880  3.2578
  228MOL0     H30771   2.966   2.619   4.065 -0.7741  1.7287 -1.0401
  228MOL0     H30772   2.972   2.795   4.310 -1.7930  0.2163 -0.5046
  228MOL0     H30773   3.073   2.645   4.320 -0.7960 -1.1947  1.9641
  228MOL0     H30774   2.880   2.522   4.238 -2.2092  0.0131 -0.3798
  228MOL0     H30775   2.768   2.643   4.256  0.2617 -1.0703 -1.3424
  228MOL0     H30776   2.857   2.687   4.504  0.4834 -0.6482  0.1733
  228MOL0     H30777   2.907   2.509   4.474 -1.4463 -2.4578 -3.3142
  228MOL0     H30778   2.492   2.488   4.523  1.6367  0.9277  2.5925
  228MOL0     H30779   3.075   2.950   4.162 -0.7251 -2.6549 -0.5988
  228MOL0     H30780   3.199   3.147   4.119  0.1749 -0.7921  2.1122
  229MOL0     O30781   0.377   4.627   7.051  0.2880  0.2581 -0.2191
  229MOL0     C30782   0.296   4.608   7.138  0.6995  0.9919  0.8795
  229MOL0     O30783   0.247   4.484   7.171 -0.4224 -0.9215  0.3130
  229MOL0     C30784   0.267   4.375   7.088  0.4516 -0.3242 -0.7425
  229MOL0     C30785   0.151   4.301   7.056 -0.2955  0.3117  0.2070
  229MOL0     C30786   0.150   4.190   6.970  0.3528  0.2213  0.6227
  229MOL0     C30787   0.269   4.155   6.905  0.0958  1.3317  0.5444
  229MOL0     O30788   0.291   4.065   6.799  0.5922  0.1452  0.6111
  229MOL0     C30789   0.181   3.987   6.747 -0.4961  1.0133 -0.0244
  229MOL0     C30790   0.245   3.913   6.638 -0.3793 -0.2508  0.7376
  229MOL0     C30791   0.285   4.000   6.524  0.1575 -1.2071  1.1084
  229MOL0     C30792   0.349   3.925   6.415 -0.5418  0.5381 -0.5881
  229MOL0     C30793   0.382   4.015   6.294 -0.9336  0.2020 -0.6850
  229MOL0     C30794   0.266   4.074   6.217  0.4429  0.9300  0.1797
  229MOL0     C30795   0.314   4.150   6.094  0.0101  0.2959  0.6615
  229MOL0     C30796   0.203   4.250   6.056 -0.5698  1.0992 -0.1309
  229MOL0     N30797   0.093   4.182   5.988 -0.3035 -0.2558  0.2571
  229MOL0     C30798   0.094   4.181   5.851 -0.1883  0.0323  0.6884
  229MOL0     C30799  -0.031   4.134   5.813 -0.1446  0.0001 -0.7071
  229MOL0     C30800  -0.084   4.114   5.671  0.0716 -0.3782  0.4776
  229MOL0     C30801  -0.020   3.996   5.592 -0.7289 -0.3629  0.0459
  229MOL0     C30802  -0.011   3.866   5.676  1.3695 -1.1729 -0.4760
  229MOL0     C30803   0.058   3.743   5.614  0.7443  0.0208 -0.7506
  229MOL0     O30804   0.085   3.776   5.474 -0.0852 -0.0414 -1.1665
  229MOL0     C30805   0.173   3.683   5.425 -0.4127 -0.5409 -0.2932
  229MOL0     C30806   0.278   3.737   5.357  0.8244  0.0529  0.7423
  229MOL0     C30807   0.364   3.644   5.287  0.0824 -0.8833 -0.4012
  229MOL0     C30808   0.483   3.706   5.210 -0.9909  0.4130 -0.1397
  229MOL0     C30809   0.347   3.500   5.296 -0.1193 -0.3870  0.7816
  229MOL0     C30810   0.443   3.388   5.252  0.1675  0.0649  0.0611
  229MOL0     O30811   0.549   3.419   5.177  0.2973 -0.0603  0.4778
  229MOL0     C30812   0.646   3.329   5.151 -0.5304  0.0740 -0.2931
  229MOL0     C30813   0.678   3.306   5.018  0.7902 -0.3114  0.3994
  229MOL0     C30814   0.789   3.225   4.980 -0.0393  0.8361 -0.5055
  229MOL0     C30815   0.863   3.163   5.078  0.9844  0.8168 -0.3166
  229MOL0     O30816   0.972   3.089   5.061 -0.5443 -0.2062  0.4125
  229MOL0     C30817   0.990   3.012   4.936  0.5223  0.2504  0.0884
  229MOL0     C30818   1.103   2.922   4.965 -0.1166 -0.3247 -0.5802
  229MOL0     C30819   1.222   2.990   5.036  0.1815 -0.2957 -0.4145
  229MOL0     C30820   1.292   3.092   4.939 -1.0897  1.2541  0.4707
  229MOL0     C30821   1.365   3.205   5.005 -0.1150  0.2498  0.1113
  229MOL0     C30822   1.463   3.139   5.115 -0.9956 -0.2941  0.2813
  229MOL0     C30823   1.409   3.140   5.259 -0.8326  0.1609 -0.2167
  229MOL0     C30824   1.532   3.126   5.354  0.3161 -0.3684 -0.2059
  229MOL0    Cl30825   1.640   2.988   5.320  0.1460 -0.0950  0.6957
  229MOL0     C30826   0.815   3.164   5.218  0.5904 -0.6900 -0.4016
  229MOL0     C30827   0.721   3.260   5.252  0.6022  0.1115  0.2249
  229MOL0     O30828   0.410   3.282   5.296  0.5088 -0.2094  0.5067
  229MOL0     C30829   0.234   3.456   5.366  0.0014  1.0435  1.1771
  229MOL0     C30830   0.152   3.550   5.417 -0.0221  0.4503 -0.1644
  229MOL0     N30831  -0.103   4.122   5.931  0.6833 -0.8377  0.2214
  229MOL0     N30832  -0.030   4.152   6.031  0.9458 -0.9106 -0.4406
  229MOL0     C30833   0.388   4.227   6.935 -0.6189 -0.7114 -0.7603
  229MOL0     C30834   0.390   4.330   7.028  0.0624  0.6626  0.1750
  229MOL0     C30835   0.292   4.709   7.242  0.3223 -0.2527 -0.6848
  229MOL0     C30836   0.218   4.691   7.356  0.1406  0.4567 -0.6203
  229MOL0     C30837   0.217   4.792   7.456 -0.3245  0.4002 -0.4886
  229MOL0     C30838   0.273   4.917   7.439  0.4943  0.4124 -0.1863
  229MOL0     O30839   0.247   5.011   7.530  0.0849 -0.0037 -0.9715
  229MOL0     C30840   0.143   5.102   7.491  0.2225  0.0053 -0.1026
  229MOL0     C30841   0.109   5.188   7.612  0.4157  0.3252  0.0196
  229MOL0     C30842   0.190   5.307   7.659 -0.2314  0.0388 -0.2171
  229MOL0     C30843   0.169   5.344   7.809 -0.7016 -0.0053 -0.1350
  229MOL0     C30844   0.254   5.440   7.865 -0.3106 -0.2525 -0.1433
  229MOL0     C30845   0.294   5.537   7.923  0.0019  0.3820  0.7224
  229MOL0     C30846   0.342   4.940   7.320 -1.1679 -0.0514 -0.5237
  229MOL0     C30847   0.352   4.838   7.225 -0.1074  0.7601 -0.4105
  229MOL0     H30848   0.055   4.334   7.094 -1.7223 -0.5489 -2.4293
  229MOL0     H30849   0.057   4.142   6.943  2.4481 -3.3019 -1.0572
  229MOL0     H30850   0.143   3.922   6.826  2.0055  1.3338  1.5700
  229MOL0     H30851   0.102   4.053   6.711  0.2119  1.6401 -0.4667
  229MOL0     H30852   0.330   3.851   6.671 -0.7130 -1.0094  0.1977
  229MOL0     H30853   0.177   3.832   6.611 -0.5341 -0.1340  0.7784
  229MOL0     H30854   0.197   4.062   6.503 -0.8508 -2.2804  1.9943
  229MOL0     H30855   0.354   4.080   6.552 -0.5533 -0.0917 -0.2284
  229MOL0     H30856   0.440   3.882   6.456 -1.1955  1.4026  1.9502
  229MOL0     H30857   0.278   3.850   6.378 -0.9872  0.8597 -0.3891
  229MOL0     H30858   0.439   4.103   6.325  1.3245 -0.3765 -2.9760
  229MOL0     H30859   0.449   3.960   6.228 -1.5526  0.3316 -1.4377
  229MOL0     H30860   0.216   3.982   6.184  2.1393 -0.2869  0.8909
  229MOL0     H30861   0.197   4.133   6.278 -4.9204 -2.8370 -1.4165
  229MOL0     H30862   0.412   4.196   6.107  2.5420 -2.9807 -3.9790
  229MOL0     H30863   0.329   4.073   6.018  0.9213 -1.4518  2.5351
  229MOL0     H30864   0.251   4.321   5.988  0.6768  0.5887  0.1888
  229MOL0     H30865   0.166   4.305   6.142  1.3632  1.2517  0.6659
  229MOL0     H30866   0.161   4.213   5.771 -2.7384  2.8069 -0.5330
  229MOL0     H30867  -0.193   4.112   5.675  0.0779 -0.6166  0.5395
  229MOL0     H30868  -0.057   4.199   5.608 -1.0431 -1.2091 -1.1692
  229MOL0     H30869   0.080   4.033   5.569 -0.2345 -1.0331  1.0452
  229MOL0     H30870  -0.072   3.979   5.497 -2.6277 -2.9901  1.4067
  229MOL0     H30871  -0.115   3.846   5.704  1.0156  0.7418 -0.2990
  229MOL0     H30872   0.038   3.899   5.768 -0.6355  4.8112 -1.1186
  229MOL0     H30873  -0.012   3.659   5.617 -1.9285  2.1096  0.2603
  229MOL0     H30874   0.138   3.719   5.684  0.4859 -2.0154 -1.0916
  229MOL0     H30875   0.285   3.845   5.346 -0.4817 -0.0714 -2.3111
  229MOL0     H30876   0.473   3.814   5.196 -0.4031  0.4171 -0.5539
  229MOL0     H30877   0.583   3.679   5.243 -1.6677 -1.4914  0.5048
  229MOL0     H30878   0.486   3.667   5.108  2.5560  2.9709 -1.2247
  229MOL0     H30879   0.622   3.362   4.943  2.4491 -1.5599 -1.9307
  229MOL0     H30880   0.822   3.232   4.877  1.7432  0.2771 -0.0171
  229MOL0     H30881   0.900   2.953   4.916  0.4222  0.4284  0.0072
  229MOL0     H30882   1.005   3.071   4.845 -0.1537 -0.1864 -0.3096
  229MOL0     H30883   1.069   2.829   5.011 -1.1321  0.7965  1.0477
  229MOL0     H30884   1.148   2.896   4.869  0.5094 -0.1172 -0.3478
  229MOL0     H30885   1.287   2.908   5.069  1.3687  1.8338  3.0414
  229MOL0     H30886   1.184   3.035   5.128 -1.5525 -2.9751  0.2677
  229MOL0     H30887   1.367   3.044   4.875 -2.4878 -0.6995  0.1890
  229MOL0     H30888   1.227   3.125   4.858  2.0307  0.7918 -2.4703
  229MOL0     H30889   1.294   3.276   5.049  1.8173  1.2001  1.8546
  229MOL0     H30890   1.410   3.262   4.924 -1.6592  1.9020  0.3582
  229MOL0     H30891   1.495   3.038   5.085  1.6985 -0.4081  3.0572
  229MOL0     H30892   1.548   3.208   5.117 -0.6005 -0.7163 -1.1566
  229MOL0     H30893   1.343   3.055   5.278  1.9415 -2.4562 -1.4475
  229MOL0     H30894   1.365   3.239   5.272 -0.6017  0.4952 -1.7472
  229MOL0     H30895   1.494   3.121   5.456 -0.2592  1.6096 -0.2823
  229MOL0     H30896   1.584   3.222   5.348 -5.0269  3.0596  1.8137
  229MOL0     H30897   0.873   3.107   5.289 -3.1731 -1.6960  2.1453
  229MOL0     H30898   0.701   3.278   5.357 -4.2485 -4.2700  0.4632
  229MOL0     H30899   0.208   3.350   5.368  2.2700  0.3724 -0.3985
  229MOL0     H30900   0.056   3.527   5.462 -0.7020  0.5749 -1.4762
  229MOL0     H30901   0.476   4.211   6.873 -0.3124 -0.6394 -0.3507
  229MOL0     H30902   0.484   4.382   7.043  1.5254 -1.7069 -0.1934
  229MOL0     H30903   0.171   4.598   7.385 -2.8602  2.5886  2.0356
  229MOL0     H30904   0.176   4.763   7.552  0.3622  0.4797 -0.1605
  229MOL0     H30905   0.179   5.164   7.408  1.6439  0.4850  0.8498
  229MOL0     H30906   0.048   5.060   7.455 -0.1460 -1.3287  2.2410
  229MOL0     H30907   0.099   5.117   7.694 -1.3528 -2.0528 -2.0765
  229MOL0     H30908   0.008   5.223   7.588  0.1654 -0.5810 -0.3241
  229MOL0     H30909   0.171   5.398   7.602 -1.8073  0.1130  0.3994
  229MOL0     H30910   0.294   5.279   7.638 -0.8001 -1.7685 -0.8169
  229MOL0     H30911   0.152   5.251   7.864 -4.0424  0.4548 -0.2288
  229MOL0     H30912   0.072   5.393   7.807  0.1587  1.8781 -3.5136
  229MOL0     H30913   0.354   5.599   7.986  1.6470  0.1593 -0.5517
  229MOL0     H30914   0.379   5.038   7.293 -0.7931 -0.5742 -2.0190
  229MOL0     H30915   0.393   4.874   7.131 -0.3835  2.4695  0.0771
  230MOL0     O30916   7.035   1.728  10.685 -0.2653 -0.3679 -0.4636
  230MOL0     C30917   6.935   1.674  10.722 -0.3481  0.1145  0.3699
  230MOL0     O30918   6.817   1.740  10.767  0.3169 -0.1626  0.5393
  230MOL0     C30919   6.801   1.874  10.781  0.5125 -0.5614  0.0601
  230MOL0     C30920   6.831   1.949  10.894 -0.2920  1.3932  0.1231
  230MOL0     C30921   6.807   2.079  10.908  0.4063  0.2128 -0.6783
  230MOL0     C30922   6.732   2.148  10.809 -0.7654 -0.0537 -0.6140
  230MOL0     O30923   6.700   2.286  10.818 -0.0468  0.2044  1.4904
  230MOL0     C30924   6.765   2.375  10.905  0.2072  0.5723  0.9882
  230MOL0     C30925   6.725   2.516  10.858 -0.2664  1.1601 -0.1539
  230MOL0     C30926   6.770   2.632  10.949  0.6291  0.0502 -0.8063
  230MOL0     C30927   6.685   2.761  10.933  0.0916 -0.3471  1.2511
  230MOL0     C30928   6.739   2.879  11.002  0.3749  0.0502  0.5729
  230MOL0     C30929   6.631   2.983  11.000  0.2128 -0.2065 -0.1798
  230MOL0     C30930   6.648   3.092  11.111  0.5724  0.1946 -0.1371
  230MOL0     C30931   6.731   3.216  11.062  0.4136  0.6247 -0.6622
  230MOL0     N30932   6.740   3.327  11.152  0.4935 -0.0590 -0.6643
  230MOL0     C30933   6.744   3.335  11.294  0.3491  0.3589  0.1580
  230MOL0     C30934   6.732   3.468  11.316 -0.3599 -0.2065 -0.3866
  230MOL0     C30935   6.726   3.534  11.450 -0.7691 -0.1271 -0.1611
  230MOL0     C30936   6.627   3.646  11.436  0.0160  0.5032 -0.5640
  230MOL0     C30937   6.589   3.699  11.575 -0.1348 -0.9799  0.0330
  230MOL0     C30938   6.714   3.737  11.655  0.7812 -0.7275  0.3496
  230MOL0     O30939   6.678   3.749  11.794  0.0021  0.5852  0.7398
  230MOL0     C30940   6.626   3.874  11.833 -0.3148 -0.1025 -0.0096
  230MOL0     C30941   6.696   3.999  11.817  0.6513 -0.2846 -0.2515
  230MOL0     C30942   6.664   4.120  11.873 -0.0088  1.2490 -0.4608
  230MOL0     C30943   6.783   4.213  11.877  0.6168  0.1869  0.0260
  230MOL0     C30944   6.548   4.117  11.955 -0.2139  1.0106  0.3887
  230MOL0     C30945   6.507   4.226  12.041 -0.5886  0.4406  0.7642
  230MOL0     O30946   6.381   4.217  12.101  0.1436  0.3714  0.2168
  230MOL0     C30947   6.313   4.317  12.176  0.4638  0.0569  0.5512
  230MOL0     C30948   6.359   4.449  12.207  0.2901  0.0749 -0.5047
  230MOL0     C30949   6.293   4.538  12.288 -0.5771 -0.4540 -0.6285
  230MOL0     C30950   6.173   4.502  12.339  0.2192  0.4999  0.3535
  230MOL0     O30951   6.122   4.592  12.426  0.2121  0.2989 -1.4677
  230MOL0     C30952   5.975   4.599  12.454  0.3525 -0.2130  0.6943
  230MOL0     C30953   5.930   4.717  12.547  0.3518 -0.6002  0.4482
  230MOL0     C30954   5.778   4.717  12.588 -0.6433  0.2737 -0.6437
  230MOL0     C30955   5.739   4.837  12.683  0.6137 -0.1371 -0.6972
  230MOL0     C30956   5.827   4.894  12.801 -0.0617  0.2480  0.7571
  230MOL0     C30957   5.774   5.003  12.894  0.2784  0.9038 -0.2585
  230MOL0     C30958   5.726   5.126  12.819  0.1451 -0.4884  0.6801
  230MOL0     C30959   5.720   5.251  12.915  0.5297  1.1435 -0.2001
  230MOL0    Cl30960   5.677   5.403  12.819  0.1641 -0.3941 -0.7942
  230MOL0     C30961   6.124   4.376  12.314  1.5691  0.0300  0.9761
  230MOL0     C30962   6.182   4.291  12.224  0.2673 -0.3995  0.6974
  230MOL0     O30963   6.582   4.321  12.059 -0.2421  0.3616 -0.3131
  230MOL0     C30964   6.464   4.000  11.959  0.0895 -0.7644 -0.3179
  230MOL0     C30965   6.502   3.887  11.893  0.7494  0.7114  0.1466
  230MOL0     N30966   6.732   3.542  11.199 -0.6992  0.0711  0.4445
  230MOL0     N30967   6.728   3.452  11.107  0.9806  0.0763  0.6296
  230MOL0     C30968   6.695   2.076  10.700 -0.3928 -0.3822  0.1006
  230MOL0     C30969   6.732   1.947  10.677 -0.2697 -0.3351 -0.2012
  230MOL0     C30970   6.943   1.528  10.718 -0.8047 -0.6316 -0.0887
  230MOL0     C30971   7.069   1.463  10.745 -0.2174 -0.4255 -0.4595
  230MOL0     C30972   7.084   1.325  10.748 -0.4485  0.2662 -0.0726
  230MOL0     C30973   6.969   1.245  10.728  0.1940  0.3800  0.3584
  230MOL0     O30974   6.994   1.111  10.732  0.5077 -0.6632 -0.5835
  230MOL0     C30975   6.873   1.034  10.764  0.0383 -0.2194 -0.1817
  230MOL0     C30976   6.894   0.889  10.782 -0.3415  0.0401  0.7729
  230MOL0     C30977   6.993   0.855  10.891 -0.4635  0.1001 -0.2210
  230MOL0     C30978   7.006   0.706  10.911 -1.1902  0.0167 -0.8513
  230MOL0     C30979   7.084   0.652  10.801 -0.4534 -0.5121  1.0215
  230MOL0     C30980   7.159   0.619  10.707 -0.2271 -0.9812 -1.1789
  230MOL0     C30981   6.844   1.310  10.717  0.5451  0.1654  0.4931
  230MOL0     C30982   6.833   1.447  10.717 -0.4278 -0.9110 -0.8509
  230MOL0     H30983   6.877   1.902  10.981 -2.4725 -1.7662 -0.2556
  230MOL0     H30984   6.853   2.122  10.996 -0.5641  0.8755 -0.4863
  230MOL0     H30985   6.731   2.351  11.006 -2.8241 -1.4318 -0.3485
  230MOL0     H30986   6.871   2.362  10.880 -0.1728 -0.0982 -0.4070
  230MOL0     H30987   6.755   2.520  10.753 -4.7900 -2.4333 -1.9346
  230MOL0     H30988   6.616   2.529  10.859 -0.3336  0.6352 -0.2147
  230MOL0     H30989   6.771   2.588  11.050  1.9175 -0.3951 -0.9885
  230MOL0     H30990   6.877   2.651  10.934  0.6384  0.9407  0.2343
  230MOL0     H30991   6.671   2.786  10.827 -0.2699 -2.5139  0.7501
  230MOL0     H30992   6.583   2.746  10.971 -0.1370  2.0363  1.7841
  230MOL0     H30993   6.763   2.856  11.107  0.1629  0.9826  0.8302
  230MOL0     H30994   6.822   2.929  10.953 -0.5830  2.1945  1.0036
  230MOL0     H30995   6.609   3.031  10.904  1.8012 -1.7907 -1.3952
  230MOL0     H30996   6.536   2.937  11.032 -0.2095  1.7477  1.6265
  230MOL0     H30997   6.550   3.115  11.153  0.8607  1.2551  0.0060
  230MOL0     H30998   6.716   3.053  11.188 -0.7481  0.9563  1.4908
  230MOL0     H30999   6.698   3.250  10.963  1.9036 -1.5388 -2.0031
  230MOL0     H31000   6.835   3.188  11.045  0.3236 -0.1210 -0.0386
  230MOL0     H31001   6.740   3.259  11.372 -3.9462 -2.7158 -2.6066
  230MOL0     H31002   6.711   3.470  11.537  2.3661 -0.0000  0.6219
  230MOL0     H31003   6.824   3.581  11.465 -0.3624 -0.5362 -1.3755
  230MOL0     H31004   6.536   3.610  11.386  0.4444 -1.6146  0.0459
  230MOL0     H31005   6.671   3.732  11.385 -0.6366  1.6029  0.6629
  230MOL0     H31006   6.546   3.614  11.629  1.8155 -1.3810  1.0230
  230MOL0     H31007   6.516   3.781  11.577  0.7068 -0.0903 -2.4886
  230MOL0     H31008   6.742   3.832  11.610 -1.5831 -1.0309 -1.9767
  230MOL0     H31009   6.797   3.666  11.644  1.4440 -0.2536  2.0003
  230MOL0     H31010   6.794   3.991  11.771 -0.7725 -1.4208 -3.3816
  230MOL0     H31011   6.773   4.302  11.814 -0.0840  0.4319  0.4712
  230MOL0     H31012   6.804   4.261  11.973 -1.7709  1.4829 -0.0059
  230MOL0     H31013   6.876   4.161  11.851 -0.9451 -2.0901 -1.3770
  230MOL0     H31014   6.449   4.479  12.155  3.5340 -3.9372  2.2180
  230MOL0     H31015   6.340   4.635  12.304  0.3098 -1.1198  1.0714
  230MOL0     H31016   5.934   4.629  12.357 -0.0121  5.7996  2.3036
  230MOL0     H31017   5.919   4.507  12.476 -0.7299  0.8904  2.8915
  230MOL0     H31018   5.992   4.713  12.638  1.9485  3.8459 -0.2015
  230MOL0     H31019   5.946   4.810  12.492 -3.0320  0.5106  1.0952
  230MOL0     H31020   5.756   4.623  12.639 -1.4440 -0.0149 -1.4836
  230MOL0     H31021   5.716   4.717  12.498 -0.1353  1.9891 -1.0238
  230MOL0     H31022   5.725   4.924  12.618  2.9684  0.4919 -0.4628
  230MOL0     H31023   5.645   4.818  12.735  1.9341  3.6853  3.8104
  230MOL0     H31024   5.924   4.926  12.762 -0.8803  1.5275 -0.3161
  230MOL0     H31025   5.855   4.812  12.868  2.2819  0.2352 -0.1126
  230MOL0     H31026   5.688   4.971  12.954  1.3941  1.9125  2.0189
  230MOL0     H31027   5.853   5.017  12.968  2.1911 -1.1839 -1.7514
  230MOL0     H31028   5.627   5.111  12.776 -0.5460  3.0217  0.7835
  230MOL0     H31029   5.785   5.154  12.732 -1.7013  0.2657 -0.3687
  230MOL0     H31030   5.822   5.269  12.950  1.2285  1.1783 -2.1525
  230MOL0     H31031   5.647   5.227  12.994  2.0672 -1.5371  0.5438
  230MOL0     H31032   6.045   4.333  12.374  0.5615  0.9947  0.3961
  230MOL0     H31033   6.128   4.203  12.192  0.9690 -0.4316 -0.4414
  230MOL0     H31034   6.376   3.989  12.021  0.2906  1.6352  0.4668
  230MOL0     H31035   6.445   3.795  11.889  4.0042 -1.4373 -2.3989
  230MOL0     H31036   6.639   2.131  10.626 -1.7356  0.2617  1.5387
  230MOL0     H31037   6.709   1.890  10.587  2.8235 -5.4630  1.8396
  230MOL0     H31038   7.148   1.536  10.751 -0.7318  0.0619  0.9480
  230MOL0     H31039   7.179   1.276  10.765  0.1939  0.8255 -1.7548
  230MOL0     H31040   6.836   1.077  10.857 -0.4199 -1.7606  0.3819
  230MOL0     H31041   6.799   1.059  10.687 -0.0760  0.6055  0.1912
  230MOL0     H31042   6.935   0.849  10.689  0.2056 -0.4419  1.2181
  230MOL0     H31043   6.798   0.842  10.807  0.7572 -1.2868  2.7835
  230MOL0     H31044   6.957   0.907  10.980 -0.8416 -0.9933  0.2704
  230MOL0     H31045   7.086   0.901  10.858 -2.5537  4.9646 -0.2157
  230MOL0     H31046   6.909   0.656  10.923 -0.6143 -0.9334  0.1545
  230MOL0     H31047   7.062   0.681  11.002  0.2183  3.4198 -0.6474
  230MOL0     H31048   7.211   0.617  10.612 -1.3302 -2.1558 -1.7898
  230MOL0     H31049   6.753   1.251  10.712  0.7563 -0.3572  2.2277
  230MOL0     H31050   6.731   1.483  10.715  0.1562  1.0010  0.7386
  231MOL0     O31051   2.107   4.499   2.124 -0.4297  0.8684  0.0622
  231MOL0     C31052   2.135   4.590   2.194  0.0729  0.6643 -0.2360
  231MOL0     O31053   2.064   4.710   2.224  0.4754 -0.0235  0.2042
  231MOL0     C31054   1.939   4.738   2.180  0.0114 -0.9592  0.1505
  231MOL0     C31055   1.909   4.872   2.146 -0.5472 -0.2714  0.5276
  231MOL0     C31056   1.778   4.898   2.091 -0.2856 -0.2863 -0.4024
  231MOL0     C31057   1.688   4.793   2.069  0.3917  0.3987  0.1300
  231MOL0     O31058   1.567   4.834   2.015 -0.6371  0.5180 -0.0585
  231MOL0     C31059   1.448   4.794   2.080 -0.4958  0.7779  0.3814
  231MOL0     C31060   1.345   4.836   1.979 -0.6262  0.2034 -1.1379
  231MOL0     C31061   1.225   4.754   1.985 -0.1872 -0.2592 -0.0137
  231MOL0     C31062   1.153   4.777   2.121 -0.3672 -0.8029 -0.6247
  231MOL0     C31063   1.018   4.715   2.119  0.2954 -0.0503  0.3870
  231MOL0     C31064   1.031   4.556   2.143 -0.4744  0.2752  0.1670
  231MOL0     C31065   0.893   4.493   2.187  0.6304 -0.4989  0.4974
  231MOL0     C31066   0.891   4.340   2.225 -0.8287 -0.0154  0.1938
  231MOL0     N31067   0.927   4.256   2.111 -0.1449  0.2389  0.1718
  231MOL0     C31068   0.967   4.129   2.121 -0.3750 -0.2428 -0.1276
  231MOL0     C31069   1.024   4.095   2.002 -0.1302  0.5754  0.3888
  231MOL0     C31070   1.094   3.968   1.954 -1.1717  0.4590  0.2016
  231MOL0     C31071   1.244   3.990   1.962  0.3835  0.2497  0.0620
  231MOL0     C31072   1.290   3.945   2.103  1.1876  0.1412 -0.4634
  231MOL0     C31073   1.437   3.952   2.150 -0.4057 -0.1468  0.1112
  231MOL0     O31074   1.439   3.928   2.291  1.1780  0.6455 -0.0456
  231MOL0     C31075   1.558   3.926   2.364  1.6588 -0.4302 -0.4935
  231MOL0     C31076   1.666   3.856   2.318 -0.8878 -0.0338 -0.3943
  231MOL0     C31077   1.782   3.842   2.395  0.1774 -0.0863 -0.4134
  231MOL0     C31078   1.884   3.763   2.335  0.1320  0.7367  0.1422
  231MOL0     C31079   1.792   3.895   2.528 -0.0332 -0.0380  0.4105
  231MOL0     C31080   1.915   3.909   2.620  0.3855  0.1705 -0.1853
  231MOL0     O31081   1.881   3.966   2.738  1.0503 -0.6275 -0.6509
  231MOL0     C31082   1.973   3.963   2.837 -0.0729  0.6792  0.3675
  231MOL0     C31083   2.042   4.083   2.867 -1.7704 -0.2071  0.1021
  231MOL0     C31084   2.141   4.069   2.971 -0.2687 -0.2516  0.6329
  231MOL0     C31085   2.156   3.952   3.053  0.8798  0.6129 -0.3219
  231MOL0     O31086   2.245   3.935   3.163  0.4855  0.3554  0.0260
  231MOL0     C31087   2.236   4.052   3.253  0.0280 -0.9260 -0.4184
  231MOL0     C31088   2.352   4.151   3.222  0.2616 -0.0685  0.0803
  231MOL0     C31089   2.381   4.233   3.350 -0.1438  0.0971 -0.4206
  231MOL0     C31090   2.524   4.294   3.320 -0.1934 -0.1271 -0.1427
  231MOL0     C31091   2.569   4.381   3.443 -0.1315 -0.5606 -0.0720
  231MOL0     C31092   2.721   4.408   3.432 -0.3542 -0.5878  0.6517
  231MOL0     C31093   2.780   4.470   3.559  0.4204 -0.4792  0.7429
  231MOL0     C31094   2.890   4.562   3.533 -0.5922  0.1769  1.0212
  231MOL0    Cl31095   3.037   4.484   3.470 -0.1597 -0.1843  0.0668
  231MOL0     C31096   2.084   3.842   3.018  0.2952  0.3040  0.0307
  231MOL0     C31097   2.001   3.850   2.905  0.0206  0.5470  0.3017
  231MOL0     O31098   2.028   3.877   2.583 -0.2374  0.2290 -0.0655
  231MOL0     C31099   1.669   3.955   2.578 -0.1740 -0.2057  0.0049
  231MOL0     C31100   1.557   3.966   2.496  0.1246 -0.4139 -0.8646
  231MOL0     N31101   0.994   4.189   1.909  0.4056  0.7168 -0.2226
  231MOL0     N31102   0.939   4.290   1.977  0.2687 -0.1312 -0.3169
  231MOL0     C31103   1.715   4.660   2.118 -1.0306  0.5148  0.2223
  231MOL0     C31104   1.842   4.625   2.166 -0.2388 -0.2970 -0.0990
  231MOL0     C31105   2.253   4.586   2.272 -0.0183  0.1315 -0.4058
  231MOL0     C31106   2.295   4.691   2.360 -0.5101  1.5250 -0.3655
  231MOL0     C31107   2.431   4.690   2.410  1.1280  0.0670 -0.4438
  231MOL0     C31108   2.513   4.581   2.395 -0.0100  1.1371  0.8397
  231MOL0     O31109   2.633   4.563   2.460 -0.1753  0.4130 -0.3870
  231MOL0     C31110   2.699   4.668   2.534  0.5312 -1.0953  0.3464
  231MOL0     C31111   2.830   4.704   2.450  0.0497  0.4650  0.2745
  231MOL0     C31112   2.927   4.794   2.522 -0.3168  0.0174  1.0066
  231MOL0     C31113   3.045   4.829   2.437 -0.6731  0.0340 -0.6150
  231MOL0     C31114   3.126   4.921   2.507 -0.3725 -0.1291 -0.1814
  231MOL0     C31115   3.186   5.013   2.555 -0.2978 -0.5751  0.9438
  231MOL0     C31116   2.470   4.477   2.314 -0.6780 -0.0234 -1.1727
  231MOL0     C31117   2.352   4.487   2.245  0.1202 -0.7002 -0.2384
  231MOL0     H31118   1.976   4.955   2.159 -0.3885 -0.7764  3.7177
  231MOL0     H31119   1.764   5.004   2.072  2.5410  1.0092  3.4051
  231MOL0     H31120   1.448   4.685   2.088  2.7447  0.6182 -0.2372
  231MOL0     H31121   1.433   4.828   2.183 -3.0702 -2.4222  1.2463
  231MOL0     H31122   1.305   4.938   1.981 -3.4306 -0.8137 -1.3419
  231MOL0     H31123   1.391   4.813   1.882 -0.7861 -0.0448 -1.1544
  231MOL0     H31124   1.164   4.783   1.899  0.6315  0.0738 -0.4874
  231MOL0     H31125   1.252   4.650   1.967  1.7619  0.3739 -0.9319
  231MOL0     H31126   1.204   4.745   2.211 -0.5317 -0.9747 -0.5924
  231MOL0     H31127   1.141   4.886   2.125 -1.9795 -0.9697 -0.1081
  231MOL0     H31128   0.951   4.743   2.201 -2.0887 -4.0430  0.1035
  231MOL0     H31129   0.968   4.750   2.028  4.0757  0.5926 -1.6220
  231MOL0     H31130   1.052   4.514   2.044 -3.6127  2.2770 -1.5134
  231MOL0     H31131   1.111   4.524   2.209 -2.5017 -3.5560  1.0436
  231MOL0     H31132   0.859   4.539   2.281  2.1103  0.0261  0.8007
  231MOL0     H31133   0.811   4.517   2.119 -1.8196  0.8012  3.6439
  231MOL0     H31134   0.792   4.305   2.257 -0.9596 -0.1700 -0.3806
  231MOL0     H31135   0.976   4.328   2.293  1.9157  1.7391 -2.6782
  231MOL0     H31136   0.966   4.067   2.210  1.1138 -0.9043 -0.5446
  231MOL0     H31137   1.058   3.887   2.018 -1.4012 -2.4964 -3.3196
  231MOL0     H31138   1.070   3.944   1.850  0.9013 -0.0142 -0.2188
  231MOL0     H31139   1.264   4.097   1.948  2.8383  0.0007  1.2768
  231MOL0     H31140   1.292   3.930   1.885 -2.5306 -2.5397  0.2190
  231MOL0     H31141   1.272   3.837   2.101  2.0467 -0.0082 -1.9591
  231MOL0     H31142   1.222   4.002   2.167 -0.3597 -0.2892 -1.6592
  231MOL0     H31143   1.482   4.045   2.113  0.4422  0.5093  2.6003
  231MOL0     H31144   1.492   3.867   2.108 -0.3464 -0.5770  1.0196
  231MOL0     H31145   1.666   3.820   2.215 -0.6374 -0.1347 -0.3612
  231MOL0     H31146   1.843   3.690   2.264 -2.1841  2.4315 -0.3906
  231MOL0     H31147   1.939   3.837   2.276 -1.8017  1.4600 -0.8289
  231MOL0     H31148   1.945   3.714   2.412 -0.7308  1.5640  1.3753
  231MOL0     H31149   2.021   4.177   2.816  0.0851  1.8305  2.7739
  231MOL0     H31150   2.198   4.160   2.988  0.4102 -0.8168  1.4815
  231MOL0     H31151   2.142   4.107   3.245 -0.2169 -1.3328 -0.3291
  231MOL0     H31152   2.244   4.015   3.356 -0.6481  0.1709  0.0500
  231MOL0     H31153   2.438   4.090   3.193 -0.6128 -1.1066 -0.4166
  231MOL0     H31154   2.333   4.218   3.138 -2.2957 -0.3709  0.3251
  231MOL0     H31155   2.369   4.175   3.441  2.7925  2.9601  2.0292
  231MOL0     H31156   2.320   4.323   3.357 -0.3260 -0.0703  0.1063
  231MOL0     H31157   2.595   4.211   3.314  2.5820  2.0629  0.3937
  231MOL0     H31158   2.536   4.343   3.223 -0.4086 -1.9780 -1.1463
  231MOL0     H31159   2.547   4.338   3.542 -0.7000  0.8589  0.4476
  231MOL0     H31160   2.526   4.481   3.440 -1.0145 -0.9249  0.1090
  231MOL0     H31161   2.776   4.315   3.417  0.1048 -0.3760  1.0068
  231MOL0     H31162   2.748   4.474   3.350  1.1742  0.5076  1.9744
  231MOL0     H31163   2.815   4.391   3.627 -3.3409 -2.2476  0.9098
  231MOL0     H31164   2.714   4.530   3.622 -1.6714  0.7313 -2.3739
  231MOL0     H31165   2.904   4.620   3.625 -1.4674 -0.1435  1.3740
  231MOL0     H31166   2.858   4.622   3.447  3.8471 -0.9259 -1.6967
  231MOL0     H31167   2.093   3.752   3.079 -0.0075 -1.0015 -1.7504
  231MOL0     H31168   1.963   3.751   2.882  0.9975 -0.4087  2.4984
  231MOL0     H31169   1.664   3.996   2.679  1.9090 -2.7396  1.2249
  231MOL0     H31170   1.472   4.017   2.541  0.4608  0.8243 -1.5720
  231MOL0     H31171   1.648   4.576   2.098 -1.5832  1.0745 -0.3213
  231MOL0     H31172   1.869   4.524   2.196  2.3779 -0.1525 -1.6956
  231MOL0     H31173   2.225   4.770   2.386  1.4336  3.2067  0.0996
  231MOL0     H31174   2.449   4.771   2.480  0.4062 -0.4229  0.3244
  231MOL0     H31175   2.637   4.757   2.550  0.2452 -1.4556  1.3593
  231MOL0     H31176   2.721   4.630   2.635 -1.1725 -1.4913  0.6015
  231MOL0     H31177   2.793   4.761   2.365  0.1807  1.4623  0.8628
  231MOL0     H31178   2.881   4.615   2.412 -0.8412 -0.1435  0.4725
  231MOL0     H31179   2.954   4.742   2.615 -0.4827 -0.3696  0.8400
  231MOL0     H31180   2.877   4.889   2.544  2.5203  1.8851 -0.1046
  231MOL0     H31181   3.024   4.861   2.334 -0.8335 -1.6757 -1.1485
  231MOL0     H31182   3.116   4.747   2.425 -1.2264 -0.6274  0.5331
  231MOL0     H31183   3.237   5.088   2.612  0.9448 -2.2223  2.1087
  231MOL0     H31184   2.533   4.391   2.293 -2.6246 -2.3412  1.7162
  231MOL0     H31185   2.354   4.411   2.167  1.2899 -0.4323 -0.5001
  232MOL0     O31186   0.925   5.086   4.239  0.5531  0.2887 -0.3701
  232MOL0     C31187   0.861   5.091   4.135 -0.3158 -0.4796 -0.0292
  232MOL0     O31188   0.889   5.026   4.020 -0.1295 -0.0127  1.0536
  232MOL0     C31189   0.986   4.925   4.028 -0.2593 -0.0698 -0.0549
  232MOL0     C31190   0.948   4.801   4.069 -0.1312  0.6209 -0.0975
  232MOL0     C31191   1.033   4.689   4.048  0.5125 -0.1823 -1.1234
  232MOL0     C31192   1.166   4.712   4.009 -0.5253 -0.1350 -0.9408
  232MOL0     O31193   1.258   4.608   4.003 -0.6631 -0.6259  0.2164
  232MOL0     C31194   1.231   4.490   4.070  0.9537  0.5860 -0.9225
  232MOL0     C31195   1.148   4.395   3.987  0.5510  0.8381 -0.0295
  232MOL0     C31196   1.228   4.359   3.870  0.5315 -0.1600  0.1786
  232MOL0     C31197   1.151   4.257   3.783  0.0569 -0.3391  0.0212
  232MOL0     C31198   1.202   4.280   3.635 -0.6324  0.0031 -1.1472
  232MOL0     C31199   1.119   4.195   3.537  0.3014 -0.8931  0.2386
  232MOL0     C31200   0.968   4.208   3.539  0.4139  0.3106 -0.2995
  232MOL0     C31201   0.882   4.172   3.413 -0.1326  0.2082 -0.8192
  232MOL0     N31202   0.901   4.287   3.328 -0.4839 -1.1512  0.3211
  232MOL0     C31203   0.821   4.399   3.306  0.7391  0.6405 -0.2276
  232MOL0     C31204   0.893   4.482   3.224 -1.4025 -0.1786  0.2701
  232MOL0     C31205   0.862   4.620   3.187  0.6956 -0.8414 -0.1812
  232MOL0     C31206   0.918   4.649   3.049 -0.5150 -0.1659  0.3510
  232MOL0     C31207   0.876   4.796   3.001 -0.7160 -0.0936 -0.0357
  232MOL0     C31208   0.940   4.905   3.077  0.0493 -0.2109  0.3192
  232MOL0     O31209   0.933   5.026   2.998 -0.1195 -0.7772 -0.2601
  232MOL0     C31210   1.047   5.082   2.935  0.3343  1.0843  0.6888
  232MOL0     C31211   1.010   5.206   2.880 -0.3513  0.3585  0.1480
  232MOL0     C31212   1.106   5.287   2.831  0.4631 -0.1798  0.6511
  232MOL0     C31213   1.064   5.422   2.780 -0.0045 -0.1951 -0.4364
  232MOL0     C31214   1.237   5.244   2.816 -1.0689 -0.6500  0.3429
  232MOL0     C31215   1.356   5.332   2.768 -0.2850 -0.6512  0.3261
  232MOL0     O31216   1.342   5.473   2.769 -0.0307  0.4732  0.1705
  232MOL0     C31217   1.447   5.562   2.726  0.2023 -0.1612 -1.1400
  232MOL0     C31218   1.592   5.529   2.714  0.2714 -0.2172  0.4117
  232MOL0     C31219   1.682   5.621   2.660  0.0194 -0.6608  0.1082
  232MOL0     C31220   1.650   5.755   2.638  0.7276  0.0378 -0.7279
  232MOL0     O31221   1.740   5.849   2.602  0.3544 -0.6184 -0.0733
  232MOL0     C31222   1.875   5.824   2.633  0.3750 -0.9814  0.6385
  232MOL0     C31223   1.974   5.948   2.609 -0.7740 -0.0915 -0.1342
  232MOL0     C31224   2.123   5.910   2.623  0.6328  0.5948 -0.4247
  232MOL0     C31225   2.222   6.013   2.570 -0.4012 -0.2332 -0.2392
  232MOL0     C31226   2.368   5.974   2.604  0.2793 -0.4484 -0.5685
  232MOL0     C31227   2.447   5.945   2.468 -0.1864  0.1148 -0.6841
  232MOL0     C31228   2.595   5.919   2.496  0.6185  0.1215 -1.2973
  232MOL0     C31229   2.668   5.878   2.370  0.0421 -0.0602  0.7357
  232MOL0    Cl31230   2.845   5.911   2.394 -0.1794  0.2181  0.5265
  232MOL0     C31231   1.517   5.792   2.658  0.4162  0.2486 -0.2516
  232MOL0     C31232   1.421   5.700   2.702 -0.5810  0.8600  0.3866
  232MOL0     O31233   1.456   5.272   2.727 -0.8606 -0.6327 -0.1774
  232MOL0     C31234   1.271   5.105   2.847  0.6027  0.0894 -1.1964
  232MOL0     C31235   1.176   5.031   2.910  0.1845 -0.7477 -0.4769
  232MOL0     N31236   1.010   4.418   3.180  0.1478  0.1867 -0.2437
  232MOL0     N31237   1.005   4.306   3.244 -0.2337 -0.0062 -0.4256
  232MOL0     C31238   1.209   4.843   3.984  0.3942 -0.0742 -0.8396
  232MOL0     C31239   1.114   4.948   3.981 -0.1238  0.1062  0.4759
  232MOL0     C31240   0.730   5.165   4.131 -0.6063 -0.0953  0.6420
  232MOL0     C31241   0.702   5.240   4.239  0.0160 -0.9883  0.0616
  232MOL0     C31242   0.588   5.317   4.247  0.3487  1.0625  1.0864
  232MOL0     C31243   0.496   5.310   4.140  0.1391 -0.0078  0.3740
  232MOL0     O31244   0.381   5.388   4.124 -0.8297 -0.0440  0.6049
  232MOL0     C31245   0.347   5.462   4.241  0.4136  0.2976  0.2500
  232MOL0     C31246   0.231   5.553   4.210 -0.4288 -0.8791 -0.3955
  232MOL0     C31247   0.187   5.661   4.321 -1.5196  0.1238 -0.1329
  232MOL0     C31248   0.048   5.712   4.285  0.4130  0.9511  0.3572
  232MOL0     C31249   0.051   5.788   4.164  0.2467  0.4048  0.2291
  232MOL0     C31250   0.062   5.858   4.063 -0.2374 -0.6160  0.0395
  232MOL0     C31251   0.530   5.232   4.025 -0.3590 -0.5914  0.2977
  232MOL0     C31252   0.644   5.160   4.017 -1.4076  0.4257 -0.0666
  232MOL0     H31253   0.842   4.791   4.093 -0.2411 -0.5599 -1.0055
  232MOL0     H31254   1.000   4.594   4.089  0.3166  1.0549  1.8571
  232MOL0     H31255   1.332   4.455   4.091  0.7825  1.0218  0.7596
  232MOL0     H31256   1.194   4.498   4.173  3.2503  0.0194 -0.0005
  232MOL0     H31257   1.131   4.308   4.052 -1.8644  0.2536 -1.3249
  232MOL0     H31258   1.047   4.425   3.960  1.0988  2.5743 -0.3009
  232MOL0     H31259   1.246   4.452   3.816  0.4202 -0.5333 -0.5172
  232MOL0     H31260   1.325   4.312   3.889  1.0918  1.2911  0.9938
  232MOL0     H31261   1.171   4.155   3.819 -0.6636  0.0609  1.6468
  232MOL0     H31262   1.045   4.281   3.795 -0.1286 -1.2069  0.1685
  232MOL0     H31263   1.194   4.388   3.623 -1.7824  0.1694  0.7805
  232MOL0     H31264   1.309   4.257   3.632 -0.9429 -1.5854 -1.2424
  232MOL0     H31265   1.152   4.231   3.439 -3.4099 -0.4953 -1.0330
  232MOL0     H31266   1.148   4.090   3.542 -0.7701 -1.1275  2.3815
  232MOL0     H31267   0.936   4.148   3.624 -1.4522  1.0286 -0.4662
  232MOL0     H31268   0.948   4.311   3.570  0.6123  0.5834 -1.0501
  232MOL0     H31269   0.776   4.160   3.438 -0.0287 -2.7240 -1.4538
  232MOL0     H31270   0.918   4.072   3.386  0.3478  0.0506  0.3579
  232MOL0     H31271   0.726   4.413   3.356 -0.4580 -0.7129 -2.0143
  232MOL0     H31272   0.753   4.624   3.180  0.4736  3.0075  2.4637
  232MOL0     H31273   0.895   4.686   3.267  3.9517 -1.7693 -0.6295
  232MOL0     H31274   0.883   4.571   2.981  0.6236 -1.4446  1.1652
  232MOL0     H31275   1.025   4.627   3.046 -1.0221 -3.1235 -3.2274
  232MOL0     H31276   0.767   4.805   3.005 -0.6994  0.0257  3.8571
  232MOL0     H31277   0.906   4.800   2.896 -0.0342 -0.4405  0.1386
  232MOL0     H31278   1.041   4.873   3.104  0.2039 -0.4955 -0.5523
  232MOL0     H31279   0.877   4.918   3.165  1.2737  1.3448  1.0118
  232MOL0     H31280   0.909   5.242   2.889 -1.1715 -0.9794 -2.5096
  232MOL0     H31281   1.066   5.507   2.849 -0.4466  2.3843 -3.4001
  232MOL0     H31282   1.123   5.448   2.692 -1.8254  0.2394 -1.5758
  232MOL0     H31283   0.960   5.418   2.747  0.3897  0.4249 -1.7893
  232MOL0     H31284   1.631   5.428   2.726  2.1005 -0.1367 -3.2665
  232MOL0     H31285   1.774   5.583   2.616  0.1961  0.1895 -0.2852
  232MOL0     H31286   1.876   5.803   2.740  0.1481  1.6254  1.2319
  232MOL0     H31287   1.915   5.740   2.576  3.4779  1.3018 -0.8744
  232MOL0     H31288   1.951   6.012   2.524  1.2443  1.5312  0.4536
  232MOL0     H31289   1.970   6.019   2.693 -2.4497 -0.2557 -0.0428
  232MOL0     H31290   2.138   5.821   2.561  0.7682  0.4163 -0.1338
  232MOL0     H31291   2.148   5.878   2.724  0.0150 -0.7666 -0.6813
  232MOL0     H31292   2.217   6.023   2.461  1.2479 -0.0396 -0.3267
  232MOL0     H31293   2.192   6.104   2.622 -1.7786 -1.7936  1.8542
  232MOL0     H31294   2.377   5.887   2.669 -1.4083 -0.8322 -0.7824
  232MOL0     H31295   2.410   6.062   2.653 -1.6999  1.2814 -1.7772
  232MOL0     H31296   2.396   5.867   2.411 -1.4488  0.4591 -0.0751
  232MOL0     H31297   2.435   6.040   2.415 -2.4767  1.1378  1.4480
  232MOL0     H31298   2.616   5.846   2.575 -1.1654 -0.6358 -1.4659
  232MOL0     H31299   2.630   6.016   2.531 -0.1790 -0.0904  0.1897
  232MOL0     H31300   2.622   5.921   2.281 -2.6842 -0.8561  1.6500
  232MOL0     H31301   2.657   5.769   2.361 -2.0011  0.1843 -0.2290
  232MOL0     H31302   1.493   5.897   2.644  1.9540  0.6251 -0.2616
  232MOL0     H31303   1.328   5.755   2.714 -1.1571  0.1342 -0.5939
  232MOL0     H31304   1.365   5.057   2.823  0.3106 -2.4940  2.0470
  232MOL0     H31305   1.187   4.924   2.923 -0.8636 -0.8054  0.0321
  232MOL0     H31306   1.313   4.860   3.958 -0.0540  2.3582 -1.1911
  232MOL0     H31307   1.145   5.047   3.950 -0.1422 -0.0592 -0.0887
  232MOL0     H31308   0.773   5.246   4.321 -1.4505  0.1400  1.3188
  232MOL0     H31309   0.570   5.365   4.343  0.8471 -0.0710  1.7688
  232MOL0     H31310   0.333   5.394   4.326  0.1452  0.4090  0.2946
  232MOL0     H31311   0.433   5.526   4.262  0.9989 -0.4177  0.1036
  232MOL0     H31312   0.147   5.488   4.184  0.2555 -1.7917 -0.4024
  232MOL0     H31313   0.263   5.617   4.127 -1.1022  0.1411  0.1198
  232MOL0     H31314   0.258   5.743   4.335  0.4751 -1.1081 -2.1803
  232MOL0     H31315   0.182   5.619   4.422  1.5987  2.5218  1.1883
  232MOL0     H31316  -0.007   5.770   4.359 -0.9963 -1.4830  1.3406
  232MOL0     H31317  -0.011   5.621   4.274 -0.9918  1.6025  2.0313
  232MOL0     H31318   0.036   5.911   3.974  1.9020  0.3092 -0.1134
  232MOL0     H31319   0.464   5.220   3.940 -0.3178  0.5248  0.0903
  232MOL0     H31320   0.668   5.098   3.931  2.3937  0.2370  0.9103
  233MOL0     O31321  11.377   6.017   0.608  0.7101 -0.4368 -0.3404
  233MOL0     C31322  11.421   5.914   0.566  0.9559  0.1093 -0.2139
  233MOL0     O31323  11.356   5.830   0.477 -0.8202  0.4254  0.0032
  233MOL0     C31324  11.226   5.864   0.442  0.1610  0.5522 -0.3486
  233MOL0     C31325  11.193   5.988   0.393  0.3723  0.6183  0.9795
  233MOL0     C31326  11.063   6.023   0.347 -0.2092  0.2863  0.3355
  233MOL0     C31327  10.965   5.926   0.336 -0.4584 -0.1564  0.5614
  233MOL0     O31328  10.834   5.959   0.293  0.7635 -0.1825  0.2858
  233MOL0     C31329  10.802   6.091   0.237 -0.4886 -0.0505 -0.0489
  233MOL0     C31330  10.666   6.142   0.258  0.1016 -0.0666 -0.0440
  233MOL0     C31331  10.634   6.270   0.179 -0.6405 -0.0414 -0.0324
  233MOL0     C31332  10.475   6.285   0.182  0.3810  0.1937  0.6694
  233MOL0     C31333  10.433   6.294   0.321  0.0856 -0.1163 -0.7722
  233MOL0     C31334  10.292   6.354   0.314  0.9450  0.4619 -0.3856
  233MOL0     C31335  10.249   6.399   0.450  0.4771 -0.5412  0.2324
  233MOL0     C31336  10.101   6.405   0.437  0.2214 -0.3379  0.7944
  233MOL0     N31337  10.050   6.505   0.535 -0.1555  0.7208 -0.6876
  233MOL0     C31338  10.061   6.642   0.512  0.4869 -0.1979  0.1921
  233MOL0     C31339  10.028   6.714   0.627 -0.4234  0.3641  0.6279
  233MOL0     C31340  10.046   6.863   0.632 -0.4053 -0.2262  0.2918
  233MOL0     C31341   9.934   6.964   0.594 -0.2112 -0.5438 -0.3353
  233MOL0     C31342   9.844   6.916   0.478 -0.6381  0.8592  0.3052
  233MOL0     C31343   9.734   6.819   0.521 -0.2483  0.4141  1.1055
  233MOL0     O31344   9.636   6.793   0.411  0.7404  0.2291 -0.8222
  233MOL0     C31345   9.682   6.739   0.296 -0.2518 -0.0456  0.6508
  233MOL0     C31346   9.634   6.800   0.179  0.9990  0.5363 -0.4654
  233MOL0     C31347   9.687   6.761   0.052  0.5440 -0.7360  0.2989
  233MOL0     C31348   9.617   6.810  -0.080 -0.3093 -0.1285  0.5772
  233MOL0     C31349   9.799   6.672   0.046 -0.7615  0.6463 -0.1498
  233MOL0     C31350   9.876   6.653  -0.073  0.6060 -0.9499 -0.4278
  233MOL0     O31351   9.986   6.724  -0.102 -0.0164  0.0018 -0.0714
  233MOL0     C31352  10.042   6.809  -0.013  0.1164 -0.1942  0.3592
  233MOL0     C31353  10.001   6.946   0.006 -0.0165  0.1108  0.3669
  233MOL0     C31354  10.043   7.019   0.110 -0.9426  0.2729 -0.5350
  233MOL0     C31355  10.140   6.972   0.200  0.8293  0.5561 -0.4032
  233MOL0     O31356  10.185   7.051   0.295  0.0026  0.7396 -0.3095
  233MOL0     C31357  10.148   7.191   0.303 -0.9964 -0.3146  0.0769
  233MOL0     C31358  10.257   7.262   0.384 -0.0431  0.3068 -0.2623
  233MOL0     C31359  10.397   7.254   0.318 -0.9035  0.9619  0.8197
  233MOL0     C31360  10.512   7.296   0.397 -0.2520 -0.2060 -0.8369
  233MOL0     C31361  10.504   7.449   0.443 -0.0487  0.4805 -0.2126
  233MOL0     C31362  10.626   7.522   0.477 -0.4708  0.6933 -0.5434
  233MOL0     C31363  10.628   7.556   0.625 -0.7652 -0.6044 -0.2704
  233MOL0     C31364  10.766   7.636   0.658  0.8622 -0.3609  0.5137
  233MOL0    Cl31365  10.750   7.691   0.817  0.0279  0.1010 -0.7380
  233MOL0     C31366  10.188   6.844   0.185 -0.2955 -0.1121 -0.8266
  233MOL0     C31367  10.139   6.758   0.082 -0.0814 -0.0048 -0.3594
  233MOL0     O31368   9.828   6.583  -0.160 -0.2093 -0.9894  0.1577
  233MOL0     C31369   9.852   6.613   0.164 -0.1837 -0.1528 -0.1952
  233MOL0     C31370   9.792   6.645   0.289 -0.2355  0.2517  0.7964
  233MOL0     N31371   9.988   6.612   0.716 -0.1660 -0.3429 -0.2614
  233MOL0     N31372  10.007   6.495   0.662  0.5651  0.4514 -0.2293
  233MOL0     C31373  10.996   5.803   0.395 -0.5410  0.5679  0.5847
  233MOL0     C31374  11.124   5.772   0.446 -0.0273  0.5377 -0.1644
  233MOL0     C31375  11.542   5.868   0.635  0.4020  0.2595  0.6875
  233MOL0     C31376  11.624   5.791   0.555  0.2504  0.7659  0.3784
  233MOL0     C31377  11.745   5.747   0.615  0.3200  0.4473  0.5958
  233MOL0     C31378  11.786   5.784   0.742 -0.8525  0.1200 -0.1265
  233MOL0     O31379  11.909   5.738   0.780 -0.1548  0.1937  0.3021
  233MOL0     C31380  11.983   5.813   0.879  0.8200 -0.5096  0.4265
  233MOL0     C31381  12.131   5.781   0.884 -0.7492  0.6013  0.7747
  233MOL0     C31382  12.162   5.644   0.957 -0.4437 -0.6231  0.3167
  233MOL0     C31383  12.309   5.602   0.943  0.1546 -1.1335 -0.3157
  233MOL0     C31384  12.406   5.691   1.002 -0.0256 -0.5281 -0.4062
  233MOL0     C31385  12.474   5.779   1.051 -1.1890  0.0769  0.2355
  233MOL0     C31386  11.697   5.862   0.819 -0.1739  0.5758  0.5489
  233MOL0     C31387  11.579   5.899   0.763  1.0976  0.1213  1.3434
  233MOL0     H31388  11.269   6.065   0.381 -2.6524  3.7911  0.1375
  233MOL0     H31389  11.051   6.121   0.301 -4.2393 -1.5124 -3.2529
  233MOL0     H31390  10.858   6.166   0.293  0.1819 -0.8774  0.4065
  233MOL0     H31391  10.829   6.091   0.131  0.6550  0.2536  0.2312
  233MOL0     H31392  10.596   6.068   0.216 -1.0493  0.5866  0.6765
  233MOL0     H31393  10.646   6.166   0.362 -1.8455  0.3973 -0.4892
  233MOL0     H31394  10.683   6.349   0.235  2.2871 -0.2117 -2.1465
  233MOL0     H31395  10.675   6.263   0.078  1.5052  2.5846  0.5604
  233MOL0     H31396  10.450   6.379   0.132  1.4585  0.7165  1.0704
  233MOL0     H31397  10.419   6.205   0.132  0.9991  1.8565 -2.9679
  233MOL0     H31398  10.430   6.206   0.386 -1.9039 -0.0672 -0.7275
  233MOL0     H31399  10.494   6.365   0.377 -1.1996  0.1463  0.3325
  233MOL0     H31400  10.286   6.445   0.254 -0.5117  3.0565  3.3393
  233MOL0     H31401  10.230   6.276   0.269  0.2196 -0.4799  2.0781
  233MOL0     H31402  10.275   6.324   0.525 -2.5675  0.6858  2.7635
  233MOL0     H31403  10.284   6.501   0.470  0.7093 -0.9658  2.1926
  233MOL0     H31404  10.054   6.310   0.460  0.3878 -0.3487  1.0965
  233MOL0     H31405  10.080   6.430   0.333  3.4007  1.4379  0.4376
  233MOL0     H31406  10.099   6.680   0.418  0.7755 -2.3569 -0.6241
  233MOL0     H31407  10.094   6.877   0.730  0.6422 -1.1227 -0.0627
  233MOL0     H31408  10.118   6.889   0.554 -1.0965  4.6256  0.9602
  233MOL0     H31409   9.980   7.060   0.572  0.3673 -1.0237 -1.2838
  233MOL0     H31410   9.858   6.979   0.672 -1.7340  1.4600 -2.0840
  233MOL0     H31411   9.911   6.878   0.400 -3.2875 -0.1017 -1.6829
  233MOL0     H31412   9.787   6.998   0.432 -0.4350  0.8433  0.0246
  233MOL0     H31413   9.677   6.849   0.610 -0.6096 -2.8431  2.0804
  233MOL0     H31414   9.776   6.722   0.548  0.0452 -0.3651 -1.8400
  233MOL0     H31415   9.551   6.870   0.177  1.1943  0.7860  0.0768
  233MOL0     H31416   9.541   6.738  -0.112  1.3610  0.0454 -4.7193
  233MOL0     H31417   9.570   6.908  -0.068 -0.8593 -0.1389 -1.2075
  233MOL0     H31418   9.685   6.811  -0.165 -1.0436  2.6920 -0.0892
  233MOL0     H31419   9.928   6.985  -0.064 -0.0736 -0.0720  0.3232
  233MOL0     H31420   9.998   7.117   0.114 -1.9878 -0.0984 -2.0101
  233MOL0     H31421  10.145   7.243   0.207 -1.1285 -0.7914 -0.1792
  233MOL0     H31422  10.048   7.205   0.343 -1.8812 -2.7030 -1.0807
  233MOL0     H31423  10.212   7.362   0.384 -2.2584 -0.5426 -3.3190
  233MOL0     H31424  10.270   7.231   0.488  1.8913  1.1531 -0.2019
  233MOL0     H31425  10.388   7.313   0.226 -1.0192 -0.0554  0.1488
  233MOL0     H31426  10.404   7.151   0.280 -0.6113  1.7903 -1.5701
  233MOL0     H31427  10.514   7.225   0.480  2.5144 -1.4386 -1.8420
  233MOL0     H31428  10.604   7.278   0.341 -0.6176 -0.7639 -1.2729
  233MOL0     H31429  10.443   7.447   0.534  1.6500  1.1276  0.9810
  233MOL0     H31430  10.447   7.507   0.369 -1.9799  2.5496  2.6875
  233MOL0     H31431  10.714   7.465   0.445  0.2302  1.6939 -0.4411
  233MOL0     H31432  10.628   7.613   0.416 -2.1173  0.0076 -1.7095
  233MOL0     H31433  10.626   7.469   0.691 -0.5563 -0.2460  0.2141
  233MOL0     H31434  10.536   7.606   0.658 -0.4479  1.2602 -2.0127
  233MOL0     H31435  10.771   7.728   0.599 -2.2442  0.2141  0.9336
  233MOL0     H31436  10.845   7.565   0.631  0.6829 -0.1798 -0.5406
  233MOL0     H31437  10.260   6.807   0.257  1.6889  0.7288 -2.3048
  233MOL0     H31438  10.170   6.654   0.075  1.0963  0.3591 -0.9286
  233MOL0     H31439   9.946   6.559   0.167  0.5658  1.1289 -0.0953
  233MOL0     H31440   9.829   6.600   0.381  1.5294  0.0490  0.0272
  233MOL0     H31441  10.919   5.726   0.398 -1.2441  1.2217 -0.2629
  233MOL0     H31442  11.151   5.676   0.489  0.5214  1.1471  0.9031
  233MOL0     H31443  11.601   5.747   0.458  3.2987  0.6234 -0.3840
  233MOL0     H31444  11.817   5.685   0.562  0.6197  0.3558  1.1115
  233MOL0     H31445  11.959   5.917   0.859 -1.0333 -1.1758 -1.1049
  233MOL0     H31446  11.942   5.793   0.979 -0.6745 -1.9724 -0.4146
  233MOL0     H31447  12.180   5.861   0.940  2.9940  0.7854 -2.3343
  233MOL0     H31448  12.183   5.793   0.788 -2.1842  2.5804  0.1820
  233MOL0     H31449  12.094   5.567   0.918 -2.2271  0.4931  1.0960
  233MOL0     H31450  12.140   5.655   1.064 -0.2282  0.5619  0.2538
  233MOL0     H31451  12.326   5.598   0.835 -3.1260  0.0798 -0.9821
  233MOL0     H31452  12.325   5.502   0.984 -1.2267 -0.0904  3.1727
  233MOL0     H31453  12.530   5.854   1.102 -1.9083  0.9619 -0.2447
  233MOL0     H31454  11.716   5.886   0.924 -0.1450  1.7064  0.3021
  233MOL0     H31455  11.507   5.966   0.809  0.6848  1.1880 -0.6982
  234MOL0     O31456   4.979   7.618   1.564  0.6794 -0.2277 -0.1531
  234MOL0     C31457   4.956   7.732   1.533  0.5013  0.0527 -0.0678
  234MOL0     O31458   5.051   7.821   1.498 -0.1066  0.5769  0.5422
  234MOL0     C31459   5.188   7.788   1.506 -0.4005  0.4058  0.1990
  234MOL0     C31460   5.271   7.864   1.578 -0.6198  0.0706 -0.5369
  234MOL0     C31461   5.412   7.845   1.576 -0.8994  0.4489  0.7874
  234MOL0     C31462   5.473   7.737   1.516 -0.5163  1.0090  0.0803
  234MOL0     O31463   5.610   7.718   1.540  0.2839  0.3143  0.3231
  234MOL0     C31464   5.657   7.586   1.562 -0.3511 -0.1617 -0.3289
  234MOL0     C31465   5.803   7.581   1.623  0.0278  0.5690  0.6272
  234MOL0     C31466   5.806   7.634   1.765  0.7196 -0.8784  0.2234
  234MOL0     C31467   5.949   7.601   1.822  0.8093 -0.2222 -0.2525
  234MOL0     C31468   5.940   7.645   1.974  0.1897  0.1727  0.6281
  234MOL0     C31469   6.073   7.603   2.034 -0.3962 -0.6061  1.1217
  234MOL0     C31470   6.061   7.647   2.182  0.8558 -0.7167 -0.1253
  234MOL0     C31471   6.200   7.628   2.251  0.1665  0.4607  0.4495
  234MOL0     N31472   6.193   7.615   2.397  0.6802 -0.1107 -0.1213
  234MOL0     C31473   6.150   7.713   2.478  0.6375 -1.0555 -0.8010
  234MOL0     C31474   6.188   7.670   2.599  0.4604  0.1454 -0.2806
  234MOL0     C31475   6.160   7.739   2.727 -0.4957 -0.7545 -0.2261
  234MOL0     C31476   6.021   7.684   2.781  0.1673 -0.6809 -0.2405
  234MOL0     C31477   6.018   7.724   2.928 -0.6646 -0.1357  0.1866
  234MOL0     C31478   5.880   7.680   2.982  0.3922 -1.2422 -0.6832
  234MOL0     O31479   5.841   7.748   3.106 -0.2475  0.2852  0.5599
  234MOL0     C31480   5.867   7.669   3.214 -0.1679 -0.9470 -0.4340
  234MOL0     C31481   5.958   7.730   3.305 -0.1443 -0.7969 -0.8566
  234MOL0     C31482   5.999   7.659   3.427  0.3773 -0.4402 -0.1070
  234MOL0     C31483   6.118   7.717   3.503  0.0516  0.5780 -0.4373
  234MOL0     C31484   5.945   7.535   3.455  0.1554 -0.6891  0.5399
  234MOL0     C31485   5.975   7.460   3.574  0.1376 -0.2065 -0.0402
  234MOL0     O31486   5.921   7.335   3.588  0.5566  0.5049  0.1929
  234MOL0     C31487   5.943   7.248   3.688 -0.0401 -0.1137 -0.4427
  234MOL0     C31488   6.066   7.182   3.690 -0.0014  0.9104  0.7488
  234MOL0     C31489   6.101   7.097   3.795  0.4896 -0.0889  0.1972
  234MOL0     C31490   6.003   7.060   3.889 -0.2217 -0.5526  0.4417
  234MOL0     O31491   6.046   6.983   4.001 -0.1854 -0.4762  0.4455
  234MOL0     C31492   5.963   6.985   4.115  0.2159 -0.6877  0.1862
  234MOL0     C31493   6.005   6.886   4.212  0.3921  0.6336  0.3732
  234MOL0     C31494   5.932   6.903   4.346 -0.5878 -0.6538 -0.3638
  234MOL0     C31495   5.972   6.787   4.439 -0.2650  0.2728 -0.4597
  234MOL0     C31496   5.928   6.820   4.592 -0.6677  0.1344  0.4709
  234MOL0     C31497   5.880   6.694   4.670  0.0061  0.3113 -0.0130
  234MOL0     C31498   5.976   6.573   4.661  0.1610  0.6841  0.6255
  234MOL0     C31499   5.974   6.504   4.799 -0.1877 -0.6929  0.6159
  234MOL0    Cl31500   6.068   6.357   4.811 -0.3299 -0.2112  0.1636
  234MOL0     C31501   5.870   7.120   3.880 -0.3324  0.4867  0.4803
  234MOL0     C31502   5.843   7.215   3.777  0.3248 -1.0206  0.4743
  234MOL0     O31503   6.042   7.514   3.661  0.8064 -0.0146 -0.3583
  234MOL0     C31504   5.857   7.487   3.361 -0.9292  0.3569 -0.3607
  234MOL0     C31505   5.812   7.546   3.243 -0.5756 -0.1018  0.6154
  234MOL0     N31506   6.228   7.538   2.592  0.5835 -0.1156  0.4677
  234MOL0     N31507   6.236   7.509   2.468  0.0520 -0.6447 -0.3878
  234MOL0     C31508   5.387   7.650   1.450  0.0948 -0.0619 -1.0233
  234MOL0     C31509   5.251   7.677   1.436 -0.1012  0.0437 -0.9282
  234MOL0     C31510   4.816   7.774   1.507 -0.5368 -0.2569 -0.0309
  234MOL0     C31511   4.788   7.908   1.494 -1.2289  0.7905 -0.6722
  234MOL0     C31512   4.663   7.957   1.506  0.6359  0.6839  0.0506
  234MOL0     C31513   4.552   7.863   1.517 -0.2425 -0.7837  0.3041
  234MOL0     O31514   4.417   7.906   1.545 -0.6836  0.1491 -0.5182
  234MOL0     C31515   4.387   8.048   1.554 -0.1129  0.6917  0.5555
  234MOL0     C31516   4.237   8.075   1.568 -0.4856  0.2558  0.5393
  234MOL0     C31517   4.199   8.220   1.557 -0.5360  0.4126  0.2952
  234MOL0     C31518   4.056   8.243   1.599  0.0156 -0.5492  0.0896
  234MOL0     C31519   4.054   8.251   1.745 -0.6499 -0.0834 -0.0406
  234MOL0     C31520   4.034   8.260   1.866 -0.6048  0.1157 -0.5673
  234MOL0     C31521   4.579   7.727   1.507 -1.1836  0.4989  0.4193
  234MOL0     C31522   4.718   7.683   1.508  1.0477  0.2071  1.3223
  234MOL0     H31523   5.223   7.942   1.636 -0.5290 -0.6696  0.5668
  234MOL0     H31524   5.476   7.915   1.629 -2.9021  1.9833  1.2615
  234MOL0     H31525   5.586   7.536   1.628 -0.8443 -0.1033 -0.8094
  234MOL0     H31526   5.660   7.540   1.462 -2.0295  1.2264 -1.0749
  234MOL0     H31527   5.837   7.477   1.619 -1.0611  0.1870  0.8754
  234MOL0     H31528   5.860   7.647   1.557 -0.2393  1.7786  1.5567
  234MOL0     H31529   5.775   7.739   1.767  0.2661 -0.9694 -1.2669
  234MOL0     H31530   5.729   7.588   1.829  0.1289 -0.0821  0.1072
  234MOL0     H31531   5.994   7.502   1.812  0.6735 -0.5883  2.1024
  234MOL0     H31532   6.016   7.674   1.775  0.1846 -1.3591 -3.0836
  234MOL0     H31533   5.937   7.755   1.970  3.0652  0.3104 -1.7908
  234MOL0     H31534   5.850   7.601   2.018 -2.2897  0.7027 -3.3698
  234MOL0     H31535   6.070   7.496   2.011 -0.0182  0.0289 -2.5060
  234MOL0     H31536   6.151   7.663   1.986 -2.8714  2.5432  0.6667
  234MOL0     H31537   6.054   7.755   2.201  1.4640 -1.2097  3.4471
  234MOL0     H31538   5.988   7.588   2.238 -1.7662  1.5795 -0.8904
  234MOL0     H31539   6.267   7.709   2.222  2.4614 -0.1956  3.3443
  234MOL0     H31540   6.245   7.538   2.207  2.1661  2.2670 -1.3787
  234MOL0     H31541   6.091   7.802   2.455 -0.5091 -0.3163  3.9995
  234MOL0     H31542   6.238   7.707   2.797 -2.0038 -3.9959  0.1829
  234MOL0     H31543   6.162   7.848   2.719  0.4558 -0.6241  1.3520
  234MOL0     H31544   6.015   7.575   2.776  1.6976 -0.7391 -2.5193
  234MOL0     H31545   5.938   7.732   2.727 -0.7430 -0.3953  1.3388
  234MOL0     H31546   6.029   7.832   2.942  0.0702 -0.0625 -0.8264
  234MOL0     H31547   6.096   7.676   2.987  0.6840 -0.0071 -1.4032
  234MOL0     H31548   5.877   7.572   2.997 -1.8446 -1.2927 -1.1061
  234MOL0     H31549   5.806   7.707   2.906  1.1951  0.5733 -0.8765
  234MOL0     H31550   5.977   7.835   3.288 -3.4683  0.7733  3.2044
  234MOL0     H31551   6.200   7.645   3.498 -2.2001 -2.0961 -3.5335
  234MOL0     H31552   6.156   7.806   3.452 -0.1322  1.0278  0.1951
  234MOL0     H31553   6.092   7.751   3.603  2.5701 -1.4819  1.0436
  234MOL0     H31554   6.134   7.212   3.610 -0.4714  1.0551  0.3959
  234MOL0     H31555   6.196   7.044   3.799 -0.9986 -2.9127  1.9847
  234MOL0     H31556   5.955   7.090   4.145 -2.5641  0.0536 -2.5946
  234MOL0     H31557   5.860   6.959   4.089 -0.3543  0.7483  0.9058
  234MOL0     H31558   5.960   6.792   4.177  0.4142 -0.2263  2.5248
  234MOL0     H31559   6.112   6.869   4.222  0.1996  0.3525  2.4206
  234MOL0     H31560   5.824   6.896   4.329 -0.4982 -1.3577 -0.6660
  234MOL0     H31561   5.948   7.003   4.388  1.0431 -0.4678 -1.3019
  234MOL0     H31562   5.920   6.699   4.402  1.3828 -1.1172  0.3916
  234MOL0     H31563   6.079   6.765   4.437  0.6622  3.8046  1.1135
  234MOL0     H31564   5.848   6.894   4.597 -1.0688 -0.1626 -1.1221
  234MOL0     H31565   6.019   6.853   4.643  0.8916 -4.9106  1.5800
  234MOL0     H31566   5.853   6.717   4.774 -1.7061  0.9621 -0.5764
  234MOL0     H31567   5.785   6.658   4.631  1.2406 -1.7959 -1.2478
  234MOL0     H31568   6.077   6.607   4.637 -0.2500  1.9873  0.6469
  234MOL0     H31569   5.934   6.498   4.592 -0.2828  0.7873  0.7799
  234MOL0     H31570   5.871   6.477   4.820 -1.2318  2.8509  0.6455
  234MOL0     H31571   5.992   6.574   4.880  0.8961 -0.2890  0.0534
  234MOL0     H31572   5.789   7.105   3.951  0.8738  0.3767  1.8622
  234MOL0     H31573   5.742   7.252   3.767  0.0579 -1.8216  0.1252
  234MOL0     H31574   5.836   7.380   3.365 -2.2931  0.5032 -2.4671
  234MOL0     H31575   5.739   7.510   3.172  2.7053 -1.6070 -2.2386
  234MOL0     H31576   5.425   7.557   1.409  0.8992 -0.3160  0.2457
  234MOL0     H31577   5.173   7.613   1.396 -1.7241  1.9588 -1.0078
  234MOL0     H31578   4.871   7.978   1.500 -0.1420 -0.4511 -0.9587
  234MOL0     H31579   4.643   8.063   1.494 -0.9383  0.1547 -2.9641
  234MOL0     H31580   4.449   8.101   1.626  3.5127 -0.2301 -1.6150
  234MOL0     H31581   4.431   8.089   1.463 -0.0733  1.5810  0.9647
  234MOL0     H31582   4.210   8.044   1.669  2.5628 -1.7327  0.8836
  234MOL0     H31583   4.181   8.011   1.500  0.5594  0.2161 -0.3168
  234MOL0     H31584   4.206   8.234   1.448 -0.2314 -1.5127  0.0286
  234MOL0     H31585   4.268   8.292   1.601  0.2467  1.2438 -2.1099
  234MOL0     H31586   3.983   8.164   1.577 -3.3592  0.9320  4.3758
  234MOL0     H31587   4.014   8.337   1.561 -0.3493 -1.6400 -2.4610
  234MOL0     H31588   4.022   8.250   1.972  2.0876  2.8057  0.1419
  234MOL0     H31589   4.495   7.665   1.537 -0.4886 -0.8575 -0.3880
  234MOL0     H31590   4.726   7.575   1.515  0.2338  0.1546  1.4826
  235MOL0     O31591   5.958  10.327   9.478 -0.2126  0.6038  0.4669
  235MOL0     C31592   5.939  10.274   9.371 -0.5194  0.5173  0.3382
  235MOL0     O31593   5.890  10.336   9.256 -0.4817 -0.2839 -0.3727
  235MOL0     C31594   5.853  10.470   9.257 -0.0349 -0.0254  0.0069
  235MOL0     C31595   5.770  10.533   9.345 -0.6258  0.3030  0.1376
  235MOL0     C31596   5.710  10.660   9.321  0.7483 -0.4842 -0.4106
  235MOL0     C31597   5.726  10.726   9.203  0.0032 -0.5112 -0.3382
  235MOL0     O31598   5.658  10.843   9.188 -0.4481 -0.5913  0.0063
  235MOL0     C31599   5.596  10.886   9.066  0.0690 -0.3728  0.0464
  235MOL0     C31600   5.555  11.037   9.092 -0.2657  0.3751 -0.4664
  235MOL0     C31601   5.475  11.097   8.978 -0.3724  0.7585  0.0969
  235MOL0     C31602   5.447  11.249   8.995 -0.5102 -0.3206 -0.2911
  235MOL0     C31603   5.460  11.330   8.866  1.0113 -1.0432  0.6912
  235MOL0     C31604   5.358  11.456   8.869  0.6238  0.0392  0.2413
  235MOL0     C31605   5.391  11.573   8.781  0.1139  0.3429  0.3683
  235MOL0     C31606   5.288  11.683   8.786  0.0667 -0.6362 -0.2047
  235MOL0     N31607   5.319  11.787   8.679  0.2125  0.0502  0.0332
  235MOL0     C31608   5.214  11.856   8.623  0.7354 -0.3559 -0.3975
  235MOL0     C31609   5.261  11.973   8.578  0.0808 -0.4373  0.1044
  235MOL0     C31610   5.189  12.102   8.538  0.7054  0.8880 -0.4171
  235MOL0     C31611   5.145  12.168   8.671 -1.1009  0.2434 -0.9056
  235MOL0     C31612   5.065  12.294   8.652 -0.0805  0.0773 -1.3687
  235MOL0     C31613   5.104  12.377   8.529  0.1065 -1.0583 -0.0729
  235MOL0     O31614   5.025  12.496   8.521  0.0707 -0.3148 -0.8278
  235MOL0     C31615   4.895  12.497   8.476 -0.4404  0.0275 -0.1908
  235MOL0     C31616   4.819  12.615   8.491  0.3322  0.1530 -1.2895
  235MOL0     C31617   4.690  12.643   8.435  0.3899  0.3811 -0.2241
  235MOL0     C31618   4.620  12.775   8.469 -0.7099  1.3421  0.8142
  235MOL0     C31619   4.623  12.536   8.365 -0.2978  0.0370 -0.5188
  235MOL0     C31620   4.486  12.533   8.328 -0.8217  0.0830  0.2970
  235MOL0     O31621   4.436  12.650   8.266  0.9453 -0.3720 -0.1387
  235MOL0     C31622   4.305  12.643   8.210 -0.0798 -0.1787 -1.3228
  235MOL0     C31623   4.234  12.759   8.215 -0.6567  0.3900  0.3945
  235MOL0     C31624   4.109  12.777   8.163 -0.6820  0.5532 -0.7485
  235MOL0     C31625   4.053  12.671   8.088  0.1442  0.1061 -0.7235
  235MOL0     O31626   3.924  12.680   8.045  0.3839  0.4815  0.4721
  235MOL0     C31627   3.877  12.814   8.037  0.4372  1.0898 -0.7696
  235MOL0     C31628   3.738  12.804   7.965  0.2374 -0.8715 -0.2575
  235MOL0     C31629   3.674  12.938   7.951  0.9741  0.1959  0.8078
  235MOL0     C31630   3.534  12.928   7.897 -0.0405 -0.0332 -0.1551
  235MOL0     C31631   3.473  13.066   7.865  0.7592 -0.2706  1.2759
  235MOL0     C31632   3.543  13.192   7.918  0.3671 -0.5077  0.1318
  235MOL0     C31633   3.478  13.318   7.869  0.5550 -0.8645  0.5533
  235MOL0     C31634   3.538  13.447   7.920 -0.6002  1.9108 -1.2622
  235MOL0    Cl31635   3.451  13.583   7.848 -0.0609  0.4568 -0.3140
  235MOL0     C31636   4.127  12.554   8.078  0.4267 -0.9188  0.5048
  235MOL0     C31637   4.250  12.537   8.142 -0.0955  0.5905 -1.0842
  235MOL0     O31638   4.426  12.426   8.352  0.8337 -0.3627 -0.2143
  235MOL0     C31639   4.685  12.409   8.369 -0.7518  0.4796  0.5822
  235MOL0     C31640   4.820  12.393   8.420 -0.0090 -0.2888 -0.8091
  235MOL0     N31641   5.395  11.963   8.602  0.6042  0.5905 -0.3682
  235MOL0     N31642   5.433  11.854   8.660 -0.5412 -0.0142  0.4216
  235MOL0     C31643   5.815  10.663   9.107 -0.9612  0.4307  0.2562
  235MOL0     C31644   5.883  10.540   9.136 -0.2795  0.2022 -0.0650
  235MOL0     C31645   5.997  10.140   9.366  0.1107  0.4160 -0.8461
  235MOL0     C31646   5.986  10.044   9.465  0.3544 -0.9190 -1.1295
  235MOL0     C31647   6.032   9.915   9.457 -0.3173 -0.4924 -0.5635
  235MOL0     C31648   6.119   9.882   9.345  0.3057  0.1138  0.7478
  235MOL0     O31649   6.185   9.760   9.321  0.0923 -0.4517  0.2336
  235MOL0     C31650   6.184   9.665   9.428  0.1871  0.7401 -0.4887
  235MOL0     C31651   6.065   9.566   9.408  0.3941 -0.1608  1.3410
  235MOL0     C31652   6.050   9.518   9.258 -1.1741 -1.5456  0.7666
  235MOL0     C31653   6.171   9.447   9.200 -0.2476 -0.3585 -0.1503
  235MOL0     C31654   6.185   9.310   9.228  0.0485 -0.1653  0.2931
  235MOL0     C31655   6.194   9.189   9.244  0.2366  0.5752  0.9425
  235MOL0     C31656   6.132   9.973   9.238 -0.9951 -0.2752  0.1704
  235MOL0     C31657   6.061  10.090   9.247 -0.4503 -0.5098 -0.7701
  235MOL0     H31658   5.766  10.477   9.438  3.8056 -1.7094 -0.6087
  235MOL0     H31659   5.651  10.706   9.399 -1.7619 -1.3554 -1.6772
  235MOL0     H31660   5.660  10.881   8.977 -1.5040  1.4878 -1.2608
  235MOL0     H31661   5.505  10.830   9.044 -1.1281  0.6163  2.1604
  235MOL0     H31662   5.499  11.043   9.186 -1.0229  2.0944 -0.9869
  235MOL0     H31663   5.652  11.086   9.103  1.3229 -2.4325 -1.0319
  235MOL0     H31664   5.544  11.084   8.894 -0.3627  2.2901 -0.1618
  235MOL0     H31665   5.379  11.047   8.962  0.1282  0.4063 -2.2466
  235MOL0     H31666   5.347  11.265   9.038 -0.5077  1.3891 -0.8742
  235MOL0     H31667   5.528  11.296   9.051  0.3496 -1.4040 -0.5790
  235MOL0     H31668   5.562  11.362   8.844 -0.0337  2.4854  0.3391
  235MOL0     H31669   5.432  11.263   8.784  2.2291 -0.3627 -0.3139
  235MOL0     H31670   5.255  11.421   8.853  0.4658  0.6583 -0.1469
  235MOL0     H31671   5.368  11.497   8.969  1.9893 -0.1198  0.1835
  235MOL0     H31672   5.494  11.607   8.793 -0.0413  1.8129 -1.8901
  235MOL0     H31673   5.392  11.539   8.677 -1.4899 -0.2440  0.5176
  235MOL0     H31674   5.297  11.723   8.888 -1.6337 -3.1396  1.0196
  235MOL0     H31675   5.187  11.644   8.769 -0.7539  2.9510 -7.1111
  235MOL0     H31676   5.114  11.814   8.629  1.2214 -1.3650  1.5343
  235MOL0     H31677   5.249  12.164   8.471  1.2093 -0.6724 -1.4787
  235MOL0     H31678   5.097  12.079   8.484 -0.3288  3.8928 -0.1187
  235MOL0     H31679   5.234  12.181   8.734 -0.7687  1.9458 -1.6874
  235MOL0     H31680   5.080  12.089   8.711 -1.0986  1.0806  0.8530
  235MOL0     H31681   5.081  12.348   8.746  0.5961 -0.0474 -1.4055
  235MOL0     H31682   4.961  12.259   8.651  0.4947 -2.2083  1.7827
  235MOL0     H31683   5.068  12.323   8.440 -0.2770 -2.3946  0.8473
  235MOL0     H31684   5.211  12.396   8.529 -0.3425  1.9981  1.5481
  235MOL0     H31685   4.869  12.689   8.552 -1.3572 -0.6687  1.2226
  235MOL0     H31686   4.680  12.843   8.530  0.2672 -0.9522  2.5392
  235MOL0     H31687   4.593  12.823   8.374 -0.6994  0.2961  0.2745
  235MOL0     H31688   4.527  12.759   8.525 -1.2187 -2.3843 -0.7981
  235MOL0     H31689   4.288  12.841   8.263  1.0571 -0.7707  0.5593
  235MOL0     H31690   4.071  12.876   8.184  2.2420  1.6232 -0.1322
  235MOL0     H31691   3.857  12.848   8.139  2.7234 -1.8192  0.8199
  235MOL0     H31692   3.942  12.884   7.983  0.3879 -0.3102 -2.7880
  235MOL0     H31693   3.744  12.765   7.863  1.3963  3.4529 -2.0478
  235MOL0     H31694   3.669  12.734   8.014  0.3310 -0.7807  0.0081
  235MOL0     H31695   3.722  12.996   7.872 -5.4937  1.9878 -2.5411
  235MOL0     H31696   3.683  13.002   8.039  0.7075  1.9548 -0.3840
  235MOL0     H31697   3.522  12.878   7.801 -1.1569  1.0085 -0.5882
  235MOL0     H31698   3.473  12.866   7.964  4.1417 -0.4005  3.7758
  235MOL0     H31699   3.369  13.076   7.898 -0.2999 -0.2183 -1.7512
  235MOL0     H31700   3.459  13.079   7.757 -0.6045 -0.1595  1.4504
  235MOL0     H31701   3.552  13.184   8.027 -0.6830 -1.5707  0.1548
  235MOL0     H31702   3.644  13.206   7.880 -0.7640  1.1562 -2.5021
  235MOL0     H31703   3.369  13.325   7.880  0.5388 -1.7457  1.0678
  235MOL0     H31704   3.487  13.313   7.760  1.1826  0.7832  0.5026
  235MOL0     H31705   3.639  13.465   7.882 -0.0431 -0.1777 -0.8852
  235MOL0     H31706   3.536  13.435   8.028 -2.7447 -1.5917 -1.5154
  235MOL0     H31707   4.082  12.473   8.021 -0.0457  0.4449 -1.1404
  235MOL0     H31708   4.291  12.437   8.134 -1.7259 -0.6993  3.4415
  235MOL0     H31709   4.638  12.326   8.316 -1.8564  0.6151  1.3024
  235MOL0     H31710   4.849  12.288   8.420 -1.4890 -0.9125  3.5721
  235MOL0     H31711   5.820  10.702   9.005  1.0480  0.5144  0.3491
  235MOL0     H31712   5.938  10.484   9.061 -0.0020  0.3519  0.0259
  235MOL0     H31713   5.920  10.061   9.549  0.8496 -2.3630 -0.4072
  235MOL0     H31714   6.010   9.844   9.536  1.8969 -1.4049 -0.6834
  235MOL0     H31715   6.271   9.601   9.412 -1.6801 -1.6914 -1.5591
  235MOL0     H31716   6.184   9.712   9.527 -1.7453  0.5709 -0.3618
  235MOL0     H31717   5.974   9.626   9.421 -1.7059 -2.2636 -2.1407
  235MOL0     H31718   6.063   9.480   9.475  0.3010  0.4430  2.1257
  235MOL0     H31719   6.031   9.596   9.184 -0.6336 -2.5132 -0.4283
  235MOL0     H31720   5.963   9.452   9.258 -2.3349 -0.1592 -1.8546
  235MOL0     H31721   6.263   9.496   9.232 -1.7360  0.5726  3.0795
  235MOL0     H31722   6.161   9.451   9.091  1.0511  1.2148 -0.2412
  235MOL0     H31723   6.207   9.083   9.252  0.6328  0.5287 -0.1604
  235MOL0     H31724   6.190   9.947   9.150 -0.1570  3.8349 -0.6719
  235MOL0     H31725   6.068  10.144   9.153 -0.2486 -2.5984 -1.9994
  236MOL0     O31726   7.705   0.730   7.962  0.0756  0.2312  0.1673
  236MOL0     C31727   7.814   0.696   8.011  1.4408  0.3918  0.0057
  236MOL0     O31728   7.853   0.576   8.078  0.2726 -0.1270  0.4164
  236MOL0     C31729   7.781   0.459   8.077  0.4739 -0.1894  0.4151
  236MOL0     C31730   7.645   0.446   8.056 -0.1439  0.3353 -1.0581
  236MOL0     C31731   7.585   0.318   8.067  0.7056 -0.0233 -0.1069
  236MOL0     C31732   7.657   0.200   8.086 -0.4135 -0.9591 -0.4127
  236MOL0     O31733   7.598   0.086   8.118  0.7911  0.2701  0.7806
  236MOL0     C31734   7.664  -0.039   8.081  0.7361  0.2355 -0.6478
  236MOL0     C31735   7.559  -0.130   8.014  0.3053  0.0069  0.0056
  236MOL0     C31736   7.540  -0.106   7.862  0.2263 -0.3722 -0.6201
  236MOL0     C31737   7.493  -0.224   7.781  0.5992 -0.3269 -0.8084
  236MOL0     C31738   7.471  -0.185   7.629 -0.8372  0.5756  0.1371
  236MOL0     C31739   7.599  -0.185   7.548 -0.1114 -0.4250  0.0801
  236MOL0     C31740   7.595  -0.091   7.419  0.9362  0.0145  0.7084
  236MOL0     C31741   7.723  -0.040   7.351  0.3763 -0.0626  1.2740
  236MOL0     N31742   7.774   0.062   7.441 -0.7080  0.1094  0.8171
  236MOL0     C31743   7.708   0.163   7.497  0.0624 -0.3328 -0.7147
  236MOL0     C31744   7.780   0.196   7.606  0.2578 -0.3664 -1.1273
  236MOL0     C31745   7.748   0.304   7.704  0.1799 -1.3755 -0.2618
  236MOL0     C31746   7.745   0.442   7.636 -0.2809 -0.3089 -0.7331
  236MOL0     C31747   7.872   0.517   7.645 -0.3881  0.1074  0.5355
  236MOL0     C31748   7.841   0.659   7.611 -1.1164 -0.0088  0.2291
  236MOL0     O31749   7.973   0.720   7.608  0.4056  0.3634 -0.5798
  236MOL0     C31750   7.992   0.806   7.507 -0.6054  0.5118  0.1735
  236MOL0     C31751   7.995   0.942   7.527  0.7059 -1.0652  0.0304
  236MOL0     C31752   8.037   1.033   7.434  0.1672  0.3230 -0.6209
  236MOL0     C31753   8.021   1.176   7.462 -0.0907 -0.4418  0.3033
  236MOL0     C31754   8.088   0.978   7.305  1.0874 -0.6405 -1.0840
  236MOL0     C31755   8.134   1.065   7.195 -0.4588 -0.1144  0.5452
  236MOL0     O31756   8.099   1.019   7.069 -0.9934  0.1366 -0.4337
  236MOL0     C31757   8.089   1.097   6.963 -0.3766  0.7680  0.1677
  236MOL0     C31758   8.044   1.231   6.963 -0.6677 -0.3559 -0.1001
  236MOL0     C31759   8.032   1.308   6.853  0.7179 -0.6862  0.4353
  236MOL0     C31760   8.065   1.239   6.728  0.8157 -0.2654 -0.3927
  236MOL0     O31761   8.074   1.299   6.601  0.3832 -0.5661 -0.4923
  236MOL0     C31762   8.015   1.424   6.581 -0.4993  0.1145  0.1497
  236MOL0     C31763   7.856   1.404   6.584 -0.2531 -0.1808 -0.2430
  236MOL0     C31764   7.780   1.529   6.551 -0.7868  0.1919 -0.0740
  236MOL0     C31765   7.719   1.525   6.406 -0.3532 -0.6693  0.2733
  236MOL0     C31766   7.663   1.656   6.362  0.0940  0.4411 -0.3783
  236MOL0     C31767   7.534   1.704   6.437 -0.3687  0.8666 -0.5383
  236MOL0     C31768   7.461   1.819   6.368  0.9888  0.0122 -0.1986
  236MOL0     C31769   7.322   1.827   6.436  0.4485  0.4889 -0.5453
  236MOL0    Cl31770   7.231   1.966   6.363  0.0221  0.2021 -0.3473
  236MOL0     C31771   8.112   1.107   6.725  1.0164  0.2746  0.4199
  236MOL0     C31772   8.137   1.034   6.843  0.4256 -0.9238 -0.2932
  236MOL0     O31773   8.191   1.172   7.222 -0.2263  0.4114 -0.6727
  236MOL0     C31774   8.081   0.839   7.288 -0.0848 -1.4537  0.1807
  236MOL0     C31775   8.035   0.755   7.388  0.4141 -0.4957  0.0127
  236MOL0     N31776   7.885   0.111   7.611 -1.3374 -0.9861  0.0096
  236MOL0     N31777   7.884   0.035   7.508 -0.3896  0.3684  0.0963
  236MOL0     C31778   7.796   0.215   8.093  0.1157  0.3982 -1.3711
  236MOL0     C31779   7.856   0.340   8.098  0.2013  0.3956  0.6264
  236MOL0     C31780   7.894   0.822   8.026 -0.3791  0.1121  0.6684
  236MOL0     C31781   7.995   0.833   8.118 -0.3706 -0.0591 -0.7780
  236MOL0     C31782   8.083   0.934   8.139  0.5084 -0.5424 -0.3174
  236MOL0     C31783   8.071   1.049   8.065 -0.3890 -0.5840 -0.1108
  236MOL0     O31784   8.179   1.135   8.079 -0.5439 -0.4961 -0.1211
  236MOL0     C31785   8.169   1.277   8.049  0.9614  0.7120  0.3775
  236MOL0     C31786   8.312   1.321   7.994  0.1547 -0.4016  0.2051
  236MOL0     C31787   8.325   1.436   7.902 -0.4944 -0.1315  0.2516
  236MOL0     C31788   8.267   1.572   7.957 -0.0925 -0.0008  0.1943
  236MOL0     C31789   8.308   1.596   8.093  0.0830 -1.3715  0.2589
  236MOL0     C31790   8.312   1.649   8.204  0.2197  0.3594  0.3283
  236MOL0     C31791   7.970   1.055   7.971 -0.0687  0.2988  0.7598
  236MOL0     C31792   7.882   0.943   7.954 -0.5313 -0.1307  0.7426
  236MOL0     H31793   7.588   0.536   8.038  0.3688  0.6234 -1.2622
  236MOL0     H31794   7.477   0.308   8.072  0.5891  1.1012 -0.0485
  236MOL0     H31795   7.754  -0.045   8.020  1.0154  1.1694 -0.3399
  236MOL0     H31796   7.679  -0.077   8.183  0.2686  3.2375  0.6474
  236MOL0     H31797   7.604  -0.228   8.032 -0.4717 -0.1686  1.1166
  236MOL0     H31798   7.467  -0.121   8.073 -1.2373 -2.0182 -1.8800
  236MOL0     H31799   7.464  -0.027   7.863 -0.5202 -1.0621  1.1506
  236MOL0     H31800   7.628  -0.060   7.817 -1.8935  3.8448 -0.9711
  236MOL0     H31801   7.575  -0.296   7.788 -0.1631 -1.4158 -2.4977
  236MOL0     H31802   7.401  -0.263   7.824  0.5728 -1.4155 -1.8127
  236MOL0     H31803   7.404  -0.257   7.581 -0.6459 -0.3118  1.1655
  236MOL0     H31804   7.433  -0.084   7.614  0.9567  0.9742 -2.6560
  236MOL0     H31805   7.682  -0.151   7.610 -0.4842 -1.4900  1.1962
  236MOL0     H31806   7.624  -0.286   7.515  0.2936 -0.5600  0.7946
  236MOL0     H31807   7.562  -0.152   7.334 -2.0528  0.0601  1.7312
  236MOL0     H31808   7.523  -0.009   7.427  1.6649  0.4790  3.9513
  236MOL0     H31809   7.704  -0.003   7.249  0.5810  3.6755  2.4458
  236MOL0     H31810   7.796  -0.122   7.344  2.1008  1.2045  3.4519
  236MOL0     H31811   7.631   0.221   7.448 -0.7861 -0.9654 -0.1433
  236MOL0     H31812   7.643   0.297   7.732  0.6412 -0.5273  1.8538
  236MOL0     H31813   7.810   0.307   7.794 -3.1086 -1.3373  2.1961
  236MOL0     H31814   7.667   0.492   7.694  0.1992 -2.8036  2.3409
  236MOL0     H31815   7.707   0.429   7.534  0.5276 -0.8611 -0.9784
  236MOL0     H31816   7.940   0.470   7.573 -1.2350  1.2759 -1.1054
  236MOL0     H31817   7.922   0.515   7.742 -2.4497  2.4735  1.7660
  236MOL0     H31818   7.768   0.708   7.676 -1.8598  2.2731 -2.1196
  236MOL0     H31819   7.788   0.674   7.517 -0.3678 -1.5916 -0.4689
  236MOL0     H31820   7.945   0.960   7.621 -0.4082 -3.1346 -0.0892
  236MOL0     H31821   7.938   1.172   7.533 -0.2222 -0.7785  0.1332
  236MOL0     H31822   8.108   1.229   7.501  1.3716 -1.7507 -1.0396
  236MOL0     H31823   7.984   1.224   7.371 -1.0437  0.0193  0.9190
  236MOL0     H31824   8.021   1.278   7.058 -0.6345 -0.7025  0.0833
  236MOL0     H31825   8.007   1.413   6.853  0.7298 -0.6447 -1.4366
  236MOL0     H31826   8.034   1.492   6.665 -1.8345  3.4874 -2.1020
  236MOL0     H31827   8.038   1.461   6.481  0.4497 -1.1859 -0.1412
  236MOL0     H31828   7.832   1.321   6.518 -1.7286 -0.3585  0.4756
  236MOL0     H31829   7.827   1.372   6.685 -1.8441  0.9036 -0.3279
  236MOL0     H31830   7.851   1.613   6.548  0.8518 -1.1572 -2.1714
  236MOL0     H31831   7.699   1.544   6.623  0.1319  1.1118  0.7975
  236MOL0     H31832   7.802   1.498   6.341 -1.1951  0.5232 -1.3624
  236MOL0     H31833   7.646   1.445   6.396  0.4182 -1.3577  0.0609
  236MOL0     H31834   7.633   1.643   6.258 -1.7284  0.0064  0.1599
  236MOL0     H31835   7.733   1.739   6.370 -4.3175  4.5427  1.0051
  236MOL0     H31836   7.467   1.619   6.449  3.5598 -2.3697  0.5649
  236MOL0     H31837   7.552   1.737   6.539 -0.7042  0.3098 -0.2927
  236MOL0     H31838   7.468   1.805   6.260  0.5258  1.2181 -0.3968
  236MOL0     H31839   7.510   1.915   6.387  2.5814 -0.6621 -0.6993
  236MOL0     H31840   7.328   1.841   6.544  0.4811  1.9881 -0.7300
  236MOL0     H31841   7.255   1.740   6.428 -0.0128  0.7468  0.3647
  236MOL0     H31842   8.130   1.069   6.625 -1.2961  2.4762 -0.9474
  236MOL0     H31843   8.189   0.938   6.845  2.1384 -0.1235 -2.1563
  236MOL0     H31844   8.117   0.800   7.193  1.2678 -0.8326  0.4132
  236MOL0     H31845   8.025   0.648   7.379 -1.2391 -0.3838  0.2716
  236MOL0     H31846   7.853   0.126   8.118 -0.4643  0.1541 -0.8825
  236MOL0     H31847   7.960   0.359   8.124 -0.5279  2.4545  2.2924
  236MOL0     H31848   8.016   0.745   8.178 -0.8237 -1.9582 -3.2458
  236MOL0     H31849   8.162   0.924   8.212  1.1101  1.2878 -0.6802
  236MOL0     H31850   8.103   1.296   7.963  2.4923  1.8638 -0.5864
  236MOL0     H31851   8.122   1.330   8.133 -1.3996  2.6133 -1.9575
  236MOL0     H31852   8.335   1.225   7.948 -3.3545 -0.4390 -1.8456
  236MOL0     H31853   8.375   1.333   8.083  0.4837  0.2630 -0.1033
  236MOL0     H31854   8.276   1.409   7.808  2.6207 -2.1017 -0.9476
  236MOL0     H31855   8.429   1.454   7.876 -1.0994 -0.2479 -2.5298
  236MOL0     H31856   8.159   1.574   7.968 -0.0196  3.0004  1.2873
  236MOL0     H31857   8.274   1.668   7.904 -1.4961  3.3768  5.3850
  236MOL0     H31858   8.298   1.706   8.294 -3.6002 -0.5299  0.4520
  236MOL0     H31859   7.964   1.136   7.899  5.3728 -0.4957 -1.0473
  236MOL0     H31860   7.809   0.944   7.873  0.9714 -1.1311 -0.6939
  237MOL0     O31861   0.707   0.905   1.908 -0.3201  0.4633 -1.0568
  237MOL0     C31862   0.695   0.787   1.945  0.5961  0.1896  0.5647
  237MOL0     O31863   0.633   0.688   1.870 -0.4398 -0.2767  0.5829
  237MOL0     C31864   0.576   0.706   1.747  0.6223  0.8131  1.1704
  237MOL0     C31865   0.509   0.813   1.710 -0.9516 -0.1226  0.3798
  237MOL0     C31866   0.436   0.818   1.593  0.3273 -0.0978  0.0423
  237MOL0     C31867   0.430   0.713   1.499 -0.0091  0.1397  0.0753
  237MOL0     O31868   0.367   0.721   1.384  0.3810  0.0074  0.2027
  237MOL0     C31869   0.409   0.789   1.271  0.9808 -0.5816 -0.4162
  237MOL0     C31870   0.462   0.694   1.168 -0.6027  0.2710  0.1548
  237MOL0     C31871   0.500   0.783   1.044 -0.0859 -0.5400 -0.4658
  237MOL0     C31872   0.597   0.716   0.946 -1.3716  0.0131 -0.7685
  237MOL0     C31873   0.648   0.814   0.838  0.0626 -0.3974 -0.1375
  237MOL0     C31874   0.790   0.877   0.857 -0.6614  0.9303  0.0218
  237MOL0     C31875   0.906   0.769   0.869 -0.3430 -0.3902 -1.0287
  237MOL0     C31876   0.929   0.681   0.742  0.0151  0.1534 -0.3825
  237MOL0     N31877   1.015   0.570   0.784 -0.4262  0.2276 -0.1404
  237MOL0     C31878   0.949   0.472   0.859  0.3897  0.2114 -0.0212
  237MOL0     C31879   1.051   0.399   0.904  0.6141  0.5310 -0.2390
  237MOL0     C31880   1.032   0.273   0.980 -0.6239  0.1510  0.9792
  237MOL0     C31881   1.077   0.287   1.116 -0.9834 -0.7342 -0.1692
  237MOL0     C31882   1.003   0.400   1.179  0.1885  0.1743  0.2973
  237MOL0     C31883   1.022   0.433   1.325 -0.3502 -1.1249 -0.0560
  237MOL0     O31884   0.975   0.328   1.414 -0.2535  0.6694  0.3389
  237MOL0     C31885   0.984   0.338   1.551  0.1732 -0.0175  0.0667
  237MOL0     C31886   1.002   0.465   1.621  0.1788  0.1576  0.4198
  237MOL0     C31887   1.029   0.465   1.758 -0.3773 -0.2896  0.2150
  237MOL0     C31888   1.045   0.600   1.809 -1.0514  0.4711  0.4126
  237MOL0     C31889   1.049   0.345   1.828 -0.2459  0.7872 -0.7891
  237MOL0     C31890   1.108   0.334   1.967 -0.3766 -0.1404 -0.8940
  237MOL0     O31891   1.140   0.207   2.020  0.6867  0.6053  0.8394
  237MOL0     C31892   1.196   0.199   2.142  0.1638 -0.3940 -0.1553
  237MOL0     C31893   1.133   0.230   2.266 -0.5003  0.8818 -0.3774
  237MOL0     C31894   1.209   0.223   2.388  0.1627  0.9804  0.6383
  237MOL0     C31895   1.335   0.171   2.386 -0.0772  0.1864 -0.4612
  237MOL0     O31896   1.413   0.145   2.497  0.3769 -0.0551  0.2902
  237MOL0     C31897   1.359   0.147   2.629 -0.6168  0.6503 -0.6770
  237MOL0     C31898   1.379   0.284   2.685  0.1205  0.4161 -0.4552
  237MOL0     C31899   1.397   0.281   2.841  0.0179  1.4527  0.6174
  237MOL0     C31900   1.265   0.254   2.921  1.0264 -0.3009  0.5055
  237MOL0     C31901   1.308   0.215   3.057 -0.2262  0.7392 -0.0282
  237MOL0     C31902   1.185   0.206   3.147 -0.1752 -0.3557  0.5715
  237MOL0     C31903   1.219   0.140   3.277  0.1297  0.1778  0.2696
  237MOL0     C31904   1.093   0.114   3.353  0.5464  0.7446  0.1066
  237MOL0    Cl31905   1.154   0.031   3.499 -0.2299 -0.0005 -0.1156
  237MOL0     C31906   1.385   0.131   2.265 -0.2108 -0.5392  0.1474
  237MOL0     C31907   1.319   0.142   2.145  0.1119 -0.6777  0.3317
  237MOL0     O31908   1.139   0.439   2.025 -0.2041  0.6864 -0.3471
  237MOL0     C31909   1.023   0.225   1.765 -0.6208 -0.5421 -0.1994
  237MOL0     C31910   0.989   0.222   1.627 -0.2307 -0.8601  0.6269
  237MOL0     N31911   1.174   0.451   0.867 -0.4780 -0.6480  0.4406
  237MOL0     N31912   1.151   0.563   0.798 -0.3788  0.2692  0.0411
  237MOL0     C31913   0.495   0.597   1.542 -1.4386  0.5147 -0.4614
  237MOL0     C31914   0.562   0.592   1.669  0.1068 -0.6331  0.0578
  237MOL0     C31915   0.769   0.739   2.059 -1.0762  0.8049 -0.4962
  237MOL0     C31916   0.814   0.827   2.169 -0.3999  0.3518  0.7099
  237MOL0     C31917   0.891   0.788   2.276 -0.3893 -0.3985 -0.2700
  237MOL0     C31918   0.938   0.654   2.277 -0.7165 -0.1492  1.0029
  237MOL0     O31919   1.018   0.598   2.373  0.0042 -0.3155  0.0100
  237MOL0     C31920   0.959   0.620   2.498  0.7154 -0.5745 -0.0490
  237MOL0     C31921   1.037   0.546   2.610 -0.6379  0.4109 -0.0190
  237MOL0     C31922   0.952   0.491   2.729 -0.3703 -0.5385  0.0912
  237MOL0     C31923   0.851   0.388   2.685  0.5674 -0.2527  0.4352
  237MOL0     C31924   0.718   0.446   2.686  0.2867  0.0222 -0.1768
  237MOL0     C31925   0.604   0.490   2.667  0.6564 -0.4650 -0.3474
  237MOL0     C31926   0.899   0.561   2.176  0.3619 -0.7888 -0.5807
  237MOL0     C31927   0.810   0.605   2.080  0.0970 -0.3219 -0.3495
  237MOL0     H31928   0.492   0.895   1.779 -1.1791 -1.1370  1.5682
  237MOL0     H31929   0.366   0.899   1.572  2.2204  1.6186  0.0249
  237MOL0     H31930   0.329   0.848   1.225  1.9927  1.7123  0.5864
  237MOL0     H31931   0.473   0.874   1.295 -2.6800  2.4060 -0.2504
  237MOL0     H31932   0.547   0.644   1.215 -2.3741 -1.8769  1.2658
  237MOL0     H31933   0.386   0.621   1.138  0.0511 -0.6272  0.6464
  237MOL0     H31934   0.412   0.804   0.982 -0.0999  1.7706  0.2256
  237MOL0     H31935   0.542   0.880   1.074  1.4354 -1.1370 -0.5817
  237MOL0     H31936   0.677   0.671   1.006 -2.3002 -3.2715 -1.7592
  237MOL0     H31937   0.551   0.633   0.891  0.2840 -1.5590  0.1191
  237MOL0     H31938   0.634   0.764   0.742  1.8924 -0.7817 -0.2395
  237MOL0     H31939   0.584   0.902   0.832  2.8580  1.6845 -2.2624
  237MOL0     H31940   0.809   0.947   0.775  2.4093 -1.3299 -1.3892
  237MOL0     H31941   0.788   0.918   0.958 -1.6300  1.2590 -0.1179
  237MOL0     H31942   0.994   0.825   0.903  1.0874 -2.6906 -0.7120
  237MOL0     H31943   0.883   0.696   0.947  0.3386 -1.1847 -1.5528
  237MOL0     H31944   0.990   0.735   0.669  3.0439  0.2446  2.0448
  237MOL0     H31945   0.841   0.637   0.694  1.4849  0.0283 -3.1854
  237MOL0     H31946   0.842   0.455   0.869  0.6278 -2.7930 -1.6095
  237MOL0     H31947   0.924   0.255   0.987 -0.9272  2.0799  2.3662
  237MOL0     H31948   1.085   0.191   0.930  1.1647  2.6306 -1.4735
  237MOL0     H31949   1.179   0.328   1.116 -1.4034  0.3368 -0.1072
  237MOL0     H31950   1.072   0.194   1.174 -0.1384 -1.7333 -1.6190
  237MOL0     H31951   0.897   0.388   1.156  0.2064 -0.3988  0.4918
  237MOL0     H31952   1.033   0.491   1.126  0.3519 -0.3795 -0.5919
  237MOL0     H31953   0.960   0.522   1.340 -1.1163 -1.1279 -2.6795
  237MOL0     H31954   1.127   0.459   1.337 -0.6568  0.8915 -1.2465
  237MOL0     H31955   1.012   0.552   1.556 -3.7856 -0.3576 -1.2082
  237MOL0     H31956   0.979   0.600   1.897 -1.2264 -2.3186  0.3669
  237MOL0     H31957   1.151   0.600   1.837 -0.8131 -6.2876  1.2732
  237MOL0     H31958   1.006   0.684   1.751 -1.8857 -0.1274  0.0808
  237MOL0     H31959   1.035   0.276   2.258  0.3192  2.4232 -2.4228
  237MOL0     H31960   1.164   0.247   2.484  1.9004  1.0868  1.4727
  237MOL0     H31961   1.254   0.120   2.623 -0.5047  0.5541 -2.6220
  237MOL0     H31962   1.416   0.070   2.682  0.7128  0.9207 -1.6513
  237MOL0     H31963   1.470   0.333   2.649  1.2533 -0.6086  0.8866
  237MOL0     H31964   1.287   0.337   2.660 -1.4888 -3.1019 -2.8140
  237MOL0     H31965   1.427   0.382   2.870 -0.5244  2.1901 -1.2522
  237MOL0     H31966   1.474   0.205   2.862 -1.0310 -0.0646 -0.7691
  237MOL0     H31967   1.187   0.331   2.923 -0.5636 -1.8073  3.4538
  237MOL0     H31968   1.215   0.164   2.882 -2.9404 -0.2302  4.5403
  237MOL0     H31969   1.382   0.287   3.094  2.7839 -1.8782 -0.5108
  237MOL0     H31970   1.352   0.117   3.038  2.2976  2.0707 -1.7241
  237MOL0     H31971   1.157   0.311   3.161  1.6781  0.2918 -0.2744
  237MOL0     H31972   1.106   0.150   3.096 -0.5058  0.3717  0.2666
  237MOL0     H31973   1.273   0.217   3.334 -0.2326 -0.4110  1.4262
  237MOL0     H31974   1.273   0.046   3.269 -1.7490 -0.9743  0.6265
  237MOL0     H31975   1.025   0.043   3.304 -0.1077  0.0251  1.9671
  237MOL0     H31976   1.029   0.198   3.380  0.6674  0.7569  0.3653
  237MOL0     H31977   1.477   0.074   2.273  1.2401  1.7935  1.4343
  237MOL0     H31978   1.353   0.102   2.050 -1.7061 -1.1043 -0.1720
  237MOL0     H31979   1.051   0.128   1.805 -1.9402 -1.2390 -0.9029
  237MOL0     H31980   0.985   0.122   1.585 -2.2584 -0.4758 -0.2504
  237MOL0     H31981   0.500   0.513   1.474  1.2877  1.2613 -1.3079
  237MOL0     H31982   0.603   0.502   1.715 -0.1104  0.1263  1.8569
  237MOL0     H31983   0.772   0.927   2.157 -3.6133 -0.9183  0.3516
  237MOL0     H31984   0.922   0.867   2.344  0.6580 -1.5324  0.6116
  237MOL0     H31985   0.973   0.726   2.519 -1.8470 -0.8722  4.2669
  237MOL0     H31986   0.856   0.583   2.495  0.9788 -1.2558 -2.5906
  237MOL0     H31987   1.110   0.612   2.659  0.0012 -0.6932  0.5593
  237MOL0     H31988   1.096   0.461   2.574  0.2450  1.3320 -0.8240
  237MOL0     H31989   0.899   0.575   2.774  0.2810  0.3201 -0.6753
  237MOL0     H31990   1.005   0.451   2.816  1.1386  0.7124 -0.1895
  237MOL0     H31991   0.855   0.297   2.746 -0.4094  1.0334  2.5461
  237MOL0     H31992   0.888   0.363   2.586  0.3758 -0.4711  0.4181
  237MOL0     H31993   0.503   0.519   2.645  1.0324  0.1974 -1.2544
  237MOL0     H31994   0.949   0.465   2.183  0.7824 -0.5971 -0.8662
  237MOL0     H31995   0.772   0.525   2.017  0.7214 -0.5841 -0.3931
  238MOL0     O31996   6.027   9.101   5.107  1.0546  0.2670  0.1053
  238MOL0     C31997   6.115   9.019   5.118  0.3700 -0.3430  1.3330
  238MOL0     O31998   6.199   8.967   5.018  0.1127  0.5303 -0.5467
  238MOL0     C31999   6.180   9.018   4.892 -0.9136 -0.1059  0.3315
  238MOL0     C32000   6.085   8.960   4.802 -0.1917 -0.9415  0.5117
  238MOL0     C32001   6.061   9.024   4.683  0.0989 -0.2377  0.1314
  238MOL0     C32002   6.135   9.137   4.642  0.5428  0.2314 -0.4400
  238MOL0     O32003   6.130   9.192   4.522 -0.4568  0.3283 -0.2775
  238MOL0     C32004   6.019   9.163   4.437 -0.2630  0.5357 -1.0926
  238MOL0     C32005   6.017   9.236   4.313  0.7987  0.5883  1.2987
  238MOL0     C32006   6.139   9.201   4.225  0.1522  0.6652 -1.2619
  238MOL0     C32007   6.131   9.261   4.078 -1.0864  1.5401  0.5065
  238MOL0     C32008   6.252   9.215   3.999 -0.4019  0.3762 -0.3516
  238MOL0     C32009   6.229   9.074   3.934  0.2676  0.1126  0.3959
  238MOL0     C32010   6.363   9.012   3.905 -0.5149  0.4647  0.6872
  238MOL0     C32011   6.372   8.870   3.840 -0.1683  0.5070  0.4921
  238MOL0     N32012   6.381   8.765   3.934  0.5603  0.7681 -0.2485
  238MOL0     C32013   6.269   8.723   4.021  0.2230  0.4801  0.1758
  238MOL0     C32014   6.320   8.616   4.088  1.2526  0.1482 -0.2126
  238MOL0     C32015   6.256   8.542   4.203 -0.3442  0.5248 -1.0027
  238MOL0     C32016   6.158   8.627   4.288  0.4071  0.2785 -0.4119
  238MOL0     C32017   6.222   8.745   4.371  0.9344 -0.1385  0.2871
  238MOL0     C32018   6.313   8.716   4.487  0.5504 -0.4760  0.0731
  238MOL0     O32019   6.415   8.809   4.526 -0.0840  0.7649  0.3365
  238MOL0     C32020   6.477   8.889   4.431 -1.2242 -0.2087 -0.2413
  238MOL0     C32021   6.501   9.018   4.465 -0.5424 -0.6504 -0.4046
  238MOL0     C32022   6.564   9.108   4.381 -0.1778  0.4277  0.1735
  238MOL0     C32023   6.577   9.254   4.436  0.1637 -0.0612  0.6853
  238MOL0     C32024   6.616   9.055   4.256 -0.2490 -0.0011  0.5149
  238MOL0     C32025   6.676   9.156   4.159 -0.3606 -0.6094 -0.3494
  238MOL0     O32026   6.728   9.275   4.196  0.6976 -0.1173  0.2864
  238MOL0     C32027   6.798   9.360   4.111  0.1976 -0.4823 -0.5480
  238MOL0     C32028   6.746   9.394   3.983 -0.0187  0.6879 -0.5726
  238MOL0     C32029   6.820   9.472   3.889  1.1440 -0.3309 -0.3632
  238MOL0     C32030   6.953   9.512   3.921 -0.5514  0.1588  0.0286
  238MOL0     O32031   7.030   9.574   3.822 -0.1043  0.6583 -0.1036
  238MOL0     C32032   6.993   9.706   3.796 -0.2718 -0.8421 -0.1186
  238MOL0     C32033   6.931   9.729   3.658 -0.0303 -0.2120 -0.2496
  238MOL0     C32034   6.869   9.870   3.645 -0.4601 -0.3676 -1.2169
  238MOL0     C32035   6.970   9.974   3.607 -0.2997  0.9361  0.3616
  238MOL0     C32036   6.903  10.113   3.610  0.8190  0.0784  0.0705
  238MOL0     C32037   7.003  10.218   3.608 -1.3813  0.1007  0.2814
  238MOL0     C32038   6.950  10.345   3.665  0.2872  0.4077  0.0290
  238MOL0     C32039   6.874  10.415   3.550 -0.3343  0.0302 -0.2775
  238MOL0    Cl32040   6.778  10.562   3.595 -0.0045  0.2059  0.0299
  238MOL0     C32041   7.009   9.456   4.041 -1.0427  0.5930  0.1154
  238MOL0     C32042   6.933   9.388   4.132  0.4692  0.3690 -0.3220
  238MOL0     O32043   6.675   9.118   4.041  0.2518  0.4151 -0.4142
  238MOL0     C32044   6.604   8.920   4.222  1.6145  0.8668  0.4566
  238MOL0     C32045   6.535   8.840   4.309 -0.0487  0.2024 -0.0950
  238MOL0     N32046   6.460   8.605   4.055  0.9067 -0.1197 -0.5006
  238MOL0     N32047   6.492   8.695   3.966 -0.3071  0.4677 -0.1048
  238MOL0     C32048   6.231   9.188   4.724  0.5377  0.2465 -0.9758
  238MOL0     C32049   6.253   9.134   4.851  0.0747  0.4863 -0.3024
  238MOL0     C32050   6.129   8.957   5.251  0.0108 -0.9788  0.6898
  238MOL0     C32051   6.136   8.824   5.260  0.9931  0.4168 -0.1958
  238MOL0     C32052   6.143   8.759   5.383 -0.2003 -0.2278  0.3544
  238MOL0     C32053   6.148   8.827   5.496 -0.8735  0.4734 -0.1956
  238MOL0     O32054   6.179   8.751   5.612  0.2766 -0.9590  0.0900
  238MOL0     C32055   6.137   8.809   5.737 -0.8188  0.9814 -0.4308
  238MOL0     C32056   6.266   8.821   5.828 -0.6025  0.1574 -0.1919
  238MOL0     C32057   6.397   8.882   5.766  0.4047  1.0898 -0.6629
  238MOL0     C32058   6.534   8.819   5.812  0.0671 -0.3056 -0.0522
  238MOL0     C32059   6.551   8.855   5.957 -0.2762  0.4708 -1.5114
  238MOL0     C32060   6.543   8.887   6.076 -0.4045 -0.0001 -0.0033
  238MOL0     C32061   6.143   8.963   5.490 -0.9184 -0.6591 -0.1250
  238MOL0     C32062   6.135   9.030   5.367 -0.6227  0.2274  1.3159
  238MOL0     H32063   6.027   8.873   4.832 -1.1697 -0.7995 -0.8800
  238MOL0     H32064   5.980   8.993   4.618  0.1343  0.8514 -0.4437
  238MOL0     H32065   6.014   9.057   4.409  1.3104 -0.3490  1.6060
  238MOL0     H32066   5.921   9.177   4.484 -0.7942  0.6506 -2.1825
  238MOL0     H32067   5.920   9.215   4.267  0.9784  5.0598 -1.9140
  238MOL0     H32068   6.007   9.342   4.340 -0.4669  1.2002 -1.1940
  238MOL0     H32069   6.222   9.238   4.288 -1.6125  0.1198  1.5581
  238MOL0     H32070   6.157   9.094   4.234 -0.6306  0.6563  0.8000
  238MOL0     H32071   6.041   9.249   4.017  1.2007  0.1438 -2.9886
  238MOL0     H32072   6.156   9.367   4.088  5.4870  0.4852  0.0531
  238MOL0     H32073   6.274   9.285   3.918  0.6046 -0.1003 -0.5044
  238MOL0     H32074   6.342   9.220   4.061  1.4248  1.4927 -2.9034
  238MOL0     H32075   6.181   9.014   4.011  1.0572  1.3215  1.8982
  238MOL0     H32076   6.167   9.089   3.845 -0.8926 -0.5398  1.0707
  238MOL0     H32077   6.427   9.090   3.863  0.2855  0.0222  1.0456
  238MOL0     H32078   6.402   9.009   4.008 -1.6440  1.1215  1.1501
  238MOL0     H32079   6.454   8.884   3.770  1.3431  0.9076  2.2624
  238MOL0     H32080   6.283   8.848   3.781  0.5912  0.7430 -0.7694
  238MOL0     H32081   6.167   8.758   4.013 -0.4908 -1.5788 -0.3293
  238MOL0     H32082   6.207   8.452   4.165 -0.4090 -1.6077  3.4218
  238MOL0     H32083   6.335   8.496   4.264  1.0162  0.3847 -2.8042
  238MOL0     H32084   6.092   8.576   4.359  2.7165  0.4479  2.0359
  238MOL0     H32085   6.087   8.661   4.213 -0.8162 -0.5489  0.3224
  238MOL0     H32086   6.136   8.794   4.417  1.3275  2.7096 -1.7596
  238MOL0     H32087   6.269   8.822   4.309 -0.6052  1.1762  0.7048
  238MOL0     H32088   6.357   8.618   4.473  3.7120  0.9216 -0.5501
  238MOL0     H32089   6.243   8.705   4.571 -0.3899 -1.7042 -0.8270
  238MOL0     H32090   6.475   9.057   4.563 -0.0509 -2.2847  0.4024
  238MOL0     H32091   6.534   9.280   4.533 -0.6618  2.6319 -0.3049
  238MOL0     H32092   6.684   9.268   4.452 -0.3333  2.8725  2.1690
  238MOL0     H32093   6.527   9.327   4.372 -1.7321 -1.1758  0.7963
  238MOL0     H32094   6.643   9.372   3.959  0.3801 -3.3515  0.5835
  238MOL0     H32095   6.765   9.497   3.800  1.5046 -1.0454 -0.7991
  238MOL0     H32096   6.925   9.744   3.872 -0.5873 -0.2957 -0.6628
  238MOL0     H32097   7.080   9.772   3.808 -0.1975 -1.4954  6.2333
  238MOL0     H32098   7.001   9.718   3.575  0.7486  1.5318  0.1243
  238MOL0     H32099   6.851   9.654   3.651  1.5101 -2.1228  1.2816
  238MOL0     H32100   6.849   9.896   3.750  2.1906  0.2481 -0.7664
  238MOL0     H32101   6.778   9.872   3.586 -3.1853  2.5847  2.5724
  238MOL0     H32102   7.049   9.974   3.683  1.1281 -1.0770 -1.0432
  238MOL0     H32103   7.002   9.949   3.506  2.2277 -1.0843  1.5790
  238MOL0     H32104   6.829  10.121   3.690  0.0403  0.8315 -0.7044
  238MOL0     H32105   6.840  10.140   3.525 -0.5810 -2.0480  0.3511
  238MOL0     H32106   7.091  10.196   3.669 -1.3247 -1.1834 -0.2389
  238MOL0     H32107   7.036  10.226   3.504  3.5128 -0.0075  1.5988
  238MOL0     H32108   7.031  10.414   3.690  0.6551 -0.9969  3.3316
  238MOL0     H32109   6.897  10.319   3.758  1.4598 -2.4865 -0.0047
  238MOL0     H32110   6.803  10.345   3.505 -0.6304 -0.0424  0.2953
  238MOL0     H32111   6.948  10.452   3.479 -1.6592 -1.1966 -2.4201
  238MOL0     H32112   7.112   9.479   4.066 -0.6236 -1.4799  0.4302
  238MOL0     H32113   6.983   9.338   4.215  3.4936 -0.9293 -2.7280
  238MOL0     H32114   6.640   8.874   4.131 -1.8606  0.3769 -0.8052
  238MOL0     H32115   6.537   8.736   4.279  3.4612 -0.4156  1.7593
  238MOL0     H32116   6.276   9.273   4.674  2.0072 -1.3224 -2.4685
  238MOL0     H32117   6.326   9.178   4.917 -0.6650 -1.3611  1.8530
  238MOL0     H32118   6.128   8.760   5.172 -2.1711  0.4247 -0.0407
  238MOL0     H32119   6.150   8.651   5.391 -0.9662 -0.3209 -0.1273
  238MOL0     H32120   6.089   8.907   5.728  3.4316  3.4443  0.3714
  238MOL0     H32121   6.079   8.740   5.798  1.8937  1.4432  3.0253
  238MOL0     H32122   6.285   8.717   5.857 -0.2917 -0.1340 -1.3769
  238MOL0     H32123   6.230   8.882   5.910 -0.6465 -0.3955  0.2084
  238MOL0     H32124   6.401   8.986   5.799 -0.6174  0.2568  2.4422
  238MOL0     H32125   6.390   8.883   5.657  0.4309  1.4431 -0.6607
  238MOL0     H32126   6.612   8.869   5.755 -1.4709  2.3938  0.0730
  238MOL0     H32127   6.549   8.714   5.786  0.2533  0.1662 -1.9990
  238MOL0     H32128   6.529   8.921   6.177  4.3449 -1.7188  1.5221
  238MOL0     H32129   6.147   9.027   5.578 -4.4241 -0.9806  0.4154
  238MOL0     H32130   6.142   9.138   5.359  0.2119  0.1367  0.7568
  239MOL0     O32131   8.194   3.656   7.321  0.0697  0.9600 -0.4142
  239MOL0     C32132   8.208   3.543   7.372  0.0401  0.1278 -0.8942
  239MOL0     O32133   8.116   3.474   7.450  0.2021  0.3228  0.3258
  239MOL0     C32134   8.023   3.541   7.524 -0.6948 -0.5162  0.1982
  239MOL0     C32135   7.900   3.482   7.565 -0.1447 -0.0473  0.0732
  239MOL0     C32136   7.806   3.542   7.653 -0.0456 -0.4490  1.3048
  239MOL0     C32137   7.833   3.664   7.695  1.1745  0.1702  0.4496
  239MOL0     O32138   7.733   3.721   7.774 -0.4912  0.4732 -0.7652
  239MOL0     C32139   7.757   3.715   7.916 -0.3791  0.7054  0.7307
  239MOL0     C32140   7.742   3.858   7.963 -0.4526  0.3485  0.7680
  239MOL0     C32141   7.747   3.870   8.117  0.2920 -0.0786 -0.2729
  239MOL0     C32142   7.884   3.835   8.175  0.0786 -0.2839  0.4055
  239MOL0     C32143   7.920   3.907   8.306 -0.4864 -0.7604  0.7177
  239MOL0     C32144   7.840   3.858   8.424  0.1521  0.4180  0.2222
  239MOL0     C32145   7.861   3.932   8.556 -0.0979  0.5137  0.8321
  239MOL0     C32146   8.013   3.943   8.604  0.5514 -0.4926  0.9865
  239MOL0     N32147   8.078   3.820   8.634 -0.5134  0.3286  0.3215
  239MOL0     C32148   8.054   3.742   8.751 -0.2466  0.3103  0.5405
  239MOL0     C32149   8.154   3.644   8.748  0.2982  0.6149 -0.2778
  239MOL0     C32150   8.186   3.541   8.855 -0.1756 -0.2120 -0.9007
  239MOL0     C32151   8.066   3.521   8.944  0.3540  0.1090 -0.7959
  239MOL0     C32152   8.097   3.423   9.054 -0.4371  0.6433  0.2587
  239MOL0     C32153   7.972   3.401   9.143 -0.6512 -0.2736 -0.7088
  239MOL0     O32154   7.862   3.353   9.074 -0.1371  0.3028  0.4995
  239MOL0     C32155   7.735   3.384   9.125  0.4004 -0.1752  0.8721
  239MOL0     C32156   7.630   3.378   9.030 -0.4261  0.3683  0.0753
  239MOL0     C32157   7.494   3.411   9.067 -1.1163 -0.4869 -0.0303
  239MOL0     C32158   7.394   3.414   8.947 -0.5336 -0.0280 -0.1671
  239MOL0     C32159   7.466   3.435   9.200 -0.2112 -0.4284 -0.5961
  239MOL0     C32160   7.322   3.469   9.234 -0.5492 -0.7405 -0.1429
  239MOL0     O32161   7.246   3.381   9.301 -0.0840  0.2176  0.0238
  239MOL0     C32162   7.120   3.422   9.330 -0.3110  0.1037  0.6860
  239MOL0     C32163   7.076   3.472   9.449  0.3820 -0.5520 -0.3663
  239MOL0     C32164   6.949   3.527   9.467 -0.1974  0.0771  0.1596
  239MOL0     C32165   6.850   3.506   9.372  0.2052 -0.4190  0.0243
  239MOL0     O32166   6.720   3.543   9.388  0.2807 -0.5069  0.3682
  239MOL0     C32167   6.610   3.467   9.330 -0.6014  1.7132  0.1408
  239MOL0     C32168   6.477   3.533   9.361 -0.7908  0.5775 -0.9797
  239MOL0     C32169   6.379   3.493   9.248  0.3398 -1.1780  0.0252
  239MOL0     C32170   6.243   3.543   9.291  0.0132  0.4956 -0.2170
  239MOL0     C32171   6.150   3.571   9.164  1.1888  0.4336  0.5474
  239MOL0     C32172   6.008   3.603   9.205  1.0872  0.0075  0.5776
  239MOL0     C32173   5.929   3.673   9.089  1.3979 -0.3606  0.9344
  239MOL0     C32174   5.885   3.572   8.981  0.0001  0.1889  0.3990
  239MOL0    Cl32175   5.761   3.451   9.030 -0.2052 -0.2144 -0.1927
  239MOL0     C32176   6.894   3.452   9.246 -0.5912 -0.5835 -0.1256
  239MOL0     C32177   7.025   3.419   9.226  0.4384 -1.4068  0.3892
  239MOL0     O32178   7.282   3.575   9.189  0.2460  0.3499  0.1650
  239MOL0     C32179   7.572   3.458   9.289  0.1541 -0.0429  0.6355
  239MOL0     C32180   7.710   3.429   9.249  0.2678 -1.2253 -0.2725
  239MOL0     N32181   8.237   3.667   8.640  0.1453  1.0993  0.8450
  239MOL0     N32182   8.193   3.776   8.580  0.0580  1.0249  0.4053
  239MOL0     C32183   7.945   3.731   7.658  0.5841  0.8365 -1.0049
  239MOL0     C32184   8.039   3.671   7.580  0.1187  0.1815 -0.5946
  239MOL0     C32185   8.319   3.469   7.317  0.6620  0.7720  0.2065
  239MOL0     C32186   8.338   3.331   7.353  0.4232 -0.0986 -0.3312
  239MOL0     C32187   8.433   3.254   7.278  0.0399 -0.2101 -0.8572
  239MOL0     C32188   8.522   3.317   7.193 -0.5444 -0.2864 -0.6083
  239MOL0     O32189   8.612   3.233   7.138 -0.6672  0.2557  0.3847
  239MOL0     C32190   8.737   3.289   7.085 -0.2615 -0.6308 -0.9927
  239MOL0     C32191   8.817   3.350   7.206  0.0947 -0.3946  0.3012
  239MOL0     C32192   8.799   3.268   7.346  1.6200 -0.3745  0.2196
  239MOL0     C32193   8.914   3.283   7.435 -0.5890 -0.2476 -0.9130
  239MOL0     C32194   8.916   3.179   7.536  1.1300  0.0586 -0.9575
  239MOL0     C32195   8.912   3.075   7.612  0.5213  0.2611  0.1621
  239MOL0     C32196   8.501   3.450   7.154 -0.3678 -0.2817 -0.8399
  239MOL0     C32197   8.403   3.525   7.218 -0.0572  0.6040  0.8764
  239MOL0     H32198   7.888   3.379   7.532  1.7641 -0.6202  1.0440
  239MOL0     H32199   7.716   3.485   7.673  0.4314 -1.3438  0.9603
  239MOL0     H32200   7.684   3.641   7.951  0.3794 -1.4199 -1.8558
  239MOL0     H32201   7.855   3.674   7.944  0.1335  0.3074 -1.4449
  239MOL0     H32202   7.824   3.918   7.924 -0.2224  0.1835  1.0016
  239MOL0     H32203   7.646   3.898   7.929  0.5365  2.0264 -0.1604
  239MOL0     H32204   7.719   3.973   8.141 -0.8365 -0.2503 -0.7549
  239MOL0     H32205   7.664   3.817   8.165 -1.9503  2.1759 -1.3981
  239MOL0     H32206   7.874   3.727   8.190 -2.2149 -0.0867  0.6249
  239MOL0     H32207   7.961   3.871   8.106  1.1198  0.1449  1.7517
  239MOL0     H32208   8.028   3.895   8.321 -0.3133 -0.7158 -0.3522
  239MOL0     H32209   7.909   4.015   8.297  0.3388 -0.5799  1.6621
  239MOL0     H32210   7.733   3.852   8.403  0.1186 -2.1079  0.7833
  239MOL0     H32211   7.874   3.757   8.448  0.2694  0.4556  0.2114
  239MOL0     H32212   7.815   4.031   8.548  2.6315  1.7326 -1.0367
  239MOL0     H32213   7.803   3.880   8.634 -1.7985  0.8047 -0.2014
  239MOL0     H32214   8.015   4.006   8.693  4.7964  0.5231  0.3557
  239MOL0     H32215   8.060   3.998   8.522  1.5134 -2.4633  0.1505
  239MOL0     H32216   8.002   3.770   8.842  2.4589  3.8816  1.2010
  239MOL0     H32217   8.204   3.440   8.817  1.8836 -1.8843  3.6658
  239MOL0     H32218   8.267   3.565   8.925 -0.1677  0.3195 -1.0859
  239MOL0     H32219   7.983   3.477   8.887 -0.6315 -1.1486  1.4944
  239MOL0     H32220   8.040   3.616   8.992 -0.9636 -1.6668  2.3031
  239MOL0     H32221   8.189   3.447   9.108  0.9700  0.4206 -1.9064
  239MOL0     H32222   8.119   3.318   9.030  0.0757  0.0558  2.9927
  239MOL0     H32223   7.951   3.504   9.171 -2.0717 -0.7969  0.2495
  239MOL0     H32224   8.008   3.344   9.229 -1.0250  0.3969 -0.0949
  239MOL0     H32225   7.642   3.340   8.929 -1.4196 -0.0114  0.0815
  239MOL0     H32226   7.305   3.471   8.977 -1.0617 -2.0525  2.4749
  239MOL0     H32227   7.450   3.470   8.871 -2.9331 -0.3938 -2.3329
  239MOL0     H32228   7.354   3.321   8.907 -2.4501  1.5453 -2.1859
  239MOL0     H32229   7.149   3.503   9.523 -2.6118  0.8926  2.2658
  239MOL0     H32230   6.917   3.592   9.548 -3.8269 -1.6017  0.2803
  239MOL0     H32231   6.604   3.445   9.223  1.1508  0.3391  0.2815
  239MOL0     H32232   6.622   3.365   9.369  2.2728  1.2993 -1.5183
  239MOL0     H32233   6.451   3.494   9.460 -0.2464  1.1474 -0.6024
  239MOL0     H32234   6.491   3.642   9.364  1.3395  0.3356  0.2209
  239MOL0     H32235   6.382   3.385   9.230 -1.0962 -1.1382 -0.5547
  239MOL0     H32236   6.412   3.535   9.153  0.3565 -0.1220  0.4772
  239MOL0     H32237   6.188   3.472   9.355  1.0399  0.6292  0.8305
  239MOL0     H32238   6.243   3.640   9.340  1.0657  1.5584 -2.2196
  239MOL0     H32239   6.155   3.483   9.099 -3.1478  0.1529  0.2885
  239MOL0     H32240   6.180   3.655   9.102 -0.7707  0.4012 -0.5131
  239MOL0     H32241   5.949   3.522   9.249  0.8897  0.4550  1.1516
  239MOL0     H32242   6.018   3.682   9.280  2.2869  1.2068 -0.7736
  239MOL0     H32243   5.985   3.755   9.043  2.0296 -2.0274 -1.4818
  239MOL0     H32244   5.842   3.724   9.131  0.6068 -0.2964 -0.7070
  239MOL0     H32245   5.971   3.515   8.944 -2.0004 -2.7181 -0.0643
  239MOL0     H32246   5.838   3.622   8.896 -0.7465  1.9350  1.7815
  239MOL0     H32247   6.817   3.435   9.172  0.1360  0.1622 -1.0903
  239MOL0     H32248   7.067   3.386   9.131  0.4790  0.7407 -0.4011
  239MOL0     H32249   7.535   3.489   9.387 -1.1344 -0.6083  0.3416
  239MOL0     H32250   7.795   3.455   9.312  1.0132 -0.6172 -1.5013
  239MOL0     H32251   7.974   3.824   7.706  0.3783 -0.2238  1.3652
  239MOL0     H32252   8.130   3.727   7.557  1.0355 -0.6971  0.7574
  239MOL0     H32253   8.282   3.274   7.426  3.2496 -0.5511  1.6700
  239MOL0     H32254   8.455   3.150   7.298 -0.9016 -0.3838 -0.6781
  239MOL0     H32255   8.792   3.208   7.036 -1.1217 -0.4819 -2.2603
  239MOL0     H32256   8.722   3.373   7.017 -0.1651  2.8448  2.8655
  239MOL0     H32257   8.803   3.458   7.219 -0.1284 -0.4680  0.6885
  239MOL0     H32258   8.922   3.347   7.177  0.2389  3.7167 -0.1748
  239MOL0     H32259   8.784   3.162   7.322 -0.0874 -0.6511  2.2438
  239MOL0     H32260   8.709   3.293   7.403 -1.8971 -4.2442 -2.9700
  239MOL0     H32261   8.894   3.381   7.480  1.4726 -0.8332  1.4773
  239MOL0     H32262   9.013   3.286   7.388  0.8929 -0.4384  1.9967
  239MOL0     H32263   8.910   2.979   7.661 -1.9664 -0.0408 -0.4057
  239MOL0     H32264   8.557   3.506   7.079  0.3339 -1.4100 -1.1812
  239MOL0     H32265   8.390   3.628   7.186 -0.7813 -0.1335 -1.3957
  240MOL0     O32266   4.299   8.837  10.328 -0.7480 -0.3716  0.5871
  240MOL0     C32267   4.302   8.892  10.441  0.9139 -0.7133 -0.1664
  240MOL0     O32268   4.197   8.899  10.523  0.2740 -0.1364  0.3323
  240MOL0     C32269   4.073   8.869  10.465 -1.2535  1.2765 -0.1406
  240MOL0     C32270   4.005   8.738  10.468  0.1720  0.0178  0.4839
  240MOL0     C32271   3.889   8.706  10.401  0.3345  0.2281 -0.3954
  240MOL0     C32272   3.826   8.803  10.325 -0.7717 -0.1467 -0.6310
  240MOL0     O32273   3.706   8.772  10.265 -0.0433  0.0202 -0.4759
  240MOL0     C32274   3.699   8.747  10.119 -0.2411 -0.3093  0.3384
  240MOL0     C32275   3.769   8.612  10.104  0.2783 -0.4805 -0.2260
  240MOL0     C32276   3.706   8.501  10.200  0.0708 -0.1439  0.1492
  240MOL0     C32277   3.806   8.387  10.222 -0.0509  0.2451  0.6271
  240MOL0     C32278   3.729   8.270  10.283 -0.8285 -0.3144 -0.9311
  240MOL0     C32279   3.824   8.173  10.361 -0.0232  0.2481 -0.1199
  240MOL0     C32280   3.921   8.082  10.273 -0.1447 -0.9912 -0.0809
  240MOL0     C32281   3.908   7.937  10.301  0.8856  0.4293 -0.2539
  240MOL0     N32282   3.913   7.903  10.447 -0.3436 -0.0201 -0.2515
  240MOL0     C32283   4.008   7.935  10.541  0.5420  0.3268  0.3494
  240MOL0     C32284   3.970   7.881  10.661  0.4873 -0.3052  0.5201
  240MOL0     C32285   4.033   7.920  10.792  0.3685 -1.3146  0.3180
  240MOL0     C32286   4.017   8.073  10.817 -0.2156 -0.9709 -1.4456
  240MOL0     C32287   3.963   8.087  10.964 -0.0217  0.4966  0.2114
  240MOL0     C32288   4.068   8.082  11.079 -0.9164 -0.3850  0.3317
  240MOL0     O32289   4.002   8.062  11.200  0.4303 -0.0090 -0.1895
  240MOL0     C32290   4.034   7.935  11.257  0.0320  0.6833 -0.0888
  240MOL0     C32291   3.937   7.853  11.307 -0.2547  0.0147  0.3663
  240MOL0     C32292   3.964   7.732  11.363  0.3929 -0.0134 -0.6210
  240MOL0     C32293   3.833   7.661  11.415  0.1632 -0.1373  0.4215
  240MOL0     C32294   4.102   7.681  11.373  0.4348  0.0030 -0.8674
  240MOL0     C32295   4.145   7.544  11.420  0.4161  0.2202 -0.3169
  240MOL0     O32296   4.275   7.519  11.411 -0.3213  0.4046  0.3108
  240MOL0     C32297   4.333   7.403  11.462  0.4769 -0.5453 -0.2711
  240MOL0     C32298   4.291   7.309  11.566 -0.2522 -0.0141  0.1157
  240MOL0     C32299   4.370   7.211  11.619 -0.2386 -0.0050 -1.1740
  240MOL0     C32300   4.497   7.183  11.574  0.2910  0.0483  0.8249
  240MOL0     O32301   4.567   7.072  11.622 -0.4518  0.7683 -0.6591
  240MOL0     C32302   4.496   6.972  11.707 -0.2338 -0.8222  0.2812
  240MOL0     C32303   4.591   6.844  11.716  0.0023  1.2188 -1.0774
  240MOL0     C32304   4.526   6.718  11.738 -0.1244  0.1560 -0.2990
  240MOL0     C32305   4.454   6.656  11.611 -0.4030 -0.4642  0.4497
  240MOL0     C32306   4.418   6.511  11.620 -0.8688  0.3300 -0.5398
  240MOL0     C32307   4.370   6.468  11.480 -0.4097  0.0606  0.1156
  240MOL0     C32308   4.364   6.313  11.450 -0.2897  0.4854 -0.9557
  240MOL0     C32309   4.509   6.268  11.440 -1.1785 -0.3810  0.3810
  240MOL0    Cl32310   4.575   6.330  11.274  0.0858 -0.2464 -0.4659
  240MOL0     C32311   4.540   7.263  11.473  0.5452  0.6794 -1.1169
  240MOL0     C32312   4.463   7.367  11.412 -0.1443  0.4527 -0.0721
  240MOL0     O32313   4.058   7.470  11.469  0.5988 -0.4755  0.8005
  240MOL0     C32314   4.200   7.767  11.327 -0.4479 -0.1455  0.6393
  240MOL0     C32315   4.164   7.893  11.269 -0.8134  0.8211  0.4989
  240MOL0     N32316   3.866   7.801  10.635 -0.4503  0.9504  0.3457
  240MOL0     N32317   3.822   7.823  10.516  0.3932  0.6440  0.5871
  240MOL0     C32318   3.876   8.930  10.325 -0.1482  1.5239  0.4114
  240MOL0     C32319   3.998   8.960  10.391  1.0145 -0.7389 -0.0478
  240MOL0     C32320   4.430   8.949  10.481 -0.0826 -0.8653 -1.0577
  240MOL0     C32321   4.463   8.979  10.612 -0.6796  0.3195  0.3705
  240MOL0     C32322   4.595   9.020  10.648  0.5303 -0.6301  0.5304
  240MOL0     C32323   4.689   9.057  10.547 -0.2860 -0.9716 -0.1805
  240MOL0     O32324   4.809   9.116  10.591 -0.1491  1.4112 -0.4208
  240MOL0     C32325   4.927   9.027  10.597 -0.2275 -0.5502 -0.0670
  240MOL0     C32326   4.972   8.991  10.738 -0.7829 -0.2532  0.6382
  240MOL0     C32327   4.902   8.869  10.795 -0.4753 -0.0712  0.1498
  240MOL0     C32328   4.967   8.817  10.916 -0.2718  0.3283  0.3710
  240MOL0     C32329   4.962   8.905  11.025  0.4482 -0.4003 -0.2635
  240MOL0     C32330   4.961   8.984  11.118  0.3152 -0.5326  0.0237
  240MOL0     C32331   4.651   9.044  10.420 -0.9276  1.0733  0.0936
  240MOL0     C32332   4.528   8.980  10.380 -0.0854 -0.2290 -0.0839
  240MOL0     H32333   4.052   8.653  10.519 -1.5641 -2.4626 -1.7933
  240MOL0     H32334   3.850   8.605  10.400  0.3587  0.1635 -3.0295
  240MOL0     H32335   3.591   8.741  10.104 -0.8780  2.9367  2.6039
  240MOL0     H32336   3.744   8.838  10.079  1.6253 -0.6592  1.4776
  240MOL0     H32337   3.763   8.572  10.003  1.8426  0.5613 -0.7676
  240MOL0     H32338   3.876   8.621  10.128 -0.3539 -0.0772  2.8871
  240MOL0     H32339   3.669   8.531  10.298  1.4404 -1.5200  1.1379
  240MOL0     H32340   3.626   8.464  10.136 -1.2922 -1.9521  2.7165
  240MOL0     H32341   3.849   8.355  10.126 -2.1936 -0.9550 -0.0035
  240MOL0     H32342   3.893   8.419  10.280  3.0243 -1.6066 -2.6183
  240MOL0     H32343   3.664   8.305  10.364 -0.1337 -2.3553  0.6076
  240MOL0     H32344   3.658   8.224  10.213 -1.4704  0.3183 -0.7087
  240MOL0     H32345   3.890   8.221  10.433  3.4855 -2.3951 -1.2706
  240MOL0     H32346   3.765   8.107  10.425 -0.5943 -0.0977 -0.9683
  240MOL0     H32347   3.916   8.101  10.166  1.4873  0.9731  0.1254
  240MOL0     H32348   4.025   8.103  10.300 -0.7303  0.0523  1.4979
  240MOL0     H32349   3.977   7.873  10.246 -2.3268 -3.0143 -0.6777
  240MOL0     H32350   3.807   7.917  10.264 -0.4337  4.0808  0.9175
  240MOL0     H32351   4.082   8.014  10.535 -0.8797  1.6978  0.2437
  240MOL0     H32352   3.991   7.861  10.874 -1.4918  1.6972  1.6753
  240MOL0     H32353   4.141   7.902  10.783  0.9127 -0.0673  3.1783
  240MOL0     H32354   3.946   8.116  10.745 -0.6061  0.9366 -0.0336
  240MOL0     H32355   4.108   8.134  10.814 -1.4368  0.9211 -2.2058
  240MOL0     H32356   3.887   8.009  10.971 -1.8682  2.0611 -1.3590
  240MOL0     H32357   3.902   8.178  10.958 -1.9265 -0.7303  0.3032
  240MOL0     H32358   4.131   8.171  11.081  0.6046 -1.3996 -0.6079
  240MOL0     H32359   4.133   7.998  11.053 -1.7531 -0.0626 -3.3336
  240MOL0     H32360   3.833   7.885  11.307 -0.6094 -1.0738  1.2441
  240MOL0     H32361   3.850   7.574  11.480 -1.0551 -1.3750 -0.8724
  240MOL0     H32362   3.786   7.740  11.474  0.6877  1.6477 -1.4729
  240MOL0     H32363   3.778   7.623  11.329 -0.1496 -0.2593  0.6727
  240MOL0     H32364   4.188   7.307  11.601 -0.7572 -0.9255 -1.3258
  240MOL0     H32365   4.329   7.144  11.695  3.9983  1.7537  3.1839
  240MOL0     H32366   4.486   7.020  11.805 -1.1099 -0.3833 -0.0192
  240MOL0     H32367   4.405   6.938  11.656 -1.5349  0.1304  1.8953
  240MOL0     H32368   4.664   6.835  11.635 -2.1339 -2.0327 -2.8557
  240MOL0     H32369   4.651   6.857  11.806  1.3685 -1.0444 -1.5858
  240MOL0     H32370   4.463   6.726  11.827  1.1752 -2.5624  0.9896
  240MOL0     H32371   4.605   6.649  11.768  0.7590  1.5678  0.7352
  240MOL0     H32372   4.367   6.710  11.570 -0.0566 -0.4898 -0.3274
  240MOL0     H32373   4.528   6.649  11.531 -2.8040 -2.1914 -1.8207
  240MOL0     H32374   4.334   6.509  11.690 -0.2075  0.6094  0.2828
  240MOL0     H32375   4.497   6.446  11.660 -1.0906 -0.7803 -1.8276
  240MOL0     H32376   4.273   6.512  11.456  1.9227  4.2744 -3.0428
  240MOL0     H32377   4.424   6.527  11.406 -1.2184  1.0901  0.3279
  240MOL0     H32378   4.313   6.281  11.359 -0.8763  0.6183 -0.6797
  240MOL0     H32379   4.327   6.267  11.543  1.8513  0.3101 -0.1232
  240MOL0     H32380   4.511   6.160  11.451  1.4245 -0.6451 -1.5668
  240MOL0     H32381   4.577   6.319  11.509  0.5833  0.0089 -1.5261
  240MOL0     H32382   4.635   7.241  11.426  0.0363  2.8469 -3.4046
  240MOL0     H32383   4.502   7.431  11.334  1.9475 -0.8201 -0.1572
  240MOL0     H32384   4.306   7.747  11.328 -0.6306 -1.3454 -0.8645
  240MOL0     H32385   4.246   7.957  11.238 -1.1365 -0.6835 -4.1055
  240MOL0     H32386   3.816   9.010  10.283 -0.1367  0.3614 -1.9623
  240MOL0     H32387   4.034   9.059  10.364 -0.1840 -0.3641 -0.3169
  240MOL0     H32388   4.400   8.944  10.693 -0.7403  0.3055  0.3175
  240MOL0     H32389   4.630   9.035  10.750  2.5329 -1.1778 -0.0353
  240MOL0     H32390   4.901   8.940  10.536 -0.4820  1.6412 -3.3430
  240MOL0     H32391   5.009   9.091  10.563 -1.0068  0.8701  0.6353
  240MOL0     H32392   4.959   9.077  10.805 -0.5733 -0.6106  1.1384
  240MOL0     H32393   5.073   8.952  10.726 -1.0894 -1.0451  0.5737
  240MOL0     H32394   4.904   8.795  10.715  2.0229  0.1675 -0.1041
  240MOL0     H32395   4.797   8.892  10.813 -1.0336 -1.7653 -0.7428
  240MOL0     H32396   5.070   8.783  10.904 -0.6451 -1.8443  2.5253
  240MOL0     H32397   4.916   8.727  10.951 -1.3806  1.8573  2.9871
  240MOL0     H32398   4.973   9.061  11.192 -0.6988  2.8896 -3.0244
  240MOL0     H32399   4.720   9.076  10.342  1.6222 -2.6101  0.6122
  240MOL0     H32400   4.505   8.955  10.277 -0.2314 -2.3732  0.4111
  241MOL0     O32401   1.924   7.941   0.060 -0.5929 -0.8123 -0.0524
  241MOL0     C32402   1.849   7.903  -0.030  0.6356  0.2759  0.1749
  241MOL0     O32403   1.788   7.777  -0.045 -0.8447  0.2647 -0.6368
  241MOL0     C32404   1.795   7.686   0.058  0.3552 -0.5461 -0.0157
  241MOL0     C32405   1.691   7.595   0.073 -0.0755 -1.3501 -0.7058
  241MOL0     C32406   1.693   7.498   0.164  1.1933  0.5143  0.5655
  241MOL0     C32407   1.794   7.484   0.252 -0.3805 -1.3780 -0.8673
  241MOL0     O32408   1.785   7.388   0.347 -0.6891 -0.6527  1.0763
  241MOL0     C32409   1.881   7.288   0.338 -0.5140 -0.1500  0.1812
  241MOL0     C32410   1.824   7.184   0.237  0.0408  0.1284  0.2754
  241MOL0     C32411   1.887   7.041   0.252 -0.3976 -1.2055 -0.2911
  241MOL0     C32412   2.030   7.024   0.212 -0.2681  0.0458  0.3557
  241MOL0     C32413   2.071   6.882   0.185 -1.0108  0.1043  0.1707
  241MOL0     C32414   2.085   6.789   0.303 -0.1427  1.4485 -0.1306
  241MOL0     C32415   2.157   6.656   0.263 -0.6991 -0.1609  0.0228
  241MOL0     C32416   2.173   6.558   0.382 -0.4104 -0.5008  0.9517
  241MOL0     N32417   2.275   6.596   0.481  0.5980  0.3358 -0.5899
  241MOL0     C32418   2.258   6.701   0.575 -0.8240 -0.3954  0.7307
  241MOL0     C32419   2.387   6.712   0.622  0.6396 -0.3428 -0.9416
  241MOL0     C32420   2.426   6.794   0.743  0.2362  0.3749  0.2020
  241MOL0     C32421   2.437   6.704   0.867 -1.4290 -0.3802 -0.6413
  241MOL0     C32422   2.427   6.778   1.001 -0.6509 -0.2336 -0.3156
  241MOL0     C32423   2.498   6.907   1.029  0.4122 -0.3246  0.8977
  241MOL0     O32424   2.461   7.015   0.952 -0.1856  0.5102 -0.1641
  241MOL0     C32425   2.519   7.134   0.981 -0.6092  0.4003 -0.6946
  241MOL0     C32426   2.595   7.167   1.095 -0.0555  0.7537 -0.4654
  241MOL0     C32427   2.630   7.295   1.132  0.0790 -0.7224 -0.4754
  241MOL0     C32428   2.723   7.323   1.249  0.2587  0.3138 -0.0940
  241MOL0     C32429   2.582   7.410   1.059  0.3656 -0.4759 -0.3480
  241MOL0     C32430   2.599   7.557   1.090 -0.0776 -0.1053  0.3648
  241MOL0     O32431   2.700   7.593   1.170 -0.1199 -0.3628  0.1069
  241MOL0     C32432   2.714   7.728   1.202 -0.4362  0.2563  0.0489
  241MOL0     C32433   2.747   7.821   1.100 -0.2846  0.0045 -0.1811
  241MOL0     C32434   2.754   7.957   1.125 -1.4642 -0.1528  0.3371
  241MOL0     C32435   2.701   8.010   1.249 -0.8694  0.1930 -0.3703
  241MOL0     O32436   2.715   8.146   1.255 -0.4299 -0.5696 -0.1420
  241MOL0     C32437   2.634   8.210   1.354  0.0930 -0.1376 -0.0938
  241MOL0     C32438   2.662   8.366   1.345 -0.7906 -0.2704  0.0461
  241MOL0     C32439   2.549   8.464   1.394  0.0424  0.3177  0.0686
  241MOL0     C32440   2.550   8.600   1.340  0.3658 -1.1841 -0.7928
  241MOL0     C32441   2.467   8.707   1.421 -0.2694  0.2563  0.1696
  241MOL0     C32442   2.324   8.674   1.452  0.0214  0.0827 -0.0305
  241MOL0     C32443   2.246   8.649   1.319 -0.4763 -0.5135  1.2078
  241MOL0     C32444   2.101   8.649   1.368  0.3109 -0.2995 -0.1283
  241MOL0    Cl32445   2.063   8.508   1.472 -0.1006 -0.2548 -0.3462
  241MOL0     C32446   2.660   7.917   1.350 -0.4158 -0.4111  0.4444
  241MOL0     C32447   2.671   7.780   1.323 -0.2586  0.8959  0.7287
  241MOL0     O32448   2.510   7.632   1.059  0.2993  0.1016  0.8638
  241MOL0     C32449   2.498   7.376   0.955  0.2421  0.2142 -0.3641
  241MOL0     C32450   2.472   7.244   0.906 -0.6160 -0.0938  0.3310
  241MOL0     N32451   2.466   6.621   0.563 -0.6595 -0.1612 -0.2665
  241MOL0     N32452   2.400   6.554   0.482  0.2625 -0.0830  0.1925
  241MOL0     C32453   1.911   7.572   0.232  0.0205 -1.1441 -0.9401
  241MOL0     C32454   1.911   7.673   0.143  0.3458  0.7345 -0.0105
  241MOL0     C32455   1.823   8.000  -0.141  0.8251  0.3918 -0.4839
  241MOL0     C32456   1.893   8.122  -0.152 -0.5751 -0.4490 -0.2326
  241MOL0     C32457   1.873   8.219  -0.250  0.4378 -0.1158 -0.1083
  241MOL0     C32458   1.785   8.178  -0.356  1.0174 -0.1911 -0.3254
  241MOL0     O32459   1.786   8.259  -0.472 -1.0723  0.0562  0.2803
  241MOL0     C32460   1.795   8.205  -0.598 -0.1455  0.8396  0.3734
  241MOL0     C32461   1.942   8.149  -0.613 -0.4060  0.6867  0.3372
  241MOL0     C32462   2.054   8.254  -0.605 -0.1176  0.4789  0.2710
  241MOL0     C32463   2.045   8.355  -0.721 -0.3494 -0.4079  0.3926
  241MOL0     C32464   2.057   8.306  -0.863 -0.3461  0.1650  0.5757
  241MOL0     C32465   2.056   8.263  -0.975 -0.2598  0.2496 -0.1914
  241MOL0     C32466   1.709   8.066  -0.342 -0.9127  0.1049  0.3502
  241MOL0     C32467   1.722   7.977  -0.234 -0.6801 -0.3172  0.3271
  241MOL0     H32468   1.602   7.605   0.012  0.6189 -3.0473 -2.0937
  241MOL0     H32469   1.609   7.429   0.171  0.5548  1.3781  2.1652
  241MOL0     H32470   1.982   7.320   0.312 -0.7274  2.4277  2.1600
  241MOL0     H32471   1.893   7.235   0.434 -2.2553 -0.9162  0.0115
  241MOL0     H32472   1.714   7.180   0.237 -0.2987  4.2908  2.2693
  241MOL0     H32473   1.862   7.225   0.143  2.3977 -0.0082  1.1219
  241MOL0     H32474   1.875   7.017   0.358  3.5023  3.0809  1.4608
  241MOL0     H32475   1.828   6.971   0.192 -4.5993  1.2731  0.5367
  241MOL0     H32476   2.040   7.075   0.116 -1.2604 -1.3857 -0.5511
  241MOL0     H32477   2.103   7.073   0.277  1.1838  0.6153 -1.5801
  241MOL0     H32478   2.000   6.839   0.113 -0.8445 -1.8630  1.1035
  241MOL0     H32479   2.174   6.876   0.148  0.3325  3.1932  2.9684
  241MOL0     H32480   2.136   6.823   0.393 -0.1803 -3.0485  1.8800
  241MOL0     H32481   1.982   6.760   0.326 -0.7658  2.6020 -1.3151
  241MOL0     H32482   2.100   6.604   0.186  0.5627  0.0170 -1.0676
  241MOL0     H32483   2.251   6.691   0.219  0.9649 -0.5259  2.9998
  241MOL0     H32484   2.203   6.465   0.333 -2.0641 -0.2598 -0.6110
  241MOL0     H32485   2.075   6.555   0.429  0.5581  1.5333  3.3676
  241MOL0     H32486   2.166   6.753   0.600 -1.3429  0.6288 -2.7219
  241MOL0     H32487   2.514   6.853   0.717 -1.0129  0.7964 -3.7503
  241MOL0     H32488   2.355   6.876   0.758  2.0651  1.8555  1.1341
  241MOL0     H32489   2.537   6.662   0.881 -0.7284  1.7280  1.2919
  241MOL0     H32490   2.369   6.621   0.851  0.4904 -1.6835 -2.5627
  241MOL0     H32491   2.442   6.710   1.086  0.5782 -1.5662 -1.5459
  241MOL0     H32492   2.319   6.791   1.016 -0.3898  2.0132 -0.1127
  241MOL0     H32493   2.607   6.898   1.032  0.3504 -3.6932 -1.3280
  241MOL0     H32494   2.484   6.936   1.134  0.1026  0.0709  0.7494
  241MOL0     H32495   2.635   7.091   1.161 -0.8699 -0.7203 -1.6312
  241MOL0     H32496   2.674   7.396   1.313  1.7491  2.8545 -1.6593
  241MOL0     H32497   2.745   7.235   1.311  0.9293 -0.5362 -1.4725
  241MOL0     H32498   2.820   7.362   1.215 -0.0778  0.0547 -1.4075
  241MOL0     H32499   2.773   7.788   1.000 -1.5201  0.4261 -0.6624
  241MOL0     H32500   2.788   8.024   1.048 -0.3940  0.5222  1.3700
  241MOL0     H32501   2.533   8.180   1.328 -0.6763  2.3143 -0.1892
  241MOL0     H32502   2.669   8.175   1.452  5.4666 -1.8427 -2.1995
  241MOL0     H32503   2.751   8.388   1.405 -0.5748  0.9595 -0.6724
  241MOL0     H32504   2.694   8.389   1.243  1.6256  2.4681  1.2366
  241MOL0     H32505   2.553   8.464   1.503 -0.3997  3.4495  0.1739
  241MOL0     H32506   2.450   8.421   1.379 -0.3769  0.4104  2.2489
  241MOL0     H32507   2.654   8.636   1.333  0.0320  0.7340  2.0859
  241MOL0     H32508   2.500   8.599   1.243 -1.1025  2.5181 -0.2492
  241MOL0     H32509   2.474   8.805   1.373  5.3485 -2.1719 -5.3339
  241MOL0     H32510   2.515   8.715   1.519 -0.9397  1.3443  0.4243
  241MOL0     H32511   2.310   8.581   1.507  0.4518 -1.6477 -2.6664
  241MOL0     H32512   2.280   8.755   1.511 -0.4924  1.3980 -2.1125
  241MOL0     H32513   2.256   8.543   1.291  0.1618 -0.3665  0.8714
  241MOL0     H32514   2.274   8.721   1.242 -2.3812 -2.7447 -1.7983
  241MOL0     H32515   2.038   8.656   1.279 -1.5492 -4.1511  0.6754
  241MOL0     H32516   2.079   8.743   1.419 -0.5538 -0.5601 -0.0119
  241MOL0     H32517   2.626   7.950   1.447  1.7157  0.8514  0.8282
  241MOL0     H32518   2.627   7.707   1.391 -1.7999  2.0287  1.0022
  241MOL0     H32519   2.447   7.457   0.903 -2.1778 -1.1646 -0.2920
  241MOL0     H32520   2.409   7.219   0.821 -0.3519 -1.9826  0.6392
  241MOL0     H32521   2.000   7.562   0.293 -0.5055 -0.6168 -0.0653
  241MOL0     H32522   2.003   7.730   0.135  1.3124 -0.3399  2.3436
  241MOL0     H32523   1.978   8.124  -0.084  0.2785  0.8869 -1.2952
  241MOL0     H32524   1.920   8.317  -0.254  0.5754 -0.1452  0.7080
  241MOL0     H32525   1.725   8.121  -0.603  0.3572  0.2449  2.5728
  241MOL0     H32526   1.772   8.270  -0.683  0.0516  0.2055 -0.1814
  241MOL0     H32527   1.948   8.102  -0.712  0.9089 -2.4310  1.7585
  241MOL0     H32528   1.958   8.067  -0.543 -0.2658  0.1866 -0.2776
  241MOL0     H32529   2.150   8.203  -0.619 -1.2613 -1.7620  0.1048
  241MOL0     H32530   2.065   8.298  -0.505  1.3922 -1.9820  1.2715
  241MOL0     H32531   2.132   8.420  -0.704 -0.4638  0.0317 -0.5881
  241MOL0     H32532   1.960   8.422  -0.706 -0.5356 -0.5944  0.1894
  241MOL0     H32533   2.063   8.215  -1.071 -3.3444  0.9536 -0.8806
  241MOL0     H32534   1.635   8.073  -0.421  0.7909 -1.3991 -1.4882
  241MOL0     H32535   1.646   7.902  -0.215  0.8366 -1.8433  0.5445
  242MOL0     O32536   9.711   9.048   5.019  0.5270 -0.8030  1.0613
  242MOL0     C32537   9.712   9.158   4.963 -0.8565  0.5999  0.3647
  242MOL0     O32538   9.632   9.189   4.866  0.5260 -0.1555  0.2048
  242MOL0     C32539   9.529   9.108   4.842  0.3220  0.9590  0.3520
  242MOL0     C32540   9.420   9.098   4.932  0.7631  0.5445 -0.5028
  242MOL0     C32541   9.304   9.019   4.898 -0.4328 -0.4211  0.3468
  242MOL0     C32542   9.299   8.947   4.786  0.2637  0.8346  1.0201
  242MOL0     O32543   9.186   8.868   4.771 -0.1990  0.2884  0.1482
  242MOL0     C32544   9.169   8.821   4.638  0.4242  0.0832  0.0030
  242MOL0     C32545   9.034   8.743   4.619 -0.6386  0.4386 -0.1463
  242MOL0     C32546   9.040   8.601   4.662  0.5377 -0.2579 -0.2305
  242MOL0     C32547   8.907   8.534   4.622  0.3789  0.6842  0.0053
  242MOL0     C32548   8.887   8.393   4.685 -0.2503 -0.1516  0.1434
  242MOL0     C32549   9.009   8.301   4.650 -0.1100 -0.1531  0.6229
  242MOL0     C32550   8.977   8.161   4.713  0.2328  0.3562  0.1267
  242MOL0     C32551   9.051   8.048   4.636  0.1654 -1.2181 -0.1901
  242MOL0     N32552   9.198   8.077   4.654 -0.0899  0.0059  0.6316
  242MOL0     C32553   9.276   8.048   4.763 -0.5074 -0.3225 -0.7441
  242MOL0     C32554   9.405   8.054   4.731 -0.2975  1.0378  0.4518
  242MOL0     C32555   9.522   8.018   4.829  0.0696 -0.1278 -0.1053
  242MOL0     C32556   9.573   7.877   4.805 -0.7695 -0.1143  0.0392
  242MOL0     C32557   9.565   7.827   4.657 -0.1097 -0.2480 -0.2424
  242MOL0     C32558   9.640   7.702   4.630 -0.6880  0.4558  0.2625
  242MOL0     O32559   9.772   7.713   4.691  0.9610  0.3188  0.3638
  242MOL0     C32560   9.842   7.590   4.697  0.3812  0.1814 -0.3657
  242MOL0     C32561   9.961   7.593   4.779 -0.3868 -0.0656  0.1124
  242MOL0     C32562  10.042   7.485   4.801 -1.1672  0.0867  0.6927
  242MOL0     C32563  10.159   7.497   4.894 -0.5786 -0.5860 -0.6305
  242MOL0     C32564   9.999   7.358   4.745 -0.0940  0.8735  0.0967
  242MOL0     C32565  10.078   7.229   4.761  0.7696 -0.6085  0.5501
  242MOL0     O32566  10.000   7.122   4.793 -0.0558 -0.0221 -0.4413
  242MOL0     C32567  10.054   7.002   4.785 -0.4650  0.0321  0.2394
  242MOL0     C32568  10.062   6.930   4.662 -0.0364 -0.8455  0.6219
  242MOL0     C32569  10.123   6.808   4.659  0.2412  0.4421 -0.6615
  242MOL0     C32570  10.200   6.755   4.766  0.4106 -0.2266 -0.5588
  242MOL0     O32571  10.282   6.652   4.743 -0.1779  0.4956  0.4746
  242MOL0     C32572  10.239   6.532   4.666 -0.0502 -0.5462 -0.5473
  242MOL0     C32573  10.302   6.413   4.718 -0.3947  0.1035  0.2404
  242MOL0     C32574  10.255   6.295   4.648  0.4751  0.4709  0.5121
  242MOL0     C32575  10.339   6.163   4.654  0.2945 -1.9118  0.3481
  242MOL0     C32576  10.462   6.182   4.572 -0.7527 -0.2645  0.2436
  242MOL0     C32577  10.440   6.228   4.431 -0.4696  0.0888  0.3317
  242MOL0     C32578  10.343   6.142   4.348 -1.2500 -0.5216  0.5390
  242MOL0     C32579  10.353   6.175   4.201  0.3976 -0.3063  0.1722
  242MOL0    Cl32580  10.490   6.124   4.116 -0.6578 -0.1120  0.5486
  242MOL0     C32581  10.180   6.813   4.891 -0.5597 -0.5044  0.2619
  242MOL0     C32582  10.111   6.938   4.897 -0.2850  0.7008 -0.2048
  242MOL0     O32583  10.202   7.222   4.744 -0.3156 -0.4059 -0.3960
  242MOL0     C32584   9.890   7.348   4.669  0.1612  0.7309  0.5612
  242MOL0     C32585   9.815   7.464   4.637 -0.1945  1.2647  0.2794
  242MOL0     N32586   9.408   8.087   4.594  0.4706  0.2979  0.9171
  242MOL0     N32587   9.287   8.116   4.554  0.5375 -0.5309 -0.4084
  242MOL0     C32588   9.402   8.960   4.689 -0.5932 -0.4846 -0.1117
  242MOL0     C32589   9.515   9.039   4.720  0.3129 -0.0885 -0.1083
  242MOL0     C32590   9.809   9.263   5.003 -0.9650 -0.0658 -0.1844
  242MOL0     C32591   9.805   9.390   4.948  0.2325 -0.1971 -0.4679
  242MOL0     C32592   9.902   9.483   4.993  0.8394 -0.4274  0.6989
  242MOL0     C32593  10.000   9.459   5.087 -0.5335  0.4243 -0.3722
  242MOL0     O32594  10.082   9.567   5.119 -0.2477  0.2230 -0.2390
  242MOL0     C32595  10.197   9.544   5.205  0.5370 -0.7071 -0.3777
  242MOL0     C32596  10.166   9.557   5.355 -0.0694  0.4119 -0.1288
  242MOL0     C32597  10.286   9.524   5.443 -0.0193  0.1721 -0.9883
  242MOL0     C32598  10.346   9.383   5.416 -0.1475 -0.3140 -0.2966
  242MOL0     C32599  10.237   9.292   5.429 -0.6942 -0.7807 -0.3217
  242MOL0     C32600  10.155   9.210   5.445 -0.1099  1.0549  1.5608
  242MOL0     C32601  10.014   9.329   5.133 -0.2392  0.4730 -0.2888
  242MOL0     C32602   9.914   9.237   5.090 -0.1332 -0.1743 -0.3467
  242MOL0     H32603   9.431   9.166   5.016 -0.4677  1.5346 -1.0997
  242MOL0     H32604   9.225   9.013   4.972  0.2528 -1.2967  1.0291
  242MOL0     H32605   9.184   8.905   4.570  1.1031  0.6432  0.8273
  242MOL0     H32606   9.243   8.744   4.615  1.7394  1.3678 -0.2271
  242MOL0     H32607   8.963   8.798   4.682  2.2106  2.8398  1.2658
  242MOL0     H32608   9.005   8.751   4.514  0.0942 -0.8367 -0.4648
  242MOL0     H32609   9.111   8.545   4.601 -0.6705 -3.2052  0.8429
  242MOL0     H32610   9.056   8.595   4.770 -0.5529 -0.9285 -0.0883
  242MOL0     H32611   8.820   8.590   4.658  0.0521 -1.8641  3.7771
  242MOL0     H32612   8.901   8.524   4.514 -3.1364  2.8451 -0.1780
  242MOL0     H32613   8.865   8.394   4.792 -1.6915 -0.1944 -0.1420
  242MOL0     H32614   8.792   8.359   4.644  0.6185 -1.8013 -0.5703
  242MOL0     H32615   9.005   8.300   4.540  0.2556  0.0052  0.6075
  242MOL0     H32616   9.099   8.352   4.683 -0.4873  1.3294 -0.5133
  242MOL0     H32617   8.994   8.153   4.820  1.5535 -3.3232 -0.2293
  242MOL0     H32618   8.873   8.138   4.689  1.1337 -2.0315 -1.9538
  242MOL0     H32619   9.024   8.074   4.534  0.1338  0.6823  0.2698
  242MOL0     H32620   9.023   7.947   4.669  1.3314 -1.9967 -1.4876
  242MOL0     H32621   9.235   8.024   4.861 -0.1314  0.1142 -0.4791
  242MOL0     H32622   9.603   8.090   4.821  0.7681 -0.8108  0.6969
  242MOL0     H32623   9.486   8.032   4.932  1.0071  0.1028  0.1968
  242MOL0     H32624   9.524   7.802   4.869 -1.2999 -0.1524 -0.4032
  242MOL0     H32625   9.676   7.890   4.838 -0.3129  1.1663 -1.7479
  242MOL0     H32626   9.609   7.902   4.590 -0.3507 -0.7577 -0.9877
  242MOL0     H32627   9.462   7.817   4.621 -0.2164 -1.0816  0.2682
  242MOL0     H32628   9.647   7.703   4.520  1.0046 -0.1521  0.3327
  242MOL0     H32629   9.587   7.613   4.665  1.2745 -1.1761 -0.6497
  242MOL0     H32630   9.976   7.680   4.842  2.1965 -0.6915  0.4689
  242MOL0     H32631  10.166   7.600   4.930 -0.5956 -0.8655  0.1923
  242MOL0     H32632  10.152   7.437   4.985 -0.0436  1.1032  0.5919
  242MOL0     H32633  10.252   7.456   4.855  0.1679 -1.2670  1.6932
  242MOL0     H32634  10.010   6.970   4.576  0.5914 -0.2052  0.5250
  242MOL0     H32635  10.130   6.756   4.564  0.6186 -0.1224 -0.3323
  242MOL0     H32636  10.131   6.515   4.667 -0.2099  0.4102 -0.1842
  242MOL0     H32637  10.262   6.537   4.559 -1.0090 -2.1374 -0.8650
  242MOL0     H32638  10.409   6.417   4.696 -0.1516 -2.1533  0.7395
  242MOL0     H32639  10.291   6.400   4.826 -3.4730 -0.1508 -0.0136
  242MOL0     H32640  10.221   6.328   4.549  1.3756  4.8833  1.4377
  242MOL0     H32641  10.172   6.250   4.703  2.8321 -5.0713  0.1500
  242MOL0     H32642  10.368   6.145   4.757 -0.3914 -2.6736  0.4159
  242MOL0     H32643  10.294   6.074   4.609 -0.7883 -2.1483  1.8380
  242MOL0     H32644  10.510   6.084   4.578  2.0571  1.0781  1.1026
  242MOL0     H32645  10.534   6.250   4.619 -1.4761  1.9415 -1.6459
  242MOL0     H32646  10.389   6.325   4.435 -2.7383 -1.0570  2.8267
  242MOL0     H32647  10.534   6.230   4.375  0.0412 -3.1754  0.8330
  242MOL0     H32648  10.242   6.173   4.375 -1.4156 -1.9959  1.7556
  242MOL0     H32649  10.348   6.033   4.355  0.1097 -0.4529  1.0564
  242MOL0     H32650  10.354   6.285   4.199 -3.4680 -0.1394 -1.1641
  242MOL0     H32651  10.261   6.148   4.148 -0.6772  1.9138  0.7669
  242MOL0     H32652  10.241   6.775   4.972  0.5883  1.4064  0.3661
  242MOL0     H32653  10.122   7.000   4.986  1.8936 -1.0511  0.8358
  242MOL0     H32654   9.859   7.253   4.625  0.2891  0.7801  0.3614
  242MOL0     H32655   9.737   7.464   4.562  0.1849 -2.3827 -0.2875
  242MOL0     H32656   9.405   8.909   4.593 -1.0547  0.2741 -0.5400
  242MOL0     H32657   9.600   9.039   4.652  0.9970 -0.1193  0.7276
  242MOL0     H32658   9.722   9.406   4.881 -0.7179  0.6975  0.8573
  242MOL0     H32659   9.916   9.584   4.956  2.7077  0.4306  3.4115
  242MOL0     H32660  10.233   9.443   5.184 -0.2445 -1.3039  0.9715
  242MOL0     H32661  10.275   9.614   5.176  1.6031 -0.0823  3.4534
  242MOL0     H32662  10.087   9.489   5.389  1.2711 -0.8295  0.6030
  242MOL0     H32663  10.128   9.655   5.383  1.9112  0.5958  2.2402
  242MOL0     H32664  10.261   9.530   5.550  1.3842  0.8925 -0.6731
  242MOL0     H32665  10.361   9.604   5.438  1.6268 -1.3029 -0.6270
  242MOL0     H32666  10.427   9.365   5.488 -1.5914  0.2617  1.5568
  242MOL0     H32667  10.381   9.370   5.314 -2.6865 -1.7329 -1.0660
  242MOL0     H32668  10.097   9.120   5.454 -0.7921  1.5593  2.2813
  242MOL0     H32669  10.078   9.277   5.205 -3.8474 -5.7262 -0.8318
  242MOL0     H32670   9.910   9.138   5.134 -0.3948 -1.0437 -2.2337
  243MOL0     O32671   2.515   3.339  10.516 -0.3743 -0.6837  0.5839
  243MOL0     C32672   2.583   3.322  10.616 -0.7667 -0.1000  0.9222
  243MOL0     O32673   2.602   3.408  10.722  0.9317 -0.5821 -0.1188
  243MOL0     C32674   2.538   3.530  10.704  0.5639 -1.4441 -0.7467
  243MOL0     C32675   2.612   3.652  10.688  0.2587  0.6709  0.7751
  243MOL0     C32676   2.556   3.777  10.697  0.0550  0.9471 -0.2713
  243MOL0     C32677   2.418   3.787  10.717 -0.6955  1.4493  0.4067
  243MOL0     O32678   2.373   3.910  10.735 -0.1389 -0.3022 -0.0975
  243MOL0     C32679   2.249   3.949  10.671  0.0777  0.2628  0.1834
  243MOL0     C32680   2.182   4.059  10.751  0.3698  0.6841 -0.0678
  243MOL0     C32681   2.280   4.178  10.764 -1.0200 -1.1224 -0.0580
  243MOL0     C32682   2.214   4.299  10.828 -0.1118 -0.6457  0.2736
  243MOL0     C32683   2.326   4.407  10.838 -0.5796 -0.5674  1.1050
  243MOL0     C32684   2.309   4.509  10.949 -0.1461  0.0879 -0.7439
  243MOL0     C32685   2.177   4.591  10.951 -0.9590  0.6648  0.0636
  243MOL0     C32686   2.183   4.718  11.036  0.8038 -0.2617 -0.1318
  243MOL0     N32687   2.258   4.830  10.976  0.4096 -0.3387  0.3401
  243MOL0     C32688   2.392   4.847  10.975  0.2924 -0.1964  0.4507
  243MOL0     C32689   2.414   4.979  10.934  0.0687 -0.0505  0.2637
  243MOL0     C32690   2.540   5.048  10.926  0.3555 -0.2990 -0.0733
  243MOL0     C32691   2.621   5.015  11.056 -0.6266  0.4211 -0.2658
  243MOL0     C32692   2.761   5.097  11.054  1.3652  0.3982  0.4096
  243MOL0     C32693   2.868   5.027  11.132  0.4354  0.0768 -0.2007
  243MOL0     O32694   2.848   5.031  11.278 -0.1998  0.2236  0.1234
  243MOL0     C32695   2.877   5.151  11.345  0.9139  0.6452  0.6962
  243MOL0     C32696   2.980   5.240  11.310  0.0233 -1.0408 -0.5476
  243MOL0     C32697   3.012   5.361  11.381  0.5321 -0.0006  0.4426
  243MOL0     C32698   3.137   5.440  11.338 -0.4731 -0.1706 -0.0613
  243MOL0     C32699   2.929   5.401  11.488  0.0266 -0.0712 -0.3461
  243MOL0     C32700   2.941   5.530  11.567 -0.2633  0.0902 -0.0779
  243MOL0     O32701   2.837   5.538  11.659  0.8994 -0.3322  0.6303
  243MOL0     C32702   2.837   5.630  11.756  0.6310 -0.4975 -0.1747
  243MOL0     C32703   2.911   5.754  11.759 -0.3799 -0.0534  0.4561
  243MOL0     C32704   2.935   5.820  11.881  0.3328 -0.3233 -0.5282
  243MOL0     C32705   2.878   5.773  11.999 -0.2742  0.0031 -0.0741
  243MOL0     O32706   2.920   5.834  12.114  0.4239 -0.2520  0.0720
  243MOL0     C32707   2.871   5.796  12.238 -0.3691  1.0047 -0.9755
  243MOL0     C32708   2.938   5.887  12.342 -0.5699  0.8863  0.1696
  243MOL0     C32709   2.919   5.848  12.495  0.4585  0.4559  1.3497
  243MOL0     C32710   3.003   5.946  12.585  0.3631 -0.0317  0.1969
  243MOL0     C32711   3.054   5.885  12.712  0.1163  0.2268 -0.5696
  243MOL0     C32712   3.130   5.992  12.799 -0.2651 -0.3562  0.3858
  243MOL0     C32713   3.187   5.936  12.926 -0.2657 -1.1210 -0.9825
  243MOL0     C32714   3.277   6.031  12.993  0.2297 -1.0972  0.1566
  243MOL0    Cl32715   3.184   6.149  13.078  0.2466  0.1894  0.0345
  243MOL0     C32716   2.789   5.658  12.001 -0.6750 -1.5610  0.3382
  243MOL0     C32717   2.768   5.586  11.878 -0.3895 -0.5206  0.0415
  243MOL0     O32718   3.033   5.604  11.560  0.2744  0.3909  0.2470
  243MOL0     C32719   2.836   5.296  11.534 -0.0892 -0.9058  0.2487
  243MOL0     C32720   2.806   5.179  11.460  0.3975 -0.2255 -0.4523
  243MOL0     N32721   2.287   5.026  10.907  1.0308  0.0197  0.1603
  243MOL0     N32722   2.193   4.944  10.937  0.3163 -0.0502  0.1138
  243MOL0     C32723   2.347   3.669  10.753 -0.0019  0.2387 -0.4235
  243MOL0     C32724   2.405   3.537  10.757 -0.4219 -1.0266 -0.2799
  243MOL0     C32725   2.656   3.200  10.623 -0.0334  0.8332 -0.2136
  243MOL0     C32726   2.622   3.095  10.528  0.0733 -0.1343 -0.0103
  243MOL0     C32727   2.684   2.977  10.530  0.0223 -0.1264 -0.7468
  243MOL0     C32728   2.786   2.954  10.631 -0.5160  1.0961  0.0204
  243MOL0     O32729   2.834   2.836  10.630  0.3895  0.4270 -0.0939
  243MOL0     C32730   2.744   2.728  10.676  0.1913  0.8232  0.9089
  243MOL0     C32731   2.725   2.739  10.826 -0.1070 -0.2524  0.7453
  243MOL0     C32732   2.688   2.603  10.897 -0.2035  0.1471  0.2407
  243MOL0     C32733   2.540   2.564  10.891 -0.6100 -0.1808 -0.1741
  243MOL0     C32734   2.489   2.522  10.756  1.2103  0.6010  0.7166
  243MOL0     C32735   2.445   2.489  10.650 -1.2015  0.4807 -0.4465
  243MOL0     C32736   2.818   3.045  10.729 -0.0237  0.2282  0.0741
  243MOL0     C32737   2.744   3.170  10.734  0.0718  0.4810 -0.1404
  243MOL0     H32738   2.718   3.641  10.667 -0.0531 -0.8057 -0.2238
  243MOL0     H32739   2.621   3.861  10.676  1.2175  0.5543  1.4478
  243MOL0     H32740   2.268   3.985  10.569 -3.2102 -1.0472 -1.0312
  243MOL0     H32741   2.184   3.862  10.662 -1.1984  1.3378 -1.6402
  243MOL0     H32742   2.087   4.098  10.714  1.0375  2.7834  0.3136
  243MOL0     H32743   2.166   4.022  10.853  1.3034 -0.0303 -0.1637
  243MOL0     H32744   2.365   4.145  10.825 -1.2035 -0.7728  0.3893
  243MOL0     H32745   2.315   4.223  10.671  2.4647  3.1898  2.8685
  243MOL0     H32746   2.127   4.325  10.767 -0.1885  1.3841  1.1585
  243MOL0     H32747   2.184   4.282  10.932  0.9965  2.7307  1.2606
  243MOL0     H32748   2.427   4.367  10.841  0.4582  0.9530 -3.8818
  243MOL0     H32749   2.317   4.456  10.740  0.5492 -2.0087  0.2562
  243MOL0     H32750   2.312   4.450  11.040  0.2171  2.1168  0.6279
  243MOL0     H32751   2.390   4.583  10.948 -1.7575  1.9411 -1.4276
  243MOL0     H32752   2.164   4.629  10.850 -2.3259  0.8565  0.2998
  243MOL0     H32753   2.095   4.526  10.983  1.2516 -2.3471  0.0466
  243MOL0     H32754   2.227   4.710  11.137 -0.8589  1.8741  0.8367
  243MOL0     H32755   2.084   4.762  11.048  0.5605 -0.7172 -0.4715
  243MOL0     H32756   2.474   4.780  11.001  0.8961  0.9820  1.6561
  243MOL0     H32757   2.602   5.019  10.841  2.2271 -1.7951  1.6899
  243MOL0     H32758   2.522   5.156  10.926 -1.3219 -0.5576  0.0884
  243MOL0     H32759   2.657   4.912  11.060  3.1735  1.6033 -0.0404
  243MOL0     H32760   2.566   5.040  11.147 -0.1770  0.4084  0.0141
  243MOL0     H32761   2.747   5.201  11.085  0.5445  0.1790  0.7878
  243MOL0     H32762   2.785   5.092  10.947  0.5244 -2.0718  0.2723
  243MOL0     H32763   2.958   5.082  11.101 -0.6733  1.4307 -1.1609
  243MOL0     H32764   2.873   4.921  11.105 -0.2258 -0.5336  1.9245
  243MOL0     H32765   3.058   5.210  11.240  0.9591 -3.4934  1.3863
  243MOL0     H32766   3.109   5.538  11.299  1.0128 -0.2514 -1.4220
  243MOL0     H32767   3.214   5.442  11.416 -1.2288 -2.2235  0.8065
  243MOL0     H32768   3.178   5.400  11.246  0.7608  0.5249  0.1652
  243MOL0     H32769   2.963   5.802  11.676 -1.1148  0.1832  0.1306
  243MOL0     H32770   2.989   5.914  11.883  1.2532 -0.8598  0.4944
  243MOL0     H32771   2.763   5.813  12.251 -0.3810 -0.3297  1.0643
  243MOL0     H32772   2.907   5.695  12.257  0.4500  1.2026 -1.4171
  243MOL0     H32773   3.042   5.887  12.306 -0.5565 -1.8223 -0.0056
  243MOL0     H32774   2.901   5.989  12.330 -2.3964  0.1298 -1.0680
  243MOL0     H32775   2.963   5.749  12.508 -1.3715 -0.6653 -0.5477
  243MOL0     H32776   2.813   5.842  12.519  1.1011  0.8284  4.9867
  243MOL0     H32777   3.091   5.983  12.531 -1.2573  0.8559 -1.9668
  243MOL0     H32778   2.929   6.024  12.606 -0.2159 -0.0071 -1.7247
  243MOL0     H32779   3.111   5.796  12.685  1.6313  1.4602 -1.6084
  243MOL0     H32780   2.967   5.843  12.764  1.0379 -3.9556 -2.0218
  243MOL0     H32781   3.209   6.029  12.732  0.3801 -2.8494 -0.3523
  243MOL0     H32782   3.068   6.079  12.823  0.6168  0.1648  0.8391
  243MOL0     H32783   3.239   5.840  12.912  0.0164 -0.8640 -1.7504
  243MOL0     H32784   3.109   5.909  12.998  2.2366 -0.4959  2.2433
  243MOL0     H32785   3.351   6.077  12.926 -1.4171 -0.0711 -1.0557
  243MOL0     H32786   3.327   5.978  13.075  1.5373  3.3208  2.5608
  243MOL0     H32787   2.729   5.646  12.090 -1.8728  2.5328  0.2895
  243MOL0     H32788   2.694   5.507  11.883 -1.4722  0.5656  2.2989
  243MOL0     H32789   2.775   5.307  11.623 -2.6066 -2.5679 -1.1437
  243MOL0     H32790   2.736   5.100  11.486  0.3711 -0.2475 -0.5913
  243MOL0     H32791   2.245   3.692  10.780  0.0166  1.2236 -1.1440
  243MOL0     H32792   2.360   3.445  10.794 -2.4908 -0.2060 -0.6048
  243MOL0     H32793   2.541   3.108  10.458 -1.2148  2.0333  1.7361
  243MOL0     H32794   2.666   2.906  10.450 -1.7688 -1.8548  1.1017
  243MOL0     H32795   2.648   2.733  10.624 -1.5548 -4.3202  2.9427
  243MOL0     H32796   2.793   2.635  10.645  0.8452  1.0270  1.3054
  243MOL0     H32797   2.654   2.818  10.852  0.9312  1.1220 -0.4129
  243MOL0     H32798   2.826   2.762  10.862  1.2669 -3.1145 -0.8871
  243MOL0     H32799   2.712   2.617  11.003  2.2739 -1.2723 -0.0357
  243MOL0     H32800   2.754   2.518  10.876  3.2095  3.0702 -2.0897
  243MOL0     H32801   2.477   2.642  10.934  1.6613  1.4665  0.3329
  243MOL0     H32802   2.537   2.477  10.958  2.2480  1.3938  2.2343
  243MOL0     H32803   2.420   2.468  10.548 -2.3137 -1.7720  0.2369
  243MOL0     H32804   2.878   3.015  10.813 -0.7951  0.5305  0.7475
  243MOL0     H32805   2.754   3.221  10.829  1.0785 -2.0753  1.2251
  244MOL0     O32806   2.147   7.826  10.666  0.5033 -0.0159  0.4353
  244MOL0     C32807   2.253   7.796  10.721  0.2361  0.8134 -0.4940
  244MOL0     O32808   2.380   7.818  10.678 -0.0278 -0.1104  0.3591
  244MOL0     C32809   2.406   7.918  10.592  0.2818  0.0786 -0.5906
  244MOL0     C32810   2.356   8.048  10.616 -0.0031  0.4576  0.8869
  244MOL0     C32811   2.391   8.155  10.539  0.1564 -0.7424  0.3497
  244MOL0     C32812   2.477   8.153  10.433  0.2338  0.2064 -0.1545
  244MOL0     O32813   2.501   8.270  10.361  0.1080  0.0696  0.2303
  244MOL0     C32814   2.504   8.400  10.425  0.5287 -0.0832 -0.2724
  244MOL0     C32815   2.391   8.490  10.387  0.1919 -0.8012 -0.5898
  244MOL0     C32816   2.386   8.623  10.457  0.1707 -0.6996  0.1672
  244MOL0     C32817   2.507   8.719  10.482  0.2288  0.3252 -0.6126
  244MOL0     C32818   2.579   8.749  10.359  0.8558 -0.2883  0.2275
  244MOL0     C32819   2.717   8.829  10.397  1.3277  0.9508  0.1239
  244MOL0     C32820   2.680   8.964  10.460  0.2625  0.1853 -0.4837
  244MOL0     C32821   2.793   9.051  10.425 -0.4412  0.4874  0.2458
  244MOL0     N32822   2.809   9.172  10.508 -0.1938 -0.1855  0.0276
  244MOL0     C32823   2.705   9.264  10.523  0.6717  0.1966  0.1687
  244MOL0     C32824   2.752   9.364  10.593  0.2567 -0.3385  0.0216
  244MOL0     C32825   2.668   9.489  10.621  0.3414 -0.2842 -0.1882
  244MOL0     C32826   2.612   9.482  10.759 -0.2356 -0.5209 -0.2180
  244MOL0     C32827   2.720   9.474  10.860  0.0739  0.7062 -0.5040
  244MOL0     C32828   2.817   9.591  10.851  0.2295 -0.6404 -0.0394
  244MOL0     O32829   2.898   9.591  10.972  0.1232 -0.0739  0.9627
  244MOL0     C32830   2.989   9.490  10.986  0.2971 -0.1454 -0.2485
  244MOL0     C32831   2.978   9.409  11.101  0.1063  0.0611  0.1694
  244MOL0     C32832   3.055   9.295  11.114 -0.3755  0.1969 -0.1269
  244MOL0     C32833   3.033   9.203  11.234  0.1790 -0.0353  0.1610
  244MOL0     C32834   3.144   9.262  11.010  0.8682 -0.4335  0.5133
  244MOL0     C32835   3.245   9.147  11.016 -0.7270  0.0610  0.7292
  244MOL0     O32836   3.194   9.022  11.001 -0.2893  0.2388 -0.6515
  244MOL0     C32837   3.266   8.912  11.037 -0.2439 -0.1216  0.1465
  244MOL0     C32838   3.323   8.898  11.160 -0.4642 -0.6850 -0.5465
  244MOL0     C32839   3.413   8.796  11.192 -0.0675 -0.0458  0.3853
  244MOL0     C32840   3.429   8.692  11.097 -0.5563 -1.0641  0.1957
  244MOL0     O32841   3.520   8.589  11.104 -0.0846 -0.3146  0.6037
  244MOL0     C32842   3.646   8.622  11.177  0.9410 -0.1439  0.1121
  244MOL0     C32843   3.747   8.509  11.156  0.8639 -1.1043  0.6041
  244MOL0     C32844   3.874   8.515  11.238  0.8852  0.4152 -0.5756
  244MOL0     C32845   3.960   8.387  11.220  0.4585  0.2744 -0.0686
  244MOL0     C32846   4.094   8.391  11.295 -0.0122  0.5054 -0.1899
  244MOL0     C32847   4.075   8.424  11.444 -0.6527  0.2802 -0.4811
  244MOL0     C32848   4.210   8.421  11.527 -0.9985  0.5280 -0.6617
  244MOL0     C32849   4.174   8.435  11.677 -0.4961 -0.8313 -0.0785
  244MOL0    Cl32850   4.321   8.475  11.762  0.1033 -0.3414  0.3301
  244MOL0     C32851   3.362   8.696  10.979  0.1753  0.5843  0.2938
  244MOL0     C32852   3.284   8.810  10.947 -0.5420 -0.2087  0.4318
  244MOL0     O32853   3.364   9.182  11.015 -0.5300  0.1687 -0.4071
  244MOL0     C32854   3.156   9.342  10.896 -0.2813  0.4089  0.5775
  244MOL0     C32855   3.084   9.462  10.889  0.3282 -0.6847  0.6419
  244MOL0     N32856   2.889   9.348  10.611  0.1071 -0.0466 -0.0854
  244MOL0     N32857   2.921   9.229  10.561 -0.2383  0.0220  0.2467
  244MOL0     C32858   2.532   8.031  10.404 -0.7026 -0.1996 -1.1724
  244MOL0     C32859   2.498   7.917  10.481  0.2415  0.3140  0.4939
  244MOL0     C32860   2.243   7.764  10.869 -1.5282  0.6712 -0.3684
  244MOL0     C32861   2.350   7.710  10.946 -0.1874 -0.3583 -0.0973
  244MOL0     C32862   2.332   7.671  11.076 -0.1903  0.1683 -0.2334
  244MOL0     C32863   2.208   7.676  11.140 -1.0236 -0.1950  0.2739
  244MOL0     O32864   2.198   7.625  11.268  0.5478  0.3323 -0.3844
  244MOL0     C32865   2.077   7.609  11.340 -0.1239 -0.0397 -0.0932
  244MOL0     C32866   1.985   7.507  11.279 -0.2047  0.2710  0.2380
  244MOL0     C32867   2.051   7.371  11.256  0.0951  0.0767 -0.1189
  244MOL0     C32868   2.084   7.303  11.391  0.0863 -0.7507 -0.0043
  244MOL0     C32869   2.120   7.158  11.361 -0.4905 -1.3263 -0.3935
  244MOL0     C32870   2.162   7.044  11.336 -0.5295 -0.1678  0.1257
  244MOL0     C32871   2.094   7.729  11.066 -0.9754 -0.0502 -0.5329
  244MOL0     C32872   2.119   7.783  10.939 -0.2112  0.1900  0.5310
  244MOL0     H32873   2.282   8.063  10.693  1.2211  0.3353  2.1244
  244MOL0     H32874   2.337   8.242  10.573  2.1989 -0.4794  3.3346
  244MOL0     H32875   2.492   8.387  10.533  0.3328  2.9738  0.1776
  244MOL0     H32876   2.606   8.434  10.404  1.6502 -0.8989  3.2449
  244MOL0     H32877   2.402   8.505  10.279 -1.5539  0.1986 -0.6705
  244MOL0     H32878   2.289   8.453  10.395 -0.9630  2.5169  2.6013
  244MOL0     H32879   2.308   8.681  10.407 -0.1640 -0.4438  0.9669
  244MOL0     H32880   2.344   8.602  10.555 -1.4703  0.9732 -0.1269
  244MOL0     H32881   2.489   8.808  10.543 -0.0587 -0.1151 -0.0424
  244MOL0     H32882   2.574   8.663  10.548  1.6378 -0.3430 -2.5155
  244MOL0     H32883   2.604   8.656  10.309 -0.1974 -1.0915  1.1496
  244MOL0     H32884   2.517   8.820  10.303  1.3290 -0.0858 -0.0435
  244MOL0     H32885   2.760   8.760  10.470 -4.0367  0.9567  3.8765
  244MOL0     H32886   2.780   8.835  10.308 -1.0720 -1.6855 -1.9564
  244MOL0     H32887   2.588   9.014  10.429 -1.5221 -1.3179  1.9823
  244MOL0     H32888   2.667   8.954  10.568 -2.6876  3.3151 -0.3472
  244MOL0     H32889   2.768   9.100  10.330 -0.4356  0.6494  0.3283
  244MOL0     H32890   2.894   9.009  10.420 -0.4378  0.4893  0.2890
  244MOL0     H32891   2.599   9.263  10.496 -0.3752  3.5900  3.3082
  244MOL0     H32892   2.729   9.575  10.593 -0.9855 -0.6426 -5.0998
  244MOL0     H32893   2.578   9.488  10.557 -0.9971 -2.6688  1.5645
  244MOL0     H32894   2.550   9.392  10.772  0.5142 -0.9988  0.1170
  244MOL0     H32895   2.548   9.570  10.768  0.8473  0.4489 -1.5714
  244MOL0     H32896   2.771   9.378  10.855 -0.2217  0.2214  3.0142
  244MOL0     H32897   2.656   9.473  10.949  1.0042  0.4767  0.1813
  244MOL0     H32898   2.759   9.683  10.853 -0.0772 -0.8156 -0.6277
  244MOL0     H32899   2.876   9.593  10.759 -1.5929 -0.7388 -1.2546
  244MOL0     H32900   2.891   9.417  11.166 -1.7291 -5.7305 -1.0246
  244MOL0     H32901   2.927   9.180  11.250  0.0606 -2.4024 -2.9760
  244MOL0     H32902   3.067   9.100  11.220 -1.9476 -0.7301 -0.3971
  244MOL0     H32903   3.084   9.240  11.323  2.7684  2.6413 -2.2299
  244MOL0     H32904   3.297   8.972  11.235  0.7531  0.8965 -1.6011
  244MOL0     H32905   3.462   8.768  11.284  0.7448 -0.1403 -0.0615
  244MOL0     H32906   3.682   8.718  11.137  0.8826  0.3019  1.1101
  244MOL0     H32907   3.614   8.637  11.280 -3.6668 -2.5273 -0.7284
  244MOL0     H32908   3.686   8.424  11.190 -1.1719  1.3448  3.6161
  244MOL0     H32909   3.764   8.513  11.048  0.5729  1.2397  0.5998
  244MOL0     H32910   3.835   8.521  11.340 -1.4880  2.1611 -1.4947
  244MOL0     H32911   3.917   8.611  11.208 -0.9260  0.8306 -2.0570
  244MOL0     H32912   3.903   8.300  11.254  0.6648 -0.2728 -1.1027
  244MOL0     H32913   3.968   8.377  11.112  2.9797  2.7098 -0.2270
  244MOL0     H32914   4.158   8.459  11.237  0.2739 -1.4078 -2.2545
  244MOL0     H32915   4.137   8.291  11.289 -0.4744  0.2102  1.0873
  244MOL0     H32916   4.030   8.523  11.460  3.2224  2.3532 -1.2442
  244MOL0     H32917   4.012   8.346  11.488 -0.8607  0.0275 -1.2103
  244MOL0     H32918   4.272   8.506  11.496 -2.1805  1.6731  0.0450
  244MOL0     H32919   4.250   8.319  11.521  3.8783  2.1414 -0.2805
  244MOL0     H32920   4.142   8.337  11.714 -2.8436 -0.6443 -1.4349
  244MOL0     H32921   4.090   8.504  11.688  0.2674 -0.1418  1.8309
  244MOL0     H32922   3.380   8.627  10.898 -1.0330 -2.5777  2.5158
  244MOL0     H32923   3.255   8.828  10.844  0.2413  3.4802  0.7181
  244MOL0     H32924   3.190   9.312  10.798 -1.1134  1.3482 -0.0139
  244MOL0     H32925   3.103   9.520  10.799  0.2411 -0.1749  0.9490
  244MOL0     H32926   2.614   8.021  10.333  0.0621  0.2240 -0.3659
  244MOL0     H32927   2.538   7.818  10.463  0.9106  0.3839  1.4788
  244MOL0     H32928   2.443   7.699  10.889 -0.2516  3.0131 -1.0659
  244MOL0     H32929   2.411   7.622  11.132 -1.5202 -1.2497  0.4552
  244MOL0     H32930   2.100   7.575  11.441 -0.3402 -1.6316 -0.5596
  244MOL0     H32931   2.025   7.704  11.358  0.4295  0.2750 -0.1317
  244MOL0     H32932   1.950   7.536  11.180  0.7891  1.5016  0.2256
  244MOL0     H32933   1.905   7.504  11.353  0.5712 -0.5426  1.0671
  244MOL0     H32934   2.136   7.373  11.187  0.3311  2.1322  0.1772
  244MOL0     H32935   1.978   7.313  11.198 -1.6038  0.4009  1.5764
  244MOL0     H32936   2.002   7.306  11.463 -0.6720  0.1349 -0.8708
  244MOL0     H32937   2.179   7.345  11.427  1.0819 -0.5164 -2.6647
  244MOL0     H32938   2.189   6.941  11.323 -1.2581 -0.2661 -0.6523
  244MOL0     H32939   1.996   7.726  11.112 -1.0865  2.5454 -0.4413
  244MOL0     H32940   2.040   7.835  10.886  0.3966 -0.8865 -1.5357
  245MOL0     O32941   4.547   7.777   4.758 -0.5618 -0.4775 -0.0679
  245MOL0     C32942   4.652   7.843   4.761 -0.2891  0.0229  1.1874
  245MOL0     O32943   4.692   7.939   4.669 -0.3030  0.2091  0.3975
  245MOL0     C32944   4.615   7.967   4.565 -0.6952  0.4143  0.7190
  245MOL0     C32945   4.538   7.871   4.481 -0.6073  0.7638  0.5063
  245MOL0     C32946   4.479   7.918   4.366 -0.8170  0.6143 -0.4977
  245MOL0     C32947   4.485   8.058   4.329  0.4437  0.5002 -0.5643
  245MOL0     O32948   4.419   8.117   4.227  0.2546 -0.8661  0.4878
  245MOL0     C32949   4.283   8.071   4.200 -0.1012 -0.5455 -0.6666
  245MOL0     C32950   4.179   8.103   4.308  0.5621 -0.0693  0.1793
  245MOL0     C32951   4.036   8.100   4.261  0.7041 -0.0140  0.6720
  245MOL0     C32952   4.005   8.188   4.144 -0.0389  0.0662 -0.1953
  245MOL0     C32953   3.863   8.231   4.134  0.1981  0.3787 -0.4579
  245MOL0     C32954   3.797   8.324   4.242 -0.7095  0.0433  0.6569
  245MOL0     C32955   3.647   8.331   4.211 -0.0175  0.5543 -0.0332
  245MOL0     C32956   3.612   8.447   4.105  0.1083  0.3160  0.1126
  245MOL0     N32957   3.662   8.427   3.965 -0.4601  0.3546  0.0724
  245MOL0     C32958   3.641   8.307   3.889 -0.7437  0.6279 -0.1464
  245MOL0     C32959   3.719   8.322   3.780  1.1774  0.1483 -0.2069
  245MOL0     C32960   3.712   8.221   3.676 -0.2437  0.8040  1.0058
  245MOL0     C32961   3.842   8.128   3.712  0.1968  0.9534  0.4122
  245MOL0     C32962   3.839   8.013   3.613  0.2981  0.0830  0.8392
  245MOL0     C32963   3.911   7.880   3.643 -0.5871  0.6786 -0.1885
  245MOL0     O32964   4.037   7.925   3.698 -0.4722 -0.3974 -0.3691
  245MOL0     C32965   4.097   7.860   3.802 -0.5566  0.4068 -0.6346
  245MOL0     C32966   4.036   7.830   3.923 -0.1389  0.2756 -0.8400
  245MOL0     C32967   4.100   7.745   4.022  0.1641 -0.7477  0.2784
  245MOL0     C32968   4.007   7.725   4.143 -0.7169  0.5464 -0.8343
  245MOL0     C32969   4.235   7.707   3.999  0.5489  0.6190 -0.7051
  245MOL0     C32970   4.300   7.624   4.096 -0.3963  0.4084 -0.9889
  245MOL0     O32971   4.220   7.546   4.175 -0.3263 -0.6720 -0.0437
  245MOL0     C32972   4.290   7.484   4.275 -0.5885 -0.5435  0.3268
  245MOL0     C32973   4.324   7.339   4.289 -0.4848 -0.5328 -0.4338
  245MOL0     C32974   4.375   7.295   4.405 -0.2576 -0.0273 -0.3672
  245MOL0     C32975   4.410   7.374   4.509  0.9206  0.3571  0.5837
  245MOL0     O32976   4.464   7.318   4.616  0.1355  0.1705  0.0784
  245MOL0     C32977   4.568   7.403   4.671 -0.6454  0.0076 -0.2116
  245MOL0     C32978   4.681   7.319   4.742  0.6156  0.5197 -1.1765
  245MOL0     C32979   4.763   7.416   4.827  1.2968 -0.7880 -0.1957
  245MOL0     C32980   4.889   7.360   4.885 -0.2951 -0.0989 -0.3375
  245MOL0     C32981   4.870   7.261   5.003  0.2520 -0.5930 -0.7836
  245MOL0     C32982   4.961   7.310   5.110 -0.5679  0.1224 -0.1092
  245MOL0     C32983   4.991   7.219   5.228  0.2829 -0.0865 -0.4170
  245MOL0     C32984   5.068   7.279   5.347  0.9233  0.2706  0.1071
  245MOL0    Cl32985   5.002   7.423   5.431 -0.1011  0.6422  0.0379
  245MOL0     C32986   4.369   7.508   4.498  0.2031  0.6120 -0.5465
  245MOL0     C32987   4.312   7.564   4.389 -0.2697  0.2559 -0.2407
  245MOL0     O32988   4.423   7.619   4.099 -0.1755  0.0804 -0.3759
  245MOL0     C32989   4.294   7.731   3.876  0.5505 -0.3995  0.0975
  245MOL0     C32990   4.224   7.798   3.775  0.0781 -0.7177  0.5299
  245MOL0     N32991   3.795   8.431   3.784 -0.6509 -0.5206  0.1460
  245MOL0     N32992   3.765   8.484   3.899 -0.4530  0.1434 -0.1869
  245MOL0     C32993   4.546   8.149   4.417 -0.7061 -0.2203  0.3834
  245MOL0     C32994   4.613   8.100   4.533  0.1271  0.1090  0.8961
  245MOL0     C32995   4.747   7.814   4.873  0.2735  0.0862 -0.2429
  245MOL0     C32996   4.879   7.851   4.872  0.0745 -0.6016 -0.9970
  245MOL0     C32997   4.973   7.815   4.977  0.9216  0.5976  0.6592
  245MOL0     C32998   4.934   7.730   5.075  0.3947  0.3808 -0.7085
  245MOL0     O32999   5.008   7.709   5.191  0.4898  0.5589 -0.8513
  245MOL0     C33000   5.131   7.781   5.205 -0.1410  0.9932  0.1290
  245MOL0     C33001   5.184   7.773   5.347  0.7627  1.5235  0.4512
  245MOL0     C33002   5.304   7.854   5.361 -0.3729  0.0332 -0.3362
  245MOL0     C33003   5.340   7.881   5.510  0.0818 -0.6505  1.0107
  245MOL0     C33004   5.489   7.907   5.523 -0.7516 -0.2233 -0.5724
  245MOL0     C33005   5.609   7.925   5.537  0.1859 -1.5603 -0.1108
  245MOL0     C33006   4.803   7.672   5.067  0.3539  0.1965  0.3853
  245MOL0     C33007   4.712   7.720   4.968 -0.4189  0.2581  0.1064
  245MOL0     H33008   4.529   7.769   4.516 -1.1226  0.4141 -0.6235
  245MOL0     H33009   4.413   7.857   4.305  0.7646 -2.3448  0.5594
  245MOL0     H33010   4.258   8.118   4.105  2.8144 -1.9120 -2.2382
  245MOL0     H33011   4.275   7.966   4.173 -1.3963 -1.1028  1.6175
  245MOL0     H33012   4.194   8.020   4.378 -0.1407 -0.0922  0.3070
  245MOL0     H33013   4.205   8.199   4.355 -2.1442  0.5793  0.5332
  245MOL0     H33014   3.996   8.003   4.231  0.2294  0.3639  0.0653
  245MOL0     H33015   3.971   8.131   4.343 -0.3845  1.4835 -0.7123
  245MOL0     H33016   4.073   8.274   4.140  0.8543 -0.5684  0.7993
  245MOL0     H33017   4.033   8.124   4.059 -2.5675 -0.8774 -0.3862
  245MOL0     H33018   3.843   8.280   4.039 -3.9284 -0.3895 -0.1911
  245MOL0     H33019   3.805   8.138   4.131 -2.0516  1.6091  1.2462
  245MOL0     H33020   3.822   8.281   4.339 -2.5932 -1.2574  0.6311
  245MOL0     H33021   3.848   8.421   4.234  0.0226 -0.4909 -2.4879
  245MOL0     H33022   3.613   8.231   4.184  3.5667 -0.5649 -0.9322
  245MOL0     H33023   3.588   8.354   4.299 -3.1736  2.2338 -2.3849
  245MOL0     H33024   3.647   8.543   4.144 -0.5417 -0.0542  1.7054
  245MOL0     H33025   3.503   8.452   4.101  0.0813  0.3451  0.7375
  245MOL0     H33026   3.591   8.214   3.911  0.8507  0.2010  1.9321
  245MOL0     H33027   3.616   8.168   3.681 -1.0300  2.1816  1.0032
  245MOL0     H33028   3.714   8.254   3.571  2.8573 -1.5672  0.1975
  245MOL0     H33029   3.827   8.108   3.819 -0.2176  3.0897  0.7966
  245MOL0     H33030   3.940   8.176   3.701  1.7691 -2.3721 -2.0639
  245MOL0     H33031   3.874   8.052   3.518  1.1703  0.4489  1.3017
  245MOL0     H33032   3.731   7.996   3.600  0.3189 -0.1098  0.9103
  245MOL0     H33033   3.932   7.814   3.558 -1.5466 -0.3399  0.3291
  245MOL0     H33034   3.856   7.832   3.725  1.0776 -1.1944 -0.0845
  245MOL0     H33035   3.950   7.884   3.963  0.4974 -0.0308  1.0632
  245MOL0     H33036   3.976   7.620   4.148  1.6951 -0.2245 -0.2126
  245MOL0     H33037   4.070   7.731   4.233 -2.0892  0.8025  0.1404
  245MOL0     H33038   3.923   7.791   4.165 -1.4323 -0.5750 -0.0654
  245MOL0     H33039   4.293   7.261   4.220  0.0393 -2.8373  1.7782
  245MOL0     H33040   4.397   7.190   4.414  0.0517  0.1660  1.7513
  245MOL0     H33041   4.619   7.470   4.601 -0.1439 -3.4824 -3.5020
  245MOL0     H33042   4.527   7.466   4.750 -1.4890 -1.9334  0.9873
  245MOL0     H33043   4.633   7.245   4.807 -1.2348  1.0693 -1.8389
  245MOL0     H33044   4.748   7.264   4.675 -1.4597  0.1878 -3.1002
  245MOL0     H33045   4.701   7.458   4.906 -0.5464 -0.9372 -1.5106
  245MOL0     H33046   4.787   7.500   4.761  1.2530  0.9880  1.9341
  245MOL0     H33047   4.956   7.307   4.817  2.1889 -0.4750  2.2389
  245MOL0     H33048   4.947   7.443   4.927  1.0399 -0.0997 -2.0695
  245MOL0     H33049   4.904   7.162   4.971  1.7657 -0.7549  1.1495
  245MOL0     H33050   4.764   7.262   5.030 -0.5854 -1.3559 -3.6369
  245MOL0     H33051   5.060   7.322   5.066 -1.4480 -1.1539 -2.6347
  245MOL0     H33052   4.916   7.402   5.149 -1.1911  0.8316 -2.3580
  245MOL0     H33053   5.062   7.143   5.194  4.7712  2.2804  2.6688
  245MOL0     H33054   4.898   7.176   5.265 -1.5019  2.1369 -1.9707
  245MOL0     H33055   5.174   7.302   5.335  0.1725  3.0619 -2.7441
  245MOL0     H33056   5.047   7.210   5.429  0.1183  2.0781  1.5019
  245MOL0     H33057   4.385   7.568   4.587  0.4177  1.3382 -1.0558
  245MOL0     H33058   4.288   7.670   4.387  0.7312  0.6160  2.6747
  245MOL0     H33059   4.397   7.702   3.858  0.9928  1.6550 -1.0377
  245MOL0     H33060   4.272   7.817   3.680  2.4382  2.2232  2.1265
  245MOL0     H33061   4.541   8.252   4.384 -3.4366 -0.8757 -1.5561
  245MOL0     H33062   4.672   8.158   4.603 -0.4723 -2.6083  3.8670
  245MOL0     H33063   4.919   7.929   4.808  1.0328  1.6184  2.0678
  245MOL0     H33064   5.069   7.864   4.975  0.0644  2.6960  3.4023
  245MOL0     H33065   5.202   7.733   5.137 -3.2018 -2.3553 -1.0256
  245MOL0     H33066   5.118   7.888   5.187  2.4159  1.2858 -0.2648
  245MOL0     H33067   5.211   7.669   5.365  0.5056  1.3891  0.0877
  245MOL0     H33068   5.112   7.807   5.422  1.0363  2.0764  0.4675
  245MOL0     H33069   5.291   7.950   5.310  1.1575  0.2703 -0.3350
  245MOL0     H33070   5.379   7.793   5.310  1.0147  0.6805  0.8460
  245MOL0     H33071   5.309   7.793   5.567  0.0944 -1.7015 -0.5393
  245MOL0     H33072   5.287   7.971   5.542  1.7399  0.6003  0.3851
  245MOL0     H33073   5.714   7.943   5.538 -0.0115 -0.3638  0.3904
  245MOL0     H33074   4.766   7.609   5.147  2.4140 -0.9190  0.5353
  245MOL0     H33075   4.611   7.680   4.965 -0.8451  1.3331 -1.4894
  246MOL0     O33076   7.389   7.971   0.621  0.2433  0.0314  0.4794
  246MOL0     C33077   7.302   7.962   0.707 -0.7986  1.3655  0.4160
  246MOL0     O33078   7.290   7.863   0.802  1.0942 -0.5959 -0.3176
  246MOL0     C33079   7.385   7.776   0.835  0.0822 -0.0233 -0.0898
  246MOL0     C33080   7.390   7.747   0.971 -0.0433  0.5492  0.6820
  246MOL0     C33081   7.468   7.646   1.019  0.7306 -0.5483  0.2883
  246MOL0     C33082   7.546   7.576   0.936  0.2054 -0.3774 -0.5422
  246MOL0     O33083   7.641   7.493   0.980  0.6717  0.1867 -0.8231
  246MOL0     C33084   7.610   7.353   0.958 -0.0664 -0.4300  0.7412
  246MOL0     C33085   7.667   7.257   1.076  0.3489 -0.2791  0.3390
  246MOL0     C33086   7.607   7.282   1.214  0.2209  0.9651  0.6188
  246MOL0     C33087   7.645   7.417   1.274  0.4097  0.5300 -0.5469
  246MOL0     C33088   7.674   7.402   1.416  0.1382 -0.8764 -0.1275
  246MOL0     C33089   7.640   7.531   1.488 -0.4538  0.7154 -0.5772
  246MOL0     C33090   7.631   7.511   1.642 -0.1827 -0.2027 -0.0216
  246MOL0     C33091   7.520   7.585   1.723 -0.1941  0.0510  0.2760
  246MOL0     N33092   7.519   7.727   1.694  0.1093  0.2085  0.2512
  246MOL0     C33093   7.588   7.819   1.764 -0.0639 -0.2438 -0.5904
  246MOL0     C33094   7.548   7.937   1.710  0.2599 -0.2680 -0.5902
  246MOL0     C33095   7.574   8.074   1.764  0.6063  0.2520  0.0788
  246MOL0     C33096   7.668   8.085   1.886  0.5107 -0.0120  0.4887
  246MOL0     C33097   7.683   8.228   1.921  0.5850  0.3497 -0.0123
  246MOL0     C33098   7.737   8.239   2.062 -0.1645 -0.1799 -0.0242
  246MOL0     O33099   7.650   8.166   2.160  0.1517 -0.7230  0.3122
  246MOL0     C33100   7.656   8.189   2.293 -0.7763 -0.6327 -0.0050
  246MOL0     C33101   7.745   8.279   2.364 -0.3607  0.3057 -0.2710
  246MOL0     C33102   7.774   8.275   2.508 -0.1745  0.5087  1.1018
  246MOL0     C33103   7.865   8.383   2.561 -0.9941  0.3418 -0.3534
  246MOL0     C33104   7.709   8.175   2.583  0.0737 -0.4589 -0.9606
  246MOL0     C33105   7.717   8.153   2.729  0.0711 -0.2818  0.6143
  246MOL0     O33106   7.750   8.259   2.809 -0.7275 -0.2497 -0.5327
  246MOL0     C33107   7.779   8.245   2.940  0.7260  0.1755 -0.3393
  246MOL0     C33108   7.915   8.224   2.974  0.2087 -0.7867  0.7387
  246MOL0     C33109   7.955   8.208   3.103 -0.0991  0.4222 -0.4658
  246MOL0     C33110   7.868   8.219   3.207 -0.3483  0.0178 -0.7123
  246MOL0     O33111   7.924   8.199   3.328 -0.1039  0.3420  0.0973
  246MOL0     C33112   7.854   8.249   3.448  0.4215  0.2837 -0.9055
  246MOL0     C33113   7.855   8.401   3.454  0.8141  1.1102 -0.0078
  246MOL0     C33114   7.998   8.457   3.465 -0.3965 -1.1078 -0.1092
  246MOL0     C33115   7.987   8.610   3.470 -0.6243  0.3564  0.0362
  246MOL0     C33116   8.109   8.679   3.421 -0.0242  0.1150  1.0139
  246MOL0     C33117   8.101   8.827   3.446 -0.2166 -0.1602  0.1814
  246MOL0     C33118   8.211   8.909   3.373 -0.3396 -0.5110 -0.9123
  246MOL0     C33119   8.260   9.030   3.450  0.5829  0.4558 -0.0682
  246MOL0    Cl33120   8.129   9.137   3.513 -0.7188 -0.4154  0.1842
  246MOL0     C33121   7.729   8.248   3.179 -0.3116  0.6875 -0.1210
  246MOL0     C33122   7.685   8.257   3.044  0.4344 -0.6701  0.0507
  246MOL0     O33123   7.699   8.041   2.773  0.3628 -0.0996 -0.8759
  246MOL0     C33124   7.619   8.091   2.510  1.1910 -0.4527  0.5466
  246MOL0     C33125   7.599   8.100   2.377  0.5446  0.1094  0.7511
  246MOL0     N33126   7.451   7.918   1.607 -0.6085 -0.1836 -0.2769
  246MOL0     N33127   7.452   7.789   1.587  0.1077  0.3931 -0.2390
  246MOL0     C33128   7.542   7.606   0.804 -1.0427 -0.5340 -0.0454
  246MOL0     C33129   7.468   7.707   0.747  0.3493 -0.4251 -0.1869
  246MOL0     C33130   7.186   8.052   0.695  0.2265 -0.0027  0.5350
  246MOL0     C33131   7.156   8.121   0.580 -0.6059  0.1896 -0.1841
  246MOL0     C33132   7.052   8.213   0.570  0.6510  0.5944  0.4040
  246MOL0     C33133   6.967   8.225   0.679 -0.0262  0.9820 -0.3671
  246MOL0     O33134   6.859   8.307   0.669 -0.0419  1.6550  0.0766
  246MOL0     C33135   6.881   8.440   0.662 -0.6119 -0.9089  0.2032
  246MOL0     C33136   6.838   8.488   0.523 -0.4819  1.0814  0.8752
  246MOL0     C33137   6.694   8.515   0.515 -0.0845  0.3677 -0.2960
  246MOL0     C33138   6.669   8.543   0.362  0.4268 -0.0499  0.1803
  246MOL0     C33139   6.526   8.546   0.338  0.3701  1.0622 -0.8578
  246MOL0     C33140   6.403   8.544   0.330 -0.3615 -0.2382  0.2846
  246MOL0     C33141   6.994   8.154   0.796  0.4291  0.5412  0.6040
  246MOL0     C33142   7.093   8.062   0.799  0.0234  1.0704  0.2486
  246MOL0     H33143   7.323   7.805   1.033 -0.1406  1.3683 -0.1579
  246MOL0     H33144   7.474   7.640   1.127 -0.6000  1.1529  0.4887
  246MOL0     H33145   7.502   7.346   0.943 -0.1779  3.1828 -1.2779
  246MOL0     H33146   7.652   7.327   0.860 -4.9405  1.7959 -2.2902
  246MOL0     H33147   7.659   7.150   1.054  1.2047 -0.5443  1.2357
  246MOL0     H33148   7.775   7.271   1.086 -0.1350  2.5545  3.4187
  246MOL0     H33149   7.500   7.260   1.222  0.1721  1.4575  1.4294
  246MOL0     H33150   7.647   7.196   1.268 -0.7806  0.6466  0.8830
  246MOL0     H33151   7.735   7.451   1.223  0.2136  1.2440 -0.4215
  246MOL0     H33152   7.565   7.491   1.260 -0.6263  0.0551  2.1811
  246MOL0     H33153   7.601   7.327   1.449 -0.5336 -0.9513 -1.6700
  246MOL0     H33154   7.777   7.368   1.424 -0.3316 -3.0529 -2.1648
  246MOL0     H33155   7.709   7.614   1.468 -2.1912  2.6533  0.9592
  246MOL0     H33156   7.544   7.567   1.450 -1.7726  0.7202  2.4891
  246MOL0     H33157   7.600   7.408   1.662 -1.7514  0.5946  1.9910
  246MOL0     H33158   7.729   7.527   1.688 -0.4225  0.4554  0.2698
  246MOL0     H33159   7.541   7.558   1.827 -0.0284  0.9253  0.4838
  246MOL0     H33160   7.424   7.547   1.687  0.4118 -0.3370 -0.9610
  246MOL0     H33161   7.647   7.800   1.853  0.0372  1.3277 -0.2961
  246MOL0     H33162   7.594   8.151   1.690 -0.6461  1.8126  1.3067
  246MOL0     H33163   7.479   8.112   1.801  0.6187  0.2285  0.1380
  246MOL0     H33164   7.765   8.037   1.868  0.2831 -0.5252  0.6204
  246MOL0     H33165   7.622   8.043   1.975 -0.7177  0.4210  0.0825
  246MOL0     H33166   7.581   8.269   1.928  0.3979  1.7108 -5.6189
  246MOL0     H33167   7.724   8.286   1.838 -0.8096 -1.3107 -1.9741
  246MOL0     H33168   7.736   8.347   2.079 -1.8542  0.0452 -1.2993
  246MOL0     H33169   7.840   8.204   2.066 -0.3092 -0.5329  1.5146
  246MOL0     H33170   7.802   8.342   2.296 -2.9282  2.0827 -0.9041
  246MOL0     H33171   7.882   8.463   2.489  1.5213  1.6152  1.4669
  246MOL0     H33172   7.822   8.430   2.650 -1.0010 -0.5114  0.1071
  246MOL0     H33173   7.963   8.341   2.587  0.4035  1.3437 -3.5142
  246MOL0     H33174   7.994   8.206   2.902  1.1089 -3.2484  2.2364
  246MOL0     H33175   8.061   8.186   3.118 -0.3797 -0.4780  0.2978
  246MOL0     H33176   7.753   8.205   3.458  0.2670  1.0207  1.2299
  246MOL0     H33177   7.902   8.203   3.535 -2.9902 -2.1275 -0.0658
  246MOL0     H33178   7.799   8.451   3.375 -1.1914  1.3056  1.4618
  246MOL0     H33179   7.796   8.426   3.543 -7.1135  2.3559 -4.6439
  246MOL0     H33180   8.063   8.421   3.385  0.6597  1.1246 -0.3484
  246MOL0     H33181   8.051   8.414   3.550 -0.7799 -0.4825  0.4554
  246MOL0     H33182   7.902   8.655   3.417 -1.0568  0.4260  0.7665
  246MOL0     H33183   7.973   8.635   3.576  0.7374  3.4992 -0.4048
  246MOL0     H33184   8.107   8.683   3.311  0.1519  4.9276  0.9875
  246MOL0     H33185   8.191   8.627   3.472 -0.2426 -0.3152  0.9285
  246MOL0     H33186   8.012   8.879   3.411  1.9874  3.4769 -0.6175
  246MOL0     H33187   8.102   8.828   3.555 -1.8621  3.3221  0.2917
  246MOL0     H33188   8.160   8.938   3.281  1.5599  1.6119 -1.3995
  246MOL0     H33189   8.294   8.847   3.340  0.7108  0.5528 -0.3363
  246MOL0     H33190   8.334   9.076   3.384  1.5480 -2.8514 -1.4787
  246MOL0     H33191   8.326   8.986   3.526  0.8631 -0.4245 -0.8067
  246MOL0     H33192   7.653   8.236   3.256  1.4442 -1.2382  1.4100
  246MOL0     H33193   7.578   8.266   3.034  0.3020  0.1387  1.7681
  246MOL0     H33194   7.561   8.019   2.566  1.3015 -0.4392  0.6782
  246MOL0     H33195   7.545   8.018   2.330  2.3677 -2.2036  2.4470
  246MOL0     H33196   7.618   7.561   0.742 -1.7980  1.8151 -2.9052
  246MOL0     H33197   7.451   7.731   0.643 -0.4881  1.7785  0.3921
  246MOL0     H33198   7.224   8.106   0.497 -1.4969 -1.7853 -0.6350
  246MOL0     H33199   7.027   8.265   0.478 -0.4557  0.6632  0.7292
  246MOL0     H33200   6.816   8.483   0.739 -0.6234  0.2635 -0.4366
  246MOL0     H33201   6.983   8.471   0.687 -0.2362 -1.2569 -0.8433
  246MOL0     H33202   6.865   8.404   0.458  0.2232  2.1881 -0.3138
  246MOL0     H33203   6.897   8.574   0.491  1.4608 -1.2275 -2.3931
  246MOL0     H33204   6.659   8.602   0.571 -2.6372 -1.7356  1.6083
  246MOL0     H33205   6.639   8.429   0.553  2.2887 -0.3247  1.8401
  246MOL0     H33206   6.713   8.469   0.294  0.4400 -2.0463  2.2194
  246MOL0     H33207   6.714   8.636   0.326  0.4213 -1.1877 -3.0950
  246MOL0     H33208   6.297   8.549   0.340 -0.1112  2.3286  3.2372
  246MOL0     H33209   6.925   8.167   0.879 -4.6340  0.8854 -3.1833
  246MOL0     H33210   7.100   8.008   0.893 -0.8596  1.1345  0.3652
  247MOL0     O33211   7.532  10.075   0.197 -0.3348  0.3647 -0.0998
  247MOL0     C33212   7.554   9.970   0.256 -0.7875 -0.1409  0.2969
  247MOL0     O33213   7.622   9.862   0.196  0.0709  0.3748 -0.5463
  247MOL0     C33214   7.657   9.868   0.065  0.1054 -0.2464 -0.5052
  247MOL0     C33215   7.731   9.977   0.008  0.4945  0.3652 -0.0204
  247MOL0     C33216   7.754   9.980  -0.129 -0.6955 -0.8974  0.8531
  247MOL0     C33217   7.723   9.880  -0.212  0.8122 -0.0407  0.7992
  247MOL0     O33218   7.777   9.866  -0.335 -0.2116  0.2009 -0.3186
  247MOL0     C33219   7.921   9.847  -0.343  0.5015  0.5387  0.0528
  247MOL0     C33220   7.997   9.935  -0.435  0.9425  0.0965  0.0289
  247MOL0     C33221   7.959  10.089  -0.434 -0.4246  0.1769 -0.3961
  247MOL0     C33222   8.064  10.179  -0.502 -0.2180 -0.2382 -0.3808
  247MOL0     C33223   8.013  10.319  -0.535 -0.1252 -0.4423 -0.2961
  247MOL0     C33224   8.101  10.409  -0.623  0.8109 -0.4538 -0.2533
  247MOL0     C33225   8.033  10.546  -0.668  0.2424 -0.1753  0.6077
  247MOL0     C33226   8.139  10.642  -0.725 -0.5122  0.1343 -0.9910
  247MOL0     N33227   8.090  10.771  -0.754 -0.4624  0.3310  1.1805
  247MOL0     C33228   8.107  10.829  -0.878 -0.3072  0.1762 -0.5017
  247MOL0     C33229   8.050  10.949  -0.861  0.7348 -0.6739  0.0257
  247MOL0     C33230   8.051  11.038  -0.976  0.1250 -0.2415  0.3482
  247MOL0     C33231   7.907  11.070  -1.014  0.4311 -0.2747 -0.2626
  247MOL0     C33232   7.886  11.071  -1.176 -1.2169  0.0544 -0.6836
  247MOL0     C33233   7.897  10.935  -1.234 -0.3252  0.5551  0.4368
  247MOL0     O33234   8.036  10.881  -1.250  0.0325 -0.7105  0.6392
  247MOL0     C33235   8.090  10.867  -1.382  0.2856 -0.0058  0.0710
  247MOL0     C33236   8.121  10.741  -1.433 -0.4658  0.1892 -0.9236
  247MOL0     C33237   8.132  10.711  -1.571  0.3855  0.4201 -0.1690
  247MOL0     C33238   8.133  10.568  -1.625 -1.0641 -0.6117 -0.4239
  247MOL0     C33239   8.143  10.821  -1.658 -0.1474 -0.7200  0.3815
  247MOL0     C33240   8.142  10.811  -1.798 -0.5388  0.6537 -0.2873
  247MOL0     O33241   8.033  10.745  -1.855 -0.4065 -0.6735  0.1285
  247MOL0     C33242   7.988  10.782  -1.977 -0.2270  1.0811  0.3969
  247MOL0     C33243   7.961  10.912  -2.019  0.4912 -0.2095  0.2550
  247MOL0     C33244   7.899  10.935  -2.143 -0.2919  0.2745  0.3163
  247MOL0     C33245   7.859  10.824  -2.227  0.6051  0.8501 -0.0804
  247MOL0     O33246   7.787  10.851  -2.344  0.1997  0.2428  0.2233
  247MOL0     C33247   7.715  10.734  -2.404  0.0293 -1.1069  0.4883
  247MOL0     C33248   7.613  10.787  -2.507 -0.2493  0.3098 -0.3926
  247MOL0     C33249   7.681  10.823  -2.644  0.0836 -0.8159 -0.6271
  247MOL0     C33250   7.589  10.910  -2.728  0.2998  0.1042  0.2473
  247MOL0     C33251   7.627  11.068  -2.740 -0.2905  0.9811 -0.0778
  247MOL0     C33252   7.629  11.142  -2.612 -0.2599 -0.0763 -0.7250
  247MOL0     C33253   7.652  11.304  -2.625  0.0828  0.2217 -1.0926
  247MOL0     C33254   7.794  11.327  -2.681 -0.0462 -0.4927 -0.1023
  247MOL0    Cl33255   7.914  11.292  -2.555 -0.0523 -0.0181  0.4896
  247MOL0     C33256   7.889  10.691  -2.187  0.2378 -0.5388  0.1924
  247MOL0     C33257   7.948  10.674  -2.063 -1.1246  0.6968 -0.4424
  247MOL0     O33258   8.222  10.874  -1.859 -0.0923  0.2025 -0.3981
  247MOL0     C33259   8.129  10.959  -1.611 -0.6415 -0.1087 -0.1311
  247MOL0     C33260   8.107  10.976  -1.466  0.8095 -0.7146  0.8276
  247MOL0     N33261   8.021  10.974  -0.726 -0.3780 -0.1276  0.0336
  247MOL0     N33262   8.042  10.867  -0.668  0.5224  0.6092  0.5390
  247MOL0     C33263   7.645   9.773  -0.155 -0.0071  0.4862  0.9038
  247MOL0     C33264   7.612   9.764  -0.021 -0.1981  0.2183  0.6045
  247MOL0     C33265   7.499   9.957   0.397 -0.0980  0.1327  0.3217
  247MOL0     C33266   7.496   9.829   0.454  0.1701 -0.4814 -1.0007
  247MOL0     C33267   7.439   9.807   0.585 -0.0236 -0.8612 -0.3273
  247MOL0     C33268   7.401   9.920   0.661  0.4487  0.9392  0.2282
  247MOL0     O33269   7.353   9.896   0.783  1.0792  0.5172  0.2728
  247MOL0     C33270   7.434   9.928   0.895 -0.5717 -1.3241 -0.3852
  247MOL0     C33271   7.379  10.056   0.965 -0.2503 -0.7339  0.5673
  247MOL0     C33272   7.254  10.030   1.047  0.4520  0.4325 -1.0052
  247MOL0     C33273   7.196  10.160   1.105 -0.7012 -0.2149 -0.6025
  247MOL0     C33274   7.204  10.170   1.245 -0.1003  0.2341  0.3424
  247MOL0     C33275   7.182  10.171   1.364 -0.8594  0.9299  0.7169
  247MOL0     C33276   7.407  10.052   0.610  0.1750 -0.0740 -0.5533
  247MOL0     C33277   7.454  10.068   0.476  1.0695 -0.3229  0.4512
  247MOL0     H33278   7.754  10.063   0.069 -0.9045  1.0190 -0.3864
  247MOL0     H33279   7.807  10.068  -0.165 -1.7677 -0.0185  1.3845
  247MOL0     H33280   7.972   9.852  -0.246  1.0181 -0.0813 -0.1794
  247MOL0     H33281   7.924   9.749  -0.390 -3.6007  0.8758 -1.3239
  247MOL0     H33282   8.101   9.909  -0.417  0.3481 -1.0661  2.0778
  247MOL0     H33283   7.965   9.906  -0.536 -1.9599  3.6462 -0.2986
  247MOL0     H33284   7.865  10.093  -0.489  0.7440 -1.9528 -2.7460
  247MOL0     H33285   7.948  10.115  -0.328 -0.8985 -0.0026 -0.4007
  247MOL0     H33286   8.147  10.210  -0.438 -1.9738  3.3811  0.4279
  247MOL0     H33287   8.089  10.129  -0.596  0.5664  0.6300 -0.6449
  247MOL0     H33288   7.908  10.313  -0.564  0.3640 -3.4222 -1.8833
  247MOL0     H33289   8.021  10.375  -0.441 -0.1629 -1.4034  0.2977
  247MOL0     H33290   8.191  10.437  -0.569 -0.5830 -0.2097  2.0475
  247MOL0     H33291   8.132  10.350  -0.711  1.3938  1.1607 -1.1673
  247MOL0     H33292   7.954  10.528  -0.742 -1.1119 -0.7968  2.1446
  247MOL0     H33293   7.995  10.595  -0.578  1.7551  4.7885 -1.0980
  247MOL0     H33294   8.170  10.599  -0.820 -1.2535  4.7620 -3.6591
  247MOL0     H33295   8.209  10.656  -0.642  0.3647  3.2921 -2.1004
  247MOL0     H33296   8.137  10.779  -0.969  1.0016 -1.9243  1.0257
  247MOL0     H33297   8.107  11.131  -0.959  1.2310 -0.3647 -2.1415
  247MOL0     H33298   8.094  11.001  -1.069 -1.6747  3.0918 -2.0536
  247MOL0     H33299   7.881  11.172  -0.984  0.1748 -0.2502 -0.5723
  247MOL0     H33300   7.840  10.995  -0.971 -0.9816  1.1170  0.0661
  247MOL0     H33301   7.958  11.144  -1.215  0.4596  0.1152  2.2022
  247MOL0     H33302   7.785  11.102  -1.203 -0.9008 -0.2830 -2.3288
  247MOL0     H33303   7.835  10.913  -1.321  0.0007  0.4439  0.2282
  247MOL0     H33304   7.855  10.861  -1.166 -1.2535 -1.0185 -1.7285
  247MOL0     H33305   8.119  10.665  -1.355 -1.0794 -1.9409 -2.8938
  247MOL0     H33306   8.028  10.552  -1.651 -1.6424  0.0652  1.3295
  247MOL0     H33307   8.207  10.545  -1.702  1.1852 -0.6387  1.6127
  247MOL0     H33308   8.166  10.499  -1.547  1.5540 -0.8149 -1.6226
  247MOL0     H33309   7.996  10.990  -1.951 -0.1733 -2.2265  3.1340
  247MOL0     H33310   7.879  11.040  -2.163 -1.1484  0.5737  2.4777
  247MOL0     H33311   7.782  10.662  -2.452  1.5925  1.6241 -1.6739
  247MOL0     H33312   7.668  10.690  -2.315 -0.6134  0.4298  0.9280
  247MOL0     H33313   7.549  10.699  -2.520 -0.1888  0.4887 -2.1406
  247MOL0     H33314   7.553  10.868  -2.465 -0.1569  1.6051 -2.6035
  247MOL0     H33315   7.702  10.731  -2.700 -0.7744 -1.3935 -0.0405
  247MOL0     H33316   7.776  10.871  -2.621 -1.3397  1.3032  1.2155
  247MOL0     H33317   7.601  10.853  -2.820  0.9778 -1.6660  1.3779
  247MOL0     H33318   7.487  10.906  -2.688  1.0684  2.7377  2.8242
  247MOL0     H33319   7.551  11.110  -2.807  2.2988  2.3416 -2.3822
  247MOL0     H33320   7.729  11.060  -2.778 -0.0990 -2.0213  0.8062
  247MOL0     H33321   7.525  11.135  -2.578  0.6836  0.2012  2.6311
  247MOL0     H33322   7.699  11.088  -2.547  0.3058 -0.2383 -1.4628
  247MOL0     H33323   7.622  11.348  -2.529 -2.7892  0.8044 -2.1547
  247MOL0     H33324   7.583  11.347  -2.697 -0.8763 -1.8422 -1.4856
  247MOL0     H33325   7.807  11.428  -2.721  1.1294 -1.4137 -2.1921
  247MOL0     H33326   7.808  11.255  -2.762  1.3241  1.4487 -1.6879
  247MOL0     H33327   7.857  10.610  -2.253 -1.7818  0.4694 -0.1470
  247MOL0     H33328   7.971  10.573  -2.032  0.0670  0.4505 -1.9975
  247MOL0     H33329   8.163  11.045  -1.667  0.3804 -1.3845 -1.5683
  247MOL0     H33330   8.094  11.077  -1.428  0.8027 -0.3401 -0.1384
  247MOL0     H33331   7.622   9.694  -0.226  0.7184  0.3689  0.7963
  247MOL0     H33332   7.555   9.679   0.016  1.2241 -1.4379 -0.8446
  247MOL0     H33333   7.532   9.738   0.407  0.1234 -2.8087  2.9999
  247MOL0     H33334   7.434   9.712   0.637 -3.1389  0.8886  3.0088
  247MOL0     H33335   7.446   9.843   0.963  0.3654 -3.1443 -2.6818
  247MOL0     H33336   7.539   9.924   0.864  0.0909 -3.5904  1.8591
  247MOL0     H33337   7.361  10.137   0.894 -1.1786 -0.9895  0.4942
  247MOL0     H33338   7.457  10.091   1.033 -1.0547  0.6167  0.8392
  247MOL0     H33339   7.288   9.964   1.127 -4.4132 -1.5596 -0.1854
  247MOL0     H33340   7.166   9.976   1.008 -0.7664  1.2300  0.5053
  247MOL0     H33341   7.088  10.159   1.086 -0.6041 -1.7843 -1.2095
  247MOL0     H33342   7.237  10.241   1.044 -2.2885 -0.6384 -2.3051
  247MOL0     H33343   7.189  10.163   1.471 -2.3626 -0.5406  0.7510
  247MOL0     H33344   7.374  10.132   0.675 -1.5746 -2.0339  1.0974
  247MOL0     H33345   7.449  10.164   0.427 -0.2963 -1.2039 -1.2600
  248MOL0     O33346  11.156   8.699   2.531 -0.0584 -0.5617 -0.4661
  248MOL0     C33347  11.057   8.760   2.566 -0.1400 -0.3754  1.3248
  248MOL0     O33348  10.931   8.759   2.503 -0.1616  0.0098 -0.4876
  248MOL0     C33349  10.893   8.668   2.408  0.1693  0.1130  0.9108
  248MOL0     C33350  10.762   8.657   2.379  0.2258  0.1442 -0.3477
  248MOL0     C33351  10.719   8.578   2.274  1.0800  0.6046 -0.6896
  248MOL0     C33352  10.802   8.498   2.205  0.2797 -0.2853  0.5899
  248MOL0     O33353  10.745   8.405   2.118 -0.2721 -0.6032 -0.1038
  248MOL0     C33354  10.795   8.412   1.987 -0.3003 -0.0752 -0.3553
  248MOL0     C33355  10.700   8.355   1.885 -0.7962  0.9529  0.0286
  248MOL0     C33356  10.680   8.197   1.883 -0.5254  0.5671 -0.0418
  248MOL0     C33357  10.606   8.156   1.757 -0.1808  0.3829  0.6202
  248MOL0     C33358  10.563   8.014   1.753 -0.1890 -0.1028  0.0918
  248MOL0     C33359  10.501   7.972   1.627  0.6698  0.2511  0.3649
  248MOL0     C33360  10.458   7.828   1.655 -0.5591 -0.3854 -0.7149
  248MOL0     C33361  10.369   7.765   1.540 -0.9045  0.6936 -0.0957
  248MOL0     N33362  10.240   7.836   1.514  0.0703  0.4412  0.5573
  248MOL0     C33363  10.122   7.802   1.557 -0.3364 -1.0185  0.3804
  248MOL0     C33364  10.032   7.876   1.495  0.5036  0.1384  0.2137
  248MOL0     C33365   9.890   7.896   1.523 -0.1476  0.5332 -0.6030
  248MOL0     C33366   9.814   7.807   1.621 -0.6809 -0.2889 -1.1578
  248MOL0     C33367   9.711   7.882   1.697 -0.2483 -0.2154 -0.6290
  248MOL0     C33368   9.615   7.790   1.768 -0.7292  0.7426 -0.2638
  248MOL0     O33369   9.522   7.869   1.845 -0.4057 -0.0465 -0.9415
  248MOL0     C33370   9.401   7.795   1.851  0.3097 -0.1114 -0.1629
  248MOL0     C33371   9.362   7.730   1.969  0.2742 -0.3556  0.2297
  248MOL0     C33372   9.245   7.661   1.973  0.1627 -0.3223  0.5108
  248MOL0     C33373   9.189   7.620   2.108  0.3549  0.4121 -0.4313
  248MOL0     C33374   9.165   7.651   1.850  1.1285 -0.1080 -1.2486
  248MOL0     C33375   9.039   7.583   1.830 -0.5720  0.0963 -0.3615
  248MOL0     O33376   8.948   7.626   1.741 -0.3955 -0.3807  0.1775
  248MOL0     C33377   8.821   7.590   1.764  0.3336 -0.2973  0.0822
  248MOL0     C33378   8.736   7.542   1.656 -0.2098  0.3759 -0.1843
  248MOL0     C33379   8.606   7.498   1.668  0.0051  0.8361 -0.5593
  248MOL0     C33380   8.548   7.527   1.794  0.3661 -0.2708  0.6775
  248MOL0     O33381   8.411   7.490   1.803  0.6202 -0.5523 -0.3375
  248MOL0     C33382   8.348   7.468   1.931 -0.3530 -0.1874 -0.0543
  248MOL0     C33383   8.218   7.383   1.928 -0.7438 -0.5032  0.7754
  248MOL0     C33384   8.181   7.337   1.776  1.0189  0.0954 -0.8692
  248MOL0     C33385   8.025   7.305   1.768 -0.3321  0.2855  0.6793
  248MOL0     C33386   8.001   7.206   1.654 -0.2426  0.0625 -0.5538
  248MOL0     C33387   7.859   7.167   1.639 -0.2967 -0.4003  0.3143
  248MOL0     C33388   7.851   7.052   1.534 -0.0705 -0.5176 -0.3255
  248MOL0     C33389   7.756   6.936   1.573 -0.7184 -0.9360 -0.0651
  248MOL0    Cl33390   7.594   6.949   1.491 -0.2955  0.0171  0.2249
  248MOL0     C33391   8.628   7.574   1.900 -0.1608 -0.0293 -0.0150
  248MOL0     C33392   8.758   7.595   1.887  0.6033 -0.6054 -0.0956
  248MOL0     O33393   9.027   7.482   1.899  0.2085  0.7148 -0.3171
  248MOL0     C33394   9.210   7.721   1.736 -0.1218  0.3207  1.0753
  248MOL0     C33395   9.329   7.792   1.734  0.2765 -0.8719 -0.4586
  248MOL0     N33396  10.097   7.956   1.400  0.5620  0.5847 -0.6272
  248MOL0     N33397  10.227   7.940   1.424  0.0723  0.5077 -0.9787
  248MOL0     C33398  10.939   8.500   2.225  0.7294 -1.1097  0.1516
  248MOL0     C33399  10.982   8.594   2.328  0.1943  0.3762  0.8049
  248MOL0     C33400  11.075   8.848   2.679 -0.0833  0.2089  1.6470
  248MOL0     C33401  10.969   8.902   2.754 -0.1304 -0.8007  0.2064
  248MOL0     C33402  10.988   8.979   2.863  0.0675 -0.9212  0.0810
  248MOL0     C33403  11.121   9.030   2.894  0.8611  0.1187  0.4669
  248MOL0     O33404  11.133   9.116   3.002  0.2598 -0.7185 -0.2722
  248MOL0     C33405  11.239   9.205   3.013 -0.7654 -0.9837  0.0721
  248MOL0     C33406  11.218   9.314   2.911  0.0790 -0.3635  0.1354
  248MOL0     C33407  11.311   9.436   2.935 -0.3464 -0.6606  0.4890
  248MOL0     C33408  11.280   9.533   3.049  0.0952 -0.9067  0.0678
  248MOL0     C33409  11.317   9.670   3.037 -0.8806 -0.0797 -0.0078
  248MOL0     C33410  11.348   9.783   3.036  0.6342  0.4346  1.1308
  248MOL0     C33411  11.220   9.009   2.797  0.2605 -0.3729 -0.6013
  248MOL0     C33412  11.201   8.912   2.693  0.1969  1.0558  0.6633
  248MOL0     H33413  10.697   8.735   2.417 -0.7207 -1.4361  1.5103
  248MOL0     H33414  10.616   8.580   2.239  1.1724  1.8890 -0.9569
  248MOL0     H33415  10.815   8.517   1.961 -0.8720  0.7454  2.2031
  248MOL0     H33416  10.884   8.350   1.972 -0.0486  0.2627 -0.2749
  248MOL0     H33417  10.602   8.393   1.914 -0.2530  1.3439  1.4241
  248MOL0     H33418  10.727   8.388   1.784 -3.9072 -2.4459 -2.1533
  248MOL0     H33419  10.777   8.148   1.875  0.2932  1.9844  0.8692
  248MOL0     H33420  10.622   8.157   1.966  2.2393  0.3020  1.8848
  248MOL0     H33421  10.518   8.220   1.754 -0.1019  0.4765  0.2879
  248MOL0     H33422  10.660   8.165   1.663 -1.7081 -1.6796 -0.5246
  248MOL0     H33423  10.646   7.945   1.767  0.3615 -0.2179 -2.9794
  248MOL0     H33424  10.493   7.997   1.835 -2.0807  1.0786 -1.1878
  248MOL0     H33425  10.413   8.033   1.608 -0.2532 -0.8899  0.7925
  248MOL0     H33426  10.568   7.974   1.540  1.5463 -2.4555  0.8554
  248MOL0     H33427  10.553   7.775   1.666 -0.7683 -0.2031  3.8756
  248MOL0     H33428  10.403   7.814   1.749  1.4062  1.5154  0.8165
  248MOL0     H33429  10.344   7.662   1.566 -0.7189  0.5003 -0.6583
  248MOL0     H33430  10.429   7.761   1.449 -0.1955  1.5348  0.3164
  248MOL0     H33431  10.099   7.749   1.650  0.4826  0.3858  1.4229
  248MOL0     H33432   9.874   7.998   1.559 -1.3381 -0.7391  2.9500
  248MOL0     H33433   9.839   7.880   1.428 -0.4890  0.2905 -0.3824
  248MOL0     H33434   9.880   7.733   1.668 -1.3967 -2.0723 -2.8235
  248MOL0     H33435   9.755   7.740   1.558  2.1340 -4.9094  0.5660
  248MOL0     H33436   9.657   7.951   1.632  2.7306  1.1095 -1.9052
  248MOL0     H33437   9.759   7.954   1.763  1.2954  1.5778 -3.4894
  248MOL0     H33438   9.665   7.711   1.825  2.6323  2.9903  0.1956
  248MOL0     H33439   9.563   7.731   1.692 -1.3916  0.3837  0.4508
  248MOL0     H33440   9.436   7.741   2.048  1.8062  0.4094 -1.2377
  248MOL0     H33441   9.170   7.512   2.100  0.3656  0.0972  2.5063
  248MOL0     H33442   9.266   7.630   2.186  1.7569  2.6214 -1.9903
  248MOL0     H33443   9.103   7.679   2.138  0.3107 -0.3323  1.0195
  248MOL0     H33444   8.801   7.536   1.570  0.3551  2.8516 -0.0156
  248MOL0     H33445   8.547   7.447   1.593  0.8716  0.3210 -0.9098
  248MOL0     H33446   8.412   7.422   2.007 -1.7410 -0.1247  1.2293
  248MOL0     H33447   8.343   7.564   1.984  2.8020  1.6924 -2.7763
  248MOL0     H33448   8.230   7.302   1.999  2.7126  1.1459  2.3008
  248MOL0     H33449   8.135   7.441   1.968 -0.5991 -0.8729  1.6306
  248MOL0     H33450   8.240   7.246   1.761  0.5229 -0.2871 -0.5506
  248MOL0     H33451   8.209   7.417   1.708  1.4163  1.3008  0.6535
  248MOL0     H33452   7.983   7.260   1.858  1.0294 -3.0815 -0.2177
  248MOL0     H33453   7.985   7.405   1.751 -0.8277  0.0766  0.6067
  248MOL0     H33454   8.050   7.119   1.699 -3.5143 -0.6996  1.9579
  248MOL0     H33455   8.047   7.241   1.561  2.5117  0.4424  0.8407
  248MOL0     H33456   7.810   7.137   1.733  0.3365  0.6998  1.0230
  248MOL0     H33457   7.792   7.248   1.608 -1.3078 -2.0800 -2.1793
  248MOL0     H33458   7.950   7.010   1.515  0.2380 -0.2466  0.6645
  248MOL0     H33459   7.825   7.091   1.435  1.4124  1.5836  0.0401
  248MOL0     H33460   7.748   6.936   1.683  3.0921  1.1160  0.3643
  248MOL0     H33461   7.796   6.837   1.550 -0.6649 -1.7271  2.9250
  248MOL0     H33462   8.584   7.597   1.996 -0.7748  1.2182 -0.5634
  248MOL0     H33463   8.805   7.633   1.977  0.5776 -0.1228 -0.2857
  248MOL0     H33464   9.142   7.734   1.653 -0.4374  0.6715  1.3837
  248MOL0     H33465   9.368   7.843   1.647  0.0489  4.0173  1.9612
  248MOL0     H33466  11.015   8.450   2.167  0.8484 -1.1625  0.3508
  248MOL0     H33467  11.087   8.585   2.354  0.1674  0.9910  1.1458
  248MOL0     H33468  10.871   8.866   2.724 -0.9463 -1.2554  3.1283
  248MOL0     H33469  10.904   8.992   2.930  1.7850  3.5906  1.8318
  248MOL0     H33470  11.248   9.254   3.111 -4.5265  0.4856 -0.1560
  248MOL0     H33471  11.338   9.158   3.008  0.6497  1.7788  0.4261
  248MOL0     H33472  11.117   9.351   2.930  0.7550 -0.0275  3.9360
  248MOL0     H33473  11.231   9.274   2.810  0.9380  1.2653 -0.4362
  248MOL0     H33474  11.322   9.500   2.847 -2.1983  0.2310  0.8465
  248MOL0     H33475  11.415   9.404   2.947 -0.5885 -0.4863  4.3691
  248MOL0     H33476  11.319   9.507   3.148 -2.0396  1.9248  1.7889
  248MOL0     H33477  11.171   9.531   3.059  0.0832 -2.3199 -0.1207
  248MOL0     H33478  11.374   9.887   3.041  3.6470 -0.1806  0.2623
  248MOL0     H33479  11.322   9.035   2.824 -0.0251 -1.4094  1.7216
  248MOL0     H33480  11.281   8.871   2.632 -1.5853  1.3554 -2.0722
  249MOL0     O33481   1.643  10.467   6.398 -0.0273  0.2365 -0.2884
  249MOL0     C33482   1.642  10.376   6.311  1.0279 -1.2685 -0.4679
  249MOL0     O33483   1.671  10.249   6.339  0.7716 -0.3533  0.6686
  249MOL0     C33484   1.702  10.212   6.470 -0.3740 -0.9985  0.2819
  249MOL0     C33485   1.654  10.094   6.509  0.7289  0.3386 -0.3738
  249MOL0     C33486   1.663  10.047   6.644  0.3732 -0.0216 -0.1007
  249MOL0     C33487   1.731  10.128   6.729  0.3126 -0.2007 -1.9018
  249MOL0     O33488   1.725  10.074   6.864  0.4341  0.6162  0.1207
  249MOL0     C33489   1.791  10.144   6.972 -0.7893  0.1381  0.0119
  249MOL0     C33490   1.850  10.043   7.066  0.1954  0.1738 -0.8193
  249MOL0     C33491   1.934   9.932   7.003  0.1864 -0.3077  0.0459
  249MOL0     C33492   1.984   9.837   7.107 -0.8490 -0.1534 -0.1542
  249MOL0     C33493   1.985   9.693   7.047 -0.4561  0.3970  0.0123
  249MOL0     C33494   2.041   9.576   7.133 -0.0799  0.6758  0.5619
  249MOL0     C33495   2.181   9.597   7.183 -0.2924 -0.3100 -0.3472
  249MOL0     C33496   2.292   9.606   7.079  0.2585 -0.0363 -0.8316
  249MOL0     N33497   2.275   9.518   6.967  0.0216  1.0547  0.2359
  249MOL0     C33498   2.356   9.418   6.927 -0.5923  0.7786  0.2677
  249MOL0     C33499   2.324   9.386   6.798  0.2651  0.2847 -0.7245
  249MOL0     C33500   2.359   9.259   6.722 -0.3436  0.2153  0.3296
  249MOL0     C33501   2.501   9.251   6.667  0.3621  0.5033  0.2123
  249MOL0     C33502   2.539   9.128   6.567 -0.0267 -1.0328 -0.1710
  249MOL0     C33503   2.486   9.168   6.425 -0.3654 -1.4364  0.6771
  249MOL0     O33504   2.507   9.066   6.325 -0.2808 -0.1757  0.2363
  249MOL0     C33505   2.422   8.956   6.322  0.0914 -0.1609 -0.2754
  249MOL0     C33506   2.439   8.857   6.230 -1.8248  0.3493  0.4583
  249MOL0     C33507   2.346   8.760   6.198  0.4478 -0.1316 -0.7761
  249MOL0     C33508   2.365   8.691   6.068  0.5522 -0.2518  0.5776
  249MOL0     C33509   2.250   8.729   6.293  0.0426 -0.3778 -0.6952
  249MOL0     C33510   2.155   8.611   6.290 -0.0897  0.6632 -0.6096
  249MOL0     O33511   2.041   8.620   6.361 -0.4464 -0.1289 -0.1170
  249MOL0     C33512   1.941   8.532   6.341 -1.0899  0.0323  0.8557
  249MOL0     C33513   1.932   8.406   6.401  1.0580 -0.1168 -1.3331
  249MOL0     C33514   1.820   8.320   6.381  0.1424 -0.8752 -0.5691
  249MOL0     C33515   1.725   8.357   6.293  0.6666 -0.3192 -1.0869
  249MOL0     O33516   1.624   8.263   6.277 -0.5245 -0.1635 -0.3888
  249MOL0     C33517   1.599   8.247   6.134  0.1357  0.9133 -0.6010
  249MOL0     C33518   1.466   8.176   6.137 -0.6039  0.5059  0.7921
  249MOL0     C33519   1.489   8.024   6.104  0.9430 -0.9986  0.6436
  249MOL0     C33520   1.524   7.928   6.227  0.4325  0.0504 -0.4413
  249MOL0     C33521   1.663   7.872   6.213 -0.3332  0.0956 -0.3035
  249MOL0     C33522   1.670   7.752   6.107  0.0452 -0.2732 -0.3340
  249MOL0     C33523   1.822   7.716   6.090  0.5824 -0.2184 -0.2397
  249MOL0     C33524   1.878   7.790   5.971  0.2321  0.3146  0.9704
  249MOL0    Cl33525   1.957   7.944   6.041 -0.5367  0.1617  0.0792
  249MOL0     C33526   1.722   8.484   6.240  0.7797  0.3474 -0.3691
  249MOL0     C33527   1.826   8.570   6.270  0.5438  0.2323  0.2984
  249MOL0     O33528   2.185   8.515   6.218  0.4224  0.3204  0.0809
  249MOL0     C33529   2.226   8.832   6.398 -0.7611 -0.0463  0.3896
  249MOL0     C33530   2.309   8.942   6.411 -0.0846  0.5288 -0.8831
  249MOL0     N33531   2.252   9.490   6.744  0.6514  0.2904 -0.7256
  249MOL0     N33532   2.223   9.566   6.847  0.8710 -0.4381  0.6180
  249MOL0     C33533   1.802  10.246   6.693  0.8324  0.5380  0.5389
  249MOL0     C33534   1.782  10.290   6.562 -0.6265  0.1611 -0.5254
  249MOL0     C33535   1.606  10.418   6.172 -0.4570  0.0235  0.3256
  249MOL0     C33536   1.625  10.320   6.077  0.4294  0.0452  0.2888
  249MOL0     C33537   1.589  10.344   5.945 -0.1946 -0.4201  1.1208
  249MOL0     C33538   1.550  10.476   5.908 -0.0108  0.5426  0.3987
  249MOL0     O33539   1.502  10.511   5.782 -0.3547 -0.3054 -0.0549
  249MOL0     C33540   1.370  10.466   5.770 -0.1326  0.3212 -0.0720
  249MOL0     C33541   1.332  10.450   5.625 -0.1883 -0.9714  0.1467
  249MOL0     C33542   1.353  10.581   5.543 -0.3820  1.2039  0.6286
  249MOL0     C33543   1.227  10.603   5.448  0.5882 -0.7493 -0.2081
  249MOL0     C33544   1.227  10.730   5.383 -0.5202  0.2851 -0.7815
  249MOL0     C33545   1.218  10.838   5.326  0.9567 -0.1123  0.3275
  249MOL0     C33546   1.551  10.580   5.995  0.2268 -0.1546  0.2923
  249MOL0     C33547   1.578  10.546   6.128 -0.2400 -1.0551  0.1646
  249MOL0     H33548   1.604  10.029   6.437  0.8515  0.7353 -0.8268
  249MOL0     H33549   1.625   9.949   6.671  0.1883  0.7245  2.6311
  249MOL0     H33550   1.871  10.210   6.938 -0.2179 -0.3492  0.3805
  249MOL0     H33551   1.721  10.208   7.025  0.1230 -1.0248  2.7787
  249MOL0     H33552   1.908  10.081   7.150 -2.0061  0.2978  0.7274
  249MOL0     H33553   1.760   9.996   7.105  0.4422  0.3849  0.0141
  249MOL0     H33554   1.877   9.879   6.926  1.5868  1.2378 -2.2048
  249MOL0     H33555   2.020   9.975   6.950  0.7256 -2.9022 -1.3445
  249MOL0     H33556   2.086   9.867   7.132 -1.3611  0.9444  0.7038
  249MOL0     H33557   1.931   9.851   7.202 -0.2696 -0.2562  0.1848
  249MOL0     H33558   1.877   9.674   7.042 -1.4361  4.3669  1.8523
  249MOL0     H33559   2.037   9.686   6.951 -2.1442 -1.3747 -0.8483
  249MOL0     H33560   1.963   9.553   7.207  0.1117 -2.3588 -0.0609
  249MOL0     H33561   2.053   9.493   7.063 -1.8692  3.1000 -2.8795
  249MOL0     H33562   2.177   9.684   7.249 -1.9625 -2.3208  2.4091
  249MOL0     H33563   2.212   9.511   7.242 -1.6235 -2.7868 -3.0203
  249MOL0     H33564   2.386   9.585   7.129  0.4211  1.8629 -0.2918
  249MOL0     H33565   2.297   9.708   7.041 -1.8437 -0.2110 -1.7291
  249MOL0     H33566   2.422   9.379   7.004  1.9779  3.5479 -0.3795
  249MOL0     H33567   2.344   9.169   6.783  3.1273  0.5988  1.9657
  249MOL0     H33568   2.287   9.258   6.640 -1.7108 -2.2723  1.4356
  249MOL0     H33569   2.568   9.267   6.752 -1.1784  1.0929  1.3509
  249MOL0     H33570   2.502   9.336   6.598  0.2856 -1.5345 -2.4466
  249MOL0     H33571   2.476   9.042   6.594 -1.4694  0.1332  0.3566
  249MOL0     H33572   2.647   9.111   6.568 -0.3664 -3.5234  0.5244
  249MOL0     H33573   2.520   9.267   6.392  2.9903 -1.9119  2.3262
  249MOL0     H33574   2.380   9.197   6.433  0.4765  1.5274  5.4114
  249MOL0     H33575   2.529   8.862   6.170 -1.7676  0.7083  0.5706
  249MOL0     H33576   2.426   8.750   6.001  1.6462 -2.1373 -0.1663
  249MOL0     H33577   2.396   8.586   6.078 -1.2889 -0.6919  2.4677
  249MOL0     H33578   2.267   8.679   6.020  0.4917 -1.5377  0.9801
  249MOL0     H33579   2.012   8.368   6.464 -0.3351 -3.0889 -1.1655
  249MOL0     H33580   1.809   8.228   6.438 -0.4342  0.3411  1.3624
  249MOL0     H33581   1.580   8.339   6.077  2.3146  0.0051 -2.9906
  249MOL0     H33582   1.671   8.182   6.084 -0.4094  0.0797 -0.3255
  249MOL0     H33583   1.419   8.186   6.235  0.3714 -0.2404  1.3592
  249MOL0     H33584   1.403   8.219   6.059  2.3962  0.8353 -1.6276
  249MOL0     H33585   1.556   8.006   6.019 -0.3486  2.0506 -1.1906
  249MOL0     H33586   1.392   7.979   6.080  0.2631  0.9388 -0.4496
  249MOL0     H33587   1.518   7.989   6.318 -1.4423 -0.0631 -0.4663
  249MOL0     H33588   1.459   7.841   6.240  0.3620  0.2789  0.9075
  249MOL0     H33589   1.697   7.844   6.313 -3.0541  0.5715  0.8647
  249MOL0     H33590   1.734   7.949   6.183  1.5443 -0.2600  2.8148
  249MOL0     H33591   1.621   7.668   6.156 -0.1750  0.5313  0.8843
  249MOL0     H33592   1.617   7.773   6.014  0.1160  1.9361  0.0691
  249MOL0     H33593   1.827   7.608   6.076 -0.1377 -0.1304 -1.2261
  249MOL0     H33594   1.883   7.736   6.179 -0.2426  2.3399 -0.1615
  249MOL0     H33595   1.796   7.833   5.913 -0.5821  0.1490  1.9771
  249MOL0     H33596   1.951   7.735   5.911  2.1360  2.5980  1.0802
  249MOL0     H33597   1.643   8.517   6.173 -0.4818  0.3795  1.0768
  249MOL0     H33598   1.812   8.673   6.238 -0.3201  0.5601  1.6346
  249MOL0     H33599   2.151   8.824   6.476 -1.6011  3.3799  0.0973
  249MOL0     H33600   2.300   9.004   6.499  0.2417 -0.1178 -0.3910
  249MOL0     H33601   1.862  10.306   6.761  2.6657  1.1852 -1.5267
  249MOL0     H33602   1.846  10.374   6.535  4.5487 -1.8131  3.9032
  249MOL0     H33603   1.662  10.220   6.097 -2.9498 -1.0237  1.9443
  249MOL0     H33604   1.586  10.262   5.874  0.2629 -0.5938  1.2992
  249MOL0     H33605   1.356  10.367   5.816 -0.5019 -0.3836 -1.6289
  249MOL0     H33606   1.302  10.533   5.823  2.0079  0.0599  3.3115
  249MOL0     H33607   1.229  10.415   5.610 -0.3170  0.2527 -2.1893
  249MOL0     H33608   1.403  10.380   5.582 -0.4168 -0.4971 -1.0284
  249MOL0     H33609   1.440  10.565   5.479 -2.1889 -0.4818 -1.5684
  249MOL0     H33610   1.361  10.663   5.615 -0.9140  0.9798  0.9484
  249MOL0     H33611   1.134  10.602   5.505  2.1284  1.0633  2.5368
  249MOL0     H33612   1.226  10.531   5.365  3.7372  1.5109 -2.4634
  249MOL0     H33613   1.200  10.928   5.272 -1.0982 -0.2583  0.6791
  249MOL0     H33614   1.531  10.681   5.962  2.0203  0.9632  2.4107
  249MOL0     H33615   1.574  10.627   6.200  0.0401 -1.5720  0.7710
  250MOL0     O33616  10.784   7.357   2.291 -0.1105  0.1166  0.0669
  250MOL0     C33617  10.859   7.279   2.340 -0.7157  0.5736 -0.3330
  250MOL0     O33618  10.884   7.157   2.285 -0.7429  0.5594  0.1995
  250MOL0     C33619  10.832   7.128   2.157 -0.7442 -0.1442 -0.7235
  250MOL0     C33620  10.717   7.058   2.145 -0.1836  0.9966 -0.2748
  250MOL0     C33621  10.651   7.054   2.022  0.0923 -0.3344 -0.2789
  250MOL0     C33622  10.687   7.132   1.911  0.2142 -0.7930  0.0851
  250MOL0     O33623  10.616   7.112   1.791  0.4680 -0.3330 -0.5783
  250MOL0     C33624  10.667   7.015   1.703 -0.7985  1.6252  0.5888
  250MOL0     C33625  10.552   6.919   1.671  0.0106 -0.1257  0.0650
  250MOL0     C33626  10.599   6.808   1.571 -0.2139  0.4484  0.1209
  250MOL0     C33627  10.472   6.762   1.486 -0.5311  0.5997  0.7532
  250MOL0     C33628  10.421   6.629   1.545 -1.0630 -0.2119  0.2664
  250MOL0     C33629  10.305   6.568   1.461  0.2049 -0.5617 -0.4102
  250MOL0     C33630  10.219   6.455   1.532  0.9395 -0.3189 -1.1430
  250MOL0     C33631  10.098   6.504   1.614  0.2445 -0.2285  0.4860
  250MOL0     N33632  10.032   6.396   1.691 -0.0065  1.0134 -0.2106
  250MOL0     C33633   9.917   6.322   1.654 -0.0535  0.6877 -0.5304
  250MOL0     C33634   9.900   6.237   1.755  0.0037  1.1007 -0.5328
  250MOL0     C33635   9.796   6.133   1.761 -1.0376 -0.3325  0.6030
  250MOL0     C33636   9.831   5.986   1.728  0.0333 -0.0577 -0.5171
  250MOL0     C33637   9.897   5.968   1.589 -0.0741 -0.0292  0.0385
  250MOL0     C33638  10.045   6.011   1.576 -0.4196  0.4778 -0.7643
  250MOL0     O33639  10.092   5.991   1.437  0.0590 -0.0191  0.1808
  250MOL0     C33640  10.206   6.054   1.394 -0.1625  0.4331 -0.7799
  250MOL0     C33641  10.229   6.055   1.260 -0.4736 -0.1184 -0.7214
  250MOL0     C33642  10.346   6.119   1.205 -0.1648  0.0843  0.0753
  250MOL0     C33643  10.369   6.078   1.059  0.4810  0.0481  0.3309
  250MOL0     C33644  10.427   6.195   1.286  0.5644 -0.3918 -0.6527
  250MOL0     C33645  10.552   6.264   1.236  0.4175  0.5766  0.0311
  250MOL0     O33646  10.602   6.365   1.321  0.4975  0.1545  0.4866
  250MOL0     C33647  10.701   6.445   1.275 -0.1940 -0.0859  0.3430
  250MOL0     C33648  10.682   6.536   1.174  0.1335 -0.7790 -0.7505
  250MOL0     C33649  10.792   6.589   1.104  0.7949 -0.5789 -0.4744
  250MOL0     C33650  10.921   6.560   1.139  0.2621  0.4621  0.0937
  250MOL0     O33651  11.006   6.605   1.037 -0.1575  0.5887  0.1827
  250MOL0     C33652  11.132   6.543   1.010 -0.1183 -0.2475  0.3284
  250MOL0     C33653  11.230   6.617   1.101 -0.2659  0.0335  0.6992
  250MOL0     C33654  11.373   6.585   1.060  0.2195 -0.1070  0.3937
  250MOL0     C33655  11.491   6.630   1.153  0.3680 -0.2528 -0.3875
  250MOL0     C33656  11.529   6.774   1.118 -0.0782 -0.5154  0.1229
  250MOL0     C33657  11.646   6.828   1.210 -0.1079  0.8416  0.3686
  250MOL0     C33658  11.648   6.979   1.180 -1.0118  0.1029  0.6263
  250MOL0     C33659  11.776   7.053   1.222 -0.5388  0.3685  0.3197
  250MOL0    Cl33660  11.729   7.227   1.211  0.2203 -0.3757 -0.0769
  250MOL0     C33661  10.941   6.464   1.242  0.2111  0.1348 -0.1070
  250MOL0     C33662  10.832   6.405   1.292 -0.5831 -0.0835 -0.1465
  250MOL0     O33663  10.600   6.235   1.129 -0.1730 -0.3759 -0.3340
  250MOL0     C33664  10.395   6.204   1.423 -0.2695 -0.9135  0.7650
  250MOL0     C33665  10.284   6.143   1.473  0.3863  0.8646  0.1685
  250MOL0     N33666   9.998   6.251   1.849  0.3561  0.3842  0.1831
  250MOL0     N33667  10.072   6.344   1.815 -0.2484  0.2257 -1.0357
  250MOL0     C33668  10.804   7.191   1.914 -0.0923 -0.6930  0.8259
  250MOL0     C33669  10.881   7.192   2.035 -0.8712 -0.3303  1.0920
  250MOL0     C33670  10.910   7.292   2.489  0.2028 -0.7703  0.6923
  250MOL0     C33671  10.955   7.176   2.559  0.5886 -0.1649  0.1696
  250MOL0     C33672  10.985   7.181   2.692 -0.1542 -0.2282  0.1568
  250MOL0     C33673  10.973   7.296   2.772 -0.5202 -0.7692 -0.0334
  250MOL0     O33674  10.983   7.277   2.910 -0.8747 -0.6321 -0.8612
  250MOL0     C33675  10.963   7.397   2.986 -0.7149 -0.9098 -0.5138
  250MOL0     C33676  10.819   7.463   2.997 -0.7791 -0.5460  0.2791
  250MOL0     C33677  10.720   7.365   3.069  0.1325  0.7384 -0.0159
  250MOL0     C33678  10.698   7.222   3.001 -0.1068 -0.9921  1.0721
  250MOL0     C33679  10.625   7.244   2.877 -0.4174  0.1174  0.0997
  250MOL0     C33680  10.570   7.267   2.771  0.1252 -0.6540 -0.3097
  250MOL0     C33681  10.945   7.420   2.702 -0.4797  0.4869 -0.1231
  250MOL0     C33682  10.898   7.412   2.565 -0.3626 -0.0543  0.5093
  250MOL0     H33683  10.678   6.996   2.225  0.3581 -0.0153 -0.7807
  250MOL0     H33684  10.569   6.983   2.011  0.5826 -1.0901  0.7414
  250MOL0     H33685  10.714   7.059   1.615  1.6984  4.2116  3.0154
  250MOL0     H33686  10.751   6.965   1.752  0.3835  2.5308 -0.4557
  250MOL0     H33687  10.522   6.868   1.763  0.4665  1.1890  0.9750
  250MOL0     H33688  10.464   6.978   1.641  0.1776  1.6690  2.7187
  250MOL0     H33689  10.687   6.852   1.523  2.0780 -0.1208  3.4088
  250MOL0     H33690  10.631   6.720   1.628  0.6990  0.3727 -0.4967
  250MOL0     H33691  10.398   6.842   1.498  0.4572  1.3735  1.9447
  250MOL0     H33692  10.505   6.744   1.383 -1.5722  1.6613  0.2185
  250MOL0     H33693  10.500   6.553   1.544 -0.2409  0.5638 -2.4139
  250MOL0     H33694  10.383   6.654   1.645  0.1315 -1.3940  1.0461
  250MOL0     H33695  10.231   6.646   1.438  0.7569  0.0984  0.0067
  250MOL0     H33696  10.339   6.533   1.364 -0.3826 -3.2886  0.2846
  250MOL0     H33697  10.182   6.402   1.444 -2.7032  0.3608 -0.1594
  250MOL0     H33698  10.289   6.394   1.590 -0.4052 -1.1263 -0.3182
  250MOL0     H33699  10.028   6.557   1.549 -0.2471  0.6283  1.6796
  250MOL0     H33700  10.135   6.571   1.692 -1.5533  0.2427  0.9822
  250MOL0     H33701   9.850   6.322   1.569 -1.7799 -1.5690  0.7156
  250MOL0     H33702   9.747   6.139   1.858  0.2137  0.0349  1.2269
  250MOL0     H33703   9.728   6.167   1.682 -0.0292  1.0393  0.2856
  250MOL0     H33704   9.743   5.921   1.729  1.1819 -1.6883 -1.2421
  250MOL0     H33705   9.902   5.953   1.804  0.5531  0.1844 -0.8893
  250MOL0     H33706   9.840   6.028   1.518 -1.8562 -2.3160 -0.5767
  250MOL0     H33707   9.884   5.863   1.562  0.5805 -0.2143  0.4266
  250MOL0     H33708  10.102   5.952   1.648  0.7816  0.3989 -1.7530
  250MOL0     H33709  10.054   6.113   1.615 -4.3240 -0.4557  3.4986
  250MOL0     H33710  10.148   5.998   1.214 -2.2466  2.2113 -0.6644
  250MOL0     H33711  10.422   5.984   1.043 -2.6207 -1.5863 -1.1996
  250MOL0     H33712  10.272   6.064   1.011 -0.3837 -0.6957  2.2101
  250MOL0     H33713  10.424   6.155   1.003  0.6277 -0.9507 -0.9442
  250MOL0     H33714  10.583   6.571   1.144 -0.3496 -0.8678  0.6732
  250MOL0     H33715  10.770   6.646   1.015  1.8956  0.8457  0.1218
  250MOL0     H33716  11.128   6.435   1.028 -3.3510 -0.1666  0.6694
  250MOL0     H33717  11.159   6.549   0.905  1.9439 -1.5924  0.7320
  250MOL0     H33718  11.217   6.722   1.076 -2.0299 -0.1860  0.5429
  250MOL0     H33719  11.207   6.595   1.206 -2.7757  1.1874  0.4704
  250MOL0     H33720  11.385   6.624   0.959 -1.6581  0.5064  0.3759
  250MOL0     H33721  11.376   6.476   1.051 -0.4032 -0.2332  1.5187
  250MOL0     H33722  11.458   6.625   1.257  1.0162  2.2509  0.0181
  250MOL0     H33723  11.572   6.557   1.143 -0.1577 -0.8172 -0.6040
  250MOL0     H33724  11.447   6.845   1.124  1.5370  1.3499  1.6396
  250MOL0     H33725  11.552   6.782   1.011 -1.3474 -0.8586 -0.1886
  250MOL0     H33726  11.643   6.794   1.314  1.2907 -0.3117  0.0628
  250MOL0     H33727  11.733   6.781   1.165  2.4478  3.1698  2.4974
  250MOL0     H33728  11.561   7.022   1.230 -0.7266 -0.1665  1.3653
  250MOL0     H33729  11.650   6.995   1.072  0.5255  0.9608  0.7555
  250MOL0     H33730  11.869   7.041   1.165  0.7293 -2.4741  2.7566
  250MOL0     H33731  11.793   7.022   1.325  0.3806  1.0939  0.4020
  250MOL0     H33732  11.039   6.419   1.256 -0.3876 -1.0817  0.2741
  250MOL0     H33733  10.847   6.324   1.363  1.1654 -0.2999 -0.7147
  250MOL0     H33734  10.458   6.256   1.494 -3.9208  1.0334  2.8730
  250MOL0     H33735  10.257   6.146   1.578 -3.8430 -0.9888 -0.6483
  250MOL0     H33736  10.846   7.235   1.824  0.4135 -0.1980  1.2957
  250MOL0     H33737  10.967   7.257   2.052  0.7322 -2.5251  1.7243
  250MOL0     H33738  10.961   7.085   2.501 -0.6922  1.1726 -2.2012
  250MOL0     H33739  10.993   7.083   2.737 -0.6203 -0.9851 -1.3654
  250MOL0     H33740  11.002   7.380   3.086 -0.2752 -0.0073 -0.5161
  250MOL0     H33741  11.042   7.471   2.966 -2.2882  0.2437 -3.1203
  250MOL0     H33742  10.788   7.464   2.892  1.1230 -4.4355 -0.5084
  250MOL0     H33743  10.833   7.556   3.052 -1.3951 -1.2363  1.6374
  250MOL0     H33744  10.627   7.421   3.076  0.3508  1.0775  0.1940
  250MOL0     H33745  10.771   7.357   3.165  2.6150  0.5858 -1.2435
  250MOL0     H33746  10.631   7.182   3.078 -3.7186  5.4650  1.9671
  250MOL0     H33747  10.790   7.166   2.980  1.1769  1.4873 -0.3921
  250MOL0     H33748  10.530   7.272   2.672  1.7741  0.8559 -0.9726
  250MOL0     H33749  10.952   7.520   2.745 -1.3776  1.7542 -2.6403
  250MOL0     H33750  10.881   7.505   2.512  1.7198 -1.8909 -3.8052
  251MOL0     O33751   8.505   0.142   9.101  0.7226 -0.4634  0.3095
  251MOL0     C33752   8.407   0.090   9.051  0.2757  1.0865  0.0574
  251MOL0     O33753   8.280   0.144   9.053  0.2025 -0.4362 -0.4569
  251MOL0     C33754   8.257   0.264   9.118 -0.7215 -0.5641  0.1707
  251MOL0     C33755   8.185   0.363   9.051  0.4927 -0.4832 -0.6106
  251MOL0     C33756   8.151   0.478   9.118  0.3904 -0.4721 -0.5758
  251MOL0     C33757   8.196   0.507   9.249 -0.6679 -0.2754  1.4191
  251MOL0     O33758   8.181   0.617   9.322 -0.2726  0.9918 -0.4173
  251MOL0     C33759   8.085   0.720   9.296  0.4067  0.7816  0.6396
  251MOL0     C33760   8.075   0.799   9.417 -0.8298  0.0001  1.0118
  251MOL0     C33761   7.962   0.902   9.410 -0.7314 -0.6375 -0.9995
  251MOL0     C33762   7.992   1.024   9.322  0.0412  0.2492 -0.9208
  251MOL0     C33763   7.872   1.112   9.338 -0.8317 -1.9750 -0.0229
  251MOL0     C33764   7.890   1.241   9.255 -0.0643 -0.8471 -0.5574
  251MOL0     C33765   7.764   1.327   9.259 -0.5706  0.6980 -0.0935
  251MOL0     C33766   7.660   1.283   9.148  0.3918  1.2882  1.2904
  251MOL0     N33767   7.566   1.392   9.120 -0.2789 -0.5544  0.2750
  251MOL0     C33768   7.571   1.482   9.020 -0.3473 -0.9046 -0.7039
  251MOL0     C33769   7.455   1.552   9.029  0.8588  0.0700 -0.5130
  251MOL0     C33770   7.403   1.673   8.956 -0.0143 -0.7270  0.3215
  251MOL0     C33771   7.385   1.659   8.804  0.6650  0.3080  0.3247
  251MOL0     C33772   7.516   1.694   8.723 -0.6428 -0.0492 -0.8189
  251MOL0     C33773   7.561   1.839   8.719  0.7680  0.0790 -0.2634
  251MOL0     O33774   7.703   1.839   8.695 -1.0982 -0.4272  0.4158
  251MOL0     C33775   7.737   1.937   8.607  0.9652 -0.5411  0.3367
  251MOL0     C33776   7.674   1.964   8.488 -0.5297  0.4276  0.0674
  251MOL0     C33777   7.715   2.060   8.395  0.2749  0.1952  0.0587
  251MOL0     C33778   7.639   2.081   8.262  0.2472 -0.3107  0.2178
  251MOL0     C33779   7.825   2.144   8.440 -0.4902 -0.6433 -0.8755
  251MOL0     C33780   7.881   2.245   8.350 -0.3447  1.2026 -0.8134
  251MOL0     O33781   7.900   2.372   8.398  0.7675 -0.1778 -0.2713
  251MOL0     C33782   7.972   2.468   8.328  0.1093 -0.5105 -0.1289
  251MOL0     C33783   7.904   2.550   8.225 -0.7788  0.0580  0.4269
  251MOL0     C33784   7.978   2.649   8.163 -0.0223  0.0242  0.2085
  251MOL0     C33785   8.113   2.686   8.212 -0.2883  0.5497  0.3410
  251MOL0     O33786   8.189   2.794   8.177  0.4342  0.8227  0.4722
  251MOL0     C33787   8.192   2.835   8.035  1.0332 -0.6217  0.0699
  251MOL0     C33788   8.316   2.912   8.003 -0.2698  0.0295  0.3114
  251MOL0     C33789   8.318   3.047   8.070  0.2002 -0.3505 -0.8528
  251MOL0     C33790   8.449   3.123   8.065  0.5101  0.2147 -0.4203
  251MOL0     C33791   8.431   3.252   8.148  0.1099  0.4481 -0.8717
  251MOL0     C33792   8.569   3.321   8.183  0.0704  0.2980  0.3859
  251MOL0     C33793   8.636   3.383   8.065 -1.0143  0.2875  0.3800
  251MOL0     C33794   8.787   3.400   8.088  0.1504  0.1165 -1.0170
  251MOL0    Cl33795   8.873   3.481   7.953 -0.2135 -0.3636 -0.3066
  251MOL0     C33796   8.172   2.604   8.308  1.2597  0.6038 -0.2507
  251MOL0     C33797   8.107   2.488   8.351 -0.7968  0.0929 -0.0204
  251MOL0     O33798   7.909   2.207   8.235  0.2065  0.8235  1.2317
  251MOL0     C33799   7.862   2.137   8.580 -0.2774  0.0059 -0.8276
  251MOL0     C33800   7.818   2.034   8.654  0.0903  0.4347 -0.6233
  251MOL0     N33801   7.384   1.496   9.125  0.1147 -0.4568 -0.4869
  251MOL0     N33802   7.443   1.402   9.182  0.3496  0.3584  0.2529
  251MOL0     C33803   8.270   0.411   9.312 -0.1267 -0.2934  0.1252
  251MOL0     C33804   8.298   0.284   9.252  1.3782  0.2699 -0.4305
  251MOL0     C33805   8.449  -0.018   8.964 -0.4848 -0.3668 -0.4104
  251MOL0     C33806   8.583  -0.059   8.958 -0.2382 -0.0188  0.0720
  251MOL0     C33807   8.627  -0.175   8.896  0.7230 -0.0716 -0.1418
  251MOL0     C33808   8.528  -0.257   8.835  0.1581  0.5451  0.1476
  251MOL0     O33809   8.575  -0.364   8.764 -0.6379  0.8597  0.8187
  251MOL0     C33810   8.512  -0.408   8.650  0.2533  0.8309  0.4550
  251MOL0     C33811   8.522  -0.559   8.628  0.1261  0.6102 -0.2354
  251MOL0     C33812   8.675  -0.601   8.621 -0.1513  0.2996 -0.0832
  251MOL0     C33813   8.685  -0.747   8.560  0.0254 -0.0736 -0.3743
  251MOL0     C33814   8.817  -0.791   8.585  0.1155  0.7119 -1.0549
  251MOL0     C33815   8.928  -0.830   8.609 -0.4534  0.6179 -1.0980
  251MOL0     C33816   8.397  -0.212   8.834 -0.4819  0.0000  0.1588
  251MOL0     C33817   8.351  -0.092   8.897 -0.4351  1.0384 -0.1714
  251MOL0     H33818   8.163   0.332   8.949 -2.1131 -3.5322  0.7211
  251MOL0     H33819   8.079   0.549   9.079 -0.1580 -0.2796  0.7490
  251MOL0     H33820   8.125   0.783   9.216 -1.0429 -1.5810 -2.1523
  251MOL0     H33821   7.994   0.675   9.255  0.4692  1.5423 -0.3838
  251MOL0     H33822   8.051   0.733   9.501  0.8945 -3.0533 -0.7434
  251MOL0     H33823   8.166   0.847   9.454  0.2575 -0.8034 -0.5040
  251MOL0     H33824   7.868   0.854   9.383 -1.4006  0.9474 -1.6065
  251MOL0     H33825   7.951   0.922   9.517 -3.5909 -2.1223 -0.9239
  251MOL0     H33826   8.086   1.074   9.348 -0.3117 -0.3480  1.8109
  251MOL0     H33827   7.987   0.988   9.219 -2.8845  2.8577 -1.8557
  251MOL0     H33828   7.776   1.064   9.318 -2.3038  0.7338  0.0739
  251MOL0     H33829   7.868   1.143   9.443 -0.6033 -1.9147 -0.0325
  251MOL0     H33830   7.973   1.300   9.294 -1.2308  0.1783  0.4879
  251MOL0     H33831   7.913   1.216   9.151  1.2266  1.7661 -0.9993
  251MOL0     H33832   7.726   1.321   9.362 -1.4321 -3.2343 -0.4692
  251MOL0     H33833   7.778   1.434   9.240 -2.7508  0.9918 -0.3573
  251MOL0     H33834   7.608   1.195   9.188  2.4840  0.3384  2.0421
  251MOL0     H33835   7.717   1.251   9.061  2.0011  2.6936  1.7613
  251MOL0     H33836   7.650   1.500   8.947  0.4751 -0.0988  0.3387
  251MOL0     H33837   7.309   1.705   9.002  1.8784  1.2218  3.1289
  251MOL0     H33838   7.481   1.748   8.970 -1.5344  1.5492 -2.3563
  251MOL0     H33839   7.312   1.738   8.783  1.1708  1.2112  1.8052
  251MOL0     H33840   7.351   1.560   8.772  1.6323  0.8517 -2.6055
  251MOL0     H33841   7.505   1.651   8.623  0.4361 -1.9955 -0.1645
  251MOL0     H33842   7.591   1.626   8.766  2.2041  2.3625 -1.6365
  251MOL0     H33843   7.547   1.889   8.815 -0.1869  0.1556 -0.4323
  251MOL0     H33844   7.499   1.897   8.650 -2.1893  0.6089  2.5678
  251MOL0     H33845   7.599   1.889   8.466  0.6848 -1.7223  2.6041
  251MOL0     H33846   7.558   2.011   8.240 -0.1347  0.7949 -2.1700
  251MOL0     H33847   7.607   2.185   8.257  1.5382  0.0660 -3.8543
  251MOL0     H33848   7.692   2.074   8.167  0.7156  0.1435  0.4375
  251MOL0     H33849   7.803   2.520   8.198 -0.6066  0.7098 -0.9969
  251MOL0     H33850   7.931   2.719   8.094  0.5612 -2.7476 -3.3444
  251MOL0     H33851   8.205   2.744   7.975  0.2490  0.8512 -2.4675
  251MOL0     H33852   8.112   2.903   8.006  2.5724  2.5235  2.4715
  251MOL0     H33853   8.405   2.862   8.043  0.2730  1.1529  0.5776
  251MOL0     H33854   8.325   2.915   7.894  0.9484  2.6072  0.4038
  251MOL0     H33855   8.294   3.034   8.176  2.1709 -0.3285 -0.3609
  251MOL0     H33856   8.248   3.115   8.020  1.8100  1.1612 -1.1300
  251MOL0     H33857   8.527   3.062   8.111  0.4964  1.8832  2.0285
  251MOL0     H33858   8.479   3.152   7.964  0.0776 -1.9122 -1.2136
  251MOL0     H33859   8.383   3.232   8.244  2.5099  1.1277  0.5505
  251MOL0     H33860   8.375   3.328   8.092  1.2850  0.8477 -1.5556
  251MOL0     H33861   8.551   3.405   8.250  0.9192 -0.3515  1.4689
  251MOL0     H33862   8.639   3.244   8.217  0.0411  0.7789  1.6045
  251MOL0     H33863   8.597   3.485   8.060  0.1545  0.7262  0.0293
  251MOL0     H33864   8.610   3.332   7.972 -0.4626  2.6419 -1.1568
  251MOL0     H33865   8.821   3.298   8.107  0.8054  0.1176 -2.0850
  251MOL0     H33866   8.803   3.456   8.181  1.1121  6.4820 -4.4567
  251MOL0     H33867   8.263   2.631   8.360 -0.1064  1.3019  1.9084
  251MOL0     H33868   8.168   2.420   8.410  0.7001  1.0003 -0.4786
  251MOL0     H33869   7.939   2.204   8.616 -0.9489  0.0776  0.5446
  251MOL0     H33870   7.867   2.030   8.751  3.4713  1.7965 -2.0817
  251MOL0     H33871   8.316   0.421   9.410 -0.6770 -2.5891  0.6885
  251MOL0     H33872   8.362   0.209   9.297  0.6536 -0.6071 -0.8495
  251MOL0     H33873   8.664  -0.008   9.008 -0.2317 -1.2787  1.4072
  251MOL0     H33874   8.728  -0.213   8.906  0.3874 -1.8739 -2.7258
  251MOL0     H33875   8.403  -0.401   8.654  0.0876  1.6331 -2.6853
  251MOL0     H33876   8.527  -0.351   8.558 -5.0980  4.3338  1.2467
  251MOL0     H33877   8.467  -0.579   8.536  0.1008 -0.5045  0.0049
  251MOL0     H33878   8.482  -0.623   8.707 -0.2007  0.2892 -0.6573
  251MOL0     H33879   8.704  -0.606   8.727 -2.1024  0.3980  0.4948
  251MOL0     H33880   8.734  -0.527   8.566 -0.6613 -0.6945 -2.0196
  251MOL0     H33881   8.665  -0.749   8.453  2.2763  4.1589 -1.1084
  251MOL0     H33882   8.609  -0.807   8.611 -2.5001  2.1753 -1.3066
  251MOL0     H33883   9.026  -0.860   8.640  0.0813  1.0477 -2.3023
  251MOL0     H33884   8.317  -0.270   8.789 -0.7199  0.2076  0.3183
  251MOL0     H33885   8.248  -0.062   8.911 -0.0290  1.5430  2.1995
  252MOL0     O33886   3.558  10.435   5.952  0.1130  0.1932  0.9777
  252MOL0     C33887   3.676  10.471   5.957 -0.0669 -0.3770 -0.2716
  252MOL0     O33888   3.734  10.537   6.062  0.7382 -0.2659  0.0485
  252MOL0     C33889   3.676  10.577   6.180  0.3915 -0.2460 -0.3499
  252MOL0     C33890   3.539  10.554   6.228 -0.7512 -0.0945  0.4053
  252MOL0     C33891   3.494  10.598   6.353  0.1763 -0.6989 -0.6975
  252MOL0     C33892   3.579  10.666   6.441  0.3930 -0.7230  0.3994
  252MOL0     O33893   3.525  10.710   6.565 -0.0285 -0.5019  0.0606
  252MOL0     C33894   3.618  10.747   6.665  0.4278 -0.9946 -1.4687
  252MOL0     C33895   3.544  10.776   6.795 -0.1862  0.4523  0.6343
  252MOL0     C33896   3.494  10.649   6.867 -1.2202 -0.3717  0.8988
  252MOL0     C33897   3.610  10.593   6.953 -0.7625  0.7828  0.9001
  252MOL0     C33898   3.651  10.680   7.075 -0.0524 -0.2544 -0.3456
  252MOL0     C33899   3.762  10.619   7.161  0.3675  0.2882  0.6174
  252MOL0     C33900   3.890  10.616   7.083  0.1080  0.0943 -0.0610
  252MOL0     C33901   4.024  10.633   7.178  1.1942  0.7709  0.2164
  252MOL0     N33902   4.156  10.629   7.116  0.5384  0.3756 -0.0611
  252MOL0     C33903   4.274  10.567   7.160  0.2401  0.2727  0.8828
  252MOL0     C33904   4.351  10.550   7.051  0.2154  0.1487 -0.0876
  252MOL0     C33905   4.488  10.500   7.059  0.0291 -0.2008 -1.2496
  252MOL0     C33906   4.503  10.353   7.082  0.6774 -0.1910 -0.1972
  252MOL0     C33907   4.623  10.315   7.169  0.1246 -0.2048 -0.4010
  252MOL0     C33908   4.617  10.163   7.212 -0.5736  0.5827  0.4659
  252MOL0     O33909   4.615  10.096   7.085  0.2221 -1.0105 -0.7493
  252MOL0     C33910   4.546   9.977   7.070 -0.1115 -0.2547  1.1814
  252MOL0     C33911   4.590   9.880   6.976 -0.3788  0.7468 -0.2338
  252MOL0     C33912   4.521   9.756   6.954  0.4492 -1.2193 -0.5732
  252MOL0     C33913   4.589   9.664   6.859 -0.5189  0.2634  0.0543
  252MOL0     C33914   4.406   9.725   7.035  0.7097 -0.4872 -0.3690
  252MOL0     C33915   4.324   9.597   7.033  0.8530 -0.5955 -0.2550
  252MOL0     O33916   4.195   9.582   7.089  0.2077 -0.3430  0.9899
  252MOL0     C33917   4.154   9.455   7.091 -0.4527  0.7123 -1.3913
  252MOL0     C33918   4.162   9.391   7.213  0.4053 -0.2510 -0.7009
  252MOL0     C33919   4.132   9.255   7.216 -0.0503  0.2427 -0.0447
  252MOL0     C33920   4.093   9.179   7.103  0.0891  0.2735 -0.6731
  252MOL0     O33921   4.037   9.054   7.100  0.8139  0.0506 -0.3492
  252MOL0     C33922   3.910   9.036   7.180 -0.4751 -0.7719  0.1437
  252MOL0     C33923   3.860   8.895   7.178 -0.1137  0.4117 -0.5535
  252MOL0     C33924   3.960   8.815   7.260 -0.3138 -0.1824 -0.8181
  252MOL0     C33925   3.900   8.693   7.334 -0.2443  0.8019 -0.2191
  252MOL0     C33926   4.007   8.619   7.419  0.1120 -0.0988 -0.1322
  252MOL0     C33927   3.950   8.497   7.492  0.8601 -0.8024 -0.3943
  252MOL0     C33928   4.052   8.428   7.578  0.3839 -1.3013 -0.7748
  252MOL0     C33929   3.986   8.323   7.673 -0.0481  0.1384 -0.0124
  252MOL0    Cl33930   4.080   8.303   7.825  0.3682 -0.4365 -0.1523
  252MOL0     C33931   4.094   9.245   6.990 -0.3628  0.2321 -0.1451
  252MOL0     C33932   4.131   9.379   6.977  0.6430 -0.2608 -0.7779
  252MOL0     O33933   4.382   9.510   6.974  0.0497  0.8266 -0.6319
  252MOL0     C33934   4.359   9.836   7.113 -0.1595  0.4918  0.4150
  252MOL0     C33935   4.426   9.954   7.136  0.8922  0.1441  0.1590
  252MOL0     N33936   4.280  10.599   6.947 -0.5998 -0.2398  0.0828
  252MOL0     N33937   4.163  10.651   6.982 -0.7101 -0.5317  0.5039
  252MOL0     C33938   3.705  10.691   6.396 -0.5873 -0.6598  0.1032
  252MOL0     C33939   3.755  10.652   6.265  0.1879  0.1722 -0.8597
  252MOL0     C33940   3.768  10.439   5.841 -0.5657 -0.9156 -0.0990
  252MOL0     C33941   3.889  10.512   5.837 -0.0075 -0.2771  0.0941
  252MOL0     C33942   3.987  10.477   5.739 -0.5744 -0.8940  0.6846
  252MOL0     C33943   3.957  10.391   5.636 -0.8247 -0.2739 -0.3718
  252MOL0     O33944   4.057  10.378   5.536 -0.2267  0.2620  0.7073
  252MOL0     C33945   4.090  10.241   5.507  0.1348 -0.3495  0.5646
  252MOL0     C33946   4.055  10.200   5.356  0.9050  0.2727 -0.9973
  252MOL0     C33947   4.169  10.237   5.261 -0.3373 -0.8461  0.3844
  252MOL0     C33948   4.144  10.185   5.111 -0.1446 -0.6477 -0.4934
  252MOL0     C33949   4.129  10.042   5.104 -0.2702  0.6307  0.7371
  252MOL0     C33950   4.098   9.925   5.077 -0.5147 -0.2472  0.8174
  252MOL0     C33951   3.837  10.320   5.640  0.2660 -0.5705 -0.3379
  252MOL0     C33952   3.744  10.345   5.747  0.0236  0.6696  0.3649
  252MOL0     H33953   3.471  10.506   6.158 -1.4720  2.7888 -1.0106
  252MOL0     H33954   3.395  10.575   6.392  0.0903  0.8697  0.1008
  252MOL0     H33955   3.692  10.668   6.680  1.0774 -1.3366 -5.3779
  252MOL0     H33956   3.673  10.838   6.637 -0.0330 -1.1914 -3.1707
  252MOL0     H33957   3.603  10.847   6.853  0.1486 -1.2556  2.5074
  252MOL0     H33958   3.460  10.838   6.760  0.7616  1.6740  0.4619
  252MOL0     H33959   3.424  10.686   6.942 -0.0615 -1.6266  2.6753
  252MOL0     H33960   3.451  10.570   6.805  1.7070 -1.3931 -0.0084
  252MOL0     H33961   3.590  10.487   6.974 -1.5668  0.9102  0.8197
  252MOL0     H33962   3.697  10.577   6.888 -2.6328 -3.5598 -0.9993
  252MOL0     H33963   3.688  10.779   7.048  0.8991 -0.5936 -0.3234
  252MOL0     H33964   3.559  10.683   7.134 -0.8174 -0.0341 -1.5156
  252MOL0     H33965   3.777  10.674   7.254  3.4675 -0.3523  0.6013
  252MOL0     H33966   3.722  10.519   7.184  2.0487 -0.4532  0.4722
  252MOL0     H33967   3.893  10.527   7.019 -1.9453  0.7506 -1.1439
  252MOL0     H33968   3.900  10.702   7.016 -1.0746 -0.4761 -1.0203
  252MOL0     H33969   4.021  10.555   7.254 -0.2665  2.3040  1.8121
  252MOL0     H33970   4.022  10.728   7.231 -1.3143  0.4771  0.7526
  252MOL0     H33971   4.290  10.520   7.257  2.4102 -2.8817 -0.8203
  252MOL0     H33972   4.540  10.531   6.968 -0.9656 -0.2955 -1.8646
  252MOL0     H33973   4.542  10.554   7.136  0.5877  1.1311 -2.5305
  252MOL0     H33974   4.495  10.308   6.982  0.6537  1.3435 -0.9082
  252MOL0     H33975   4.418  10.306   7.132 -3.1145  0.7979 -4.9547
  252MOL0     H33976   4.623  10.360   7.269  1.1217 -0.7122 -0.1579
  252MOL0     H33977   4.718  10.334   7.117  0.2409 -1.0720 -0.5244
  252MOL0     H33978   4.520  10.148   7.259 -0.1004  0.3037  1.3682
  252MOL0     H33979   4.693  10.121   7.278 -1.3781 -2.2811 -0.3138
  252MOL0     H33980   4.681   9.897   6.920 -0.4984 -1.5010 -1.1858
  252MOL0     H33981   4.666   9.718   6.804 -0.8368 -2.1508 -2.9903
  252MOL0     H33982   4.639   9.592   6.925  1.4503  1.0553 -0.5188
  252MOL0     H33983   4.524   9.621   6.782  2.6812  0.3767 -2.9588
  252MOL0     H33984   4.192   9.444   7.304  2.7982  0.9774 -2.1108
  252MOL0     H33985   4.137   9.214   7.317 -0.5159 -0.4177 -0.2813
  252MOL0     H33986   3.936   9.068   7.282  0.8067 -2.9680  0.5666
  252MOL0     H33987   3.834   9.105   7.141  1.9299  1.6463 -0.6339
  252MOL0     H33988   3.760   8.892   7.223 -0.3054 -0.1699 -0.9945
  252MOL0     H33989   3.843   8.855   7.077  2.2814  0.6738 -1.1132
  252MOL0     H33990   4.030   8.870   7.325 -0.1722  2.8181 -3.2538
  252MOL0     H33991   4.024   8.756   7.194 -0.0723 -0.5871 -0.2330
  252MOL0     H33992   3.813   8.715   7.397 -1.3358  1.0179 -1.7603
  252MOL0     H33993   3.861   8.623   7.260 -0.8690  0.5498  0.3430
  252MOL0     H33994   4.057   8.697   7.476 -1.9457  2.0526 -1.1276
  252MOL0     H33995   4.076   8.576   7.345 -2.4394  0.5140 -3.0712
  252MOL0     H33996   3.869   8.527   7.559 -0.3114 -0.3108 -1.9886
  252MOL0     H33997   3.911   8.418   7.427 -0.0124 -1.8299  1.3041
  252MOL0     H33998   4.098   8.504   7.642 -1.3171 -1.8818  1.2565
  252MOL0     H33999   4.114   8.377   7.503  1.6702  0.3902 -0.9300
  252MOL0     H34000   3.975   8.224   7.628  0.7350 -1.3424  2.7752
  252MOL0     H34001   3.884   8.352   7.701 -0.0205 -0.4862  0.7958
  252MOL0     H34002   4.072   9.188   6.900 -3.3701 -1.4647  1.5317
  252MOL0     H34003   4.140   9.426   6.879 -0.5010  2.1311  0.1814
  252MOL0     H34004   4.283   9.809   7.185  0.1393  1.3266  1.0581
  252MOL0     H34005   4.366  10.021   7.196 -2.0670 -4.5461  3.0602
  252MOL0     H34006   3.773  10.744   6.462  0.4677 -0.0177 -1.4335
  252MOL0     H34007   3.857  10.680   6.241  0.4598  0.9080  1.0172
  252MOL0     H34008   3.905  10.589   5.911  1.6097 -2.1118  1.7768
  252MOL0     H34009   4.084  10.525   5.748 -1.3308  0.7129  0.5788
  252MOL0     H34010   4.197  10.231   5.527 -0.3254 -1.4373  2.6958
  252MOL0     H34011   4.039  10.176   5.578 -0.2808 -1.7542 -0.9537
  252MOL0     H34012   3.959  10.238   5.321 -0.6916 -1.9852  0.6705
  252MOL0     H34013   4.053  10.092   5.372 -0.7644  0.4856  0.5352
  252MOL0     H34014   4.263  10.191   5.293  0.6335  0.3428 -0.6563
  252MOL0     H34015   4.171  10.346   5.254 -3.6387 -0.7534 -1.8965
  252MOL0     H34016   4.225  10.222   5.048 -0.0346 -1.2272 -0.6943
  252MOL0     H34017   4.047  10.227   5.080  0.0246 -0.1010 -0.2874
  252MOL0     H34018   4.094   9.823   5.044  2.7191 -0.9888  2.2868
  252MOL0     H34019   3.803  10.266   5.552  1.7624  1.9617 -2.5933
  252MOL0     H34020   3.648  10.296   5.742 -1.6931  3.8352  0.1496
  253MOL0     O34021   2.946   0.605   9.807  0.3119  0.0457  0.1493
  253MOL0     C34022   3.063   0.620   9.773 -0.4328 -0.2279 -0.3712
  253MOL0     O34023   3.169   0.641   9.864 -0.5970  0.6337  0.1689
  253MOL0     C34024   3.144   0.683   9.989  0.4400  0.7110  0.3440
  253MOL0     C34025   3.203   0.611  10.100  0.2081 -0.4047 -0.4206
  253MOL0     C34026   3.184   0.652  10.231 -1.2383 -0.3475  0.5058
  253MOL0     C34027   3.119   0.775  10.258 -0.5929 -0.9591 -0.2928
  253MOL0     O34028   3.120   0.833  10.386 -0.6953 -0.3725 -1.0466
  253MOL0     C34029   3.110   0.978  10.390 -0.2513  0.2586  0.3275
  253MOL0     C34030   3.170   1.013  10.531 -0.0968  0.2018 -0.4694
  253MOL0     C34031   3.057   0.984  10.641  0.0959  0.1301 -0.0884
  253MOL0     C34032   3.120   0.951  10.770 -0.2938 -0.4444 -0.2716
  253MOL0     C34033   3.015   0.902  10.878 -0.9029 -0.4354 -0.4620
  253MOL0     C34034   3.071   0.865  11.009 -0.4387 -0.1859 -1.0985
  253MOL0     C34035   2.973   0.838  11.125  0.4647 -0.1268  0.3488
  253MOL0     C34036   2.889   0.958  11.155  0.4117  0.4089 -0.0066
  253MOL0     N34037   2.959   1.066  11.211  0.0279 -0.6247  1.1798
  253MOL0     C34038   3.077   1.066  11.290 -0.6852 -0.5659  1.0922
  253MOL0     C34039   3.108   1.195  11.296 -0.5040 -0.2792  0.0160
  253MOL0     C34040   3.231   1.228  11.377  0.2088  0.7682 -0.0521
  253MOL0     C34041   3.234   1.175  11.528  0.1416 -0.5057  0.1822
  253MOL0     C34042   3.112   1.209  11.615  0.3077 -0.2596 -0.3973
  253MOL0     C34043   3.101   1.369  11.626  0.0377 -0.0312 -0.2812
  253MOL0     O34044   3.011   1.402  11.726 -0.1052 -0.1890  0.7381
  253MOL0     C34045   2.877   1.405  11.701  0.1148 -0.6706  0.0388
  253MOL0     C34046   2.786   1.421  11.804 -0.4693  0.1725 -0.5946
  253MOL0     C34047   2.641   1.433  11.779  0.1120 -0.2076 -0.2090
  253MOL0     C34048   2.543   1.447  11.893  0.1628  0.4954 -0.5749
  253MOL0     C34049   2.597   1.413  11.642  0.4033  0.2049 -0.7550
  253MOL0     C34050   2.465   1.416  11.595  0.5247  0.3415  0.2714
  253MOL0     O34051   2.409   1.298  11.561 -0.0051 -0.1694  0.4220
  253MOL0     C34052   2.271   1.278  11.562  0.5009  0.0302  0.3292
  253MOL0     C34053   2.178   1.341  11.655 -0.8103 -0.0158  0.0435
  253MOL0     C34054   2.045   1.317  11.638  0.6965 -0.4836 -0.0810
  253MOL0     C34055   1.999   1.238  11.531  0.1657  0.6395  0.1579
  253MOL0     O34056   1.868   1.234  11.502 -0.0379  0.1880 -0.2117
  253MOL0     C34057   1.837   1.319  11.393  0.0555  0.6651 -1.0812
  253MOL0     C34058   1.684   1.345  11.399 -0.0180  0.1817  0.1330
  253MOL0     C34059   1.595   1.211  11.405 -0.1877 -0.2035 -0.6132
  253MOL0     C34060   1.445   1.230  11.377  0.1487  0.9523  0.6705
  253MOL0     C34061   1.373   1.096  11.384  0.5965 -0.7812  0.0335
  253MOL0     C34062   1.224   1.115  11.407 -0.7579 -0.3476  0.0887
  253MOL0     C34063   1.154   0.978  11.418 -0.5255 -0.1466 -0.4596
  253MOL0     C34064   1.006   1.001  11.393  0.9307 -0.1808  0.4552
  253MOL0    Cl34065   0.909   1.111  11.492  0.7805 -0.0392  0.5867
  253MOL0     C34066   2.089   1.191  11.435 -0.1979  0.1488 -0.2679
  253MOL0     C34067   2.220   1.209  11.460 -0.2301  0.9816 -0.0349
  253MOL0     O34068   2.409   1.527  11.600  0.2638  0.0471 -0.3566
  253MOL0     C34069   2.688   1.400  11.548 -0.3914  0.7132 -0.5657
  253MOL0     C34070   2.823   1.392  11.567  0.2704 -1.4890 -0.2694
  253MOL0     N34071   3.011   1.269  11.235  0.4240  0.1974 -0.1488
  253MOL0     N34072   2.916   1.197  11.196 -0.4686 -0.2636  0.1748
  253MOL0     C34073   3.063   0.842  10.151  0.6426  0.8102 -0.2610
  253MOL0     C34074   3.075   0.804  10.016 -0.4833 -0.2842 -1.6776
  253MOL0     C34075   3.099   0.628   9.631  0.3767  1.0110  0.2743
  253MOL0     C34076   2.996   0.629   9.531  0.6545 -0.5538 -0.0479
  253MOL0     C34077   3.031   0.641   9.399 -0.8423 -0.0066  0.7300
  253MOL0     C34078   3.164   0.656   9.361 -0.5750 -0.7996 -0.2554
  253MOL0     O34079   3.185   0.673   9.228  0.0195 -0.4534 -0.3065
  253MOL0     C34080   3.292   0.755   9.178  0.4709  0.6680 -0.9496
  253MOL0     C34081   3.276   0.900   9.220  0.3501  0.0712  0.4308
  253MOL0     C34082   3.397   0.986   9.178 -0.5942 -0.6647  0.4408
  253MOL0     C34083   3.490   1.023   9.293  1.1188 -0.6802 -0.5157
  253MOL0     C34084   3.620   1.079   9.261 -0.0871  0.1660 -0.2693
  253MOL0     C34085   3.727   1.121   9.234 -0.1646 -0.3394 -0.9954
  253MOL0     C34086   3.262   0.658   9.463  1.2951 -0.1786 -0.2213
  253MOL0     C34087   3.236   0.638   9.592 -0.5872 -0.0849 -0.7932
  253MOL0     H34088   3.261   0.522  10.080  2.2621  0.5765  0.8062
  253MOL0     H34089   3.232   0.605  10.316  0.1274 -1.7233 -0.9584
  253MOL0     H34090   3.169   1.015  10.305 -2.0543 -1.5142 -1.8308
  253MOL0     H34091   3.005   1.007  10.391 -1.6449 -4.0821  2.2523
  253MOL0     H34092   3.254   0.946  10.551 -0.6169 -1.3391 -2.9656
  253MOL0     H34093   3.202   1.117  10.531 -0.7764  0.4409 -2.1939
  253MOL0     H34094   2.996   1.073  10.657 -0.6367 -0.7510  2.5326
  253MOL0     H34095   2.994   0.900  10.612 -1.4583  0.1807  2.7738
  253MOL0     H34096   3.188   0.867  10.756 -0.2767 -0.2522 -1.4450
  253MOL0     H34097   3.166   1.043  10.806 -0.7529  0.5739 -2.1419
  253MOL0     H34098   2.948   0.988  10.890  0.0279  0.2471 -0.1033
  253MOL0     H34099   2.956   0.823  10.831  0.8903 -0.3215 -3.1233
  253MOL0     H34100   3.138   0.780  10.994  0.9782  0.7651 -0.4736
  253MOL0     H34101   3.136   0.946  11.044  1.8944 -2.2695 -0.2730
  253MOL0     H34102   2.905   0.758  11.093  0.0033  0.1176  0.7087
  253MOL0     H34103   3.027   0.808  11.214  1.0043  1.7239  0.6778
  253MOL0     H34104   2.820   0.919  11.231  0.3060  1.1618  0.2863
  253MOL0     H34105   2.837   0.995  11.067  0.8273  0.0400 -0.4132
  253MOL0     H34106   3.124   0.980  11.336 -0.9557 -0.2944  1.8913
  253MOL0     H34107   3.317   1.196  11.318 -0.9209  0.8655 -1.7992
  253MOL0     H34108   3.220   1.336  11.383 -3.3753  0.4580  1.9570
  253MOL0     H34109   3.323   1.216  11.576 -1.4438  3.8892 -0.1694
  253MOL0     H34110   3.245   1.067  11.515 -1.9188 -0.4763 -2.8727
  253MOL0     H34111   3.116   1.172  11.718 -1.7876  0.4558 -0.0173
  253MOL0     H34112   3.019   1.170  11.574 -1.6600  2.1668  1.4297
  253MOL0     H34113   3.077   1.409  11.527 -0.3397 -3.5570 -1.7488
  253MOL0     H34114   3.203   1.404  11.649  0.9490 -1.6014 -1.6968
  253MOL0     H34115   2.822   1.424  11.907  0.6816 -1.4081 -0.9049
  253MOL0     H34116   2.566   1.378  11.974 -0.7113  0.3831 -0.4099
  253MOL0     H34117   2.530   1.548  11.934 -1.8526  0.5298 -1.1972
  253MOL0     H34118   2.446   1.414  11.855  0.0363 -0.9516  0.8826
  253MOL0     H34119   2.205   1.411  11.734 -0.7726 -1.5199  1.4061
  253MOL0     H34120   1.980   1.380  11.697  1.6975  0.3148  0.1954
  253MOL0     H34121   1.887   1.416  11.383 -0.5948  1.1229 -0.0798
  253MOL0     H34122   1.849   1.265  11.299  1.4244  0.4147 -0.7774
  253MOL0     H34123   1.662   1.401  11.490 -2.3287 -0.7451  0.2078
  253MOL0     H34124   1.652   1.406  11.314 -3.1280  0.5835  1.4767
  253MOL0     H34125   1.617   1.168  11.503 -0.3275 -2.8730 -1.6589
  253MOL0     H34126   1.628   1.137  11.331 -0.7431  1.2483 -2.4004
  253MOL0     H34127   1.407   1.299  11.452  2.7194  2.6357  0.5461
  253MOL0     H34128   1.431   1.265  11.274  2.8738 -1.3601 -0.6016
  253MOL0     H34129   1.415   1.037  11.466  1.3750 -0.7410 -0.3252
  253MOL0     H34130   1.394   1.046  11.288 -2.2455 -0.7855 -0.6725
  253MOL0     H34131   1.211   1.190  11.485 -0.0514 -1.3929  1.2384
  253MOL0     H34132   1.176   1.162  11.321 -0.2819  4.0315  1.9794
  253MOL0     H34133   1.175   0.930  11.515  1.1433  1.3203 -0.0391
  253MOL0     H34134   1.190   0.904  11.346 -1.1724  2.2085 -3.3941
  253MOL0     H34135   0.950   0.907  11.390  1.0591 -0.2312 -2.0663
  253MOL0     H34136   1.004   1.038  11.291  1.5489  0.1096  0.5443
  253MOL0     H34137   2.053   1.134  11.350  0.8287  0.5997 -1.0223
  253MOL0     H34138   2.297   1.175  11.391  0.5625  0.0940  1.2229
  253MOL0     H34139   2.648   1.381  11.449 -2.5986  1.3384  0.1439
  253MOL0     H34140   2.889   1.366  11.485  0.7514 -1.0648 -0.0241
  253MOL0     H34141   3.030   0.945  10.159  1.5783  1.3281 -2.3626
  253MOL0     H34142   3.056   0.872   9.933  0.1931  1.3250 -0.5582
  253MOL0     H34143   2.895   0.610   9.565  1.3974 -3.6983  0.7282
  253MOL0     H34144   2.954   0.636   9.322  1.7663 -0.1080 -2.0226
  253MOL0     H34145   3.381   0.706   9.217 -0.8765  0.7802  2.6014
  253MOL0     H34146   3.287   0.734   9.071 -2.4206 -0.7993 -0.6359
  253MOL0     H34147   3.253   0.910   9.326 -2.2848 -2.3693  0.2115
  253MOL0     H34148   3.195   0.937   9.156  0.8388  0.0908 -0.1811
  253MOL0     H34149   3.352   1.068   9.121 -2.8589 -0.7109  2.0184
  253MOL0     H34150   3.450   0.922   9.108 -0.4378 -1.5326  1.3344
  253MOL0     H34151   3.508   0.933   9.353 -2.2947 -1.1762 -0.0207
  253MOL0     H34152   3.437   1.092   9.360  0.8671 -4.6836  4.0061
  253MOL0     H34153   3.832   1.121   9.211  0.2677 -0.8726  0.8601
  253MOL0     H34154   3.369   0.673   9.448  1.4277 -1.7280 -0.9713
  253MOL0     H34155   3.321   0.645   9.659 -0.9915  3.7939 -0.4651
  254MOL0     O34156   8.763   9.585   8.513 -0.2461 -0.1022 -0.1026
  254MOL0     C34157   8.684   9.543   8.591  0.9056 -0.7859  0.3183
  254MOL0     O34158   8.627   9.421   8.589  0.0302  0.1337  1.3983
  254MOL0     C34159   8.634   9.343   8.478 -0.2734 -0.4041  0.1755
  254MOL0     C34160   8.742   9.252   8.470 -0.5790  0.6543 -0.7988
  254MOL0     C34161   8.759   9.180   8.342 -0.7181 -1.0615  0.3742
  254MOL0     C34162   8.680   9.213   8.231 -1.0186 -0.4357  1.0729
  254MOL0     O34163   8.710   9.138   8.113 -0.0687  0.1663  0.0134
  254MOL0     C34164   8.620   9.149   8.002 -0.1866  1.0808  0.2911
  254MOL0     C34165   8.655   9.055   7.882 -0.1204  0.2886  0.0008
  254MOL0     C34166   8.586   9.116   7.751  1.2362  0.0736 -0.4100
  254MOL0     C34167   8.579   8.985   7.666  0.2510 -0.0367  0.1427
  254MOL0     C34168   8.491   9.026   7.550 -0.0838  0.6286 -0.6164
  254MOL0     C34169   8.508   8.920   7.437  1.1640 -0.0875 -0.2505
  254MOL0     C34170   8.383   8.916   7.346 -0.8372  0.7057 -1.5262
  254MOL0     C34171   8.367   9.053   7.278 -0.0605 -0.0977  0.3774
  254MOL0     N34172   8.289   9.031   7.157 -0.7887  0.5428 -0.6835
  254MOL0     C34173   8.337   8.992   7.040 -1.1047  0.0236 -0.7317
  254MOL0     C34174   8.235   9.018   6.953 -0.1232  0.0389  0.1554
  254MOL0     C34175   8.244   8.981   6.810 -0.0298  0.3602 -0.0838
  254MOL0     C34176   8.163   9.071   6.715  1.1272  0.2117 -0.0797
  254MOL0     C34177   8.263   9.154   6.628 -0.1854 -0.0627  0.3684
  254MOL0     C34178   8.333   9.255   6.712 -0.0481 -0.4378  0.4237
  254MOL0     O34179   8.246   9.351   6.777  0.0511 -0.1602  0.2212
  254MOL0     C34180   8.269   9.366   6.918  0.0174 -1.2751  0.3851
  254MOL0     C34181   8.392   9.368   6.970 -0.3121  0.6173  0.3971
  254MOL0     C34182   8.419   9.380   7.108 -0.2239  0.6214 -0.3151
  254MOL0     C34183   8.564   9.391   7.147  0.1901  0.6164  0.5324
  254MOL0     C34184   8.317   9.401   7.200 -0.7319 -0.3187 -1.1659
  254MOL0     C34185   8.328   9.430   7.348 -0.4770 -0.7411  0.0285
  254MOL0     O34186   8.225   9.498   7.410 -0.2384  0.5160 -0.1834
  254MOL0     C34187   8.231   9.519   7.548  0.7026 -0.4932 -0.5962
  254MOL0     C34188   8.122   9.488   7.627  0.2008  0.1564  0.2286
  254MOL0     C34189   8.139   9.504   7.763  0.7384 -1.0086  0.0299
  254MOL0     C34190   8.250   9.557   7.820  0.2420 -0.1155 -0.2075
  254MOL0     O34191   8.264   9.586   7.953 -0.8640  0.2408  0.2985
  254MOL0     C34192   8.174   9.537   8.057 -0.2894  0.1905  0.5828
  254MOL0     C34193   8.212   9.393   8.092 -0.3001 -0.1797 -0.9337
  254MOL0     C34194   8.156   9.347   8.229 -0.2199  0.0173 -0.3908
  254MOL0     C34195   8.193   9.198   8.273  0.2383  0.4110 -0.7341
  254MOL0     C34196   8.134   9.154   8.419 -0.2048 -0.1496  0.2282
  254MOL0     C34197   8.260   9.141   8.522  0.3621 -0.9074  0.5229
  254MOL0     C34198   8.351   9.015   8.508 -0.4205  0.2808 -0.1204
  254MOL0     C34199   8.464   9.035   8.612 -0.2835 -0.5371  0.4172
  254MOL0    Cl34200   8.613   8.946   8.554  0.3583  0.1749 -0.2928
  254MOL0     C34201   8.356   9.595   7.740  0.1626 -0.0409  0.1214
  254MOL0     C34202   8.342   9.575   7.602 -0.2865 -1.4966 -0.3648
  254MOL0     O34203   8.425   9.381   7.411  0.2752  0.0606 -0.2680
  254MOL0     C34204   8.187   9.396   7.144  0.1854 -0.3121 -0.3731
  254MOL0     C34205   8.168   9.386   7.003  0.1003  0.2959 -0.5120
  254MOL0     N34206   8.125   9.063   7.020 -0.5209  0.1212  0.5022
  254MOL0     N34207   8.159   9.071   7.143 -0.2894 -0.6548  0.3542
  254MOL0     C34208   8.584   9.302   8.243  0.9954 -0.5422 -0.8871
  254MOL0     C34209   8.558   9.373   8.366  0.4900  0.6340  0.2262
  254MOL0     C34210   8.651   9.624   8.709 -0.5200 -0.8552  1.1225
  254MOL0     C34211   8.667   9.763   8.712 -0.7129  0.5434 -0.8755
  254MOL0     C34212   8.649   9.842   8.829 -0.7986 -0.5409 -0.5098
  254MOL0     C34213   8.592   9.783   8.947 -0.5071  0.1164  0.3817
  254MOL0     O34214   8.572   9.841   9.067 -0.0671  0.0086  0.0915
  254MOL0     C34215   8.594   9.986   9.067  0.9599  0.2841  0.0288
  254MOL0     C34216   8.540  10.047   9.207  0.0341 -0.0945  0.2771
  254MOL0     C34217   8.632  10.015   9.320  0.0761  0.1989 -0.2092
  254MOL0     C34218   8.581   9.885   9.381 -0.5137  0.1919  0.2192
  254MOL0     C34219   8.442   9.893   9.434 -0.9098 -0.5172  0.1013
  254MOL0     C34220   8.325   9.874   9.464 -0.0426  0.6411  0.4863
  254MOL0     C34221   8.584   9.641   8.940 -0.1012  0.8938  0.4904
  254MOL0     C34222   8.620   9.562   8.832  0.1738  0.2300  0.1449
  254MOL0     H34223   8.810   9.230   8.552  2.3235  1.3162 -2.9010
  254MOL0     H34224   8.828   9.096   8.345  1.7676  0.8766  1.1989
  254MOL0     H34225   8.530   9.118   8.055  2.3015 -1.2467  3.5850
  254MOL0     H34226   8.627   9.251   7.963 -0.2643  0.7429 -0.6503
  254MOL0     H34227   8.763   9.049   7.872  0.0092  0.0603  1.3517
  254MOL0     H34228   8.609   8.959   7.907 -0.4299 -0.5941 -3.4725
  254MOL0     H34229   8.489   9.157   7.781  1.6381 -0.9283  2.6573
  254MOL0     H34230   8.645   9.194   7.702  2.6348 -0.9682 -0.4485
  254MOL0     H34231   8.678   8.963   7.625  2.2648  2.0278  3.3900
  254MOL0     H34232   8.542   8.896   7.719  1.8461  0.6736  2.6549
  254MOL0     H34233   8.386   9.032   7.577 -0.9333 -2.1107 -2.8632
  254MOL0     H34234   8.518   9.125   7.513 -0.6497  0.9202 -0.2583
  254MOL0     H34235   8.595   8.944   7.375  0.7255  1.8073 -0.1965
  254MOL0     H34236   8.527   8.822   7.482 -1.1020 -0.2956  0.4035
  254MOL0     H34237   8.399   8.838   7.271 -1.3547  0.7201 -1.6521
  254MOL0     H34238   8.300   8.899   7.415  0.8195  0.9876  0.6547
  254MOL0     H34239   8.459   9.097   7.239 -1.2187  0.8113 -1.5007
  254MOL0     H34240   8.319   9.124   7.346  0.8728  1.4471 -0.5043
  254MOL0     H34241   8.437   8.964   7.007 -1.2842  0.4713 -1.6884
  254MOL0     H34242   8.345   8.995   6.771 -0.0340  0.0788 -0.2002
  254MOL0     H34243   8.221   8.874   6.796  0.8305  0.3470 -1.6277
  254MOL0     H34244   8.087   9.135   6.762 -0.7770 -2.6392  1.0060
  254MOL0     H34245   8.102   9.002   6.655 -0.3892  1.6000 -0.2056
  254MOL0     H34246   8.214   9.206   6.545  2.1053  2.6953  0.5628
  254MOL0     H34247   8.327   9.090   6.567  0.3404  2.7454 -2.2710
  254MOL0     H34248   8.410   9.311   6.659 -0.8948  2.7147  2.2971
  254MOL0     H34249   8.395   9.204   6.787  3.8942  3.7241  0.4563
  254MOL0     H34250   8.481   9.355   6.909  0.4652 -0.3167  1.6737
  254MOL0     H34251   8.574   9.489   7.195  1.4348  1.2455 -0.9423
  254MOL0     H34252   8.590   9.310   7.216 -1.6349  0.1162  0.6661
  254MOL0     H34253   8.637   9.380   7.066  0.6269 -1.4465  1.1440
  254MOL0     H34254   8.030   9.452   7.583 -1.8886  2.4487  2.3792
  254MOL0     H34255   8.054   9.478   7.824  0.2311  1.2077  0.3564
  254MOL0     H34256   8.181   9.604   8.144 -0.7748  3.5493 -1.7774
  254MOL0     H34257   8.071   9.546   8.021  0.3750  1.1892 -1.1614
  254MOL0     H34258   8.189   9.320   8.014  0.6317 -2.6504  0.9475
  254MOL0     H34259   8.322   9.391   8.094 -0.2444  1.6911 -0.1276
  254MOL0     H34260   8.049   9.359   8.214 -0.3517  1.0272  1.2258
  254MOL0     H34261   8.191   9.416   8.306  1.3547 -0.2751 -0.8004
  254MOL0     H34262   8.154   9.123   8.204 -1.7941  1.9451 -1.3714
  254MOL0     H34263   8.302   9.189   8.274  0.3132  1.1686 -0.9063
  254MOL0     H34264   8.085   9.057   8.409 -0.2033 -0.0344 -0.9735
  254MOL0     H34265   8.063   9.223   8.465 -1.4465 -0.2260 -1.5040
  254MOL0     H34266   8.310   9.238   8.516 -3.3541  1.1587 -0.7052
  254MOL0     H34267   8.225   9.146   8.625  1.8430  1.3322  0.9796
  254MOL0     H34268   8.389   9.015   8.406  0.8087  2.1715  0.2753
  254MOL0     H34269   8.303   8.922   8.540  0.0368  0.7361  2.1127
  254MOL0     H34270   8.431   9.001   8.710 -2.2462 -1.4074 -0.4930
  254MOL0     H34271   8.494   9.140   8.619  1.1499 -0.9083  0.2054
  254MOL0     H34272   8.440   9.647   7.784 -0.1326  1.1012 -0.6273
  254MOL0     H34273   8.425   9.606   7.539  0.5487  0.5356  1.5977
  254MOL0     H34274   8.106   9.399   7.217  1.7769  2.6519  1.5019
  254MOL0     H34275   8.070   9.371   6.959  0.9782  0.1301 -2.5310
  254MOL0     H34276   8.521   9.329   8.158 -0.0662 -1.5579 -0.4439
  254MOL0     H34277   8.470   9.437   8.371 -1.0498 -1.4810  2.3568
  254MOL0     H34278   8.705   9.819   8.627  3.6302 -2.8300 -1.4667
  254MOL0     H34279   8.677   9.947   8.829  1.5469 -1.0975  0.7174
  254MOL0     H34280   8.696  10.016   9.043  1.0099  0.1805  0.1164
  254MOL0     H34281   8.526  10.033   8.995  1.3180 -0.6174 -0.9063
  254MOL0     H34282   8.440  10.002   9.204 -1.4183  2.9507 -2.3223
  254MOL0     H34283   8.531  10.155   9.200 -1.3348 -0.2108 -0.0467
  254MOL0     H34284   8.615  10.094   9.393 -1.3338 -1.5555  1.4746
  254MOL0     H34285   8.735  10.008   9.285  1.3581  1.3204  3.0674
  254MOL0     H34286   8.657   9.844   9.449 -1.8116 -0.7906  1.1211
  254MOL0     H34287   8.581   9.811   9.300  2.3144  0.6301 -0.2776
  254MOL0     H34288   8.228   9.855   9.506 -0.0845 -3.2655 -0.9696
  254MOL0     H34289   8.570   9.581   9.030  1.4232 -3.0614 -1.6553
  254MOL0     H34290   8.619   9.454   8.833  0.8607  0.2206  0.4153
  255MOL0     O34291   2.415   9.336   1.688  0.3661 -0.1016  0.2854
  255MOL0     C34292   2.344   9.321   1.586  1.0985  0.2301  0.4433
  255MOL0     O34293   2.231   9.385   1.555  0.1307  0.0825 -0.0023
  255MOL0     C34294   2.163   9.460   1.644  0.6113 -0.0029  0.0584
  255MOL0     C34295   2.047   9.414   1.692 -0.4254 -0.5811  0.8652
  255MOL0     C34296   1.968   9.488   1.778 -0.5969  0.6262 -0.0982
  255MOL0     C34297   2.026   9.612   1.837  0.5255  0.1377 -0.7427
  255MOL0     O34298   1.962   9.691   1.926 -0.3771  0.3060 -0.3531
  255MOL0     C34299   1.849   9.630   1.992  0.3489  0.0571  0.5023
  255MOL0     C34300   1.795   9.725   2.099 -0.2837 -0.2653 -0.2515
  255MOL0     C34301   1.885   9.723   2.217 -0.3152 -0.6873 -0.5904
  255MOL0     C34302   1.873   9.855   2.304  0.2616  0.3360  0.7641
  255MOL0     C34303   1.736   9.862   2.385  0.4092 -0.4495 -0.7763
  255MOL0     C34304   1.755   9.975   2.489  0.2411 -0.1234  0.9260
  255MOL0     C34305   1.690  10.106   2.437 -0.5490 -0.0746  0.6170
  255MOL0     C34306   1.661  10.215   2.542 -0.6303 -0.0995 -0.9875
  255MOL0     N34307   1.526  10.207   2.598  0.0832 -0.6031  0.1719
  255MOL0     C34308   1.488  10.142   2.709  0.7279  0.4015  0.3396
  255MOL0     C34309   1.350  10.157   2.712  0.4640  0.4404 -0.4410
  255MOL0     C34310   1.248  10.095   2.804  0.8537 -0.5395  0.2660
  255MOL0     C34311   1.126  10.193   2.818 -1.7062 -0.4211 -0.4525
  255MOL0     C34312   1.154  10.337   2.863 -0.5483 -0.2679  0.2056
  255MOL0     C34313   1.077  10.394   2.981 -0.2330  0.0027  0.4403
  255MOL0     O34314   1.066  10.285   3.073  0.7145 -1.1782 -0.0996
  255MOL0     C34315   1.013  10.315   3.192  0.3907  0.1867 -0.0146
  255MOL0     C34316   1.010  10.212   3.281 -0.1463 -0.4367 -0.0623
  255MOL0     C34317   0.966  10.231   3.408 -0.4195  0.3074  0.1636
  255MOL0     C34318   0.967  10.118   3.502  0.0535  0.1992 -0.8971
  255MOL0     C34319   0.917  10.358   3.448  0.3211  0.8474 -0.0258
  255MOL0     C34320   0.860  10.397   3.578 -0.0674 -0.2317 -0.1322
  255MOL0     O34321   0.779  10.506   3.590  0.0906  0.1237  0.1428
  255MOL0     C34322   0.693  10.507   3.699 -0.1380  0.4419 -0.1144
  255MOL0     C34323   0.727  10.589   3.808 -0.6843  0.2453  0.1181
  255MOL0     C34324   0.644  10.580   3.921 -0.3578 -0.2517  0.0181
  255MOL0     C34325   0.527  10.505   3.928  0.2374 -0.2672  0.1709
  255MOL0     O34326   0.437  10.503   4.031 -0.4532 -0.3482 -0.3489
  255MOL0     C34327   0.455  10.602   4.135  0.2844 -0.4211  0.4250
  255MOL0     C34328   0.355  10.568   4.255  0.6311 -0.2578  0.3639
  255MOL0     C34329   0.210  10.583   4.220 -0.6219  0.3032 -0.6807
  255MOL0     C34330   0.131  10.542   4.349 -0.4514  0.8056 -1.4417
  255MOL0     C34331  -0.020  10.554   4.345  0.1164 -0.3667 -0.5071
  255MOL0     C34332  -0.066  10.475   4.229 -0.0498 -0.4088 -0.2246
  255MOL0     C34333  -0.220  10.446   4.209 -0.4342 -0.4465  1.1665
  255MOL0     C34334  -0.311  10.566   4.232  1.0953 -0.6841  0.5096
  255MOL0    Cl34335  -0.485  10.504   4.195  0.2849  0.0136  0.6225
  255MOL0     C34336   0.503  10.410   3.822  0.0415  0.3319  0.2190
  255MOL0     C34337   0.587  10.415   3.705  1.1345 -0.3008 -0.3139
  255MOL0     O34338   0.896  10.326   3.678  0.0086  0.3882  0.1443
  255MOL0     C34339   0.924  10.462   3.357 -0.7456 -0.3875  0.5120
  255MOL0     C34340   0.973  10.438   3.232 -0.5866 -0.4238  0.0461
  255MOL0     N34341   1.314  10.241   2.605 -0.0431  0.4090  0.1076
  255MOL0     N34342   1.421  10.272   2.537 -0.6133  0.1025  0.3381
  255MOL0     C34343   2.150   9.650   1.798 -0.2658 -0.2314  0.0613
  255MOL0     C34344   2.212   9.582   1.695 -0.0065 -0.1120 -0.6733
  255MOL0     C34345   2.394   9.231   1.488  1.0968  1.0192  0.9921
  255MOL0     C34346   2.490   9.127   1.504  0.0360  0.1616  0.2136
  255MOL0     C34347   2.544   9.047   1.399  0.0176  0.1842 -0.5033
  255MOL0     C34348   2.490   9.061   1.276 -0.1950 -0.8477  0.5017
  255MOL0     O34349   2.527   8.988   1.159  0.2128 -0.2941 -0.2972
  255MOL0     C34350   2.665   8.968   1.128 -0.0484 -0.8941  1.1994
  255MOL0     C34351   2.680   9.012   0.983  0.4833 -0.0339  0.0650
  255MOL0     C34352   2.832   8.982   0.950  0.2797  0.1004 -0.5965
  255MOL0     C34353   2.886   9.060   0.824  0.1059  0.7820  0.4090
  255MOL0     C34354   2.811   9.011   0.706 -0.9602 -0.5233  0.2486
  255MOL0     C34355   2.755   8.988   0.603 -1.4390 -0.0562 -0.2421
  255MOL0     C34356   2.394   9.159   1.254 -0.4684 -0.8920  0.0645
  255MOL0     C34357   2.344   9.243   1.354 -0.4740  0.1488 -0.4014
  255MOL0     H34358   2.011   9.319   1.655 -0.1128 -0.2484 -0.3667
  255MOL0     H34359   1.876   9.452   1.823  1.0603  1.1827  4.2289
  255MOL0     H34360   1.776   9.603   1.915  1.2370  1.0475 -0.7256
  255MOL0     H34361   1.867   9.532   2.036 -2.0890 -0.6147  0.1868
  255MOL0     H34362   1.771   9.825   2.063  3.2215 -0.0368 -2.4012
  255MOL0     H34363   1.695   9.683   2.116 -2.4532  3.3857 -2.6073
  255MOL0     H34364   1.875   9.637   2.285 -1.0883 -1.9791 -2.2770
  255MOL0     H34365   1.985   9.737   2.175  0.5900 -3.5722  0.3891
  255MOL0     H34366   1.965   9.858   2.363  1.4250  0.2778 -0.9626
  255MOL0     H34367   1.877   9.942   2.238 -2.1462  1.2941  1.7773
  255MOL0     H34368   1.652   9.892   2.321  0.7722  0.2495 -0.9256
  255MOL0     H34369   1.722   9.767   2.438  0.7289  1.2541  2.6220
  255MOL0     H34370   1.700   9.939   2.576 -2.3418  0.0055 -0.5431
  255MOL0     H34371   1.856   9.994   2.527  0.2146 -0.5810  1.2328
  255MOL0     H34372   1.766  10.143   2.367 -0.1217 -0.2970  0.9559
  255MOL0     H34373   1.602  10.085   2.376  1.7148  0.0949 -2.9542
  255MOL0     H34374   1.672  10.319   2.509 -0.8895  0.0466 -0.6187
  255MOL0     H34375   1.743  10.225   2.614  0.9257  0.4476 -2.7627
  255MOL0     H34376   1.548  10.100   2.789  0.0994  0.2068  0.7121
  255MOL0     H34377   1.209   9.999   2.768  2.6151 -1.7395  1.3393
  255MOL0     H34378   1.298  10.080   2.901  0.0760  1.2636  0.9831
  255MOL0     H34379   1.044  10.159   2.882 -2.2803  0.6549 -0.5892
  255MOL0     H34380   1.083  10.202   2.718 -0.0050 -2.3876 -1.4487
  255MOL0     H34381   1.138  10.408   2.781 -1.8589  3.3346  3.3025
  255MOL0     H34382   1.256  10.353   2.899 -1.0899  0.5108  1.4361
  255MOL0     H34383   0.979  10.437   2.958 -0.5687  1.9548  4.5778
  255MOL0     H34384   1.137  10.477   3.019  0.1183  1.5287 -3.0931
  255MOL0     H34385   1.040  10.115   3.243 -2.4790 -0.2693 -2.5994
  255MOL0     H34386   1.015  10.034   3.451  0.1178  0.1487 -0.7525
  255MOL0     H34387   1.042  10.149   3.576 -1.8950  1.0362  0.8039
  255MOL0     H34388   0.873  10.087   3.547 -1.2852  1.5839 -2.5696
  255MOL0     H34389   0.813  10.652   3.786 -0.7778  0.5607  0.6519
  255MOL0     H34390   0.668  10.646   4.004  1.6504  1.5127 -1.8549
  255MOL0     H34391   0.553  10.594   4.184 -0.1211 -0.0106  1.3406
  255MOL0     H34392   0.444  10.708   4.108 -1.5298 -0.4016  1.1303
  255MOL0     H34393   0.367  10.464   4.285  0.0189 -0.5813 -0.4900
  255MOL0     H34394   0.376  10.627   4.345  0.6379 -0.5155  0.5320
  255MOL0     H34395   0.179  10.530   4.130  0.5894 -1.9185  0.1413
  255MOL0     H34396   0.194  10.691   4.207 -1.1339  0.4696  1.0252
  255MOL0     H34397   0.155  10.436   4.364  0.9874  1.2147 -0.6001
  255MOL0     H34398   0.180  10.596   4.430 -2.4562  3.7303 -2.0437
  255MOL0     H34399  -0.039  10.661   4.331  0.1664 -0.0388  1.5747
  255MOL0     H34400  -0.063  10.516   4.438 -1.7806 -1.2371 -1.6720
  255MOL0     H34401  -0.049  10.543   4.145  0.1942 -0.9715 -0.6379
  255MOL0     H34402  -0.010  10.382   4.216  1.4476  0.4722 -0.2697
  255MOL0     H34403  -0.242  10.364   4.277  0.0954 -0.7631  0.9603
  255MOL0     H34404  -0.221  10.405   4.108 -1.2125 -0.1118  1.0296
  255MOL0     H34405  -0.298  10.648   4.161  0.0079 -2.6768 -2.1809
  255MOL0     H34406  -0.303  10.608   4.333  0.5118  1.7331 -0.3735
  255MOL0     H34407   0.446  10.322   3.849  2.3258 -0.1573  4.4880
  255MOL0     H34408   0.567  10.355   3.617  1.8080 -0.1725 -0.5627
  255MOL0     H34409   0.909  10.563   3.393  0.5189 -0.2209  0.5971
  255MOL0     H34410   0.977  10.535   3.184  2.9757  0.2827  1.4906
  255MOL0     H34411   2.189   9.735   1.853  2.5051 -2.3269  1.6031
  255MOL0     H34412   2.306   9.620   1.658  0.3253  0.4491  0.6797
  255MOL0     H34413   2.521   9.113   1.606 -2.2801  0.5388  1.0379
  255MOL0     H34414   2.621   8.971   1.412 -1.0450 -1.0683 -1.2914
  255MOL0     H34415   2.720   9.032   1.197 -1.2875 -0.6251  1.9648
  255MOL0     H34416   2.703   8.866   1.144  1.7558 -0.7139 -1.3796
  255MOL0     H34417   2.662   9.120   0.982  1.1308  0.0940  1.2829
  255MOL0     H34418   2.622   8.952   0.912 -0.0802 -0.1123  0.5934
  255MOL0     H34419   2.843   8.873   0.950 -0.9254 -0.0485  0.8283
  255MOL0     H34420   2.884   9.027   1.035  0.0625 -1.9872  0.7169
  255MOL0     H34421   2.993   9.046   0.806  0.3728 -0.4406  2.6136
  255MOL0     H34422   2.861   9.166   0.836 -0.1613  0.6471  1.1141
  255MOL0     H34423   2.688   8.969   0.521 -2.7069 -2.8770  1.3116
  255MOL0     H34424   2.359   9.178   1.153  0.5326 -0.5717 -0.2370
  255MOL0     H34425   2.270   9.318   1.327 -2.0859 -1.2811 -0.1110
  256MOL0     O34426   7.217   7.806  10.109  0.6597 -0.5292  0.1372
  256MOL0     C34427   7.237   7.700  10.157 -0.1060 -0.8919  0.6590
  256MOL0     O34428   7.184   7.584  10.102  0.1486 -0.0501  0.5980
  256MOL0     C34429   7.095   7.578   9.999 -0.1098 -0.3468  0.3110
  256MOL0     C34430   7.123   7.506   9.881  0.3657  1.5619  0.1373
  256MOL0     C34431   7.047   7.502   9.774  0.7594 -0.4979  0.1863
  256MOL0     C34432   6.932   7.590   9.768  0.1386  0.0710  0.1636
  256MOL0     O34433   6.862   7.609   9.648 -1.0421 -0.2041 -0.7785
  256MOL0     C34434   6.909   7.702   9.552  0.1879 -0.1821 -0.8826
  256MOL0     C34435   6.843   7.840   9.565  0.2311  0.8609 -0.3566
  256MOL0     C34436   6.689   7.824   9.575 -0.1531 -0.1350  0.5447
  256MOL0     C34437   6.608   7.952   9.540 -0.1221  0.2533  1.3466
  256MOL0     C34438   6.461   7.948   9.581 -1.1386 -0.1270 -0.3815
  256MOL0     C34439   6.390   8.077   9.536  0.1750 -0.0381 -0.1260
  256MOL0     C34440   6.241   8.083   9.561  1.0242 -0.0394  0.1956
  256MOL0     C34441   6.198   8.233   9.536 -0.7376 -1.3595  0.6170
  256MOL0     N34442   6.051   8.245   9.525  0.1380 -0.5792  0.2238
  256MOL0     C34443   5.974   8.178   9.435 -0.1114  0.5696  0.5281
  256MOL0     C34444   5.846   8.212   9.453 -0.9230 -0.1180 -0.2607
  256MOL0     C34445   5.734   8.152   9.360 -0.9880  0.1336 -0.3301
  256MOL0     C34446   5.766   8.024   9.290 -0.2136 -0.3707 -0.4527
  256MOL0     C34447   5.637   7.984   9.209  0.1809  0.4312 -0.4665
  256MOL0     C34448   5.637   7.839   9.161  0.0123 -0.6210  1.1751
  256MOL0     O34449   5.514   7.792   9.113  0.7161  0.4187  0.5456
  256MOL0     C34450   5.509   7.668   9.062 -0.1658 -0.7110  0.0392
  256MOL0     C34451   5.604   7.571   9.078 -0.3062  0.2668 -0.5798
  256MOL0     C34452   5.583   7.438   9.042  0.1740 -0.1823  0.5602
  256MOL0     C34453   5.696   7.340   9.054  0.8538  0.0025  0.5593
  256MOL0     C34454   5.453   7.406   8.988 -0.7900  1.3730  0.6600
  256MOL0     C34455   5.405   7.264   8.944  0.1926  0.4739 -0.2256
  256MOL0     O34456   5.299   7.258   8.857  0.5402 -0.2203 -0.3696
  256MOL0     C34457   5.247   7.133   8.829 -0.7786 -0.9586  0.2373
  256MOL0     C34458   5.212   7.039   8.914  0.3650  0.6176  0.1650
  256MOL0     C34459   5.179   6.910   8.868 -0.5584 -0.6146 -0.0187
  256MOL0     C34460   5.184   6.874   8.739  0.9152 -0.6023 -1.1050
  256MOL0     O34461   5.134   6.758   8.677  0.3212  0.7744  0.0432
  256MOL0     C34462   5.058   6.659   8.751  0.4270  0.0228  0.2007
  256MOL0     C34463   4.947   6.601   8.661 -0.4311  0.3824 -0.3248
  256MOL0     C34464   4.993   6.492   8.560 -2.0111  0.0046 -0.0366
  256MOL0     C34465   5.041   6.371   8.630 -0.2036  0.1834 -0.0850
  256MOL0     C34466   5.049   6.239   8.548  0.2819  0.9417  0.5144
  256MOL0     C34467   4.928   6.157   8.548 -0.7349  0.5045  0.4057
  256MOL0     C34468   4.953   6.023   8.465 -0.5211  0.2409 -1.0681
  256MOL0     C34469   5.022   5.922   8.569 -0.2372  0.2227 -0.3159
  256MOL0    Cl34470   4.979   5.750   8.533 -0.0509  0.6431 -0.0474
  256MOL0     C34471   5.227   6.976   8.644 -0.0669  0.1332  0.7017
  256MOL0     C34472   5.263   7.104   8.689  0.6571 -0.1088  0.3134
  256MOL0     O34473   5.470   7.173   8.988 -0.5230 -0.1162  0.1753
  256MOL0     C34474   5.357   7.508   8.971 -0.4818  0.4673 -0.0112
  256MOL0     C34475   5.385   7.637   9.018  0.2882  0.6031  0.6044
  256MOL0     N34476   5.839   8.294   9.567  0.0658 -0.1089  0.5609
  256MOL0     N34477   5.964   8.309   9.611  0.5293 -1.0058  0.1983
  256MOL0     C34478   6.898   7.661   9.887  0.3085 -0.6283 -0.0735
  256MOL0     C34479   6.975   7.655  10.003 -0.2579  0.9009  0.4765
  256MOL0     C34480   7.308   7.682  10.289 -0.0276  1.1791 -0.2088
  256MOL0     C34481   7.380   7.786  10.354 -0.5690 -0.0968 -0.7185
  256MOL0     C34482   7.448   7.773  10.478  0.0921  0.5227  0.2772
  256MOL0     C34483   7.458   7.640  10.532 -0.0190  0.5904 -0.1147
  256MOL0     O34484   7.518   7.630  10.655  0.0870 -0.8141  0.0982
  256MOL0     C34485   7.632   7.537  10.643  0.9011 -0.0410 -0.0038
  256MOL0     C34486   7.692   7.514  10.788 -0.1369 -0.2994  0.1110
  256MOL0     C34487   7.722   7.644  10.875  0.6385 -0.2504  0.3876
  256MOL0     C34488   7.812   7.741  10.801 -0.7707 -0.4939 -0.4702
  256MOL0     C34489   7.862   7.856  10.888  0.9199  0.1734  0.5217
  256MOL0     C34490   7.906   7.937  10.966  0.4587  0.4690 -0.1406
  256MOL0     C34491   7.391   7.537  10.468  0.2370  0.2598 -0.3236
  256MOL0     C34492   7.324   7.553  10.350 -0.6155 -0.4405  0.3852
  256MOL0     H34493   7.210   7.440   9.882 -0.5931  0.2573  1.1269
  256MOL0     H34494   7.076   7.426   9.702 -0.9467 -0.4237 -0.6147
  256MOL0     H34495   7.016   7.715   9.572 -0.1791  0.2384  0.9988
  256MOL0     H34496   6.892   7.662   9.452 -0.2047 -0.5114 -0.6885
  256MOL0     H34497   6.890   7.874   9.658 -1.0976  1.4547  0.1272
  256MOL0     H34498   6.879   7.911   9.490 -1.2768  1.1032 -0.8746
  256MOL0     H34499   6.652   7.745   9.510 -3.6735 -1.4445  3.7331
  256MOL0     H34500   6.649   7.788   9.671 -1.1550  1.6747  0.8557
  256MOL0     H34501   6.661   8.032   9.591 -0.0039  1.5279 -0.6516
  256MOL0     H34502   6.626   7.976   9.435  0.8770 -2.3903  0.8453
  256MOL0     H34503   6.412   7.863   9.533 -2.0133 -1.0501  2.0156
  256MOL0     H34504   6.446   7.938   9.689  1.0426 -0.2580 -0.0501
  256MOL0     H34505   6.436   8.164   9.585 -1.4015  0.2269  0.9549
  256MOL0     H34506   6.394   8.082   9.427 -1.6563  1.0870 -0.1900
  256MOL0     H34507   6.179   8.010   9.508  1.0587 -1.2778  1.7917
  256MOL0     H34508   6.230   8.054   9.666  1.8485  2.9638  1.2196
  256MOL0     H34509   6.239   8.285   9.449 -3.5000  3.9287  2.0666
  256MOL0     H34510   6.225   8.308   9.611 -2.4751  0.8694 -0.8569
  256MOL0     H34511   6.014   8.101   9.370  2.8053 -0.7418  3.5884
  256MOL0     H34512   5.648   8.137   9.427 -1.2151  2.8715  0.1084
  256MOL0     H34513   5.703   8.231   9.291  1.4593 -0.0228 -1.6997
  256MOL0     H34514   5.796   7.947   9.361 -1.6139 -0.1577  0.4049
  256MOL0     H34515   5.847   8.042   9.219 -0.7628 -0.5475 -1.1379
  256MOL0     H34516   5.642   8.043   9.117  2.5855  1.4044  0.2214
  256MOL0     H34517   5.547   8.001   9.270  0.8923  3.5777 -0.1186
  256MOL0     H34518   5.669   7.774   9.244  0.0667 -3.8139 -1.1544
  256MOL0     H34519   5.720   7.832   9.090  0.5656 -2.5731  1.9416
  256MOL0     H34520   5.700   7.600   9.120 -0.4720 -0.6155  0.4511
  256MOL0     H34521   5.665   7.250   9.107 -0.2192  0.8373  1.3782
  256MOL0     H34522   5.718   7.298   8.955 -0.7629  0.1045  0.1356
  256MOL0     H34523   5.783   7.380   9.107  0.8423  2.2178 -0.9684
  256MOL0     H34524   5.217   7.061   9.021  1.6449 -4.3566  1.3608
  256MOL0     H34525   5.149   6.835   8.941  1.4940 -0.4553  1.0635
  256MOL0     H34526   5.122   6.590   8.806  0.5066  1.7065  2.3929
  256MOL0     H34527   5.016   6.711   8.838  0.3185  1.7525 -0.8277
  256MOL0     H34528   4.877   6.548   8.726  1.1164 -3.0937 -1.2597
  256MOL0     H34529   4.898   6.683   8.606  1.8910  1.4505 -0.9366
  256MOL0     H34530   5.077   6.525   8.498  1.4164 -3.7947  2.0596
  256MOL0     H34531   4.910   6.463   8.495 -2.2960 -0.8862  0.7020
  256MOL0     H34532   5.140   6.385   8.674  0.7400  2.0265 -2.5328
  256MOL0     H34533   4.979   6.357   8.718 -0.2445  1.1247  0.0428
  256MOL0     H34534   5.121   6.170   8.593  0.1550 -0.4333 -1.2612
  256MOL0     H34535   5.082   6.247   8.444  0.9808 -0.4335  0.6050
  256MOL0     H34536   4.909   6.144   8.655 -1.1086 -0.7008  0.2043
  256MOL0     H34537   4.837   6.204   8.509 -0.3962 -0.9012 -2.3150
  256MOL0     H34538   5.007   6.055   8.376  1.4618  1.5165  0.4835
  256MOL0     H34539   4.856   5.980   8.441  0.0439 -2.7705  1.3771
  256MOL0     H34540   4.992   5.933   8.674 -1.7853 -0.2060 -0.6903
  256MOL0     H34541   5.131   5.925   8.563 -0.2983 -0.6633 -2.7064
  256MOL0     H34542   5.230   6.953   8.538 -0.6730  0.9293  0.5031
  256MOL0     H34543   5.303   7.171   8.613  1.4170  0.9407  1.5969
  256MOL0     H34544   5.253   7.493   8.943 -0.2504  1.1065 -1.2794
  256MOL0     H34545   5.303   7.706   9.029 -0.1206  1.1389 -3.8974
  256MOL0     H34546   6.812   7.726   9.877  0.2703 -0.5657  0.6038
  256MOL0     H34547   6.954   7.717  10.089 -0.7582  0.7794  0.4433
  256MOL0     H34548   7.371   7.883  10.306  1.6807  0.0140 -1.0621
  256MOL0     H34549   7.495   7.861  10.521 -0.8505 -0.1413  2.8739
  256MOL0     H34550   7.594   7.437  10.619  1.3276 -0.8331  2.3741
  256MOL0     H34551   7.717   7.563  10.580  2.6915  1.1763  2.7263
  256MOL0     H34552   7.792   7.472  10.772 -0.5334 -1.6951  1.0487
  256MOL0     H34553   7.635   7.440  10.845  2.1154 -0.1053  2.7835
  256MOL0     H34554   7.764   7.623  10.973 -0.1816 -0.7785  0.6377
  256MOL0     H34555   7.623   7.687  10.897 -1.5642 -3.5858 -2.0115
  256MOL0     H34556   7.761   7.781  10.712  1.5254 -1.4986 -2.3521
  256MOL0     H34557   7.898   7.690  10.757 -3.2569 -4.4344 -1.1927
  256MOL0     H34558   7.939   8.006  11.041 -0.1886  0.3913  0.2251
  256MOL0     H34559   7.398   7.433  10.499  0.9122 -0.0117 -1.3555
  256MOL0     H34560   7.288   7.467  10.295 -0.0899 -0.3187 -0.1650
  257MOL0     O34561   8.937   6.033   3.910  0.0543  0.4299  0.2108
  257MOL0     C34562   8.935   6.099   4.014 -0.5318 -0.0189  0.2697
  257MOL0     O34563   8.839   6.181   4.065 -0.1313  0.1162 -0.2040
  257MOL0     C34564   8.728   6.189   3.988  0.3309 -0.3590  0.8943
  257MOL0     C34565   8.716   6.257   3.861  0.3236  1.1703  1.0149
  257MOL0     C34566   8.593   6.277   3.787 -0.0962  0.2535 -0.8099
  257MOL0     C34567   8.476   6.223   3.853  0.3143  0.4227  0.7641
  257MOL0     O34568   8.351   6.253   3.809  0.3828 -0.1980  0.6120
  257MOL0     C34569   8.285   6.145   3.747  0.1477 -0.0277 -0.5738
  257MOL0     C34570   8.133   6.159   3.759 -0.8417  0.0449 -0.3143
  257MOL0     C34571   8.096   6.290   3.702 -0.6137 -0.0038  0.3005
  257MOL0     C34572   7.945   6.302   3.712 -0.0727 -0.3087  0.2770
  257MOL0     C34573   7.883   6.417   3.634 -1.5419  0.4053  0.1484
  257MOL0     C34574   7.874   6.367   3.482 -0.3390  0.4822 -0.3127
  257MOL0     C34575   7.844   6.495   3.387  0.8048 -0.3979  0.7004
  257MOL0     C34576   7.695   6.536   3.397  0.2462  1.1285  0.5618
  257MOL0     N34577   7.655   6.636   3.490 -0.3757  0.2434  0.2548
  257MOL0     C34578   7.594   6.600   3.608 -0.5610 -0.0796 -0.5280
  257MOL0     C34579   7.562   6.718   3.673 -0.1769  0.2952 -0.0554
  257MOL0     C34580   7.477   6.736   3.797  0.1430  1.0096 -0.1165
  257MOL0     C34581   7.392   6.607   3.818 -0.6785 -0.8280  0.4621
  257MOL0     C34582   7.310   6.584   3.964 -0.5141  0.1337 -0.7289
  257MOL0     C34583   7.167   6.528   3.925  0.4707 -0.7479  0.0282
  257MOL0     O34584   7.074   6.527   4.035  0.4729  0.0487 -1.0256
  257MOL0     C34585   7.086   6.427   4.141 -1.1933 -0.5705 -0.0145
  257MOL0     C34586   7.027   6.457   4.255  0.3491  0.1595 -0.6644
  257MOL0     C34587   7.013   6.372   4.364 -0.3156 -0.1055  0.1345
  257MOL0     C34588   6.927   6.411   4.483 -0.6357  0.5766 -0.1680
  257MOL0     C34589   7.073   6.241   4.345  0.3809 -0.1084 -0.5528
  257MOL0     C34590   7.054   6.130   4.452 -0.0441  0.1340 -0.3732
  257MOL0     O34591   7.059   6.158   4.582 -0.7125 -0.1240  0.6063
  257MOL0     C34592   7.015   6.071   4.686  0.3054 -0.0624 -0.1265
  257MOL0     C34593   6.915   5.971   4.658  0.0819  0.4328  0.0419
  257MOL0     C34594   6.871   5.898   4.766  0.0131 -0.0895 -0.4309
  257MOL0     C34595   6.921   5.912   4.899 -0.4887 -0.7367 -0.6636
  257MOL0     O34596   6.875   5.842   5.011 -0.6421 -0.4392 -0.4999
  257MOL0     C34597   6.751   5.764   5.005  0.1061  0.5601  0.3474
  257MOL0     C34598   6.732   5.698   5.136  0.3860  0.6136 -0.2908
  257MOL0     C34599   6.596   5.643   5.177  0.9779  0.1110 -0.5502
  257MOL0     C34600   6.512   5.744   5.251  0.4794 -0.0225  0.6629
  257MOL0     C34601   6.385   5.685   5.316 -0.3937 -0.1296 -0.1318
  257MOL0     C34602   6.281   5.805   5.351  0.4614  0.1497  0.0048
  257MOL0     C34603   6.291   5.848   5.501 -0.7043  0.8054 -0.0213
  257MOL0     C34604   6.208   5.977   5.510  0.3532 -0.1102  1.4176
  257MOL0    Cl34605   6.197   6.003   5.689 -0.4085 -0.0321 -0.0737
  257MOL0     C34606   7.017   6.013   4.919 -0.4280  0.7697  0.0528
  257MOL0     C34607   7.066   6.090   4.812  0.4288 -0.0158  0.0720
  257MOL0     O34608   7.052   6.015   4.411  0.3803 -0.4520 -0.7073
  257MOL0     C34609   7.139   6.218   4.227  0.3115 -0.1190  0.3755
  257MOL0     C34610   7.156   6.313   4.127  0.3219  0.3042  0.0985
  257MOL0     N34611   7.610   6.817   3.592  1.2249 -0.2944 -0.4665
  257MOL0     N34612   7.683   6.768   3.499 -0.7207 -0.6736  0.7748
  257MOL0     C34613   8.484   6.153   3.970  0.0829  0.9615 -1.5399
  257MOL0     C34614   8.608   6.131   4.034 -0.3707  0.0736 -0.1670
  257MOL0     C34615   9.063   6.086   4.086  0.6497 -0.3875 -0.1157
  257MOL0     C34616   9.175   6.031   4.018 -0.6368 -0.7512 -0.2068
  257MOL0     C34617   9.293   6.033   4.088  0.0596  0.6357 -0.2272
  257MOL0     C34618   9.308   6.078   4.218 -0.3563 -0.6908 -0.4449
  257MOL0     O34619   9.425   6.069   4.285  0.1759 -0.5352 -0.1148
  257MOL0     C34620   9.525   6.170   4.242  0.6394  0.6700 -0.1991
  257MOL0     C34621   9.655   6.109   4.186 -1.0722 -0.3774  0.3656
  257MOL0     C34622   9.751   6.230   4.150  0.3535 -0.2017  0.3020
  257MOL0     C34623   9.892   6.192   4.104  0.1429  1.2672 -0.4081
  257MOL0     C34624   9.976   6.310   4.095  0.1169  0.3590  0.3751
  257MOL0     C34625  10.045   6.407   4.069  0.0219 -0.7523 -0.5004
  257MOL0     C34626   9.200   6.138   4.285 -1.5443 -0.7134  0.2446
  257MOL0     C34627   9.074   6.134   4.221 -0.7142 -0.4538  0.1969
  257MOL0     H34628   8.795   6.316   3.815  0.5047 -1.1470 -2.0405
  257MOL0     H34629   8.588   6.333   3.694 -0.8836 -0.3894 -1.1730
  257MOL0     H34630   8.303   6.142   3.639 -0.3127 -2.2239 -0.6394
  257MOL0     H34631   8.317   6.054   3.797  0.0333  1.9198  3.4005
  257MOL0     H34632   8.095   6.079   3.694  1.6606 -2.7825  1.4123
  257MOL0     H34633   8.085   6.149   3.857  0.8876 -4.3213  0.3360
  257MOL0     H34634   8.142   6.382   3.741  0.5180 -0.4048 -0.0270
  257MOL0     H34635   8.114   6.274   3.595 -1.0644 -2.5866  0.5601
  257MOL0     H34636   7.900   6.206   3.686 -1.5542  0.2265  0.7613
  257MOL0     H34637   7.927   6.316   3.819 -0.9321  0.3150  0.0665
  257MOL0     H34638   7.782   6.449   3.661 -2.0955  0.2756 -1.5832
  257MOL0     H34639   7.956   6.498   3.633  1.6558 -2.2044 -1.9570
  257MOL0     H34640   7.970   6.330   3.445 -0.1305 -0.9790  1.5296
  257MOL0     H34641   7.803   6.285   3.469  1.5632 -1.1471 -0.8205
  257MOL0     H34642   7.911   6.577   3.413 -2.0763  2.1178  0.7665
  257MOL0     H34643   7.861   6.475   3.281  0.5446  4.2856 -0.4324
  257MOL0     H34644   7.641   6.444   3.421  2.5862  0.2529  3.0477
  257MOL0     H34645   7.677   6.567   3.294  1.9428  1.3934  0.3266
  257MOL0     H34646   7.567   6.500   3.639  2.3587 -0.9449 -0.4627
  257MOL0     H34647   7.527   6.756   3.892 -3.0236  0.8969  1.7323
  257MOL0     H34648   7.417   6.824   3.771  1.3758  2.1143  0.6339
  257MOL0     H34649   7.464   6.529   3.792 -0.6333  0.2934 -3.4843
  257MOL0     H34650   7.324   6.608   3.731  0.9056 -4.0081 -0.9913
  257MOL0     H34651   7.310   6.686   4.003  1.2066 -0.2466  0.4110
  257MOL0     H34652   7.365   6.518   4.031 -0.0879 -0.3965 -1.5883
  257MOL0     H34653   7.177   6.427   3.884 -0.4325 -0.7942 -0.1047
  257MOL0     H34654   7.109   6.597   3.862  1.3709 -1.0935 -1.2292
  257MOL0     H34655   6.976   6.551   4.275 -1.0303 -0.9409  1.4159
  257MOL0     H34656   6.971   6.386   4.579 -0.1827  2.8773  0.2876
  257MOL0     H34657   6.906   6.519   4.483  1.1009  0.9436  0.5960
  257MOL0     H34658   6.835   6.352   4.488 -1.5021  1.9917  3.2104
  257MOL0     H34659   6.878   5.952   4.558 -3.3130 -0.3734  1.3189
  257MOL0     H34660   6.792   5.825   4.755 -1.9303  1.7477  0.6123
  257MOL0     H34661   6.659   5.824   4.996 -2.5329 -3.1897 -0.0444
  257MOL0     H34662   6.764   5.688   4.928  2.8975  1.1626  0.1309
  257MOL0     H34663   6.801   5.613   5.135 -0.3268 -0.0500  1.5271
  257MOL0     H34664   6.775   5.760   5.216  1.6228 -0.7579  0.1704
  257MOL0     H34665   6.597   5.557   5.244 -1.0947 -1.2051 -2.0929
  257MOL0     H34666   6.544   5.603   5.090  2.0976 -4.1337  0.5077
  257MOL0     H34667   6.575   5.796   5.324  2.0920 -1.9571  0.7337
  257MOL0     H34668   6.481   5.818   5.177 -3.2608 -1.0561  1.0017
  257MOL0     H34669   6.405   5.630   5.409  0.8961  0.4003 -0.0805
  257MOL0     H34670   6.344   5.614   5.244 -1.1659 -1.9279  1.9541
  257MOL0     H34671   6.278   5.888   5.279  0.2593 -1.9866 -2.6256
  257MOL0     H34672   6.181   5.768   5.328  0.9756 -0.8933 -0.6401
  257MOL0     H34673   6.395   5.876   5.517 -0.0734  2.1393 -4.7909
  257MOL0     H34674   6.247   5.776   5.571  0.1961 -1.6957 -1.8709
  257MOL0     H34675   6.114   5.974   5.454  0.2395  1.1712  1.5053
  257MOL0     H34676   6.263   6.060   5.464 -0.7621 -2.5881 -5.6903
  257MOL0     H34677   7.047   6.051   5.016 -0.3830 -1.8729  1.1641
  257MOL0     H34678   7.108   6.182   4.851  1.3371 -1.9638  4.1921
  257MOL0     H34679   7.186   6.125   4.197 -1.4901 -0.3025 -2.1188
  257MOL0     H34680   7.204   6.287   4.033  1.1406  2.4766 -0.1238
  257MOL0     H34681   8.395   6.120   4.022  3.3749 -5.4984  1.0679
  257MOL0     H34682   8.625   6.073   4.124  0.0428 -1.7128 -1.3489
  257MOL0     H34683   9.175   5.988   3.919  2.3340  0.9055 -1.0244
  257MOL0     H34684   9.386   5.993   4.048 -1.1187 -2.8354  0.2117
  257MOL0     H34685   9.479   6.233   4.165 -0.1021  0.0109 -0.3126
  257MOL0     H34686   9.545   6.230   4.331 -0.1390  3.2803 -1.6854
  257MOL0     H34687   9.617   6.049   4.102 -1.2802  0.6767 -0.3166
  257MOL0     H34688   9.711   6.048   4.257  1.5196 -1.6853 -2.5378
  257MOL0     H34689   9.745   6.305   4.229  1.2013 -1.1016  1.2537
  257MOL0     H34690   9.710   6.278   4.061  1.6112  0.0205 -0.1700
  257MOL0     H34691   9.878   6.136   4.011 -1.4032 -2.9311  2.0727
  257MOL0     H34692   9.925   6.129   4.188 -2.4264 -1.7972 -1.4936
  257MOL0     H34693  10.109   6.486   4.034  1.6042 -0.1651  3.2890
  257MOL0     H34694   9.213   6.188   4.380 -2.3041  2.1794 -1.0575
  257MOL0     H34695   8.995   6.178   4.281 -1.2497 -1.4476  0.2368
  258MOL0     O34696   2.635   0.901   1.352 -0.6366  0.2607 -0.0126
  258MOL0     C34697   2.569   1.003   1.362  0.2225 -0.0895 -0.6521
  258MOL0     O34698   2.597   1.130   1.322  0.3417 -0.2116  0.0468
  258MOL0     C34699   2.721   1.159   1.266 -0.0530 -1.0055 -0.4499
  258MOL0     C34700   2.765   1.085   1.147  0.0105 -0.4006  0.1229
  258MOL0     C34701   2.881   1.119   1.081 -0.4803  0.1634 -0.3991
  258MOL0     C34702   2.956   1.227   1.125  0.9265 -0.8502 -0.5665
  258MOL0     O34703   3.064   1.246   1.050  0.0150 -1.2728  0.5788
  258MOL0     C34704   3.120   1.384   1.055  0.9617 -0.4822  0.2113
  258MOL0     C34705   3.213   1.413   0.940  0.2226 -1.5008  0.9827
  258MOL0     C34706   3.300   1.539   0.982 -0.7886 -0.2173 -0.1713
  258MOL0     C34707   3.217   1.662   1.015  0.6731 -0.3691  0.4187
  258MOL0     C34708   3.298   1.780   0.974  0.4956 -0.2340 -0.0407
  258MOL0     C34709   3.205   1.899   0.962  0.2643 -0.1216 -0.0993
  258MOL0     C34710   3.280   2.030   0.964  0.5972 -0.5302  0.5715
  258MOL0     C34711   3.340   2.066   0.823  0.9057  0.4293  1.0951
  258MOL0     N34712   3.248   2.132   0.734  0.6721 -0.4160 -0.2995
  258MOL0     C34713   3.262   2.261   0.683 -0.5610  0.1346 -1.4464
  258MOL0     C34714   3.152   2.284   0.611 -0.2492  0.4148  0.6143
  258MOL0     C34715   3.123   2.411   0.543  1.3860  0.2775 -0.1431
  258MOL0     C34716   2.999   2.490   0.612 -1.2095  0.2363  0.0504
  258MOL0     C34717   2.874   2.427   0.562  0.2571 -0.4755 -0.2424
  258MOL0     C34718   2.756   2.493   0.616 -0.0773  0.3173  0.5246
  258MOL0     O34719   2.748   2.479   0.755 -0.3084 -0.5668 -0.2443
  258MOL0     C34720   2.648   2.537   0.810  0.4219  0.1520  0.3704
  258MOL0     C34721   2.635   2.681   0.820  0.1551 -0.6171  0.0249
  258MOL0     C34722   2.528   2.745   0.881  0.6334 -0.0216  0.3529
  258MOL0     C34723   2.518   2.897   0.870  1.0324  0.9556  0.3245
  258MOL0     C34724   2.444   2.665   0.956 -0.3554  0.4330  0.9046
  258MOL0     C34725   2.329   2.724   1.038  0.2442  0.2488  0.2079
  258MOL0     O34726   2.220   2.765   0.967  0.0873  0.6181 -0.1593
  258MOL0     C34727   2.117   2.830   1.031 -0.7692 -0.1606  0.0518
  258MOL0     C34728   2.068   2.811   1.162 -0.4778  0.1714 -0.3571
  258MOL0     C34729   1.960   2.869   1.214 -0.3621  0.6638 -0.2624
  258MOL0     C34730   1.886   2.971   1.152 -0.7209 -0.5614 -0.0792
  258MOL0     O34731   1.781   3.029   1.213  1.1315  0.2692  0.0857
  258MOL0     C34732   1.678   3.080   1.132  0.3479 -1.0600 -1.1894
  258MOL0     C34733   1.563   3.144   1.222  0.4457 -0.3760 -0.7329
  258MOL0     C34734   1.618   3.257   1.315  1.2336 -0.8761 -0.0388
  258MOL0     C34735   1.498   3.349   1.363  0.0415  0.0061 -0.7539
  258MOL0     C34736   1.540   3.478   1.444  0.1777 -0.5648  0.3634
  258MOL0     C34737   1.636   3.446   1.556  0.3110  0.0925 -0.6982
  258MOL0     C34738   1.572   3.340   1.658  0.0528 -0.4992  0.1598
  258MOL0     C34739   1.663   3.330   1.788  0.2634  0.0773  0.0286
  258MOL0    Cl34740   1.812   3.214   1.761 -0.2780 -0.0998 -0.2120
  258MOL0     C34741   1.932   3.003   1.022  0.0665  0.7063 -0.4824
  258MOL0     C34742   2.044   2.934   0.965 -0.6514 -0.6386 -1.4586
  258MOL0     O34743   2.339   2.735   1.163 -0.2272  0.0057  0.2795
  258MOL0     C34744   2.464   2.527   0.960  0.7596 -0.4660  0.1462
  258MOL0     C34745   2.562   2.463   0.885  0.3191  0.5090 -0.2325
  258MOL0     N34746   3.069   2.174   0.630  0.5552 -0.1569  0.4241
  258MOL0     N34747   3.129   2.074   0.693 -0.8370 -0.6968 -0.3414
  258MOL0     C34748   2.917   1.301   1.237  0.7116 -0.8611 -0.5861
  258MOL0     C34749   2.794   1.266   1.298 -0.5162  0.2578  0.6076
  258MOL0     C34750   2.436   0.977   1.434 -0.3637 -0.5825  0.0800
  258MOL0     C34751   2.352   1.084   1.461 -0.2273 -0.4296 -0.4604
  258MOL0     C34752   2.247   1.066   1.554 -0.4453 -0.0413  0.2201
  258MOL0     C34753   2.203   0.936   1.587 -0.0709 -0.1519 -0.5575
  258MOL0     O34754   2.088   0.939   1.662 -0.0014 -0.0358 -1.0889
  258MOL0     C34755   2.061   0.809   1.723 -0.0006 -0.1200 -0.1190
  258MOL0     C34756   1.923   0.813   1.789  0.2953 -0.5425 -1.1051
  258MOL0     C34757   1.939   0.904   1.915  0.5852 -0.4038 -0.1259
  258MOL0     C34758   1.813   0.950   1.986  0.5367  0.6225  0.1181
  258MOL0     C34759   1.738   1.039   1.894 -0.1846  0.7000 -0.9590
  258MOL0     C34760   1.659   1.102   1.829 -0.4698 -0.0974  0.3770
  258MOL0     C34761   2.280   0.831   1.540  0.4487 -0.2796 -0.0876
  258MOL0     C34762   2.386   0.846   1.453 -0.2729  0.6470 -0.6885
  258MOL0     H34763   2.701   1.006   1.110  1.7169 -2.4990  1.4147
  258MOL0     H34764   2.911   1.065   0.993  1.6669  0.3510  0.1781
  258MOL0     H34765   3.038   1.456   1.063  0.8929 -0.6373  0.9684
  258MOL0     H34766   3.174   1.400   1.148  0.7021  2.3561 -0.0277
  258MOL0     H34767   3.268   1.322   0.916 -3.1550 -3.4078 -0.1598
  258MOL0     H34768   3.152   1.438   0.853  2.3563  0.9900  0.0647
  258MOL0     H34769   3.355   1.511   1.072 -0.7892  1.1526  0.2658
  258MOL0     H34770   3.365   1.552   0.895  0.1951 -1.7517  0.2776
  258MOL0     H34771   3.129   1.650   0.951  2.1296 -0.9457 -1.5615
  258MOL0     H34772   3.184   1.674   1.118  0.1766  0.8634  0.1319
  258MOL0     H34773   3.385   1.788   1.040  1.9722  0.2049 -1.9478
  258MOL0     H34774   3.340   1.767   0.873  0.0327  1.4974 -0.4874
  258MOL0     H34775   3.137   1.902   0.876  1.0319 -0.0483 -0.7088
  258MOL0     H34776   3.139   1.904   1.049  3.2142  3.5392  2.2147
  258MOL0     H34777   3.217   2.114   0.995 -0.0626 -0.9169  0.2927
  258MOL0     H34778   3.352   2.021   1.045 -1.5204 -0.6648  2.5541
  258MOL0     H34779   3.377   1.977   0.771 -1.1908 -0.5610  1.2178
  258MOL0     H34780   3.417   2.139   0.850  0.5752  1.3609 -0.4017
  258MOL0     H34781   3.341   2.334   0.694 -0.6478  0.1077 -0.5853
  258MOL0     H34782   3.216   2.466   0.560  2.6297 -2.0980  1.1675
  258MOL0     H34783   3.119   2.395   0.435  7.1726  0.7487 -0.7254
  258MOL0     H34784   2.996   2.596   0.582 -1.8322  0.6209  1.3728
  258MOL0     H34785   3.002   2.483   0.721 -1.3290  1.4928  0.1593
  258MOL0     H34786   2.874   2.323   0.597  3.6628 -0.7910 -0.8207
  258MOL0     H34787   2.867   2.438   0.454  2.1670 -0.2639 -0.3930
  258MOL0     H34788   2.681   2.436   0.561  3.0695 -1.6686 -2.1364
  258MOL0     H34789   2.748   2.599   0.591 -0.2598  0.5502  1.5480
  258MOL0     H34790   2.719   2.735   0.777  0.0318  0.3083  0.8895
  258MOL0     H34791   2.555   2.917   0.769  2.3310  1.5725  0.9006
  258MOL0     H34792   2.418   2.935   0.891  1.8790  3.0786  0.7920
  258MOL0     H34793   2.580   2.941   0.949 -1.0135  4.2243  0.2644
  258MOL0     H34794   2.122   2.733   1.215  1.3878  2.5113  1.4095
  258MOL0     H34795   1.923   2.842   1.313 -1.1732  0.8110 -0.5190
  258MOL0     H34796   1.723   3.157   1.070  2.5499  0.4957  2.0701
  258MOL0     H34797   1.641   3.006   1.061 -2.0465 -0.1524 -1.0102
  258MOL0     H34798   1.493   3.195   1.154 -0.5452  0.3643  0.7950
  258MOL0     H34799   1.500   3.074   1.277  0.5805  0.0711 -0.0037
  258MOL0     H34800   1.683   3.328   1.264  1.0735 -1.3800 -0.9609
  258MOL0     H34801   1.677   3.216   1.398  3.9459 -3.4854 -2.9581
  258MOL0     H34802   1.434   3.380   1.281 -0.8452  1.0849  0.3159
  258MOL0     H34803   1.437   3.294   1.436 -2.5295  2.3749 -0.9639
  258MOL0     H34804   1.449   3.527   1.480  0.5275  0.5476 -0.2327
  258MOL0     H34805   1.597   3.542   1.377  3.5356 -2.5825  1.0697
  258MOL0     H34806   1.732   3.404   1.524  1.0353  1.5841 -0.5241
  258MOL0     H34807   1.654   3.536   1.615  1.9284  0.0926 -1.1299
  258MOL0     H34808   1.566   3.237   1.622  0.8578 -0.6241  0.3561
  258MOL0     H34809   1.472   3.380   1.679  1.0660  0.7493  3.1035
  258MOL0     H34810   1.602   3.295   1.872  0.0974  2.8627  1.1714
  258MOL0     H34811   1.693   3.432   1.811  0.3435  0.0373  0.1036
  258MOL0     H34812   1.880   3.082   0.969 -3.1461 -0.7343  0.3330
  258MOL0     H34813   2.070   2.959   0.863  3.4718  2.8399  0.1474
  258MOL0     H34814   2.407   2.460   1.024  2.1708 -2.7738 -0.8789
  258MOL0     H34815   2.571   2.355   0.890  4.0344  0.7495  2.4562
  258MOL0     H34816   2.966   1.393   1.267  2.6218 -1.3492 -1.9921
  258MOL0     H34817   2.747   1.323   1.377  0.1543 -1.3576  2.2379
  258MOL0     H34818   2.360   1.190   1.435 -4.3286  0.3187  0.5317
  258MOL0     H34819   2.177   1.144   1.581  0.0984 -0.1585  2.1161
  258MOL0     H34820   2.065   0.725   1.654 -1.8229 -0.9871  0.7562
  258MOL0     H34821   2.134   0.779   1.798 -4.7965 -1.9199  4.4658
  258MOL0     H34822   1.899   0.712   1.824 -1.9209  0.9970  2.3864
  258MOL0     H34823   1.843   0.842   1.721 -1.3266 -1.0555  0.4941
  258MOL0     H34824   1.991   0.994   1.881 -0.5320 -0.1677 -1.3187
  258MOL0     H34825   2.001   0.848   1.985 -0.4815 -2.0906 -0.4697
  258MOL0     H34826   1.842   1.006   2.075  1.5381 -0.0142  0.2123
  258MOL0     H34827   1.754   0.861   2.006 -1.3920  1.6156 -0.9209
  258MOL0     H34828   1.589   1.140   1.758  1.2598 -0.4143 -1.6105
  258MOL0     H34829   2.252   0.731   1.574 -2.8332  0.6214  0.1973
  258MOL0     H34830   2.443   0.760   1.419 -0.0144  0.5483 -0.0136
  259MOL0     O34831   3.841   3.952  10.182 -0.0858  0.1680 -0.7365
  259MOL0     C34832   3.720   3.941  10.179  0.8280  0.4625  0.3217
  259MOL0     O34833   3.647   3.838  10.236  0.0322  0.3474  0.0207
  259MOL0     C34834   3.736   3.739  10.270 -0.4653 -0.0594  0.1434
  259MOL0     C34835   3.809   3.737  10.394 -0.3827 -0.5430  0.3696
  259MOL0     C34836   3.891   3.627  10.422 -0.9363 -0.2414 -0.8476
  259MOL0     C34837   3.934   3.551  10.319  0.1656  0.4170 -0.2557
  259MOL0     O34838   4.030   3.454  10.337 -0.2662  0.0216  0.4061
  259MOL0     C34839   4.127   3.466  10.443  0.8082 -0.1595  0.1159
  259MOL0     C34840   4.091   3.381  10.563  0.2287  0.0176  0.1929
  259MOL0     C34841   4.099   3.231  10.531 -0.9513  0.2524 -0.6267
  259MOL0     C34842   4.247   3.187  10.570  0.4693  0.6218 -0.1655
  259MOL0     C34843   4.274   3.040  10.556 -0.8997  0.0506 -0.2153
  259MOL0     C34844   4.209   2.967  10.679  0.1374 -0.5402 -1.0565
  259MOL0     C34845   4.162   2.819  10.667  0.1253  0.7529 -0.7266
  259MOL0     C34846   4.124   2.772  10.529 -0.6094  0.3517  1.2326
  259MOL0     N34847   4.048   2.646  10.526 -0.0306 -0.2983 -0.1933
  259MOL0     C34848   3.910   2.646  10.542  0.7682 -0.8720  0.4416
  259MOL0     C34849   3.875   2.518  10.549  0.3727 -0.4384  0.9964
  259MOL0     C34850   3.737   2.467  10.595  0.4010  0.1590 -0.0450
  259MOL0     C34851   3.747   2.392  10.730  0.5555  1.0077 -0.1364
  259MOL0     C34852   3.616   2.387  10.798  0.2939  0.6900 -0.9454
  259MOL0     C34853   3.523   2.275  10.730 -0.1783 -0.0706  0.7041
  259MOL0     O34854   3.463   2.193  10.832 -1.2481  0.2198  0.1088
  259MOL0     C34855   3.531   2.098  10.900  0.5110  0.0576  0.2781
  259MOL0     C34856   3.463   2.015  10.988  0.0062 -0.2752  0.5244
  259MOL0     C34857   3.522   1.914  11.061 -0.2707 -0.3887  0.5255
  259MOL0     C34858   3.437   1.857  11.166 -0.0786  0.4378  0.0804
  259MOL0     C34859   3.660   1.889  11.060 -0.3319  0.2691  0.6125
  259MOL0     C34860   3.722   1.778  11.128 -0.0432 -0.4027 -0.4461
  259MOL0     O34861   3.790   1.695  11.037  0.4320  0.6066  0.2193
  259MOL0     C34862   3.794   1.563  11.082  0.4380  0.1646  0.2054
  259MOL0     C34863   3.694   1.476  11.028 -1.1351  0.2488 -1.3410
  259MOL0     C34864   3.700   1.336  11.059 -0.6328  0.1406 -1.1585
  259MOL0     C34865   3.802   1.281  11.141 -0.1517  0.3962  0.5716
  259MOL0     O34866   3.811   1.143  11.155  0.3224 -0.5112 -0.0287
  259MOL0     C34867   3.892   1.097  11.269 -0.0929 -0.4252  0.5727
  259MOL0     C34868   3.896   0.949  11.276 -0.6703 -0.1349  0.0550
  259MOL0     C34869   3.923   0.884  11.142 -0.1204 -0.3307 -0.1858
  259MOL0     C34870   3.894   0.738  11.154  0.6060  0.6359 -1.0382
  259MOL0     C34871   3.911   0.656  11.013  0.0919  0.6872  0.0659
  259MOL0     C34872   3.902   0.500  11.027  0.2435  0.1949  0.4618
  259MOL0     C34873   3.758   0.465  11.071 -0.0386 -0.7975  0.4243
  259MOL0     C34874   3.712   0.352  10.972  0.0919 -0.0494  0.0064
  259MOL0    Cl34875   3.801   0.193  10.979  0.4244 -0.0395 -0.0983
  259MOL0     C34876   3.905   1.377  11.178  0.2653  0.6654  0.6813
  259MOL0     C34877   3.898   1.513  11.156 -0.1204 -0.0888  0.0632
  259MOL0     O34878   3.714   1.761  11.250 -0.0587 -0.0767 -0.4570
  259MOL0     C34879   3.743   1.979  10.980  0.8401 -1.0028  0.6596
  259MOL0     C34880   3.674   2.076  10.900 -0.0264  0.2548 -0.0988
  259MOL0     N34881   3.993   2.446  10.532  0.1483 -0.4638 -0.9802
  259MOL0     N34882   4.092   2.519  10.538 -0.0969 -0.1438 -0.5354
  259MOL0     C34883   3.866   3.546  10.195  0.9907  0.8130 -0.3386
  259MOL0     C34884   3.764   3.642  10.174 -0.8056  0.0955  0.6877
  259MOL0     C34885   3.640   4.044  10.116 -0.2826  0.2955 -0.6135
  259MOL0     C34886   3.529   4.005  10.039 -0.2149  0.2929  0.0185
  259MOL0     C34887   3.452   4.094   9.971 -0.2294 -0.6169 -0.2205
  259MOL0     C34888   3.492   4.231   9.973 -0.0675  0.3837  0.7348
  259MOL0     O34889   3.416   4.336   9.919 -0.1215  0.8625 -0.1470
  259MOL0     C34890   3.278   4.315   9.875  0.3300 -0.1924  0.7801
  259MOL0     C34891   3.290   4.280   9.730  0.9442  1.3614  0.4316
  259MOL0     C34892   3.153   4.287   9.660 -0.2519 -0.9071 -0.0562
  259MOL0     C34893   3.126   4.154   9.576  0.2929  0.7642 -0.8258
  259MOL0     C34894   3.139   4.034   9.663 -0.5223  0.2995  0.5538
  259MOL0     C34895   3.147   3.925   9.719 -0.5258  0.7229  0.0656
  259MOL0     C34896   3.605   4.266  10.032  0.0243 -0.0646  0.0811
  259MOL0     C34897   3.681   4.177  10.117  0.7426 -0.3345 -0.0097
  259MOL0     H34898   3.784   3.809  10.472  0.1394  1.9755 -1.6592
  259MOL0     H34899   3.935   3.624  10.522 -2.1791  1.2975 -0.1965
  259MOL0     H34900   4.223   3.429  10.406  2.0999  3.5012 -0.6179
  259MOL0     H34901   4.136   3.568  10.482  3.9509  1.1262 -3.3492
  259MOL0     H34902   4.158   3.411  10.643  0.1743 -0.8836  0.5896
  259MOL0     H34903   3.989   3.403  10.596  1.0884  0.3464  2.8794
  259MOL0     H34904   4.022   3.178  10.588 -2.2171  0.3034 -2.2306
  259MOL0     H34905   4.086   3.208  10.425 -0.1336  0.1249 -0.7105
  259MOL0     H34906   4.321   3.250  10.521  0.9522  1.4680  1.5828
  259MOL0     H34907   4.268   3.213  10.674  2.6894 -0.4505 -0.2868
  259MOL0     H34908   4.239   3.001  10.460  2.0583 -1.8843 -0.6372
  259MOL0     H34909   4.382   3.023  10.553 -1.2695 -3.0354  0.6855
  259MOL0     H34910   4.287   2.978  10.754  3.0776 -2.0054 -3.6363
  259MOL0     H34911   4.119   3.021  10.711  0.9833 -0.1321  0.7111
  259MOL0     H34912   4.254   2.763  10.686 -0.9839 -0.9755 -0.3281
  259MOL0     H34913   4.093   2.789  10.746  1.4803  2.4685  1.2289
  259MOL0     H34914   4.218   2.755  10.475 -1.4715 -0.0721 -0.1769
  259MOL0     H34915   4.065   2.846  10.475 -0.8115 -1.6648 -1.5714
  259MOL0     H34916   3.851   2.736  10.553  0.0060 -0.6651 -3.6997
  259MOL0     H34917   3.677   2.557  10.612 -0.9637 -1.0986  2.4296
  259MOL0     H34918   3.711   2.396  10.517  0.9708 -2.5769  2.0917
  259MOL0     H34919   3.821   2.446  10.790  1.6340  4.0124 -3.8075
  259MOL0     H34920   3.789   2.292  10.719  0.0570  0.6865  0.7684
  259MOL0     H34921   3.555   2.478  10.797 -2.3646 -0.9652  0.0168
  259MOL0     H34922   3.626   2.354  10.902  0.1501  1.4316 -0.6894
  259MOL0     H34923   3.589   2.215  10.666  0.9770  1.5645  0.3054
  259MOL0     H34924   3.449   2.321  10.663  2.7746 -0.9445 -3.6507
  259MOL0     H34925   3.359   2.048  10.994  0.4331  0.8547  3.2041
  259MOL0     H34926   3.487   1.855  11.263  1.9252  0.7403 -0.8961
  259MOL0     H34927   3.336   1.897  11.162 -0.9849 -1.7590 -1.9507
  259MOL0     H34928   3.433   1.749  11.148  0.0980  0.2774  0.9574
  259MOL0     H34929   3.611   1.521  10.976 -3.4776 -0.1728  1.7356
  259MOL0     H34930   3.626   1.260  11.038  3.7795 -5.0303 -0.3790
  259MOL0     H34931   3.989   1.149  11.266 -1.8653  3.1607 -1.1073
  259MOL0     H34932   3.842   1.121  11.363  0.0477 -0.7169  0.7232
  259MOL0     H34933   3.962   0.925  11.360 -1.4060  0.1645  0.7334
  259MOL0     H34934   3.795   0.916  11.302 -1.1419  2.0234  1.2507
  259MOL0     H34935   4.024   0.897  11.104  0.0886 -0.3159  0.3652
  259MOL0     H34936   3.854   0.924  11.067  1.9283  0.6239 -1.6630
  259MOL0     H34937   3.947   0.683  11.233 -0.5568  0.9082 -0.0398
  259MOL0     H34938   3.793   0.721  11.192  1.7900  0.0349  2.2033
  259MOL0     H34939   4.008   0.686  10.973  0.5180  1.3247  1.4781
  259MOL0     H34940   3.833   0.690  10.945 -1.0942  0.7591  1.4238
  259MOL0     H34941   3.924   0.461  10.927 -2.6217 -3.4844  1.0635
  259MOL0     H34942   3.969   0.457  11.102 -0.3748 -0.5685  0.5786
  259MOL0     H34943   3.691   0.551  11.064  1.4864  0.7502  3.1652
  259MOL0     H34944   3.760   0.447  11.178  0.0653 -2.1370  0.2140
  259MOL0     H34945   3.711   0.382  10.867 -3.5248 -2.7406 -0.9701
  259MOL0     H34946   3.608   0.330  11.000  0.2593 -0.3841  0.3758
  259MOL0     H34947   3.998   1.339  11.220  0.4400  2.4708  2.0770
  259MOL0     H34948   3.976   1.579  11.193 -0.1761  0.1224 -0.1879
  259MOL0     H34949   3.849   1.958  10.973  1.5756  2.2147  0.4414
  259MOL0     H34950   3.738   2.128  10.828  3.1169 -1.9962  0.8456
  259MOL0     H34951   3.907   3.481  10.118  0.7692 -2.1138  1.8488
  259MOL0     H34952   3.706   3.651  10.083  2.5340  2.5428 -1.4234
  259MOL0     H34953   3.504   3.900  10.034  2.1524 -0.5168  2.6027
  259MOL0     H34954   3.363   4.057   9.922  1.2702 -3.4385 -1.0464
  259MOL0     H34955   3.228   4.229   9.919  2.8871 -1.8124  0.6920
  259MOL0     H34956   3.222   4.408   9.894 -1.3420 -0.9272 -0.3466
  259MOL0     H34957   3.342   4.185   9.711  0.3851  0.7069  1.9886
  259MOL0     H34958   3.342   4.364   9.684 -0.7078  1.8103 -0.6732
  259MOL0     H34959   3.151   4.377   9.597 -1.4722  0.9733  2.4659
  259MOL0     H34960   3.071   4.285   9.733 -0.7392 -2.3496 -0.6174
  259MOL0     H34961   3.206   4.144   9.502  2.2619  3.7982  0.6600
  259MOL0     H34962   3.026   4.166   9.534 -1.8078  0.7312  3.6184
  259MOL0     H34963   3.180   3.829   9.754 -2.6218  0.0119  0.2091
  259MOL0     H34964   3.646   4.365  10.022 -2.0078  0.7178 -1.3547
  259MOL0     H34965   3.762   4.218  10.175  0.4254 -1.4225  1.2596
  260MOL0     O34966   8.490   7.989   0.219 -0.3472  0.1634  0.2661
  260MOL0     C34967   8.379   7.942   0.188  0.1582  0.1677  0.9996
  260MOL0     O34968   8.336   7.817   0.213 -0.6534  0.8824 -0.8751
  260MOL0     C34969   8.410   7.739   0.296  0.9581  0.0807  0.0934
  260MOL0     C34970   8.526   7.677   0.251  0.9862  1.4135 -0.5989
  260MOL0     C34971   8.591   7.587   0.336  0.3905  0.1264  0.0569
  260MOL0     C34972   8.551   7.565   0.464  0.6750  0.6212  0.5115
  260MOL0     O34973   8.606   7.462   0.541  0.4830  0.6009 -0.0798
  260MOL0     C34974   8.753   7.474   0.572  0.6295  0.7926 -0.1466
  260MOL0     C34975   8.811   7.392   0.687 -0.4021  0.6943  0.6803
  260MOL0     C34976   8.843   7.249   0.640 -0.3001  0.2495  0.5295
  260MOL0     C34977   8.929   7.179   0.753  0.0238  0.0200  0.0514
  260MOL0     C34978   8.989   7.040   0.728 -0.2446  0.5904 -0.4820
  260MOL0     C34979   9.143   7.032   0.740 -1.3065  0.0379  0.0430
  260MOL0     C34980   9.227   7.126   0.639  0.3675  0.6153 -0.1638
  260MOL0     C34981   9.191   7.088   0.495  0.5194 -0.4743  0.8509
  260MOL0     N34982   9.191   6.940   0.473  0.9194  0.0881 -0.1771
  260MOL0     C34983   9.290   6.854   0.499  0.1017 -0.6933  0.5036
  260MOL0     C34984   9.254   6.737   0.446  0.8365 -0.2733  0.6324
  260MOL0     C34985   9.315   6.600   0.454 -0.3291  0.0145  0.5799
  260MOL0     C34986   9.371   6.558   0.313  0.1318  0.6845  0.4593
  260MOL0     C34987   9.474   6.451   0.315  0.8092  0.2616 -1.0669
  260MOL0     C34988   9.525   6.408   0.178  0.8553 -0.2430 -0.4182
  260MOL0     O34989   9.429   6.332   0.102  0.2940 -0.2975  0.3249
  260MOL0     C34990   9.475   6.263  -0.008 -0.1815 -0.2329 -0.2997
  260MOL0     C34991   9.606   6.265  -0.058 -0.5602 -0.9780 -0.3140
  260MOL0     C34992   9.642   6.196  -0.176  0.5763  0.1815  0.0122
  260MOL0     C34993   9.778   6.198  -0.228 -0.0986 -0.1743  0.5672
  260MOL0     C34994   9.540   6.117  -0.239  0.5465  0.1474 -1.2549
  260MOL0     C34995   9.571   6.028  -0.351 -0.9169 -0.8169  1.1343
  260MOL0     O34996   9.626   6.093  -0.462 -0.4940  0.1396  0.3426
  260MOL0     C34997   9.686   6.017  -0.560 -0.4849 -0.3731  0.8067
  260MOL0     C34998   9.698   6.075  -0.690 -0.0951 -0.2455 -0.9273
  260MOL0     C34999   9.757   6.009  -0.797  0.3291 -0.0905 -0.2021
  260MOL0     C35000   9.812   5.883  -0.783  1.0787 -0.3177  0.5134
  260MOL0     O35001   9.872   5.824  -0.898 -0.0819  0.0329 -0.9074
  260MOL0     C35002   9.808   5.699  -0.918  0.6803 -0.8182  0.3742
  260MOL0     C35003   9.915   5.587  -0.933  0.3882  0.1103  0.2453
  260MOL0     C35004   9.836   5.457  -0.933  0.1597  0.1613 -0.6866
  260MOL0     C35005   9.933   5.341  -0.884 -0.3775 -0.5027 -0.2440
  260MOL0     C35006   9.898   5.198  -0.927 -0.1790 -0.3700 -0.1861
  260MOL0     C35007  10.016   5.095  -0.935  0.7456  0.3094  0.3624
  260MOL0     C35008   9.963   4.946  -0.961  0.8289 -0.9651 -0.0973
  260MOL0     C35009  10.058   4.857  -1.032 -0.9235  0.5495  0.6457
  260MOL0    Cl35010  10.002   4.688  -1.086 -0.0229  0.2066 -0.4785
  260MOL0     C35011   9.809   5.825  -0.655  0.1867 -0.5426  0.4394
  260MOL0     C35012   9.741   5.894  -0.554  0.5113  0.9778  0.4993
  260MOL0     O35013   9.541   5.917  -0.348 -0.4418  0.1532 -0.6633
  260MOL0     C35014   9.414   6.110  -0.186  0.9627 -0.0956 -0.5899
  260MOL0     C35015   9.380   6.182  -0.067 -1.3022 -0.1573  0.2887
  260MOL0     N35016   9.135   6.760   0.380 -0.5460 -0.3212  0.3610
  260MOL0     N35017   9.094   6.881   0.400  0.1065  0.2110  0.5929
  260MOL0     C35018   8.429   7.621   0.503 -0.4941 -0.0884 -0.1912
  260MOL0     C35019   8.364   7.713   0.417 -0.3729  0.0627  0.4901
  260MOL0     C35020   8.282   8.040   0.132 -0.2718  0.5336 -0.2109
  260MOL0     C35021   8.167   7.987   0.059  0.2259  0.0113 -0.3040
  260MOL0     C35022   8.075   8.073   0.017 -0.5134 -0.2615 -0.0240
  260MOL0     C35023   8.077   8.210   0.045 -0.0887 -0.7195 -0.4652
  260MOL0     O35024   7.973   8.284   0.008  0.0296 -0.2698 -0.0945
  260MOL0     C35025   7.899   8.259  -0.118  0.1687  0.9446 -0.9773
  260MOL0     C35026   7.883   8.387  -0.201 -0.3292  0.7683 -0.0977
  260MOL0     C35027   8.009   8.448  -0.227  0.1465 -0.7342  1.7635
  260MOL0     C35028   8.125   8.368  -0.287 -0.4109  0.9088  0.2561
  260MOL0     C35029   8.096   8.293  -0.409  0.3781 -0.3959  0.9545
  260MOL0     C35030   8.074   8.248  -0.520  0.5554 -0.4848  0.9372
  260MOL0     C35031   8.191   8.271   0.113 -0.1884  1.0879 -0.5239
  260MOL0     C35032   8.297   8.181   0.144  0.6399 -0.0304  0.1051
  260MOL0     H35033   8.537   7.663   0.144  0.3194 -1.7487 -0.3683
  260MOL0     H35034   8.676   7.537   0.289  0.8135 -1.2099  2.0915
  260MOL0     H35035   8.807   7.441   0.483 -0.2466  1.6215 -1.0179
  260MOL0     H35036   8.778   7.581   0.579 -1.4194  1.3382 -0.3746
  260MOL0     H35037   8.903   7.443   0.719 -0.0876  1.1155 -0.8388
  260MOL0     H35038   8.747   7.399   0.775  1.1141 -1.2058  2.0368
  260MOL0     H35039   8.755   7.189   0.618 -0.7948  0.6376  1.4297
  260MOL0     H35040   8.903   7.255   0.548 -2.7754  0.1956 -1.1777
  260MOL0     H35041   9.006   7.254   0.774 -2.3304  2.6601 -0.2208
  260MOL0     H35042   8.859   7.165   0.836 -1.2067 -0.2299 -1.0046
  260MOL0     H35043   8.953   6.969   0.803 -0.4664 -2.7107 -3.4343
  260MOL0     H35044   8.952   7.009   0.629 -0.3256  1.4361 -0.7205
  260MOL0     H35045   9.163   7.048   0.846 -2.3418 -0.3944  0.3130
  260MOL0     H35046   9.162   6.928   0.713 -1.5332  0.4018 -1.6375
  260MOL0     H35047   9.202   7.229   0.666 -0.6144  0.6109 -0.9982
  260MOL0     H35048   9.333   7.118   0.665  0.2551  1.6045  0.6755
  260MOL0     H35049   9.258   7.128   0.418 -1.0644  1.0465  0.2123
  260MOL0     H35050   9.086   7.114   0.485  1.1269  1.3763 -1.6031
  260MOL0     H35051   9.385   6.880   0.545 -0.1441  1.7300 -0.2132
  260MOL0     H35052   9.398   6.603   0.525  0.7643 -1.1031 -0.6243
  260MOL0     H35053   9.238   6.544   0.508  1.1631 -0.5815  2.1554
  260MOL0     H35054   9.418   6.642   0.260 -0.2396  0.9928  0.6121
  260MOL0     H35055   9.291   6.510   0.257  1.0905 -2.4722  1.5523
  260MOL0     H35056   9.427   6.362   0.358 -1.6164  2.3232  0.8534
  260MOL0     H35057   9.559   6.494   0.367 -0.7669  2.3440 -0.0669
  260MOL0     H35058   9.616   6.348   0.188  0.0459 -1.2336  1.3557
  260MOL0     H35059   9.561   6.500   0.129 -2.5878  0.5366 -1.7521
  260MOL0     H35060   9.679   6.335  -0.018 -4.3443  2.2994  1.4989
  260MOL0     H35061   9.854   6.259  -0.178  0.0196  1.4066 -1.3870
  260MOL0     H35062   9.807   6.093  -0.239  0.9804  0.3279 -2.6520
  260MOL0     H35063   9.782   6.243  -0.328 -0.8231  3.6508  2.0842
  260MOL0     H35064   9.654   6.171  -0.718  1.8149  0.0253 -3.3173
  260MOL0     H35065   9.761   6.067  -0.889 -1.0512  0.8940  0.3273
  260MOL0     H35066   9.753   5.670  -0.829  0.1795 -0.3659  0.2179
  260MOL0     H35067   9.757   5.716  -1.014 -1.6436 -3.7359  0.9766
  260MOL0     H35068   9.969   5.596  -1.028  2.7349  1.7841  1.6343
  260MOL0     H35069   9.982   5.579  -0.847  0.1341 -0.6123  0.3875
  260MOL0     H35070   9.804   5.425  -1.033 -3.2923 -0.2809  0.4437
  260MOL0     H35071   9.744   5.464  -0.874 -0.5183  1.2601 -1.8154
  260MOL0     H35072  10.034   5.347  -0.926 -0.4581 -2.1198 -0.7130
  260MOL0     H35073   9.943   5.345  -0.775 -1.9144  1.7083 -0.1177
  260MOL0     H35074   9.856   5.185  -1.027  1.8861 -5.2253 -0.7174
  260MOL0     H35075   9.823   5.153  -0.861 -4.5339 -0.3756 -4.5700
  260MOL0     H35076  10.076   5.118  -1.024 -1.9334  1.4640 -1.2773
  260MOL0     H35077  10.074   5.099  -0.843  2.5745 -2.8469 -0.5162
  260MOL0     H35078   9.869   4.942  -1.016  0.4306  0.7193  0.4189
  260MOL0     H35079   9.938   4.914  -0.859 -0.8183  1.0525  0.1944
  260MOL0     H35080  10.147   4.835  -0.972 -0.5039  2.0573  0.6358
  260MOL0     H35081  10.096   4.919  -1.114  1.3856 -2.1232 -0.4680
  260MOL0     H35082   9.858   5.729  -0.637  0.2389 -0.7456 -0.6949
  260MOL0     H35083   9.739   5.843  -0.458  0.7500  0.9362  0.4821
  260MOL0     H35084   9.335   6.054  -0.235 -2.3289  1.5913  2.3422
  260MOL0     H35085   9.280   6.194  -0.028 -1.3035 -2.2359  1.0823
  260MOL0     H35086   8.389   7.605   0.602 -2.1605  3.8232 -0.0531
  260MOL0     H35087   8.273   7.759   0.456 -0.3931  1.9367 -1.6193
  260MOL0     H35088   8.161   7.878   0.054 -0.9678  0.0185  0.5530
  260MOL0     H35089   7.980   8.043  -0.028  0.6260 -0.6802 -2.2885
  260MOL0     H35090   7.943   8.177  -0.174 -0.4402 -0.8201  1.0083
  260MOL0     H35091   7.802   8.218  -0.089  1.6956  0.3566  4.4104
  260MOL0     H35092   7.821   8.454  -0.140  1.0915  2.3891 -0.3308
  260MOL0     H35093   7.843   8.352  -0.296  1.5241 -0.7194 -0.3960
  260MOL0     H35094   8.053   8.493  -0.136  2.2742 -0.7575  0.8184
  260MOL0     H35095   7.991   8.519  -0.308  3.4477 -0.0983  1.4120
  260MOL0     H35096   8.177   8.293  -0.226  0.5938 -0.3140 -1.9860
  260MOL0     H35097   8.202   8.442  -0.307  3.7106 -2.8771  0.4192
  260MOL0     H35098   8.065   8.196  -0.613  0.3598  1.8146 -0.4005
  260MOL0     H35099   8.194   8.374   0.147 -0.0969  0.8717  0.1433
  260MOL0     H35100   8.389   8.217   0.190 -0.1314  0.4516  1.3292
  261MOL0     O35101   9.409   6.497   4.302  0.0062 -0.7371  0.1505
  261MOL0     C35102   9.460   6.503   4.186 -0.1842 -0.0495 -0.1166
  261MOL0     O35103   9.580   6.556   4.152 -1.2001  0.0642  0.0108
  261MOL0     C35104   9.661   6.631   4.238 -0.3394  1.2742  0.1452
  261MOL0     C35105   9.792   6.653   4.193 -1.2767  0.2696  0.2438
  261MOL0     C35106   9.873   6.763   4.235  0.2386  0.8348  0.2098
  261MOL0     C35107   9.819   6.847   4.335 -0.4656  0.4646 -0.7390
  261MOL0     O35108   9.882   6.964   4.385 -0.2948 -0.0724 -0.5585
  261MOL0     C35109   9.940   7.048   4.289  0.6111  0.3163  0.8197
  261MOL0     C35110   9.822   7.140   4.238  0.1068 -0.2243  0.2139
  261MOL0     C35111   9.739   7.214   4.348 -0.8557 -0.7881 -0.0205
  261MOL0     C35112   9.632   7.282   4.274 -0.3050  0.6766  0.3099
  261MOL0     C35113   9.511   7.313   4.362  0.2732 -0.3008  0.0367
  261MOL0     C35114   9.375   7.311   4.280  0.1965  0.2413 -0.6388
  261MOL0     C35115   9.244   7.305   4.361  0.7267  0.1575 -0.1981
  261MOL0     C35116   9.125   7.322   4.267 -1.0606  0.2418 -0.2313
  261MOL0     N35117   9.011   7.327   4.353  0.4456 -0.1261 -0.4968
  261MOL0     C35118   8.985   7.266   4.476  0.4488  0.3959 -0.1598
  261MOL0     C35119   8.862   7.303   4.520  0.3616  0.3714  0.0291
  261MOL0     C35120   8.789   7.276   4.654 -0.2860  1.3755 -0.3350
  261MOL0     C35121   8.779   7.122   4.681 -0.2304  0.6454  0.4233
  261MOL0     C35122   8.736   7.067   4.820  0.6911  0.3919  0.7077
  261MOL0     C35123   8.822   7.102   4.938 -0.5771 -0.2994  0.1960
  261MOL0     O35124   8.957   7.086   4.901 -0.2602 -0.2983 -0.1639
  261MOL0     C35125   9.050   7.083   5.001  0.2011 -0.3202  0.3202
  261MOL0     C35126   9.054   7.172   5.112 -0.6124  0.7205 -0.3694
  261MOL0     C35127   9.162   7.182   5.198  0.9922 -0.0749  0.1961
  261MOL0     C35128   9.155   7.263   5.323  0.3528  0.7047  0.2736
  261MOL0     C35129   9.275   7.096   5.180 -0.1850 -0.5225 -0.5622
  261MOL0     C35130   9.404   7.110   5.250  0.5780  0.5016 -0.5645
  261MOL0     O35131   9.500   7.028   5.214 -0.8718  0.4566 -0.3782
  261MOL0     C35132   9.629   7.037   5.267  0.0446  1.0432  0.6021
  261MOL0     C35133   9.736   7.013   5.185  0.3641  0.4529 -0.3547
  261MOL0     C35134   9.868   6.990   5.223  0.1159 -0.0336 -0.9967
  261MOL0     C35135   9.899   7.011   5.353 -0.2171  0.3894 -0.3869
  261MOL0     O35136  10.023   7.003   5.391  0.0579 -0.0106 -0.8130
  261MOL0     C35137  10.106   7.111   5.353 -0.5918 -0.0897 -0.4462
  261MOL0     C35138  10.091   7.218   5.462  0.1932 -0.5815  0.3773
  261MOL0     C35139  10.126   7.166   5.598  0.2867  0.0866  0.3983
  261MOL0     C35140  10.105   7.267   5.709  0.4927 -0.4746  0.1439
  261MOL0     C35141  10.158   7.216   5.838 -0.7956 -0.4437  0.3945
  261MOL0     C35142  10.089   7.290   5.952  0.3074  0.0157  0.1168
  261MOL0     C35143  10.122   7.227   6.096  0.6963 -0.1357  1.0727
  261MOL0     C35144  10.063   7.093   6.108 -0.6849  0.0473 -0.0803
  261MOL0    Cl35145   9.886   7.090   6.081  0.3505  0.2918 -0.1147
  261MOL0     C35146   9.799   7.037   5.451  0.1876  0.1803  0.0148
  261MOL0     C35147   9.663   7.054   5.403 -0.6581  0.7398  0.4917
  261MOL0     O35148   9.430   7.197   5.328 -0.4291 -0.0991  0.2170
  261MOL0     C35149   9.263   7.001   5.080  0.0608  0.1934 -0.5550
  261MOL0     C35150   9.158   6.996   4.991 -0.4433  0.2037 -0.2393
  261MOL0     N35151   8.809   7.371   4.415 -0.0067  0.9249  0.3909
  261MOL0     N35152   8.897   7.383   4.311 -0.2014  0.0659 -0.4092
  261MOL0     C35153   9.696   6.812   4.402 -0.5834  0.5890  0.5161
  261MOL0     C35154   9.619   6.705   4.351  0.1135  0.2926 -0.0118
  261MOL0     C35155   9.368   6.457   4.075  0.6623  0.3826  0.2759
  261MOL0     C35156   9.401   6.440   3.937 -0.1206 -0.5955  0.5170
  261MOL0     C35157   9.307   6.405   3.838  0.1233 -0.3547  0.6048
  261MOL0     C35158   9.169   6.416   3.861  0.5829 -0.8038 -0.0918
  261MOL0     O35159   9.063   6.402   3.771  0.1047  0.1210  0.1615
  261MOL0     C35160   9.089   6.348   3.642  0.1215  0.3061  0.4106
  261MOL0     C35161   8.959   6.279   3.609 -0.2158 -0.2314  0.4775
  261MOL0     C35162   8.967   6.207   3.465 -0.1347  0.0735 -0.4257
  261MOL0     C35163   8.998   6.295   3.347  0.1798 -0.9764  0.5701
  261MOL0     C35164   8.902   6.405   3.319  0.5340  0.3177  1.2736
  261MOL0     C35165   8.818   6.497   3.317  0.0241 -0.1120 -0.4303
  261MOL0     C35166   9.134   6.432   3.992  0.0419  0.0152 -0.0767
  261MOL0     C35167   9.227   6.442   4.095 -0.4093 -0.1988 -0.6822
  261MOL0     H35168   9.829   6.580   4.120 -0.2930 -1.7832  2.6439
  261MOL0     H35169   9.974   6.775   4.197  0.2665 -0.2881 -0.1337
  261MOL0     H35170  10.011   7.117   4.336  0.7623  0.5415  0.2707
  261MOL0     H35171   9.981   6.993   4.203 -0.0829  3.8368 -2.0282
  261MOL0     H35172   9.864   7.227   4.187 -1.1091  1.7042  2.2945
  261MOL0     H35173   9.766   7.072   4.174  1.8453 -2.7394  1.1986
  261MOL0     H35174   9.711   7.141   4.425  0.4724 -0.2373  1.0444
  261MOL0     H35175   9.786   7.295   4.405  1.1723 -0.3930 -2.0881
  261MOL0     H35176   9.675   7.376   4.238  0.6549  0.5151  1.0247
  261MOL0     H35177   9.587   7.222   4.194 -3.4305  3.1198  0.0281
  261MOL0     H35178   9.495   7.231   4.432  1.4666 -1.9609 -1.5093
  261MOL0     H35179   9.531   7.408   4.411 -0.3159 -1.4511  2.6555
  261MOL0     H35180   9.377   7.397   4.213 -0.7173  1.2354  0.5779
  261MOL0     H35181   9.372   7.226   4.210  2.0987 -3.4489  3.2959
  261MOL0     H35182   9.243   7.206   4.408 -0.0586  1.6594  3.3252
  261MOL0     H35183   9.237   7.389   4.431 -2.7599  0.1849 -0.4140
  261MOL0     H35184   9.117   7.257   4.179 -3.1202  0.5481 -0.3329
  261MOL0     H35185   9.142   7.417   4.215  4.7277 -2.9058 -5.4306
  261MOL0     H35186   9.059   7.219   4.539  2.0510 -0.7404 -2.7034
  261MOL0     H35187   8.851   7.319   4.734  1.4171  0.4933 -1.1074
  261MOL0     H35188   8.688   7.316   4.649 -0.4609  0.8516 -1.1433
  261MOL0     H35189   8.877   7.077   4.665 -0.1885  0.7289  0.4477
  261MOL0     H35190   8.714   7.069   4.610  1.0126 -0.6176  0.1917
  261MOL0     H35191   8.747   6.959   4.813  0.6025  0.4796 -1.3107
  261MOL0     H35192   8.634   7.098   4.846  0.0416 -1.6459  0.7472
  261MOL0     H35193   8.796   7.051   5.031 -0.7036  1.3602  1.1059
  261MOL0     H35194   8.810   7.209   4.959  2.0700 -0.3511  2.7008
  261MOL0     H35195   8.975   7.246   5.110 -2.1015 -0.5724 -5.6808
  261MOL0     H35196   9.226   7.347   5.331 -2.1478  2.9774 -0.0035
  261MOL0     H35197   9.059   7.308   5.348  0.4151  1.9326 -1.4724
  261MOL0     H35198   9.182   7.196   5.404  2.4682 -1.6606 -2.1727
  261MOL0     H35199   9.717   7.011   5.078 -2.2064  0.0296  0.0324
  261MOL0     H35200   9.944   6.967   5.149 -2.0401 -2.3846 -2.6470
  261MOL0     H35201  10.213   7.086   5.351 -0.4300  0.5226  0.1917
  261MOL0     H35202  10.083   7.148   5.252 -0.6910  2.4081  0.4045
  261MOL0     H35203  10.158   7.302   5.442  1.2565 -1.8657 -1.6485
  261MOL0     H35204   9.986   7.251   5.464  0.6302  1.2371  4.5491
  261MOL0     H35205  10.226   7.123   5.605 -0.5519 -1.6638  2.8862
  261MOL0     H35206  10.052   7.091   5.626  0.1232  0.2431  0.3897
  261MOL0     H35207  10.167   7.351   5.677  4.1735 -2.3732  1.7184
  261MOL0     H35208  10.010   7.320   5.718  1.7948  1.6404  2.4530
  261MOL0     H35209  10.264   7.234   5.856 -0.9110 -1.5186  2.4416
  261MOL0     H35210  10.126   7.111   5.834 -0.0812 -0.6293 -1.7759
  261MOL0     H35211  10.121   7.394   5.946  0.0618  0.2788  2.4228
  261MOL0     H35212   9.980   7.293   5.943  0.1710 -0.9006  1.1805
  261MOL0     H35213  10.067   7.282   6.174 -0.2021 -3.6745  3.1723
  261MOL0     H35214  10.226   7.231   6.127  0.8607  4.9458  0.7291
  261MOL0     H35215  10.081   7.070   6.213 -3.2588 -1.2346  0.1676
  261MOL0     H35216  10.110   7.021   6.040 -2.9193 -1.4049 -0.1693
  261MOL0     H35217   9.825   7.052   5.556 -1.8726  2.6826  0.2560
  261MOL0     H35218   9.585   7.062   5.478 -0.5474 -0.9033  0.8127
  261MOL0     H35219   9.348   6.935   5.070  1.5217  2.0189 -0.8167
  261MOL0     H35220   9.170   6.923   4.911 -2.2050  0.0177 -0.3785
  261MOL0     H35221   9.680   6.871   4.492 -1.5733  1.0764  0.0286
  261MOL0     H35222   9.522   6.690   4.398 -1.7555 -0.1105 -3.5998
  261MOL0     H35223   9.502   6.469   3.911 -0.6392  1.2900  0.4436
  261MOL0     H35224   9.334   6.398   3.733 -1.6663 -2.0395  0.2064
  261MOL0     H35225   9.121   6.425   3.571 -2.1657  0.8680 -0.0878
  261MOL0     H35226   9.166   6.271   3.653  0.6280  1.0584  2.6961
  261MOL0     H35227   8.883   6.357   3.618  0.0870  0.0328  0.7681
  261MOL0     H35228   8.922   6.206   3.682  3.1937 -0.0704  2.6126
  261MOL0     H35229   8.877   6.148   3.445  0.2197  0.4834 -3.8085
  261MOL0     H35230   9.045   6.130   3.467 -1.5491 -1.3833  0.6657
  261MOL0     H35231   9.009   6.232   3.259  1.1265  1.0380 -0.8421
  261MOL0     H35232   9.098   6.339   3.358 -0.5737  0.8556  0.4645
  261MOL0     H35233   8.749   6.579   3.317  0.4540  0.2535 -1.0394
  261MOL0     H35234   9.031   6.435   4.026  0.2347  0.9634  0.4540
  261MOL0     H35235   9.183   6.461   4.193  3.7687 -1.7912  1.7748
  262MOL0     O35236   9.873   1.890   0.356  0.0277  0.1546 -0.5778
  262MOL0     C35237   9.956   1.802   0.354 -0.6913 -0.8776  0.4706
  262MOL0     O35238  10.080   1.818   0.298  0.3816  0.0584  0.5495
  262MOL0     C35239  10.108   1.926   0.230 -0.1246  0.0058 -0.3354
  262MOL0     C35240  10.162   2.041   0.282  0.5586 -0.0528  0.6476
  262MOL0     C35241  10.171   2.156   0.205  0.4155 -0.1179  1.0085
  262MOL0     C35242  10.122   2.160   0.072  0.0604 -0.5473 -0.0370
  262MOL0     O35243  10.145   2.277   0.007  0.7011  0.0809  0.1724
  262MOL0     C35244  10.151   2.278  -0.132 -0.1598  0.3611 -0.0652
  262MOL0     C35245  10.165   2.421  -0.178 -0.8430  0.6985  0.3468
  262MOL0     C35246  10.310   2.458  -0.148  0.1648 -0.0175 -0.2447
  262MOL0     C35247  10.338   2.594  -0.214  0.5358  0.0375 -0.3654
  262MOL0     C35248  10.359   2.599  -0.366  0.4638 -0.8577  0.6794
  262MOL0     C35249  10.398   2.739  -0.403 -0.0423  0.1387 -0.3153
  262MOL0     C35250  10.422   2.748  -0.544 -0.3081 -0.2186 -0.2518
  262MOL0     C35251  10.365   2.860  -0.622  0.2677 -0.6938 -0.0943
  262MOL0     N35252  10.422   2.863  -0.762  0.8168 -0.5686 -0.6975
  262MOL0     C35253  10.518   2.954  -0.811 -0.0908  1.4675  0.5204
  262MOL0     C35254  10.539   2.915  -0.940 -0.3394  0.9337 -0.4790
  262MOL0     C35255  10.636   2.991  -1.040  0.0794  0.9164  0.4099
  262MOL0     C35256  10.767   2.917  -1.056  0.9825  0.4427 -0.3198
  262MOL0     C35257  10.870   2.958  -1.156  0.1442 -0.1121  0.1109
  262MOL0     C35258  10.837   2.935  -1.299  0.6320  0.3890  0.4288
  262MOL0     O35259  10.743   3.035  -1.337 -0.3798  0.0200 -0.8935
  262MOL0     C35260  10.676   3.015  -1.455 -0.6774 -0.1791 -0.4395
  262MOL0     C35261  10.714   2.922  -1.559 -0.5867 -0.5053  0.6164
  262MOL0     C35262  10.649   2.919  -1.683 -0.4379  0.3407 -0.3237
  262MOL0     C35263  10.687   2.814  -1.785 -0.8085 -0.3849  0.6426
  262MOL0     C35264  10.533   3.007  -1.700  0.6554  0.8473 -0.3013
  262MOL0     C35265  10.448   2.996  -1.819  0.0825 -0.3177 -0.6863
  262MOL0     O35266  10.317   2.994  -1.788  0.7504 -0.1822  0.8357
  262MOL0     C35267  10.235   3.000  -1.895 -0.2066 -0.6348 -0.1901
  262MOL0     C35268  10.164   2.883  -1.926  0.8344  0.1216 -0.1596
  262MOL0     C35269  10.062   2.873  -2.027  0.1732  0.2898  0.6469
  262MOL0     C35270  10.025   2.991  -2.100  1.4100  0.3397  0.6212
  262MOL0     O35271   9.934   2.998  -2.200  0.7882  0.1864  0.1430
  262MOL0     C35272   9.903   2.873  -2.259  0.3974  0.2330 -0.1652
  262MOL0     C35273   9.786   2.884  -2.370 -0.4700  0.2345  0.0473
  262MOL0     C35274   9.756   2.750  -2.434 -0.3462  0.2960 -0.8471
  262MOL0     C35275   9.650   2.738  -2.534  0.4873  0.0558  1.0522
  262MOL0     C35276   9.692   2.800  -2.665 -0.1652 -0.6923 -0.0773
  262MOL0     C35277   9.629   2.941  -2.696 -1.2388 -0.1960  0.2933
  262MOL0     C35278   9.680   2.983  -2.844  0.0090 -0.1358 -0.1013
  262MOL0     C35279   9.603   3.097  -2.905 -0.1556 -0.1445 -0.0652
  262MOL0    Cl35280   9.596   3.237  -2.805  0.3619  0.1857  0.4914
  262MOL0     C35281  10.094   3.110  -2.072 -0.6570  0.0552 -0.3454
  262MOL0     C35282  10.203   3.112  -1.981  0.0478 -0.3012  0.4354
  262MOL0     O35283  10.494   2.981  -1.937 -0.7435 -0.9468  0.4757
  262MOL0     C35284  10.496   3.092  -1.601  0.5550  0.0765 -0.0354
  262MOL0     C35285  10.560   3.088  -1.482  0.2603  0.1676  0.1626
  262MOL0     N35286  10.479   2.793  -0.962  0.7026  0.7149  0.6291
  262MOL0     N35287  10.403   2.770  -0.856  0.5800  0.4025  1.1719
  262MOL0     C35288  10.062   2.047   0.026  0.0098 -0.3540  0.3350
  262MOL0     C35289  10.053   1.930   0.095 -0.2674 -0.0871 -0.2567
  262MOL0     C35290   9.937   1.672   0.420 -0.3860  0.8129 -1.0212
  262MOL0     C35291   9.831   1.658   0.513 -0.7824 -0.1878 -0.5077
  262MOL0     C35292   9.828   1.534   0.591 -1.0637  0.4883  0.1309
  262MOL0     C35293   9.905   1.429   0.567 -1.2643  0.8416  0.2001
  262MOL0     O35294   9.883   1.313   0.636 -0.5584 -0.7967  0.1293
  262MOL0     C35295   9.986   1.214   0.625  0.0482 -1.1161 -0.3461
  262MOL0     C35296   9.963   1.099   0.535  0.0498 -0.0539 -0.3333
  262MOL0     C35297   9.855   0.996   0.585 -0.7130 -0.4797 -0.2412
  262MOL0     C35298   9.922   0.878   0.632 -0.1516  0.9579  0.5440
  262MOL0     C35299   9.985   0.897   0.758  1.3157 -0.8146 -0.0328
  262MOL0     C35300  10.040   0.912   0.869  0.4272 -1.0704  0.1272
  262MOL0     C35301   9.997   1.438   0.456  0.3588  0.0875 -0.2650
  262MOL0     C35302  10.013   1.557   0.390 -0.0384  0.3962  0.4507
  262MOL0     H35303  10.195   2.044   0.386 -0.9601 -3.1841  1.3223
  262MOL0     H35304  10.215   2.250   0.236  0.3884 -0.7775  3.1742
  262MOL0     H35305  10.239   2.224  -0.169  0.8074  1.0487  1.1540
  262MOL0     H35306  10.064   2.228  -0.175  0.5756 -2.6840  1.7498
  262MOL0     H35307  10.136   2.411  -0.283  1.4608 -0.4506 -0.2475
  262MOL0     H35308  10.097   2.493  -0.131 -2.2105  0.0578 -0.5750
  262MOL0     H35309  10.324   2.474  -0.040 -2.7646  0.6959  0.1193
  262MOL0     H35310  10.371   2.375  -0.184 -1.0668 -1.3041  0.5175
  262MOL0     H35311  10.259   2.660  -0.178  1.4103  0.4978  0.7785
  262MOL0     H35312  10.431   2.636  -0.175 -0.3483  0.9733  0.7940
  262MOL0     H35313  10.442   2.535  -0.395  0.5083 -1.5526  2.2556
  262MOL0     H35314  10.272   2.563  -0.422  0.9315  1.4062 -1.7042
  262MOL0     H35315  10.327   2.820  -0.381  2.2687  2.2302 -0.1648
  262MOL0     H35316  10.491   2.776  -0.360  1.6844 -0.5133 -3.2728
  262MOL0     H35317  10.530   2.745  -0.561 -0.6340  0.5665 -3.0511
  262MOL0     H35318  10.377   2.662  -0.593  0.6566 -1.3459  0.7719
  262MOL0     H35319  10.366   2.959  -0.576  2.1002 -1.8430  2.5916
  262MOL0     H35320  10.259   2.842  -0.642  0.2593  1.0419 -1.9563
  262MOL0     H35321  10.546   3.039  -0.750  0.0421  2.1030 -0.3988
  262MOL0     H35322  10.581   2.999  -1.135 -0.2514  5.2708  0.7715
  262MOL0     H35323  10.650   3.095  -1.008  1.4482  1.0228 -0.4691
  262MOL0     H35324  10.742   2.812  -1.069  2.8219 -0.3172  1.6195
  262MOL0     H35325  10.812   2.911  -0.956  0.4569 -0.2099 -0.1168
  262MOL0     H35326  10.962   2.901  -1.139  0.3075  0.6043  1.8511
  262MOL0     H35327  10.889   3.064  -1.140 -1.0721 -0.2429  2.8253
  262MOL0     H35328  10.795   2.835  -1.314 -0.1647  0.3938  2.3999
  262MOL0     H35329  10.924   2.936  -1.365  1.2702 -1.4339  1.1945
  262MOL0     H35330  10.804   2.862  -1.549  0.1154  0.0172 -1.7856
  262MOL0     H35331  10.599   2.755  -1.810  0.1009 -0.3601 -3.3733
  262MOL0     H35332  10.724   2.864  -1.875 -0.0226 -0.0739  1.1255
  262MOL0     H35333  10.765   2.740  -1.766 -0.3679 -0.2658 -0.5611
  262MOL0     H35334  10.191   2.786  -1.886 -1.6835  0.3420  2.4521
  262MOL0     H35335  10.016   2.776  -2.041  0.2211  0.3906 -0.3018
  262MOL0     H35336   9.997   2.845  -2.308  1.1723 -1.1600  1.9741
  262MOL0     H35337   9.876   2.803  -2.180  3.7481  0.4973  1.4124
  262MOL0     H35338   9.695   2.920  -2.321 -0.0232  1.5216 -0.0285
  262MOL0     H35339   9.829   2.960  -2.436  0.2164 -2.0385 -2.2905
  262MOL0     H35340   9.725   2.693  -2.346  0.5614 -0.7106 -1.1557
  262MOL0     H35341   9.851   2.709  -2.469  0.6788  0.5713  1.4194
  262MOL0     H35342   9.626   2.632  -2.552 -1.1462  0.8522 -2.0974
  262MOL0     H35343   9.558   2.791  -2.506 -1.3302  0.5759 -4.6763
  262MOL0     H35344   9.670   2.724  -2.741 -0.9131 -0.9638  0.4025
  262MOL0     H35345   9.800   2.803  -2.685 -0.6765 -1.0852 -3.7052
  262MOL0     H35346   9.520   2.943  -2.694 -1.2949 -1.9548  1.9996
  262MOL0     H35347   9.668   3.016  -2.626 -2.2836 -0.5344  1.2676
  262MOL0     H35348   9.652   2.899  -2.908 -3.5384  2.1657 -1.9054
  262MOL0     H35349   9.786   3.010  -2.834  0.6327 -1.4970 -2.4815
  262MOL0     H35350   9.500   3.065  -2.924  1.3495 -6.0253 -0.3525
  262MOL0     H35351   9.631   3.108  -3.010  0.4301 -2.8143 -0.2557
  262MOL0     H35352  10.055   3.200  -2.118  1.9866  2.2717  1.4278
  262MOL0     H35353  10.264   3.200  -1.964 -0.1676 -0.4922  2.4748
  262MOL0     H35354  10.409   3.157  -1.611  0.3191 -0.0932  0.8965
  262MOL0     H35355  10.548   3.154  -1.396  2.7450  1.0094 -0.0477
  262MOL0     H35356  10.011   2.048  -0.070 -0.9265 -3.3884  0.6991
  262MOL0     H35357   9.999   1.844   0.059  0.0826  0.6589 -2.7440
  262MOL0     H35358   9.746   1.725   0.512 -0.5337  0.1392 -1.9478
  262MOL0     H35359   9.750   1.538   0.667 -1.9604  4.0301 -0.7931
  262MOL0     H35360  10.084   1.261   0.609 -1.5317  4.0966  2.6297
  262MOL0     H35361  10.002   1.174   0.726  0.9608 -0.4914 -0.2292
  262MOL0     H35362  10.054   1.052   0.498 -1.4813 -3.0011 -0.6737
  262MOL0     H35363   9.915   1.129   0.441 -1.5478 -1.1530  0.0858
  262MOL0     H35364   9.801   0.968   0.494 -3.6083  0.9753  0.8986
  262MOL0     H35365   9.790   1.046   0.657 -0.1200  1.1950 -0.8341
  262MOL0     H35366   9.993   0.845   0.557 -1.6658 -0.4668 -0.3453
  262MOL0     H35367   9.850   0.797   0.650 -0.9628  0.7152 -3.1608
  262MOL0     H35368  10.083   0.944   0.961 -1.5986  2.3660  0.0747
  262MOL0     H35369  10.040   1.351   0.409 -3.0256 -0.8995 -1.8274
  262MOL0     H35370  10.071   1.564   0.299  1.1443 -0.5027  1.1140
  263MOL0     O35371   3.086   6.212   4.467 -0.5914  0.1152  0.5917
  263MOL0     C35372   3.152   6.115   4.503  0.1518  0.1433  0.0643
  263MOL0     O35373   3.223   6.105   4.622 -0.9994  0.4101 -0.0904
  263MOL0     C35374   3.206   6.198   4.719  0.3295  0.8071  0.3707
  263MOL0     C35375   3.110   6.298   4.728  0.0737 -0.1825  0.0694
  263MOL0     C35376   3.101   6.386   4.835  0.6051 -0.1497  0.4517
  263MOL0     C35377   3.193   6.383   4.938  0.6853 -0.8877 -0.2925
  263MOL0     O35378   3.191   6.449   5.066  0.4108  0.3829  0.8471
  263MOL0     C35379   3.110   6.564   5.076 -1.0355  0.0111 -0.2673
  263MOL0     C35380   3.163   6.649   5.188  0.9644  0.1518  0.3123
  263MOL0     C35381   3.291   6.713   5.135 -0.7916 -0.6104  1.0144
  263MOL0     C35382   3.397   6.711   5.246 -0.6822  0.6351 -1.1933
  263MOL0     C35383   3.534   6.726   5.199 -0.0860 -0.7549 -0.6412
  263MOL0     C35384   3.576   6.596   5.130 -0.4231 -1.1748  0.0662
  263MOL0     C35385   3.698   6.614   5.042 -0.0585 -0.4346  0.6948
  263MOL0     C35386   3.714   6.495   4.944 -0.4325  0.7732  0.4436
  263MOL0     N35387   3.830   6.533   4.861 -1.1155  0.0220  0.4677
  263MOL0     C35388   3.813   6.589   4.739  0.4342 -0.0474  0.6391
  263MOL0     C35389   3.934   6.659   4.725 -0.0828 -0.6358 -0.1792
  263MOL0     C35390   3.957   6.758   4.609 -0.4184  0.2936 -0.7734
  263MOL0     C35391   4.071   6.726   4.512  0.4998 -0.1571 -0.4751
  263MOL0     C35392   4.029   6.725   4.364  0.9865 -0.2185 -0.1130
  263MOL0     C35393   4.046   6.867   4.293  0.5749  0.7725  0.3038
  263MOL0     O35394   4.174   6.913   4.271  0.0511 -0.0494 -1.5027
  263MOL0     C35395   4.198   7.001   4.174 -0.8503 -0.1458 -0.0354
  263MOL0     C35396   4.094   7.081   4.119  0.0786 -0.4333 -0.3728
  263MOL0     C35397   4.119   7.176   4.019  0.0706  0.5851  0.7323
  263MOL0     C35398   4.014   7.281   3.984  0.7928 -0.7278 -0.1091
  263MOL0     C35399   4.243   7.176   3.947  0.3503 -0.3236  0.1782
  263MOL0     C35400   4.264   7.274   3.829 -0.6258 -0.3604  0.0620
  263MOL0     O35401   4.401   7.307   3.826 -0.1847 -0.7592 -0.4259
  263MOL0     C35402   4.435   7.413   3.740  0.7496  0.0840  0.2065
  263MOL0     C35403   4.381   7.449   3.616  0.1966 -0.6329  0.3315
  263MOL0     C35404   4.450   7.540   3.533 -0.2406  0.5549 -0.1087
  263MOL0     C35405   4.547   7.620   3.590 -1.4529 -0.4305 -0.1595
  263MOL0     O35406   4.591   7.729   3.525  0.2320  0.0138 -1.4387
  263MOL0     C35407   4.641   7.841   3.607 -0.2801  0.0682  1.2188
  263MOL0     C35408   4.645   7.963   3.525 -0.3938 -0.3985  0.0976
  263MOL0     C35409   4.661   8.094   3.609 -0.4207  0.0817 -0.3908
  263MOL0     C35410   4.532   8.139   3.677  0.1811 -0.5035  0.6318
  263MOL0     C35411   4.545   8.275   3.737  0.3308 -0.2784  0.4609
  263MOL0     C35412   4.396   8.309   3.753 -0.4502  0.4000  0.2892
  263MOL0     C35413   4.370   8.444   3.815  0.1540 -0.6899 -0.7875
  263MOL0     C35414   4.222   8.480   3.822  0.5723 -0.4547  0.8360
  263MOL0    Cl35415   4.217   8.651   3.902  0.2041  0.1479 -0.2023
  263MOL0     C35416   4.605   7.587   3.718 -0.1533 -0.0085  0.3188
  263MOL0     C35417   4.543   7.487   3.792  0.5168  0.5164 -0.1546
  263MOL0     O35418   4.183   7.300   3.743 -0.0359  0.8546 -0.2936
  263MOL0     C35419   4.350   7.094   4.002  0.1524 -0.1479  0.4328
  263MOL0     C35420   4.330   7.016   4.120 -0.0828 -0.1948  0.3541
  263MOL0     N35421   4.021   6.638   4.831  0.1930 -0.3545  0.3520
  263MOL0     N35422   3.951   6.578   4.915  0.6516  0.9300  0.6697
  263MOL0     C35423   3.299   6.286   4.929 -0.3573  1.2479 -0.0390
  263MOL0     C35424   3.306   6.197   4.815 -0.3191 -0.6335 -0.2043
  263MOL0     C35425   3.146   5.996   4.410 -0.5457 -0.9375  0.0013
  263MOL0     C35426   3.125   6.000   4.270 -0.0858 -0.5405  0.0060
  263MOL0     C35427   3.139   5.886   4.195  0.4879  0.2037 -0.8943
  263MOL0     C35428   3.186   5.766   4.257 -0.5698  1.0845  0.5720
  263MOL0     O35429   3.206   5.657   4.175 -0.8479  0.3594  0.1031
  263MOL0     C35430   3.155   5.533   4.230  0.2788  0.2977  0.6273
  263MOL0     C35431   3.161   5.419   4.120  0.3323 -0.0442  0.2847
  263MOL0     C35432   3.289   5.402   4.040 -0.9583  0.1008  0.5499
  263MOL0     C35433   3.293   5.281   3.945  0.7007  0.3469  0.5105
  263MOL0     C35434   3.408   5.193   3.976 -0.4135  0.9272 -0.0107
  263MOL0     C35435   3.495   5.113   4.005  0.2596 -0.8412  0.5880
  263MOL0     C35436   3.193   5.757   4.397  0.1600  0.8623 -0.0699
  263MOL0     C35437   3.183   5.876   4.467  0.3931  0.0076 -0.3079
  263MOL0     H35438   3.028   6.300   4.657  0.5898  0.5236 -0.5145
  263MOL0     H35439   3.008   6.441   4.851 -0.3450 -1.1141 -1.3615
  263MOL0     H35440   3.120   6.628   4.988 -1.2193 -2.7997 -2.4892
  263MOL0     H35441   3.004   6.536   5.086 -0.9304  0.2447  2.1382
  263MOL0     H35442   3.088   6.726   5.211 -2.2740 -2.7985  0.4219
  263MOL0     H35443   3.173   6.594   5.282 -1.2903  1.8799  1.6871
  263MOL0     H35444   3.332   6.667   5.045 -0.6096 -2.3163  1.9259
  263MOL0     H35445   3.266   6.819   5.119 -3.2037 -1.4928 -1.8233
  263MOL0     H35446   3.374   6.776   5.331 -2.0706  1.6085 -2.2587
  263MOL0     H35447   3.395   6.612   5.292 -1.9062 -0.1400 -2.8162
  263MOL0     H35448   3.555   6.814   5.139  2.4911  2.2596  4.0832
  263MOL0     H35449   3.588   6.733   5.294  3.4781  0.4449 -2.5986
  263MOL0     H35450   3.602   6.524   5.208 -2.3748 -1.8693  0.1375
  263MOL0     H35451   3.494   6.552   5.072  0.3272  0.6052 -2.5264
  263MOL0     H35452   3.675   6.710   4.996  3.8696  0.6056  0.5411
  263MOL0     H35453   3.789   6.618   5.102 -1.1395 -1.3643  2.4669
  263MOL0     H35454   3.624   6.472   4.885 -1.7069  0.8678  2.2599
  263MOL0     H35455   3.736   6.410   5.010  1.6184  0.9379  0.0278
  263MOL0     H35456   3.726   6.592   4.674  1.1077  0.7770 -0.2528
  263MOL0     H35457   3.862   6.763   4.553 -0.9863 -1.3531 -0.0358
  263MOL0     H35458   3.975   6.850   4.663 -2.0067  0.5189 -0.5820
  263MOL0     H35459   4.107   6.625   4.535  0.9661 -0.4166 -2.1330
  263MOL0     H35460   4.161   6.786   4.527  2.4132 -2.3541 -2.2451
  263MOL0     H35461   3.931   6.680   4.345  0.6914  0.5521 -0.4408
  263MOL0     H35462   4.103   6.656   4.322  0.4021 -0.3383 -0.9824
  263MOL0     H35463   3.996   6.944   4.354 -0.1628 -0.5463  1.4167
  263MOL0     H35464   3.993   6.855   4.198  0.9776 -0.0350  0.1772
  263MOL0     H35465   3.997   7.072   4.168  0.4129 -1.8831  0.0785
  263MOL0     H35466   3.924   7.271   4.046  0.4841  0.0200 -0.4176
  263MOL0     H35467   4.058   7.381   3.987 -0.4130 -0.1922  0.9812
  263MOL0     H35468   3.975   7.271   3.882  0.6485 -3.9066  0.1713
  263MOL0     H35469   4.292   7.403   3.575 -0.0969 -0.0559  0.3135
  263MOL0     H35470   4.427   7.552   3.428  1.6443  2.0993 -0.3865
  263MOL0     H35471   4.579   7.871   3.692 -2.5599 -0.6191 -0.1033
  263MOL0     H35472   4.742   7.808   3.631 -0.7812 -2.8475 -0.1880
  263MOL0     H35473   4.730   7.957   3.456 -0.5561  1.4688 -0.3263
  263MOL0     H35474   4.561   7.978   3.456 -0.7581  1.4991  0.8979
  263MOL0     H35475   4.683   8.170   3.534  2.5824  1.7184  1.9231
  263MOL0     H35476   4.753   8.096   3.668 -0.9999  0.3883  0.5379
  263MOL0     H35477   4.458   8.143   3.597  0.2538  3.3720  0.6161
  263MOL0     H35478   4.500   8.071   3.757  0.4604  1.2797  2.3278
  263MOL0     H35479   4.601   8.343   3.673  1.4053 -0.7743  0.8402
  263MOL0     H35480   4.588   8.270   3.837 -1.7495 -0.7437  1.3825
  263MOL0     H35481   4.350   8.314   3.654 -0.6522  1.6392  0.4266
  263MOL0     H35482   4.345   8.232   3.812 -1.3820  0.4444 -0.4193
  263MOL0     H35483   4.419   8.524   3.757  1.3071 -1.8322 -1.4445
  263MOL0     H35484   4.419   8.440   3.913 -3.1527 -0.5660  1.0022
  263MOL0     H35485   4.157   8.411   3.878 -0.2318  0.2694  0.7974
  263MOL0     H35486   4.200   8.493   3.716  1.8458 -1.5442  0.4033
  263MOL0     H35487   4.688   7.639   3.765  1.7445 -2.1218 -0.5579
  263MOL0     H35488   4.591   7.450   3.882  0.0764 -2.1541 -0.9233
  263MOL0     H35489   4.446   7.112   3.956 -0.5482 -0.3829 -1.2155
  263MOL0     H35490   4.406   6.958   4.171 -0.1324  1.1434  2.0382
  263MOL0     H35491   3.379   6.287   5.002 -0.1010  1.2024 -0.3184
  263MOL0     H35492   3.393   6.134   4.797  0.5300  0.4946 -0.1832
  263MOL0     H35493   3.096   6.087   4.212 -0.0013 -1.5607 -1.6411
  263MOL0     H35494   3.118   5.881   4.088 -2.2614  1.7796 -0.5153
  263MOL0     H35495   3.216   5.505   4.316 -0.5421 -2.9800  0.2780
  263MOL0     H35496   3.053   5.527   4.269 -0.3831 -1.7907 -1.1591
  263MOL0     H35497   3.085   5.448   4.046 -2.7210  0.7112  3.4241
  263MOL0     H35498   3.122   5.327   4.165  1.9774  0.2118  2.3615
  263MOL0     H35499   3.373   5.396   4.110 -1.4545  2.5865  1.4518
  263MOL0     H35500   3.332   5.485   3.983  3.8097 -1.3610  1.5589
  263MOL0     H35501   3.296   5.310   3.840  2.2699 -1.0485  0.1324
  263MOL0     H35502   3.203   5.220   3.961 -2.0164  3.5145 -1.3921
  263MOL0     H35503   3.555   5.033   4.045  1.8979 -0.4963 -1.0601
  263MOL0     H35504   3.226   5.670   4.453  1.6905  1.3957 -0.0852
  263MOL0     H35505   3.200   5.875   4.574  1.9613 -0.9555 -0.5247
  264MOL0     O35506   6.452  10.076   0.901 -0.1456 -0.4425 -0.2426
  264MOL0     C35507   6.522  10.005   0.971  0.4719  0.1088 -0.0255
  264MOL0     O35508   6.643   9.963   0.940 -0.3354 -0.1566 -0.5187
  264MOL0     C35509   6.710  10.043   0.854  0.0375 -0.0099 -0.2493
  264MOL0     C35510   6.726  10.188   0.851 -0.5255 -0.4256 -0.1881
  264MOL0     C35511   6.828  10.246   0.777 -0.3034  0.3689 -0.7884
  264MOL0     C35512   6.913  10.169   0.711 -0.2148 -0.7327 -0.9921
  264MOL0     O35513   7.037  10.221   0.667 -0.5132  0.2229  0.0284
  264MOL0     C35514   7.069  10.367   0.684 -0.4152 -1.2556 -0.4774
  264MOL0     C35515   7.106  10.405   0.832 -0.0509 -0.2874  0.4842
  264MOL0     C35516   7.078  10.558   0.848 -0.5447  0.1198 -0.3781
  264MOL0     C35517   7.125  10.611   0.978  1.0410 -0.0923 -0.6803
  264MOL0     C35518   7.082  10.752   0.982 -0.8989  0.6281 -0.0063
  264MOL0     C35519   7.128  10.816   1.116  0.0303 -0.2182  0.2124
  264MOL0     C35520   7.029  10.833   1.232 -0.2667 -0.5868  0.0565
  264MOL0     C35521   7.090  10.875   1.366  0.1659 -0.2441 -0.1710
  264MOL0     N35522   7.134  11.017   1.375 -0.6616  0.5064  0.4413
  264MOL0     C35523   7.049  11.130   1.383  0.3146 -0.0077  0.3771
  264MOL0     C35524   7.133  11.230   1.405 -0.3142 -0.4453  0.1917
  264MOL0     C35525   7.095  11.372   1.420  0.0977  0.0319  0.3811
  264MOL0     C35526   7.063  11.403   1.563 -0.4650  0.8546 -0.5509
  264MOL0     C35527   6.989  11.536   1.593 -0.4485  0.8667  0.1522
  264MOL0     C35528   6.994  11.556   1.744  1.1827  0.1654 -0.4916
  264MOL0     O35529   6.937  11.436   1.818  0.1619 -0.1938 -0.2135
  264MOL0     C35530   6.957  11.432   1.956 -0.3643  0.6214 -1.1123
  264MOL0     C35531   6.929  11.311   2.025 -0.0283 -0.4274 -0.2983
  264MOL0     C35532   6.973  11.296   2.160 -0.4731  0.7409  0.3171
  264MOL0     C35533   6.987  11.160   2.222 -1.0161 -0.4943 -1.3735
  264MOL0     C35534   7.019  11.408   2.228 -0.1660 -0.0638 -0.3787
  264MOL0     C35535   7.061  11.397   2.368  0.4580 -0.1803 -0.7719
  264MOL0     O35536   7.170  11.481   2.401 -0.6661  1.1696  0.1377
  264MOL0     C35537   7.216  11.458   2.531  0.1633 -0.3540  0.1029
  264MOL0     C35538   7.284  11.565   2.585  0.1448 -1.5421  0.5134
  264MOL0     C35539   7.338  11.546   2.709 -0.4047 -0.2902  0.4880
  264MOL0     C35540   7.355  11.427   2.781  0.9671  0.0281  1.2851
  264MOL0     O35541   7.414  11.427   2.899 -0.4544  0.1614 -0.6923
  264MOL0     C35542   7.523  11.328   2.900  0.7137 -0.5246 -0.2603
  264MOL0     C35543   7.610  11.368   3.012  0.0121  0.1495  0.4163
  264MOL0     C35544   7.532  11.375   3.146 -0.1579  0.2148  0.2759
  264MOL0     C35545   7.602  11.466   3.249 -0.1615  0.3143  0.1934
  264MOL0     C35546   7.556  11.453   3.389 -0.2327 -0.7402 -0.2956
  264MOL0     C35547   7.597  11.322   3.462 -0.5565  0.6564 -0.4645
  264MOL0     C35548   7.747  11.309   3.502  0.4186 -0.1051 -0.2389
  264MOL0     C35549   7.763  11.178   3.577  0.1208 -0.7339 -1.1938
  264MOL0    Cl35550   7.936  11.132   3.576  0.2850  0.1678  0.3833
  264MOL0     C35551   7.307  11.314   2.709 -0.0685  0.7985 -0.5474
  264MOL0     C35552   7.245  11.327   2.581  0.4852  0.8946  0.6539
  264MOL0     O35553   6.988  11.340   2.452  0.2767 -0.5175  0.2078
  264MOL0     C35554   7.057  11.526   2.159 -0.2680 -0.4192 -0.0382
  264MOL0     C35555   7.015  11.544   2.023  0.3720  0.6648 -0.0909
  264MOL0     N35556   7.262  11.187   1.427  0.1486  0.1274 -0.0588
  264MOL0     N35557   7.260  11.059   1.411  0.6195  0.0509 -0.0002
  264MOL0     C35558   6.900  10.033   0.706  1.3663  0.8280 -0.4360
  264MOL0     C35559   6.797   9.967   0.773  0.4775 -1.1088 -0.4199
  264MOL0     C35560   6.465   9.944   1.095  0.8152 -1.4496  1.6000
  264MOL0     C35561   6.491   9.814   1.138 -0.3222  0.3944  0.4873
  264MOL0     C35562   6.436   9.768   1.250  0.6632  0.0166 -0.0964
  264MOL0     C35563   6.340   9.842   1.327 -1.0615 -0.1604 -0.9537
  264MOL0     O35564   6.278   9.801   1.440  0.1475 -0.1800 -0.1750
  264MOL0     C35565   6.359   9.728   1.529 -0.5822 -0.7837  0.3252
  264MOL0     C35566   6.435   9.830   1.610  0.0461 -0.1073  0.5290
  264MOL0     C35567   6.358   9.886   1.734 -0.1795  0.1800  0.1773
  264MOL0     C35568   6.280  10.015   1.693  0.0895 -0.1442  0.6370
  264MOL0     C35569   6.363  10.123   1.631  0.1128  0.8061  0.6553
  264MOL0     C35570   6.438  10.211   1.591  0.0265  0.2528  0.1002
  264MOL0     C35571   6.303   9.967   1.282  0.5137  0.1449 -0.0319
  264MOL0     C35572   6.373  10.022   1.168 -0.4141  0.0198  1.0464
  264MOL0     H35573   6.680  10.259   0.919  0.0652 -0.2727  0.0567
  264MOL0     H35574   6.864  10.345   0.806  1.7744 -1.2598  3.0278
  264MOL0     H35575   7.145  10.403   0.613  0.4292  1.1599  1.5015
  264MOL0     H35576   6.981  10.427   0.658  1.0394  1.5897  0.7509
  264MOL0     H35577   7.056  10.340   0.905 -3.2984  0.1746 -1.1482
  264MOL0     H35578   7.212  10.382   0.845 -0.4081 -1.3588  1.7196
  264MOL0     H35579   7.131  10.609   0.767  0.8879 -2.9428 -1.5221
  264MOL0     H35580   6.973  10.581   0.830 -1.7699 -3.3204  1.4118
  264MOL0     H35581   7.073  10.560   1.059  0.9960  1.3492  0.2254
  264MOL0     H35582   7.232  10.614   1.000  0.3527  1.9244  3.2570
  264MOL0     H35583   7.120  10.809   0.896 -1.0216 -0.7886 -1.0408
  264MOL0     H35584   6.974  10.768   0.980 -0.9518  0.3313  0.4562
  264MOL0     H35585   7.214  10.761   1.155 -2.3215 -3.7192  0.8286
  264MOL0     H35586   7.161  10.917   1.088  1.9806 -0.4924  1.3425
  264MOL0     H35587   6.946  10.899   1.206 -0.1082 -1.0896 -1.8603
  264MOL0     H35588   6.975  10.741   1.255  3.0734 -2.6487  0.2481
  264MOL0     H35589   7.177  10.812   1.385 -0.7035 -1.5567 -0.4423
  264MOL0     H35590   7.023  10.854   1.450  1.3028 -1.2883  0.5034
  264MOL0     H35591   6.941  11.130   1.367  0.5877 -0.4733 -1.8447
  264MOL0     H35592   7.187  11.421   1.385  1.4006 -2.4428  0.1351
  264MOL0     H35593   7.006  11.402   1.365  0.7539  1.2723 -0.0528
  264MOL0     H35594   7.156  11.413   1.620 -1.0592  0.6761  0.4511
  264MOL0     H35595   6.997  11.326   1.603  2.1809 -1.4521 -0.3240
  264MOL0     H35596   6.885  11.529   1.560 -1.2704  1.0427  2.4906
  264MOL0     H35597   7.045  11.610   1.536  0.1957 -0.7096 -1.3471
  264MOL0     H35598   6.935  11.646   1.765 -0.3624 -0.6624 -1.1378
  264MOL0     H35599   7.102  11.564   1.764  1.2907 -2.6256  0.3665
  264MOL0     H35600   6.878  11.234   1.967  1.0503 -1.9353  0.6837
  264MOL0     H35601   7.094  11.151   2.242 -0.6502 -0.3200 -3.1244
  264MOL0     H35602   6.917  11.135   2.303 -1.7100  1.3580 -1.3574
  264MOL0     H35603   6.970  11.086   2.144  1.3532  2.1232 -4.6225
  264MOL0     H35604   7.295  11.657   2.528 -0.5764  0.2417  3.0789
  264MOL0     H35605   7.392  11.627   2.754 -1.9191  0.8214  0.3923
  264MOL0     H35606   7.477  11.229   2.906 -1.8487  0.5628 -0.6387
  264MOL0     H35607   7.579  11.333   2.806 -0.5960 -0.0513 -1.0534
  264MOL0     H35608   7.682  11.287   3.030  1.5393  0.8303 -2.1332
  264MOL0     H35609   7.663  11.462   2.994  0.6873 -0.0744  1.1698
  264MOL0     H35610   7.512  11.274   3.184 -3.2576 -1.8867 -5.6798
  264MOL0     H35611   7.431  11.417   3.140 -0.8791 -1.1249  2.1226
  264MOL0     H35612   7.706  11.432   3.250  1.4167  4.4693  2.1525
  264MOL0     H35613   7.589  11.572   3.224 -0.8158 -0.7001 -4.6976
  264MOL0     H35614   7.446  11.461   3.387 -0.2774 -0.7452  1.1929
  264MOL0     H35615   7.579  11.542   3.448 -1.5988 -3.1449  4.3890
  264MOL0     H35616   7.534  11.318   3.551 -1.9613 -2.3791 -1.4506
  264MOL0     H35617   7.559  11.234   3.410  1.0076  0.0453 -0.6121
  264MOL0     H35618   7.760  11.397   3.565  0.8400 -0.6051  0.3925
  264MOL0     H35619   7.819  11.313   3.421  0.5038  1.7201 -0.1157
  264MOL0     H35620   7.693  11.102   3.541  0.0328 -1.0301 -0.4357
  264MOL0     H35621   7.741  11.200   3.682 -1.2664  1.9748 -1.9391
  264MOL0     H35622   7.329  11.216   2.751  1.2211  1.0130 -0.6786
  264MOL0     H35623   7.209  11.243   2.522 -2.2733  1.7829  0.9143
  264MOL0     H35624   7.108  11.608   2.208  0.6916 -0.1094 -1.4772
  264MOL0     H35625   7.014  11.642   1.976 -0.8787  1.1838  0.9366
  264MOL0     H35626   6.959   9.953   0.664 -1.0553 -1.9807  1.1613
  264MOL0     H35627   6.813   9.860   0.773 -1.4525 -1.4482  1.1700
  264MOL0     H35628   6.567   9.747   1.099 -1.8142  0.4723 -2.9402
  264MOL0     H35629   6.465   9.670   1.288  0.6123 -1.1704 -2.8981
  264MOL0     H35630   6.302   9.661   1.594  0.8415 -1.3859  0.9825
  264MOL0     H35631   6.429   9.662   1.478 -0.0851 -0.9045  1.1408
  264MOL0     H35632   6.475   9.914   1.553  0.8983 -0.4357  0.6330
  264MOL0     H35633   6.516   9.771   1.654 -1.3776 -0.6897  2.5281
  264MOL0     H35634   6.436   9.928   1.799 -0.0798  1.3767 -0.6836
  264MOL0     H35635   6.289   9.817   1.783  1.6557 -1.5246  0.5452
  264MOL0     H35636   6.237  10.048   1.788  2.9045  1.7104  1.3754
  264MOL0     H35637   6.200   9.996   1.621  1.5989 -2.9755 -0.4449
  264MOL0     H35638   6.494  10.293   1.551  1.6383 -0.1453  1.3866
  264MOL0     H35639   6.228  10.017   1.342  1.4964  3.8974 -1.6544
  264MOL0     H35640   6.338  10.120   1.138  0.0597  0.2554  1.2459
  265MOL0     O35641  11.339   2.013  11.124  0.5751 -0.7429 -0.4096
  265MOL0     C35642  11.261   2.092  11.173 -0.1295 -0.4221  0.0333
  265MOL0     O35643  11.261   2.218  11.142 -0.6455 -0.3527 -0.2790
  265MOL0     C35644  11.337   2.269  11.047  0.4337 -1.0224  0.4825
  265MOL0     C35645  11.472   2.307  11.063  0.2545 -0.8956 -0.0965
  265MOL0     C35646  11.535   2.371  10.956 -1.0181 -0.2079  0.0067
  265MOL0     C35647  11.471   2.400  10.834 -0.1314  0.2088 -0.3169
  265MOL0     O35648  11.538   2.472  10.742 -0.7090  0.2131  0.9213
  265MOL0     C35649  11.634   2.403  10.662  0.7796  0.7305  0.1312
  265MOL0     C35650  11.708   2.498  10.562 -0.0817 -0.0945  0.6114
  265MOL0     C35651  11.718   2.649  10.603 -0.5431 -0.0076 -0.2652
  265MOL0     C35652  11.759   2.679  10.747 -0.3702 -0.6381  0.1542
  265MOL0     C35653  11.771   2.828  10.775  0.5614  1.2583  0.2809
  265MOL0     C35654  11.632   2.888  10.773 -0.1024  0.2849 -0.3878
  265MOL0     C35655  11.651   3.033  10.834  0.1289 -0.6802 -0.0528
  265MOL0     C35656  11.690   3.135  10.738 -1.0983  0.2212  0.6498
  265MOL0     N35657  11.652   3.271  10.770  0.9676 -0.0030  0.0543
  265MOL0     C35658  11.522   3.298  10.801  0.0282 -0.2843 -0.2957
  265MOL0     C35659  11.532   3.436  10.842 -0.1779 -1.6341  0.9209
  265MOL0     C35660  11.415   3.529  10.878  0.8028 -0.3193 -0.3975
  265MOL0     C35661  11.314   3.514  10.767  0.8673  0.3330 -0.8217
  265MOL0     C35662  11.221   3.634  10.746  0.5999  0.0086  0.1705
  265MOL0     C35663  11.126   3.653  10.864  0.9561 -0.4315 -0.5238
  265MOL0     O35664  11.029   3.746  10.818  0.1380 -0.3969 -0.0940
  265MOL0     C35665  10.947   3.801  10.920  0.2326 -0.8419 -0.1052
  265MOL0     C35666  10.974   3.781  11.056  0.3739 -0.5584  0.5464
  265MOL0     C35667  10.890   3.851  11.148 -1.1828 -0.1136  0.0596
  265MOL0     C35668  10.925   3.822  11.295 -0.7069 -0.2331  0.6690
  265MOL0     C35669  10.776   3.928  11.108  0.2464  1.4646 -0.3991
  265MOL0     C35670  10.662   3.989  11.187 -0.1762  0.5742 -0.1412
  265MOL0     O35671  10.576   4.079  11.125  0.0716  0.5951  0.6530
  265MOL0     C35672  10.469   4.118  11.207 -0.5892  0.6874  0.3577
  265MOL0     C35673  10.365   4.032  11.245  0.7085  0.3405 -0.3548
  265MOL0     C35674  10.273   4.074  11.349 -0.0795 -0.3615  0.3816
  265MOL0     C35675  10.282   4.201  11.405 -0.4068  0.6690  0.6929
  265MOL0     O35676  10.178   4.223  11.488 -0.0476 -0.0523  0.7143
  265MOL0     C35677  10.176   4.354  11.556  0.3515 -0.0132  0.2585
  265MOL0     C35678  10.061   4.361  11.646 -0.5813  0.9063 -0.0298
  265MOL0     C35679   9.935   4.343  11.563  0.3599 -0.0834  0.0247
  265MOL0     C35680   9.827   4.339  11.672 -0.2811 -0.2319 -0.7004
  265MOL0     C35681   9.695   4.333  11.610  0.4390 -0.8361  0.2927
  265MOL0     C35682   9.574   4.327  11.712 -0.0096 -0.0734 -0.2165
  265MOL0     C35683   9.446   4.309  11.638  0.8662  0.0522 -0.8738
  265MOL0     C35684   9.337   4.281  11.741  0.0457  0.0369 -0.3073
  265MOL0    Cl35685   9.189   4.314  11.645 -0.3198 -0.6330  0.3632
  265MOL0     C35686  10.381   4.289  11.362  0.3225  0.9516  0.6770
  265MOL0     C35687  10.482   4.241  11.271  0.4851  0.1905 -0.5006
  265MOL0     O35688  10.654   3.958  11.303  0.8088 -0.1958 -0.2670
  265MOL0     C35689  10.753   3.937  10.971 -0.6516 -0.1968  0.0527
  265MOL0     C35690  10.839   3.871  10.882 -0.0687  0.3227  0.1900
  265MOL0     N35691  11.662   3.482  10.819  0.3139 -0.1484 -0.4844
  265MOL0     N35692  11.736   3.377  10.773  0.4297 -0.3024 -0.5877
  265MOL0     C35693  11.337   2.374  10.829  0.0783 -0.5502  0.1285
  265MOL0     C35694  11.272   2.299  10.926 -0.0268  0.1760 -0.4789
  265MOL0     C35695  11.174   2.050  11.294  0.6399  0.4398  0.4272
  265MOL0     C35696  11.180   1.928  11.349 -0.3699  1.1350 -0.1517
  265MOL0     C35697  11.101   1.886  11.466 -0.4159 -0.3323 -0.0362
  265MOL0     C35698  11.010   1.985  11.521 -0.1461 -0.1737  0.1599
  265MOL0     O35699  10.935   1.953  11.632 -0.3733 -0.0216  0.6007
  265MOL0     C35700  10.951   2.042  11.744 -1.1384  0.1855  0.1353
  265MOL0     C35701  10.935   1.958  11.869 -0.0405 -0.6322  0.2652
  265MOL0     C35702  10.967   2.062  11.988 -0.0308  0.5853  0.5365
  265MOL0     C35703  10.995   1.983  12.121 -0.1917  0.2854 -0.4176
  265MOL0     C35704  10.885   1.895  12.149  0.4319 -1.1038  0.5615
  265MOL0     C35705  10.797   1.821  12.168 -0.3703 -0.3728  0.6657
  265MOL0     C35706  11.022   2.113  11.479  0.5654 -0.1929  0.6240
  265MOL0     C35707  11.103   2.146  11.367  0.2328  0.1099 -0.0381
  265MOL0     H35708  11.526   2.292  11.156 -1.0392 -0.1398  0.8001
  265MOL0     H35709  11.642   2.384  10.964 -0.9138 -1.4632  1.0315
  265MOL0     H35710  11.703   2.351  10.729  2.4006 -0.3945 -2.2798
  265MOL0     H35711  11.578   2.328  10.606  1.9884 -0.0393 -0.0799
  265MOL0     H35712  11.811   2.461  10.555  0.2723  0.9971 -0.0941
  265MOL0     H35713  11.665   2.487  10.462 -0.6687  0.2843  0.8137
  265MOL0     H35714  11.796   2.693  10.539 -0.3562 -0.2132 -0.1776
  265MOL0     H35715  11.621   2.689  10.573 -2.0984 -4.1137 -1.3493
  265MOL0     H35716  11.688   2.635  10.818 -0.0828 -1.6776 -0.1752
  265MOL0     H35717  11.858   2.638  10.772 -0.5986 -0.8028  0.8184
  265MOL0     H35718  11.821   2.841  10.871  1.0554 -1.0117  0.3875
  265MOL0     H35719  11.836   2.876  10.702  0.8633  0.6938  0.1702
  265MOL0     H35720  11.582   2.895  10.676  0.8878 -2.5047 -1.1964
  265MOL0     H35721  11.575   2.833  10.848  0.0606  3.0150  1.9086
  265MOL0     H35722  11.549   3.062  10.863  0.4920  0.6954 -0.0581
  265MOL0     H35723  11.714   3.033  10.923  2.1422  3.5625 -1.2400
  265MOL0     H35724  11.639   3.114  10.643 -1.7297  0.2897  0.9634
  265MOL0     H35725  11.799   3.132  10.735 -1.0412  1.7517 -1.1430
  265MOL0     H35726  11.430   3.242  10.815 -0.6585  1.2482  2.0229
  265MOL0     H35727  11.374   3.498  10.975  0.4634  2.9965  0.6399
  265MOL0     H35728  11.454   3.631  10.888 -0.9237  0.3169  0.4224
  265MOL0     H35729  11.248   3.429  10.786 -1.0946  1.6377 -1.4516
  265MOL0     H35730  11.373   3.489  10.679  4.0927 -2.5560  1.8653
  265MOL0     H35731  11.158   3.604  10.663 -0.0211  2.4769 -0.3314
  265MOL0     H35732  11.273   3.722  10.707 -1.7285  1.1448 -0.5547
  265MOL0     H35733  11.193   3.699  10.937  3.0573 -2.4249 -1.0703
  265MOL0     H35734  11.095   3.558  10.908 -1.5558  0.4056 -0.3329
  265MOL0     H35735  11.057   3.726  11.099  1.5795  1.8172  1.4476
  265MOL0     H35736  10.866   3.875  11.370  2.8042  1.9744  2.0628
  265MOL0     H35737  10.899   3.722  11.332 -1.4304 -0.0944  0.5605
  265MOL0     H35738  11.029   3.847  11.313 -1.3243  2.9573  0.3518
  265MOL0     H35739  10.355   3.933  11.204 -1.6154  0.1236  0.6072
  265MOL0     H35740  10.196   4.008  11.387  0.6035 -0.6924  1.2414
  265MOL0     H35741  10.268   4.362  11.616  0.2853  0.7853  0.2565
  265MOL0     H35742  10.151   4.433  11.484 -2.2819  0.8430  1.9830
  265MOL0     H35743  10.064   4.275  11.715  2.6936 -1.4238 -2.7091
  265MOL0     H35744  10.067   4.460  11.692 -1.8481  1.3808 -0.8420
  265MOL0     H35745   9.941   4.247  11.510 -1.1331  0.2469 -0.8094
  265MOL0     H35746   9.916   4.416  11.484 -0.1165 -2.7653 -2.5061
  265MOL0     H35747   9.837   4.250  11.734 -0.9154 -1.3361 -2.1436
  265MOL0     H35748   9.840   4.424  11.739  1.7360  0.1419 -1.4831
  265MOL0     H35749   9.686   4.232  11.569 -0.1292 -0.6348 -0.0931
  265MOL0     H35750   9.679   4.401  11.526 -1.8141  3.4693  3.7815
  265MOL0     H35751   9.595   4.258  11.794 -0.8196  2.6854  2.4772
  265MOL0     H35752   9.559   4.427  11.754 -3.7917  0.0722 -1.5186
  265MOL0     H35753   9.457   4.232  11.561  3.0925  0.5172 -1.0892
  265MOL0     H35754   9.417   4.404  11.592 -0.8820 -0.2577 -0.4609
  265MOL0     H35755   9.343   4.338  11.834  1.7620 -0.6884  0.0702
  265MOL0     H35756   9.341   4.177  11.774 -2.6089  0.2599  0.9767
  265MOL0     H35757  10.375   4.387  11.408 -2.5922  1.4243 -0.5328
  265MOL0     H35758  10.562   4.306  11.238 -1.1133  3.8472  2.1915
  265MOL0     H35759  10.662   3.981  10.931 -0.8032 -0.3782  0.2014
  265MOL0     H35760  10.824   3.866  10.775  0.5452  0.2399  0.1049
  265MOL0     H35761  11.286   2.393  10.736 -1.7392 -2.4355  0.6635
  265MOL0     H35762  11.168   2.268  10.925 -0.0386 -0.1992  2.6316
  265MOL0     H35763  11.258   1.861  11.315  1.0904  2.5183  0.3312
  265MOL0     H35764  11.110   1.789  11.514  1.6394 -0.2079 -0.0707
  265MOL0     H35765  11.051   2.085  11.749  0.2162 -2.7032  0.2104
  265MOL0     H35766  10.871   2.117  11.744 -2.2443 -0.8951  2.2783
  265MOL0     H35767  11.005   1.874  11.875  0.0419 -0.6506 -0.7402
  265MOL0     H35768  10.837   1.909  11.879 -0.3908  0.3146  1.9386
  265MOL0     H35769  10.893   2.142  11.995 -0.4110  0.3578 -0.5996
  265MOL0     H35770  11.063   2.113  11.978 -0.0392  0.7717  1.3534
  265MOL0     H35771  11.007   2.063  12.194  0.1788  0.3748 -0.5732
  265MOL0     H35772  11.087   1.925  12.109 -0.6268 -0.6065  0.4174
  265MOL0     H35773  10.726   1.740  12.172  2.4143 -2.9341  1.4487
  265MOL0     H35774  10.953   2.193  11.502  0.6224  0.2408 -0.6374
  265MOL0     H35775  11.100   2.241  11.315 -1.3136 -0.4692 -1.0955
  266MOL0     O35776   7.832   6.910   1.005 -0.0097  0.0279  0.1841
  266MOL0     C35777   7.930   6.838   0.995 -0.9826  0.5904 -0.1415
  266MOL0     O35778   8.054   6.883   0.964  0.4625  0.9532  0.9482
  266MOL0     C35779   8.079   7.007   0.922 -0.2875  0.0941  0.1473
  266MOL0     C35780   8.027   7.123   0.979 -0.3973  0.5650 -0.0934
  266MOL0     C35781   8.050   7.252   0.927  0.4749  0.2075 -0.6594
  266MOL0     C35782   8.137   7.274   0.815 -0.1362 -0.1852 -0.5909
  266MOL0     O35783   8.185   7.391   0.777 -0.1405  0.0187 -0.3449
  266MOL0     C35784   8.096   7.463   0.688  0.1293  0.4854  0.2712
  266MOL0     C35785   7.986   7.550   0.762  0.5832 -0.3259  0.1859
  266MOL0     C35786   8.042   7.635   0.881 -0.6633 -0.1615  0.6385
  266MOL0     C35787   7.929   7.706   0.958 -0.5390 -0.8901  0.3385
  266MOL0     C35788   7.973   7.803   1.077 -0.0088  0.0796  0.6728
  266MOL0     C35789   7.843   7.840   1.147 -0.7054 -0.4266  0.6680
  266MOL0     C35790   7.879   7.928   1.272  0.3057  0.1316  0.5438
  266MOL0     C35791   7.772   7.909   1.386 -0.1579  0.6153 -0.1969
  266MOL0     N35792   7.848   7.954   1.509 -0.3421 -0.1026 -0.3024
  266MOL0     C35793   7.867   8.091   1.537  0.6364  0.3379  0.8655
  266MOL0     C35794   7.955   8.082   1.644  0.3414  1.5620 -0.3827
  266MOL0     C35795   8.048   8.183   1.700  0.2172  0.2590 -0.1804
  266MOL0     C35796   7.990   8.312   1.755  0.3889  0.0395  0.2316
  266MOL0     C35797   8.107   8.416   1.781 -0.2057 -0.1824 -0.0265
  266MOL0     C35798   8.046   8.530   1.860 -0.0894 -0.0457 -0.2700
  266MOL0     O35799   7.942   8.583   1.781  0.1403  0.2573  0.9621
  266MOL0     C35800   7.864   8.663   1.846  0.2661 -0.9108 -0.4735
  266MOL0     C35801   7.907   8.783   1.897 -1.1152 -0.3215 -0.5820
  266MOL0     C35802   7.817   8.879   1.947 -0.4847 -0.6858  0.4238
  266MOL0     C35803   7.871   9.016   1.988  0.6508  0.3415 -0.0382
  266MOL0     C35804   7.681   8.851   1.950  0.3227  0.5482 -0.4092
  266MOL0     C35805   7.574   8.929   2.015  0.5514 -0.5036  1.2275
  266MOL0     O35806   7.460   8.870   2.062  0.4814  0.1480  0.1756
  266MOL0     C35807   7.392   8.939   2.155 -0.2027  0.7568  0.2305
  266MOL0     C35808   7.273   8.871   2.197 -0.9125 -0.2024 -0.9417
  266MOL0     C35809   7.186   8.908   2.299  0.7258 -0.5235 -1.1788
  266MOL0     C35810   7.210   9.039   2.354 -0.0067 -0.1223 -0.4356
  266MOL0     O35811   7.126   9.073   2.452  0.5936  0.9158  0.3999
  266MOL0     C35812   7.145   9.197   2.522 -0.3500 -0.1301 -0.1101
  266MOL0     C35813   7.110   9.324   2.439 -0.2555 -0.0205  0.2869
  266MOL0     C35814   7.151   9.444   2.519  0.2431  0.3781 -0.0055
  266MOL0     C35815   7.305   9.476   2.519 -0.0018 -0.2179  0.2173
  266MOL0     C35816   7.330   9.608   2.588  0.1019  0.0640 -0.5617
  266MOL0     C35817   7.479   9.635   2.608 -0.2637  0.1332 -0.1752
  266MOL0     C35818   7.549   9.682   2.492  0.1511 -0.3200  0.0957
  266MOL0     C35819   7.697   9.702   2.527 -0.4093 -0.0857 -0.1193
  266MOL0    Cl35820   7.798   9.561   2.468 -0.2204 -0.1426 -0.1196
  266MOL0     C35821   7.332   9.111   2.314 -0.4595 -0.8631  0.1356
  266MOL0     C35822   7.417   9.062   2.215 -0.6589  0.5283 -0.4680
  266MOL0     O35823   7.583   9.044   1.979  0.3026 -0.0294  0.3740
  266MOL0     C35824   7.640   8.730   1.896  0.5145 -0.7315 -0.3032
  266MOL0     C35825   7.726   8.641   1.842  0.0943 -0.2595  0.0146
  266MOL0     N35826   7.950   7.952   1.694 -0.0772  0.6059  0.1233
  266MOL0     N35827   7.892   7.875   1.614  0.0600  0.8591  0.0226
  266MOL0     C35828   8.202   7.155   0.763 -0.2065 -0.5356 -0.7069
  266MOL0     C35829   8.177   7.028   0.820 -0.6794  0.1287 -0.2011
  266MOL0     C35830   7.909   6.697   1.026  1.3874 -0.1670 -0.0735
  266MOL0     C35831   8.002   6.604   0.987 -0.4328 -0.2925 -0.2533
  266MOL0     C35832   7.977   6.463   1.009 -0.1006  0.3478 -0.0798
  266MOL0     C35833   7.857   6.423   1.068 -0.8810  0.3303 -0.2295
  266MOL0     O35834   7.849   6.287   1.087 -0.6325  0.8237 -0.0079
  266MOL0     C35835   7.731   6.231   1.161  0.8758  0.2938  0.7994
  266MOL0     C35836   7.728   6.080   1.179 -0.4910  0.5630 -0.0936
  266MOL0     C35837   7.867   6.045   1.237  0.3087  0.2741 -0.1462
  266MOL0     C35838   7.890   5.893   1.276  0.1634  0.4565  0.8519
  266MOL0     C35839   7.874   5.802   1.157  0.1016 -0.1860 -0.5916
  266MOL0     C35840   7.838   5.730   1.067  0.1752 -0.2229  0.8626
  266MOL0     C35841   7.762   6.519   1.111  0.1635  1.2251 -0.0506
  266MOL0     C35842   7.789   6.652   1.091  0.1247 -0.2712  0.1840
  266MOL0     H35843   7.955   7.121   1.060 -0.2528  1.8671  0.0871
  266MOL0     H35844   8.007   7.338   0.977 -0.6369  0.4133 -1.9004
  266MOL0     H35845   8.155   7.540   0.637  1.4723 -1.2867 -0.9996
  266MOL0     H35846   8.061   7.396   0.609  1.6471  2.4584 -2.2730
  266MOL0     H35847   7.942   7.617   0.688 -3.0192 -2.3037  0.3433
  266MOL0     H35848   7.899   7.492   0.793  0.3904  0.5718  1.3628
  266MOL0     H35849   8.090   7.561   0.947 -1.2182 -0.4951  0.6691
  266MOL0     H35850   8.111   7.708   0.837 -1.1682 -0.1519 -0.1337
  266MOL0     H35851   7.872   7.768   0.888 -0.6403  0.1380  1.3176
  266MOL0     H35852   7.859   7.625   0.983 -0.6701 -0.9306 -0.1451
  266MOL0     H35853   8.042   7.753   1.145 -1.8562 -0.9525  1.8650
  266MOL0     H35854   8.024   7.894   1.046 -2.0325  1.3884  1.0182
  266MOL0     H35855   7.785   7.902   1.078  2.3442  0.3246 -1.4103
  266MOL0     H35856   7.785   7.755   1.183  1.9257 -1.7636  2.0377
  266MOL0     H35857   7.982   7.895   1.290 -0.5616 -3.6973 -0.5822
  266MOL0     H35858   7.891   8.035   1.252 -0.9906  0.2324  0.2188
  266MOL0     H35859   7.740   7.804   1.391 -1.5120  0.6936 -3.9671
  266MOL0     H35860   7.688   7.971   1.357  1.7915  3.4180 -0.2513
  266MOL0     H35861   7.841   8.179   1.478 -1.7699 -2.0601 -1.9257
  266MOL0     H35862   8.100   8.129   1.780 -1.8068 -0.9037  0.4222
  266MOL0     H35863   8.133   8.197   1.632  0.9467  0.4157  0.7327
  266MOL0     H35864   7.931   8.304   1.847  1.4726  1.6932  1.1137
  266MOL0     H35865   7.911   8.351   1.690  1.4951  1.4731 -0.3094
  266MOL0     H35866   8.145   8.432   1.680 -1.7535  0.6813 -0.5125
  266MOL0     H35867   8.180   8.376   1.852  0.5595  2.1118  0.5450
  266MOL0     H35868   8.120   8.605   1.889 -0.3265 -0.7099  2.3780
  266MOL0     H35869   7.997   8.495   1.952  0.6187  4.5638  2.1401
  266MOL0     H35870   8.014   8.794   1.912 -0.7762 -3.2120 -0.2486
  266MOL0     H35871   7.824   9.098   1.932  1.3147 -1.4778 -3.5400
  266MOL0     H35872   7.870   9.036   2.096  2.4969  1.6203 -0.2083
  266MOL0     H35873   7.977   9.017   1.962  0.1576  0.6486 -2.2246
  266MOL0     H35874   7.262   8.772   2.152  2.5499 -0.9593 -0.3999
  266MOL0     H35875   7.096   8.856   2.328  1.8611 -0.8590  2.1164
  266MOL0     H35876   7.079   9.200   2.610  0.4366  2.7853  0.5027
  266MOL0     H35877   7.242   9.191   2.572 -0.3135 -0.7892 -0.2578
  266MOL0     H35878   7.152   9.334   2.338 -1.9811  3.1248 -0.2730
  266MOL0     H35879   7.002   9.323   2.422  0.0400  2.8442 -2.8917
  266MOL0     H35880   7.108   9.424   2.618 -0.0798 -4.7159 -0.9217
  266MOL0     H35881   7.094   9.530   2.483  0.8005 -0.2771 -2.6074
  266MOL0     H35882   7.363   9.399   2.572 -0.5896 -0.4136  0.5834
  266MOL0     H35883   7.337   9.486   2.415  1.6473 -0.0704  0.7028
  266MOL0     H35884   7.295   9.601   2.692 -0.6394 -0.3165 -0.8342
  266MOL0     H35885   7.296   9.695   2.532  2.3276  2.5936  1.6746
  266MOL0     H35886   7.477   9.716   2.682  2.8539 -1.1929  1.5733
  266MOL0     H35887   7.532   9.553   2.658 -3.6694 -0.7754  2.2722
  266MOL0     H35888   7.495   9.775   2.469 -0.6959 -1.3445 -2.4233
  266MOL0     H35889   7.534   9.615   2.407 -0.8731  1.0605 -0.8726
  266MOL0     H35890   7.708   9.709   2.636  1.4038  2.9095 -0.3991
  266MOL0     H35891   7.749   9.788   2.483  0.3660 -1.6044 -2.3175
  266MOL0     H35892   7.367   9.202   2.363  1.4718 -1.7149  0.4286
  266MOL0     H35893   7.505   9.118   2.186 -0.6432  0.5713 -0.3352
  266MOL0     H35894   7.535   8.700   1.898  1.2668 -3.8009 -1.4237
  266MOL0     H35895   7.686   8.548   1.802 -1.2128  0.1402  0.3163
  266MOL0     H35896   8.283   7.170   0.692  0.4991 -1.7299 -0.1810
  266MOL0     H35897   8.227   6.947   0.769 -0.5230 -1.0720  1.7509
  266MOL0     H35898   8.091   6.626   0.929 -1.0351  0.9092 -0.7598
  266MOL0     H35899   8.058   6.404   0.966  0.8269  1.9331 -0.5987
  266MOL0     H35900   7.739   6.278   1.260  0.6972  0.9340  0.5162
  266MOL0     H35901   7.644   6.280   1.115  3.5197  4.3190 -0.5244
  266MOL0     H35902   7.706   6.018   1.091  0.1214  1.9745 -1.2803
  266MOL0     H35903   7.658   6.040   1.253 -1.4615 -1.3745 -1.9423
  266MOL0     H35904   7.891   6.108   1.323  1.7526 -0.9373  0.3821
  266MOL0     H35905   7.944   6.067   1.163  1.3871 -2.0139  0.2065
  266MOL0     H35906   7.825   5.849   1.352  1.7312 -1.0344  1.4158
  266MOL0     H35907   7.994   5.881   1.310 -0.0202  0.8817  1.5748
  266MOL0     H35908   7.808   5.655   0.995  1.9817 -1.5203  1.3995
  266MOL0     H35909   7.667   6.496   1.157 -0.1922  0.4127 -1.1420
  266MOL0     H35910   7.725   6.735   1.118  0.9815  0.2523  0.6204
  267MOL0     O35911   0.752   8.739   4.839  0.1678  0.0384  0.8669
  267MOL0     C35912   0.664   8.818   4.823 -0.1528 -0.5992  1.5931
  267MOL0     O35913   0.635   8.898   4.717  0.0346  0.3509  0.7766
  267MOL0     C35914   0.681   8.863   4.594  0.4524  1.1937 -0.4012
  267MOL0     C35915   0.638   8.746   4.518 -1.0610 -0.7780  0.5521
  267MOL0     C35916   0.685   8.737   4.384 -0.9530  0.0188  0.6811
  267MOL0     C35917   0.771   8.832   4.316 -0.4986  0.6067 -0.7670
  267MOL0     O35918   0.821   8.824   4.188 -0.0385  0.7716 -0.9730
  267MOL0     C35919   0.798   8.702   4.111  0.3456 -0.3193 -0.3804
  267MOL0     C35920   0.892   8.728   3.991  0.8741 -0.0123 -0.0846
  267MOL0     C35921   0.876   8.613   3.883  0.4507 -0.0481  1.1151
  267MOL0     C35922   0.952   8.649   3.757  0.3718  0.1932 -0.4394
  267MOL0     C35923   0.944   8.542   3.660 -0.1692  0.2810 -0.2735
  267MOL0     C35924   1.008   8.577   3.527  0.8126 -0.3276 -0.0598
  267MOL0     C35925   1.014   8.459   3.429  0.1959  0.9270 -0.1958
  267MOL0     C35926   0.889   8.385   3.372  0.0066 -0.2766  0.2526
  267MOL0     N35927   0.917   8.244   3.330  0.1177  0.1680 -0.5906
  267MOL0     C35928   0.953   8.215   3.201  0.0516  0.7150 -0.9655
  267MOL0     C35929   0.946   8.075   3.191  0.7347 -0.6494 -1.4364
  267MOL0     C35930   0.990   7.982   3.078 -0.0845 -0.1667  0.1755
  267MOL0     C35931   0.952   7.840   3.093 -0.0589 -0.3537 -0.8514
  267MOL0     C35932   0.837   7.791   3.008 -0.5875  0.0622  0.2713
  267MOL0     C35933   0.791   7.657   3.056  0.5534 -0.2296  0.0517
  267MOL0     O35934   0.879   7.557   3.001  0.8307  0.6558 -0.3918
  267MOL0     C35935   0.925   7.444   3.070  1.4887 -0.7669 -0.6203
  267MOL0     C35936   0.936   7.451   3.213 -1.4825 -0.5883  0.5694
  267MOL0     C35937   0.985   7.345   3.296 -0.0933 -0.1324  0.2489
  267MOL0     C35938   1.010   7.372   3.441 -0.1281 -1.2759  0.9661
  267MOL0     C35939   1.033   7.236   3.228  0.0440  0.1744  0.2533
  267MOL0     C35940   1.093   7.120   3.286 -0.3920  0.4031 -0.2509
  267MOL0     O35941   1.163   7.034   3.200 -0.0394 -0.5983  0.5410
  267MOL0     C35942   1.245   6.935   3.253 -0.2605 -0.3515  0.3625
  267MOL0     C35943   1.351   6.966   3.343 -0.2747  0.5046  0.4376
  267MOL0     C35944   1.440   6.872   3.388 -0.0074  0.3236  1.7347
  267MOL0     C35945   1.421   6.742   3.330  0.0723  0.4898 -0.8190
  267MOL0     O35946   1.490   6.633   3.373  0.5711  0.1828 -0.2838
  267MOL0     C35947   1.609   6.634   3.457  0.4020 -0.9896 -0.0492
  267MOL0     C35948   1.613   6.624   3.611 -0.7579  0.2955  0.2676
  267MOL0     C35949   1.761   6.617   3.651 -0.2541 -0.7259  0.3528
  267MOL0     C35950   1.832   6.756   3.658 -0.3803 -0.1168  0.4433
  267MOL0     C35951   1.985   6.754   3.651  0.3357  0.4749  0.6766
  267MOL0     C35952   2.037   6.898   3.654 -0.8542 -0.4551  0.8967
  267MOL0     C35953   2.185   6.926   3.661  0.0253 -1.0357 -0.1864
  267MOL0     C35954   2.223   7.074   3.652  0.0474  0.2762 -0.3130
  267MOL0    Cl35955   2.184   7.134   3.484 -0.5553  0.1767 -0.0052
  267MOL0     C35956   1.320   6.708   3.242  1.0185 -0.0207 -0.2959
  267MOL0     C35957   1.229   6.805   3.202 -0.4890  0.3670  0.1244
  267MOL0     O35958   1.073   7.097   3.408 -0.1714  0.4132 -0.0744
  267MOL0     C35959   1.032   7.224   3.079 -0.0122 -0.8988  0.6177
  267MOL0     C35960   0.984   7.340   3.005 -0.1364  0.9326 -0.3037
  267MOL0     N35961   0.878   8.031   3.309  0.0690  0.0721 -0.4330
  267MOL0     N35962   0.868   8.132   3.393  0.4148  0.2146 -0.2778
  267MOL0     C35963   0.816   8.938   4.403 -0.3863  0.5287  0.5481
  267MOL0     C35964   0.763   8.954   4.529  0.5153 -0.2073  0.2274
  267MOL0     C35965   0.565   8.814   4.930  0.1947  0.3302 -0.5131
  267MOL0     C35966   0.593   8.781   5.065  0.3258 -0.5460 -0.4163
  267MOL0     C35967   0.490   8.759   5.155  0.7273 -0.2071  0.0197
  267MOL0     C35968   0.358   8.767   5.111  0.0090 -0.1093  0.2567
  267MOL0     O35969   0.263   8.730   5.203 -0.0234  0.5930  0.4392
  267MOL0     C35970   0.174   8.617   5.157  0.3552  0.0555 -0.4628
  267MOL0     C35971   0.245   8.487   5.124  0.3951 -0.6661  0.8356
  267MOL0     C35972   0.347   8.431   5.231  0.0107 -0.2878 -0.3004
  267MOL0     C35973   0.365   8.277   5.200 -0.5355  0.6140  0.2514
  267MOL0     C35974   0.248   8.194   5.243 -0.4859  0.2131  0.3891
  267MOL0     C35975   0.148   8.135   5.289 -0.6171  1.0420 -0.3993
  267MOL0     C35976   0.331   8.814   4.985 -0.6459 -0.3968 -0.2342
  267MOL0     C35977   0.431   8.844   4.896  0.1559  1.3836 -0.1302
  267MOL0     H35978   0.566   8.671   4.548  1.5122 -2.9034  1.8196
  267MOL0     H35979   0.654   8.647   4.331  2.3322 -1.8360  1.6026
  267MOL0     H35980   0.834   8.621   4.174 -0.0517  0.3333  0.7156
  267MOL0     H35981   0.691   8.695   4.088  0.0325  0.6031  0.6899
  267MOL0     H35982   0.862   8.819   3.939 -0.6020 -0.8343 -0.7559
  267MOL0     H35983   0.995   8.735   4.026  0.3118  0.0934  1.6505
  267MOL0     H35984   0.923   8.523   3.922 -1.1723 -1.2724  0.3574
  267MOL0     H35985   0.775   8.592   3.847  1.5778 -2.8377 -0.7093
  267MOL0     H35986   0.917   8.737   3.701  0.1361  0.6441  0.3995
  267MOL0     H35987   1.052   8.667   3.796 -0.9912 -1.1920  4.3349
  267MOL0     H35988   0.997   8.453   3.697  0.6121  0.3305 -1.2417
  267MOL0     H35989   0.840   8.517   3.642 -0.8406  4.1085 -3.0795
  267MOL0     H35990   0.949   8.648   3.468  1.3271 -2.0012 -2.7934
  267MOL0     H35991   1.111   8.609   3.540  1.1522 -1.2011 -0.5421
  267MOL0     H35992   1.077   8.473   3.341  0.1129  1.6214 -0.1509
  267MOL0     H35993   1.071   8.387   3.488  0.1411  0.6437 -0.4860
  267MOL0     H35994   0.860   8.453   3.291  1.3018  0.3935  0.3348
  267MOL0     H35995   0.804   8.384   3.440  0.8461 -1.6904  1.3470
  267MOL0     H35996   0.990   8.283   3.124 -3.2126  0.4417 -2.9311
  267MOL0     H35997   0.944   8.015   2.984  1.0905  1.8429  0.2422
  267MOL0     H35998   1.098   7.984   3.061 -0.3058 -1.0225 -1.5303
  267MOL0     H35999   0.935   7.809   3.196  1.6576  0.0584 -0.4060
  267MOL0     H36000   1.040   7.783   3.060 -0.4031 -0.1188 -2.2610
  267MOL0     H36001   0.882   7.795   2.909  3.5079  1.0568  1.9873
  267MOL0     H36002   0.765   7.874   3.016  0.7490  1.1039  2.1767
  267MOL0     H36003   0.692   7.631   3.019  1.5423 -1.7946 -1.6528
  267MOL0     H36004   0.783   7.648   3.165 -1.6011 -0.1604 -0.0657
  267MOL0     H36005   0.903   7.538   3.268  0.0275 -0.6099  1.5472
  267MOL0     H36006   0.984   7.472   3.478  1.0849 -1.3980  2.2589
  267MOL0     H36007   0.956   7.298   3.500 -2.9800  0.4822  0.7263
  267MOL0     H36008   1.113   7.350   3.471  0.3680 -1.5973 -0.8538
  267MOL0     H36009   1.339   7.058   3.399  1.7425  1.6608 -0.9054
  267MOL0     H36010   1.513   6.889   3.466 -0.1579 -2.2703  2.5273
  267MOL0     H36011   1.657   6.545   3.416 -2.3087 -2.5355 -0.1443
  267MOL0     H36012   1.674   6.719   3.433  0.4763 -0.4068  2.0398
  267MOL0     H36013   1.569   6.721   3.638 -0.8520  0.5348 -0.6993
  267MOL0     H36014   1.567   6.529   3.639  0.3951 -0.7134 -1.1251
  267MOL0     H36015   1.826   6.563   3.581 -1.6076  0.2727 -1.7969
  267MOL0     H36016   1.766   6.566   3.747 -2.5249  1.1289  1.5766
  267MOL0     H36017   1.814   6.827   3.576 -0.4235  0.2925  0.8022
  267MOL0     H36018   1.803   6.809   3.749 -0.7616  0.6439 -0.1032
  267MOL0     H36019   2.027   6.701   3.565  2.4439 -2.1947  3.1917
  267MOL0     H36020   2.010   6.700   3.742  0.4466 -0.4944  0.0805
  267MOL0     H36021   1.999   6.951   3.566  0.4342  3.9538  2.7203
  267MOL0     H36022   2.006   6.961   3.738  2.3596 -1.1195  2.7631
  267MOL0     H36023   2.248   6.864   3.597  2.4230 -1.4729  2.3937
  267MOL0     H36024   2.213   6.891   3.761  0.0768  0.8064  0.4821
  267MOL0     H36025   2.326   7.105   3.671  1.1134 -3.0511 -0.0646
  267MOL0     H36026   2.160   7.123   3.727  0.2452 -1.7396  1.2657
  267MOL0     H36027   1.312   6.610   3.195  2.0962  0.2629 -1.1119
  267MOL0     H36028   1.150   6.792   3.128  0.7914 -1.2115 -1.0429
  267MOL0     H36029   1.064   7.145   3.011  0.6707  0.5549 -0.8029
  267MOL0     H36030   0.975   7.345   2.897 -0.5743 -1.1874 -0.4088
  267MOL0     H36031   0.872   9.018   4.355 -1.0767 -0.6422 -2.4368
  267MOL0     H36032   0.792   9.040   4.589 -0.1269 -0.5409  1.0435
  267MOL0     H36033   0.695   8.770   5.102  0.8652  0.7047 -1.4468
  267MOL0     H36034   0.507   8.738   5.260  0.0698  1.3039  0.4450
  267MOL0     H36035   0.107   8.603   5.242  0.2955  0.2866 -0.4690
  267MOL0     H36036   0.115   8.645   5.069  0.2872  0.6084 -0.2444
  267MOL0     H36037   0.299   8.507   5.031 -0.4078  1.6959  0.8171
  267MOL0     H36038   0.172   8.407   5.103 -0.1849  0.0239  0.1469
  267MOL0     H36039   0.304   8.439   5.332  0.0205  1.4223 -0.4085
  267MOL0     H36040   0.441   8.486   5.225  0.1964 -0.5620  0.0721
  267MOL0     H36041   0.448   8.221   5.244 -2.3021 -2.0906  0.3712
  267MOL0     H36042   0.380   8.251   5.095  1.0909 -2.1620  1.0541
  267MOL0     H36043   0.058   8.084   5.315 -0.7100  0.7846 -1.1794
  267MOL0     H36044   0.226   8.812   4.956 -0.8593 -2.4205  0.5370
  267MOL0     H36045   0.406   8.873   4.795 -0.4015  0.7938 -0.1691
  268MOL0     O36046   4.107   2.571   5.988 -0.0834 -0.2947  0.2720
  268MOL0     C36047   3.985   2.607   5.991  0.0269  0.7037  0.1316
  268MOL0     O36048   3.875   2.540   6.042 -0.2516  0.2076  0.1504
  268MOL0     C36049   3.887   2.405   6.052  0.0836  0.4420 -0.0864
  268MOL0     C36050   3.850   2.335   6.168 -0.5685  0.9357  0.4545
  268MOL0     C36051   3.841   2.195   6.154 -1.0559  0.0517 -1.0895
  268MOL0     C36052   3.878   2.122   6.042  0.0518 -0.1341 -0.6903
  268MOL0     O36053   3.878   1.981   6.059 -0.2854  0.3245  0.0377
  268MOL0     C36054   3.956   1.916   5.962 -0.3893 -0.2826 -0.5160
  268MOL0     C36055   3.935   1.766   5.971  0.1462 -1.3656 -0.0959
  268MOL0     C36056   3.999   1.702   6.097 -0.4527 -0.4686  0.2949
  268MOL0     C36057   3.983   1.553   6.090 -0.2159 -0.5747  0.5326
  268MOL0     C36058   4.033   1.493   6.230 -1.0271  0.1098 -0.2503
  268MOL0     C36059   4.030   1.349   6.217 -0.3018 -0.0170 -0.3849
  268MOL0     C36060   4.058   1.284   6.356  0.2504 -0.2114  0.0468
  268MOL0     C36061   4.108   1.140   6.323 -0.6514 -0.0093 -0.0795
  268MOL0     N36062   4.159   1.068   6.434 -0.0063 -0.0159  0.1994
  268MOL0     C36063   4.093   1.059   6.553  0.0997  0.1798 -0.0758
  268MOL0     C36064   4.185   1.012   6.640  0.0595 -0.6448  0.1473
  268MOL0     C36065   4.154   0.981   6.786 -0.8061  0.2225 -0.4225
  268MOL0     C36066   4.120   0.837   6.815 -0.6950  0.3383 -0.8941
  268MOL0     C36067   3.966   0.835   6.808  0.0857 -0.4530 -0.0924
  268MOL0     C36068   3.897   0.706   6.858 -0.3528  1.0127  0.5581
  268MOL0     O36069   3.917   0.691   7.000 -0.2888  0.4608  0.4487
  268MOL0     C36070   3.856   0.783   7.084 -1.0336  0.0558 -0.6997
  268MOL0     C36071   3.921   0.822   7.200 -0.1758  0.8750 -0.4700
  268MOL0     C36072   3.871   0.927   7.280  0.5779 -0.6067 -0.4836
  268MOL0     C36073   3.967   0.987   7.378  1.0967  0.0243  0.6809
  268MOL0     C36074   3.742   0.979   7.250  0.1467  0.5933  0.2083
  268MOL0     C36075   3.679   1.094   7.310  0.9695 -0.2358 -0.0353
  268MOL0     O36076   3.545   1.129   7.281 -0.4981  0.7617  0.4951
  268MOL0     C36077   3.474   1.237   7.330 -0.0803  0.2782 -0.4921
  268MOL0     C36078   3.336   1.232   7.347 -0.1081 -0.4873  0.1888
  268MOL0     C36079   3.266   1.346   7.392  0.5780 -0.5426 -0.3578
  268MOL0     C36080   3.326   1.467   7.426 -0.3138 -0.8679 -0.5092
  268MOL0     O36081   3.268   1.588   7.456 -0.7931 -0.2718 -0.5451
  268MOL0     C36082   3.141   1.597   7.523 -0.0766  0.0547  0.3073
  268MOL0     C36083   3.137   1.713   7.623  0.4636 -0.3820 -0.0078
  268MOL0     C36084   3.204   1.843   7.568  0.1715  0.5960  0.2166
  268MOL0     C36085   3.161   1.952   7.663 -0.4401 -0.0922  0.7064
  268MOL0     C36086   3.197   2.094   7.623 -0.2021 -0.2003  0.0855
  268MOL0     C36087   3.146   2.136   7.472 -0.3869  0.7118  0.8414
  268MOL0     C36088   3.143   2.290   7.438  0.7802 -0.0285 -0.3861
  268MOL0     C36089   3.050   2.353   7.541 -0.6413 -1.7165 -0.4525
  268MOL0    Cl36090   3.018   2.529   7.499  0.5432 -0.3944 -0.0174
  268MOL0     C36091   3.463   1.479   7.408 -0.2053  0.0412 -0.6655
  268MOL0     C36092   3.534   1.364   7.358  0.1167 -0.4519  0.9139
  268MOL0     O36093   3.748   1.162   7.387 -0.5826  0.4367 -0.5669
  268MOL0     C36094   3.667   0.926   7.142  0.5031 -0.2205 -0.5588
  268MOL0     C36095   3.717   0.816   7.068 -0.4931  0.0672 -0.1477
  268MOL0     N36096   4.302   0.996   6.565 -0.7905  0.0901 -0.3913
  268MOL0     N36097   4.290   1.036   6.448  0.4171 -0.0932  0.0774
  268MOL0     C36098   3.916   2.200   5.924 -0.2655  0.2547 -0.3281
  268MOL0     C36099   3.929   2.343   5.938 -1.2523  0.7791  0.2958
  268MOL0     C36100   3.955   2.742   5.954  0.4905 -0.8209  0.9835
  268MOL0     C36101   4.049   2.844   5.981  0.1938 -0.3897 -0.2244
  268MOL0     C36102   4.024   2.974   5.952  0.4504 -0.1486 -0.2467
  268MOL0     C36103   3.901   3.010   5.897  1.0481 -0.3750  0.1329
  268MOL0     O36104   3.892   3.143   5.874  0.0746 -0.7680 -0.3556
  268MOL0     C36105   3.761   3.203   5.893  1.0369 -1.0752 -0.4048
  268MOL0     C36106   3.762   3.333   5.810  0.4916 -0.0330 -0.3924
  268MOL0     C36107   3.855   3.437   5.866 -0.3156 -0.1840  0.4556
  268MOL0     C36108   3.811   3.506   5.991 -0.3866 -0.8794  0.4027
  268MOL0     C36109   3.694   3.591   5.965 -0.2434 -0.2501 -0.0506
  268MOL0     C36110   3.591   3.657   5.947 -0.0889  0.6146  0.8875
  268MOL0     C36111   3.800   2.909   5.864 -0.2229  0.4643 -0.5037
  268MOL0     C36112   3.829   2.779   5.896 -0.1917  0.3272  0.3531
  268MOL0     H36113   3.808   2.386   6.254  0.3779 -0.7335  1.9824
  268MOL0     H36114   3.812   2.134   6.238  3.2557 -2.8224 -1.3793
  268MOL0     H36115   3.917   1.948   5.865  0.9486  1.8283 -0.4214
  268MOL0     H36116   4.062   1.943   5.966 -0.6768  1.1750 -1.7650
  268MOL0     H36117   3.826   1.755   5.970 -0.1085  0.6635  0.8722
  268MOL0     H36118   3.971   1.719   5.879 -0.1888  1.1464 -1.5826
  268MOL0     H36119   4.105   1.729   6.089  0.4603 -3.2450  1.7702
  268MOL0     H36120   3.958   1.752   6.185  1.0986  1.2570  0.1135
  268MOL0     H36121   3.883   1.518   6.063  0.2748 -2.0874  0.5501
  268MOL0     H36122   4.053   1.517   6.014  2.1647  1.3273  1.6933
  268MOL0     H36123   4.137   1.520   6.251  0.1964 -3.0254 -1.6737
  268MOL0     H36124   3.976   1.534   6.314 -0.1794 -0.5012  0.6431
  268MOL0     H36125   3.925   1.326   6.198 -1.0993  1.6607  1.5892
  268MOL0     H36126   4.101   1.318   6.140  0.8988  1.4396  0.0828
  268MOL0     H36127   4.131   1.342   6.413  1.0280  1.0409 -2.1408
  268MOL0     H36128   3.964   1.279   6.412  1.0615 -1.3987  1.3720
  268MOL0     H36129   4.185   1.138   6.245 -1.2780 -2.3454 -0.7265
  268MOL0     H36130   4.025   1.075   6.292 -1.0917  1.9681 -3.5797
  268MOL0     H36131   3.991   1.091   6.571 -0.2477 -1.2032  0.5506
  268MOL0     H36132   4.247   1.003   6.839  0.0934  1.2452 -2.2948
  268MOL0     H36133   4.076   1.046   6.825 -1.1914 -0.9315  0.7890
  268MOL0     H36134   4.168   0.808   6.909  3.3925 -1.5385 -3.3201
  268MOL0     H36135   4.160   0.776   6.734 -1.0257  2.8321 -3.0735
  268MOL0     H36136   3.940   0.851   6.703 -0.4539 -0.5538  0.0205
  268MOL0     H36137   3.912   0.909   6.869 -0.0338 -0.2234 -0.4725
  268MOL0     H36138   3.946   0.620   6.811 -1.1790  2.1787 -2.7377
  268MOL0     H36139   3.795   0.693   6.821  0.0734 -1.4022  0.0854
  268MOL0     H36140   4.019   0.778   7.210 -0.7730 -0.8185 -1.6427
  268MOL0     H36141   3.915   1.021   7.468 -0.3121  2.5093 -0.9395
  268MOL0     H36142   4.050   0.918   7.395  0.7071 -0.2349  1.5946
  268MOL0     H36143   3.991   1.083   7.331 -5.3066  1.0643 -1.4816
  268MOL0     H36144   3.280   1.151   7.301 -1.0758  0.4962 -0.4351
  268MOL0     H36145   3.158   1.332   7.398  0.0135  2.3896 -1.8593
  268MOL0     H36146   3.070   1.625   7.444  0.2848 -0.6895 -0.2965
  268MOL0     H36147   3.115   1.507   7.580  2.0701 -0.4351  0.5905
  268MOL0     H36148   3.031   1.737   7.636  0.7104  1.1932 -0.6499
  268MOL0     H36149   3.166   1.686   7.725  0.5211  0.8454  0.3273
  268MOL0     H36150   3.177   1.853   7.462  1.8152 -2.0534 -0.5375
  268MOL0     H36151   3.313   1.834   7.569  0.3849  2.5379 -0.6153
  268MOL0     H36152   3.055   1.937   7.689  0.3782 -1.8748  3.5313
  268MOL0     H36153   3.209   1.924   7.758 -3.7373  0.4045  2.6908
  268MOL0     H36154   3.305   2.094   7.603  0.8128 -4.0988  3.9840
  268MOL0     H36155   3.180   2.167   7.702  2.3526  2.9172 -1.9765
  268MOL0     H36156   3.203   2.094   7.388 -0.4541  0.2618  1.0153
  268MOL0     H36157   3.044   2.099   7.455  0.7144 -0.8468 -4.0103
  268MOL0     H36158   3.118   2.309   7.333  1.0010 -1.3323 -0.6962
  268MOL0     H36159   3.242   2.329   7.464  0.0972  0.5530  1.5060
  268MOL0     H36160   3.092   2.340   7.641 -1.4276 -1.3787 -0.0707
  268MOL0     H36161   2.961   2.290   7.531 -0.6144 -1.6940 -0.8257
  268MOL0     H36162   3.516   1.567   7.441  3.2689 -1.6633 -1.2194
  268MOL0     H36163   3.641   1.379   7.346 -0.1062  2.8195  1.8298
  268MOL0     H36164   3.569   0.967   7.124 -0.0216 -1.0779  0.2327
  268MOL0     H36165   3.659   0.783   6.983  2.8432 -0.5410 -2.4079
  268MOL0     H36166   3.938   2.151   5.830 -0.4527  0.8178 -0.6685
  268MOL0     H36167   3.965   2.397   5.851  1.2617  1.5835  1.7490
  268MOL0     H36168   4.137   2.836   6.044  0.3857  3.5368  0.2473
  268MOL0     H36169   4.086   3.057   5.984 -1.8759  2.2900 -1.6414
  268MOL0     H36170   3.672   3.140   5.879 -0.3059  0.6163  0.1268
  268MOL0     H36171   3.747   3.236   5.997 -1.6325 -0.4527 -0.8712
  268MOL0     H36172   3.660   3.370   5.798  0.8755  1.3987  0.4664
  268MOL0     H36173   3.784   3.315   5.704 -0.4759  3.2050 -1.2571
  268MOL0     H36174   3.881   3.511   5.790  1.2599 -0.4079  0.7596
  268MOL0     H36175   3.951   3.391   5.889  0.7635  1.9640  0.4985
  268MOL0     H36176   3.895   3.570   6.020 -0.8458  1.7080 -3.1720
  268MOL0     H36177   3.796   3.430   6.068 -0.3037  1.1519  2.5275
  268MOL0     H36178   3.503   3.717   5.933 -0.9523 -0.7398  0.1727
  268MOL0     H36179   3.699   2.920   5.824 -1.5144  0.5180  2.4812
  268MOL0     H36180   3.769   2.694   5.865 -1.1654  1.5447 -1.2319
  269MOL0     O36181   7.611   9.728   6.251  0.1974  0.5041 -0.1426
  269MOL0     C36182   7.594   9.650   6.346 -0.4816  0.6119  1.2504
  269MOL0     O36183   7.579   9.677   6.479  0.5175  0.0192 -0.0006
  269MOL0     C36184   7.552   9.810   6.498 -0.5632 -0.2237 -0.1022
  269MOL0     C36185   7.657   9.896   6.519  0.5757  0.5722 -0.8660
  269MOL0     C36186   7.636  10.033   6.519  0.0277  0.1487  0.2393
  269MOL0     C36187   7.505  10.087   6.502 -0.8531 -0.3461  0.7590
  269MOL0     O36188   7.483  10.217   6.535 -0.1154  0.2333 -0.4244
  269MOL0     C36189   7.366  10.246   6.614 -0.0402 -1.3261  0.8577
  269MOL0     C36190   7.385  10.386   6.666  0.5058  0.7347 -0.4641
  269MOL0     C36191   7.522  10.408   6.732  0.1046 -0.4829 -0.6251
  269MOL0     C36192   7.542  10.325   6.860  0.4937 -0.6567  0.6485
  269MOL0     C36193   7.657  10.229   6.859 -0.1548 -0.3851  0.1408
  269MOL0     C36194   7.646  10.106   6.949 -0.1591  0.6607 -1.1895
  269MOL0     C36195   7.777  10.034   6.936  0.0513 -0.0852  0.2743
  269MOL0     C36196   7.813   9.959   7.068 -0.6044  0.1390  0.6015
  269MOL0     N36197   7.939   9.881   7.071  0.1969  0.1625  0.4840
  269MOL0     C36198   8.066   9.930   7.039 -0.3944 -0.6480 -0.8260
  269MOL0     C36199   8.151   9.831   7.053  0.4030  0.5773 -0.1896
  269MOL0     C36200   8.294   9.848   7.047  0.6312  0.4546 -0.6726
  269MOL0     C36201   8.357   9.832   7.186 -0.1290  0.4222  0.9777
  269MOL0     C36202   8.505   9.829   7.193 -0.3663 -0.3877 -0.6372
  269MOL0     C36203   8.567   9.823   7.339 -1.3825 -0.3556  0.1772
  269MOL0     O36204   8.703   9.811   7.303  0.0102 -0.0254 -0.6351
  269MOL0     C36205   8.789   9.779   7.410 -0.3475 -0.4640  0.0252
  269MOL0     C36206   8.917   9.825   7.396  0.1607  0.3152 -0.1995
  269MOL0     C36207   9.018   9.818   7.489  1.0980  0.1915  0.4688
  269MOL0     C36208   9.149   9.885   7.457 -0.0652 -0.1636  0.2930
  269MOL0     C36209   8.995   9.748   7.608 -0.1260  0.7968  0.3324
  269MOL0     C36210   9.091   9.723   7.719 -0.9424  0.1156  0.2921
  269MOL0     O36211   9.221   9.700   7.684 -0.3833  0.4937  0.3729
  269MOL0     C36212   9.307   9.658   7.783  0.9743 -0.7562  0.2001
  269MOL0     C36213   9.295   9.558   7.877 -0.1973 -0.3551 -0.2793
  269MOL0     C36214   9.389   9.533   7.979 -0.7273  0.1993 -0.1426
  269MOL0     C36215   9.496   9.626   7.988 -0.7446 -0.6473  0.4930
  269MOL0     O36216   9.587   9.618   8.093  0.7188  0.6001  0.4209
  269MOL0     C36217   9.649   9.734   8.140 -0.5035 -0.0630 -0.5550
  269MOL0     C36218   9.671   9.708   8.289 -0.0215 -0.9489 -0.3477
  269MOL0     C36219   9.737   9.828   8.371  0.4478 -0.1854  0.0351
  269MOL0     C36220   9.751   9.796   8.520  0.8641 -0.6481  0.4346
  269MOL0     C36221   9.826   9.904   8.592 -0.6425  0.4227 -0.5325
  269MOL0     C36222   9.980   9.888   8.585  0.4749 -0.8033  0.0810
  269MOL0     C36223  10.058   9.993   8.666 -0.4833 -0.1376  0.1234
  269MOL0     C36224  10.021  10.135   8.650  0.4542  0.4174  1.6178
  269MOL0    Cl36225  10.095  10.196   8.496 -0.0326 -0.0564  0.1879
  269MOL0     C36226   9.519   9.726   7.887  0.3238 -0.0881 -0.5365
  269MOL0     C36227   9.423   9.734   7.777 -0.5004  0.2686 -0.7458
  269MOL0     O36228   9.044   9.716   7.833 -0.3452  0.1417  0.7250
  269MOL0     C36229   8.864   9.681   7.611 -0.7275  0.0287 -0.1541
  269MOL0     C36230   8.761   9.701   7.520 -0.2495 -0.1555 -0.7436
  269MOL0     N36231   8.082   9.722   7.103  0.7324  0.5089  0.5308
  269MOL0     N36232   7.951   9.751   7.111 -0.4304 -1.0291  0.0456
  269MOL0     C36233   7.398  10.001   6.485  0.7051 -0.4984 -0.6070
  269MOL0     C36234   7.425   9.861   6.481 -0.5196 -0.4294 -0.2618
  269MOL0     C36235   7.591   9.501   6.319  0.7233  0.3912 -0.5747
  269MOL0     C36236   7.609   9.456   6.186  0.2568  1.5079 -0.2259
  269MOL0     C36237   7.618   9.316   6.158 -1.3713  0.3283 -0.2613
  269MOL0     C36238   7.625   9.220   6.259 -0.4300 -0.3212 -0.7711
  269MOL0     O36239   7.680   9.096   6.223 -0.2681  0.7420  0.2927
  269MOL0     C36240   7.769   9.037   6.311 -0.5649  0.3344 -0.2063
  269MOL0     C36241   7.852   8.939   6.230  0.3631  0.2063 -0.3693
  269MOL0     C36242   7.937   8.839   6.312 -0.2125 -0.0821  0.5734
  269MOL0     C36243   8.067   8.912   6.375 -0.1804 -0.0955  1.1466
  269MOL0     C36244   8.133   8.814   6.464  0.8409 -0.2187 -0.1785
  269MOL0     C36245   8.186   8.762   6.557 -0.3340 -0.8828 -0.0201
  269MOL0     C36246   7.615   9.264   6.396  0.5605  1.0386 -0.4135
  269MOL0     C36247   7.591   9.400   6.416 -0.4268 -0.2629 -0.5907
  269MOL0     H36248   7.756   9.858   6.540 -0.6217 -1.1552  2.4391
  269MOL0     H36249   7.717  10.103   6.541  0.7002 -0.6590  0.3885
  269MOL0     H36250   7.269  10.241   6.563 -0.9031 -0.1548  2.3119
  269MOL0     H36251   7.363  10.167   6.691 -3.4518 -0.9643  1.2633
  269MOL0     H36252   7.373  10.465   6.591  0.3549  2.2431  1.0825
  269MOL0     H36253   7.302  10.400   6.736 -0.7572  0.0050 -1.7468
  269MOL0     H36254   7.600  10.389   6.657  0.5892  0.4242 -0.3638
  269MOL0     H36255   7.534  10.510   6.769  1.7040 -1.3455  1.4751
  269MOL0     H36256   7.547  10.385   6.952 -0.0892  2.6634 -1.3324
  269MOL0     H36257   7.450  10.268   6.877  0.5932 -1.3083 -0.8485
  269MOL0     H36258   7.667  10.189   6.757  1.4812  1.3746 -0.4479
  269MOL0     H36259   7.751  10.280   6.877  0.2189 -0.0687 -2.3474
  269MOL0     H36260   7.624  10.150   7.046 -1.2966  1.7605 -1.9069
  269MOL0     H36261   7.567  10.035   6.922  0.4905  0.2498 -2.0886
  269MOL0     H36262   7.763   9.957   6.859  1.1664 -0.0852  0.0484
  269MOL0     H36263   7.863  10.098   6.914  2.0131 -1.5501  3.0593
  269MOL0     H36264   7.741   9.878   7.084  1.7202 -2.5022 -1.2800
  269MOL0     H36265   7.812  10.042   7.139 -2.6425  0.5332  0.1709
  269MOL0     H36266   8.090  10.035   7.021  1.4056 -0.1309  3.5001
  269MOL0     H36267   8.337   9.771   6.982 -4.4064 -2.5375 -0.9120
  269MOL0     H36268   8.331   9.939   6.998  5.8011  0.3699  2.3322
  269MOL0     H36269   8.328   9.732   7.221 -0.8523 -1.6862 -4.6550
  269MOL0     H36270   8.319   9.908   7.255  0.3149 -0.6510  2.4574
  269MOL0     H36271   8.553   9.914   7.143  1.3663 -0.1571  1.2698
  269MOL0     H36272   8.539   9.739   7.143  0.6010 -2.7296  3.7069
  269MOL0     H36273   8.537   9.730   7.389 -0.1498  0.2875  2.2719
  269MOL0     H36274   8.550   9.914   7.397 -0.6743  0.1534 -0.4041
  269MOL0     H36275   8.944   9.875   7.303  4.5371  1.1458  1.2718
  269MOL0     H36276   9.217   9.808   7.419 -2.1621 -0.5392 -3.1845
  269MOL0     H36277   9.141   9.951   7.370  0.5881 -2.1920 -1.3901
  269MOL0     H36278   9.185   9.942   7.542  0.9135  1.1877 -0.9772
  269MOL0     H36279   9.225   9.482   7.844  0.1867  0.0007 -2.0117
  269MOL0     H36280   9.369   9.452   8.049  1.1135  0.5666  0.8788
  269MOL0     H36281   9.737   9.757   8.079 -0.6702 -1.5951 -1.4169
  269MOL0     H36282   9.592   9.827   8.130 -0.6151 -0.2415 -1.7604
  269MOL0     H36283   9.575   9.676   8.329  0.3104 -0.9662  0.4451
  269MOL0     H36284   9.736   9.621   8.301  0.4827 -0.3940  1.2593
  269MOL0     H36285   9.666   9.910   8.355 -0.3884 -1.3897 -3.2217
  269MOL0     H36286   9.831   9.836   8.316  0.5498 -3.1087 -0.3914
  269MOL0     H36287   9.656   9.773   8.571  1.6111 -1.5556  1.4568
  269MOL0     H36288   9.806   9.702   8.530 -1.1007 -2.0353 -1.0855
  269MOL0     H36289   9.802   9.901   8.699 -0.1525 -0.6065 -0.4369
  269MOL0     H36290   9.799   9.997   8.542 -2.7944 -0.5515 -1.3334
  269MOL0     H36291  10.020   9.789   8.604  0.8163 -0.3402  1.9791
  269MOL0     H36292   9.998   9.912   8.479  0.0417 -0.2956  0.1105
  269MOL0     H36293  10.165   9.972   8.662 -0.6228 -0.6361 -2.0267
  269MOL0     H36294  10.047   9.965   8.771  0.1045  2.0573  0.8382
  269MOL0     H36295  10.055  10.201   8.730  0.0529  4.3537 -1.1016
  269MOL0     H36296   9.912  10.146   8.638  0.4337 -0.9292  0.2471
  269MOL0     H36297   9.618   9.771   7.892  0.7002 -0.9664  0.5164
  269MOL0     H36298   9.454   9.805   7.702 -0.4046  2.6260  1.3879
  269MOL0     H36299   8.854   9.628   7.705  0.7276  2.3879  1.4149
  269MOL0     H36300   8.666   9.656   7.544 -0.8628 -0.1484 -2.9703
  269MOL0     H36301   7.294  10.032   6.477  1.1603  0.9939 -1.1170
  269MOL0     H36302   7.346   9.789   6.464 -0.2979 -1.1452  1.4911
  269MOL0     H36303   7.611   9.526   6.103 -1.8126  0.3198 -1.3645
  269MOL0     H36304   7.648   9.279   6.060 -0.5653 -0.5603  0.3013
  269MOL0     H36305   7.833   9.108   6.364  0.6825 -1.6890  1.1288
  269MOL0     H36306   7.725   8.971   6.386 -0.2918 -2.0275 -1.9923
  269MOL0     H36307   7.917   9.003   6.169 -0.4019 -1.4396 -3.0526
  269MOL0     H36308   7.784   8.877   6.172 -0.2428  0.9845 -0.5136
  269MOL0     H36309   7.969   8.750   6.259  0.3982  0.2536  0.3716
  269MOL0     H36310   7.857   8.803   6.378  0.3398 -2.3401  0.0591
  269MOL0     H36311   8.038   9.003   6.427 -1.7020  1.4177 -2.0468
  269MOL0     H36312   8.135   8.927   6.290 -0.0960 -3.0041  0.5779
  269MOL0     H36313   8.243   8.708   6.630  1.4080  1.3340  0.3870
  269MOL0     H36314   7.616   9.192   6.478 -0.0455  2.5658  0.9969
  269MOL0     H36315   7.580   9.437   6.518 -2.1361  1.6932 -1.4229
  270MOL0     O36316   7.642   1.147   6.536  0.4207  0.5610 -0.2821
  270MOL0     C36317   7.592   1.037   6.498 -0.4891 -0.4266  0.1334
  270MOL0     O36318   7.469   1.014   6.436  0.0945  0.4710  0.5522
  270MOL0     C36319   7.375   1.112   6.415  0.5260  0.0272 -0.1065
  270MOL0     C36320   7.249   1.101   6.472  0.5085 -0.7670 -1.5542
  270MOL0     C36321   7.154   1.208   6.459 -0.4673  0.0950  0.1599
  270MOL0     C36322   7.183   1.322   6.390  0.2904 -1.2962  0.6619
  270MOL0     O36323   7.075   1.414   6.390 -0.4022  0.3410  0.2779
  270MOL0     C36324   7.065   1.514   6.296 -0.6371 -0.3346  0.2050
  270MOL0     C36325   6.948   1.609   6.317 -0.0903 -0.7269 -0.5789
  270MOL0     C36326   6.831   1.530   6.376 -0.5083 -0.5594  0.1856
  270MOL0     C36327   6.704   1.615   6.370  0.8198  0.2791 -0.5001
  270MOL0     C36328   6.574   1.535   6.408 -0.1607  0.8168 -0.1032
  270MOL0     C36329   6.457   1.630   6.375 -0.3719 -0.0097 -0.5088
  270MOL0     C36330   6.318   1.563   6.408 -0.1016 -0.0881 -0.3028
  270MOL0     C36331   6.204   1.659   6.399  0.1122  0.8145  0.4728
  270MOL0     N36332   6.181   1.709   6.267 -0.9871  0.5128  0.2180
  270MOL0     C36333   6.153   1.627   6.157  0.5442  0.2543 -0.0377
  270MOL0     C36334   6.168   1.715   6.056 -1.0849 -0.1317 -1.3560
  270MOL0     C36335   6.177   1.665   5.920  0.8518 -0.5114  0.1935
  270MOL0     C36336   6.316   1.614   5.874  0.5037  0.0901  0.0700
  270MOL0     C36337   6.416   1.730   5.851  0.0052  0.0180 -0.3639
  270MOL0     C36338   6.559   1.666   5.821  1.2215  0.2805  0.3725
  270MOL0     O36339   6.661   1.766   5.849 -0.6365  0.4633 -0.3643
  270MOL0     C36340   6.793   1.734   5.883  0.0881  0.1767  0.7013
  270MOL0     C36341   6.893   1.825   5.880 -0.9125 -0.2207  0.6361
  270MOL0     C36342   7.025   1.801   5.926 -0.3876  0.1593  0.3947
  270MOL0     C36343   7.107   1.920   5.954  0.0859  0.3747  0.6908
  270MOL0     C36344   7.070   1.671   5.938  0.3590  0.6645 -0.3979
  270MOL0     C36345   7.211   1.632   5.956 -0.2885 -0.2192  0.1615
  270MOL0     O36346   7.243   1.496   5.964  0.1463 -0.8653  0.3981
  270MOL0     C36347   7.370   1.460   5.920 -0.2193  0.7389 -1.6619
  270MOL0     C36348   7.391   1.367   5.819  0.0339 -0.0091 -0.1071
  270MOL0     C36349   7.518   1.331   5.776 -0.2617  0.1565  0.3180
  270MOL0     C36350   7.639   1.385   5.837 -0.4344 -0.5098  0.6215
  270MOL0     O36351   7.767   1.358   5.798 -0.8528  0.2289  0.1502
  270MOL0     C36352   7.793   1.294   5.675  1.1232 -0.1534 -0.8664
  270MOL0     C36353   7.804   1.146   5.696  0.4931  0.6577 -0.1389
  270MOL0     C36354   7.875   1.083   5.582 -0.2753 -0.5794  0.2299
  270MOL0     C36355   7.903   0.937   5.600 -0.4361 -0.6627  0.5499
  270MOL0     C36356   7.982   0.873   5.479 -0.5565 -0.3285 -0.7204
  270MOL0     C36357   8.018   0.724   5.510  0.3473  1.4660  0.4532
  270MOL0     C36358   8.131   0.687   5.407  0.4509  0.0525  0.5354
  270MOL0     C36359   8.186   0.545   5.405 -0.3608 -0.3665  0.0452
  270MOL0    Cl36360   8.318   0.529   5.276 -0.2631 -0.3161  0.5807
  270MOL0     C36361   7.618   1.460   5.947  0.0403  0.2714  0.5998
  270MOL0     C36362   7.487   1.505   5.986  0.4959  0.2115  0.2440
  270MOL0     O36363   7.299   1.719   5.961  0.3740 -0.0482  0.4464
  270MOL0     C36364   6.966   1.579   5.939  0.3312  0.3137 -0.1181
  270MOL0     C36365   6.831   1.604   5.919  0.1559  1.1125 -0.4356
  270MOL0     N36366   6.206   1.838   6.099  0.2431  0.3136  0.5085
  270MOL0     N36367   6.195   1.835   6.228 -0.0674  0.2112  0.6461
  270MOL0     C36368   7.304   1.330   6.324  0.5514 -0.5548  0.4784
  270MOL0     C36369   7.406   1.229   6.342 -0.7145 -0.9072  0.6352
  270MOL0     C36370   7.666   0.904   6.540  0.6369 -0.8874  0.2266
  270MOL0     C36371   7.651   0.782   6.474  0.6153 -0.0824 -0.6967
  270MOL0     C36372   7.733   0.670   6.497 -0.1638 -0.5254 -0.3633
  270MOL0     C36373   7.833   0.686   6.592 -0.1792  0.1128 -0.0629
  270MOL0     O36374   7.914   0.581   6.628 -0.0832 -0.8054  0.4435
  270MOL0     C36375   8.020   0.541   6.534 -0.0635 -0.1098 -0.2261
  270MOL0     C36376   8.089   0.410   6.586 -0.2168 -1.0725  0.7218
  270MOL0     C36377   8.187   0.442   6.710  0.0670 -0.2238  0.0207
  270MOL0     C36378   8.192   0.331   6.810  0.9787 -0.2867  0.0635
  270MOL0     C36379   8.288   0.235   6.760  0.3934 -0.2790  0.5661
  270MOL0     C36380   8.373   0.152   6.734 -0.4289  0.2107 -0.8211
  270MOL0     C36381   7.850   0.805   6.665  0.2899  0.7342 -0.4103
  270MOL0     C36382   7.772   0.912   6.632  1.0867 -0.1089  0.2425
  270MOL0     H36383   7.235   1.022   6.545 -2.1710  3.8559  3.6617
  270MOL0     H36384   7.064   1.209   6.520  1.0801 -0.4148  2.5688
  270MOL0     H36385   7.163   1.562   6.298 -0.3821 -0.8207 -0.2102
  270MOL0     H36386   7.049   1.471   6.196  2.3866  1.5495 -1.2651
  270MOL0     H36387   6.971   1.689   6.388 -1.7581 -1.9463  1.4742
  270MOL0     H36388   6.920   1.653   6.221 -0.2992  0.6798  0.1035
  270MOL0     H36389   6.810   1.448   6.308 -3.5567 -0.3912  0.7898
  270MOL0     H36390   6.853   1.495   6.477 -2.0805 -0.3943  0.6118
  270MOL0     H36391   6.719   1.706   6.429  1.7000  1.0486 -1.8732
  270MOL0     H36392   6.687   1.657   6.271 -0.7316  0.4022 -0.2062
  270MOL0     H36393   6.557   1.449   6.342 -3.5969  0.6566  0.8083
  270MOL0     H36394   6.569   1.503   6.513 -0.2664 -0.9190 -0.6053
  270MOL0     H36395   6.473   1.722   6.431 -4.4250  0.3290  0.4305
  270MOL0     H36396   6.463   1.666   6.272  2.7669  2.5238  0.3996
  270MOL0     H36397   6.293   1.474   6.349 -1.2268 -0.3536  0.5418
  270MOL0     H36398   6.313   1.545   6.516 -0.7693  3.0773  0.2988
  270MOL0     H36399   6.204   1.737   6.476 -1.4378  1.2019  0.1121
  270MOL0     H36400   6.105   1.618   6.425  0.5649 -1.2899 -0.8784
  270MOL0     H36401   6.132   1.520   6.152  1.6278  0.0670 -1.3213
  270MOL0     H36402   6.117   1.574   5.911  0.6568 -0.2517 -1.6144
  270MOL0     H36403   6.133   1.741   5.855  1.1928  1.5983  2.2880
  270MOL0     H36404   6.298   1.563   5.778  3.2251  2.4539 -1.8720
  270MOL0     H36405   6.359   1.543   5.944  1.4798  0.9557  0.3595
  270MOL0     H36406   6.415   1.788   5.944  3.6854  2.4806 -1.6310
  270MOL0     H36407   6.378   1.787   5.766 -1.2029 -0.1730  0.0287
  270MOL0     H36408   6.571   1.621   5.722  0.1927 -1.6687  1.0763
  270MOL0     H36409   6.565   1.591   5.900  2.3649 -0.0384  0.0005
  270MOL0     H36410   6.866   1.929   5.868 -0.5710 -0.1674  0.3210
  270MOL0     H36411   7.168   1.916   6.045  0.8834 -3.8695  0.1882
  270MOL0     H36412   7.182   1.933   5.874  0.6720 -1.9082  0.7844
  270MOL0     H36413   7.040   2.005   5.968  0.3374  0.7063 -0.0283
  270MOL0     H36414   7.299   1.322   5.782 -0.0856  1.4832 -1.7621
  270MOL0     H36415   7.524   1.253   5.701  1.9234 -1.0171  1.6202
  270MOL0     H36416   7.715   1.318   5.603 -1.6148 -0.6075  1.7247
  270MOL0     H36417   7.886   1.344   5.644 -0.0423  0.8283 -2.9864
  270MOL0     H36418   7.855   1.119   5.789 -0.8102 -1.4533  0.0182
  270MOL0     H36419   7.704   1.104   5.713  1.0968 -1.1017 -0.7926
  270MOL0     H36420   7.963   1.147   5.564 -2.8981  2.9707 -1.1055
  270MOL0     H36421   7.818   1.105   5.492  1.8989 -0.3651 -1.1609
  270MOL0     H36422   7.963   0.931   5.692  4.1101 -0.4860 -2.0854
  270MOL0     H36423   7.806   0.887   5.612  0.1536 -1.4043  2.8341
  270MOL0     H36424   8.074   0.927   5.456 -1.3620  2.2583  1.5779
  270MOL0     H36425   7.917   0.879   5.392 -0.9172 -0.8606 -0.4992
  270MOL0     H36426   8.051   0.703   5.612 -2.3290  1.0571  1.3149
  270MOL0     H36427   7.927   0.666   5.495  0.6967  1.2692 -0.9971
  270MOL0     H36428   8.222   0.747   5.413  0.6587 -0.4128  2.4241
  270MOL0     H36429   8.089   0.694   5.306  1.0880 -1.9949  0.0778
  270MOL0     H36430   8.222   0.502   5.499  2.2736 -1.6542 -1.4527
  270MOL0     H36431   8.103   0.482   5.373 -1.7133  1.4289 -0.1144
  270MOL0     H36432   7.696   1.506   6.007 -2.4825 -0.2960  4.7774
  270MOL0     H36433   7.481   1.569   6.074  2.4309  0.3455  0.3324
  270MOL0     H36434   7.004   1.481   5.966  1.4306  0.4191 -1.2030
  270MOL0     H36435   6.770   1.515   5.912  3.5087 -1.2740 -2.7006
  270MOL0     H36436   7.334   1.414   6.262  0.3201 -0.8186  0.0001
  270MOL0     H36437   7.505   1.224   6.298 -2.2944 -5.1058 -3.1916
  270MOL0     H36438   7.566   0.770   6.407  0.4149 -1.1312 -0.2812
  270MOL0     H36439   7.732   0.578   6.439  1.2758 -0.8770  0.1122
  270MOL0     H36440   7.973   0.522   6.437 -1.7180 -1.1971  0.7525
  270MOL0     H36441   8.091   0.622   6.512  0.2090 -0.4691 -0.6977
  270MOL0     H36442   8.135   0.364   6.498 -0.3184  1.2789 -0.6537
  270MOL0     H36443   8.018   0.336   6.622 -3.1377  1.0482 -0.3118
  270MOL0     H36444   8.151   0.532   6.762  0.1377 -2.8964  5.4487
  270MOL0     H36445   8.288   0.461   6.675  0.0305  1.5958  0.8185
  270MOL0     H36446   8.090   0.302   6.837  2.0471 -1.9663  2.6536
  270MOL0     H36447   8.233   0.363   6.906  3.3588  0.9449 -1.2614
  270MOL0     H36448   8.448   0.079   6.715 -0.3630  0.5174 -1.8465
  270MOL0     H36449   7.925   0.818   6.742  0.6493 -3.8833  0.3209
  270MOL0     H36450   7.807   1.001   6.684 -0.1592  1.4098 -1.3760
  271MOL0     O36451   1.296   2.926   2.869  0.0335  0.1994 -0.5690
  271MOL0     C36452   1.401   2.956   2.929  1.0920  0.0747  0.5294
  271MOL0     O36453   1.427   2.968   3.062  0.7425  0.4005  0.0473
  271MOL0     C36454   1.323   2.923   3.143 -0.6436  0.6643 -0.0872
  271MOL0     C36455   1.346   2.798   3.210 -0.1222 -0.2025 -0.5808
  271MOL0     C36456   1.263   2.759   3.310  0.3163  0.2616 -0.1194
  271MOL0     C36457   1.143   2.826   3.338  0.2135 -0.0348  0.1243
  271MOL0     O36458   1.066   2.789   3.446 -0.0418  0.8900 -0.2453
  271MOL0     C36459   0.927   2.838   3.460  0.4839  0.2971 -0.1347
  271MOL0     C36460   0.837   2.787   3.349 -0.0158  0.4973  0.1261
  271MOL0     C36461   0.785   2.654   3.370  0.6665 -0.0372 -0.0695
  271MOL0     C36462   0.666   2.638   3.268 -0.4266  0.3325 -0.0258
  271MOL0     C36463   0.594   2.502   3.296  0.3541 -0.9381 -0.4322
  271MOL0     C36464   0.485   2.469   3.188 -0.1567 -0.0866  0.8310
  271MOL0     C36465   0.404   2.350   3.222 -0.4054  0.2613  0.8349
  271MOL0     C36466   0.295   2.308   3.121  0.0732 -0.5968 -0.4889
  271MOL0     N36467   0.190   2.416   3.126 -0.5291 -0.4335 -0.9369
  271MOL0     C36468   0.164   2.488   3.012 -0.2182  0.1487 -0.4298
  271MOL0     C36469   0.040   2.540   3.033 -0.0672 -0.1310 -0.2499
  271MOL0     C36470  -0.044   2.633   2.947 -1.0708 -0.0479  0.0251
  271MOL0     C36471   0.040   2.762   2.907  0.3466  0.7609  0.6055
  271MOL0     C36472  -0.038   2.824   2.780 -0.4342 -0.6367 -0.5376
  271MOL0     C36473  -0.004   2.970   2.753  1.3398 -0.2674 -0.4383
  271MOL0     O36474   0.132   2.989   2.715  0.3346  0.0480 -0.4840
  271MOL0     C36475   0.195   2.914   2.625  1.6323  0.7851  1.4865
  271MOL0     C36476   0.136   2.893   2.499 -0.4014 -0.0332  0.4928
  271MOL0     C36477   0.203   2.811   2.400  0.1507 -0.5131 -0.0558
  271MOL0     C36478   0.134   2.809   2.263  0.3876  0.6405  0.2352
  271MOL0     C36479   0.326   2.749   2.432  0.1953  0.4563  0.7613
  271MOL0     C36480   0.401   2.665   2.334 -0.2823  0.4726 -1.2070
  271MOL0     O36481   0.427   2.538   2.366 -0.5972  0.2155 -0.0616
  271MOL0     C36482   0.355   2.469   2.464 -0.0849  0.6866  0.7677
  271MOL0     C36483   0.216   2.459   2.455 -0.7472 -0.1530 -0.0273
  271MOL0     C36484   0.145   2.415   2.571 -0.5058  1.6898  0.2835
  271MOL0     C36485   0.217   2.353   2.674 -1.0521  0.4979  0.8324
  271MOL0     O36486   0.156   2.292   2.783 -0.2111  0.2238  0.2217
  271MOL0     C36487   0.013   2.274   2.790 -0.3667  0.5580 -0.4307
  271MOL0     C36488  -0.002   2.171   2.888  0.2015  0.9893 -0.8437
  271MOL0     C36489   0.041   2.030   2.850  0.9551  0.4763  0.2051
  271MOL0     C36490   0.014   1.941   2.970 -0.4660  0.2310  1.4982
  271MOL0     C36491   0.047   1.797   2.959 -0.2319  0.1663 -0.0452
  271MOL0     C36492   0.200   1.768   2.987 -0.7385  0.4499  0.1089
  271MOL0     C36493   0.204   1.661   3.105  0.7875  0.5531 -0.0124
  271MOL0     C36494   0.343   1.640   3.153 -1.2926  0.1958  0.0266
  271MOL0    Cl36495   0.433   1.559   3.041 -0.2862 -0.2073  0.2148
  271MOL0     C36496   0.360   2.352   2.678 -0.5740  0.1790  0.0875
  271MOL0     C36497   0.430   2.397   2.562  0.1222 -0.5352 -0.4490
  271MOL0     O36498   0.424   2.706   2.226  1.0791  0.1637 -0.0739
  271MOL0     C36499   0.384   2.766   2.559 -0.0864  0.1950 -0.8625
  271MOL0     C36500   0.314   2.843   2.648 -1.2279 -0.7746  0.0446
  271MOL0     N36501  -0.009   2.497   3.154  0.6716  0.3506  1.5091
  271MOL0     N36502   0.078   2.415   3.209 -0.7757 -0.1351 -0.4105
  271MOL0     C36503   1.112   2.939   3.265 -0.1620 -0.5097 -0.7159
  271MOL0     C36504   1.205   2.987   3.174  0.1065 -0.1702  0.0245
  271MOL0     C36505   1.522   2.981   2.842  0.1593 -0.3070 -0.5838
  271MOL0     C36506   1.505   2.998   2.710  0.0034  1.0254  0.1014
  271MOL0     C36507   1.615   3.016   2.622  0.3776 -0.6824 -0.3076
  271MOL0     C36508   1.749   3.018   2.677  0.6070 -0.0505  0.5259
  271MOL0     O36509   1.857   3.031   2.610 -0.1746  0.1937  0.2785
  271MOL0     C36510   1.870   3.145   2.523 -0.9381 -0.1847  1.0779
  271MOL0     C36511   2.012   3.144   2.458 -1.3768  0.5515 -0.2915
  271MOL0     C36512   2.129   3.150   2.568  0.2443 -0.0352 -0.0143
  271MOL0     C36513   2.253   3.190   2.494 -0.7223 -0.3998 -0.8530
  271MOL0     C36514   2.266   3.325   2.442 -0.5626 -0.0093  0.5492
  271MOL0     C36515   2.287   3.431   2.399 -0.3064 -0.4122 -0.0236
  271MOL0     C36516   1.757   2.989   2.807  0.0994 -0.8442  0.3387
  271MOL0     C36517   1.652   2.962   2.899  0.5321 -0.3083  0.1165
  271MOL0     H36518   1.443   2.749   3.200 -0.9291 -1.6710 -1.5531
  271MOL0     H36519   1.286   2.668   3.365 -0.2742 -0.6685 -1.3640
  271MOL0     H36520   0.886   2.790   3.549  4.3737 -3.6787 -0.1354
  271MOL0     H36521   0.904   2.942   3.483 -0.1447 -0.7106  5.0743
  271MOL0     H36522   0.750   2.852   3.361  0.1529  0.4965  1.4977
  271MOL0     H36523   0.880   2.804   3.249 -0.0669  0.1979  0.0519
  271MOL0     H36524   0.868   2.584   3.360  0.5884 -0.1112 -0.2037
  271MOL0     H36525   0.743   2.648   3.471  0.4337 -0.3216 -0.1832
  271MOL0     H36526   0.603   2.726   3.285 -3.7460 -2.0248  0.9071
  271MOL0     H36527   0.708   2.640   3.167 -0.1690 -1.5608  0.0087
  271MOL0     H36528   0.672   2.429   3.317  1.6715  0.2110 -1.1957
  271MOL0     H36529   0.541   2.506   3.392 -1.3434 -3.1743 -1.1779
  271MOL0     H36530   0.416   2.553   3.176  0.2426  0.4904  2.3319
  271MOL0     H36531   0.537   2.448   3.094 -0.4180 -2.8775  1.2199
  271MOL0     H36532   0.469   2.262   3.220 -0.0413  0.5328  0.5087
  271MOL0     H36533   0.357   2.359   3.321 -0.9063  0.3475  0.5923
  271MOL0     H36534   0.264   2.205   3.141 -1.0099  0.1099  1.8005
  271MOL0     H36535   0.337   2.303   3.020  0.8454 -1.2766 -0.1535
  271MOL0     H36536   0.214   2.501   2.917 -1.5531  1.5982 -0.9799
  271MOL0     H36537  -0.084   2.572   2.866  0.7409  1.5069 -2.1552
  271MOL0     H36538  -0.127   2.667   3.009 -2.3557 -0.0278 -1.6514
  271MOL0     H36539   0.145   2.732   2.892  0.2366 -0.2499  1.6942
  271MOL0     H36540   0.052   2.830   2.992  1.1218  2.9078 -1.1378
  271MOL0     H36541  -0.146   2.813   2.794 -0.3043  0.6431  2.2054
  271MOL0     H36542  -0.013   2.756   2.699 -0.8989 -0.1304 -1.1154
  271MOL0     H36543  -0.009   3.021   2.849  0.4992  2.2694 -1.7503
  271MOL0     H36544  -0.070   3.015   2.678  1.0499 -0.1371 -0.1034
  271MOL0     H36545   0.045   2.943   2.468 -1.2659 -1.5693  0.4427
  271MOL0     H36546   0.171   2.885   2.193  1.7008  0.2892  0.5186
  271MOL0     H36547   0.162   2.712   2.220  1.3126  0.6051  0.8813
  271MOL0     H36548   0.026   2.808   2.279  0.8447 -0.6655  4.6354
  271MOL0     H36549   0.165   2.509   2.374  0.7139  0.7373 -0.4503
  271MOL0     H36550   0.038   2.408   2.557 -0.1624 -3.5859 -1.9943
  271MOL0     H36551  -0.039   2.368   2.810  1.9583  1.5676  1.4455
  271MOL0     H36552  -0.021   2.235   2.693 -2.7180  3.2331 -0.7994
  271MOL0     H36553   0.035   2.206   2.985  0.2886 -0.2768 -0.4035
  271MOL0     H36554  -0.111   2.171   2.901  0.0375 -0.0520 -2.0350
  271MOL0     H36555   0.149   2.024   2.832  0.7800  2.7020 -2.2347
  271MOL0     H36556  -0.003   1.995   2.756  1.1308 -0.9761  0.6328
  271MOL0     H36557   0.053   1.976   3.066  2.5506 -2.0728  1.2665
  271MOL0     H36558  -0.095   1.930   2.974 -0.6642  1.2793 -0.1958
  271MOL0     H36559   0.021   1.760   2.859  1.3506  2.3133 -1.3505
  271MOL0     H36560  -0.016   1.747   3.032  0.0698  0.1681  0.2178
  271MOL0     H36561   0.255   1.736   2.897 -1.7022 -0.0246 -0.3225
  271MOL0     H36562   0.254   1.862   3.001  2.4220 -0.8073 -2.3427
  271MOL0     H36563   0.167   1.564   3.071  1.2307  1.0934 -2.1935
  271MOL0     H36564   0.140   1.690   3.189  0.4221 -0.2616  0.0002
  271MOL0     H36565   0.335   1.576   3.241 -0.8097  0.0760 -0.0130
  271MOL0     H36566   0.393   1.734   3.182 -5.1578  2.4387  0.0752
  271MOL0     H36567   0.411   2.318   2.768  3.3680 -2.2997 -2.7412
  271MOL0     H36568   0.536   2.381   2.549  0.3202  0.1896  0.2027
  271MOL0     H36569   0.471   2.708   2.589  1.9227  3.4873  0.1363
  271MOL0     H36570   0.356   2.836   2.748 -2.2551 -1.6060  0.4369
  271MOL0     H36571   1.037   3.008   3.302  2.1170  2.0359 -0.5151
  271MOL0     H36572   1.181   3.065   3.103  0.5897 -0.7715 -0.8126
  271MOL0     H36573   1.410   3.002   2.658 -1.2866  1.1644  2.3122
  271MOL0     H36574   1.595   3.016   2.515  2.6419 -0.7903 -0.7970
  271MOL0     H36575   1.799   3.150   2.440  3.2814  0.7307 -2.9238
  271MOL0     H36576   1.853   3.241   2.573  3.1525  1.1112  0.3975
  271MOL0     H36577   2.032   3.222   2.384  1.4444  0.3332  0.1277
  271MOL0     H36578   2.022   3.049   2.405  1.7116  1.2810 -1.2177
  271MOL0     H36579   2.137   3.056   2.622  2.1208  1.5454  2.7429
  271MOL0     H36580   2.104   3.219   2.650  0.1241 -0.3678  0.2300
  271MOL0     H36581   2.274   3.119   2.414 -0.0896  0.1593 -1.1956
  271MOL0     H36582   2.336   3.184   2.566 -3.2356 -0.1329  2.2952
  271MOL0     H36583   2.316   3.528   2.367  1.4372 -0.7460  0.4681
  271MOL0     H36584   1.855   3.005   2.850 -0.1958 -3.0816  2.0472
  271MOL0     H36585   1.676   2.940   3.002  3.0657  1.8441  0.0598
  272MOL0     O36586   4.151   0.891   8.851 -1.0477  0.6778 -0.6422
  272MOL0     C36587   4.113   0.966   8.936 -0.4550 -0.0735  0.5247
  272MOL0     O36588   4.024   0.934   9.043 -0.2000 -0.4901  0.1224
  272MOL0     C36589   4.024   0.822   9.124  0.5743  0.2742 -0.2833
  272MOL0     C36590   3.901   0.788   9.181 -0.4381  0.4464 -1.0455
  272MOL0     C36591   3.900   0.688   9.280 -0.3955 -0.8590  0.3798
  272MOL0     C36592   4.015   0.605   9.294 -0.6275 -0.2278 -0.4081
  272MOL0     O36593   4.026   0.498   9.374  0.0155 -0.0759 -0.1659
  272MOL0     C36594   3.920   0.449   9.453 -0.0143  0.5106 -0.4494
  272MOL0     C36595   3.933   0.290   9.496  0.4586 -0.2173 -0.2247
  272MOL0     C36596   3.809   0.215   9.473  0.8817  0.1142 -0.0422
  272MOL0     C36597   3.779   0.133   9.601 -0.6237  1.8523  0.6239
  272MOL0     C36598   3.663   0.049   9.571  1.1443 -1.0883  0.0091
  272MOL0     C36599   3.615  -0.040   9.697 -0.5410  0.3651 -0.8319
  272MOL0     C36600   3.510  -0.145   9.659  0.0861  0.2192  0.2552
  272MOL0     C36601   3.454  -0.224   9.782 -0.0054  0.7677 -0.0077
  272MOL0     N36602   3.378  -0.344   9.732 -0.2134 -0.4115 -0.1088
  272MOL0     C36603   3.244  -0.372   9.759 -0.5910 -1.3958 -0.4345
  272MOL0     C36604   3.232  -0.498   9.715  0.2745  0.3565 -1.0072
  272MOL0     C36605   3.108  -0.580   9.699  1.2510 -0.0888  0.5076
  272MOL0     C36606   3.099  -0.650   9.561  0.3516 -0.2913 -0.4200
  272MOL0     C36607   2.955  -0.697   9.533 -0.0892 -0.0908 -0.8380
  272MOL0     C36608   2.905  -0.828   9.586 -0.6836 -0.3502 -0.2639
  272MOL0     O36609   2.802  -0.883   9.501  0.1594  0.5238 -0.7392
  272MOL0     C36610   2.673  -0.890   9.552 -0.1560 -0.0304 -0.8857
  272MOL0     C36611   2.570  -0.934   9.465 -0.9974 -1.0663  0.1760
  272MOL0     C36612   2.437  -0.954   9.504 -0.2272 -0.0196 -0.6426
  272MOL0     C36613   2.343  -1.001   9.392  0.9596 -0.3151  0.4585
  272MOL0     C36614   2.400  -0.940   9.645 -0.3345 -0.0416  0.4861
  272MOL0     C36615   2.266  -0.978   9.703  0.2230  0.1878  0.8253
  272MOL0     O36616   2.254  -0.956   9.835  0.7022  0.0495  0.3378
  272MOL0     C36617   2.140  -0.973   9.909  0.3286  0.3286  0.9228
  272MOL0     C36618   2.007  -0.997   9.859 -1.4784 -0.8583 -0.0241
  272MOL0     C36619   1.900  -1.009   9.950 -0.4313  0.3693 -0.1068
  272MOL0     C36620   1.924  -1.014  10.091 -1.0149  0.8659  0.2790
  272MOL0     O36621   1.826  -1.040  10.184  0.5176  0.5396  0.5476
  272MOL0     C36622   1.703  -1.113  10.153  0.1865  0.4189 -0.0246
  272MOL0     C36623   1.572  -1.026  10.122  0.3107  0.5130  0.0674
  272MOL0     C36624   1.549  -0.906  10.203 -0.1944 -0.3839  0.7770
  272MOL0     C36625   1.513  -0.945  10.350 -0.1373  0.8959  0.0421
  272MOL0     C36626   1.485  -0.831  10.452 -0.4007  0.1947 -0.3278
  272MOL0     C36627   1.589  -0.716  10.436 -0.4473  0.0192 -0.8287
  272MOL0     C36628   1.732  -0.756  10.490 -0.3362 -0.9402 -0.0919
  272MOL0     C36629   1.847  -0.662  10.463  0.7075  0.4683 -0.8436
  272MOL0    Cl36630   1.878  -0.663  10.289  0.5973 -0.3118 -0.2648
  272MOL0     C36631   2.053  -0.989  10.138 -0.1327  0.6302 -0.7232
  272MOL0     C36632   2.160  -0.980  10.049  0.7895  1.0665  0.0853
  272MOL0     O36633   2.189  -1.039   9.630 -0.0706  0.6119  0.7889
  272MOL0     C36634   2.501  -0.896   9.730 -1.1870 -0.3243 -0.1129
  272MOL0     C36635   2.634  -0.879   9.688  0.0137 -0.7079 -0.2470
  272MOL0     N36636   3.353  -0.548   9.678 -0.9773  0.2765  0.7860
  272MOL0     N36637   3.446  -0.454   9.683 -1.0753 -0.1031  0.1446
  272MOL0     C36638   4.138   0.633   9.228  0.3940  0.0224 -0.7272
  272MOL0     C36639   4.140   0.744   9.141 -0.1423  0.2940  0.0713
  272MOL0     C36640   4.117   1.111   8.899 -0.1881  1.2187  0.9240
  272MOL0     C36641   4.203   1.162   8.804 -0.5002  0.6796  0.3406
  272MOL0     C36642   4.210   1.289   8.770  0.7580 -0.5019 -0.4344
  272MOL0     C36643   4.116   1.378   8.833 -0.2745 -0.9792 -0.2998
  272MOL0     O36644   4.087   1.511   8.809  0.5195 -0.0029 -0.4070
  272MOL0     C36645   4.155   1.586   8.706 -0.7243  0.2358 -0.0430
  272MOL0     C36646   4.274   1.668   8.766 -0.5525  0.4137  0.2087
  272MOL0     C36647   4.231   1.810   8.796 -0.0898  0.2239  0.4713
  272MOL0     C36648   4.242   1.892   8.663 -0.0644 -0.0305  0.3289
  272MOL0     C36649   4.136   1.997   8.647  0.1585  0.5934  0.0300
  272MOL0     C36650   4.041   2.075   8.652  0.2698 -0.8558  0.1472
  272MOL0     C36651   4.021   1.333   8.923  0.5652 -0.2071  0.2103
  272MOL0     C36652   4.027   1.200   8.963 -0.0769 -0.3716  0.3886
  272MOL0     H36653   3.804   0.836   9.172 -1.9737 -1.3801  2.9739
  272MOL0     H36654   3.810   0.667   9.337 -2.0241 -0.2276 -1.7966
  272MOL0     H36655   3.906   0.501   9.548 -4.0690 -0.3006 -0.4064
  272MOL0     H36656   3.824   0.471   9.406 -1.6824  0.8419  2.8242
  272MOL0     H36657   4.024   0.248   9.452  3.2055  2.2957  2.5088
  272MOL0     H36658   3.955   0.276   9.602  2.3126 -2.2274 -0.8089
  272MOL0     H36659   3.722   0.280   9.457 -0.1319 -1.1837 -0.0207
  272MOL0     H36660   3.827   0.147   9.389  3.3696  0.6046  0.0115
  272MOL0     H36661   3.860   0.061   9.616 -3.0642 -1.8138 -1.9323
  272MOL0     H36662   3.760   0.195   9.689  0.1307  3.2057 -0.1375
  272MOL0     H36663   3.576   0.113   9.554  0.6169 -1.7270  0.2788
  272MOL0     H36664   3.676  -0.019   9.487  3.4559 -1.0257  0.2622
  272MOL0     H36665   3.699  -0.077   9.756  0.0959  4.7405  1.4440
  272MOL0     H36666   3.577   0.036   9.766  0.0383  2.1903 -2.4032
  272MOL0     H36667   3.436  -0.082   9.608  0.9598  1.6515  0.7020
  272MOL0     H36668   3.549  -0.218   9.587  1.5117  0.4074  0.8058
  272MOL0     H36669   3.383  -0.166   9.843 -1.4973 -1.0107  0.0532
  272MOL0     H36670   3.540  -0.257   9.841  1.1441  0.7608 -1.6165
  272MOL0     H36671   3.165  -0.304   9.791  1.4170 -0.4817  3.1265
  272MOL0     H36672   3.105  -0.658   9.775  1.4195  0.7639  1.4142
  272MOL0     H36673   3.019  -0.516   9.703  2.1346  1.2925 -0.5589
  272MOL0     H36674   3.174  -0.730   9.557  1.4041  0.6790 -0.3451
  272MOL0     H36675   3.124  -0.573   9.488 -0.7750 -0.2310 -0.7660
  272MOL0     H36676   2.951  -0.704   9.424  0.7284 -2.7926 -0.7836
  272MOL0     H36677   2.898  -0.607   9.557  0.5076 -0.1374  0.9081
  272MOL0     H36678   2.874  -0.819   9.691  1.8163 -2.3250  0.7611
  272MOL0     H36679   2.989  -0.895   9.605  0.8100  1.0477 -1.6053
  272MOL0     H36680   2.607  -0.941   9.363  4.9940  0.5010  1.8518
  272MOL0     H36681   2.378  -0.987   9.289  2.2445 -1.6465  0.6800
  272MOL0     H36682   2.319  -1.108   9.401  0.7335 -0.2623  0.5029
  272MOL0     H36683   2.251  -0.941   9.396  0.2436 -1.1904 -1.4314
  272MOL0     H36684   1.983  -0.996   9.753 -3.2889  1.8101  0.2995
  272MOL0     H36685   1.799  -1.029   9.914 -0.3477  0.7311 -0.5430
  272MOL0     H36686   1.723  -1.194  10.084 -5.0015 -3.2676  2.1646
  272MOL0     H36687   1.683  -1.177  10.240  1.3661 -1.4291 -1.0508
  272MOL0     H36688   1.569  -0.998  10.017  1.5900  3.4033  0.6963
  272MOL0     H36689   1.481  -1.086  10.135  0.5332  0.1075 -0.2412
  272MOL0     H36690   1.479  -0.847  10.144  0.8561 -0.9505 -1.1040
  272MOL0     H36691   1.637  -0.840  10.207 -0.0958 -0.3891 -0.8646
  272MOL0     H36692   1.424  -1.009  10.353  1.1811 -0.9520  1.8109
  272MOL0     H36693   1.596  -1.003  10.391 -2.0679 -0.9037  1.6790
  272MOL0     H36694   1.488  -0.880  10.550  2.9256 -1.5290 -1.1311
  272MOL0     H36695   1.386  -0.787  10.438  0.8395  3.3633 -0.0250
  272MOL0     H36696   1.595  -0.663  10.341 -2.5530 -3.2023 -2.9416
  272MOL0     H36697   1.550  -0.643  10.508  0.7819 -1.1511  1.1374
  272MOL0     H36698   1.762  -0.853  10.451 -0.7864 -0.6363 -1.2243
  272MOL0     H36699   1.731  -0.765  10.599  4.0859 -3.8443 -0.0247
  272MOL0     H36700   1.943  -0.691  10.506  0.9374  2.5181  0.1187
  272MOL0     H36701   1.816  -0.566  10.505 -2.6114 -0.0548 -1.7526
  272MOL0     H36702   2.062  -0.967  10.244 -1.7191 -1.9246  0.0500
  272MOL0     H36703   2.256  -0.948  10.090  1.0011  1.6471 -0.8153
  272MOL0     H36704   2.483  -0.878   9.836  0.5251 -0.6157  0.2533
  272MOL0     H36705   2.703  -0.845   9.764  0.9103 -1.8956 -0.5044
  272MOL0     H36706   4.225   0.571   9.242  0.9334  0.6876 -1.0407
  272MOL0     H36707   4.237   0.771   9.099 -1.1352  1.6432 -1.5216
  272MOL0     H36708   4.265   1.093   8.748 -2.2468  0.7358 -1.8141
  272MOL0     H36709   4.287   1.335   8.709 -0.7157  4.0852  0.7882
  272MOL0     H36710   4.197   1.522   8.628 -4.8278 -1.4795 -1.0964
  272MOL0     H36711   4.089   1.661   8.662  1.3301  1.6480 -0.8651
  272MOL0     H36712   4.354   1.673   8.692 -3.2841  1.6751 -2.9426
  272MOL0     H36713   4.311   1.618   8.856 -1.3651  1.6565  1.2778
  272MOL0     H36714   4.309   1.843   8.865 -0.8797 -0.6971  1.8438
  272MOL0     H36715   4.139   1.803   8.854 -0.2632 -1.0172  0.0620
  272MOL0     H36716   4.255   1.827   8.576  1.5666  0.6432  0.0263
  272MOL0     H36717   4.337   1.946   8.668 -0.8473  1.8001 -2.4194
  272MOL0     H36718   3.955   2.138   8.663  1.0075  0.3270 -0.6578
  272MOL0     H36719   3.952   1.408   8.960  0.6832 -0.9543  2.0191
  272MOL0     H36720   3.969   1.178   9.052  0.0573  0.9229  0.8146
  273MOL0     O36721  10.950   0.619   8.633 -0.8657 -0.4421  0.8078
  273MOL0     C36722  10.900   0.632   8.743  0.1436 -0.7111 -0.7103
  273MOL0     O36723  10.968   0.646   8.861 -0.9023 -0.3412  0.2711
  273MOL0     C36724  11.106   0.657   8.859  0.5074 -0.3168 -0.5104
  273MOL0     C36725  11.173   0.589   8.958 -0.9861 -0.3952 -0.0211
  273MOL0     C36726  11.312   0.587   8.960 -0.3340  0.0340 -0.0025
  273MOL0     C36727  11.385   0.672   8.878  0.2204  0.6282  0.1190
  273MOL0     O36728  11.526   0.672   8.894 -0.0664 -0.4797 -0.1412
  273MOL0     C36729  11.614   0.737   8.792  0.5481  0.2224  0.3297
  273MOL0     C36730  11.627   0.657   8.664  0.2955  0.3028  1.3018
  273MOL0     C36731  11.676   0.519   8.692 -0.5127 -0.8875 -0.2094
  273MOL0     C36732  11.825   0.518   8.729 -0.5354 -0.0991 -0.4593
  273MOL0     C36733  11.878   0.377   8.754  0.5803 -0.0303 -0.7114
  273MOL0     C36734  11.859   0.270   8.640 -0.2046 -0.7980  0.0222
  273MOL0     C36735  11.894   0.132   8.674  0.4363 -0.3795  0.1980
  273MOL0     C36736  11.835   0.089   8.810 -0.2880  0.2499  0.1828
  273MOL0     N36737  11.859  -0.057   8.820  0.0698 -0.5640  0.0312
  273MOL0     C36738  11.980  -0.111   8.855  0.2318  0.4458 -0.8225
  273MOL0     C36739  11.959  -0.245   8.851 -0.3427  0.4460  0.5452
  273MOL0     C36740  12.038  -0.360   8.899  1.3162 -0.2109  0.6954
  273MOL0     C36741  12.170  -0.378   8.820  0.1581  0.6844  0.4772
  273MOL0     C36742  12.118  -0.417   8.674  0.3993 -0.3172  0.1140
  273MOL0     C36743  12.240  -0.454   8.590 -1.3276  0.2998 -0.7379
  273MOL0     O36744  12.282  -0.577   8.630 -0.3619  0.0752  1.0821
  273MOL0     C36745  12.256  -0.675   8.541  0.2944  0.0767  1.0817
  273MOL0     C36746  12.137  -0.694   8.466 -0.2362 -0.8272  0.1565
  273MOL0     C36747  12.115  -0.793   8.368 -0.5886 -0.5521 -0.3937
  273MOL0     C36748  11.980  -0.800   8.301 -0.5802  0.9515 -0.0938
  273MOL0     C36749  12.230  -0.871   8.330  0.1395  0.6600 -0.3894
  273MOL0     C36750  12.233  -0.966   8.212  0.9338 -0.3922  0.3758
  273MOL0     O36751  12.355  -0.987   8.160 -0.1508 -0.3111  0.2036
  273MOL0     C36752  12.364  -1.071   8.047 -1.1153  0.6715  0.1266
  273MOL0     C36753  12.307  -1.045   7.923  0.6423 -0.1847 -0.5663
  273MOL0     C36754  12.310  -1.142   7.825  0.2595  0.4348 -0.3143
  273MOL0     C36755  12.370  -1.267   7.848 -0.4436 -0.5747  0.1391
  273MOL0     O36756  12.369  -1.365   7.756  0.2908  1.0163  0.3632
  273MOL0     C36757  12.483  -1.452   7.748 -0.2802  0.6228  0.0780
  273MOL0     C36758  12.490  -1.517   7.614  1.2572  0.1471 -0.0384
  273MOL0     C36759  12.621  -1.589   7.592  0.3809  0.7974  0.2673
  273MOL0     C36760  12.640  -1.705   7.697 -0.4977 -1.1174  0.2415
  273MOL0     C36761  12.773  -1.782   7.667  0.7159 -0.1137  0.5532
  273MOL0     C36762  12.787  -1.895   7.761  0.4149  0.6143  0.0165
  273MOL0     C36763  12.919  -1.961   7.760 -0.4600  0.2099  0.9064
  273MOL0     C36764  12.928  -2.092   7.840  0.2409 -0.2813  0.2943
  273MOL0    Cl36765  12.903  -2.223   7.719 -0.0427 -0.1512 -0.0966
  273MOL0     C36766  12.422  -1.295   7.976 -0.6801 -0.2737  0.3234
  273MOL0     C36767  12.434  -1.194   8.072  0.2191  0.7504  0.0059
  273MOL0     O36768  12.130  -1.004   8.161  0.0465  0.4710  0.0455
  273MOL0     C36769  12.360  -0.843   8.390 -0.1030  0.6124 -0.2953
  273MOL0     C36770  12.365  -0.746   8.489  0.2990 -0.0471  0.1308
  273MOL0     N36771  11.827  -0.262   8.810 -0.0177 -1.2335  0.1931
  273MOL0     N36772  11.771  -0.154   8.803  0.4807 -0.1044  0.1170
  273MOL0     C36773  11.314   0.748   8.782  0.6018  0.8998  0.3290
  273MOL0     C36774  11.176   0.740   8.777  0.1717  0.3155 -0.8915
  273MOL0     C36775  10.753   0.622   8.745  0.2867  0.2330  0.4745
  273MOL0     C36776  10.684   0.614   8.866  0.4114 -0.4336  0.6696
  273MOL0     C36777  10.544   0.608   8.870  0.3887 -0.5584 -0.2124
  273MOL0     C36778  10.470   0.629   8.756  0.3147 -0.3599  1.0025
  273MOL0     O36779  10.334   0.615   8.739 -0.0066  0.3463  0.2204
  273MOL0     C36780  10.267   0.557   8.844  0.7859 -0.6825 -0.2470
  273MOL0     C36781  10.278   0.403   8.820 -0.7009  0.0927  1.0430
  273MOL0     C36782  10.189   0.366   8.699 -0.3538 -0.1914 -0.1582
  273MOL0     C36783  10.194   0.217   8.652  0.4378  0.8672  0.1580
  273MOL0     C36784  10.094   0.182   8.549 -0.3591 -0.6218 -0.6162
  273MOL0     C36785  10.012   0.145   8.468 -0.3755 -0.4064  0.1396
  273MOL0     C36786  10.540   0.649   8.635 -0.4808  0.5082 -0.8941
  273MOL0     C36787  10.677   0.641   8.629  0.7160  0.0615 -0.1752
  273MOL0     H36788  11.115   0.534   9.031  0.5521  0.7968  2.2414
  273MOL0     H36789  11.370   0.537   9.037  0.6902  0.0686 -0.7466
  273MOL0     H36790  11.583   0.838   8.764 -1.7753 -1.1144 -2.5626
  273MOL0     H36791  11.713   0.747   8.837  0.7727  0.8400 -0.2803
  273MOL0     H36792  11.537   0.653   8.601  1.9155  0.3893 -1.1528
  273MOL0     H36793  11.699   0.710   8.601 -1.6547 -0.1309 -1.4767
  273MOL0     H36794  11.616   0.475   8.773  4.5013 -2.3396  3.2018
  273MOL0     H36795  11.655   0.480   8.592  2.2049  0.8391 -1.5517
  273MOL0     H36796  11.877   0.551   8.639  1.9080 -0.9592  0.5690
  273MOL0     H36797  11.862   0.581   8.811  0.9429 -1.0384 -0.3828
  273MOL0     H36798  11.983   0.386   8.784  0.0864 -1.6015  1.7705
  273MOL0     H36799  11.823   0.350   8.845 -0.8899  3.4296 -0.4310
  273MOL0     H36800  11.753   0.272   8.616 -0.4162  0.5367  0.9156
  273MOL0     H36801  11.918   0.296   8.552 -1.4045 -0.0331 -0.5700
  273MOL0     H36802  11.848   0.057   8.609 -0.3338 -1.0458  1.4721
  273MOL0     H36803  12.003   0.135   8.662  0.2104  0.4841 -2.1318
  273MOL0     H36804  11.728   0.101   8.794 -0.5992  0.9210  2.3983
  273MOL0     H36805  11.863   0.155   8.893  2.0008  0.8511 -0.9849
  273MOL0     H36806  12.077  -0.074   8.886 -0.7024  0.9923  1.7280
  273MOL0     H36807  12.043  -0.358   9.008  4.3928 -0.6743  0.6511
  273MOL0     H36808  11.985  -0.454   8.882  3.2657 -2.5024  5.4604
  273MOL0     H36809  12.234  -0.455   8.863  0.3727  1.7962  2.2482
  273MOL0     H36810  12.227  -0.285   8.827  1.4313 -0.0509  0.2267
  273MOL0     H36811  12.083  -0.323   8.631  4.0792  1.6164  0.8578
  273MOL0     H36812  12.042  -0.496   8.673 -1.4534  1.3939 -1.3794
  273MOL0     H36813  12.326  -0.389   8.609  0.4542 -1.8815 -1.0280
  273MOL0     H36814  12.213  -0.454   8.484 -0.9503  0.0655 -0.8357
  273MOL0     H36815  12.055  -0.629   8.495 -2.7138 -3.4134 -0.6518
  273MOL0     H36816  11.997  -0.801   8.193 -2.2922  0.8794 -0.3924
  273MOL0     H36817  11.932  -0.896   8.319  1.2088  0.1396  0.5519
  273MOL0     H36818  11.913  -0.719   8.334 -0.8917  0.4498  0.5204
  273MOL0     H36819  12.262  -0.947   7.908 -0.0059  0.0478  2.3135
  273MOL0     H36820  12.263  -1.113   7.732  0.9508 -1.6380 -1.3507
  273MOL0     H36821  12.572  -1.391   7.764  0.2085  0.0005 -0.2406
  273MOL0     H36822  12.483  -1.531   7.824 -1.1763  1.5464  1.0606
  273MOL0     H36823  12.409  -1.591   7.613  0.4675  0.8370  2.8998
  273MOL0     H36824  12.470  -1.442   7.538 -1.3691  1.1817  1.5592
  273MOL0     H36825  12.699  -1.513   7.598 -0.5240  1.7223  0.5935
  273MOL0     H36826  12.629  -1.628   7.490  2.8703 -0.1040  0.7474
  273MOL0     H36827  12.660  -1.679   7.802 -0.6111  0.2662 -0.0614
  273MOL0     H36828  12.550  -1.766   7.696  0.4355 -2.6194  2.0674
  273MOL0     H36829  12.856  -1.713   7.682 -0.5999  1.4418  1.0165
  273MOL0     H36830  12.760  -1.817   7.564 -1.2021  0.0432  0.6961
  273MOL0     H36831  12.758  -1.860   7.861  0.6708  0.0844  0.2812
  273MOL0     H36832  12.705  -1.964   7.738  0.9174  0.4619 -1.4304
  273MOL0     H36833  13.000  -1.892   7.783  0.8804  0.1336 -2.8871
  273MOL0     H36834  12.924  -1.992   7.655 -3.8053 -2.7593  1.4281
  273MOL0     H36835  12.858  -2.107   7.922 -2.4064  0.6297 -1.6425
  273MOL0     H36836  13.031  -2.106   7.875  0.1827 -0.2430  0.4771
  273MOL0     H36837  12.457  -1.395   8.002  2.0468  0.4741 -0.1099
  273MOL0     H36838  12.492  -1.203   8.164 -1.9440  3.1668  1.7454
  273MOL0     H36839  12.439  -0.913   8.362  0.1676  1.3420 -1.4104
  273MOL0     H36840  12.466  -0.735   8.526  0.8222 -2.1316 -0.5340
  273MOL0     H36841  11.361   0.823   8.719 -0.1607  0.5435 -0.6794
  273MOL0     H36842  11.125   0.812   8.713 -0.1910  0.9628  0.0937
  273MOL0     H36843  10.737   0.602   8.960  1.4789 -0.2000  0.1078
  273MOL0     H36844  10.491   0.582   8.961 -0.6926  0.3766 -0.5500
  273MOL0     H36845  10.290   0.584   8.948 -4.3975  0.8249  0.7850
  273MOL0     H36846  10.162   0.588   8.840  0.8292 -0.6347 -1.1374
  273MOL0     H36847  10.235   0.350   8.906 -0.9530 -2.7461 -0.7123
  273MOL0     H36848  10.380   0.370   8.798 -0.1075  0.0211  3.6071
  273MOL0     H36849  10.226   0.418   8.611  1.5278 -2.2326 -0.6775
  273MOL0     H36850  10.089   0.406   8.718 -1.1022 -0.9907 -2.1472
  273MOL0     H36851  10.176   0.146   8.733 -1.3533 -0.6509 -1.4807
  273MOL0     H36852  10.296   0.206   8.613 -0.6303 -1.3385 -2.2835
  273MOL0     H36853   9.953   0.109   8.387 -0.5473 -0.2720  0.2063
  273MOL0     H36854  10.484   0.654   8.542 -1.1268 -0.4497 -0.5738
  273MOL0     H36855  10.737   0.662   8.542 -1.9479 -1.7191 -2.6524
  274MOL0     O36856   8.324   2.822   7.556 -0.5331 -0.9395 -0.1615
  274MOL0     C36857   8.246   2.913   7.569  1.2483  0.4264  0.5431
  274MOL0     O36858   8.104   2.899   7.573 -0.3379  0.2630  0.5001
  274MOL0     C36859   8.062   2.772   7.571 -0.6281 -0.0338 -0.9936
  274MOL0     C36860   8.051   2.698   7.450  0.7524 -0.1620 -0.2371
  274MOL0     C36861   8.002   2.564   7.460 -0.2277 -0.0147 -0.2547
  274MOL0     C36862   7.976   2.500   7.578 -0.3046  0.1035 -0.1057
  274MOL0     O36863   7.943   2.368   7.603  0.0540  0.0031  0.2740
  274MOL0     C36864   7.875   2.291   7.503  1.0872  0.0835  0.9741
  274MOL0     C36865   7.725   2.313   7.496 -0.8950 -1.1560 -0.4365
  274MOL0     C36866   7.667   2.236   7.372  0.3160  0.0648  0.9846
  274MOL0     C36867   7.670   2.083   7.386 -0.4097 -0.2191  0.4463
  274MOL0     C36868   7.631   2.034   7.527 -0.3535 -0.0698  1.1369
  274MOL0     C36869   7.477   2.039   7.555  0.4132  0.7121  0.7268
  274MOL0     C36870   7.394   1.950   7.457  0.5967 -0.4846  0.3845
  274MOL0     C36871   7.422   1.797   7.469  0.2030 -0.2039  0.1666
  274MOL0     N36872   7.407   1.754   7.610  0.0924  0.1954 -0.0404
  274MOL0     C36873   7.293   1.710   7.664 -0.1065  0.6447 -0.5349
  274MOL0     C36874   7.321   1.622   7.760  0.1788  0.0988 -0.0123
  274MOL0     C36875   7.206   1.556   7.827  0.3645 -0.0786 -1.3651
  274MOL0     C36876   7.213   1.406   7.828 -0.8343 -0.1000 -0.3924
  274MOL0     C36877   7.077   1.338   7.804  0.8392 -0.5928 -0.4974
  274MOL0     C36878   7.060   1.190   7.851 -0.2347  1.0192 -0.2159
  274MOL0     O36879   7.143   1.109   7.769  0.0493  0.1826 -0.3955
  274MOL0     C36880   7.089   0.992   7.707 -0.0186  0.4435 -0.0930
  274MOL0     C36881   7.138   0.944   7.584 -0.3766 -0.3515 -0.0134
  274MOL0     C36882   7.079   0.849   7.504  0.8597 -0.3551 -0.5722
  274MOL0     C36883   7.147   0.815   7.377 -0.7677  0.3600  0.3982
  274MOL0     C36884   6.953   0.800   7.550 -0.3731  0.0667 -1.2058
  274MOL0     C36885   6.885   0.685   7.492  0.3267  0.4945  0.1604
  274MOL0     O36886   6.778   0.625   7.554 -0.6279  0.2974 -0.6116
  274MOL0     C36887   6.708   0.523   7.505 -0.1775  0.3515 -0.1303
  274MOL0     C36888   6.676   0.523   7.370 -0.4766 -0.2179  0.3152
  274MOL0     C36889   6.617   0.411   7.321  0.0446 -0.4522  0.4085
  274MOL0     C36890   6.574   0.300   7.396 -0.1667 -0.2481 -0.6293
  274MOL0     O36891   6.510   0.200   7.335  0.9927 -1.0120 -0.3113
  274MOL0     C36892   6.367   0.184   7.363 -0.4061  0.5260 -0.5963
  274MOL0     C36893   6.290   0.310   7.310 -0.0544 -0.1346  0.1389
  274MOL0     C36894   6.268   0.415   7.427 -0.5360  0.1830  0.1324
  274MOL0     C36895   6.286   0.559   7.374 -0.0184 -0.3063 -0.2785
  274MOL0     C36896   6.209   0.664   7.456  0.0521  0.4779 -0.0535
  274MOL0     C36897   6.291   0.712   7.560 -0.0990  0.2475 -0.5467
  274MOL0     C36898   6.221   0.796   7.661 -0.3014  0.0385  0.3537
  274MOL0     C36899   6.323   0.821   7.766  0.6505 -0.7775  0.3138
  274MOL0    Cl36900   6.343   0.693   7.879  0.3717  0.4114 -0.0937
  274MOL0     C36901   6.603   0.304   7.526 -1.0453  0.6272 -0.1327
  274MOL0     C36902   6.681   0.408   7.585  0.3945 -0.1799  0.9229
  274MOL0     O36903   6.924   0.647   7.381 -1.0750 -0.2176 -0.7733
  274MOL0     C36904   6.905   0.841   7.675  0.2329  0.7877 -0.3204
  274MOL0     C36905   6.972   0.928   7.755 -0.2072  0.7016 -0.5712
  274MOL0     N36906   7.455   1.636   7.776 -0.2738  0.5488  0.6083
  274MOL0     N36907   7.508   1.711   7.686  0.1910  0.1512 -0.5666
  274MOL0     C36908   7.984   2.576   7.697 -0.0298  0.2610  0.5328
  274MOL0     C36909   8.028   2.706   7.689 -0.2967 -0.9816  0.0452
  274MOL0     C36910   8.302   3.036   7.616 -0.0410  0.5178  0.1126
  274MOL0     C36911   8.440   3.046   7.624 -0.2034 -0.4557 -1.2164
  274MOL0     C36912   8.503   3.164   7.659 -0.5559  0.0880 -0.4094
  274MOL0     C36913   8.432   3.282   7.701 -0.4141 -0.4150 -0.6624
  274MOL0     O36914   8.489   3.396   7.744 -0.0621  0.2455  0.1558
  274MOL0     C36915   8.593   3.454   7.664 -0.0743  0.4592 -0.6655
  274MOL0     C36916   8.603   3.605   7.680 -0.1507 -0.6473 -0.4950
  274MOL0     C36917   8.651   3.677   7.548  0.6226 -1.4064 -0.3653
  274MOL0     C36918   8.546   3.775   7.484 -0.1067 -0.1823 -0.3521
  274MOL0     C36919   8.600   3.831   7.358  0.4748 -0.2160 -0.0787
  274MOL0     C36920   8.640   3.877   7.251 -0.0511  0.9912  0.0983
  274MOL0     C36921   8.288   3.274   7.698  0.3104  0.7851 -0.1005
  274MOL0     C36922   8.227   3.149   7.655  0.0406 -0.6429  0.1684
  274MOL0     H36923   8.072   2.745   7.354 -0.6006  0.1160 -0.4200
  274MOL0     H36924   7.991   2.502   7.372 -3.7067  1.4834 -1.0653
  274MOL0     H36925   7.916   2.304   7.402 -4.5782 -1.0737 -1.9071
  274MOL0     H36926   7.889   2.187   7.532 -2.0400 -0.2732  1.5468
  274MOL0     H36927   7.682   2.289   7.594 -1.6318  1.0608 -0.1685
  274MOL0     H36928   7.701   2.419   7.483 -0.3785 -0.9646  0.1161
  274MOL0     H36929   7.563   2.268   7.372  0.1836 -0.2548  2.5622
  274MOL0     H36930   7.703   2.274   7.276 -2.3332 -2.7282 -1.2891
  274MOL0     H36931   7.609   2.035   7.308  0.0745  3.7565 -2.7102
  274MOL0     H36932   7.771   2.044   7.367  0.4584 -1.1981  5.6158
  274MOL0     H36933   7.664   1.931   7.544  1.3869  0.4706  1.2463
  274MOL0     H36934   7.683   2.081   7.611  0.5191 -2.1143  1.7993
  274MOL0     H36935   7.472   1.991   7.653 -2.7740  3.2004  1.9436
  274MOL0     H36936   7.438   2.141   7.556  0.5914  0.7816  0.9374
  274MOL0     H36937   7.289   1.960   7.486  0.3331 -1.4473 -0.1855
  274MOL0     H36938   7.404   1.983   7.353  0.7577  0.9334  0.8207
  274MOL0     H36939   7.525   1.780   7.438  0.1158  3.0835 -2.5120
  274MOL0     H36940   7.370   1.735   7.396  3.4326  0.9265 -3.3729
  274MOL0     H36941   7.194   1.721   7.621 -0.5877 -2.0153 -0.2862
  274MOL0     H36942   7.201   1.608   7.923 -0.3476 -0.1184 -1.3754
  274MOL0     H36943   7.114   1.578   7.773  1.3127  0.8976 -2.6679
  274MOL0     H36944   7.267   1.380   7.919 -0.7931  1.0708 -0.0746
  274MOL0     H36945   7.277   1.377   7.744 -0.3094  2.7267 -1.0537
  274MOL0     H36946   7.042   1.347   7.701 -0.0024 -1.2745 -0.2836
  274MOL0     H36947   6.994   1.396   7.847  0.7238 -0.6001 -0.7099
  274MOL0     H36948   6.955   1.170   7.830 -0.2547 -0.6115  1.1849
  274MOL0     H36949   7.079   1.157   7.954 -1.3652 -2.4784 -0.9902
  274MOL0     H36950   7.231   0.986   7.548  1.4317 -1.8032  2.6280
  274MOL0     H36951   7.247   0.859   7.372 -1.2902  1.3930 -2.4320
  274MOL0     H36952   7.178   0.711   7.364  0.8722  0.9641 -0.9663
  274MOL0     H36953   7.098   0.850   7.287  1.6322 -2.2760 -2.1573
  274MOL0     H36954   6.685   0.617   7.318  2.1217  1.0533  2.8195
  274MOL0     H36955   6.596   0.405   7.215  1.9759  0.0486 -0.0423
  274MOL0     H36956   6.339   0.088   7.321  0.8250 -0.7228  1.2614
  274MOL0     H36957   6.356   0.167   7.471  0.8277 -1.9684 -0.7924
  274MOL0     H36958   6.343   0.358   7.227  0.5780  1.5986  1.4847
  274MOL0     H36959   6.190   0.285   7.273  0.5641 -0.7835 -1.1773
  274MOL0     H36960   6.324   0.391   7.519  2.6323 -0.2091 -1.7469
  274MOL0     H36961   6.166   0.390   7.455 -0.7928 -0.9618 -1.6923
  274MOL0     H36962   6.393   0.576   7.356  0.1834 -1.2364 -0.0251
  274MOL0     H36963   6.231   0.562   7.279 -1.6237  2.1252  0.6557
  274MOL0     H36964   6.122   0.619   7.504  0.6457 -0.6573 -0.0125
  274MOL0     H36965   6.178   0.748   7.393  0.6561  0.5218 -0.3023
  274MOL0     H36966   6.341   0.629   7.610 -1.3173 -1.0337 -1.3844
  274MOL0     H36967   6.373   0.766   7.512 -0.2723 -0.2590 -1.4496
  274MOL0     H36968   6.138   0.742   7.707  0.0972 -0.8554  0.0568
  274MOL0     H36969   6.186   0.883   7.605 -0.1495 -0.3089 -0.2882
  274MOL0     H36970   6.284   0.903   7.828 -2.9788 -2.4928  0.6036
  274MOL0     H36971   6.416   0.855   7.722 -1.9081  3.6709 -2.3972
  274MOL0     H36972   6.581   0.209   7.572  0.0250 -0.1134 -1.0885
  274MOL0     H36973   6.704   0.414   7.691 -4.1560  4.5553  2.0882
  274MOL0     H36974   6.807   0.800   7.697  0.4726 -0.8105 -1.9634
  274MOL0     H36975   6.928   0.962   7.848  1.3507  1.3630 -0.0386
  274MOL0     H36976   7.977   2.527   7.794  1.2612  1.6483  1.3694
  274MOL0     H36977   8.027   2.764   7.780 -1.0817  1.4062 -1.3912
  274MOL0     H36978   8.505   2.962   7.599 -2.3680 -2.3288 -0.9005
  274MOL0     H36979   8.611   3.172   7.657 -0.6723  2.2545 -0.6312
  274MOL0     H36980   8.695   3.416   7.678 -0.3998 -0.0736  0.3075
  274MOL0     H36981   8.554   3.436   7.563  0.7411  1.5336 -1.1970
  274MOL0     H36982   8.667   3.625   7.767  1.2036 -0.6872 -1.4565
  274MOL0     H36983   8.501   3.636   7.705 -2.1701 -4.0426 -3.5573
  274MOL0     H36984   8.682   3.605   7.472 -0.9065 -1.3447 -1.0811
  274MOL0     H36985   8.734   3.741   7.579 -0.1812 -0.7036  0.3929
  274MOL0     H36986   8.526   3.853   7.558 -1.5165  0.4168 -1.3498
  274MOL0     H36987   8.447   3.729   7.474 -0.6474  1.4550 -3.3619
  274MOL0     H36988   8.650   3.934   7.161 -1.8850  2.0511  0.5173
  274MOL0     H36989   8.221   3.354   7.730  0.8911  0.6086  1.6765
  274MOL0     H36990   8.119   3.140   7.655  0.1853 -3.1860 -1.0711
  275MOL0     O36991   4.401   4.778   0.696 -0.0369 -0.7562  0.6849
  275MOL0     C36992   4.281   4.778   0.677  1.0316 -0.7172  0.3504
  275MOL0     O36993   4.179   4.793   0.779  0.8565  0.0330  0.9811
  275MOL0     C36994   4.218   4.756   0.907  0.3830  0.5984 -0.1380
  275MOL0     C36995   4.242   4.857   1.010 -0.2699  0.2409  0.1458
  275MOL0     C36996   4.249   4.811   1.141 -0.8350  0.2227  0.4832
  275MOL0     C36997   4.251   4.682   1.183 -0.2371  0.3853 -0.4782
  275MOL0     O36998   4.273   4.657   1.315 -0.4138  0.0933  0.2542
  275MOL0     C36999   4.157   4.601   1.383  0.3185  0.6976 -0.3227
  275MOL0     C37000   4.173   4.595   1.542  0.1853  0.8928 -1.5763
  275MOL0     C37001   4.054   4.553   1.622 -0.8215 -1.2635  0.4963
  275MOL0     C37002   4.073   4.577   1.771 -0.2758 -0.2514 -1.0061
  275MOL0     C37003   3.947   4.546   1.862  0.1327  0.7673 -0.5292
  275MOL0     C37004   3.980   4.576   2.009  0.9774  0.4012  0.6817
  275MOL0     C37005   3.868   4.525   2.093  0.2831  0.0071 -0.4576
  275MOL0     C37006   3.847   4.599   2.222  0.6427  0.2437 -0.1375
  275MOL0     N37007   3.750   4.713   2.203  0.3073  0.1189 -0.8036
  275MOL0     C37008   3.612   4.710   2.211 -0.7939 -0.2402 -0.3760
  275MOL0     C37009   3.580   4.842   2.219  0.5671 -0.8146 -0.2361
  275MOL0     C37010   3.437   4.886   2.226  0.4395 -0.5114  0.4690
  275MOL0     C37011   3.366   4.896   2.092 -0.9378  0.6423  0.5154
  275MOL0     C37012   3.416   5.002   1.990 -0.5188  0.7757  0.5600
  275MOL0     C37013   3.370   5.146   2.011 -0.3986 -0.9164  0.6195
  275MOL0     O37014   3.230   5.169   1.978  0.2874 -0.8894 -0.4965
  275MOL0     C37015   3.204   5.168   1.841 -0.2044 -0.2022  1.0585
  275MOL0     C37016   3.078   5.111   1.815  0.2979 -0.4370  0.3851
  275MOL0     C37017   3.056   5.058   1.692 -0.6099  0.1998 -0.6853
  275MOL0     C37018   2.924   4.981   1.680 -0.9451 -0.1144  0.4703
  275MOL0     C37019   3.148   5.076   1.587 -0.1235  0.2091  0.5040
  275MOL0     C37020   3.134   5.030   1.449  0.2480  0.9189  0.8864
  275MOL0     O37021   3.246   5.007   1.366 -0.8952  0.0854 -0.1848
  275MOL0     C37022   3.225   4.982   1.229 -0.0780  0.7190 -0.0586
  275MOL0     C37023   3.329   5.025   1.154 -0.3209  0.0843 -0.3309
  275MOL0     C37024   3.330   5.021   1.016 -0.1192  0.7350 -0.2967
  275MOL0     C37025   3.219   4.952   0.952  0.4876 -0.5666 -0.4281
  275MOL0     O37026   3.196   4.943   0.812  0.3158  0.4373 -0.3572
  275MOL0     C37027   3.297   4.952   0.715 -0.1166  0.0847 -1.3742
  275MOL0     C37028   3.242   4.932   0.570  1.4856 -0.0435 -0.0396
  275MOL0     C37029   3.197   4.790   0.548 -0.3567  0.3114  0.5776
  275MOL0     C37030   3.159   4.762   0.401  0.1695  0.6037  0.1922
  275MOL0     C37031   3.087   4.639   0.374  0.9403  0.4647 -0.1957
  275MOL0     C37032   3.024   4.635   0.237  0.6592  0.2421 -0.0357
  275MOL0     C37033   3.133   4.629   0.124 -0.4460 -0.7478  0.1193
  275MOL0     C37034   3.064   4.613  -0.010 -0.0423  0.0990 -0.5362
  275MOL0    Cl37035   3.178   4.648  -0.144 -0.5038  0.2710  0.1258
  275MOL0     C37036   3.126   4.895   1.034  0.0208  0.5607 -0.0165
  275MOL0     C37037   3.130   4.902   1.167  0.1597 -0.1955  0.0319
  275MOL0     O37038   3.017   5.031   1.405  0.1304  0.1703 -0.2402
  275MOL0     C37039   3.262   5.145   1.606  0.5645  0.2959 -0.2694
  275MOL0     C37040   3.291   5.197   1.734  0.5957 -1.3642  0.1747
  275MOL0     N37041   3.688   4.913   2.198 -0.6185  0.1503 -0.2508
  275MOL0     N37042   3.793   4.842   2.184  0.1338  0.1062 -0.2385
  275MOL0     C37043   4.238   4.580   1.080  0.6268 -0.4177 -0.1240
  275MOL0     C37044   4.221   4.618   0.946  1.5144  0.2030 -0.4112
  275MOL0     C37045   4.242   4.751   0.543 -0.1334  0.1621  0.2126
  275MOL0     C37046   4.117   4.775   0.484 -0.4948  0.5540 -0.9462
  275MOL0     C37047   4.076   4.724   0.358  0.0798 -0.3129 -0.0384
  275MOL0     C37048   4.178   4.678   0.268  0.2925 -0.2978  0.4356
  275MOL0     O37049   4.161   4.646   0.136 -0.2506 -0.0421 -0.0755
  275MOL0     C37050   4.062   4.716   0.057 -0.0737 -0.2862  0.4783
  275MOL0     C37051   4.129   4.787  -0.061 -0.0424 -0.2993 -0.0082
  275MOL0     C37052   4.169   4.697  -0.165  0.4004  1.2069 -0.1405
  275MOL0     C37053   4.232   4.760  -0.298 -0.3339 -0.0285  0.7505
  275MOL0     C37054   4.185   4.666  -0.403  0.0323 -0.3953 -0.4640
  275MOL0     C37055   4.130   4.595  -0.484 -0.1031 -0.0866  0.2545
  275MOL0     C37056   4.305   4.665   0.323 -0.5766 -0.3011  0.9883
  275MOL0     C37057   4.338   4.697   0.446  0.0821  0.0374  0.3458
  275MOL0     H37058   4.245   4.962   0.985 -0.2478  0.0103 -0.8414
  275MOL0     H37059   4.246   4.884   1.221  3.4633  2.8498 -1.4040
  275MOL0     H37060   4.069   4.665   1.369 -1.3072 -0.7716  2.2844
  275MOL0     H37061   4.130   4.500   1.351 -2.3791  1.3888 -0.4811
  275MOL0     H37062   4.245   4.516   1.566  0.5182  1.3039 -1.2001
  275MOL0     H37063   4.217   4.686   1.583  0.1584 -0.3136  1.3486
  275MOL0     H37064   3.968   4.606   1.579  1.2681  0.9523 -1.2391
  275MOL0     H37065   4.047   4.446   1.601 -2.9891 -0.5850 -2.8138
  275MOL0     H37066   4.157   4.516   1.804  1.5634  2.6149 -0.0648
  275MOL0     H37067   4.085   4.685   1.779  2.9667 -0.3890 -2.4514
  275MOL0     H37068   3.861   4.595   1.816 -2.4855 -1.5690  1.5397
  275MOL0     H37069   3.926   4.439   1.857  2.1449  0.3860 -1.9171
  275MOL0     H37070   4.074   4.528   2.039 -0.3573 -2.5730  0.4417
  275MOL0     H37071   3.984   4.686   2.015 -1.4230  0.5387  0.7366
  275MOL0     H37072   3.776   4.549   2.038  1.7086 -0.5314 -3.2801
  275MOL0     H37073   3.868   4.418   2.118 -1.7599 -0.3744 -1.8390
  275MOL0     H37074   3.939   4.638   2.266 -0.7502  1.0296  2.2081
  275MOL0     H37075   3.797   4.529   2.289 -2.3765  0.8778 -1.5675
  275MOL0     H37076   3.547   4.624   2.200 -1.1413 -0.0126 -0.1050
  275MOL0     H37077   3.385   4.805   2.278 -2.2651  0.4273 -0.5620
  275MOL0     H37078   3.410   4.978   2.280  1.9174  0.0799  0.2550
  275MOL0     H37079   3.260   4.919   2.103 -0.9468  0.7417  0.2324
  275MOL0     H37080   3.363   4.794   2.053 -2.6867  0.6500  0.5406
  275MOL0     H37081   3.390   4.954   1.896 -0.6939 -3.3096  2.4935
  275MOL0     H37082   3.525   5.008   2.000 -0.4821  2.1113 -0.3963
  275MOL0     H37083   3.440   5.206   1.952 -0.8922  0.4995  1.4024
  275MOL0     H37084   3.384   5.168   2.118 -1.2982 -1.0252  0.7698
  275MOL0     H37085   3.021   5.076   1.901 -3.0381 -0.7374 -1.7681
  275MOL0     H37086   2.859   5.037   1.612  0.8132  0.6614 -0.6178
  275MOL0     H37087   2.949   4.876   1.664 -1.9533 -0.3542  0.3836
  275MOL0     H37088   2.866   4.983   1.773 -2.4106  0.8744 -0.4146
  275MOL0     H37089   3.403   5.074   1.216 -2.3045  0.6702  1.7307
  275MOL0     H37090   3.417   5.065   0.966  0.8215 -2.5001 -1.8008
  275MOL0     H37091   3.345   5.048   0.733 -1.0886 -0.0293  2.8788
  275MOL0     H37092   3.369   4.871   0.730 -0.2146 -0.0887 -1.8279
  275MOL0     H37093   3.150   4.992   0.565 -0.2960 -2.3987  2.1452
  275MOL0     H37094   3.316   4.958   0.493  3.7808 -1.1457  1.6847
  275MOL0     H37095   3.112   4.769   0.615  0.8348 -1.1478  1.7127
  275MOL0     H37096   3.275   4.717   0.573  0.3400  1.2726  1.2699
  275MOL0     H37097   3.101   4.845   0.360  0.2397  1.9822  2.6918
  275MOL0     H37098   3.248   4.751   0.339  0.1970  1.6316  0.0369
  275MOL0     H37099   2.998   4.622   0.435  1.7625 -3.6660  0.1558
  275MOL0     H37100   3.151   4.550   0.381  0.4283 -0.1235 -2.1903
  275MOL0     H37101   2.961   4.546   0.225  0.6510  0.4986 -2.2292
  275MOL0     H37102   2.965   4.725   0.220  0.7456  0.6850  1.7946
  275MOL0     H37103   3.200   4.543   0.136 -0.9841 -0.8773  3.0779
  275MOL0     H37104   3.193   4.720   0.113 -2.2878  0.2991 -1.9188
  275MOL0     H37105   2.969   4.667  -0.019  0.3158  0.8918  0.3076
  275MOL0     H37106   3.031   4.509  -0.023  1.6162 -0.4337 -0.6624
  275MOL0     H37107   3.057   4.833   0.977 -1.2526  1.5595  0.3810
  275MOL0     H37108   3.048   4.853   1.218 -1.4039  2.0875 -0.1248
  275MOL0     H37109   3.328   5.164   1.521  2.3452 -1.6472  0.5721
  275MOL0     H37110   3.375   5.258   1.766 -1.2600  1.1266  0.6033
  275MOL0     H37111   4.241   4.477   1.113 -2.2883  0.1281  2.3151
  275MOL0     H37112   4.211   4.544   0.867  0.8299  1.1810 -1.2739
  275MOL0     H37113   4.038   4.814   0.548  0.4792 -0.5198  1.0341
  275MOL0     H37114   3.971   4.728   0.333 -0.0233  2.2641  0.5443
  275MOL0     H37115   3.981   4.648   0.030  0.0419 -1.3096  2.4587
  275MOL0     H37116   4.011   4.795   0.114  0.0359  1.2999 -1.5450
  275MOL0     H37117   4.205   4.840  -0.004 -0.6436  0.6531 -0.0678
  275MOL0     H37118   4.064   4.863  -0.108 -0.7469  0.3326  1.9085
  275MOL0     H37119   4.092   4.623  -0.186  0.9332  0.9283 -1.1331
  275MOL0     H37120   4.241   4.641  -0.104 -0.3577 -1.7187 -1.7475
  275MOL0     H37121   4.339   4.750  -0.277  0.0987  0.8274 -0.9481
  275MOL0     H37122   4.217   4.866  -0.319 -0.4618 -0.2545 -0.3246
  275MOL0     H37123   4.087   4.543  -0.568  1.8079  3.2527 -3.0814
  275MOL0     H37124   4.390   4.642   0.260  0.1395 -0.3801  1.9634
  275MOL0     H37125   4.438   4.685   0.485  0.1776  0.5488  0.2711
  276MOL0     O37126   1.897   4.414   0.481  0.5322  0.6502  0.1625
  276MOL0     C37127   2.019   4.448   0.467  0.6350  0.4443 -0.1097
  276MOL0     O37128   2.115   4.387   0.405  0.2294  1.4552  0.6742
  276MOL0     C37129   2.077   4.276   0.338 -0.1749  0.1962  0.2320
  276MOL0     C37130   2.098   4.145   0.387 -0.3185  0.9978  0.2904
  276MOL0     C37131   2.052   4.034   0.316  1.2961 -0.3672 -0.8335
  276MOL0     C37132   1.986   4.052   0.196 -0.0771 -0.2456 -0.5604
  276MOL0     O37133   1.939   3.932   0.145 -0.0360  0.1406 -0.1553
  276MOL0     C37134   1.813   3.944   0.080  1.0698 -0.1403 -1.2971
  276MOL0     C37135   1.789   3.844  -0.033 -0.0562 -0.3478  0.4012
  276MOL0     C37136   1.825   3.897  -0.173  0.2450 -0.0201  0.1126
  276MOL0     C37137   1.762   3.801  -0.280  0.0944 -0.0646  0.0330
  276MOL0     C37138   1.819   3.853  -0.410 -0.2472 -0.1036 -1.1057
  276MOL0     C37139   1.750   3.769  -0.520 -0.5387  0.4763 -0.5121
  276MOL0     C37140   1.831   3.770  -0.650  0.6523  0.5208  0.2773
  276MOL0     C37141   1.977   3.712  -0.647 -0.1174  0.6129  0.2738
  276MOL0     N37142   1.977   3.563  -0.623  0.7018  0.1150  1.0129
  276MOL0     C37143   2.007   3.506  -0.502 -0.2397 -0.2392 -0.5146
  276MOL0     C37144   2.030   3.379  -0.523  0.0453  1.1011 -0.4708
  276MOL0     C37145   2.058   3.264  -0.423 -0.3207  0.3549  0.0826
  276MOL0     C37146   1.984   3.277  -0.293  0.1524  0.3989 -0.8576
  276MOL0     C37147   1.828   3.281  -0.317 -0.4860 -0.0868  0.0069
  276MOL0     C37148   1.745   3.284  -0.186 -0.2311 -0.8320 -0.1846
  276MOL0     O37149   1.773   3.166  -0.104 -0.2286 -0.1976 -0.1333
  276MOL0     C37150   1.810   3.183   0.029  0.1315  0.3616  0.5370
  276MOL0     C37151   1.732   3.261   0.116 -0.2705 -0.1602 -0.7713
  276MOL0     C37152   1.757   3.264   0.260  0.0810 -0.1207 -0.0685
  276MOL0     C37153   1.670   3.363   0.332  1.0370 -0.1392 -0.0605
  276MOL0     C37154   1.871   3.193   0.316  0.4697  0.4435 -0.4150
  276MOL0     C37155   1.913   3.213   0.460 -0.0330 -0.4825 -0.9919
  276MOL0     O37156   2.039   3.193   0.498 -0.9852  0.1593 -0.5718
  276MOL0     C37157   2.084   3.256   0.618 -0.3182  0.4154  0.7941
  276MOL0     C37158   2.165   3.169   0.696  0.6665  0.0986 -0.3059
  276MOL0     C37159   2.194   3.196   0.830 -0.1779 -0.4449  0.6412
  276MOL0     C37160   2.165   3.322   0.884 -0.2696  0.1482  0.4026
  276MOL0     O37161   2.189   3.330   1.012 -1.3466  0.1193 -0.0479
  276MOL0     C37162   2.158   3.450   1.088  0.0409  0.1740  0.2432
  276MOL0     C37163   2.172   3.412   1.234 -0.5575  0.8196  0.1144
  276MOL0     C37164   2.079   3.294   1.264  0.1158 -0.2899  0.4029
  276MOL0     C37165   2.068   3.268   1.414 -0.3336 -0.8487  0.3745
  276MOL0     C37166   2.191   3.200   1.469  0.1353 -0.0923  0.4649
  276MOL0     C37167   2.190   3.176   1.617  0.1435 -0.8416 -0.5386
  276MOL0     C37168   2.329   3.153   1.676  0.8082  0.6737 -0.2604
  276MOL0     C37169   2.341   3.157   1.828  0.2291 -0.2477  0.7977
  276MOL0    Cl37170   2.327   3.326   1.882  0.2329  0.1414 -0.2463
  276MOL0     C37171   2.101   3.418   0.806  0.1781  0.6271  0.0763
  276MOL0     C37172   2.057   3.382   0.669  0.3400  0.3589 -0.3224
  276MOL0     O37173   1.829   3.255   0.537 -0.1725 -0.2071  0.4141
  276MOL0     C37174   1.949   3.122   0.229  0.6486  0.7582  0.1175
  276MOL0     C37175   1.921   3.113   0.088  0.5957 -0.1162 -0.2288
  276MOL0     N37176   2.007   3.352  -0.655 -0.0414  0.5874 -0.2880
  276MOL0     N37177   1.977   3.469  -0.716  0.1284  0.9107  0.0273
  276MOL0     C37178   1.982   4.173   0.128 -0.5834 -1.2177 -0.0388
  276MOL0     C37179   2.024   4.277   0.208  0.8041 -0.6076 -0.3526
  276MOL0     C37180   2.066   4.582   0.519 -0.1052  0.5150  0.1087
  276MOL0     C37181   1.981   4.656   0.598 -0.3726  0.0176  0.4585
  276MOL0     C37182   2.007   4.785   0.636 -0.5399 -0.0730  0.5348
  276MOL0     C37183   2.135   4.847   0.605  0.3316  0.4890 -0.4571
  276MOL0     O37184   2.156   4.975   0.647  0.5971 -0.6882 -1.0003
  276MOL0     C37185   2.281   5.048   0.663 -0.1013  0.0352  0.7204
  276MOL0     C37186   2.273   5.185   0.732  0.4353  0.8781  0.5024
  276MOL0     C37187   2.397   5.249   0.796  0.9362  0.1239  0.3085
  276MOL0     C37188   2.470   5.165   0.911  1.6858 -0.1892 -0.3501
  276MOL0     C37189   2.379   5.150   1.021 -0.2211 -0.4486  0.7985
  276MOL0     C37190   2.318   5.137   1.125  0.2596  0.6367 -0.4121
  276MOL0     C37191   2.230   4.764   0.530 -0.3142 -0.1923  0.8609
  276MOL0     C37192   2.192   4.642   0.484  0.4665 -1.3196  0.3323
  276MOL0     H37193   2.170   4.135   0.468  0.6257 -2.2994 -0.8177
  276MOL0     H37194   2.049   3.938   0.367 -5.5846 -1.0937 -1.7068
  276MOL0     H37195   1.742   3.923   0.160  2.1849 -0.4605 -0.3701
  276MOL0     H37196   1.789   4.041   0.034  1.2546  0.4119 -0.2559
  276MOL0     H37197   1.849   3.753  -0.022 -1.0624 -0.9821  0.7286
  276MOL0     H37198   1.684   3.818  -0.020 -0.2752 -0.7399 -1.6857
  276MOL0     H37199   1.796   4.001  -0.192  0.4197 -0.1534 -0.9548
  276MOL0     H37200   1.934   3.900  -0.186  0.1383  0.6107 -0.7454
  276MOL0     H37201   1.804   3.701  -0.264 -0.0773 -0.5052 -2.0283
  276MOL0     H37202   1.655   3.812  -0.261  0.4927  1.9936  1.5071
  276MOL0     H37203   1.803   3.962  -0.408  0.1293 -0.0297  1.7307
  276MOL0     H37204   1.927   3.837  -0.410 -0.4907 -1.9566 -0.8966
  276MOL0     H37205   1.724   3.672  -0.476  1.6790  0.0009 -0.1240
  276MOL0     H37206   1.658   3.828  -0.528  1.7568  5.0378  2.4272
  276MOL0     H37207   1.773   3.708  -0.719 -1.5522 -1.7035  3.8517
  276MOL0     H37208   1.852   3.870  -0.690  3.5185 -0.4237 -0.8701
  276MOL0     H37209   2.027   3.760  -0.562  0.0042  3.9534 -1.5290
  276MOL0     H37210   2.028   3.740  -0.739  0.8564  1.8476  1.1432
  276MOL0     H37211   2.011   3.546  -0.401  3.8554 -1.9309  0.2029
  276MOL0     H37212   2.038   3.169  -0.474  1.9010  1.5328 -3.3827
  276MOL0     H37213   2.166   3.280  -0.412  0.1997 -1.1067 -2.2287
  276MOL0     H37214   2.017   3.369  -0.244  2.9358 -0.5148 -0.8813
  276MOL0     H37215   2.015   3.200  -0.223 -0.5782  0.7165 -0.1690
  276MOL0     H37216   1.786   3.204  -0.382 -4.0361  2.3767 -0.8840
  276MOL0     H37217   1.804   3.370  -0.374 -1.1851  0.0727  0.5402
  276MOL0     H37218   1.637   3.278  -0.204 -0.7520 -1.3204  2.5782
  276MOL0     H37219   1.767   3.379  -0.137 -1.5005 -0.5104 -0.1896
  276MOL0     H37220   1.654   3.313   0.061 -0.5339  1.4542  1.0193
  276MOL0     H37221   1.615   3.431   0.265 -0.4161 -0.8467  0.3680
  276MOL0     H37222   1.592   3.309   0.386 -1.1826  1.9039 -1.0046
  276MOL0     H37223   1.732   3.420   0.401  0.7614 -2.6088  2.3797
  276MOL0     H37224   2.180   3.073   0.647 -4.1438 -0.6258 -0.8528
  276MOL0     H37225   2.228   3.127   0.906  1.2067 -0.8524 -0.3149
  276MOL0     H37226   2.232   3.527   1.063 -0.9944  1.5252  1.1738
  276MOL0     H37227   2.056   3.481   1.064 -1.1941 -1.9500  2.2357
  276MOL0     H37228   2.278   3.389   1.250 -0.1457  2.4197 -0.1313
  276MOL0     H37229   2.135   3.503   1.282  0.1938  0.3548  1.6500
  276MOL0     H37230   2.118   3.200   1.224  3.1358  1.2406 -0.6259
  276MOL0     H37231   1.978   3.321   1.235 -1.9109 -3.8231  3.3233
  276MOL0     H37232   2.051   3.365   1.462  2.6336  1.1242 -2.1045
  276MOL0     H37233   1.987   3.197   1.432  4.2862 -7.6752 -1.5366
  276MOL0     H37234   2.272   3.271   1.448 -1.2809  2.1670  2.1563
  276MOL0     H37235   2.215   3.110   1.412  0.2538 -0.0756  0.4880
  276MOL0     H37236   2.150   3.263   1.670  2.5009  1.1988 -1.8897
  276MOL0     H37237   2.123   3.091   1.634  1.4856 -1.7823  0.2800
  276MOL0     H37238   2.391   3.236   1.640  1.4141  1.8854  3.2124
  276MOL0     H37239   2.359   3.059   1.629 -2.7656 -1.4490  1.2701
  276MOL0     H37240   2.435   3.112   1.863 -0.1278 -1.5493  0.1246
  276MOL0     H37241   2.264   3.093   1.871 -0.3488 -0.9504 -1.1804
  276MOL0     H37242   2.067   3.516   0.837 -0.9698  0.4143 -0.4647
  276MOL0     H37243   1.999   3.452   0.610  1.3157  2.4899  1.1155
  276MOL0     H37244   2.042   3.073   0.257 -1.3110 -3.1240  0.5713
  276MOL0     H37245   1.980   3.052   0.020  1.3424 -1.3795  1.4732
  276MOL0     H37246   1.956   4.187   0.023  0.1711  2.7575  0.1563
  276MOL0     H37247   1.992   4.368   0.158  0.9930 -0.1488  0.3411
  276MOL0     H37248   1.878   4.627   0.619 -1.8205  3.3780 -1.2519
  276MOL0     H37249   1.936   4.827   0.706  0.4194  0.2564  1.3257
  276MOL0     H37250   2.348   4.972   0.706  1.3058 -0.0526 -1.4397
  276MOL0     H37251   2.330   5.055   0.565 -1.6960 -0.0355 -0.1084
  276MOL0     H37252   2.195   5.175   0.809  0.4954  1.1885  0.6037
  276MOL0     H37253   2.232   5.236   0.645 -1.6390 -2.7645 -0.9037
  276MOL0     H37254   2.367   5.346   0.837 -1.2842  0.7951 -2.5600
  276MOL0     H37255   2.468   5.280   0.718 -0.9571  3.4524 -0.3002
  276MOL0     H37256   2.558   5.225   0.938  1.0550  0.6610 -0.1322
  276MOL0     H37257   2.505   5.067   0.878 -0.9133 -1.1644 -0.4519
  276MOL0     H37258   2.278   5.120   1.223  1.9953  2.6597  0.7509
  276MOL0     H37259   2.326   4.803   0.500  1.9417 -2.3829  4.5379
  276MOL0     H37260   2.268   4.593   0.424  1.0320 -1.5232  1.1961
  277MOL0     O37261   1.146   1.398   6.440  0.0192  0.5852 -0.0368
  277MOL0     C37262   1.190   1.345   6.544 -0.1692  0.1307  0.8647
  277MOL0     O37263   1.207   1.216   6.558  0.6958  0.2445 -0.0078
  277MOL0     C37264   1.171   1.132   6.450 -0.6834  0.3875  0.4128
  277MOL0     C37265   1.255   1.120   6.340  0.1924  0.4733 -0.4270
  277MOL0     C37266   1.220   1.031   6.236  0.5507  1.4163 -0.5543
  277MOL0     C37267   1.096   0.971   6.237  0.4691 -0.7762  0.3716
  277MOL0     O37268   1.057   0.898   6.128 -0.4425  0.0559 -0.4748
  277MOL0     C37269   0.961   0.792   6.139  0.2603  0.4653  0.3783
  277MOL0     C37270   0.939   0.729   5.997  0.0426 -0.1439 -0.4322
  277MOL0     C37271   0.807   0.661   5.996 -0.2267  0.1448 -1.3372
  277MOL0     C37272   0.768   0.600   5.863  0.1741  0.3760 -0.2101
  277MOL0     C37273   0.836   0.635   5.724  0.1452 -1.0270  0.0951
  277MOL0     C37274   0.774   0.551   5.608  0.6476 -0.2583 -0.4313
  277MOL0     C37275   0.827   0.611   5.483 -0.1758  0.3759 -0.1336
  277MOL0     C37276   0.770   0.540   5.364  0.5704 -0.0330 -0.4692
  277MOL0     N37277   0.838   0.581   5.245 -0.2096  0.0607 -1.0055
  277MOL0     C37278   0.811   0.693   5.185 -0.9220 -0.4882 -0.2269
  277MOL0     C37279   0.884   0.685   5.069 -0.7701 -0.6415 -0.5085
  277MOL0     C37280   0.898   0.790   4.952 -0.3341 -0.4765 -0.3127
  277MOL0     C37281   0.778   0.778   4.849 -0.2226  0.0815 -0.2798
  277MOL0     C37282   0.781   0.644   4.778 -0.2085 -0.8158 -0.0087
  277MOL0     C37283   0.909   0.619   4.680  0.3040 -0.2479 -1.0572
  277MOL0     O37284   0.919   0.723   4.589  0.5664  0.5965  0.5442
  277MOL0     C37285   1.040   0.784   4.580 -0.8164 -0.2812  0.2867
  277MOL0     C37286   1.158   0.715   4.566 -0.8985 -0.3064  0.1925
  277MOL0     C37287   1.280   0.783   4.541  0.1937 -0.6612  0.6542
  277MOL0     C37288   1.408   0.712   4.518 -0.0876  0.1136  0.1380
  277MOL0     C37289   1.278   0.930   4.532  0.3692  0.8047 -0.3449
  277MOL0     C37290   1.404   1.023   4.520  0.3849 -0.0742 -0.3012
  277MOL0     O37291   1.374   1.162   4.510  0.0044 -0.8440  0.4346
  277MOL0     C37292   1.474   1.249   4.529  0.0191  0.1835  0.2214
  277MOL0     C37293   1.496   1.337   4.421  0.2981  0.5574  0.0392
  277MOL0     C37294   1.599   1.434   4.420 -0.1420  0.3037 -0.1326
  277MOL0     C37295   1.684   1.446   4.534  0.3837  0.3926 -0.3060
  277MOL0     O37296   1.776   1.541   4.538  0.0275 -0.8862 -0.5081
  277MOL0     C37297   1.787   1.635   4.434  0.2174 -1.1085 -0.5188
  277MOL0     C37298   1.907   1.726   4.472 -0.0221 -0.0961  0.4741
  277MOL0     C37299   1.961   1.812   4.346  0.0771 -0.0585 -1.3803
  277MOL0     C37300   2.068   1.903   4.400  0.5194  0.0163  0.1081
  277MOL0     C37301   2.109   1.997   4.291  0.8924  0.0208 -0.5851
  277MOL0     C37302   2.192   2.104   4.361 -0.9550  0.0932  0.4544
  277MOL0     C37303   2.276   2.179   4.270 -0.5641 -0.0485 -0.0596
  277MOL0     C37304   2.356   2.286   4.338 -0.2815  1.5796 -0.1496
  277MOL0    Cl37305   2.226   2.406   4.389  0.2956 -0.5206 -0.3844
  277MOL0     C37306   1.664   1.357   4.642  0.4085  0.7619  0.6228
  277MOL0     C37307   1.556   1.266   4.637  0.2128 -0.6760  0.6119
  277MOL0     O37308   1.514   0.974   4.534  0.1861  0.5376 -0.2510
  277MOL0     C37309   1.149   0.993   4.542  0.3969  0.0997  0.0373
  277MOL0     C37310   1.031   0.923   4.568 -0.5558 -0.5884 -0.1208
  277MOL0     N37311   0.982   0.583   5.094 -0.3310 -0.6508 -0.2051
  277MOL0     N37312   0.950   0.520   5.196 -0.7343  0.8699 -0.1200
  277MOL0     C37313   1.014   0.994   6.348  0.0903 -0.6828 -0.5621
  277MOL0     C37314   1.049   1.078   6.456 -0.4350  0.2692  0.0188
  277MOL0     C37315   1.216   1.434   6.657 -0.2111 -0.4258 -0.8774
  277MOL0     C37316   1.257   1.561   6.635 -0.6609 -0.3175 -0.0826
  277MOL0     C37317   1.283   1.655   6.734  0.6246  0.2276 -0.9514
  277MOL0     C37318   1.271   1.618   6.872 -0.0359  1.0388  1.2517
  277MOL0     O37319   1.294   1.702   6.971  0.3249 -0.1590  0.0832
  277MOL0     C37320   1.326   1.837   6.952 -1.3293  0.0561 -0.7408
  277MOL0     C37321   1.213   1.928   6.919  0.4552 -0.2736  0.0474
  277MOL0     C37322   1.267   2.076   6.898  0.0448  0.0708  0.2428
  277MOL0     C37323   1.159   2.171   6.835 -0.6515 -0.4943 -0.1947
  277MOL0     C37324   1.198   2.294   6.762  0.3434 -1.2877 -0.4366
  277MOL0     C37325   1.231   2.396   6.710 -1.1017 -0.5891  0.1812
  277MOL0     C37326   1.228   1.480   6.894  0.0545 -0.0416 -0.4058
  277MOL0     C37327   1.203   1.387   6.791  0.6893  0.2655  0.1898
  277MOL0     H37328   1.355   1.164   6.343  0.9157 -1.1080  2.5851
  277MOL0     H37329   1.284   1.006   6.153  2.4427  4.5986 -0.2328
  277MOL0     H37330   0.998   0.722   6.214 -1.1512  0.0572  0.7244
  277MOL0     H37331   0.868   0.837   6.177 -0.0414 -1.6043  2.2936
  277MOL0     H37332   0.945   0.814   5.928 -1.3586 -1.0343 -1.6991
  277MOL0     H37333   1.015   0.653   5.981  2.1058  1.6187  0.4814
  277MOL0     H37334   0.799   0.596   6.084  5.3282  0.7167 -0.0392
  277MOL0     H37335   0.737   0.745   6.004  0.3681  0.6522 -1.4384
  277MOL0     H37336   0.764   0.490   5.870 -0.0385  0.3403 -0.8925
  277MOL0     H37337   0.664   0.630   5.846  0.0113 -0.8283 -1.5724
  277MOL0     H37338   0.821   0.739   5.694 -2.5555 -1.6839 -1.1662
  277MOL0     H37339   0.939   0.601   5.733 -0.9604 -4.2309  2.4766
  277MOL0     H37340   0.815   0.450   5.621  3.9462  1.3120  3.3943
  277MOL0     H37341   0.665   0.562   5.602  0.8312  1.3734 -1.1343
  277MOL0     H37342   0.797   0.714   5.465 -1.9826 -0.1874 -0.5201
  277MOL0     H37343   0.936   0.612   5.492 -0.2986  0.3090  2.2493
  277MOL0     H37344   0.664   0.566   5.364  0.6851  1.0986  3.8267
  277MOL0     H37345   0.780   0.431   5.370 -0.4672 -0.0770  1.1601
  277MOL0     H37346   0.734   0.763   5.216  0.6584  2.1500 -1.8590
  277MOL0     H37347   0.904   0.890   4.996  0.3690 -0.7585  0.2375
  277MOL0     H37348   0.981   0.776   4.882 -0.1466  0.1115 -0.2049
  277MOL0     H37349   0.799   0.856   4.775  1.2512  0.1035  0.1369
  277MOL0     H37350   0.686   0.793   4.907  1.0761  2.3548  1.3414
  277MOL0     H37351   0.696   0.639   4.710  1.0014  0.3255 -1.6915
  277MOL0     H37352   0.785   0.556   4.843 -1.4737  0.2240  1.5595
  277MOL0     H37353   0.891   0.522   4.634  2.4308  0.5843 -3.9369
  277MOL0     H37354   0.995   0.595   4.742  0.6249 -0.0151 -1.4118
  277MOL0     H37355   1.148   0.607   4.578  2.9725 -1.2230 -2.9565
  277MOL0     H37356   1.359   0.620   4.484 -4.3693  2.2416 -0.1236
  277MOL0     H37357   1.472   0.749   4.437  1.3599  0.5232  1.4241
  277MOL0     H37358   1.471   0.704   4.607  1.0705 -0.5717 -0.7175
  277MOL0     H37359   1.435   1.322   4.332 -0.6679  0.6180  0.6793
  277MOL0     H37360   1.606   1.498   4.332  1.3029 -0.1429 -0.3625
  277MOL0     H37361   1.825   1.593   4.341 -2.6822 -3.0314 -0.9496
  277MOL0     H37362   1.698   1.698   4.425  0.3894 -0.6787  0.5704
  277MOL0     H37363   1.879   1.799   4.548  4.3109  1.6649  0.6817
  277MOL0     H37364   1.989   1.669   4.516 -0.1296  1.4112  2.7850
  277MOL0     H37365   1.879   1.865   4.296 -0.9771  0.7177  1.0469
  277MOL0     H37366   2.009   1.737   4.281  0.9179 -2.5934  1.9058
  277MOL0     H37367   2.020   1.952   4.486  0.5979 -1.2956  0.9275
  277MOL0     H37368   2.156   1.845   4.429  1.0646  1.7422  2.1012
  277MOL0     H37369   2.021   2.051   4.253 -0.7029 -0.1003  2.6076
  277MOL0     H37370   2.170   1.937   4.223  0.1507  0.6737 -1.8832
  277MOL0     H37371   2.128   2.179   4.408  0.7101  1.0462  1.3057
  277MOL0     H37372   2.263   2.053   4.427 -0.6716  1.7857  1.5084
  277MOL0     H37373   2.214   2.229   4.195  0.8097  3.5072  0.9968
  277MOL0     H37374   2.352   2.115   4.225 -0.2115  1.6833 -2.0943
  277MOL0     H37375   2.433   2.324   4.270  0.8936 -4.2957 -2.6648
  277MOL0     H37376   2.404   2.244   4.427 -0.0567  1.7006 -0.2147
  277MOL0     H37377   1.728   1.350   4.730  1.4001 -2.4268 -0.2392
  277MOL0     H37378   1.548   1.203   4.725  2.9588 -1.6312  0.2828
  277MOL0     H37379   1.139   1.101   4.540 -2.5417 -0.0777  0.6270
  277MOL0     H37380   0.938   0.974   4.589 -0.0318  0.9299 -1.3246
  277MOL0     H37381   0.920   0.941   6.361  0.8230 -2.4513 -2.0526
  277MOL0     H37382   0.996   1.109   6.545  0.9772  2.4211  0.1799
  277MOL0     H37383   1.252   1.603   6.534 -0.4421  1.9439  0.7795
  277MOL0     H37384   1.309   1.754   6.697  0.6472  0.9933  0.9908
  277MOL0     H37385   1.371   1.877   7.043  2.1310 -4.3969 -0.1228
  277MOL0     H37386   1.398   1.836   6.869  0.5090 -1.1864  0.7828
  277MOL0     H37387   1.149   1.928   7.007 -2.5585 -1.9909 -1.9572
  277MOL0     H37388   1.145   1.910   6.835 -2.0933  0.6033  1.8227
  277MOL0     H37389   1.348   2.082   6.825 -3.0528 -0.6012 -3.5723
  277MOL0     H37390   1.300   2.099   7.000 -0.7580  1.8072  0.1326
  277MOL0     H37391   1.107   2.204   6.925 -1.0399 -1.9776  0.1443
  277MOL0     H37392   1.086   2.119   6.773  0.0369  0.6832 -2.0826
  277MOL0     H37393   1.263   2.485   6.659 -1.4904 -0.8169 -0.4676
  277MOL0     H37394   1.213   1.451   6.997 -2.6343  0.1414 -0.6818
  277MOL0     H37395   1.179   1.283   6.806 -0.1400  0.5299  0.7782
  278MOL0     O37396  10.167   3.496   5.810  0.3670 -0.2694 -0.3531
  278MOL0     C37397  10.167   3.620   5.811  0.0975  0.7891  0.4177
  278MOL0     O37398  10.145   3.692   5.915 -0.4647 -0.4694  0.0655
  278MOL0     C37399  10.135   3.635   6.037 -1.1013  0.6332  0.4378
  278MOL0     C37400  10.018   3.561   6.061 -0.0524  0.0099  0.1865
  278MOL0     C37401   9.986   3.528   6.193 -0.1852 -0.4119  0.2072
  278MOL0     C37402  10.072   3.559   6.305 -0.4182  0.1493 -0.2059
  278MOL0     O37403  10.054   3.521   6.435 -0.0146  0.1104 -0.2704
  278MOL0     C37404  10.161   3.454   6.505 -0.6317  0.7256  0.5943
  278MOL0     C37405  10.112   3.346   6.600 -0.1802 -0.6564  0.1450
  278MOL0     C37406  10.012   3.392   6.703  0.6708 -0.4244 -1.1703
  278MOL0     C37407  10.087   3.448   6.825  0.1326 -0.4003  1.2882
  278MOL0     C37408  10.024   3.425   6.959  1.1186  0.4550 -0.3868
  278MOL0     C37409   9.910   3.521   6.978  0.9855 -0.5469 -0.6964
  278MOL0     C37410   9.794   3.466   7.057  0.3635  0.6550  0.1304
  278MOL0     C37411   9.832   3.465   7.211  0.8112  0.8403 -0.6029
  278MOL0     N37412   9.744   3.384   7.294 -0.6316  0.4855  0.0091
  278MOL0     C37413   9.728   3.246   7.289 -0.2382  0.5098  0.0005
  278MOL0     C37414   9.661   3.208   7.402  0.7567  0.9375 -0.3462
  278MOL0     C37415   9.635   3.065   7.437 -0.3610 -0.3516 -1.0562
  278MOL0     C37416   9.626   2.975   7.312  0.1161  0.1027 -1.0756
  278MOL0     C37417   9.606   2.832   7.353  0.8653  1.3658  0.2997
  278MOL0     C37418   9.599   2.734   7.233  0.0984 -0.5414 -0.3264
  278MOL0     O37419   9.643   2.599   7.259 -0.5492 -0.5304 -0.3219
  278MOL0     C37420   9.578   2.506   7.330  1.3034 -0.2857  0.6341
  278MOL0     C37421   9.445   2.526   7.384 -0.0938 -0.0947  0.5943
  278MOL0     C37422   9.368   2.424   7.448  0.2754  0.1603 -0.1409
  278MOL0     C37423   9.223   2.449   7.484  0.3214  0.2962  0.0465
  278MOL0     C37424   9.424   2.299   7.451  0.1641 -0.6137 -0.8772
  278MOL0     C37425   9.357   2.175   7.502  0.4611  0.1792 -1.1514
  278MOL0     O37426   9.432   2.065   7.518 -0.6016 -0.5827  0.1450
  278MOL0     C37427   9.369   1.944   7.554 -0.7846 -0.1984 -0.2073
  278MOL0     C37428   9.418   1.870   7.664  0.4617 -0.6528 -0.2508
  278MOL0     C37429   9.352   1.749   7.705 -0.6349  0.8263 -0.3725
  278MOL0     C37430   9.239   1.701   7.639 -0.1784 -0.0094 -0.1229
  278MOL0     O37431   9.175   1.591   7.680 -0.0964  0.0413 -0.0199
  278MOL0     C37432   9.046   1.602   7.753  0.1849 -0.0557 -0.5346
  278MOL0     C37433   9.074   1.577   7.902  0.4856  0.4341  0.2936
  278MOL0     C37434   9.176   1.462   7.943 -1.1220  0.4837 -0.2130
  278MOL0     C37435   9.205   1.475   8.091  0.5598  0.8420 -0.2551
  278MOL0     C37436   9.293   1.368   8.161 -0.5055  0.6227 -0.6361
  278MOL0     C37437   9.324   1.425   8.308 -0.4209 -0.0328  0.1930
  278MOL0     C37438   9.205   1.437   8.402 -0.9016  0.4438  0.0974
  278MOL0     C37439   9.256   1.476   8.547  1.1030 -0.3124 -0.2607
  278MOL0    Cl37440   9.118   1.468   8.651 -0.2432 -0.0895  0.5790
  278MOL0     C37441   9.188   1.781   7.537 -0.8203  0.5766 -0.0389
  278MOL0     C37442   9.254   1.891   7.488  0.3266 -0.0281 -0.1026
  278MOL0     O37443   9.240   2.183   7.541 -0.1103 -0.0635  0.3471
  278MOL0     C37444   9.560   2.278   7.408  0.0602  0.6339  0.1166
  278MOL0     C37445   9.639   2.388   7.351 -0.2712  0.8158  0.2090
  278MOL0     N37446   9.639   3.325   7.472 -0.8631 -0.0667 -0.6341
  278MOL0     N37447   9.667   3.431   7.397  0.3354  0.6640  0.4685
  278MOL0     C37448  10.198   3.621   6.272  0.3778  0.4457 -0.2069
  278MOL0     C37449  10.223   3.666   6.142 -1.0447  0.3987  0.8463
  278MOL0     C37450  10.180   3.684   5.674 -0.1758  0.0261 -0.0213
  278MOL0     C37451  10.187   3.823   5.657  0.0756 -0.5628 -0.5969
  278MOL0     C37452  10.192   3.891   5.537 -0.8495  0.5585  0.2203
  278MOL0     C37453  10.202   3.811   5.424  0.8510 -0.2386  0.2468
  278MOL0     O37454  10.166   3.861   5.306  0.2282 -0.4220  1.1047
  278MOL0     C37455  10.287   3.883   5.227 -0.2711  0.0000 -0.5842
  278MOL0     C37456  10.277   3.873   5.079 -0.2835  0.5445 -0.9578
  278MOL0     C37457  10.268   3.721   5.043 -0.0369  0.1620 -0.4255
  278MOL0     C37458  10.280   3.700   4.896 -0.0040  1.4177  0.2713
  278MOL0     C37459  10.419   3.738   4.869 -0.8852  0.8178  0.0130
  278MOL0     C37460  10.533   3.785   4.845  0.1556 -0.2846 -0.0455
  278MOL0     C37461  10.199   3.668   5.435 -0.2026  0.2548  0.2727
  278MOL0     C37462  10.189   3.606   5.559  0.3572  0.2920  0.5218
  278MOL0     H37463   9.967   3.545   5.966  0.4900 -2.5708  0.2452
  278MOL0     H37464   9.901   3.465   6.217 -0.3562  0.0287  0.7825
  278MOL0     H37465  10.232   3.402   6.441 -0.3201  2.2218 -0.3191
  278MOL0     H37466  10.223   3.530   6.554 -1.4737 -0.4357  3.6593
  278MOL0     H37467  10.061   3.263   6.551 -0.0679 -1.6420  1.6249
  278MOL0     H37468  10.196   3.299   6.651 -0.3038  2.7514  4.0461
  278MOL0     H37469   9.958   3.476   6.659 -1.0825 -1.7867 -1.7346
  278MOL0     H37470   9.940   3.318   6.738  1.7851 -0.3870  1.4433
  278MOL0     H37471  10.190   3.413   6.836  1.4802  1.9421 -2.2301
  278MOL0     H37472  10.113   3.551   6.801  3.7062 -0.9825  2.0732
  278MOL0     H37473   9.995   3.320   6.955  0.6231  0.6063 -0.8371
  278MOL0     H37474  10.087   3.439   7.047  0.0694 -3.9967  1.3444
  278MOL0     H37475   9.945   3.616   7.019  0.5103 -1.2113  1.3950
  278MOL0     H37476   9.875   3.556   6.881 -0.0847 -1.2661 -0.5893
  278MOL0     H37477   9.697   3.511   7.032  0.6042  0.9100 -0.3528
  278MOL0     H37478   9.778   3.360   7.038  0.1165  0.3754  1.7112
  278MOL0     H37479   9.840   3.569   7.243 -2.4084  0.8573  0.4892
  278MOL0     H37480   9.926   3.411   7.226 -0.2945 -0.8192  0.7315
  278MOL0     H37481   9.762   3.185   7.206  2.4872  2.2431 -0.2486
  278MOL0     H37482   9.719   3.028   7.497 -0.5964  1.3705  0.4479
  278MOL0     H37483   9.555   3.060   7.511  0.6896  2.7688  0.5135
  278MOL0     H37484   9.719   2.983   7.254  0.2592 -3.3994 -1.5407
  278MOL0     H37485   9.537   3.002   7.255 -0.1842  2.4559  0.3817
  278MOL0     H37486   9.517   2.821   7.415 -1.3884  2.1749 -2.5718
  278MOL0     H37487   9.700   2.802   7.400  1.5310 -2.8196 -3.0391
  278MOL0     H37488   9.667   2.778   7.160  0.9130 -0.4109  0.4895
  278MOL0     H37489   9.495   2.724   7.201 -0.3807  2.4247  0.0039
  278MOL0     H37490   9.386   2.617   7.381 -1.2896 -0.6776  3.4915
  278MOL0     H37491   9.205   2.556   7.500  0.5237  0.1409  1.3646
  278MOL0     H37492   9.168   2.407   7.399  1.6823 -1.2943 -0.0874
  278MOL0     H37493   9.190   2.395   7.573 -2.4772  1.0652 -0.4310
  278MOL0     H37494   9.503   1.909   7.719  1.2969 -0.3722 -1.7159
  278MOL0     H37495   9.400   1.706   7.793  1.3607  5.4604  1.1619
  278MOL0     H37496   9.010   1.703   7.732  0.8212  0.5638  1.1978
  278MOL0     H37497   8.973   1.533   7.709  0.1952  0.0355 -0.6965
  278MOL0     H37498   9.105   1.671   7.949  0.2087  1.0071 -0.6426
  278MOL0     H37499   8.972   1.562   7.938  1.1985  0.0466  2.2349
  278MOL0     H37500   9.269   1.475   7.888 -1.6884  2.0993 -0.8526
  278MOL0     H37501   9.115   1.377   7.913 -0.8057  1.1299 -2.8851
  278MOL0     H37502   9.250   1.571   8.118 -0.6451  1.1105  0.9060
  278MOL0     H37503   9.111   1.478   8.147 -0.0626 -2.7733 -0.8671
  278MOL0     H37504   9.383   1.331   8.110  0.7177 -0.6013  2.1879
  278MOL0     H37505   9.233   1.281   8.187 -0.6164  0.4000 -1.5988
  278MOL0     H37506   9.402   1.366   8.358 -2.7722 -2.0646  1.7023
  278MOL0     H37507   9.371   1.523   8.304 -2.8484  1.1825 -0.4033
  278MOL0     H37508   9.143   1.347   8.394  0.0370 -0.0332 -3.5482
  278MOL0     H37509   9.147   1.520   8.359  0.7830  1.7737  0.2867
  278MOL0     H37510   9.283   1.582   8.549 -4.7639  1.5600  2.3458
  278MOL0     H37511   9.341   1.418   8.583  0.2012 -0.2474  2.2283
  278MOL0     H37512   9.092   1.746   7.499 -2.2573  0.8402  2.9872
  278MOL0     H37513   9.204   1.940   7.406 -1.5992 -0.8386  0.5139
  278MOL0     H37514   9.610   2.183   7.418  0.2835  0.6720 -0.5578
  278MOL0     H37515   9.738   2.374   7.308 -0.5613  0.3683 -0.3334
  278MOL0     H37516  10.254   3.664   6.354 -0.8869 -0.0816  0.9753
  278MOL0     H37517  10.294   3.746   6.121 -1.2077  0.3955  0.2556
  278MOL0     H37518  10.194   3.884   5.746 -1.1895 -2.8226  1.1763
  278MOL0     H37519  10.200   3.999   5.539  0.5721  0.5661 -2.2229
  278MOL0     H37520  10.331   3.981   5.245  0.1496 -0.3545  0.3915
  278MOL0     H37521  10.369   3.817   5.255 -0.0280  0.5724  0.0718
  278MOL0     H37522  10.360   3.931   5.037 -1.1053  2.0821 -0.5238
  278MOL0     H37523  10.186   3.910   5.032  1.0770  0.8462 -3.5361
  278MOL0     H37524  10.166   3.693   5.071 -0.4806  3.0685  1.3213
  278MOL0     H37525  10.333   3.656   5.103 -0.8049  0.3034  0.5892
  278MOL0     H37526  10.203   3.744   4.833 -1.3004 -1.3941 -0.2800
  278MOL0     H37527  10.272   3.594   4.870  2.0070  1.1681  0.4996
  278MOL0     H37528  10.632   3.824   4.830  0.8260 -3.0406 -5.0085
  278MOL0     H37529  10.171   3.600   5.355  1.7629 -1.3664  0.9000
  278MOL0     H37530  10.182   3.498   5.561  0.8011  0.2052 -1.2000
  279MOL0     O37531   3.276   6.983   6.058 -0.3649  0.3631  0.2334
  279MOL0     C37532   3.175   7.049   6.031  0.8213  0.1308 -0.2004
  279MOL0     O37533   3.057   6.998   5.986  0.4247 -0.1840 -0.1908
  279MOL0     C37534   3.051   6.871   5.931  0.0234 -0.8727 -0.0201
  279MOL0     C37535   2.918   6.837   5.895  0.2912 -0.3987  0.9058
  279MOL0     C37536   2.889   6.713   5.841 -0.6531  0.8731 -0.6848
  279MOL0     C37537   2.997   6.619   5.811  0.0163  0.9395 -0.4591
  279MOL0     O37538   2.987   6.494   5.752 -0.2489 -0.6632 -0.2624
  279MOL0     C37539   2.859   6.424   5.745  0.1482 -0.3312  0.1615
  279MOL0     C37540   2.813   6.384   5.886  0.8618 -0.5144 -0.1900
  279MOL0     C37541   2.678   6.306   5.886 -0.1957 -0.5657  0.2127
  279MOL0     C37542   2.691   6.191   5.784 -0.9260 -0.4467  0.6463
  279MOL0     C37543   2.575   6.092   5.757 -0.7868 -0.3227  0.1568
  279MOL0     C37544   2.560   5.993   5.874  1.2516 -0.2254 -0.2711
  279MOL0     C37545   2.605   5.847   5.837  0.1636 -0.0922 -0.7196
  279MOL0     C37546   2.522   5.754   5.927 -0.9170 -0.7091 -0.3016
  279MOL0     N37547   2.552   5.609   5.915 -0.3748  0.3622 -0.0159
  279MOL0     C37548   2.685   5.558   5.908  1.0087  0.1323  0.3374
  279MOL0     C37549   2.684   5.437   5.843  0.3234 -0.6508  1.0697
  279MOL0     C37550   2.813   5.359   5.802 -0.2648 -0.4566  0.2757
  279MOL0     C37551   2.938   5.411   5.872 -0.3854  0.2611  0.4163
  279MOL0     C37552   3.050   5.328   5.811  0.0328  0.1635 -0.2891
  279MOL0     C37553   3.075   5.319   5.653 -0.1969  0.1085  0.5550
  279MOL0     O37554   3.213   5.285   5.624 -0.2816 -0.4526 -0.5438
  279MOL0     C37555   3.229   5.150   5.602  0.1818  0.0006 -0.3267
  279MOL0     C37556   3.355   5.109   5.545  0.6494 -0.1946  0.6358
  279MOL0     C37557   3.381   4.978   5.510  0.8112 -0.1254  0.0216
  279MOL0     C37558   3.523   4.949   5.437 -0.1017 -0.3314  0.3673
  279MOL0     C37559   3.286   4.885   5.540 -0.1618  0.1247 -0.8977
  279MOL0     C37560   3.312   4.739   5.497 -0.0290 -0.0309  0.1938
  279MOL0     O37561   3.247   4.651   5.579 -0.3356  0.1234  0.2572
  279MOL0     C37562   3.245   4.523   5.538 -0.8384  0.2162  0.3471
  279MOL0     C37563   3.138   4.459   5.589  0.3018 -0.5369 -0.3847
  279MOL0     C37564   3.119   4.318   5.575 -1.0406 -0.3225 -1.2781
  279MOL0     C37565   3.208   4.239   5.509 -0.8343  0.5387 -0.8414
  279MOL0     O37566   3.174   4.110   5.497 -0.2293  0.2635 -0.1731
  279MOL0     C37567   3.097   4.072   5.381 -0.6860 -0.2259  0.0334
  279MOL0     C37568   3.046   3.930   5.394  0.7462  0.4680  0.1030
  279MOL0     C37569   2.960   3.923   5.532 -0.9451 -0.5536  0.3745
  279MOL0     C37570   2.888   3.794   5.551 -0.1111 -0.9316 -0.1532
  279MOL0     C37571   2.992   3.678   5.554 -0.7092  0.1303 -0.2099
  279MOL0     C37572   2.923   3.550   5.593 -0.6001  0.3975 -0.2656
  279MOL0     C37573   3.005   3.431   5.637  0.0279  0.3606 -0.2099
  279MOL0     C37574   2.923   3.323   5.716  0.6526  0.4354 -0.2511
  279MOL0    Cl37575   2.774   3.282   5.624 -0.2461 -0.1472  0.4535
  279MOL0     C37576   3.326   4.300   5.455  0.5843 -0.2813 -0.3889
  279MOL0     C37577   3.346   4.439   5.479 -0.2227 -0.0226 -0.1253
  279MOL0     O37578   3.367   4.711   5.397 -0.2459 -0.4414  0.2609
  279MOL0     C37579   3.166   4.917   5.616 -0.2454  0.2808 -0.2709
  279MOL0     C37580   3.138   5.048   5.641 -0.4989 -0.6753 -0.3045
  279MOL0     N37581   2.549   5.411   5.810 -0.1937 -0.2488  0.1315
  279MOL0     N37582   2.479   5.519   5.849 -0.8465 -0.3468  0.0535
  279MOL0     C37583   3.131   6.649   5.842 -0.2488  0.2420 -1.0167
  279MOL0     C37584   3.157   6.770   5.908 -0.2915 -0.3999 -0.0413
  279MOL0     C37585   3.188   7.193   6.064 -0.7564  0.9956 -0.0821
  279MOL0     C37586   3.077   7.278   6.078  0.6248 -0.2228 -1.1413
  279MOL0     C37587   3.098   7.417   6.124  0.3446  0.0014 -0.7035
  279MOL0     C37588   3.224   7.469   6.142  0.2983 -0.3133  0.2231
  279MOL0     O37589   3.238   7.602   6.179 -0.4620 -0.3245  0.5496
  279MOL0     C37590   3.367   7.666   6.169  0.3673 -0.7614 -0.4492
  279MOL0     C37591   3.338   7.812   6.200 -0.3774  0.4350 -0.7101
  279MOL0     C37592   3.475   7.878   6.223 -0.4301  0.8665 -0.3140
  279MOL0     C37593   3.472   8.031   6.177 -0.9104 -0.4218 -0.3289
  279MOL0     C37594   3.449   8.036   6.029 -0.3614  0.9833  0.0905
  279MOL0     C37595   3.431   8.024   5.906  0.2619  0.2159 -0.5043
  279MOL0     C37596   3.330   7.383   6.112 -0.5149 -0.1484 -0.3319
  279MOL0     C37597   3.315   7.250   6.075 -0.0578  0.6349 -0.4044
  279MOL0     H37598   2.841   6.911   5.914  0.7281  0.0627  0.8980
  279MOL0     H37599   2.786   6.692   5.815 -0.9507 -1.5520  1.9475
  279MOL0     H37600   2.788   6.473   5.678  0.8728  1.1994  0.4680
  279MOL0     H37601   2.888   6.324   5.713 -0.0322 -1.9982  4.5250
  279MOL0     H37602   2.891   6.319   5.926  1.1246 -0.2383 -0.2506
  279MOL0     H37603   2.804   6.473   5.949 -1.3574 -1.3387  0.7918
  279MOL0     H37604   2.656   6.272   5.987 -1.8884  0.5250  0.2509
  279MOL0     H37605   2.601   6.375   5.848 -0.8236 -0.7214  1.1774
  279MOL0     H37606   2.710   6.222   5.681 -2.0590 -1.9760 -0.0524
  279MOL0     H37607   2.787   6.147   5.813 -0.0166  0.7696 -0.3825
  279MOL0     H37608   2.480   6.143   5.741 -1.0462 -0.0677  2.2538
  279MOL0     H37609   2.598   6.031   5.669 -1.3322 -0.6950  0.2713
  279MOL0     H37610   2.603   6.026   5.969  0.6273  3.0046 -1.0024
  279MOL0     H37611   2.453   6.000   5.896  0.9598  1.8935 -2.0592
  279MOL0     H37612   2.593   5.822   5.731 -1.8499 -1.6303 -0.1895
  279MOL0     H37613   2.712   5.850   5.861  0.1000  0.0985 -0.4631
  279MOL0     H37614   2.414   5.768   5.916 -0.9718 -0.3794  0.5454
  279MOL0     H37615   2.528   5.784   6.032 -4.5951  0.0668 -0.1737
  279MOL0     H37616   2.772   5.616   5.935  0.2598  1.0317  0.8976
  279MOL0     H37617   2.798   5.255   5.832 -0.1218  0.1378  2.5276
  279MOL0     H37618   2.807   5.361   5.692  3.0025 -0.4280 -0.0159
  279MOL0     H37619   2.947   5.390   5.979  4.1444 -1.5836 -0.0773
  279MOL0     H37620   2.970   5.511   5.844  0.5317 -0.9015 -3.1648
  279MOL0     H37621   3.056   5.228   5.856  0.2697  0.7328  0.9787
  279MOL0     H37622   3.144   5.371   5.847  1.9855 -4.3611  0.8374
  279MOL0     H37623   3.065   5.417   5.604  0.2469  0.6976  1.5964
  279MOL0     H37624   3.005   5.249   5.608 -0.7719  1.2670 -0.4313
  279MOL0     H37625   3.432   5.177   5.510 -2.3576  1.2314 -4.0254
  279MOL0     H37626   3.596   4.888   5.491  0.4958  1.9028  2.2838
  279MOL0     H37627   3.505   4.908   5.338  0.6242 -0.2732  0.2090
  279MOL0     H37628   3.590   5.035   5.423 -0.8032 -0.1705 -2.6757
  279MOL0     H37629   3.063   4.519   5.640  0.5186  2.4674 -3.2793
  279MOL0     H37630   3.028   4.270   5.609  0.5159 -3.0487 -0.6180
  279MOL0     H37631   3.010   4.139   5.376  0.3758  1.1849 -0.0308
  279MOL0     H37632   3.150   4.088   5.287 -1.7830 -3.0365 -1.1584
  279MOL0     H37633   2.976   3.894   5.317  0.8975  1.4118 -0.4976
  279MOL0     H37634   3.131   3.865   5.416 -0.9979 -1.4056  1.6409
  279MOL0     H37635   2.887   4.004   5.533 -1.1833 -0.7231 -0.9281
  279MOL0     H37636   3.034   3.934   5.612 -0.3068 -0.3161 -0.2425
  279MOL0     H37637   2.826   3.789   5.642 -3.5495  2.6705 -2.0120
  279MOL0     H37638   2.818   3.778   5.469  0.7876 -1.7693 -0.7812
  279MOL0     H37639   3.071   3.701   5.625 -2.0414  1.8149  0.8058
  279MOL0     H37640   3.042   3.641   5.464  0.1009 -3.5883  1.5521
  279MOL0     H37641   2.848   3.564   5.671 -1.8321 -0.4728 -1.2507
  279MOL0     H37642   2.870   3.522   5.502 -0.7088 -0.5234  0.0681
  279MOL0     H37643   3.089   3.467   5.698  0.0998  0.0776 -0.1405
  279MOL0     H37644   3.053   3.389   5.548  0.8649  1.1257 -0.1340
  279MOL0     H37645   2.898   3.353   5.818 -2.3922 -1.9883 -0.1533
  279MOL0     H37646   2.975   3.227   5.721 -1.7007 -1.0512 -2.0396
  279MOL0     H37647   3.381   4.245   5.380 -2.2071 -3.2935 -0.4036
  279MOL0     H37648   3.439   4.489   5.456 -0.2939  0.4169  0.5112
  279MOL0     H37649   3.099   4.833   5.632  1.3086 -1.0952 -0.6904
  279MOL0     H37650   3.049   5.075   5.698  1.1805  1.1812  1.6095
  279MOL0     H37651   3.199   6.565   5.832 -4.2665 -3.6355  0.7299
  279MOL0     H37652   3.263   6.776   5.929 -0.3939  0.1791  0.3365
  279MOL0     H37653   2.981   7.229   6.066  0.2706  0.1034  0.2092
  279MOL0     H37654   3.015   7.486   6.132  0.5205  0.8752 -4.4179
  279MOL0     H37655   3.434   7.621   6.243 -2.1983 -6.7087 -1.2103
  279MOL0     H37656   3.397   7.650   6.065 -2.8077 -2.5083 -1.2190
  279MOL0     H37657   3.298   7.804   6.302 -0.4913 -3.4077 -0.8898
  279MOL0     H37658   3.272   7.857   6.125 -1.0721 -2.4155 -1.9464
  279MOL0     H37659   3.545   7.828   6.155 -0.4486 -0.5987  0.7145
  279MOL0     H37660   3.514   7.867   6.324  0.0280 -1.0660 -0.6762
  279MOL0     H37661   3.573   8.065   6.200 -1.0279 -2.5317  4.8460
  279MOL0     H37662   3.412   8.100   6.237 -3.3891 -1.0693 -1.9019
  279MOL0     H37663   3.421   8.004   5.801 -1.5971  0.4975 -0.4167
  279MOL0     H37664   3.424   7.437   6.103 -2.1433  2.9425 -0.4433
  279MOL0     H37665   3.404   7.190   6.063 -1.3941 -1.3771 -0.5679
  280MOL0     O37666   9.335   5.951   7.763 -0.1044  0.0949 -0.2211
  280MOL0     C37667   9.374   5.867   7.678  0.0266  0.2037 -0.4028
  280MOL0     O37668   9.443   5.749   7.702 -0.8425  0.5906 -0.2614
  280MOL0     C37669   9.461   5.723   7.842 -0.1319  0.0963 -0.7185
  280MOL0     C37670   9.569   5.768   7.924  0.0284  0.0613  1.1997
  280MOL0     C37671   9.589   5.718   8.057 -0.1756 -0.2860  0.0237
  280MOL0     C37672   9.477   5.653   8.121 -0.0705 -0.0634  0.4184
  280MOL0     O37673   9.476   5.622   8.255  0.3866  0.0579 -0.5423
  280MOL0     C37674   9.351   5.641   8.320  0.5390 -0.1058  0.2408
  280MOL0     C37675   9.364   5.630   8.472  1.0574  1.0440  0.4791
  280MOL0     C37676   9.260   5.555   8.541 -0.5493 -0.3995 -0.2618
  280MOL0     C37677   9.138   5.620   8.599 -0.6348 -0.8343  0.2827
  280MOL0     C37678   9.028   5.511   8.635  0.8401  0.3761 -0.3013
  280MOL0     C37679   8.972   5.423   8.522 -0.1420 -0.5237  0.1459
  280MOL0     C37680   8.917   5.508   8.407 -0.4271  0.9903  0.5380
  280MOL0     C37681   8.885   5.423   8.284  0.1535  0.2992  0.5301
  280MOL0     N37682   8.806   5.311   8.320  0.1719  0.6402  0.1702
  280MOL0     C37683   8.671   5.315   8.318  0.0038  0.2333  0.4092
  280MOL0     C37684   8.632   5.184   8.334  0.0329 -0.4532 -1.1290
  280MOL0     C37685   8.491   5.133   8.368 -0.7585 -0.0150 -0.7568
  280MOL0     C37686   8.369   5.151   8.281 -0.4206  0.7557 -0.2615
  280MOL0     C37687   8.242   5.125   8.365  0.8208  0.8398  0.7412
  280MOL0     C37688   8.118   5.179   8.293 -1.3246  0.2291  0.1301
  280MOL0     O37689   8.020   5.212   8.393  1.3771  0.1591 -0.1848
  280MOL0     C37690   7.910   5.306   8.371 -0.1837 -0.0271 -1.1224
  280MOL0     C37691   7.842   5.354   8.483  0.0926 -0.3358  0.3802
  280MOL0     C37692   7.731   5.434   8.486  0.2119 -0.1535  0.6574
  280MOL0     C37693   7.676   5.477   8.615  0.6082  0.1321  0.6710
  280MOL0     C37694   7.671   5.464   8.357 -0.2740 -0.4615 -0.1746
  280MOL0     C37695   7.551   5.552   8.345  0.2086 -0.5258 -1.1797
  280MOL0     O37696   7.482   5.534   8.230  0.1609 -0.4938  0.8790
  280MOL0     C37697   7.368   5.608   8.205  0.0078 -0.7791 -0.0382
  280MOL0     C37698   7.343   5.669   8.075 -0.1927 -0.0092 -0.1243
  280MOL0     C37699   7.219   5.733   8.055  0.5372  0.1392  0.1158
  280MOL0     C37700   7.123   5.723   8.157  0.1965  0.3148 -0.4338
  280MOL0     O37701   7.004   5.785   8.134  0.2017  0.4143 -0.3335
  280MOL0     C37702   6.999   5.920   8.189  0.7577  0.6450  0.8748
  280MOL0     C37703   7.124   6.014   8.192  0.4352 -0.2970 -0.5144
  280MOL0     C37704   7.086   6.159   8.165 -0.4091  0.9599  0.1464
  280MOL0     C37705   7.209   6.242   8.175  0.2064  0.0342 -0.2236
  280MOL0     C37706   7.214   6.358   8.069 -0.2109 -0.0839  0.0364
  280MOL0     C37707   7.352   6.429   8.066 -0.6438 -0.9052  1.5020
  280MOL0     C37708   7.375   6.523   8.196  0.4170 -0.0693 -0.6837
  280MOL0     C37709   7.493   6.610   8.167  0.1826 -0.4651  0.4311
  280MOL0    Cl37710   7.647   6.500   8.195  0.1419 -0.1830  0.2350
  280MOL0     C37711   7.139   5.658   8.283 -0.1095 -0.3161  0.2004
  280MOL0     C37712   7.266   5.603   8.303  0.5131 -0.1887  0.1823
  280MOL0     O37713   7.517   5.630   8.438  0.5360 -0.9763  0.1129
  280MOL0     C37714   7.737   5.423   8.238 -0.1962  0.1874  0.5567
  280MOL0     C37715   7.854   5.344   8.249  0.2606 -0.3602  0.3454
  280MOL0     N37716   8.742   5.103   8.356 -0.4983 -0.2644 -0.3799
  280MOL0     N37717   8.847   5.178   8.336  0.7212 -0.1027 -0.7117
  280MOL0     C37718   9.373   5.617   8.041 -0.4531 -0.3969  0.8365
  280MOL0     C37719   9.368   5.646   7.908 -0.9746 -0.8109  0.7467
  280MOL0     C37720   9.322   5.877   7.540  0.3994 -0.1231  0.6158
  280MOL0     C37721   9.265   5.997   7.492  0.2219 -0.7811 -1.1911
  280MOL0     C37722   9.227   6.013   7.364  0.3650  0.3111  1.4422
  280MOL0     C37723   9.233   5.905   7.276  0.5115  0.1816  0.1049
  280MOL0     O37724   9.169   5.914   7.160 -0.4185 -0.8169  0.8727
  280MOL0     C37725   9.258   5.941   7.050 -0.0727  0.8800 -0.1035
  280MOL0     C37726   9.193   6.031   6.942  0.2054 -0.6524  0.7071
  280MOL0     C37727   9.049   6.085   6.962 -0.3959  0.3030 -0.0008
  280MOL0     C37728   8.945   5.983   6.943 -0.0685  0.8831  0.8555
  280MOL0     C37729   8.879   5.995   6.810  0.4756  0.2277  1.4114
  280MOL0     C37730   8.821   6.001   6.696 -0.3140 -0.3537 -0.8616
  280MOL0     C37731   9.293   5.781   7.318 -0.1453  0.5697  0.6008
  280MOL0     C37732   9.328   5.770   7.454 -0.1858  0.3771 -0.0847
  280MOL0     H37733   9.653   5.818   7.876 -1.9259  1.1061 -1.4041
  280MOL0     H37734   9.681   5.752   8.102  2.0830 -2.6900 -2.3530
  280MOL0     H37735   9.309   5.740   8.300  3.9927  1.5455  0.4748
  280MOL0     H37736   9.280   5.564   8.290  0.4925 -0.4309  1.1714
  280MOL0     H37737   9.462   5.590   8.497 -1.1051 -1.9359  6.0911
  280MOL0     H37738   9.357   5.732   8.512 -2.9255 -0.2206  3.7926
  280MOL0     H37739   9.228   5.474   8.474 -1.1179 -0.9826  0.6836
  280MOL0     H37740   9.310   5.509   8.627  1.0254  0.1830 -0.8308
  280MOL0     H37741   9.155   5.675   8.692  1.5512  0.4005 -0.7716
  280MOL0     H37742   9.102   5.695   8.529 -2.7936  2.5716  4.5308
  280MOL0     H37743   9.078   5.447   8.708 -2.3421 -1.9167  0.0638
  280MOL0     H37744   8.942   5.554   8.687  1.7210  1.5110  0.2964
  280MOL0     H37745   9.052   5.359   8.483 -0.1382 -1.3129  1.4121
  280MOL0     H37746   8.887   5.365   8.558 -1.7445 -0.2527 -2.8308
  280MOL0     H37747   8.828   5.561   8.442 -0.2026  1.3699  0.5462
  280MOL0     H37748   9.002   5.571   8.378  0.4543 -0.1210  0.6231
  280MOL0     H37749   8.975   5.387   8.235 -1.9423 -2.1977 -1.8323
  280MOL0     H37750   8.831   5.487   8.214 -1.6652 -0.7704  0.8809
  280MOL0     H37751   8.609   5.404   8.329 -1.2920 -0.6572  0.5085
  280MOL0     H37752   8.502   5.026   8.389  3.0175  0.6423  1.6779
  280MOL0     H37753   8.470   5.180   8.465  1.4380 -1.2007  0.3806
  280MOL0     H37754   8.375   5.085   8.193  1.0002 -0.0547  0.4012
  280MOL0     H37755   8.383   5.256   8.254  2.6569  0.0637 -1.8701
  280MOL0     H37756   8.244   5.155   8.470 -4.1999 -1.4300  1.7882
  280MOL0     H37757   8.223   5.017   8.366 -0.8417  0.9648 -2.4346
  280MOL0     H37758   8.088   5.108   8.214  3.4531 -1.0786 -0.8238
  280MOL0     H37759   8.150   5.273   8.248  1.1367 -0.5914  0.0148
  280MOL0     H37760   7.883   5.329   8.580 -0.5683  1.4126  1.1546
  280MOL0     H37761   7.675   5.586   8.624 -0.5811  0.4319 -2.0365
  280MOL0     H37762   7.570   5.448   8.618 -0.2347  2.8034  4.3681
  280MOL0     H37763   7.722   5.438   8.706 -1.0322  2.5672  2.6690
  280MOL0     H37764   7.423   5.665   8.001 -0.2776 -0.2290 -0.2049
  280MOL0     H37765   7.195   5.779   7.960 -0.3923 -2.3398 -0.9391
  280MOL0     H37766   6.929   5.985   8.134 -0.9661  0.1723  2.4083
  280MOL0     H37767   6.962   5.902   8.290 -0.0341 -0.5707  0.3910
  280MOL0     H37768   7.184   5.997   8.283  0.3144 -2.2667 -0.7557
  280MOL0     H37769   7.188   5.989   8.107 -0.1536  1.1804 -1.4207
  280MOL0     H37770   7.009   6.208   8.224 -0.7117  2.7455 -1.6634
  280MOL0     H37771   7.056   6.163   8.060  0.9605 -1.6797 -0.4563
  280MOL0     H37772   7.200   6.277   8.278  0.7886  0.0623 -0.1836
  280MOL0     H37773   7.299   6.183   8.161 -1.4969 -3.4461  2.0241
  280MOL0     H37774   7.140   6.431   8.102 -1.8760 -0.7740 -1.9830
  280MOL0     H37775   7.186   6.317   7.972  0.9196 -1.8709  0.4095
  280MOL0     H37776   7.437   6.363   8.051 -0.5386 -1.3959  3.8878
  280MOL0     H37777   7.336   6.507   7.991 -2.3665 -0.7792  1.9368
  280MOL0     H37778   7.397   6.449   8.274 -0.9184 -1.8544 -1.9247
  280MOL0     H37779   7.288   6.576   8.235  0.1767 -1.7719  1.3041
  280MOL0     H37780   7.495   6.686   8.245  0.2830 -0.8131  0.7700
  280MOL0     H37781   7.494   6.665   8.072  1.6575  0.9413  1.2103
  280MOL0     H37782   7.057   5.651   8.353 -1.2216  0.8388 -0.9272
  280MOL0     H37783   7.280   5.543   8.392  0.1794  1.0344  1.0728
  280MOL0     H37784   7.696   5.440   8.139  2.9000  0.5926 -0.7586
  280MOL0     H37785   7.901   5.311   8.157  0.5098 -2.3598  1.1184
  280MOL0     H37786   9.285   5.558   8.066 -0.1176 -2.1312 -1.7205
  280MOL0     H37787   9.283   5.599   7.860 -2.1858  0.6034  1.4235
  280MOL0     H37788   9.265   6.084   7.556 -2.0143 -3.3134  2.6546
  280MOL0     H37789   9.190   6.112   7.341 -2.2781 -0.9599 -0.2535
  280MOL0     H37790   9.344   5.999   7.085  1.3601 -1.2069  0.0265
  280MOL0     H37791   9.295   5.849   7.003 -0.0261  1.6259 -1.5759
  280MOL0     H37792   9.185   5.982   6.844 -1.5031  4.1232 -1.8665
  280MOL0     H37793   9.266   6.104   6.906  0.4481 -1.1616  0.1427
  280MOL0     H37794   9.035   6.174   6.900 -1.3440 -0.8267 -1.4585
  280MOL0     H37795   9.039   6.112   7.068  4.6120  0.2583  0.7216
  280MOL0     H37796   8.872   5.982   7.024 -0.7161 -1.2762  0.3117
  280MOL0     H37797   8.990   5.884   6.946 -1.5949 -0.1534 -3.3557
  280MOL0     H37798   8.795   6.042   6.601 -1.1673  0.4967 -0.2902
  280MOL0     H37799   9.303   5.692   7.257 -1.5986 -0.5589  1.9077
  280MOL0     H37800   9.394   5.686   7.474 -2.1319 -1.5402 -1.2783
  281MOL0     O37801   8.673   8.805   7.160 -0.5381  0.1425 -0.0691
  281MOL0     C37802   8.783   8.868   7.155  0.1180  0.9632  0.6205
  281MOL0     O37803   8.810   8.959   7.059  0.0781  0.0276 -0.2117
  281MOL0     C37804   8.740   8.960   6.933 -0.3166  0.6554  0.3878
  281MOL0     C37805   8.670   8.860   6.863  1.2141  0.4092 -0.1606
  281MOL0     C37806   8.610   8.883   6.735 -1.0711  0.0985  0.3362
  281MOL0     C37807   8.626   9.012   6.681  0.0672  0.5216 -0.6945
  281MOL0     O37808   8.575   9.028   6.552 -0.5145  0.5611 -0.2004
  281MOL0     C37809   8.650   8.964   6.436 -0.1753  0.8787 -0.2532
  281MOL0     C37810   8.542   8.867   6.361  0.0668  1.5592 -0.8158
  281MOL0     C37811   8.418   8.934   6.299 -0.0741 -0.2146 -0.6075
  281MOL0     C37812   8.459   9.030   6.191 -0.0514 -0.2572  0.1625
  281MOL0     C37813   8.331   9.071   6.109  0.2348 -0.0202  0.5367
  281MOL0     C37814   8.380   9.162   5.999  0.1561  0.4629  0.3844
  281MOL0     C37815   8.267   9.207   5.895 -0.0160  0.3873 -0.0068
  281MOL0     C37816   8.335   9.276   5.788  0.0615  0.2768  0.3845
  281MOL0     N37817   8.246   9.333   5.683  0.6689  0.0023 -0.3167
  281MOL0     C37818   8.197   9.270   5.577  0.4464  0.1732  0.1421
  281MOL0     C37819   8.091   9.348   5.539  0.1993  1.3810  0.1791
  281MOL0     C37820   8.014   9.312   5.411  0.5978 -0.5931 -0.9255
  281MOL0     C37821   8.042   9.405   5.293  1.1445 -0.3768 -0.1543
  281MOL0     C37822   8.140   9.337   5.202  0.1387 -0.3879 -0.3828
  281MOL0     C37823   8.174   9.441   5.092 -0.6439 -0.1772  1.0498
  281MOL0     O37824   8.276   9.396   5.000  0.6331  0.2529 -0.6414
  281MOL0     C37825   8.324   9.482   4.904  0.4312  0.2202  0.4448
  281MOL0     C37826   8.448   9.444   4.855  1.3475 -0.4066  0.3720
  281MOL0     C37827   8.515   9.526   4.769  0.4512  0.2422 -0.0490
  281MOL0     C37828   8.630   9.465   4.686  0.3984  0.7227 -1.0223
  281MOL0     C37829   8.465   9.661   4.738 -0.7941  0.2621 -0.0148
  281MOL0     C37830   8.532   9.757   4.641  0.2449  0.1901 -1.0742
  281MOL0     O37831   8.447   9.848   4.603  0.7045 -0.0101 -0.3326
  281MOL0     C37832   8.475   9.973   4.553 -0.3581  0.1637  0.5816
  281MOL0     C37833   8.439  10.083   4.627  0.4962  0.4250  0.8831
  281MOL0     C37834   8.469  10.212   4.578  0.6495 -0.2432  0.1356
  281MOL0     C37835   8.513  10.231   4.443 -0.3169 -0.3012  0.6272
  281MOL0     O37836   8.517  10.359   4.388 -0.2642 -0.0197  0.0521
  281MOL0     C37837   8.521  10.396   4.244  0.2829  0.1790  0.5917
  281MOL0     C37838   8.444  10.520   4.220  0.3145  0.4006 -0.6435
  281MOL0     C37839   8.496  10.639   4.308  0.2341 -0.6261  0.4439
  281MOL0     C37840   8.387  10.745   4.328  0.5751 -0.0989  0.1154
  281MOL0     C37841   8.443  10.878   4.372 -0.0401  0.2812  0.1262
  281MOL0     C37842   8.455  10.897   4.523  0.5557 -0.4827  0.0204
  281MOL0     C37843   8.515  11.032   4.559 -0.6182  0.3555  0.5214
  281MOL0     C37844   8.557  11.045   4.709 -0.0316  0.3469  0.3836
  281MOL0    Cl37845   8.416  11.051   4.818  0.1946  0.4224  0.1253
  281MOL0     C37846   8.540  10.112   4.369  0.0321  0.3297 -0.4897
  281MOL0     C37847   8.528   9.986   4.425 -0.5945 -0.4495 -0.0343
  281MOL0     O37848   8.646   9.743   4.598 -0.1182  0.8449 -0.7320
  281MOL0     C37849   8.342   9.692   4.797 -0.1821 -0.3726  0.1088
  281MOL0     C37850   8.275   9.604   4.871  1.2019 -0.0858 -0.9023
  281MOL0     N37851   8.067   9.446   5.632 -0.7495 -0.5816 -0.5490
  281MOL0     N37852   8.164   9.443   5.709 -0.7261 -0.2855  0.0956
  281MOL0     C37853   8.701   9.111   6.752 -0.2433 -0.0702 -0.2291
  281MOL0     C37854   8.754   9.080   6.867  0.4928 -0.1451 -1.1764
  281MOL0     C37855   8.876   8.851   7.269 -0.6257  0.5080 -0.5547
  281MOL0     C37856   9.010   8.896   7.249 -0.2372 -0.1556  1.5077
  281MOL0     C37857   9.112   8.879   7.349  1.1494  0.4806 -0.6007
  281MOL0     C37858   9.074   8.823   7.476 -0.5482 -0.5375  1.3418
  281MOL0     O37859   9.179   8.803   7.565  0.3135 -0.1677  0.8452
  281MOL0     C37860   9.155   8.703   7.659 -0.4397  0.2325  0.3518
  281MOL0     C37861   9.276   8.695   7.751  0.1786  0.4295 -0.1437
  281MOL0     C37862   9.284   8.799   7.861  0.0507  0.8778  0.0337
  281MOL0     C37863   9.424   8.813   7.925 -0.3782 -0.2652 -0.0702
  281MOL0     C37864   9.463   8.682   7.984 -0.5801 -0.4919 -0.5088
  281MOL0     C37865   9.498   8.571   8.023 -0.2597  0.0743  1.0157
  281MOL0     C37866   8.939   8.783   7.496  0.0142  0.7436 -0.1017
  281MOL0     C37867   8.845   8.791   7.392  0.4992 -0.6765 -0.7792
  281MOL0     H37868   8.658   8.764   6.911  2.4678 -0.1905 -0.9913
  281MOL0     H37869   8.563   8.807   6.672 -0.5712 -0.9077  1.1402
  281MOL0     H37870   8.691   9.037   6.366  2.6724  1.3562  1.7271
  281MOL0     H37871   8.741   8.911   6.467  1.2064  3.6659  0.8150
  281MOL0     H37872   8.584   8.794   6.290  0.2206 -0.9756  1.7252
  281MOL0     H37873   8.503   8.802   6.439  1.8649  1.7613  0.3167
  281MOL0     H37874   8.348   8.857   6.266  0.3826 -1.6829  1.6555
  281MOL0     H37875   8.375   8.981   6.388  2.7532 -1.1414  1.4048
  281MOL0     H37876   8.502   9.121   6.234 -0.2090  0.1222 -0.4792
  281MOL0     H37877   8.532   8.981   6.127 -1.2060  1.7657 -2.9149
  281MOL0     H37878   8.276   8.983   6.073 -0.4548 -0.7891  3.1942
  281MOL0     H37879   8.264   9.131   6.172 -2.9933  1.3792 -3.7632
  281MOL0     H37880   8.423   9.254   6.038  0.3520  1.1572 -1.3528
  281MOL0     H37881   8.459   9.113   5.942 -1.7815 -1.4535 -0.8050
  281MOL0     H37882   8.213   9.123   5.849 -0.8763  0.0961  1.4519
  281MOL0     H37883   8.199   9.277   5.945 -0.3430  0.6594 -0.8298
  281MOL0     H37884   8.402   9.208   5.734  0.7234 -1.4490  3.1962
  281MOL0     H37885   8.395   9.359   5.828  0.0888  2.1746 -3.1146
  281MOL0     H37886   8.252   9.193   5.524  0.1784 -1.0639  1.5997
  281MOL0     H37887   8.022   9.206   5.385 -0.3594 -1.0310  0.4251
  281MOL0     H37888   7.910   9.317   5.443  1.4014 -1.4588  2.1883
  281MOL0     H37889   8.087   9.496   5.334  1.7347  2.1282 -5.5689
  281MOL0     H37890   7.955   9.430   5.232 -1.1633 -1.1736  2.5694
  281MOL0     H37891   8.097   9.249   5.154 -1.1397 -0.8768  1.5517
  281MOL0     H37892   8.231   9.310   5.257 -0.0516  2.3444  1.4959
  281MOL0     H37893   8.219   9.530   5.135  2.4405 -1.0326 -0.1442
  281MOL0     H37894   8.082   9.469   5.040  0.3661  0.1140 -0.6739
  281MOL0     H37895   8.487   9.347   4.885  0.5321 -1.2461 -1.1597
  281MOL0     H37896   8.717   9.531   4.698  2.7127 -1.8867 -2.4188
  281MOL0     H37897   8.648   9.360   4.710  2.6895  0.9953 -1.3251
  281MOL0     H37898   8.609   9.480   4.579 -0.9227  0.0531 -0.8830
  281MOL0     H37899   8.412  10.052   4.728 -1.7979 -2.4543 -0.4660
  281MOL0     H37900   8.448  10.302   4.636  1.6363 -0.8181  1.4399
  281MOL0     H37901   8.621  10.412   4.204  0.3178 -0.5399  0.3646
  281MOL0     H37902   8.479  10.314   4.185  2.2332 -1.7567  1.7588
  281MOL0     H37903   8.432  10.548   4.115 -1.2097  0.5987 -0.4414
  281MOL0     H37904   8.341  10.506   4.256  0.3101  0.0798 -0.7809
  281MOL0     H37905   8.586  10.680   4.261  1.2998  0.0437  2.8740
  281MOL0     H37906   8.523  10.602   4.407  3.1463  0.2304  0.0615
  281MOL0     H37907   8.336  10.756   4.231  1.9475 -0.7879 -0.7192
  281MOL0     H37908   8.312  10.710   4.399 -0.2325  0.5354 -0.4142
  281MOL0     H37909   8.370  10.951   4.334 -0.4899 -1.5967 -2.9509
  281MOL0     H37910   8.545  10.891   4.334  0.9862  1.1924  2.9012
  281MOL0     H37911   8.352  10.897   4.562  0.3310  2.0424 -0.4479
  281MOL0     H37912   8.503  10.809   4.567 -0.8090 -2.6122 -2.4364
  281MOL0     H37913   8.447  11.109   4.521 -0.6442 -0.2720 -0.7560
  281MOL0     H37914   8.610  11.042   4.506 -0.2050  0.0576  1.1994
  281MOL0     H37915   8.617  11.134   4.729 -0.3972  0.5502  0.5752
  281MOL0     H37916   8.606  10.951   4.735 -0.2652 -0.0623 -0.6090
  281MOL0     H37917   8.586  10.134   4.273 -0.1973  1.1919 -0.4155
  281MOL0     H37918   8.550   9.892   4.377  1.4683 -0.9887  1.7982
  281MOL0     H37919   8.293   9.787   4.782  0.2598  0.0784  1.4100
  281MOL0     H37920   8.175   9.622   4.908  1.1837 -1.2812 -0.3595
  281MOL0     H37921   8.721   9.204   6.700  0.1146 -1.0052 -1.8406
  281MOL0     H37922   8.828   9.150   6.904 -0.4180  1.4716 -2.2990
  281MOL0     H37923   9.047   8.960   7.170  0.0079 -3.2580 -1.0807
  281MOL0     H37924   9.215   8.912   7.340  1.5647 -1.2004 -2.5663
  281MOL0     H37925   9.068   8.719   7.724 -1.0195  1.5849 -0.7004
  281MOL0     H37926   9.134   8.609   7.608  0.2432  1.5759 -2.6058
  281MOL0     H37927   9.367   8.700   7.691  1.1867 -3.2456  0.8156
  281MOL0     H37928   9.269   8.596   7.796 -2.4353 -0.1147 -1.5297
  281MOL0     H37929   9.209   8.778   7.939 -1.2911  3.0153 -0.5946
  281MOL0     H37930   9.258   8.895   7.816 -0.8138  0.5541 -0.1796
  281MOL0     H37931   9.410   8.896   7.995 -1.5798  1.8860 -2.7023
  281MOL0     H37932   9.495   8.846   7.849 -1.7780  2.1005 -0.4402
  281MOL0     H37933   9.504   8.464   8.027  0.4483  0.0694  0.0705
  281MOL0     H37934   8.903   8.755   7.595  0.5062 -1.1746 -0.4244
  281MOL0     H37935   8.746   8.748   7.407  1.3266 -1.6529  3.0009
  282MOL0     O37936   8.803   4.755   2.906  0.0193  0.0710 -0.0317
  282MOL0     C37937   8.885   4.839   2.867 -0.4734  0.7879 -1.1066
  282MOL0     O37938   8.918   4.954   2.930  0.2557  0.0241 -0.6299
  282MOL0     C37939   8.830   4.998   3.028 -0.3977 -0.7114  0.2679
  282MOL0     C37940   8.732   5.083   2.988  0.1169  0.5363  0.8267
  282MOL0     C37941   8.622   5.124   3.066  0.0764  0.0087 -0.1603
  282MOL0     C37942   8.620   5.086   3.208  0.3432 -0.2119  0.5444
  282MOL0     O37943   8.507   5.106   3.286 -0.3131 -0.3891 -0.2358
  282MOL0     C37944   8.451   5.242   3.283  0.1761 -0.2000 -0.4042
  282MOL0     C37945   8.298   5.228   3.291 -0.4432 -0.4510  0.6336
  282MOL0     C37946   8.225   5.357   3.270  0.8315 -0.3738 -0.0172
  282MOL0     C37947   8.195   5.363   3.120 -0.0918 -0.7995 -0.1287
  282MOL0     C37948   8.147   5.513   3.079 -0.0005  0.1285  0.3180
  282MOL0     C37949   8.242   5.636   3.086 -0.3185  0.6065 -0.3790
  282MOL0     C37950   8.384   5.613   3.030 -0.9026 -0.5840 -0.7821
  282MOL0     C37951   8.372   5.590   2.878 -0.6739  0.9833 -0.9257
  282MOL0     N37952   8.510   5.554   2.827  0.7969 -0.5293  0.1473
  282MOL0     C37953   8.545   5.431   2.790 -0.5402 -0.2294  0.0512
  282MOL0     C37954   8.665   5.452   2.720  0.1638  0.1960 -1.1937
  282MOL0     C37955   8.724   5.329   2.648 -0.2194 -0.2121 -0.4508
  282MOL0     C37956   8.690   5.325   2.500 -0.2226  0.2103  0.4573
  282MOL0     C37957   8.755   5.207   2.426  0.4015 -0.0227 -0.3330
  282MOL0     C37958   8.731   5.208   2.279 -1.0863 -0.2408  0.6972
  282MOL0     O37959   8.827   5.136   2.198 -0.6148  0.2840 -0.6862
  282MOL0     C37960   8.799   5.006   2.185  0.4867  0.3250 -0.0211
  282MOL0     C37961   8.715   4.968   2.077 -0.3863  0.4055 -0.3909
  282MOL0     C37962   8.679   4.838   2.057 -0.0386  0.2796 -0.1544
  282MOL0     C37963   8.586   4.822   1.936  0.1006  0.4251 -0.0539
  282MOL0     C37964   8.720   4.736   2.147 -0.2097 -0.2813 -0.5143
  282MOL0     C37965   8.677   4.595   2.141  0.0397 -0.3320 -0.8352
  282MOL0     O37966   8.773   4.492   2.142  0.2512  0.2665  0.0168
  282MOL0     C37967   8.733   4.358   2.136  0.1705  0.1425  0.1189
  282MOL0     C37968   8.791   4.266   2.217 -0.1828  0.5715 -0.4646
  282MOL0     C37969   8.770   4.131   2.199 -0.2374 -0.5192 -0.0462
  282MOL0     C37970   8.668   4.080   2.120  0.4313  0.6660 -0.2406
  282MOL0     O37971   8.637   3.948   2.118  0.1224 -0.1386 -0.6218
  282MOL0     C37972   8.662   3.881   1.999 -0.1081 -0.6236 -0.7155
  282MOL0     C37973   8.813   3.837   1.984 -0.3907 -0.9181  0.6365
  282MOL0     C37974   8.853   3.736   2.086  0.0822  0.8976 -0.9108
  282MOL0     C37975   8.789   3.595   2.078 -0.2186 -0.4732  0.4542
  282MOL0     C37976   8.861   3.486   2.165 -0.1845  0.2452 -0.6265
  282MOL0     C37977   8.813   3.350   2.138  0.1383 -0.7136  0.9611
  282MOL0     C37978   8.887   3.248   2.214  0.3347 -0.2697 -0.1589
  282MOL0     C37979   8.855   3.098   2.177  0.0541  0.2161 -0.7641
  282MOL0    Cl37980   8.892   3.059   2.007  0.1055 -0.2625 -0.3256
  282MOL0     C37981   8.595   4.174   2.053  1.3309 -0.1397  0.2931
  282MOL0     C37982   8.623   4.312   2.058  0.0112 -0.2452 -0.0096
  282MOL0     O37983   8.557   4.581   2.137 -0.1613 -0.1553 -0.2125
  282MOL0     C37984   8.800   4.773   2.262 -1.0713  0.0419 -0.4047
  282MOL0     C37985   8.844   4.910   2.277  0.7313  0.3128 -0.3781
  282MOL0     N37986   8.708   5.581   2.741  0.2553 -0.9594 -0.3538
  282MOL0     N37987   8.610   5.641   2.806  0.1080  0.2307  0.5314
  282MOL0     C37988   8.728   5.010   3.256 -0.0858  0.2612  1.0420
  282MOL0     C37989   8.829   4.969   3.168 -0.4525 -0.3303 -0.1534
  282MOL0     C37990   8.954   4.814   2.742 -0.3545 -0.6275  0.1011
  282MOL0     C37991   8.940   4.697   2.669 -0.0991  0.0642 -0.0107
  282MOL0     C37992   9.008   4.669   2.547 -0.2543 -0.0604  0.4939
  282MOL0     C37993   9.109   4.755   2.510 -0.9175 -0.8869 -0.1106
  282MOL0     O37994   9.194   4.756   2.404 -0.1258 -0.1465  0.3925
  282MOL0     C37995   9.266   4.628   2.375  0.2010  0.1202 -0.3103
  282MOL0     C37996   9.357   4.564   2.476  0.1333 -0.2680 -0.1183
  282MOL0     C37997   9.453   4.674   2.524 -0.2126  0.0150 -1.0438
  282MOL0     C37998   9.534   4.754   2.418  0.1015  0.2557 -0.3797
  282MOL0     C37999   9.582   4.695   2.294 -0.3654  0.3617  0.1801
  282MOL0     C38000   9.603   4.647   2.185  0.5175  0.0355 -0.4968
  282MOL0     C38001   9.132   4.876   2.583  0.0411  1.3323  0.0687
  282MOL0     C38002   9.052   4.897   2.695 -0.1478 -0.5695 -0.0788
  282MOL0     H38003   8.729   5.091   2.880  0.1160 -0.4033  0.7403
  282MOL0     H38004   8.540   5.182   3.027 -1.4403 -1.0037  1.3654
  282MOL0     H38005   8.496   5.281   3.375  0.9327 -2.2176  0.1457
  282MOL0     H38006   8.472   5.303   3.195  1.1475  2.0137  1.2604
  282MOL0     H38007   8.254   5.154   3.224 -1.1544 -0.0117  0.6106
  282MOL0     H38008   8.281   5.191   3.392  1.7166  1.3080  1.7359
  282MOL0     H38009   8.134   5.370   3.329 -1.6041  0.8114 -3.6994
  282MOL0     H38010   8.296   5.434   3.301  1.7140 -0.7550 -0.9761
  282MOL0     H38011   8.280   5.331   3.060  0.6141  0.8185 -0.0248
  282MOL0     H38012   8.107   5.299   3.109 -0.5116 -0.4134  0.8593
  282MOL0     H38013   8.102   5.508   2.980  0.9541  0.3895 -0.1383
  282MOL0     H38014   8.069   5.553   3.145  1.6314  3.0676  0.5968
  282MOL0     H38015   8.194   5.729   3.054 -0.8721 -0.0533 -1.5056
  282MOL0     H38016   8.257   5.642   3.194  2.2355 -1.4774 -0.5218
  282MOL0     H38017   8.439   5.706   3.044  0.4446 -1.7974  3.0659
  282MOL0     H38018   8.434   5.534   3.087  0.4802  1.2850  0.7241
  282MOL0     H38019   8.316   5.679   2.846 -1.9852  3.0923  5.7703
  282MOL0     H38020   8.315   5.498   2.865  2.3357 -1.1380  0.0039
  282MOL0     H38021   8.487   5.339   2.784 -2.3517  0.8671  0.0861
  282MOL0     H38022   8.832   5.331   2.664 -0.5855 -1.2042  3.1471
  282MOL0     H38023   8.685   5.239   2.696  0.9624  0.7702  2.6370
  282MOL0     H38024   8.712   5.420   2.450 -0.3809 -0.5854 -1.1941
  282MOL0     H38025   8.582   5.311   2.506 -0.0845 -0.2594  2.8806
  282MOL0     H38026   8.722   5.111   2.468  4.1967 -1.0538  0.7175
  282MOL0     H38027   8.861   5.209   2.453  0.7191 -2.4086 -1.1433
  282MOL0     H38028   8.716   5.308   2.235 -3.8715 -1.0860 -0.4926
  282MOL0     H38029   8.637   5.153   2.274 -2.8760  2.6891 -0.7847
  282MOL0     H38030   8.677   5.049   2.016  0.4162  3.0333  2.3722
  282MOL0     H38031   8.481   4.811   1.966  0.6328 -0.0713  1.7569
  282MOL0     H38032   8.597   4.897   1.857  2.4115  0.9519  0.6873
  282MOL0     H38033   8.596   4.730   1.878 -0.1982  1.8438 -2.4645
  282MOL0     H38034   8.876   4.296   2.278  0.8582  0.3125 -1.7423
  282MOL0     H38035   8.845   4.070   2.248 -0.8826 -0.9634  0.4028
  282MOL0     H38036   8.597   3.794   2.004 -0.1199 -0.6428 -1.2131
  282MOL0     H38037   8.634   3.946   1.916  2.7711 -1.5527 -2.5604
  282MOL0     H38038   8.838   3.793   1.887 -0.1544 -0.1251  0.3318
  282MOL0     H38039   8.877   3.925   1.990  0.5682 -1.6449  1.5706
  282MOL0     H38040   8.840   3.775   2.187 -4.6081 -0.4872 -0.7235
  282MOL0     H38041   8.958   3.719   2.062 -0.8290 -2.8966 -2.9743
  282MOL0     H38042   8.685   3.601   2.112 -0.1407 -2.2276  1.0915
  282MOL0     H38043   8.791   3.564   1.973  0.8803  1.4838 -0.1454
  282MOL0     H38044   8.829   3.514   2.266 -2.3104 -0.2645 -1.1140
  282MOL0     H38045   8.968   3.492   2.144  0.2201  0.8391  1.3934
  282MOL0     H38046   8.704   3.343   2.143  0.1296 -1.5222  0.0853
  282MOL0     H38047   8.840   3.331   2.034 -0.1462 -0.4769  0.8416
  282MOL0     H38048   8.848   3.271   2.314 -1.9643 -1.4600 -0.7098
  282MOL0     H38049   8.996   3.245   2.212  0.3659 -0.1355  0.6964
  282MOL0     H38050   8.754   3.070   2.208  0.8476 -2.7094 -0.5308
  282MOL0     H38051   8.921   3.030   2.231  2.3969  2.7534 -0.1947
  282MOL0     H38052   8.505   4.149   1.998  2.2298 -2.5417 -0.2148
  282MOL0     H38053   8.561   4.384   2.005 -1.0511  0.9539  2.6633
  282MOL0     H38054   8.827   4.699   2.335 -0.7791  0.2185 -0.3327
  282MOL0     H38055   8.899   4.926   2.369 -0.9037 -1.9594  1.1085
  282MOL0     H38056   8.735   4.987   3.362 -3.1451 -3.2115  0.6690
  282MOL0     H38057   8.901   4.899   3.209 -1.6278 -1.7816 -0.4710
  282MOL0     H38058   8.872   4.619   2.704 -1.6060  1.4536  0.2658
  282MOL0     H38059   8.987   4.579   2.491  1.4787  0.5074 -1.1587
  282MOL0     H38060   9.204   4.543   2.346 -0.2502  0.1066  0.6735
  282MOL0     H38061   9.320   4.648   2.282 -0.7703  1.9412 -0.5432
  282MOL0     H38062   9.421   4.488   2.429  2.7265  0.3860  2.1166
  282MOL0     H38063   9.299   4.518   2.556  4.3582  0.0664  3.5160
  282MOL0     H38064   9.529   4.638   2.593 -3.5548 -1.2875  2.3307
  282MOL0     H38065   9.387   4.735   2.588 -2.2339 -0.1382 -2.8576
  282MOL0     H38066   9.620   4.806   2.461 -0.0765  2.4538 -2.4736
  282MOL0     H38067   9.468   4.832   2.379  1.2820  0.8186 -1.3123
  282MOL0     H38068   9.592   4.594   2.093 -2.8095  1.2951 -0.9487
  282MOL0     H38069   9.215   4.943   2.564  2.5516 -0.5029  3.4676
  282MOL0     H38070   9.070   4.993   2.744 -0.1292  0.7734 -2.5437
  283MOL0     O38071   7.375  10.452   2.803  0.2006  0.0840  0.8863
  283MOL0     C38072   7.418  10.489   2.694 -0.3741  0.1586  0.8038
  283MOL0     O38073   7.339  10.531   2.591 -0.2869  0.5180 -0.1652
  283MOL0     C38074   7.210  10.559   2.604 -0.4682  0.0394 -0.0151
  283MOL0     C38075   7.133  10.553   2.490  0.1178  0.3741  0.2721
  283MOL0     C38076   6.994  10.584   2.493  0.9147 -0.2350  0.8535
  283MOL0     C38077   6.934  10.607   2.613 -0.1477 -1.0552 -0.9755
  283MOL0     O38078   6.802  10.640   2.625  0.2594  0.3206  1.1583
  283MOL0     C38079   6.710  10.577   2.532 -0.6123  0.3681  0.2838
  283MOL0     C38080   6.676  10.667   2.413  1.0763 -0.3266  0.1587
  283MOL0     C38081   6.537  10.656   2.343 -0.5795  0.5269 -0.8113
  283MOL0     C38082   6.476  10.518   2.354  0.3894 -0.3065 -0.7502
  283MOL0     C38083   6.338  10.506   2.288 -0.1294 -0.1630  0.4907
  283MOL0     C38084   6.311  10.380   2.215 -0.3220  0.3641  0.3941
  283MOL0     C38085   6.185  10.411   2.138 -0.1254  0.8205  1.0515
  283MOL0     C38086   6.137  10.296   2.036 -0.2143 -0.2964 -0.6910
  283MOL0     N38087   6.035  10.323   1.940 -0.5183  0.0814  0.3396
  283MOL0     C38088   5.905  10.359   1.971  1.8681  1.0145  0.3436
  283MOL0     C38089   5.842  10.390   1.855  0.0022 -0.3455 -0.1678
  283MOL0     C38090   5.713  10.462   1.860 -0.2114 -0.1459 -0.2501
  283MOL0     C38091   5.599  10.363   1.826 -0.2471 -0.9108  0.2239
  283MOL0     C38092   5.615  10.307   1.684  1.0856 -0.5040  0.3473
  283MOL0     C38093   5.526  10.392   1.580  0.5302 -0.3685 -0.0347
  283MOL0     O38094   5.546  10.328   1.452 -0.8087 -0.9430  0.2775
  283MOL0     C38095   5.439  10.282   1.391 -0.5876  0.2819  0.4400
  283MOL0     C38096   5.415  10.147   1.386 -0.1564  0.1899  0.1695
  283MOL0     C38097   5.313  10.091   1.310  1.5357  0.6393 -0.6668
  283MOL0     C38098   5.291   9.948   1.319 -0.7366  0.9608  1.2673
  283MOL0     C38099   5.237  10.183   1.234 -0.0504 -0.2533  0.2905
  283MOL0     C38100   5.128  10.137   1.149  0.3009 -0.0919 -0.0095
  283MOL0     O38101   5.029  10.232   1.134 -0.0245 -0.8245  0.0378
  283MOL0     C38102   4.900  10.201   1.116  0.3289  0.6933 -0.5098
  283MOL0     C38103   4.829  10.246   1.009  1.0250 -0.8304  0.0109
  283MOL0     C38104   4.694  10.208   0.994  0.5725  0.8064  0.1889
  283MOL0     C38105   4.628  10.129   1.081 -0.1744  0.0540 -0.4661
  283MOL0     O38106   4.493  10.135   1.061 -0.2816 -0.8069  0.3024
  283MOL0     C38107   4.415  10.090   1.168 -0.4692  0.4717 -0.6833
  283MOL0     C38108   4.265  10.113   1.160 -1.1745 -0.5921 -0.2149
  283MOL0     C38109   4.203  10.093   1.021  0.2545 -0.2326 -0.2550
  283MOL0     C38110   4.077  10.182   0.999  0.0824  0.4034 -0.3643
  283MOL0     C38111   4.007  10.141   0.874 -0.0635 -0.0275 -0.5808
  283MOL0     C38112   3.897  10.240   0.822 -0.4459  0.3581 -1.1291
  283MOL0     C38113   3.849  10.207   0.687  0.1469  0.2303  0.1586
  283MOL0     C38114   3.883  10.321   0.590  1.5242  0.1281  0.1966
  283MOL0    Cl38115   4.054  10.314   0.535  0.1128 -0.0036 -0.1250
  283MOL0     C38116   4.698  10.074   1.193  0.6739  0.3050 -0.0048
  283MOL0     C38117   4.836  10.110   1.212  0.2085  0.5189  0.5623
  283MOL0     O38118   5.125  10.023   1.104 -0.0398 -0.6311  0.7117
  283MOL0     C38119   5.261  10.320   1.233 -0.2633 -0.5392  1.1649
  283MOL0     C38120   5.367  10.368   1.307  0.0835  0.2744  0.1673
  283MOL0     N38121   5.934  10.374   1.751  0.4507 -0.6716 -0.5187
  283MOL0     N38122   6.053  10.329   1.805  0.0604  0.8967  0.3154
  283MOL0     C38123   7.005  10.623   2.728  0.0779 -0.0067  0.7429
  283MOL0     C38124   7.143  10.594   2.724 -0.1018 -0.1734 -0.2513
  283MOL0     C38125   7.569  10.467   2.673  0.4186  0.0982 -0.6460
  283MOL0     C38126   7.625  10.479   2.542  1.1817 -0.6356 -0.6946
  283MOL0     C38127   7.762  10.479   2.524 -0.2749  0.6962 -0.5772
  283MOL0     C38128   7.841  10.452   2.643 -0.0255 -0.2579 -0.0633
  283MOL0     O38129   7.974  10.466   2.648  0.0070  0.2745 -0.5063
  283MOL0     C38130   8.047  10.389   2.558 -1.4391  1.1106 -0.2641
  283MOL0     C38131   8.043  10.236   2.573  0.6820 -0.0267  0.1299
  283MOL0     C38132   8.078  10.151   2.448 -0.8111 -0.0107 -0.5932
  283MOL0     C38133   8.223  10.116   2.439 -0.1936  0.0152  0.4956
  283MOL0     C38134   8.295  10.220   2.366 -0.1160 -0.7851 -0.1453
  283MOL0     C38135   8.360  10.286   2.284  0.0596  0.1166 -0.3308
  283MOL0     C38136   7.782  10.448   2.769  0.3206 -0.4706 -1.1356
  283MOL0     C38137   7.650  10.462   2.785  1.0252  1.0967  0.1935
  283MOL0     H38138   7.192  10.517   2.406  0.8797  1.3832  0.3538
  283MOL0     H38139   6.938  10.585   2.400  1.0673  0.6190  0.7587
  283MOL0     H38140   6.749  10.486   2.485  1.4270  1.1116  0.4200
  283MOL0     H38141   6.625  10.553   2.596  0.3353  0.0158  1.4608
  283MOL0     H38142   6.662  10.772   2.443  0.8366 -0.0553 -0.8606
  283MOL0     H38143   6.758  10.669   2.340  0.9524 -0.4882  0.0169
  283MOL0     H38144   6.461  10.728   2.374 -0.6612  0.6509 -1.2884
  283MOL0     H38145   6.563  10.673   2.238 -2.1005 -4.1975 -2.2217
  283MOL0     H38146   6.552  10.443   2.331  2.5201  1.4783  0.0796
  283MOL0     H38147   6.456  10.505   2.461 -2.8826  2.1039 -0.9097
  283MOL0     H38148   6.255  10.518   2.357 -0.5165 -0.1168  0.0203
  283MOL0     H38149   6.338  10.589   2.217  1.6566  0.3722  1.0600
  283MOL0     H38150   6.392  10.368   2.142 -0.5750 -3.3293  0.5400
  283MOL0     H38151   6.298  10.293   2.279 -1.4429  0.0003 -0.3120
  283MOL0     H38152   6.096  10.423   2.201 -2.1783  0.2766 -1.5798
  283MOL0     H38153   6.205  10.499   2.076 -1.5376  1.5656  1.6114
  283MOL0     H38154   6.103  10.214   2.099 -1.5370 -0.0205 -1.0031
  283MOL0     H38155   6.227  10.269   1.979 -0.4092  1.8838 -2.2023
  283MOL0     H38156   5.862  10.359   2.071 -0.3586 -4.5394 -0.2718
  283MOL0     H38157   5.714  10.519   1.954  2.6642 -0.3915 -0.0430
  283MOL0     H38158   5.715  10.546   1.791 -1.7716  0.4219  0.3497
  283MOL0     H38159   5.499  10.402   1.848  0.2796  0.5807  0.1003
  283MOL0     H38160   5.608  10.274   1.889 -2.5459  0.0869  2.0978
  283MOL0     H38161   5.574  10.206   1.678 -4.6652  1.4386  0.9211
  283MOL0     H38162   5.723  10.293   1.670  1.2645 -1.1225  1.9985
  283MOL0     H38163   5.558  10.496   1.591 -3.5375  1.7989 -4.7119
  283MOL0     H38164   5.418  10.390   1.599  0.2190 -3.5811 -1.4229
  283MOL0     H38165   5.479  10.083   1.447 -2.0144 -0.7691  1.2284
  283MOL0     H38166   5.359   9.899   1.389 -0.4499 -0.7486 -0.1424
  283MOL0     H38167   5.189   9.923   1.350 -1.2678  0.6213 -0.6635
  283MOL0     H38168   5.306   9.903   1.221  0.8968  2.2967  0.8610
  283MOL0     H38169   4.872  10.306   0.929 -0.0417 -2.6703 -2.0704
  283MOL0     H38170   4.638  10.250   0.912  0.1787 -0.1558 -0.0496
  283MOL0     H38171   4.436   9.982   1.174  0.3204  0.6001 -1.0201
  283MOL0     H38172   4.447  10.133   1.264 -2.1160 -0.0445  0.1489
  283MOL0     H38173   4.217  10.032   1.217 -0.4806 -1.2910 -0.6019
  283MOL0     H38174   4.246  10.212   1.202 -0.0599  0.3197 -1.7748
  283MOL0     H38175   4.167   9.989   1.018 -1.1033  0.0842  2.3268
  283MOL0     H38176   4.271  10.117   0.939 -0.9907  0.7241 -1.0662
  283MOL0     H38177   4.014  10.151   1.083  2.0053 -3.4403 -0.1172
  283MOL0     H38178   4.105  10.287   0.991 -0.3347  0.5413 -0.0060
  283MOL0     H38179   3.963  10.042   0.894 -2.4073  1.2235  0.8598
  283MOL0     H38180   4.080  10.133   0.793 -0.4668  2.9014 -1.3414
  283MOL0     H38181   3.818  10.232   0.897 -0.1508  0.4386 -0.8084
  283MOL0     H38182   3.932  10.343   0.822 -0.4245  0.3534 -0.5634
  283MOL0     H38183   3.740  10.205   0.695  0.3009  0.2893  3.3906
  283MOL0     H38184   3.880  10.115   0.637 -2.1233  0.0114 -0.9770
  283MOL0     H38185   3.860  10.421   0.627 -0.6118  0.1850 -1.1230
  283MOL0     H38186   3.826  10.302   0.499  0.4514 -0.7715  1.0325
  283MOL0     H38187   4.659   9.997   1.259 -1.6927  1.8077  0.4483
  283MOL0     H38188   4.895  10.071   1.294 -1.4627  2.4923  2.8504
  283MOL0     H38189   5.203  10.380   1.163 -0.7471  0.0740  2.0874
  283MOL0     H38190   5.406  10.470   1.307  2.1245 -0.4452  1.6116
  283MOL0     H38191   6.953  10.640   2.822 -0.3922 -0.6507  0.6008
  283MOL0     H38192   7.202  10.611   2.814  3.3541  1.1690 -2.5556
  283MOL0     H38193   7.569  10.518   2.458 -1.1697 -2.0424  0.1406
  283MOL0     H38194   7.804  10.484   2.424 -3.2879 -0.4076 -2.0422
  283MOL0     H38195   8.032  10.423   2.455 -2.8719 -1.7685 -1.1219
  283MOL0     H38196   8.153  10.411   2.573 -0.4339 -2.3338 -1.3681
  283MOL0     H38197   7.939  10.210   2.596 -0.0179 -0.1883 -2.8533
  283MOL0     H38198   8.109  10.219   2.658  0.8462 -1.2540 -0.2270
  283MOL0     H38199   8.046  10.203   2.358 -0.9715  0.6820 -0.1464
  283MOL0     H38200   8.035  10.051   2.462  1.5872 -0.6942  3.6245
  283MOL0     H38201   8.238  10.022   2.386 -1.2257  0.2614 -0.2836
  283MOL0     H38202   8.274  10.111   2.535 -0.4793  3.0028  0.9015
  283MOL0     H38203   8.438  10.335   2.229  1.9081 -0.9649  1.1913
  283MOL0     H38204   7.844  10.440   2.858  2.5898  0.2290 -2.5748
  283MOL0     H38205   7.597  10.463   2.880 -1.8958 -0.1797 -1.3006
  284MOL0     O38206  10.956   9.795  10.159 -0.2306 -0.7304  0.8370
  284MOL0     C38207  10.947   9.858  10.051  0.5276 -0.3920 -0.3750
  284MOL0     O38208  11.037   9.946   9.997 -0.8680 -0.0550  0.1735
  284MOL0     C38209  11.168   9.967  10.053  0.7580 -0.6029  0.4595
  284MOL0     C38210  11.257   9.865  10.080 -0.7559  0.1356 -0.2534
  284MOL0     C38211  11.387   9.889  10.125  0.9294 -0.8513  0.3708
  284MOL0     C38212  11.429  10.022  10.139  0.7163 -0.5362 -0.1382
  284MOL0     O38213  11.562  10.049  10.181 -0.3757 -0.2869  0.0016
  284MOL0     C38214  11.590  10.173  10.256 -0.8727 -0.1861 -0.9346
  284MOL0     C38215  11.727  10.143  10.323 -0.8644 -0.3076  0.1575
  284MOL0     C38216  11.745  10.234  10.445 -0.8261 -1.0470 -0.1432
  284MOL0     C38217  11.673  10.208  10.574 -0.2410  0.7802  0.1025
  284MOL0     C38218  11.708  10.295  10.689 -0.1756  0.8993  0.1094
  284MOL0     C38219  11.647  10.248  10.817 -0.1554 -0.1261 -0.8540
  284MOL0     C38220  11.693  10.323  10.949 -0.0094  0.0940 -0.2977
  284MOL0     C38221  11.631  10.261  11.072 -0.1242 -0.0529 -0.3243
  284MOL0     N38222  11.487  10.234  11.066 -0.4179  0.3093  0.2839
  284MOL0     C38223  11.414  10.115  11.023 -0.1270 -1.6677  0.6990
  284MOL0     C38224  11.283  10.159  11.015 -0.4535  0.1119 -0.3497
  284MOL0     C38225  11.159  10.081  10.993  0.5965  0.7182 -1.2773
  284MOL0     C38226  11.169   9.949  11.066  0.2396 -0.1532  0.2764
  284MOL0     C38227  11.038   9.867  11.066  0.0858 -0.5527 -0.2934
  284MOL0     C38228  11.045   9.727  11.123  0.5140 -0.3511 -1.1148
  284MOL0     O38229  10.935   9.636  11.123  0.1534 -0.2066  0.7207
  284MOL0     C38230  10.844   9.676  11.210  0.0365 -0.3569 -0.1692
  284MOL0     C38231  10.852   9.621  11.338  0.3896  0.0560 -0.8931
  284MOL0     C38232  10.752   9.650  11.435 -0.1924  0.9858 -0.0383
  284MOL0     C38233  10.747   9.564  11.570 -0.0972  0.2834  0.1641
  284MOL0     C38234  10.654   9.747  11.404 -0.5076 -1.1579 -0.8320
  284MOL0     C38235  10.544   9.764  11.503 -0.6680  0.0673  1.4063
  284MOL0     O38236  10.570   9.802  11.630 -0.0105 -0.6432 -0.9287
  284MOL0     C38237  10.473   9.795  11.734  0.1896 -0.0741 -0.9197
  284MOL0     C38238  10.328   9.790  11.716 -0.0570  0.0363  0.8103
  284MOL0     C38239  10.245   9.796  11.832 -0.1998 -1.2149  0.4828
  284MOL0     C38240  10.293   9.770  11.964  0.3734  0.5440  0.4375
  284MOL0     O38241  10.210   9.755  12.073 -0.1560 -0.0126  0.3276
  284MOL0     C38242  10.085   9.689  12.047 -0.1673 -0.9163 -0.4205
  284MOL0     C38243  10.036   9.645  12.185 -0.7846  0.4937  0.4063
  284MOL0     C38244   9.925   9.541  12.188  0.0709  0.4612  1.0982
  284MOL0     C38245   9.797   9.589  12.128  0.0257 -1.0901 -0.2901
  284MOL0     C38246   9.688   9.483  12.104  0.1090  0.0165 -0.5124
  284MOL0     C38247   9.568   9.550  12.040  0.2075  0.4172 -0.2672
  284MOL0     C38248   9.592   9.610  11.897 -0.2318  0.4900 -0.2740
  284MOL0     C38249   9.463   9.655  11.834  0.7504 -0.4403 -0.1357
  284MOL0    Cl38250   9.509   9.755  11.691  0.1036 -0.1908  0.0858
  284MOL0     C38251  10.428   9.758  11.975  0.0891  1.5084  0.2076
  284MOL0     C38252  10.509   9.766  11.865  1.1766 -0.5160 -0.7182
  284MOL0     O38253  10.437   9.725  11.457  0.5822  0.2933 -0.2259
  284MOL0     C38254  10.638   9.798  11.275 -0.0642  0.0298 -0.3469
  284MOL0     C38255  10.736   9.760  11.176 -0.0265 -0.4737 -0.2938
  284MOL0     N38256  11.280  10.289  11.058  0.6635  0.0528  0.2422
  284MOL0     N38257  11.395  10.326  11.094 -0.2879 -0.6653  0.3263
  284MOL0     C38258  11.334  10.127  10.106  0.3303 -0.5244  0.9998
  284MOL0     C38259  11.211  10.096  10.055  0.5685 -1.5314 -0.3102
  284MOL0     C38260  10.816   9.832   9.976 -0.2317  0.2343  0.1483
  284MOL0     C38261  10.787   9.908   9.850 -0.2462 -0.6410  0.6788
  284MOL0     C38262  10.674   9.870   9.775  0.1400 -0.7057  0.2450
  284MOL0     C38263  10.581   9.781   9.833  0.0019  0.1646 -0.7474
  284MOL0     O38264  10.462   9.743   9.784 -0.0903 -1.1330  0.3316
  284MOL0     C38265  10.382   9.841   9.702 -0.2537  0.2540  0.0867
  284MOL0     C38266  10.264   9.773   9.642  1.1577 -0.0103 -0.4066
  284MOL0     C38267  10.151   9.737   9.744 -0.1982  0.4681  0.4962
  284MOL0     C38268  10.137   9.592   9.783  0.5761 -0.1338 -0.1618
  284MOL0     C38269  10.021   9.592   9.879 -0.1006 -0.2355  0.0860
  284MOL0     C38270   9.935   9.596   9.971 -0.6586 -0.8093  0.2208
  284MOL0     C38271  10.595   9.739   9.962  0.8596  0.0605  0.8617
  284MOL0     C38272  10.719   9.745  10.030 -0.0092 -0.1998 -0.3990
  284MOL0     H38273  11.220   9.764  10.069 -0.4827  0.0852 -0.7550
  284MOL0     H38274  11.447   9.803  10.150 -0.9324 -3.1895 -2.6001
  284MOL0     H38275  11.591  10.264  10.195 -2.5093  0.5473  0.0720
  284MOL0     H38276  11.514  10.190  10.333 -2.3933 -0.3825 -2.3253
  284MOL0     H38277  11.731  10.038  10.353  1.3005 -0.4326 -0.4434
  284MOL0     H38278  11.808  10.147  10.250 -0.4575 -1.7724  0.4954
  284MOL0     H38279  11.852  10.233  10.467 -0.9192 -1.1931  0.3100
  284MOL0     H38280  11.726  10.339  10.422  0.5677 -1.1303 -1.9126
  284MOL0     H38281  11.566  10.201  10.553  0.3424  0.7976 -3.5649
  284MOL0     H38282  11.694  10.111  10.619  1.8714  1.3404  0.4329
  284MOL0     H38283  11.817  10.295  10.696  0.1485 -0.1698 -3.4587
  284MOL0     H38284  11.663  10.393  10.668  0.5710  0.7230 -2.6982
  284MOL0     H38285  11.538  10.255  10.823 -0.3455 -3.2456  2.6056
  284MOL0     H38286  11.656  10.141  10.835 -3.2786 -0.0241  2.4331
  284MOL0     H38287  11.800  10.303  10.959  0.4524  2.5833  0.3134
  284MOL0     H38288  11.687  10.432  10.945  1.6191  0.1744 -1.3082
  284MOL0     H38289  11.672  10.318  11.155 -0.6693 -1.4503  0.9656
  284MOL0     H38290  11.684  10.166  11.067  0.8013  0.5286 -3.2384
  284MOL0     H38291  11.447  10.016  10.997 -0.9221 -1.3791 -1.6023
  284MOL0     H38292  11.074  10.131  11.040 -0.4776 -0.4534 -1.8904
  284MOL0     H38293  11.127  10.068  10.889 -0.1618 -1.8161 -0.8026
  284MOL0     H38294  11.197   9.966  11.170 -0.5035 -0.7891  0.5905
  284MOL0     H38295  11.244   9.895  11.008 -0.8810 -0.2911 -1.1081
  284MOL0     H38296  11.015   9.854  10.960  1.0658  2.4242 -0.9784
  284MOL0     H38297  10.957   9.924  11.112 -0.3935 -0.1694 -1.5761
  284MOL0     H38298  11.075   9.746  11.226 -4.1455 -0.5467  0.4850
  284MOL0     H38299  11.120   9.672  11.065 -2.5998 -2.5124 -3.4196
  284MOL0     H38300  10.925   9.547  11.370  0.5860  0.8596  0.5702
  284MOL0     H38301  10.831   9.494  11.576  0.1258  0.6929  3.5910
  284MOL0     H38302  10.751   9.630  11.658 -2.2019  1.0336 -0.2316
  284MOL0     H38303  10.654   9.509  11.581 -0.9174  0.6527 -3.5757
  284MOL0     H38304  10.289   9.815  11.618 -0.3221  0.3147  0.9835
  284MOL0     H38305  10.138   9.810  11.818 -0.3184 -1.1731  1.3582
  284MOL0     H38306  10.027   9.770  12.001  2.8328  1.4202 -0.4288
  284MOL0     H38307  10.095   9.604  11.979  0.8103  0.9908 -2.8047
  284MOL0     H38308  10.109   9.585  12.240 -2.5447 -0.8603  1.3673
  284MOL0     H38309  10.004   9.723  12.254 -0.6197  0.0677  0.9642
  284MOL0     H38310   9.922   9.507  12.291  0.3218  0.7549  1.2072
  284MOL0     H38311   9.950   9.455  12.125 -3.1400  1.9571 -2.6424
  284MOL0     H38312   9.756   9.660  12.201 -2.3998 -3.3901  0.7074
  284MOL0     H38313   9.820   9.633  12.030 -1.5145  0.7256  0.1062
  284MOL0     H38314   9.655   9.441  12.200 -2.0073 -1.5980 -1.8578
  284MOL0     H38315   9.735   9.402  12.046  0.2550 -0.3044  0.0430
  284MOL0     H38316   9.496   9.468  12.040 -0.4021  0.9446  0.2893
  284MOL0     H38317   9.529   9.632  12.101 -0.1761 -0.1473  0.2497
  284MOL0     H38318   9.633   9.544  11.820  1.3918  2.0458 -0.8319
  284MOL0     H38319   9.654   9.699  11.909  1.2153 -0.5828  0.5067
  284MOL0     H38320   9.409   9.713  11.908 -0.6608 -0.7882 -0.8546
  284MOL0     H38321   9.406   9.564  11.813  2.7118 -2.3073  1.9749
  284MOL0     H38322  10.463   9.730  12.073  2.6301  1.1059 -0.7314
  284MOL0     H38323  10.615   9.780  11.886  0.7872  3.0085 -0.4580
  284MOL0     H38324  10.550   9.857  11.252  0.1020 -0.3498 -2.1189
  284MOL0     H38325  10.728   9.793  11.073  0.6509 -0.9850 -0.5196
  284MOL0     H38326  11.365  10.229  10.092  1.0038 -1.0758 -2.3959
  284MOL0     H38327  11.147  10.173  10.013 -3.3522 -3.8017  0.9576
  284MOL0     H38328  10.852   9.978   9.798 -1.4906 -0.2933 -0.4657
  284MOL0     H38329  10.664   9.907   9.673 -2.2047  1.0246  1.0166
  284MOL0     H38330  10.354   9.921   9.771 -3.6138  1.9703 -2.9091
  284MOL0     H38331  10.452   9.880   9.628  0.8500  0.4899  1.2260
  284MOL0     H38332  10.294   9.683   9.588 -0.6803  0.1758 -1.8680
  284MOL0     H38333  10.214   9.847   9.578 -2.8886 -1.3224  0.9262
  284MOL0     H38334  10.066   9.777   9.688  0.3750  0.7546 -0.1875
  284MOL0     H38335  10.165   9.800   9.831 -1.6130  0.0903  1.0174
  284MOL0     H38336  10.230   9.553   9.824 -1.0736 -2.2084  1.8744
  284MOL0     H38337  10.094   9.530   9.704 -2.5801  0.4601  0.9264
  284MOL0     H38338   9.872   9.608  10.056 -1.0732  0.4952 -0.2384
  284MOL0     H38339  10.515   9.682  10.009  0.7425  1.1968  2.1086
  284MOL0     H38340  10.737   9.692  10.123  3.1648 -1.8167 -1.7719
  285MOL0     O38341   5.018   7.977   6.658  0.2526  0.4023  0.4656
  285MOL0     C38342   4.979   8.075   6.590 -0.5380  0.3837 -0.3453
  285MOL0     O38343   4.860   8.133   6.597  0.7156  0.2096  0.5191
  285MOL0     C38344   4.757   8.078   6.675 -0.4995 -0.8161  0.1292
  285MOL0     C38345   4.686   8.167   6.751 -1.3853  0.1445  0.1097
  285MOL0     C38346   4.575   8.137   6.830 -0.7991 -1.4333  0.0800
  285MOL0     C38347   4.531   8.008   6.833 -0.7814  0.5776 -0.9736
  285MOL0     O38348   4.424   7.969   6.911  0.6328 -0.4608  0.0761
  285MOL0     C38349   4.350   7.841   6.888 -0.6467  0.0599  0.2922
  285MOL0     C38350   4.210   7.886   6.926  0.5172  0.1620 -0.0143
  285MOL0     C38351   4.153   7.980   6.823  0.3577 -1.3626 -0.2386
  285MOL0     C38352   4.000   7.996   6.842 -0.0757 -0.1649  0.4952
  285MOL0     C38353   3.960   8.127   6.776  0.4548 -0.1371 -0.0032
  285MOL0     C38354   3.996   8.254   6.857 -0.3556 -0.3410 -0.1428
  285MOL0     C38355   3.967   8.374   6.753  0.2934  0.1481 -0.6305
  285MOL0     C38356   3.990   8.512   6.817  0.5186  0.2093  0.4500
  285MOL0     N38357   3.876   8.563   6.883 -0.3844 -0.3697  0.2387
  285MOL0     C38358   3.800   8.667   6.829  0.4576  0.3487  1.0063
  285MOL0     C38359   3.702   8.698   6.916  0.1506 -0.5471 -0.2525
  285MOL0     C38360   3.603   8.815   6.895  0.4640 -0.2700 -0.1819
  285MOL0     C38361   3.679   8.943   6.869 -0.8035 -0.4354  0.8712
  285MOL0     C38362   3.595   9.060   6.824 -0.4009  0.4331  0.9011
  285MOL0     C38363   3.492   9.113   6.917  1.1832 -0.5307 -0.9216
  285MOL0     O38364   3.435   9.230   6.850 -0.6066 -0.1033 -0.3702
  285MOL0     C38365   3.344   9.303   6.910 -0.7886 -0.2367  0.0056
  285MOL0     C38366   3.319   9.425   6.858 -0.3558 -0.2787 -0.0565
  285MOL0     C38367   3.236   9.516   6.916  0.4957  0.4099  0.4666
  285MOL0     C38368   3.253   9.658   6.861  0.5314  0.8565  0.0928
  285MOL0     C38369   3.169   9.491   7.041 -0.2135 -0.4516  0.5617
  285MOL0     C38370   3.071   9.582   7.115  0.2799 -0.0477  0.5540
  285MOL0     O38371   3.001   9.509   7.213  0.6682 -0.5976  0.1934
  285MOL0     C38372   2.882   9.556   7.255  0.4105 -0.5468  0.3060
  285MOL0     C38373   2.772   9.498   7.207 -0.1708 -0.2302  0.4097
  285MOL0     C38374   2.650   9.547   7.248  0.3189  0.7236 -0.1147
  285MOL0     C38375   2.639   9.656   7.327  0.0953  0.1012  0.3271
  285MOL0     O38376   2.514   9.707   7.345  0.8589  0.0048 -0.1768
  285MOL0     C38377   2.486   9.830   7.422  0.7303 -0.3283  0.0150
  285MOL0     C38378   2.332   9.862   7.447  0.9279  0.0222  0.1015
  285MOL0     C38379   2.310   9.998   7.520 -0.9969 -0.0587 -0.1062
  285MOL0     C38380   2.380  10.118   7.462  0.3253  0.2609  0.3097
  285MOL0     C38381   2.309  10.250   7.509 -0.6366  0.3098 -0.2493
  285MOL0     C38382   2.402  10.374   7.507 -0.4255 -0.5675 -0.4594
  285MOL0     C38383   2.481  10.395   7.375  0.1338  0.0845  0.8731
  285MOL0     C38384   2.392  10.418   7.249 -0.7522  0.3927  0.5305
  285MOL0    Cl38385   2.340  10.588   7.268  0.1813 -0.3331  0.2869
  285MOL0     C38386   2.757   9.719   7.370  0.0358  1.0750  0.2194
  285MOL0     C38387   2.879   9.666   7.335 -0.1210  0.2448  0.1275
  285MOL0     O38388   3.043   9.695   7.070  0.5325  0.5786 -0.4641
  285MOL0     C38389   3.198   9.360   7.095 -0.3727  1.0454  0.0060
  285MOL0     C38390   3.286   9.272   7.032  0.1061  0.4994 -0.4190
  285MOL0     N38391   3.714   8.606   7.023 -0.4621 -0.7071  0.3871
  285MOL0     N38392   3.822   8.535   7.008  0.6647  0.3518  0.2594
  285MOL0     C38393   4.609   7.908   6.759 -0.3813 -0.5252 -0.7627
  285MOL0     C38394   4.719   7.942   6.681 -1.2393 -0.6531 -0.2121
  285MOL0     C38395   5.080   8.146   6.496 -0.2934  0.2942  0.0589
  285MOL0     C38396   5.044   8.222   6.385 -0.0274  0.7272 -0.2280
  285MOL0     C38397   5.124   8.284   6.286 -0.6240 -0.3873 -0.3806
  285MOL0     C38398   5.264   8.268   6.312 -0.0394  0.4958 -0.1486
  285MOL0     O38399   5.367   8.330   6.237 -0.3670  0.9461  0.0426
  285MOL0     C38400   5.338   8.438   6.148  0.9994 -0.0313  0.1359
  285MOL0     C38401   5.461   8.469   6.061 -0.2285 -0.3177 -0.2520
  285MOL0     C38402   5.455   8.610   6.010 -1.1735 -0.4994 -0.3881
  285MOL0     C38403   5.337   8.657   5.925  1.3587  1.3003 -0.2818
  285MOL0     C38404   5.345   8.792   5.882 -1.0901 -0.3913 -0.2394
  285MOL0     C38405   5.339   8.901   5.829 -0.3875 -0.7602  1.2449
  285MOL0     C38406   5.309   8.192   6.418  0.8210 -0.2022 -0.3122
  285MOL0     C38407   5.213   8.125   6.504 -0.0685 -0.7486  0.3198
  285MOL0     H38408   4.704   8.273   6.742 -0.0523 -0.1755 -1.4975
  285MOL0     H38409   4.530   8.215   6.890  1.8380  0.9746 -0.8587
  285MOL0     H38410   4.358   7.797   6.788 -0.2688 -1.9429  1.1523
  285MOL0     H38411   4.388   7.765   6.957  1.1856  0.2309 -0.4642
  285MOL0     H38412   4.149   7.795   6.933 -0.5437  0.8695  0.2113
  285MOL0     H38413   4.212   7.940   7.021  1.2842 -1.2394  0.7975
  285MOL0     H38414   4.200   8.074   6.852 -2.2063 -0.6413  1.9621
  285MOL0     H38415   4.170   7.953   6.718 -1.1870 -2.5447 -0.2309
  285MOL0     H38416   3.943   7.920   6.788  0.1736 -0.0936  0.1214
  285MOL0     H38417   3.976   7.987   6.948 -2.1842 -2.4836 -0.0883
  285MOL0     H38418   3.990   8.129   6.671 -2.6880  3.1404 -1.0269
  285MOL0     H38419   3.851   8.126   6.771  0.4650 -0.0456 -0.2364
  285MOL0     H38420   3.931   8.265   6.944 -4.3785 -2.0013 -2.6448
  285MOL0     H38421   4.102   8.245   6.882  0.5763  1.4890 -2.9781
  285MOL0     H38422   4.038   8.360   6.672 -0.5054  0.4360 -1.3975
  285MOL0     H38423   3.863   8.372   6.717 -0.2974  3.2522  0.5668
  285MOL0     H38424   4.020   8.580   6.737 -1.5048  1.5254  0.7407
  285MOL0     H38425   4.066   8.508   6.896 -0.5288 -0.7663  1.4559
  285MOL0     H38426   3.820   8.710   6.731 -3.9353  3.2331  1.1243
  285MOL0     H38427   3.546   8.789   6.806  2.1881 -0.8369 -1.1667
  285MOL0     H38428   3.536   8.821   6.981  1.7040  0.8636  0.7549
  285MOL0     H38429   3.761   8.930   6.798 -2.0589  0.8502 -0.9056
  285MOL0     H38430   3.732   8.975   6.960  0.5323  0.2691 -0.1135
  285MOL0     H38431   3.550   9.021   6.732  0.5266 -2.4661  1.5753
  285MOL0     H38432   3.666   9.137   6.794 -0.4699  0.8101  1.6765
  285MOL0     H38433   3.533   9.149   7.012  2.6067 -2.6597 -0.6599
  285MOL0     H38434   3.416   9.040   6.945  0.4133  1.1567  1.8526
  285MOL0     H38435   3.371   9.450   6.765  0.3795  1.7312  0.8382
  285MOL0     H38436   3.157   9.710   6.873  0.6664  0.6259  2.6415
  285MOL0     H38437   3.319   9.709   6.931 -0.6553  2.4082  0.1419
  285MOL0     H38438   3.294   9.659   6.760 -4.4390 -2.2187 -2.3729
  285MOL0     H38439   2.778   9.411   7.142  2.6211  0.2314 -0.0774
  285MOL0     H38440   2.554   9.500   7.226 -1.3134  2.1628  3.2422
  285MOL0     H38441   2.529   9.815   7.522 -1.4537 -1.3503  0.8689
  285MOL0     H38442   2.550   9.908   7.380  0.7129  0.7348  1.8413
  285MOL0     H38443   2.284   9.853   7.349 -0.1626  1.4121  0.4801
  285MOL0     H38444   2.286   9.786   7.511  0.5844 -0.4373 -0.6726
  285MOL0     H38445   2.338   9.990   7.625 -1.8590  3.7483  0.5420
  285MOL0     H38446   2.202  10.014   7.510 -0.6818  1.8136 -0.8869
  285MOL0     H38447   2.481  10.117   7.504  1.3395 -2.6480 -1.8499
  285MOL0     H38448   2.392  10.105   7.354 -1.3189  0.1209  0.1177
  285MOL0     H38449   2.288  10.220   7.612  2.5419 -1.7913 -0.0545
  285MOL0     H38450   2.216  10.272   7.456 -1.0355  0.3562  0.4636
  285MOL0     H38451   2.355  10.467   7.540  1.5282  0.6538 -0.9728
  285MOL0     H38452   2.470  10.352   7.590  0.3956  1.4223 -0.5581
  285MOL0     H38453   2.533  10.302   7.350 -2.3936 -0.6424 -2.3387
  285MOL0     H38454   2.561  10.470   7.381  0.7613 -0.5437  0.4644
  285MOL0     H38455   2.318  10.337   7.255 -0.8108  0.2919 -1.0952
  285MOL0     H38456   2.434  10.407   7.148 -0.6041 -0.0786  0.6377
  285MOL0     H38457   2.759   9.810   7.429  1.8372  1.4757 -0.3785
  285MOL0     H38458   2.973   9.702   7.374 -0.1961  4.8725 -3.0581
  285MOL0     H38459   3.141   9.330   7.181  1.9982  0.0027  1.3075
  285MOL0     H38460   3.305   9.175   7.078  0.0195  0.6569 -0.0461
  285MOL0     H38461   4.583   7.803   6.757 -2.0125 -0.1425 -0.6769
  285MOL0     H38462   4.785   7.865   6.643  0.9020 -0.4381  2.7103
  285MOL0     H38463   4.940   8.250   6.380 -0.1392  0.1620 -1.2710
  285MOL0     H38464   5.093   8.354   6.209 -1.0736 -1.2972 -1.0376
  285MOL0     H38465   5.251   8.413   6.087  0.8147  2.1746 -0.6177
  285MOL0     H38466   5.306   8.521   6.212 -0.0197 -1.9819  2.2776
  285MOL0     H38467   5.467   8.397   5.979 -0.7678 -3.6043  2.3809
  285MOL0     H38468   5.545   8.440   6.126  0.7176 -0.4866 -1.5121
  285MOL0     H38469   5.543   8.629   5.947  1.0674  2.4834  3.1975
  285MOL0     H38470   5.466   8.677   6.096  1.8014 -1.8822  0.4597
  285MOL0     H38471   5.249   8.667   5.990  1.9725  2.7930  0.3620
  285MOL0     H38472   5.316   8.594   5.838  0.3260 -1.0007  1.4814
  285MOL0     H38473   5.319   9.001   5.798 -0.2704 -0.6647  1.4765
  285MOL0     H38474   5.416   8.187   6.431  0.9787 -0.0895 -1.4949
  285MOL0     H38475   5.241   8.072   6.594  1.4325 -3.1934 -1.4553
  286MOL0     O38476   1.267   5.605  11.262 -0.1955 -0.1474 -0.3937
  286MOL0     C38477   1.248   5.652  11.373 -0.7446  0.1295  1.0571
  286MOL0     O38478   1.351   5.665  11.479 -1.0552 -0.2065 -0.4709
  286MOL0     C38479   1.482   5.626  11.454  1.0057  0.2220  0.1207
  286MOL0     C38480   1.550   5.689  11.353  0.0770 -0.2574 -0.1752
  286MOL0     C38481   1.678   5.650  11.325 -1.1597  0.3395  0.8791
  286MOL0     C38482   1.740   5.548  11.406 -0.0580 -0.9195  0.1441
  286MOL0     O38483   1.875   5.527  11.385  0.3633 -0.3899  0.2736
  286MOL0     C38484   1.951   5.443  11.477  0.1724  0.8636 -0.1247
  286MOL0     C38485   1.979   5.503  11.610 -0.5012  0.4265  0.0691
  286MOL0     C38486   2.075   5.623  11.614 -0.4342  0.6003  0.1715
  286MOL0     C38487   2.009   5.755  11.565 -0.8121  0.2750  0.8491
  286MOL0     C38488   2.093   5.887  11.580  0.8879  0.4039 -1.1885
  286MOL0     C38489   2.027   5.996  11.482 -0.1721  0.1443 -0.0524
  286MOL0     C38490   2.105   6.130  11.507 -0.2504 -1.3699 -0.8688
  286MOL0     C38491   2.042   6.249  11.436 -0.0935  0.3403 -0.6501
  286MOL0     N38492   1.930   6.313  11.511  1.5080  0.0534 -0.2382
  286MOL0     C38493   1.800   6.331  11.454 -0.2212  1.4185 -0.6733
  286MOL0     C38494   1.739   6.412  11.545 -0.6191 -0.2928  0.8481
  286MOL0     C38495   1.598   6.434  11.531  1.2266  0.6548  0.6900
  286MOL0     C38496   1.573   6.575  11.579 -0.8734  0.0557  0.4327
  286MOL0     C38497   1.418   6.592  11.604 -0.4602 -0.3340  0.5549
  286MOL0     C38498   1.390   6.717  11.689  0.5180 -0.4643  1.1955
  286MOL0     O38499   1.418   6.699  11.824 -1.0567  0.3538  0.3945
  286MOL0     C38500   1.429   6.816  11.894 -0.7533  0.0084 -0.1710
  286MOL0     C38501   1.337   6.848  11.988 -1.5530  0.4832  0.5725
  286MOL0     C38502   1.338   6.975  12.051 -0.2981  0.1857 -0.9941
  286MOL0     C38503   1.235   7.010  12.158 -0.4583  0.3311  0.0406
  286MOL0     C38504   1.436   7.066  12.016  0.9309 -0.6455 -0.3126
  286MOL0     C38505   1.465   7.192  12.084  0.7807 -0.1482 -0.1161
  286MOL0     O38506   1.424   7.306  12.027  0.6777 -0.3187 -0.1014
  286MOL0     C38507   1.453   7.420  12.099 -0.3491  0.0420 -0.3814
  286MOL0     C38508   1.389   7.446  12.221 -0.5342  0.7936  0.2825
  286MOL0     C38509   1.413   7.561  12.294  0.7657 -1.4871  0.4882
  286MOL0     C38510   1.529   7.646  12.250 -0.1773 -0.5328  0.2216
  286MOL0     O38511   1.572   7.755  12.330 -0.2362  0.0849  0.1525
  286MOL0     C38512   1.705   7.730  12.386 -0.6392 -0.5323 -0.7604
  286MOL0     C38513   1.687   7.756  12.526  0.2978  0.6957 -0.6358
  286MOL0     C38514   1.805   7.791  12.610 -0.1445  0.6255 -0.1557
  286MOL0     C38515   1.936   7.698  12.605  0.5976  0.0381  0.2266
  286MOL0     C38516   2.041   7.719  12.715 -0.4686 -0.9516 -0.3507
  286MOL0     C38517   2.125   7.836  12.678 -1.0380 -0.0603 -0.5051
  286MOL0     C38518   2.207   7.890  12.796  0.9598  0.6470 -1.2825
  286MOL0     C38519   2.300   8.006  12.764  0.5569  0.3479  0.1449
  286MOL0    Cl38520   2.215   8.145  12.684 -0.1002 -0.3928 -0.2434
  286MOL0     C38521   1.595   7.616  12.127 -1.4525  0.0338 -0.5583
  286MOL0     C38522   1.549   7.508  12.052 -0.2803 -0.5648  0.6989
  286MOL0     O38523   1.533   7.178  12.190 -0.4424  0.7838  0.2895
  286MOL0     C38524   1.527   7.033  11.919 -0.1194  0.7982 -0.0819
  286MOL0     C38525   1.533   6.907  11.861  0.4026  0.2693 -0.6219
  286MOL0     N38526   1.819   6.431  11.648  0.4423  0.5789 -0.7102
  286MOL0     N38527   1.936   6.373  11.629  0.7012 -0.2992 -0.2848
  286MOL0     C38528   1.656   5.480  11.501  1.1293 -0.3961  0.6514
  286MOL0     C38529   1.527   5.523  11.528 -0.2961 -0.1863  0.3429
  286MOL0     C38530   1.123   5.704  11.405 -0.0019 -0.9122 -1.3743
  286MOL0     C38531   1.091   5.768  11.532 -0.8427  0.1661  0.6796
  286MOL0     C38532   0.970   5.832  11.556  0.0492  0.0353  0.1196
  286MOL0     C38533   0.863   5.821  11.468  0.1550  0.1688  0.4592
  286MOL0     O38534   0.741   5.891  11.482 -0.5292  0.0854 -0.2377
  286MOL0     C38535   0.737   5.996  11.576  0.5859  0.9869 -0.8657
  286MOL0     C38536   0.829   6.114  11.543 -0.2466  0.3300  0.2571
  286MOL0     C38537   0.774   6.248  11.597  0.4980  0.0219 -0.5098
  286MOL0     C38538   0.846   6.378  11.551 -0.1908  0.5572 -0.0722
  286MOL0     C38539   0.762   6.501  11.561 -0.9297 -0.8296  0.3918
  286MOL0     C38540   0.683   6.588  11.559 -0.5199  0.1413  0.6042
  286MOL0     C38541   0.891   5.756  11.346 -0.1928 -0.4577  0.1638
  286MOL0     C38542   1.017   5.692  11.320 -0.3356  0.0476  0.3077
  286MOL0     H38543   1.497   5.774  11.312  2.6283  1.7808  0.4260
  286MOL0     H38544   1.725   5.698  11.239 -3.6601 -1.4440 -1.6809
  286MOL0     H38545   1.902   5.346  11.491  0.8799  0.4763 -0.2838
  286MOL0     H38546   2.048   5.425  11.429  0.7147  2.5149  0.2653
  286MOL0     H38547   1.890   5.523  11.670 -1.7265 -1.1413 -1.1204
  286MOL0     H38548   2.019   5.418  11.666 -1.6854 -0.0714  0.2101
  286MOL0     H38549   2.096   5.636  11.720 -4.1420  0.9193  1.0023
  286MOL0     H38550   2.169   5.617  11.557 -2.2463  3.7716 -3.6322
  286MOL0     H38551   1.981   5.743  11.460  0.4071  0.8529  0.4409
  286MOL0     H38552   1.920   5.788  11.619 -2.7937 -0.1236 -1.9122
  286MOL0     H38553   2.080   5.922  11.683 -0.9419 -0.5555 -1.0603
  286MOL0     H38554   2.200   5.870  11.567  1.0454 -0.4563  0.8968
  286MOL0     H38555   2.048   5.968  11.378  0.5574  1.5676 -0.3241
  286MOL0     H38556   1.922   5.996  11.510 -0.0596 -5.5105  1.4226
  286MOL0     H38557   2.102   6.142  11.615  3.0887 -0.5052 -0.7499
  286MOL0     H38558   2.208   6.135  11.470  0.6776  3.0165  1.5721
  286MOL0     H38559   2.012   6.213  11.337  1.6410  1.5208 -1.6628
  286MOL0     H38560   2.118   6.325  11.415  1.5277 -1.4001 -1.3925
  286MOL0     H38561   1.763   6.294  11.359 -0.2418  4.0236 -1.7718
  286MOL0     H38562   1.561   6.420  11.429  1.7292 -1.4997  0.7650
  286MOL0     H38563   1.548   6.374  11.607 -1.3180  2.1208  0.2946
  286MOL0     H38564   1.606   6.643  11.499  0.2778 -2.0408 -0.9910
  286MOL0     H38565   1.619   6.611  11.671 -1.0275  0.2057  0.4501
  286MOL0     H38566   1.386   6.510  11.668  1.8994 -1.3198  0.5620
  286MOL0     H38567   1.361   6.589  11.511  0.2465  4.5602 -0.3413
  286MOL0     H38568   1.284   6.746  11.688  1.1482  2.3521 -2.1440
  286MOL0     H38569   1.452   6.796  11.646 -2.0437  1.5304  0.8578
  286MOL0     H38570   1.272   6.765  12.014  2.0191 -1.6741  3.5799
  286MOL0     H38571   1.184   7.103  12.130 -1.8000 -0.8965 -1.8684
  286MOL0     H38572   1.154   6.937  12.166 -0.0790 -0.6239 -3.2815
  286MOL0     H38573   1.284   7.010  12.256  1.3002 -1.5730 -0.7818
  286MOL0     H38574   1.324   7.371  12.266 -0.0675 -0.8593 -1.6189
  286MOL0     H38575   1.353   7.586  12.380 -2.7768  0.7759 -2.3367
  286MOL0     H38576   1.739   7.627  12.369  4.8141  1.2554 -2.5989
  286MOL0     H38577   1.776   7.795  12.335 -1.1525 -1.0799 -2.2500
  286MOL0     H38578   1.603   7.822  12.547 -3.3776 -3.4521 -0.7231
  286MOL0     H38579   1.653   7.658  12.560  0.2288  0.6636 -0.8014
  286MOL0     H38580   1.775   7.788  12.716  2.7582 -0.5101  0.7333
  286MOL0     H38581   1.836   7.893  12.590  2.4344  0.7992  3.7592
  286MOL0     H38582   1.904   7.594  12.617 -0.4279  0.4560  1.2948
  286MOL0     H38583   1.986   7.718  12.509  2.4190  2.6335  1.6095
  286MOL0     H38584   2.117   7.640  12.719 -1.7673 -2.5579 -3.6582
  286MOL0     H38585   1.990   7.744  12.809 -1.4508  0.8080 -1.3031
  286MOL0     H38586   2.189   7.808  12.593 -0.7506  1.1316 -0.6967
  286MOL0     H38587   2.057   7.910  12.636  2.5164  2.2159 -2.7587
  286MOL0     H38588   2.267   7.810  12.841  2.7286  1.8063 -1.4984
  286MOL0     H38589   2.129   7.920  12.866 -1.3391 -1.8960 -2.5616
  286MOL0     H38590   2.375   7.963  12.697 -0.2983  0.4352 -0.8923
  286MOL0     H38591   2.344   8.038  12.859 -1.5749 -1.2229  1.7632
  286MOL0     H38592   1.683   7.674  12.100 -0.5284 -1.0762 -0.0412
  286MOL0     H38593   1.595   7.470  11.962  1.6911  0.5168  1.1799
  286MOL0     H38594   1.614   7.096  11.909  1.8100 -1.3761  2.0052
  286MOL0     H38595   1.620   6.884  11.801  2.1465 -1.0827  2.2147
  286MOL0     H38596   1.693   5.397  11.561 -0.2183 -1.4405  0.0888
  286MOL0     H38597   1.458   5.476  11.598 -1.8845  1.2498 -0.1855
  286MOL0     H38598   1.165   5.779  11.609 -2.1228  0.0075  1.9817
  286MOL0     H38599   0.962   5.904  11.638 -0.2599 -0.8825  0.9197
  286MOL0     H38600   0.634   6.033  11.568  0.5489  0.9448 -0.6046
  286MOL0     H38601   0.742   5.952  11.676 -0.1327  0.6059 -0.9897
  286MOL0     H38602   0.838   6.116  11.434  1.6806  1.1890  0.3818
  286MOL0     H38603   0.935   6.102  11.567 -0.1915 -2.9506 -1.1480
  286MOL0     H38604   0.776   6.250  11.706 -5.0068  2.8977 -0.0959
  286MOL0     H38605   0.677   6.261  11.548  0.5907 -2.7829 -1.6501
  286MOL0     H38606   0.871   6.371  11.444  2.3225  0.7420  0.4596
  286MOL0     H38607   0.943   6.390  11.599  1.8422 -1.4239 -3.2647
  286MOL0     H38608   0.628   6.680  11.565 -0.6648  0.0261  1.0603
  286MOL0     H38609   0.805   5.756  11.280  0.7536  2.2600 -1.2315
  286MOL0     H38610   1.031   5.625  11.236 -1.3756 -2.6961  2.1783
  287MOL0     O38611   2.908   4.819   8.728 -0.0601  0.4582  0.5057
  287MOL0     C38612   2.974   4.786   8.823  0.2442 -0.2398 -0.9846
  287MOL0     O38613   2.926   4.709   8.928 -0.5326  0.4010 -0.4143
  287MOL0     C38614   2.794   4.675   8.923 -0.5660  0.8950 -0.5104
  287MOL0     C38615   2.748   4.602   8.817  0.4421  0.5517 -0.2520
  287MOL0     C38616   2.610   4.588   8.794  0.6514 -0.9887  0.2489
  287MOL0     C38617   2.515   4.646   8.884 -0.1070  0.7733 -0.1091
  287MOL0     O38618   2.386   4.644   8.843  1.0021 -0.1097  0.6588
  287MOL0     C38619   2.275   4.692   8.924 -0.3467  0.2299  0.2728
  287MOL0     C38620   2.148   4.674   8.844 -0.6365  0.8568 -0.3217
  287MOL0     C38621   2.160   4.690   8.691 -0.3140  0.2661 -0.1443
  287MOL0     C38622   2.025   4.722   8.633 -0.3131  0.1195 -0.1456
  287MOL0     C38623   2.046   4.728   8.475  0.6124 -0.2667 -0.1503
  287MOL0     C38624   1.930   4.782   8.392  0.3771 -0.7379 -0.2514
  287MOL0     C38625   1.804   4.699   8.386  0.5149  0.9743 -0.2978
  287MOL0     C38626   1.813   4.584   8.289  0.5121 -0.5630 -0.5516
  287MOL0     N38627   1.810   4.625   8.147 -0.1548  0.1420 -0.0885
  287MOL0     C38628   1.904   4.700   8.073 -0.7877  0.7252 -0.7256
  287MOL0     C38629   1.846   4.727   7.954 -0.7142 -0.0619  0.8291
  287MOL0     C38630   1.906   4.802   7.841 -0.0380 -0.5310  0.6730
  287MOL0     C38631   1.959   4.713   7.726 -0.1714  0.6171 -0.0244
  287MOL0     C38632   2.101   4.655   7.762 -0.4458  1.3859 -0.5487
  287MOL0     C38633   2.186   4.602   7.639  0.3992  0.7166  0.2052
  287MOL0     O38634   2.311   4.557   7.704 -0.1903  0.6709 -0.6497
  287MOL0     C38635   2.322   4.428   7.743 -0.2358 -0.6327  0.6286
  287MOL0     C38636   2.455   4.395   7.761  1.1143 -1.6841  0.0372
  287MOL0     C38637   2.498   4.266   7.791 -0.1241  0.2178 -1.5343
  287MOL0     C38638   2.638   4.234   7.820  0.3913  0.1156 -0.2769
  287MOL0     C38639   2.400   4.162   7.811 -0.0652  1.2458 -0.1164
  287MOL0     C38640   2.424   4.024   7.871 -0.7393 -0.2583  0.0198
  287MOL0     O38641   2.322   3.945   7.880  1.0198 -0.3512 -0.4348
  287MOL0     C38642   2.355   3.821   7.910 -0.3989 -0.1290  0.2587
  287MOL0     C38643   2.335   3.765   8.033 -0.2938 -0.3146 -0.7351
  287MOL0     C38644   2.348   3.625   8.047 -0.4797  0.3638  0.3349
  287MOL0     C38645   2.397   3.540   7.942  0.4243  0.4175  1.3999
  287MOL0     O38646   2.415   3.408   7.950  0.1356  0.0221 -0.0118
  287MOL0     C38647   2.521   3.370   8.038  0.3104  0.1409  0.4269
  287MOL0     C38648   2.603   3.263   7.981 -0.0702  0.0157 -0.1499
  287MOL0     C38649   2.667   3.298   7.844 -1.3894 -0.3401 -0.2814
  287MOL0     C38650   2.740   3.177   7.785 -0.0254 -0.1688  1.2492
  287MOL0     C38651   2.775   3.219   7.645 -0.0913 -0.1569  0.1284
  287MOL0     C38652   2.847   3.102   7.562  1.2787 -0.7812 -0.2845
  287MOL0     C38653   2.852   3.132   7.414  0.2415  0.1510 -0.9072
  287MOL0     C38654   2.913   3.012   7.351  0.5360  0.2387  0.9887
  287MOL0    Cl38655   2.937   3.067   7.177  0.0771 -0.1882 -0.4228
  287MOL0     C38656   2.413   3.605   7.821  0.0266 -0.0148  0.3746
  287MOL0     C38657   2.396   3.739   7.806 -0.2197 -0.9770  0.4038
  287MOL0     O38658   2.537   4.005   7.908 -0.5946  0.1414  0.2058
  287MOL0     C38659   2.262   4.203   7.791  0.1832  0.1884  0.6452
  287MOL0     C38660   2.226   4.334   7.770 -0.3364  0.3650 -0.2612
  287MOL0     N38661   1.724   4.670   7.962  1.0443  0.1356  0.2288
  287MOL0     N38662   1.701   4.611   8.076  0.4416  0.4037  0.8603
  287MOL0     C38663   2.565   4.706   9.006  0.0347  0.4010  0.4525
  287MOL0     C38664   2.703   4.719   9.026  1.1967 -0.1230  0.0984
  287MOL0     C38665   3.106   4.851   8.836 -0.3416 -0.3946  0.7540
  287MOL0     C38666   3.152   4.954   8.754  0.1441  0.1672  0.4930
  287MOL0     C38667   3.272   5.030   8.775  0.3243  0.0359 -0.2474
  287MOL0     C38668   3.334   5.020   8.898  0.4454 -0.3982  0.8046
  287MOL0     O38669   3.442   5.096   8.924 -0.1734  0.0480 -0.3862
  287MOL0     C38670   3.553   5.042   8.990 -0.0660  0.3709 -0.0223
  287MOL0     C38671   3.671   5.130   8.964  0.1077  0.0743  0.8422
  287MOL0     C38672   3.744   5.102   8.826 -0.1475 -0.3346  0.0556
  287MOL0     C38673   3.861   5.200   8.794 -0.0575 -0.2923  0.7477
  287MOL0     C38674   3.992   5.150   8.816 -0.3116  0.6229  1.6124
  287MOL0     C38675   4.097   5.121   8.863  0.0348  0.6926  0.2150
  287MOL0     C38676   3.294   4.916   8.977  0.3812  0.3272  0.8622
  287MOL0     C38677   3.183   4.834   8.950  0.4229 -0.3841  0.3983
  287MOL0     H38678   2.817   4.576   8.738 -1.2640 -1.4906 -1.1756
  287MOL0     H38679   2.584   4.537   8.702 -1.5268  1.4917 -0.5982
  287MOL0     H38680   2.260   4.632   9.014  3.4376 -1.4265  0.0043
  287MOL0     H38681   2.289   4.797   8.951 -2.4913 -0.0977  3.0587
  287MOL0     H38682   2.102   4.579   8.872  0.7446 -0.8299 -3.2976
  287MOL0     H38683   2.083   4.756   8.878 -1.3802  0.2602 -0.2655
  287MOL0     H38684   2.234   4.763   8.658 -0.4859  0.1220 -0.8609
  287MOL0     H38685   2.193   4.594   8.649  2.0987  1.4516 -1.0979
  287MOL0     H38686   1.960   4.639   8.662  1.6852 -1.3266  0.4516
  287MOL0     H38687   1.984   4.817   8.670 -0.0285  1.3670 -2.8217
  287MOL0     H38688   2.134   4.792   8.460  1.3565  0.0324  4.2248
  287MOL0     H38689   2.072   4.628   8.438  0.0373 -0.1285 -0.9514
  287MOL0     H38690   1.895   4.872   8.443  2.1677  0.6300 -1.3197
  287MOL0     H38691   1.969   4.806   8.293  3.6026  0.1693  1.0879
  287MOL0     H38692   1.772   4.663   8.484 -1.3251 -0.3319 -1.3259
  287MOL0     H38693   1.713   4.754   8.363 -2.1706 -2.3019  1.6332
  287MOL0     H38694   1.736   4.511   8.315 -0.7739  1.8972  3.5363
  287MOL0     H38695   1.907   4.535   8.317  0.6042 -0.3591 -0.5027
  287MOL0     H38696   2.007   4.729   8.091 -0.0031  0.4868 -4.1479
  287MOL0     H38697   1.823   4.866   7.809 -0.4880 -1.6408 -0.4418
  287MOL0     H38698   1.979   4.878   7.874  0.1045  0.3460 -1.5210
  287MOL0     H38699   1.970   4.776   7.637  0.8011  0.1049 -0.2850
  287MOL0     H38700   1.892   4.629   7.707 -0.0433 -0.1936  2.7619
  287MOL0     H38701   2.084   4.576   7.836 -0.5238  0.3754 -1.6178
  287MOL0     H38702   2.163   4.737   7.801 -0.8895  1.6170 -0.3221
  287MOL0     H38703   2.203   4.683   7.566 -0.6674  1.1276  0.3937
  287MOL0     H38704   2.133   4.520   7.590  1.0163  1.3241 -1.5713
  287MOL0     H38705   2.530   4.473   7.755  0.5871 -1.0463  1.3781
  287MOL0     H38706   2.672   4.143   7.770  2.6860  0.4077  0.6337
  287MOL0     H38707   2.692   4.319   7.777  0.7384  0.0504  0.0307
  287MOL0     H38708   2.657   4.222   7.927 -0.6965 -0.7757 -0.1617
  287MOL0     H38709   2.292   3.813   8.120  2.0840 -3.7061  2.6418
  287MOL0     H38710   2.319   3.586   8.143 -0.9136  2.7864  1.2761
  287MOL0     H38711   2.586   3.457   8.050  0.7470  0.2501 -2.1536
  287MOL0     H38712   2.490   3.339   8.138  0.2972  2.5120  1.2222
  287MOL0     H38713   2.676   3.244   8.061 -1.9550 -3.0790  1.0264
  287MOL0     H38714   2.541   3.175   7.965  0.5412 -0.8835  2.0517
  287MOL0     H38715   2.739   3.376   7.871 -0.3278 -1.0049 -1.0840
  287MOL0     H38716   2.593   3.340   7.774  1.3667  2.5506 -1.7494
  287MOL0     H38717   2.831   3.157   7.842  2.7864 -0.5855 -2.9283
  287MOL0     H38718   2.679   3.087   7.782 -0.6732  0.2399  1.7289
  287MOL0     H38719   2.836   3.310   7.643  0.8979 -0.7792 -2.1426
  287MOL0     H38720   2.685   3.245   7.588  2.4664  3.4113 -2.7866
  287MOL0     H38721   2.947   3.102   7.607 -0.0875  0.2928  3.0703
  287MOL0     H38722   2.799   3.003   7.568  1.4208 -1.0267 -2.3595
  287MOL0     H38723   2.913   3.222   7.405  0.1781  0.5176  1.6060
  287MOL0     H38724   2.760   3.164   7.364  0.9856  2.9344 -0.6243
  287MOL0     H38725   2.845   2.927   7.364  0.2709  0.4412  0.9293
  287MOL0     H38726   3.012   3.001   7.394  1.5863  3.6028 -0.2640
  287MOL0     H38727   2.426   3.543   7.733  0.2627 -1.1865  1.2202
  287MOL0     H38728   2.390   3.780   7.706 -1.0223 -1.5895  0.1870
  287MOL0     H38729   2.180   4.132   7.804 -0.7902  1.2735  0.6304
  287MOL0     H38730   2.124   4.371   7.759 -1.3128 -1.3305  2.1891
  287MOL0     H38731   2.503   4.761   9.076  2.1647  3.5408  0.0914
  287MOL0     H38732   2.751   4.784   9.098  0.8424 -0.2064  0.4151
  287MOL0     H38733   3.096   4.994   8.671  0.4548  2.2728  1.2421
  287MOL0     H38734   3.292   5.117   8.713  0.1683 -1.0720 -1.8851
  287MOL0     H38735   3.554   5.025   9.098  0.6892 -0.5262 -0.1516
  287MOL0     H38736   3.566   4.944   8.942  1.1760  1.2922 -1.6820
  287MOL0     H38737   3.745   5.103   9.039  2.0767  1.0147 -0.6666
  287MOL0     H38738   3.645   5.235   8.980 -0.3480  0.2548 -0.8137
  287MOL0     H38739   3.672   5.108   8.744  1.2987  1.4932 -1.1667
  287MOL0     H38740   3.777   4.998   8.820  3.2078 -0.3710  7.7037
  287MOL0     H38741   3.858   5.296   8.846  0.7797  1.4259 -2.1304
  287MOL0     H38742   3.835   5.241   8.696 -1.7276  1.9343  2.0255
  287MOL0     H38743   4.190   5.094   8.908 -0.8397  0.2138  1.8126
  287MOL0     H38744   3.341   4.900   9.073  1.6964  1.6384  0.4932
  287MOL0     H38745   3.147   4.769   9.029 -2.4655  0.7270  0.1194
  288MOL0     O38746   9.321   1.530   1.515 -0.5444 -0.2673 -0.2680
  288MOL0     C38747   9.276   1.464   1.419 -0.9959 -0.4869 -0.0285
  288MOL0     O38748   9.304   1.495   1.285  0.4867 -0.1939  0.3505
  288MOL0     C38749   9.315   1.626   1.254  0.0142 -0.1335 -0.3262
  288MOL0     C38750   9.222   1.718   1.310 -0.0356  0.0923  0.2451
  288MOL0     C38751   9.246   1.857   1.286  0.4351  0.3721 -0.2863
  288MOL0     C38752   9.346   1.902   1.195 -0.1851 -0.5069 -0.0903
  288MOL0     O38753   9.342   2.039   1.166  0.6523 -0.3622  0.0528
  288MOL0     C38754   9.361   2.076   1.027 -0.2146  0.9598  0.2910
  288MOL0     C38755   9.503   2.118   1.013 -0.3230 -0.0067  0.3129
  288MOL0     C38756   9.545   2.249   1.092 -0.1308 -0.1056 -0.6778
  288MOL0     C38757   9.673   2.298   1.029 -0.3798 -0.3833 -1.3713
  288MOL0     C38758   9.754   2.415   1.093  0.0840  0.0517 -0.7731
  288MOL0     C38759   9.896   2.413   1.042 -1.1627 -0.2013 -0.4467
  288MOL0     C38760   9.999   2.501   1.122  1.1786 -0.2541  1.3710
  288MOL0     C38761   9.996   2.494   1.276 -0.2046  0.6789  0.0957
  288MOL0     N38762  10.105   2.586   1.329  0.3173  0.0833  0.3685
  288MOL0     C38763  10.087   2.722   1.337 -0.5712  0.3838  0.4239
  288MOL0     C38764  10.199   2.771   1.382  0.0794  0.4595  0.7743
  288MOL0     C38765  10.225   2.918   1.423  0.0359 -0.5767  0.2728
  288MOL0     C38766  10.262   2.939   1.572  1.0044  0.2145  0.4950
  288MOL0     C38767  10.246   3.086   1.611  0.0481  1.2700 -0.1305
  288MOL0     C38768  10.336   3.187   1.531 -0.0221 -0.2819 -1.4999
  288MOL0     O38769  10.284   3.230   1.408  0.6291 -0.5239  0.3023
  288MOL0     C38770  10.252   3.369   1.404  0.0192  0.3499 -0.0723
  288MOL0     C38771  10.128   3.416   1.430 -0.5128 -0.3005  0.1934
  288MOL0     C38772  10.103   3.559   1.436 -0.1481  0.0650 -0.7006
  288MOL0     C38773   9.981   3.608   1.510 -0.1402 -0.0799  1.3454
  288MOL0     C38774  10.206   3.638   1.394 -1.5040 -0.2642 -0.1208
  288MOL0     C38775  10.198   3.787   1.395  0.0116 -0.0677  0.1016
  288MOL0     O38776  10.320   3.846   1.379  0.1532  0.1602  0.6155
  288MOL0     C38777  10.323   3.978   1.349 -0.0873  1.5315 -0.1356
  288MOL0     C38778  10.334   4.028   1.213 -0.8565  1.2341  0.1401
  288MOL0     C38779  10.333   4.165   1.192 -0.7111  0.3663 -0.3277
  288MOL0     C38780  10.317   4.256   1.287  0.3585 -0.1350 -0.2625
  288MOL0     O38781  10.310   4.382   1.246 -0.2696 -0.1937 -0.4832
  288MOL0     C38782  10.364   4.490   1.328  0.2856 -0.1101 -0.1636
  288MOL0     C38783  10.315   4.618   1.265 -1.1873 -0.5074 -0.4300
  288MOL0     C38784  10.175   4.650   1.304 -0.4369  0.6014 -0.7482
  288MOL0     C38785  10.158   4.688   1.460 -0.0131 -0.0992 -0.1785
  288MOL0     C38786  10.043   4.788   1.495 -0.7931  0.7199  0.0974
  288MOL0     C38787  10.032   4.808   1.648 -0.6437 -0.1705  0.4557
  288MOL0     C38788   9.927   4.913   1.698  0.6165  0.9431 -0.2074
  288MOL0     C38789   9.992   5.034   1.766  0.2685  0.6834 -0.4946
  288MOL0    Cl38790  10.039   4.997   1.938  0.5883  0.4032 -0.4145
  288MOL0     C38791  10.305   4.212   1.423 -0.1624  0.0630 -0.3428
  288MOL0     C38792  10.307   4.077   1.449  0.3648 -0.2539 -0.6696
  288MOL0     O38793  10.087   3.837   1.387 -0.0947 -0.0364 -0.7043
  288MOL0     C38794  10.322   3.579   1.347  0.3601 -0.4926  0.1657
  288MOL0     C38795  10.350   3.444   1.355 -0.5256  1.0499  0.5412
  288MOL0     N38796  10.292   2.668   1.394 -0.3256 -0.5345 -0.2451
  288MOL0     N38797  10.227   2.559   1.368 -0.3812 -0.1400  0.4332
  288MOL0     C38798   9.431   1.808   1.136  0.5799 -0.7045 -0.3378
  288MOL0     C38799   9.419   1.673   1.173  0.2078 -0.2569  0.9551
  288MOL0     C38800   9.214   1.329   1.449 -0.2386  0.2787 -1.0052
  288MOL0     C38801   9.187   1.227   1.352 -0.8945 -0.4410 -1.0104
  288MOL0     C38802   9.125   1.111   1.383  0.5094  0.2219 -0.1075
  288MOL0     C38803   9.104   1.081   1.518 -0.7460  0.5284 -0.6428
  288MOL0     O38804   9.077   0.948   1.542  0.4006  0.4309 -0.2570
  288MOL0     C38805   9.105   0.892   1.674  0.1514  0.9064 -0.1905
  288MOL0     C38806   9.045   0.751   1.685 -0.7423  0.4814 -0.1792
  288MOL0     C38807   9.071   0.694   1.824  0.1463 -1.3325 -0.2832
  288MOL0     C38808   9.222   0.665   1.851  0.6827 -0.5127  0.3350
  288MOL0     C38809   9.293   0.606   1.739 -0.7292  0.9238 -0.6648
  288MOL0     C38810   9.350   0.533   1.653  0.8315 -0.4761 -1.5240
  288MOL0     C38811   9.124   1.176   1.615 -0.0741  0.3445  0.4509
  288MOL0     C38812   9.172   1.305   1.582 -0.1863  0.5856 -0.7064
  288MOL0     H38813   9.141   1.680   1.372 -0.6617  1.2169  0.1568
  288MOL0     H38814   9.185   1.934   1.333 -0.0332 -0.2625  0.1629
  288MOL0     H38815   9.333   1.992   0.963  0.4346  2.2317 -1.7435
  288MOL0     H38816   9.293   2.156   0.996 -0.3090  1.1742  1.0183
  288MOL0     H38817   9.586   2.048   1.028  1.3333  2.2336  2.3056
  288MOL0     H38818   9.495   2.141   0.907  2.0814  2.2517  0.5387
  288MOL0     H38819   9.467   2.325   1.092 -1.7837 -1.5533  2.9603
  288MOL0     H38820   9.571   2.234   1.198 -4.4272  0.9518  0.7251
  288MOL0     H38821   9.735   2.209   1.042 -2.9728 -1.8409  2.9148
  288MOL0     H38822   9.643   2.308   0.924 -0.9324 -0.8023 -1.2552
  288MOL0     H38823   9.713   2.516   1.079 -1.7131 -0.9949 -4.2783
  288MOL0     H38824   9.761   2.401   1.201  2.1856  0.7682 -0.7658
  288MOL0     H38825   9.930   2.310   1.032  2.0341  0.6238  0.8709
  288MOL0     H38826   9.897   2.446   0.938  1.6279  1.3182 -0.0339
  288MOL0     H38827  10.096   2.466   1.086  0.5767 -0.1184 -0.4596
  288MOL0     H38828   9.990   2.607   1.097  0.7546 -0.5446  0.2148
  288MOL0     H38829  10.006   2.392   1.314  0.5791 -0.2427 -2.4076
  288MOL0     H38830   9.906   2.540   1.318 -0.1618  1.3420 -0.5280
  288MOL0     H38831  10.000   2.778   1.307 -0.8718 -0.4263 -0.2743
  288MOL0     H38832  10.305   2.952   1.357  0.3728 -0.2968  0.8123
  288MOL0     H38833  10.139   2.980   1.399  0.6549  0.2452  0.1435
  288MOL0     H38834  10.365   2.904   1.583  1.6885  1.3050 -1.9031
  288MOL0     H38835  10.197   2.876   1.633 -0.4712  0.3917 -0.8442
  288MOL0     H38836  10.276   3.095   1.716  3.5022  0.1310 -0.8862
  288MOL0     H38837  10.141   3.117   1.617 -0.2061  0.2173  1.9273
  288MOL0     H38838  10.440   3.152   1.532  0.7796  1.9100 -1.6670
  288MOL0     H38839  10.345   3.276   1.594  1.5160 -1.5665  0.2075
  288MOL0     H38840  10.060   3.337   1.458  0.3825 -0.2396  2.8167
  288MOL0     H38841   9.923   3.688   1.464 -1.5224 -1.4234  0.6529
  288MOL0     H38842   9.913   3.523   1.514 -1.0923  0.7079  2.9207
  288MOL0     H38843  10.006   3.629   1.615  2.2297 -2.7444  1.4349
  288MOL0     H38844  10.345   3.956   1.133  1.9551 -0.7068  2.1064
  288MOL0     H38845  10.333   4.184   1.085 -2.0087 -2.1340 -0.8553
  288MOL0     H38846  10.330   4.499   1.432  0.2923  1.4363 -0.2726
  288MOL0     H38847  10.471   4.470   1.327 -0.1244 -2.5173 -1.3209
  288MOL0     H38848  10.365   4.707   1.304 -3.3923 -0.3255  2.1942
  288MOL0     H38849  10.335   4.617   1.157  0.5854 -2.9590 -0.1605
  288MOL0     H38850  10.123   4.556   1.285  1.8402 -0.3951 -2.5520
  288MOL0     H38851  10.146   4.742   1.253  0.2399  1.2483  0.0092
  288MOL0     H38852  10.128   4.603   1.523  0.6034  1.0239  1.6852
  288MOL0     H38853  10.251   4.719   1.508 -0.3375  0.3584  0.1596
  288MOL0     H38854   9.950   4.748   1.455 -0.9543 -0.3950  1.5303
  288MOL0     H38855  10.061   4.885   1.448  3.3279 -0.7457 -1.8512
  288MOL0     H38856  10.012   4.709   1.691 -1.4019  0.8041  2.5252
  288MOL0     H38857  10.126   4.852   1.681 -1.4543  2.5982 -0.6521
  288MOL0     H38858   9.852   4.872   1.766  0.0142  0.3472 -1.2106
  288MOL0     H38859   9.871   4.940   1.608  0.9910  0.2309 -0.6691
  288MOL0     H38860   9.926   5.121   1.772 -0.0744  0.3360  1.1832
  288MOL0     H38861  10.085   5.071   1.723  0.9279 -0.6589 -0.2716
  288MOL0     H38862  10.277   4.273   1.508 -1.6578 -1.8220  0.6138
  288MOL0     H38863  10.301   4.045   1.552 -0.0005  1.7251 -0.0413
  288MOL0     H38864  10.402   3.638   1.304  1.8680 -1.4974  1.4843
  288MOL0     H38865  10.445   3.398   1.332  0.1635  1.2379  2.7627
  288MOL0     H38866   9.509   1.845   1.070 -0.0260 -0.4126 -0.8969
  288MOL0     H38867   9.495   1.608   1.130  1.8468  2.0303  0.2338
  288MOL0     H38868   9.214   1.262   1.253 -0.5689  1.0911 -0.4064
  288MOL0     H38869   9.105   1.043   1.301  0.3321 -1.1785  1.0440
  288MOL0     H38870   9.214   0.887   1.686  0.1068 -1.3889 -0.2022
  288MOL0     H38871   9.064   0.957   1.751 -0.6951  1.1135 -0.8056
  288MOL0     H38872   9.088   0.677   1.618  1.3715 -1.4226  3.0186
  288MOL0     H38873   8.937   0.766   1.671 -0.3745  1.5643 -2.1617
  288MOL0     H38874   9.010   0.607   1.849 -2.5077  0.8150  1.3274
  288MOL0     H38875   9.045   0.766   1.902  0.1033 -1.9392  0.2651
  288MOL0     H38876   9.231   0.591   1.930 -0.7630  0.2361  1.2398
  288MOL0     H38877   9.259   0.761   1.889 -2.5021 -0.7907  4.8307
  288MOL0     H38878   9.388   0.468   1.577 -0.0579 -1.6981 -0.9531
  288MOL0     H38879   9.110   1.147   1.718  0.0363 -2.9209 -0.3376
  288MOL0     H38880   9.195   1.379   1.658  0.4532 -1.4599  1.1868
  289MOL0     O38881   7.168   1.085   0.126  0.1661 -0.1951  0.0043
  289MOL0     C38882   7.096   1.004   0.066 -0.6246 -0.3666 -0.0099
  289MOL0     O38883   7.062   1.015  -0.071 -0.4980 -0.3028 -0.4566
  289MOL0     C38884   7.086   1.133  -0.145  0.2373 -0.3367  0.4899
  289MOL0     C38885   7.056   1.259  -0.100  0.1608  0.3660  0.3124
  289MOL0     C38886   7.071   1.368  -0.193 -0.6277  0.4049 -1.4306
  289MOL0     C38887   7.132   1.346  -0.318 -0.0740  0.1372 -0.1361
  289MOL0     O38888   7.127   1.454  -0.405 -0.3040  0.0029 -0.5018
  289MOL0     C38889   7.236   1.551  -0.390 -0.7286 -0.0683  0.8892
  289MOL0     C38890   7.166   1.679  -0.439 -0.3491 -0.2002  0.4765
  289MOL0     C38891   7.264   1.797  -0.408 -0.0566  0.0452  0.5226
  289MOL0     C38892   7.220   1.931  -0.472  0.5276 -0.7361  0.1735
  289MOL0     C38893   7.314   2.046  -0.455 -0.2151 -0.4065 -0.1715
  289MOL0     C38894   7.263   2.134  -0.339 -0.0472  0.2993  0.6531
  289MOL0     C38895   7.380   2.214  -0.259 -0.7789  0.2860  0.5353
  289MOL0     C38896   7.488   2.121  -0.191 -0.3935  0.5690 -0.2155
  289MOL0     N38897   7.467   2.057  -0.060  0.4952 -0.0985 -0.0979
  289MOL0     C38898   7.455   2.117   0.062 -0.7892 -0.1931 -0.1332
  289MOL0     C38899   7.489   2.031   0.160 -0.1164  0.3988 -0.6849
  289MOL0     C38900   7.510   2.075   0.305  0.0455 -0.4368 -0.1209
  289MOL0     C38901   7.391   2.045   0.395  0.0271  0.5542  0.1139
  289MOL0     C38902   7.368   2.141   0.510 -0.0640  0.0392 -0.3422
  289MOL0     C38903   7.463   2.120   0.620 -0.1702 -0.1395 -0.2047
  289MOL0     O38904   7.597   2.162   0.586 -0.6446  0.2570  0.2433
  289MOL0     C38905   7.603   2.297   0.582 -0.4453 -1.0513  0.2389
  289MOL0     C38906   7.581   2.387   0.681 -0.0886  0.2121 -0.5895
  289MOL0     C38907   7.587   2.530   0.668  0.5975 -0.4511 -0.4234
  289MOL0     C38908   7.561   2.627   0.785  0.2447  0.3467 -0.4233
  289MOL0     C38909   7.607   2.587   0.533  0.2471 -0.3591  0.8562
  289MOL0     C38910   7.606   2.737   0.484 -0.3049 -0.2517  0.0214
  289MOL0     O38911   7.669   2.757   0.370  0.7152 -0.6677 -0.5625
  289MOL0     C38912   7.705   2.876   0.341  0.1193  0.2220  0.4169
  289MOL0     C38913   7.621   2.945   0.246  0.4774  0.2954  0.1671
  289MOL0     C38914   7.686   3.065   0.189 -0.6228 -0.3061 -0.0963
  289MOL0     C38915   7.814   3.108   0.229 -0.6584  1.6175  0.0567
  289MOL0     O38916   7.870   3.216   0.167 -0.0074  0.1083  0.1229
  289MOL0     C38917   7.879   3.325   0.272 -0.1909 -0.3213  0.0299
  289MOL0     C38918   7.930   3.454   0.209  0.2565  0.1266 -0.0254
  289MOL0     C38919   8.065   3.435   0.135 -0.4874 -0.7149 -0.5394
  289MOL0     C38920   8.093   3.556   0.037  0.3399  0.0627 -0.4643
  289MOL0     C38921   8.231   3.550  -0.037  1.0805  0.3436  0.5095
  289MOL0     C38922   8.271   3.678  -0.116 -0.7040 -0.2405 -0.6077
  289MOL0     C38923   8.310   3.790  -0.013  0.2461  0.5898 -0.0266
  289MOL0     C38924   8.466   3.799  -0.023 -0.8715 -0.1185 -0.3242
  289MOL0    Cl38925   8.534   3.902   0.109 -0.2055 -0.1281  0.3032
  289MOL0     C38926   7.883   3.032   0.330 -0.3976  0.6480  0.5323
  289MOL0     C38927   7.826   2.917   0.386 -0.6252  0.2519 -0.3481
  289MOL0     O38928   7.547   2.822   0.553  0.2084 -0.8212  0.5076
  289MOL0     C38929   7.646   2.487   0.434 -0.4309  0.0834  0.1184
  289MOL0     C38930   7.654   2.348   0.466 -0.1730 -0.6559  0.1509
  289MOL0     N38931   7.507   1.906   0.092 -0.3428  1.0420  0.2145
  289MOL0     N38932   7.502   1.924  -0.031 -0.1642 -0.7991  0.4415
  289MOL0     C38933   7.178   1.227  -0.356  0.4490 -0.4511 -0.4231
  289MOL0     C38934   7.154   1.121  -0.271  0.1464  0.0943  0.6237
  289MOL0     C38935   7.040   0.881   0.130  0.3612  0.0390 -0.2038
  289MOL0     C38936   6.993   0.777   0.050  0.2447  0.5047 -0.6049
  289MOL0     C38937   6.937   0.663   0.113  0.0568  0.9810  0.2226
  289MOL0     C38938   6.925   0.651   0.251  0.5573  0.6578  0.0681
  289MOL0     O38939   6.852   0.554   0.312  0.6725  0.0716  0.2044
  289MOL0     C38940   6.790   0.446   0.237 -0.6089 -0.7864 -1.1163
  289MOL0     C38941   6.898   0.341   0.218 -0.6423  0.7801  0.5944
  289MOL0     C38942   6.848   0.213   0.152  0.8471 -0.1821 -0.8228
  289MOL0     C38943   6.948   0.149   0.062  0.6002 -0.9088 -0.0529
  289MOL0     C38944   6.990   0.246  -0.047 -0.6636 -0.2899  0.3430
  289MOL0     C38945   7.023   0.325  -0.134  0.1715 -0.0158 -0.1789
  289MOL0     C38946   6.978   0.757   0.332  0.9908  1.4788  0.9896
  289MOL0     C38947   7.039   0.869   0.268  0.4617 -1.0651 -0.8320
  289MOL0     H38948   7.031   1.286   0.002  0.2511 -0.5943  0.6043
  289MOL0     H38949   7.053   1.469  -0.158  0.1120 -0.1866  0.7944
  289MOL0     H38950   7.270   1.554  -0.286  1.7192  0.3221  0.1464
  289MOL0     H38951   7.328   1.529  -0.445 -3.3083 -1.7354 -3.2480
  289MOL0     H38952   7.147   1.670  -0.546 -1.3335 -0.8067  0.6931
  289MOL0     H38953   7.076   1.691  -0.379 -1.6058  1.0909 -1.5445
  289MOL0     H38954   7.278   1.801  -0.300 -0.1861  5.4854  0.6435
  289MOL0     H38955   7.348   1.764  -0.469 -0.0744  1.5367 -0.3636
  289MOL0     H38956   7.224   1.911  -0.580 -1.8664 -1.9494  0.2401
  289MOL0     H38957   7.113   1.953  -0.469  0.5137  0.0904 -2.6694
  289MOL0     H38958   7.417   2.016  -0.432  0.3015  0.2634 -1.4991
  289MOL0     H38959   7.301   2.097  -0.551 -2.9505 -3.0424 -1.3683
  289MOL0     H38960   7.189   2.200  -0.385  1.4625 -0.8684 -4.0660
  289MOL0     H38961   7.216   2.068  -0.265 -4.2995  0.8651 -1.2503
  289MOL0     H38962   7.435   2.276  -0.331  3.5116 -3.9641 -0.3973
  289MOL0     H38963   7.330   2.271  -0.180 -0.5796 -0.4831  1.2309
  289MOL0     H38964   7.583   2.175  -0.184  0.7396 -1.5448  2.4842
  289MOL0     H38965   7.491   2.030  -0.251 -1.3821  1.2858 -1.3925
  289MOL0     H38966   7.442   2.225   0.069 -1.5788 -0.3787  2.5372
  289MOL0     H38967   7.595   2.015   0.340 -0.7314 -1.7456 -0.3825
  289MOL0     H38968   7.531   2.182   0.296 -0.4130 -0.5036 -3.9035
  289MOL0     H38969   7.401   1.942   0.429 -1.2938  0.9403  1.8122
  289MOL0     H38970   7.306   2.043   0.327  0.4010  0.0654 -0.3458
  289MOL0     H38971   7.268   2.123   0.553 -1.7417 -0.5193 -4.0818
  289MOL0     H38972   7.364   2.241   0.467  0.9694 -0.4089 -1.5468
  289MOL0     H38973   7.469   2.014   0.650  1.5986  0.6967  2.9162
  289MOL0     H38974   7.422   2.172   0.707  0.1524 -0.3326  0.0693
  289MOL0     H38975   7.575   2.346   0.781  1.2367  0.3190 -0.4373
  289MOL0     H38976   7.586   2.573   0.876 -0.6921  2.3618  1.1247
  289MOL0     H38977   7.634   2.708   0.777 -1.5756  2.1858  0.4483
  289MOL0     H38978   7.462   2.675   0.790 -0.1193 -0.3670 -0.6252
  289MOL0     H38979   7.531   2.897   0.208 -1.1074  1.6619  2.0480
  289MOL0     H38980   7.629   3.108   0.108 -0.4267 -0.5388 -0.3624
  289MOL0     H38981   7.779   3.345   0.313 -0.7202  0.6541 -1.6193
  289MOL0     H38982   7.941   3.298   0.357 -2.0865  1.1344  1.9739
  289MOL0     H38983   7.854   3.480   0.135  1.0245  3.4790  0.2149
  289MOL0     H38984   7.929   3.534   0.283 -0.2265  0.2826 -0.1960
  289MOL0     H38985   8.054   3.344   0.075 -4.4708 -1.4123  0.9194
  289MOL0     H38986   8.157   3.441   0.194 -0.8802  3.4133 -0.0754
  289MOL0     H38987   8.023   3.544  -0.046 -0.9888  0.0208  0.6167
  289MOL0     H38988   8.075   3.650   0.090  0.1269 -1.1535  1.7940
  289MOL0     H38989   8.221   3.463  -0.104 -1.9853  1.8905 -1.2998
  289MOL0     H38990   8.310   3.518   0.031  1.6231 -2.4150 -1.2385
  289MOL0     H38991   8.350   3.662  -0.190 -0.0419  0.2516 -0.0293
  289MOL0     H38992   8.186   3.710  -0.177 -0.4892 -3.0118 -2.5095
  289MOL0     H38993   8.265   3.781   0.086 -1.4267 -0.2252 -0.8102
  289MOL0     H38994   8.286   3.886  -0.059  1.2987  1.4001  1.0773
  289MOL0     H38995   8.499   3.836  -0.120 -0.8682 -1.1241 -0.7208
  289MOL0     H38996   8.508   3.698  -0.014  0.6324  0.2386 -2.4722
  289MOL0     H38997   7.982   3.064   0.363  1.8689 -1.4881 -3.4049
  289MOL0     H38998   7.874   2.863   0.467 -3.5015  1.2772  2.2439
  289MOL0     H38999   7.687   2.522   0.340  0.7358  0.9548  0.9134
  289MOL0     H39000   7.692   2.281   0.389  1.3752  0.7492 -0.3682
  289MOL0     H39001   7.219   1.206  -0.454  1.6186 -0.4640  0.0573
  289MOL0     H39002   7.177   1.021  -0.304 -1.0893  0.0202 -0.0745
  289MOL0     H39003   6.992   0.787  -0.058 -0.9409  1.0513 -0.5601
  289MOL0     H39004   6.900   0.591   0.041 -1.9228  1.4401  0.7075
  289MOL0     H39005   6.707   0.401   0.292 -2.0607  1.1331 -1.6365
  289MOL0     H39006   6.740   0.483   0.147  0.2050  1.5096 -0.6858
  289MOL0     H39007   6.935   0.314   0.318 -2.6455  1.5540  1.6076
  289MOL0     H39008   6.979   0.391   0.165  0.9786 -2.0467  0.2022
  289MOL0     H39009   6.760   0.243   0.096 -0.5198  1.0142  1.7623
  289MOL0     H39010   6.823   0.141   0.230  1.4318 -0.3937 -0.8229
  289MOL0     H39011   6.905   0.055   0.028 -1.3171 -0.0681 -0.1326
  289MOL0     H39012   7.042   0.133   0.116  2.2661  3.0910 -1.3757
  289MOL0     H39013   7.051   0.405  -0.200  0.8431  2.9258  3.3368
  289MOL0     H39014   6.960   0.753   0.439 -3.4384 -2.7854  0.4524
  289MOL0     H39015   7.082   0.942   0.335  0.8426 -2.5988  0.6821
  290MOL0     O39016   5.276   7.851   8.680 -0.4298  0.2161 -0.3542
  290MOL0     C39017   5.400   7.857   8.663  0.5399 -0.1130 -0.2752
  290MOL0     O39018   5.474   7.780   8.578 -0.6928 -0.5741  0.7785
  290MOL0     C39019   5.423   7.671   8.513  0.3772 -0.1295  0.2877
  290MOL0     C39020   5.482   7.648   8.385 -0.0350 -0.3986  0.3177
  290MOL0     C39021   5.440   7.548   8.312 -0.2024 -0.4217 -0.0225
  290MOL0     C39022   5.355   7.452   8.356  0.6100 -0.7484  0.2044
  290MOL0     O39023   5.312   7.356   8.269  0.2328 -0.1655  0.3553
  290MOL0     C39024   5.208   7.257   8.313 -0.0067 -0.2568  0.9668
  290MOL0     C39025   5.162   7.167   8.193  0.4143 -0.6318  0.4017
  290MOL0     C39026   5.115   7.258   8.078 -0.0936  0.0116 -0.2502
  290MOL0     C39027   5.018   7.176   7.993  0.3252 -0.8277  0.1732
  290MOL0     C39028   4.962   7.240   7.868  0.8848 -0.7866 -0.9240
  290MOL0     C39029   4.841   7.171   7.810 -0.0761  0.4923  0.2017
  290MOL0     C39030   4.798   7.242   7.686 -0.1516 -0.4235 -0.0961
  290MOL0     C39031   4.752   7.389   7.703 -0.0321  0.3358  0.3535
  290MOL0     N39032   4.851   7.484   7.647  0.5591  0.6607 -0.1402
  290MOL0     C39033   4.888   7.485   7.517  0.4667  0.3251 -1.0809
  290MOL0     C39034   5.001   7.558   7.519 -0.2018  0.2075  1.1448
  290MOL0     C39035   5.088   7.570   7.397  0.6584 -0.0519 -0.6412
  290MOL0     C39036   5.231   7.529   7.414  0.0427 -0.0838 -1.6121
  290MOL0     C39037   5.324   7.533   7.299  0.1061  0.2461  0.1898
  290MOL0     C39038   5.475   7.537   7.335  0.6279  0.4774  0.5908
  290MOL0     O39039   5.502   7.670   7.395  0.0611  0.5973  0.0215
  290MOL0     C39040   5.559   7.765   7.316  0.4347 -0.5531 -0.1940
  290MOL0     C39041   5.606   7.877   7.383  0.3942 -0.4025  1.0321
  290MOL0     C39042   5.642   7.996   7.308  0.2686 -0.0739  0.6085
  290MOL0     C39043   5.661   8.126   7.383  0.1510 -0.4322 -1.0023
  290MOL0     C39044   5.653   7.985   7.164 -0.8909 -0.0651 -0.2269
  290MOL0     C39045   5.691   8.101   7.081  1.6542 -0.0023 -0.5854
  290MOL0     O39046   5.669   8.087   6.947  0.2902 -0.4082 -0.3901
  290MOL0     C39047   5.673   8.201   6.872  0.7579  0.7115  0.4196
  290MOL0     C39048   5.555   8.217   6.799  0.0644  0.4654 -0.7239
  290MOL0     C39049   5.548   8.346   6.727  0.0476  0.7895  0.9506
  290MOL0     C39050   5.643   8.437   6.716 -0.5616 -0.1896 -0.5691
  290MOL0     O39051   5.640   8.552   6.649  0.1587  0.3253 -0.2924
  290MOL0     C39052   5.553   8.554   6.529 -0.7613 -1.0440  0.6453
  290MOL0     C39053   5.556   8.706   6.488 -0.3595  0.2895 -0.3331
  290MOL0     C39054   5.688   8.773   6.475 -1.2292  0.7766  0.2185
  290MOL0     C39055   5.660   8.905   6.404  0.0763 -0.5370  0.2639
  290MOL0     C39056   5.771   9.006   6.385  0.1765  1.0027  0.0257
  290MOL0     C39057   5.748   9.090   6.257 -1.1132 -0.2110  0.5421
  290MOL0     C39058   5.809   9.040   6.130 -0.3661 -0.0308 -0.6764
  290MOL0     C39059   5.725   8.923   6.072 -0.3619  1.2470 -0.7236
  290MOL0    Cl39060   5.737   8.919   5.889  0.0132  0.1295 -0.7153
  290MOL0     C39061   5.755   8.413   6.794  0.0183 -0.4486 -0.0492
  290MOL0     C39062   5.783   8.285   6.849 -0.1488 -0.7992 -0.6149
  290MOL0     O39063   5.750   8.199   7.131  0.1996  0.2859 -0.8778
  290MOL0     C39064   5.610   7.870   7.097  0.3266  0.6055  0.2212
  290MOL0     C39065   5.555   7.760   7.177  0.5381  0.0212  0.5275
  290MOL0     N39066   5.039   7.596   7.649 -0.5690  1.3801 -0.2735
  290MOL0     N39067   4.942   7.551   7.725 -0.1800 -0.3517  0.0689
  290MOL0     C39068   5.296   7.472   8.482  0.1093 -0.0710  0.0620
  290MOL0     C39069   5.335   7.578   8.566  0.0381 -0.1240 -0.1125
  290MOL0     C39070   5.473   7.966   8.729  0.7928  0.0666  1.4034
  290MOL0     C39071   5.606   7.969   8.773  0.0651  0.0942 -0.0367
  290MOL0     C39072   5.660   8.086   8.821  0.5970  0.7923  0.5731
  290MOL0     C39073   5.589   8.202   8.846  1.1350  0.2169 -0.0293
  290MOL0     O39074   5.636   8.316   8.907  0.2792  0.2108 -0.1805
  290MOL0     C39075   5.769   8.325   8.959  0.9064  0.5211 -0.9934
  290MOL0     C39076   5.776   8.428   9.067 -1.2053  0.2868 -0.2585
  290MOL0     C39077   5.787   8.571   9.005 -0.3304  0.8157 -0.0814
  290MOL0     C39078   5.768   8.669   9.121 -1.0040  0.4562 -0.7812
  290MOL0     C39079   5.778   8.797   9.064 -0.4733 -0.3800 -0.4532
  290MOL0     C39080   5.794   8.904   9.021 -0.1529 -0.3083 -0.1822
  290MOL0     C39081   5.449   8.198   8.810  0.3347  0.6261 -0.0665
  290MOL0     C39082   5.387   8.082   8.751 -0.6521 -0.1898 -0.9452
  290MOL0     H39083   5.548   7.720   8.337 -0.8175 -0.4267 -0.8544
  290MOL0     H39084   5.469   7.539   8.208  1.5889 -1.1195  0.5079
  290MOL0     H39085   5.263   7.200   8.388  4.4551  3.3049  0.8679
  290MOL0     H39086   5.119   7.306   8.352 -2.0329 -3.3742  0.5729
  290MOL0     H39087   5.229   7.087   8.162 -0.9270 -1.6318 -0.0075
  290MOL0     H39088   5.079   7.105   8.230  0.8779 -0.3878  1.9293
  290MOL0     H39089   5.050   7.335   8.122 -0.9742 -0.3948 -0.8182
  290MOL0     H39090   5.197   7.298   8.018 -2.5577  1.6512 -2.8167
  290MOL0     H39091   5.057   7.082   7.955 -2.8369 -1.9529 -0.5626
  290MOL0     H39092   4.926   7.158   8.050  0.2678 -1.6536 -0.1775
  290MOL0     H39093   4.935   7.344   7.886  1.4121 -0.1818 -3.2875
  290MOL0     H39094   5.040   7.242   7.792  1.8476  0.7694  0.0437
  290MOL0     H39095   4.877   7.073   7.779 -0.0142  0.9242 -1.1680
  290MOL0     H39096   4.743   7.175   7.858  0.0829 -2.1566  0.8949
  290MOL0     H39097   4.867   7.234   7.601  5.1051  1.3696  3.5161
  290MOL0     H39098   4.715   7.176   7.657 -0.7384  1.1284 -2.2071
  290MOL0     H39099   4.718   7.403   7.805  0.4123 -0.1096  0.5674
  290MOL0     H39100   4.656   7.397   7.651  1.4669  1.5502 -2.4504
  290MOL0     H39101   4.846   7.427   7.435 -0.5411 -1.9410  0.9408
  290MOL0     H39102   5.044   7.504   7.322 -0.2720  0.3363 -0.4544
  290MOL0     H39103   5.072   7.671   7.358 -2.5811  0.9913  2.7716
  290MOL0     H39104   5.236   7.426   7.450  0.1996  0.4031 -0.1337
  290MOL0     H39105   5.272   7.588   7.497 -3.0685  0.3290 -0.2162
  290MOL0     H39106   5.299   7.633   7.261  1.8612  1.1542  1.3295
  290MOL0     H39107   5.297   7.451   7.231 -2.7289  0.8854  0.4027
  290MOL0     H39108   5.537   7.510   7.249  0.5490 -0.5286  0.8386
  290MOL0     H39109   5.490   7.475   7.424 -0.7045  1.8636  1.8387
  290MOL0     H39110   5.601   7.896   7.490  1.0981  1.1855  0.8097
  290MOL0     H39111   5.643   8.102   7.489  1.5685  0.5114 -0.5280
  290MOL0     H39112   5.761   8.166   7.364  0.5020 -1.3163 -1.0650
  290MOL0     H39113   5.587   8.201   7.350 -0.3920 -1.6085 -2.5725
  290MOL0     H39114   5.482   8.136   6.796 -4.0304  3.5017  3.0672
  290MOL0     H39115   5.456   8.360   6.672  0.8793  1.8969 -0.2303
  290MOL0     H39116   5.612   8.494   6.459  2.9265  1.2796  1.4631
  290MOL0     H39117   5.450   8.522   6.545 -1.5454  1.1589  0.3566
  290MOL0     H39118   5.503   8.710   6.392  0.6574 -0.7370 -0.9490
  290MOL0     H39119   5.500   8.765   6.561  0.5638  1.6426 -0.6794
  290MOL0     H39120   5.759   8.709   6.421 -0.9160  1.8972 -0.7313
  290MOL0     H39121   5.735   8.787   6.573 -0.1301 -0.0730 -0.1700
  290MOL0     H39122   5.617   8.877   6.308  2.1737 -0.7294 -0.6706
  290MOL0     H39123   5.581   8.946   6.467  0.8561 -0.6540  1.3540
  290MOL0     H39124   5.864   8.953   6.363 -0.2612  0.5839 -0.8763
  290MOL0     H39125   5.780   9.066   6.476 -1.6932 -2.4734  2.7277
  290MOL0     H39126   5.644   9.124   6.247 -0.7715  1.1475  1.4176
  290MOL0     H39127   5.810   9.178   6.272 -0.6055  0.3457 -3.5305
  290MOL0     H39128   5.914   9.011   6.143 -0.7689 -1.8180 -1.0312
  290MOL0     H39129   5.810   9.117   6.052  1.7193 -0.4959 -1.1789
  290MOL0     H39130   5.621   8.929   6.104  0.0474  2.3900  0.4578
  290MOL0     H39131   5.774   8.830   6.104  1.7058  3.5490  3.5809
  290MOL0     H39132   5.837   8.483   6.796  0.7655 -1.2460 -1.3401
  290MOL0     H39133   5.876   8.261   6.900 -0.6402  2.9021  2.4305
  290MOL0     H39134   5.615   7.863   6.988 -0.0440  0.0259  0.2331
  290MOL0     H39135   5.521   7.676   7.117  0.1164  3.3657 -4.5238
  290MOL0     H39136   5.225   7.415   8.540 -0.3944  2.6204  2.2942
  290MOL0     H39137   5.290   7.611   8.659 -0.6405 -1.3931  0.0346
  290MOL0     H39138   5.672   7.884   8.763 -1.7036 -1.4663  0.9129
  290MOL0     H39139   5.768   8.089   8.833  0.9267 -3.3585  0.1624
  290MOL0     H39140   5.814   8.232   8.997  1.2806  0.6675 -1.0776
  290MOL0     H39141   5.827   8.357   8.871  1.0583  0.2936 -0.9773
  290MOL0     H39142   5.867   8.419   9.127 -2.0457  0.1200  1.0383
  290MOL0     H39143   5.694   8.409   9.137  1.3608 -1.3390  2.5389
  290MOL0     H39144   5.703   8.584   8.937  0.7330  1.1292 -1.3822
  290MOL0     H39145   5.883   8.582   8.954 -0.2324 -2.0541 -0.6563
  290MOL0     H39146   5.848   8.660   9.196  0.1759  0.0965 -2.0475
  290MOL0     H39147   5.670   8.662   9.169 -0.7921  1.6515 -0.1269
  290MOL0     H39148   5.815   9.006   8.995 -0.4148 -0.3471 -0.5568
  290MOL0     H39149   5.393   8.282   8.850  0.6844  0.3744  0.9822
  290MOL0     H39150   5.282   8.092   8.728 -0.9032 -1.5171 -0.5016
  291MOL0     O39151   5.778   4.574   1.502 -0.3289 -0.5307 -0.4286
  291MOL0     C39152   5.749   4.482   1.424  0.4699 -0.0419 -0.7413
  291MOL0     O39153   5.631   4.422   1.414 -0.2599  0.2234 -0.2645
  291MOL0     C39154   5.527   4.455   1.502 -0.0696  0.1068  0.4985
  291MOL0     C39155   5.462   4.357   1.576  0.2744 -0.2929  0.7158
  291MOL0     C39156   5.347   4.397   1.650  0.2371  0.4108 -0.1753
  291MOL0     C39157   5.307   4.526   1.649  0.3421  0.3215 -0.4287
  291MOL0     O39158   5.194   4.537   1.725  0.0878 -0.1006 -0.4413
  291MOL0     C39159   5.108   4.654   1.717  0.5734  0.3940  0.8554
  291MOL0     C39160   5.177   4.761   1.804 -1.3704 -0.2219  0.9650
  291MOL0     C39161   5.132   4.764   1.955  0.3070 -0.6313 -0.0265
  291MOL0     C39162   5.172   4.900   2.002  0.9399 -0.7897 -0.6327
  291MOL0     C39163   5.143   4.925   2.155  0.4132 -0.3333 -0.5718
  291MOL0     C39164   5.259   5.010   2.213 -1.3644  0.2183  0.4630
  291MOL0     C39165   5.248   5.035   2.365 -0.2491 -0.0746  0.0368
  291MOL0     C39166   5.377   5.075   2.425 -0.6242 -0.2067  0.1761
  291MOL0     N39167   5.455   4.961   2.473  0.1437  0.6901  0.4133
  291MOL0     C39168   5.544   4.885   2.400 -0.9505  0.0366 -0.2212
  291MOL0     C39169   5.594   4.799   2.484 -0.1215  0.4302 -0.4477
  291MOL0     C39170   5.705   4.710   2.449 -0.4428  0.1622  0.9351
  291MOL0     C39171   5.658   4.579   2.378 -1.2541 -0.2457 -0.5091
  291MOL0     C39172   5.772   4.485   2.334 -0.2499 -1.0472  0.8852
  291MOL0     C39173   5.883   4.450   2.439 -0.2980 -0.0202  0.3142
  291MOL0     O39174   5.976   4.351   2.397 -0.7193  0.0172 -0.1667
  291MOL0     C39175   6.074   4.370   2.293  0.9408 -0.9964 -0.3780
  291MOL0     C39176   6.139   4.258   2.248 -0.9172  0.4293 -0.8250
  291MOL0     C39177   6.250   4.263   2.166  1.0076 -0.1092 -1.8850
  291MOL0     C39178   6.301   4.129   2.119  0.2785  1.2436 -0.7871
  291MOL0     C39179   6.300   4.388   2.122 -0.0894  0.8894 -0.3096
  291MOL0     C39180   6.433   4.395   2.043  0.6030  0.0577 -0.4545
  291MOL0     O39181   6.482   4.520   2.048  0.0299  0.4488 -0.5455
  291MOL0     C39182   6.589   4.551   1.977 -0.1470  0.3531  0.4073
  291MOL0     C39183   6.707   4.562   2.058 -0.1694  0.3637  0.2436
  291MOL0     C39184   6.831   4.580   1.998 -0.5376  0.6043 -0.2822
  291MOL0     C39185   6.838   4.608   1.855 -0.4324 -0.1645 -0.4401
  291MOL0     O39186   6.948   4.660   1.800 -0.6800 -0.2395 -0.1127
  291MOL0     C39187   7.012   4.578   1.700 -0.3827  0.0599 -1.2684
  291MOL0     C39188   7.149   4.548   1.763 -0.3859 -0.8953 -0.4852
  291MOL0     C39189   7.220   4.458   1.675 -0.1888  0.5106  0.9709
  291MOL0     C39190   7.269   4.328   1.754  0.5972  0.1981 -0.3886
  291MOL0     C39191   7.312   4.218   1.659 -1.2108 -0.4120  0.4625
  291MOL0     C39192   7.196   4.130   1.627  0.0618 -0.1862  1.6399
  291MOL0     C39193   7.226   4.012   1.530 -0.2145  0.3947 -0.8527
  291MOL0     C39194   7.090   3.959   1.501 -0.3157 -0.2792  0.5095
  291MOL0    Cl39195   6.996   3.876   1.636 -0.0151 -0.0450  0.1165
  291MOL0     C39196   6.723   4.601   1.780  1.3893  0.2201  0.2639
  291MOL0     C39197   6.598   4.574   1.836 -0.2022  0.8084  0.3754
  291MOL0     O39198   6.489   4.301   1.982 -0.1829 -0.3965  0.0798
  291MOL0     C39199   6.224   4.504   2.153 -0.8477 -0.5873  0.4454
  291MOL0     C39200   6.115   4.494   2.240 -0.0994  0.4177 -0.7537
  291MOL0     N39201   5.527   4.811   2.602 -0.1624  0.2603 -0.0794
  291MOL0     N39202   5.436   4.898   2.595  0.3933 -0.1551  0.2900
  291MOL0     C39203   5.367   4.623   1.572  0.0107  0.1793  0.8517
  291MOL0     C39204   5.483   4.587   1.502  1.2033 -0.0758  0.4642
  291MOL0     C39205   5.860   4.433   1.336 -0.4612  0.3083 -0.1314
  291MOL0     C39206   5.995   4.462   1.378 -0.4370 -0.1232  1.3635
  291MOL0     C39207   6.105   4.414   1.295  0.9938 -0.2073 -0.1885
  291MOL0     C39208   6.068   4.335   1.189 -0.4569  0.0890  0.0853
  291MOL0     O39209   6.155   4.291   1.090 -0.1545 -0.3547  0.6416
  291MOL0     C39210   6.296   4.303   1.114  0.0957 -0.3193  0.2752
  291MOL0     C39211   6.374   4.238   1.001  0.3011  0.2100 -1.0650
  291MOL0     C39212   6.526   4.217   1.019 -0.5254  0.8222  0.2312
  291MOL0     C39213   6.566   4.094   1.096 -0.7291 -0.7967 -0.1155
  291MOL0     C39214   6.708   4.077   1.072  1.1081  1.8562 -0.1985
  291MOL0     C39215   6.820   4.045   1.049  0.0698  0.5120  0.0740
  291MOL0     C39216   5.938   4.293   1.160 -0.1548 -0.5212 -0.4334
  291MOL0     C39217   5.831   4.347   1.231 -0.7554  0.7062 -0.0480
  291MOL0     H39218   5.497   4.254   1.584  3.0024  0.6999  3.9758
  291MOL0     H39219   5.302   4.320   1.713  1.1627 -1.2911 -1.4905
  291MOL0     H39220   5.088   4.692   1.616 -1.5809  0.2094  1.1503
  291MOL0     H39221   5.010   4.618   1.751 -0.5307 -0.7873 -3.0403
  291MOL0     H39222   5.282   4.731   1.806 -1.7526 -1.9906 -1.0287
  291MOL0     H39223   5.151   4.848   1.743 -0.1055 -1.3665 -1.3715
  291MOL0     H39224   5.024   4.758   1.966  0.0754  3.5756  1.7012
  291MOL0     H39225   5.180   4.682   2.009  0.4630 -0.3358  0.2874
  291MOL0     H39226   5.275   4.928   1.976  0.9500  0.2929  0.4929
  291MOL0     H39227   5.127   4.977   1.939 -0.2363  0.0983  1.2262
  291MOL0     H39228   5.052   4.984   2.168  1.8157  2.1235 -1.2250
  291MOL0     H39229   5.123   4.829   2.205 -2.0152 -1.0868 -2.7263
  291MOL0     H39230   5.354   4.972   2.175 -1.6714  2.1486 -2.4970
  291MOL0     H39231   5.259   5.102   2.155 -2.3262  0.4328  0.7791
  291MOL0     H39232   5.165   5.105   2.379  0.9665  1.2081  1.1817
  291MOL0     H39233   5.215   4.940   2.407 -5.0419  0.8230 -1.0956
  291MOL0     H39234   5.355   5.127   2.519 -0.0452 -1.9219  1.3170
  291MOL0     H39235   5.425   5.145   2.356  0.0207 -0.9141 -0.1107
  291MOL0     H39236   5.597   4.904   2.307 -0.0822  2.4819  0.6919
  291MOL0     H39237   5.757   4.778   2.381 -2.6124  0.5668 -0.4125
  291MOL0     H39238   5.765   4.688   2.538  2.3531 -0.4440 -0.9794
  291MOL0     H39239   5.614   4.610   2.283  0.9146 -0.5588 -1.6805
  291MOL0     H39240   5.580   4.532   2.439  0.1401  1.7973  3.1664
  291MOL0     H39241   5.821   4.538   2.252  1.5144 -3.8936 -0.0551
  291MOL0     H39242   5.719   4.395   2.302 -0.2255  0.0032 -2.4330
  291MOL0     H39243   5.837   4.416   2.532 -1.9537  0.2864 -0.3555
  291MOL0     H39244   5.930   4.545   2.465 -2.7836  2.8097 -4.1593
  291MOL0     H39245   6.110   4.164   2.293 -1.3667 -0.6159 -3.1632
  291MOL0     H39246   6.234   4.045   2.140 -0.7423  2.0982 -0.5254
  291MOL0     H39247   6.324   4.131   2.012  1.2124 -1.1075 -0.6884
  291MOL0     H39248   6.395   4.098   2.164  1.4159 -1.1395 -4.3524
  291MOL0     H39249   6.693   4.549   2.165 -0.0220  2.8327  0.6116
  291MOL0     H39250   6.924   4.579   2.055  2.0783  2.4089 -4.0573
  291MOL0     H39251   6.953   4.488   1.680 -1.5820  0.3042  0.8708
  291MOL0     H39252   7.020   4.632   1.605  0.2037  0.1278 -1.1803
  291MOL0     H39253   7.207   4.640   1.779  0.2562 -1.6740  2.3235
  291MOL0     H39254   7.141   4.519   1.868 -0.9192  1.7534  0.2897
  291MOL0     H39255   7.306   4.504   1.625  1.8511 -2.4425  1.5207
  291MOL0     H39256   7.159   4.429   1.588  1.4712 -0.1818 -0.0032
  291MOL0     H39257   7.361   4.353   1.808  2.8375 -0.8316 -3.4832
  291MOL0     H39258   7.197   4.296   1.830  0.2278  0.8788 -0.4455
  291MOL0     H39259   7.384   4.158   1.715  0.3600  0.0196 -0.9991
  291MOL0     H39260   7.357   4.246   1.563 -0.2406  0.4400  1.1354
  291MOL0     H39261   7.159   4.084   1.719 -0.7833  0.4140  1.6114
  291MOL0     H39262   7.125   4.196   1.576 -1.3615 -3.3156 -0.8122
  291MOL0     H39263   7.292   3.945   1.585 -0.1115  2.2757  1.4833
  291MOL0     H39264   7.271   4.055   1.440  3.0435 -1.1371 -0.1093
  291MOL0     H39265   7.091   3.885   1.421 -1.6240  1.7114 -1.4527
  291MOL0     H39266   7.028   4.036   1.454 -1.8627 -2.1311 -0.6466
  291MOL0     H39267   6.732   4.612   1.672 -0.7264 -2.7535 -0.3476
  291MOL0     H39268   6.512   4.539   1.781 -0.2470 -2.3662  2.2377
  291MOL0     H39269   6.253   4.606   2.130  1.8964 -1.7196 -1.8947
  291MOL0     H39270   6.061   4.588   2.245  2.6677  2.2782 -2.7278
  291MOL0     H39271   5.333   4.723   1.547  0.0839  0.5558  2.2314
  291MOL0     H39272   5.527   4.660   1.435  2.3377 -0.0038  1.2524
  291MOL0     H39273   6.019   4.529   1.459  0.4619 -1.2401  2.0492
  291MOL0     H39274   6.208   4.435   1.320  0.6006  1.1714  0.3936
  291MOL0     H39275   6.334   4.405   1.124  2.5792 -1.1521  0.2342
  291MOL0     H39276   6.321   4.244   1.203  2.4836 -1.2470 -0.8988
  291MOL0     H39277   6.363   4.310   0.920 -2.7813  0.9526 -0.0895
  291MOL0     H39278   6.339   4.141   0.965  0.7330  1.1845 -4.4743
  291MOL0     H39279   6.573   4.300   1.073  1.8191  0.3749 -1.0150
  291MOL0     H39280   6.585   4.206   0.928  0.3089 -0.5698  0.9195
  291MOL0     H39281   6.515   4.004   1.062 -0.6721 -0.2189 -1.8116
  291MOL0     H39282   6.534   4.105   1.200  0.8433 -2.5889  0.6336
  291MOL0     H39283   6.922   4.021   1.025 -0.7898 -1.1929 -2.2324
  291MOL0     H39284   5.913   4.223   1.081 -1.4584  0.9980 -1.4122
  291MOL0     H39285   5.729   4.325   1.203 -0.5450  1.6376 -1.6714
  292MOL0     O39286   0.140   0.786   0.986 -0.0194  0.0952  1.3192
  292MOL0     C39287   0.129   0.772   0.858  0.1877 -0.6251 -0.9736
  292MOL0     O39288   0.062   0.665   0.798  0.0123 -0.4362 -0.2636
  292MOL0     C39289   0.034   0.556   0.864 -0.0897  1.1747  0.2180
  292MOL0     C39290  -0.035   0.552   0.989 -0.3714  0.6844  0.2922
  292MOL0     C39291  -0.076   0.433   1.055  0.3441  0.1306  0.1624
  292MOL0     C39292  -0.040   0.308   1.002  0.3283 -0.1361 -0.0400
  292MOL0     O39293  -0.094   0.189   1.053 -0.4607 -0.0011 -0.1357
  292MOL0     C39294  -0.049   0.155   1.184  0.9817  0.3973 -0.2698
  292MOL0     C39295  -0.114   0.016   1.205 -0.1864  0.0715  0.2723
  292MOL0     C39296  -0.076  -0.044   1.349  0.6446 -0.5343  0.5891
  292MOL0     C39297  -0.206  -0.089   1.411  0.4810  0.4314 -0.8755
  292MOL0     C39298  -0.256  -0.221   1.347 -0.4871 -0.2547 -0.6324
  292MOL0     C39299  -0.375  -0.274   1.427 -1.0935  0.1660 -0.3463
  292MOL0     C39300  -0.497  -0.206   1.413 -0.3297  0.0312  0.6077
  292MOL0     C39301  -0.609  -0.309   1.418  0.6292 -0.0050  0.5207
  292MOL0     N39302  -0.614  -0.359   1.551 -0.3127  1.2326 -0.1491
  292MOL0     C39303  -0.693  -0.307   1.654 -0.1549  0.2413  0.3495
  292MOL0     C39304  -0.723  -0.406   1.738  0.1793 -0.1340  0.4767
  292MOL0     C39305  -0.810  -0.401   1.862 -0.2337 -0.4920 -0.4582
  292MOL0     C39306  -0.938  -0.340   1.831 -0.1079 -1.0342 -1.3767
  292MOL0     C39307  -1.006  -0.386   1.708  0.4862  0.2538  0.3412
  292MOL0     C39308  -1.047  -0.534   1.722  0.4592  0.3771  0.3026
  292MOL0     O39309  -1.141  -0.585   1.636  0.5138 -0.5222  0.6560
  292MOL0     C39310  -1.105  -0.607   1.502 -0.6070  0.3327 -0.1723
  292MOL0     C39311  -0.977  -0.591   1.449  0.2244  0.4874 -0.9095
  292MOL0     C39312  -0.949  -0.632   1.320  0.2186  0.4464  0.7343
  292MOL0     C39313  -0.815  -0.608   1.266  0.4642  0.8255 -0.2733
  292MOL0     C39314  -1.057  -0.675   1.233  0.3053 -0.2890 -0.6785
  292MOL0     C39315  -1.047  -0.707   1.092 -0.3432  0.7878 -0.8798
  292MOL0     O39316  -1.144  -0.667   1.016  1.1244 -0.1714  1.0649
  292MOL0     C39317  -1.133  -0.687   0.876  0.1630 -0.1701 -0.5831
  292MOL0     C39318  -1.109  -0.579   0.786  0.8036  0.3511  0.5609
  292MOL0     C39319  -1.106  -0.605   0.642 -0.1641  1.8568  0.4565
  292MOL0     C39320  -1.097  -0.737   0.599 -1.3193  0.0035  0.0822
  292MOL0     O39321  -1.083  -0.748   0.462 -0.0070  0.7248 -0.7871
  292MOL0     C39322  -1.003  -0.863   0.427 -0.9077  0.1755  0.1491
  292MOL0     C39323  -0.998  -0.856   0.265  0.3229 -0.3861  0.6191
  292MOL0     C39324  -0.928  -0.985   0.234  0.1662  0.2201  1.0590
  292MOL0     C39325  -0.924  -1.007   0.082 -0.0571  0.2735 -0.5365
  292MOL0     C39326  -0.849  -1.143   0.044  0.3545 -0.2576 -0.2566
  292MOL0     C39327  -0.846  -1.186  -0.095  0.6111  0.2177  0.7775
  292MOL0     C39328  -0.737  -1.282  -0.126  0.2441 -0.4330 -0.6048
  292MOL0     C39329  -0.742  -1.407  -0.046  0.1530  0.6144  0.8688
  292MOL0    Cl39330  -0.604  -1.507  -0.098 -0.2162  0.1416 -0.6444
  292MOL0     C39331  -1.122  -0.849   0.680  1.3383  0.1832 -1.2821
  292MOL0     C39332  -1.144  -0.816   0.824  0.8047  0.0337  0.1459
  292MOL0     O39333  -0.948  -0.773   1.054 -0.0839 -0.0893 -0.4893
  292MOL0     C39334  -1.186  -0.690   1.289  0.3021 -0.4320 -0.2598
  292MOL0     C39335  -1.208  -0.657   1.420  0.2758 -0.4948  0.1484
  292MOL0     N39336  -0.650  -0.519   1.696  0.3029  0.1878 -0.6070
  292MOL0     N39337  -0.592  -0.486   1.588 -0.1511 -0.1523 -0.7542
  292MOL0     C39338   0.030   0.307   0.880  0.3523 -0.4860  0.4012
  292MOL0     C39339   0.064   0.434   0.810 -0.1325  0.4598  0.2546
  292MOL0     C39340   0.184   0.880   0.771 -0.0887 -0.3824  0.2810
  292MOL0     C39341   0.267   0.983   0.827 -0.6860  0.3408 -0.0850
  292MOL0     C39342   0.310   1.088   0.751  0.2862  0.1848  0.0941
  292MOL0     C39343   0.290   1.090   0.620  0.4704 -0.3662  0.4040
  292MOL0     O39344   0.338   1.191   0.536 -0.0764  0.0785 -0.0889
  292MOL0     C39345   0.480   1.186   0.538 -0.6002  0.4319 -0.6811
  292MOL0     C39346   0.550   1.243   0.414  0.7000  0.2039 -1.2307
  292MOL0     C39347   0.699   1.285   0.445  0.8099  0.2217 -0.0116
  292MOL0     C39348   0.729   1.436   0.459 -0.6363  0.9432  0.4810
  292MOL0     C39349   0.649   1.492   0.563 -1.0550  0.2056 -0.4613
  292MOL0     C39350   0.595   1.525   0.676  0.7566  1.0655  0.7590
  292MOL0     C39351   0.222   0.990   0.553  1.3514 -0.5084 -0.2740
  292MOL0     C39352   0.165   0.891   0.631  0.7372  0.7690  0.0748
  292MOL0     H39353  -0.053   0.648   1.035  2.6232  0.2740  2.5942
  292MOL0     H39354  -0.139   0.441   1.143 -0.0020  1.0792 -0.1609
  292MOL0     H39355   0.060   0.148   1.195  1.0987  2.9869  1.1383
  292MOL0     H39356  -0.086   0.229   1.256  1.6046 -1.6086  2.2665
  292MOL0     H39357  -0.223   0.019   1.193 -0.2009 -1.7846 -0.3013
  292MOL0     H39358  -0.079  -0.049   1.125 -1.9691  1.5596 -1.8633
  292MOL0     H39359   0.001  -0.120   1.337  0.7398 -0.0852 -2.7590
  292MOL0     H39360  -0.033   0.033   1.414  0.1009 -0.1061  0.4522
  292MOL0     H39361  -0.187  -0.106   1.517 -1.2604  1.5021 -0.3536
  292MOL0     H39362  -0.275  -0.004   1.406 -3.4830 -2.5224 -1.7723
  292MOL0     H39363  -0.294  -0.193   1.249 -3.1704  0.5054  0.5276
  292MOL0     H39364  -0.173  -0.292   1.340  1.6654  2.0883 -0.2258
  292MOL0     H39365  -0.362  -0.380   1.402  2.4552 -0.1827  2.2151
  292MOL0     H39366  -0.347  -0.280   1.532  4.5387 -2.0608 -1.6214
  292MOL0     H39367  -0.503  -0.123   1.484 -2.7195 -1.4543  2.3321
  292MOL0     H39368  -0.510  -0.153   1.318  3.5352  0.9628  0.4349
  292MOL0     H39369  -0.601  -0.384   1.338  1.4539 -0.7908  1.3162
  292MOL0     H39370  -0.701  -0.251   1.405  0.5450 -0.0500  0.9271
  292MOL0     H39371  -0.729  -0.204   1.648  2.9988  1.3885 -2.9605
  292MOL0     H39372  -0.829  -0.500   1.905 -3.1673 -0.6726 -1.9776
  292MOL0     H39373  -0.752  -0.343   1.936  1.6303 -1.3915 -1.1520
  292MOL0     H39374  -0.906  -0.235   1.824  2.6949 -1.3590  2.8300
  292MOL0     H39375  -1.007  -0.356   1.914 -0.7391 -0.1466 -1.7146
  292MOL0     H39376  -0.959  -0.372   1.611 -2.8595 -1.8723 -1.7949
  292MOL0     H39377  -1.104  -0.339   1.692  0.9959  0.2227 -3.6948
  292MOL0     H39378  -1.094  -0.555   1.819  0.4048  1.3133  0.4886
  292MOL0     H39379  -0.951  -0.586   1.719  1.9427  2.9893 -0.2796
  292MOL0     H39380  -0.895  -0.555   1.510 -1.4169  2.2712  0.3830
  292MOL0     H39381  -0.749  -0.587   1.350 -1.0779  1.3384  0.8664
  292MOL0     H39382  -0.780  -0.700   1.219 -0.8187  0.0970  0.1332
  292MOL0     H39383  -0.821  -0.526   1.194 -2.1805  1.6404  0.7294
  292MOL0     H39384  -1.104  -0.473   0.808  3.3721  0.2425  0.7405
  292MOL0     H39385  -1.096  -0.526   0.568  2.3322  1.0953 -0.1128
  292MOL0     H39386  -0.905  -0.851   0.473 -1.6664  4.0107  1.0900
  292MOL0     H39387  -1.037  -0.958   0.469  2.6679 -1.1231  0.4495
  292MOL0     H39388  -1.102  -0.851   0.231 -1.1880 -1.0808  4.5666
  292MOL0     H39389  -0.937  -0.772   0.230 -2.0817  2.0752  1.9094
  292MOL0     H39390  -0.973  -1.070   0.285  2.1952 -0.9476  0.9780
  292MOL0     H39391  -0.828  -0.986   0.279 -0.6634 -0.8081  3.0328
  292MOL0     H39392  -1.023  -1.003   0.037  0.6579 -0.8384 -2.2980
  292MOL0     H39393  -0.869  -0.929   0.030 -1.3216  0.9517 -0.8766
  292MOL0     H39394  -0.873  -1.232   0.104 -4.3011  0.5395 -0.5161
  292MOL0     H39395  -0.745  -1.123   0.069 -0.0409 -2.5603  4.2793
  292MOL0     H39396  -0.944  -1.225  -0.123 -0.2634 -0.4460  4.2976
  292MOL0     H39397  -0.829  -1.098  -0.158 -1.6965 -0.0812 -0.3700
  292MOL0     H39398  -0.642  -1.231  -0.109 -0.7605  0.9861  1.0755
  292MOL0     H39399  -0.738  -1.313  -0.231  0.0441 -2.8771  0.0643
  292MOL0     H39400  -0.830  -1.463  -0.077  1.4685 -0.4840 -1.0679
  292MOL0     H39401  -0.757  -1.395   0.062 -0.6878 -1.7201  1.0785
  292MOL0     H39402  -1.133  -0.952   0.649 -1.1892 -0.7743  2.1321
  292MOL0     H39403  -1.182  -0.899   0.884  0.7708  0.3480  0.5608
  292MOL0     H39404  -1.271  -0.706   1.223 -0.6201  3.3348 -0.2063
  292MOL0     H39405  -1.305  -0.660   1.470  1.3547 -0.4208  2.3451
  292MOL0     H39406   0.072   0.216   0.839  0.4361 -0.4925  0.5014
  292MOL0     H39407   0.118   0.436   0.715 -2.1780 -0.2958 -0.9903
  292MOL0     H39408   0.294   0.993   0.932  0.9533  3.3020 -0.7144
  292MOL0     H39409   0.376   1.163   0.795  0.4736 -0.0574  0.2286
  292MOL0     H39410   0.527   1.240   0.621 -0.4901 -0.5738 -0.0737
  292MOL0     H39411   0.511   1.082   0.547 -0.1145  0.4406 -2.0041
  292MOL0     H39412   0.504   1.336   0.379  4.4383  1.7874 -2.4381
  292MOL0     H39413   0.537   1.175   0.329 -1.8978  0.4621 -1.1261
  292MOL0     H39414   0.759   1.264   0.356 -1.0874 -0.0804 -1.2963
  292MOL0     H39415   0.757   1.228   0.518  1.5083  0.0374 -0.6945
  292MOL0     H39416   0.705   1.491   0.368 -0.7945 -0.7252 -0.5429
  292MOL0     H39417   0.835   1.456   0.473  0.3556  0.3066 -4.3119
  292MOL0     H39418   0.534   1.560   0.757  0.0090 -0.8149  1.0686
  292MOL0     H39419   0.194   1.007   0.450 -5.6935 -0.2237  1.1804
  292MOL0     H39420   0.117   0.814   0.572  4.8818 -1.4687 -0.7084
  293MOL0     O39421   5.976   2.872   9.325 -0.7071  0.0532  0.0132
  293MOL0     C39422   6.014   2.755   9.305  0.2022  1.6155  0.2482
  293MOL0     O39423   6.037   2.654   9.399 -0.4412 -0.2232  0.5101
  293MOL0     C39424   6.035   2.702   9.533  0.0611  0.0666 -0.7793
  293MOL0     C39425   5.983   2.615   9.627  0.4242 -0.7731  0.2020
  293MOL0     C39426   5.969   2.643   9.763  0.1543 -0.2025  0.0646
  293MOL0     C39427   6.003   2.769   9.805 -0.6913 -0.4751 -0.8881
  293MOL0     O39428   5.986   2.810   9.936  0.4190  0.7620 -0.8624
  293MOL0     C39429   5.836   2.814   9.963 -0.1473 -0.6557 -0.2463
  293MOL0     C39430   5.796   2.940  10.040 -0.3928 -0.1830  0.6738
  293MOL0     C39431   5.825   3.070   9.957 -0.2845 -0.0017  0.3633
  293MOL0     C39432   5.744   3.176  10.014  0.3223  0.1547 -0.2494
  293MOL0     C39433   5.778   3.319   9.956  0.0854 -0.6070 -0.2999
  293MOL0     C39434   5.722   3.436  10.046 -0.1838  0.7047 -0.1518
  293MOL0     C39435   5.574   3.413  10.093 -0.1248 -1.0259 -0.6138
  293MOL0     C39436   5.461   3.452  10.003 -0.5620  0.6241  1.5413
  293MOL0     N39437   5.325   3.459  10.067  0.2768 -0.6301  0.2074
  293MOL0     C39438   5.281   3.383  10.179  0.0373 -0.2901 -0.0325
  293MOL0     C39439   5.156   3.420  10.206  0.0388 -0.3040  0.0284
  293MOL0     C39440   5.075   3.360  10.318 -0.0789  0.0395  0.1870
  293MOL0     C39441   4.942   3.408  10.370 -0.5165  0.2361  0.2567
  293MOL0     C39442   4.836   3.438  10.256  0.3116 -0.4210  0.5480
  293MOL0     C39443   4.700   3.467  10.301 -0.1238 -0.8196 -1.2909
  293MOL0     O39444   4.620   3.346  10.310  0.3125 -0.7871 -1.2070
  293MOL0     C39445   4.503   3.320  10.245  0.8184  0.0572  0.5914
  293MOL0     C39446   4.450   3.411  10.145  0.4963  0.5771 -0.1013
  293MOL0     C39447   4.334   3.376  10.079  0.3828  0.2590  0.7077
  293MOL0     C39448   4.285   3.451   9.954 -0.2011  0.5369 -0.1104
  293MOL0     C39449   4.265   3.256  10.117 -0.6096 -0.7002 -0.0992
  293MOL0     C39450   4.134   3.219  10.069  0.9523 -0.4387 -0.7830
  293MOL0     O39451   4.052   3.168  10.168 -0.2243  0.0036 -0.7390
  293MOL0     C39452   3.922   3.131  10.143 -0.2695  0.9573 -0.5127
  293MOL0     C39453   3.889   3.036  10.052 -0.3372  0.2269  0.4215
  293MOL0     C39454   3.761   3.001  10.025  0.0419  0.1374  0.1771
  293MOL0     C39455   3.655   3.057  10.102  0.5785  1.3855 -0.8998
  293MOL0     O39456   3.523   3.029  10.093  0.8249 -0.2137  0.0293
  293MOL0     C39457   3.458   2.999   9.974  0.1972 -0.6371 -0.3261
  293MOL0     C39458   3.311   2.962  10.001  0.1506 -0.1685 -0.8609
  293MOL0     C39459   3.304   2.826  10.083 -0.3676 -0.0602 -0.5817
  293MOL0     C39460   3.153   2.785  10.094 -0.2908 -0.9341 -1.0721
  293MOL0     C39461   3.132   2.688  10.210 -0.2487  0.4405  0.1793
  293MOL0     C39462   2.979   2.622  10.208 -0.3873  0.4959  0.3247
  293MOL0     C39463   2.959   2.539  10.333 -0.1230 -0.5432 -0.8125
  293MOL0     C39464   2.813   2.511  10.344 -0.0119  0.4360 -0.2945
  293MOL0    Cl39465   2.785   2.371  10.217 -0.0415  0.3823  0.5274
  293MOL0     C39466   3.696   3.139  10.205 -0.0303  0.5908  0.0278
  293MOL0     C39467   3.823   3.176  10.226  0.4827 -0.4702  0.0448
  293MOL0     O39468   4.095   3.240   9.958  0.3048 -0.1948  0.0395
  293MOL0     C39469   4.317   3.170  10.212  0.4036 -0.6431  0.6440
  293MOL0     C39470   4.439   3.200  10.271  0.5450  0.2351  0.0619
  293MOL0     N39471   5.125   3.523  10.123  0.0652 -0.4140  0.1927
  293MOL0     N39472   5.233   3.560  10.054  0.1951  0.3985  0.7543
  293MOL0     C39473   6.052   2.862   9.711 -0.4130 -0.1921  0.1658
  293MOL0     C39474   6.073   2.828   9.577 -0.0272  0.5108  0.4683
  293MOL0     C39475   6.021   2.708   9.161  0.0230 -0.0605 -0.0434
  293MOL0     C39476   6.041   2.572   9.120  0.0935 -0.1834  0.4325
  293MOL0     C39477   6.065   2.537   8.981  0.3201 -0.2660 -0.0501
  293MOL0     C39478   6.070   2.639   8.892  0.6828  0.1341  0.5397
  293MOL0     O39479   6.077   2.602   8.758 -0.1949 -0.6652  0.1978
  293MOL0     C39480   6.063   2.699   8.647 -0.0204  0.3459 -0.2826
  293MOL0     C39481   6.062   2.635   8.507 -0.4614 -0.1504 -0.3219
  293MOL0     C39482   5.984   2.701   8.391 -0.5226 -0.1607  0.8012
  293MOL0     C39483   6.062   2.799   8.298 -0.5414 -0.7408 -0.2529
  293MOL0     C39484   6.147   2.898   8.367 -0.1485 -0.6098 -0.1370
  293MOL0     C39485   6.232   2.972   8.423  0.7842  0.0833  0.2603
  293MOL0     C39486   6.032   2.765   8.925 -0.6385  0.4048 -0.5802
  293MOL0     C39487   6.005   2.804   9.057 -0.4707  0.0686  0.1266
  293MOL0     H39488   5.965   2.515   9.587  0.4929 -1.6849  2.3387
  293MOL0     H39489   5.934   2.564   9.829  0.1382 -0.9183 -0.7769
  293MOL0     H39490   5.788   2.826   9.865 -0.3380  1.1312  0.0335
  293MOL0     H39491   5.804   2.723  10.016 -1.0917 -1.7493 -2.5380
  293MOL0     H39492   5.694   2.919  10.072 -0.5795 -1.6057 -0.7224
  293MOL0     H39493   5.855   2.946  10.132 -2.8192  3.0923  2.2345
  293MOL0     H39494   5.925   3.109   9.977 -0.0386  1.5512 -3.0875
  293MOL0     H39495   5.807   3.059   9.849 -0.1926 -2.8197  0.5437
  293MOL0     H39496   5.638   3.149  10.012  0.2522  0.3210  0.7362
  293MOL0     H39497   5.763   3.182  10.121 -1.0319  1.3312 -0.0441
  293MOL0     H39498   5.887   3.327   9.952  0.1777 -0.2061  1.9542
  293MOL0     H39499   5.723   3.338   9.863 -0.0885  1.3337  0.1678
  293MOL0     H39500   5.769   3.425  10.144  0.5074  0.6238 -0.4855
  293MOL0     H39501   5.735   3.539  10.013  0.2243  0.0669 -2.1282
  293MOL0     H39502   5.553   3.307  10.111 -2.8613 -1.0997 -3.4044
  293MOL0     H39503   5.572   3.467  10.188  1.3772  0.2943 -1.2759
  293MOL0     H39504   5.463   3.369   9.931 -2.4127 -1.0387  3.2707
  293MOL0     H39505   5.477   3.543   9.944  1.1551 -1.7251 -2.0079
  293MOL0     H39506   5.337   3.309  10.235 -2.8174  0.0218  3.5013
  293MOL0     H39507   5.076   3.254  10.289  1.0236 -0.1346  0.8254
  293MOL0     H39508   5.134   3.375  10.408  1.7866  1.7355 -1.2271
  293MOL0     H39509   4.951   3.492  10.440 -1.0330 -1.6721  2.7609
  293MOL0     H39510   4.893   3.322  10.415  3.5042 -3.8377 -2.3306
  293MOL0     H39511   4.831   3.359  10.180  0.4300  1.3415 -1.3565
  293MOL0     H39512   4.877   3.526  10.207 -0.5031  0.1203  0.8258
  293MOL0     H39513   4.655   3.536  10.228 -1.2912 -1.1547 -0.9058
  293MOL0     H39514   4.698   3.526  10.393 -1.7820  0.2398 -1.9494
  293MOL0     H39515   4.498   3.502  10.111 -0.3189  1.3123  0.6474
  293MOL0     H39516   4.289   3.393   9.861  0.5255  0.3336  0.0428
  293MOL0     H39517   4.182   3.482   9.977  0.0363  2.2854 -1.2429
  293MOL0     H39518   4.358   3.531   9.943  0.3941  0.0920  0.5914
  293MOL0     H39519   3.960   2.992   9.983 -0.7871  2.5302 -1.6549
  293MOL0     H39520   3.732   2.924   9.955  0.5119 -0.3243  0.4767
  293MOL0     H39521   3.457   3.092   9.915 -0.1755 -1.8323 -2.2802
  293MOL0     H39522   3.510   2.923   9.915 -0.2092 -1.0161 -0.2004
  293MOL0     H39523   3.267   3.050  10.048  2.3993  0.1229  0.8510
  293MOL0     H39524   3.257   2.937   9.909  0.8740 -1.5017 -0.9459
  293MOL0     H39525   3.356   2.840  10.178  1.4270 -2.1764 -1.1770
  293MOL0     H39526   3.360   2.744  10.037 -0.7585  0.2921 -1.7071
  293MOL0     H39527   3.087   2.870  10.111  2.2097  1.1438 -1.1065
  293MOL0     H39528   3.127   2.739   9.998 -2.7067 -1.6849 -0.1252
  293MOL0     H39529   3.149   2.724  10.312 -2.5689 -2.4904  1.7645
  293MOL0     H39530   3.199   2.602  10.208  0.3229  0.8681  0.7236
  293MOL0     H39531   2.911   2.708  10.198 -0.5962  0.0672 -4.0366
  293MOL0     H39532   2.958   2.564  10.118 -0.9595  0.6014  0.3807
  293MOL0     H39533   2.990   2.586  10.426 -0.5230  1.5432 -1.6918
  293MOL0     H39534   3.008   2.441  10.324  0.2611 -0.4615  0.2673
  293MOL0     H39535   2.766   2.607  10.323 -0.4719  0.0074 -1.2897
  293MOL0     H39536   2.787   2.471  10.443  2.0381  0.2395  0.2142
  293MOL0     H39537   3.615   3.173  10.268 -0.5084 -1.6614  0.7002
  293MOL0     H39538   3.850   3.244  10.306  0.1385 -1.0094  0.6306
  293MOL0     H39539   4.262   3.080  10.234  1.6700 -1.7496 -0.5194
  293MOL0     H39540   4.465   3.125  10.345 -3.7314  0.7109  2.3774
  293MOL0     H39541   6.086   2.952   9.762 -0.9077  0.7926 -1.1900
  293MOL0     H39542   6.130   2.883   9.503  1.4630 -1.5544 -0.0057
  293MOL0     H39543   6.045   2.489   9.191  0.0529 -0.7155 -0.1852
  293MOL0     H39544   6.099   2.440   8.948 -0.3674  0.2245 -2.3542
  293MOL0     H39545   5.974   2.761   8.659  1.5962  3.2833 -2.2462
  293MOL0     H39546   6.142   2.774   8.644 -0.3976  0.7146 -2.3641
  293MOL0     H39547   6.031   2.531   8.522 -0.6589 -0.6819 -3.6831
  293MOL0     H39548   6.164   2.631   8.467 -1.0100 -0.1714 -1.7882
  293MOL0     H39549   5.907   2.762   8.438  0.4490 -0.1891  2.4871
  293MOL0     H39550   5.925   2.628   8.334  2.1650 -0.8582 -1.3055
  293MOL0     H39551   5.987   2.850   8.237 -0.8561  0.5329  1.1369
  293MOL0     H39552   6.132   2.744   8.234 -0.2163  0.9206 -1.3811
  293MOL0     H39553   6.287   3.040   8.485  1.3222  0.2255 -0.3535
  293MOL0     H39554   6.028   2.847   8.854  1.1403 -1.6573 -3.2664
  293MOL0     H39555   5.989   2.911   9.068 -1.8021 -0.1769  0.8061
  294MOL0     O39556   2.489   7.897   5.767  0.4026  0.0474  0.8256
  294MOL0     C39557   2.408   7.993   5.777 -0.6229 -0.9024  0.2289
  294MOL0     O39558   2.377   8.048   5.895 -0.3164 -0.3467  0.4127
  294MOL0     C39559   2.460   8.008   6.000  0.5238 -0.1438 -1.1259
  294MOL0     C39560   2.578   8.061   6.028 -0.5991 -1.1979 -0.3804
  294MOL0     C39561   2.663   8.003   6.119 -0.1257 -0.0351 -1.1671
  294MOL0     C39562   2.614   7.900   6.205  0.2297 -0.2379 -0.9234
  294MOL0     O39563   2.678   7.836   6.304 -0.7474 -0.3077 -0.0727
  294MOL0     C39564   2.814   7.803   6.276  0.6327 -0.2585 -0.0386
  294MOL0     C39565   2.841   7.736   6.141 -0.0683 -0.6539 -0.1563
  294MOL0     C39566   2.753   7.617   6.109 -0.3117  0.7847  0.2681
  294MOL0     C39567   2.788   7.553   5.981 -0.5208 -0.3095  0.3639
  294MOL0     C39568   2.728   7.415   5.974  0.4063 -0.1500 -0.7517
  294MOL0     C39569   2.740   7.353   5.830  0.0762  0.5433  0.6581
  294MOL0     C39570   2.722   7.202   5.839  0.5104  0.2395  0.3053
  294MOL0     C39571   2.566   7.165   5.854  0.1177 -0.7489  0.0979
  294MOL0     N39572   2.556   7.027   5.884  0.3734  0.4982  0.6190
  294MOL0     C39573   2.579   6.965   6.008  0.0921  0.6091 -0.6662
  294MOL0     C39574   2.575   6.830   5.982 -0.0886  0.1742 -0.2073
  294MOL0     C39575   2.611   6.730   6.093  0.6395  0.3414 -0.1375
  294MOL0     C39576   2.492   6.630   6.118 -0.3939 -0.0102  0.2850
  294MOL0     C39577   2.514   6.497   6.182 -0.4817 -0.2603 -0.5311
  294MOL0     C39578   2.520   6.512   6.345  0.0188 -0.6783  0.9708
  294MOL0     O39579   2.386   6.548   6.394  0.1105  0.4816 -0.4430
  294MOL0     C39580   2.331   6.451   6.476 -0.0324 -0.0794  0.1137
  294MOL0     C39581   2.303   6.327   6.418 -0.2537  0.4043  0.0009
  294MOL0     C39582   2.246   6.225   6.498  0.9779  0.1327  0.5307
  294MOL0     C39583   2.202   6.103   6.416 -0.2737 -1.0853 -0.0195
  294MOL0     C39584   2.210   6.247   6.637  0.4413 -0.8971  0.9585
  294MOL0     C39585   2.126   6.154   6.720 -0.6559  0.3151  0.4151
  294MOL0     O39586   2.127   6.191   6.854 -0.5903 -0.0274 -1.4113
  294MOL0     C39587   2.094   6.097   6.945 -0.0753 -1.0979 -0.3786
  294MOL0     C39588   2.175   5.985   6.955 -0.2768 -0.0073 -0.5852
  294MOL0     C39589   2.131   5.892   7.050 -0.0243  0.1079  0.2962
  294MOL0     C39590   2.016   5.908   7.132 -0.0514 -0.1080 -1.0503
  294MOL0     O39591   1.980   5.797   7.211  0.1627  0.1712  0.9493
  294MOL0     C39592   1.954   5.670   7.142 -0.8536  0.0314  0.0627
  294MOL0     C39593   1.837   5.591   7.204  0.2203  0.7235  0.3641
  294MOL0     C39594   1.763   5.526   7.078 -0.6577  0.0786  0.0746
  294MOL0     C39595   1.675   5.405   7.103 -0.1878  1.4332  0.8294
  294MOL0     C39596   1.632   5.333   6.971 -0.5976 -0.1523  0.2972
  294MOL0     C39597   1.542   5.218   7.007 -0.2265  0.0261  1.0369
  294MOL0     C39598   1.446   5.172   6.889  0.1637 -0.2981  0.2390
  294MOL0     C39599   1.536   5.123   6.768  0.1874  0.1484  0.1460
  294MOL0    Cl39600   1.409   5.048   6.664  0.6270  0.2001 -0.4720
  294MOL0     C39601   1.951   6.037   7.137 -0.6386 -0.0860  0.2382
  294MOL0     C39602   1.987   6.123   7.032 -0.2335 -0.3816 -0.4109
  294MOL0     O39603   2.054   6.066   6.667  0.3425  0.1229 -0.2538
  294MOL0     C39604   2.252   6.376   6.694  0.3733  0.4320 -0.1268
  294MOL0     C39605   2.297   6.479   6.611 -0.3271  0.3878  0.5093
  294MOL0     N39606   2.521   6.811   5.858 -0.9824 -0.6571  0.2720
  294MOL0     N39607   2.512   6.926   5.800 -0.5300  0.4773  0.5228
  294MOL0     C39608   2.488   7.850   6.179 -0.9139 -0.5841  0.3255
  294MOL0     C39609   2.406   7.905   6.078 -0.6336 -0.2727  0.4516
  294MOL0     C39610   2.331   8.044   5.661 -0.4039 -0.8366 -0.8065
  294MOL0     C39611   2.363   8.006   5.530 -0.1493  0.6457  1.2405
  294MOL0     C39612   2.281   8.038   5.420 -1.1136  0.6276 -0.4859
  294MOL0     C39613   2.174   8.117   5.438  1.1221 -1.4117  0.3536
  294MOL0     O39614   2.099   8.156   5.324 -0.3209  0.3770 -0.8840
  294MOL0     C39615   1.967   8.105   5.304 -0.3812 -0.6034  0.1416
  294MOL0     C39616   1.913   8.133   5.165  0.1749  1.4760  1.1707
  294MOL0     C39617   1.984   8.025   5.071  0.0426 -0.0741  0.1812
  294MOL0     C39618   1.923   8.026   4.923  0.4362 -0.5887 -0.5848
  294MOL0     C39619   1.778   8.001   4.928  0.0917  0.5513  0.1927
  294MOL0     C39620   1.667   7.968   4.915  0.3372  0.0082 -0.1764
  294MOL0     C39621   2.135   8.161   5.563 -0.8007 -0.0915 -0.3786
  294MOL0     C39622   2.211   8.121   5.680 -0.2271  0.4170  0.1120
  294MOL0     H39623   2.613   8.146   5.970  1.0659  0.3797  2.6949
  294MOL0     H39624   2.763   8.038   6.143 -0.9069  0.9018  1.0096
  294MOL0     H39625   2.884   7.886   6.288  0.5138  0.0020 -1.1064
  294MOL0     H39626   2.838   7.730   6.354  0.1390 -1.5846 -1.0846
  294MOL0     H39627   2.831   7.812   6.064  0.6991  0.4889  0.8369
  294MOL0     H39628   2.948   7.713   6.148  0.3077  1.3815  2.1351
  294MOL0     H39629   2.748   7.541   6.188 -2.5092  0.3709 -0.2009
  294MOL0     H39630   2.650   7.648   6.088  0.6863  2.4761 -2.8420
  294MOL0     H39631   2.760   7.618   5.897  0.5252 -0.5777 -0.2060
  294MOL0     H39632   2.897   7.542   5.976 -0.5895 -0.7018 -0.3929
  294MOL0     H39633   2.780   7.342   6.036 -0.6912  1.0566  1.7128
  294MOL0     H39634   2.627   7.410   6.015 -0.0719 -0.5386 -1.9341
  294MOL0     H39635   2.672   7.404   5.762 -1.6821  0.5758  2.3501
  294MOL0     H39636   2.839   7.385   5.797 -0.3169 -0.7755 -1.9963
  294MOL0     H39637   2.777   7.168   5.750 -0.0101  1.4027 -0.4857
  294MOL0     H39638   2.781   7.162   5.922  3.4468  0.6735 -1.4253
  294MOL0     H39639   2.522   7.180   5.754  0.4730 -0.9455 -0.0868
  294MOL0     H39640   2.506   7.231   5.918 -1.1769 -0.9956 -0.8118
  294MOL0     H39641   2.618   7.006   6.101  0.9539 -1.7295  0.0852
  294MOL0     H39642   2.706   6.675   6.088 -0.0215 -1.1973  2.5282
  294MOL0     H39643   2.636   6.793   6.179  4.8993  2.3677 -2.4924
  294MOL0     H39644   2.455   6.600   6.019  0.1946 -0.9290  0.3358
  294MOL0     H39645   2.414   6.685   6.172 -1.4723 -3.1869  2.2357
  294MOL0     H39646   2.610   6.453   6.153  0.9935  0.9678  2.0492
  294MOL0     H39647   2.438   6.431   6.140 -0.6283 -0.6326  0.2955
  294MOL0     H39648   2.596   6.583   6.379 -0.9099 -0.7547  3.4291
  294MOL0     H39649   2.564   6.422   6.388  2.9758 -0.0650 -0.5311
  294MOL0     H39650   2.320   6.312   6.312  1.6403 -2.2925  0.5878
  294MOL0     H39651   2.224   6.101   6.308  0.8599 -1.5092  0.2051
  294MOL0     H39652   2.250   6.014   6.457  2.1907  0.2569  0.1905
  294MOL0     H39653   2.094   6.092   6.433 -0.2118  0.8391  1.9189
  294MOL0     H39654   2.270   5.991   6.903 -0.3027 -1.5225 -0.8449
  294MOL0     H39655   2.197   5.808   7.070 -2.6541 -1.5372  2.9670
  294MOL0     H39656   1.941   5.679   7.034  0.7820  2.1617 -0.0274
  294MOL0     H39657   2.039   5.605   7.162  0.0217  1.2257  0.3334
  294MOL0     H39658   1.882   5.512   7.266 -2.0515 -1.0093 -0.0624
  294MOL0     H39659   1.780   5.661   7.265  1.3549  0.8342  1.3244
  294MOL0     H39660   1.842   5.487   7.014  0.4820  1.4466  0.5888
  294MOL0     H39661   1.718   5.607   7.021  1.3783  2.2682  1.3727
  294MOL0     H39662   1.724   5.331   7.168  2.1612  0.7815 -1.5116
  294MOL0     H39663   1.581   5.432   7.152 -1.1134  2.2236 -1.2933
  294MOL0     H39664   1.725   5.309   6.920  0.9570  3.3263  1.2024
  294MOL0     H39665   1.572   5.402   6.912  1.0784  1.1370  0.0282
  294MOL0     H39666   1.613   5.139   7.033 -2.5083 -3.8670 -3.1832
  294MOL0     H39667   1.480   5.234   7.096 -1.0757 -2.2947  0.9482
  294MOL0     H39668   1.372   5.249   6.863 -0.3340 -0.0397  2.2010
  294MOL0     H39669   1.391   5.089   6.935 -1.5213 -0.4715 -1.9467
  294MOL0     H39670   1.608   5.052   6.810 -3.1840 -0.5577  5.5981
  294MOL0     H39671   1.584   5.211   6.724  0.7417 -0.9593 -1.5556
  294MOL0     H39672   1.869   6.065   7.201  0.7046  0.9773  1.5641
  294MOL0     H39673   1.946   6.222   7.021 -0.8273 -0.2634  2.2431
  294MOL0     H39674   2.235   6.393   6.799 -1.7377  0.2899 -0.4097
  294MOL0     H39675   2.326   6.579   6.642 -3.7312  1.3869  0.8807
  294MOL0     H39676   2.447   7.768   6.238 -5.9037  0.4408 -1.2101
  294MOL0     H39677   2.315   7.859   6.043 -1.3356  1.6813 -0.4123
  294MOL0     H39678   2.457   7.960   5.504 -2.0341 -2.9002  0.0744
  294MOL0     H39679   2.306   8.014   5.317  2.5233  2.9514 -0.3277
  294MOL0     H39680   1.971   7.998   5.326  1.5865 -0.3575  1.1526
  294MOL0     H39681   1.899   8.142   5.381 -1.6000 -0.8966 -0.7595
  294MOL0     H39682   1.961   8.228   5.138 -0.2776  2.5618  3.8835
  294MOL0     H39683   1.804   8.129   5.158  0.2693 -1.7934 -0.4434
  294MOL0     H39684   1.975   7.918   5.094  4.2786 -0.6534 -0.1608
  294MOL0     H39685   2.092   8.036   5.076 -0.1505  1.6407  2.0935
  294MOL0     H39686   1.965   7.940   4.869 -0.7806 -1.5926  0.0069
  294MOL0     H39687   1.942   8.120   4.872  0.1420 -0.1440  0.1121
  294MOL0     H39688   1.570   7.924   4.906  2.0535 -4.4469  0.6872
  294MOL0     H39689   2.039   8.212   5.571  1.7929  5.5888 -0.1049
  294MOL0     H39690   2.183   8.151   5.781 -2.5925  0.4978 -0.4992
  295MOL0     O39691   0.429  11.167   9.249 -0.4959  0.4330 -0.2996
  295MOL0     C39692   0.320  11.105   9.250 -0.5606 -0.0775 -0.0754
  295MOL0     O39693   0.209  11.156   9.314 -0.5047  0.2890 -0.5341
  295MOL0     C39694   0.235  11.273   9.382 -0.6047  0.0889  0.1995
  295MOL0     C39695   0.268  11.277   9.520  0.2053  0.5756 -0.0101
  295MOL0     C39696   0.275  11.398   9.590 -0.4978  0.6153 -0.2379
  295MOL0     C39697   0.249  11.519   9.519  0.0597  0.3911  0.0894
  295MOL0     O39698   0.256  11.642   9.587  0.3525  0.5767 -0.2515
  295MOL0     C39699   0.364  11.669   9.681 -0.6396  1.0133  0.1918
  295MOL0     C39700   0.359  11.812   9.713  0.3188 -1.2947  0.8691
  295MOL0     C39701   0.392  11.893   9.589  0.8332  0.3377  0.0926
  295MOL0     C39702   0.408  12.042   9.620 -0.1821 -0.4172  0.1804
  295MOL0     C39703   0.530  12.080   9.700 -1.4635 -1.4629 -0.6614
  295MOL0     C39704   0.549  12.237   9.698 -0.1594  0.5427  0.0222
  295MOL0     C39705   0.656  12.273   9.805  0.7725 -0.1744  0.8777
  295MOL0     C39706   0.697  12.422   9.800  0.1766  0.2147  0.9431
  295MOL0     N39707   0.769  12.467   9.682 -0.0809 -0.4973 -0.1688
  295MOL0     C39708   0.883  12.409   9.631 -0.2989 -0.0466 -0.2096
  295MOL0     C39709   0.890  12.449   9.502  0.1661 -0.1451 -0.9063
  295MOL0     C39710   1.001  12.397   9.408  0.8032 -0.4033 -0.4555
  295MOL0     C39711   1.137  12.469   9.404 -0.2189  0.1273 -0.2932
  295MOL0     C39712   1.219  12.432   9.283  0.7234 -0.2087  0.5916
  295MOL0     C39713   1.350  12.506   9.267 -0.0882  0.1398  0.6640
  295MOL0     O39714   1.440  12.508   9.377 -0.5607  0.3771 -0.0264
  295MOL0     C39715   1.523  12.623   9.387 -0.6868 -0.0868  0.1980
  295MOL0     C39716   1.468  12.755   9.393 -0.1208  0.7584 -0.9181
  295MOL0     C39717   1.536  12.867   9.432 -0.3170  0.2172 -0.6172
  295MOL0     C39718   1.452  12.994   9.439  0.1390 -0.7353 -0.2104
  295MOL0     C39719   1.678  12.863   9.442 -0.5342 -0.8350 -0.1028
  295MOL0     C39720   1.769  12.978   9.483 -0.3672 -0.1677 -0.8481
  295MOL0     O39721   1.706  13.084   9.531 -0.5705 -0.0096  0.5097
  295MOL0     C39722   1.767  13.203   9.544 -0.3538 -0.2173 -0.0820
  295MOL0     C39723   1.852  13.225   9.653 -0.1744  0.6336  0.2846
  295MOL0     C39724   1.917  13.343   9.658  0.7435  0.3292 -0.5950
  295MOL0     C39725   1.901  13.442   9.564  0.2663  0.3712  0.7057
  295MOL0     O39726   1.981  13.555   9.559  0.1519 -0.2754 -0.1654
  295MOL0     C39727   2.108  13.559   9.623 -0.3260 -0.4215  0.6699
  295MOL0     C39728   2.170  13.697   9.592  0.4708 -1.0120  0.2597
  295MOL0     C39729   2.307  13.699   9.658 -0.2010  0.4850  0.2346
  295MOL0     C39730   2.380  13.836   9.669  0.3720 -0.1051  0.1179
  295MOL0     C39731   2.319  13.945   9.756  0.2908  0.7992 -0.3138
  295MOL0     C39732   2.381  13.941   9.888 -0.0403 -0.1930  0.2041
  295MOL0     C39733   2.504  14.027   9.887 -0.0694 -0.1369 -0.2448
  295MOL0     C39734   2.587  13.983  10.009 -0.5099  0.7544  0.7168
  295MOL0    Cl39735   2.506  13.984  10.170 -0.0754  0.1924  0.0817
  295MOL0     C39736   1.812  13.422   9.454 -0.5831  0.9264 -0.4286
  295MOL0     C39737   1.747  13.300   9.439 -0.5425  0.0772 -0.4399
  295MOL0     O39738   1.896  12.968   9.475 -0.8530 -0.0731  0.0178
  295MOL0     C39739   1.736  12.741   9.407 -0.0340 -0.0233  1.3373
  295MOL0     C39740   1.663  12.623   9.382  0.4149  0.4021  0.0101
  295MOL0     N39741   0.792  12.544   9.479 -0.0748 -0.8819  0.4019
  295MOL0     N39742   0.720  12.550   9.584  0.3795 -0.0579 -0.0841
  295MOL0     C39743   0.239  11.515   9.387 -0.4126  0.9752  0.4258
  295MOL0     C39744   0.219  11.398   9.321 -0.2821  0.4174 -0.0694
  295MOL0     C39745   0.302  10.980   9.181 -0.9592 -0.5737 -1.5910
  295MOL0     C39746   0.169  10.942   9.155 -0.2683  0.0185  0.9496
  295MOL0     C39747   0.150  10.822   9.083  0.7770  0.6636 -0.4107
  295MOL0     C39748   0.261  10.761   9.025 -0.3093  0.2867 -0.6236
  295MOL0     O39749   0.219  10.655   8.948  0.0518 -0.3990  0.5614
  295MOL0     C39750   0.318  10.609   8.850 -0.7370 -0.0758 -0.4463
  295MOL0     C39751   0.361  10.462   8.892 -0.6782  0.0319  0.6816
  295MOL0     C39752   0.257  10.358   8.916 -0.6645 -0.0678 -0.4776
  295MOL0     C39753   0.314  10.217   8.895  0.1688 -0.4622  0.2473
  295MOL0     C39754   0.226  10.110   8.942  0.1097 -0.5268  0.1707
  295MOL0     C39755   0.170  10.005   8.959 -0.1696  0.5344  1.4356
  295MOL0     C39756   0.392  10.794   9.061  1.2729 -0.3193 -0.5742
  295MOL0     C39757   0.414  10.913   9.138  0.3107 -0.7280  0.0554
  295MOL0     H39758   0.267  11.176   9.559 -2.3614 -1.1671 -3.9053
  295MOL0     H39759   0.292  11.385   9.696  0.8863 -1.7111 -0.6793
  295MOL0     H39760   0.346  11.605   9.768  0.5071  0.5045  0.0714
  295MOL0     H39761   0.465  11.634   9.658  0.7502  2.2637  3.8016
  295MOL0     H39762   0.262  11.832   9.759 -0.4031  1.4943 -1.5736
  295MOL0     H39763   0.438  11.828   9.787 -0.0081 -2.2332  1.4489
  295MOL0     H39764   0.479  11.863   9.530  1.0749  1.7615 -0.3243
  295MOL0     H39765   0.304  11.892   9.524 -1.1394 -0.7639  2.6284
  295MOL0     H39766   0.410  12.101   9.528  1.2288 -1.4317 -0.4781
  295MOL0     H39767   0.319  12.072   9.675 -0.8165  0.0129 -1.0417
  295MOL0     H39768   0.534  12.041   9.802  0.1001 -1.1033 -0.5554
  295MOL0     H39769   0.618  12.035   9.653  0.1731  1.2382 -0.4137
  295MOL0     H39770   0.585  12.269   9.600  1.3031  0.9343  0.6620
  295MOL0     H39771   0.453  12.286   9.718 -0.2262  0.4071  0.0382
  295MOL0     H39772   0.629  12.250   9.909  1.9291  0.6106  1.3687
  295MOL0     H39773   0.751  12.222   9.787  2.2363  1.8152  2.4744
  295MOL0     H39774   0.764  12.432   9.887  1.8634 -0.8517 -0.1711
  295MOL0     H39775   0.614  12.494   9.802  1.7153  2.4055 -2.9103
  295MOL0     H39776   0.941  12.327   9.673  3.3789  2.9982  1.1369
  295MOL0     H39777   1.008  12.289   9.420 -0.7836 -0.5916 -1.0064
  295MOL0     H39778   0.960  12.408   9.307  0.5192  0.6873 -0.2351
  295MOL0     H39779   1.189  12.457   9.500  1.8261 -0.6559 -1.4313
  295MOL0     H39780   1.114  12.574   9.385 -1.6178 -0.5084 -2.4641
  295MOL0     H39781   1.153  12.450   9.198  1.8929  1.2855 -0.0506
  295MOL0     H39782   1.232  12.323   9.290 -1.1962 -0.7224 -2.3385
  295MOL0     H39783   1.326  12.606   9.230 -2.9935 -0.0512  1.7843
  295MOL0     H39784   1.397  12.456   9.182 -1.9847 -0.5863 -0.0065
  295MOL0     H39785   1.360  12.764   9.386 -0.3546  1.6705  2.1299
  295MOL0     H39786   1.490  13.077   9.379  0.9237 -1.4153 -0.6705
  295MOL0     H39787   1.355  12.975   9.391  0.6837  1.1273 -2.2244
  295MOL0     H39788   1.429  13.035   9.538 -0.6755  1.7887 -1.3716
  295MOL0     H39789   1.876  13.146   9.723 -2.1373 -2.8979 -2.7317
  295MOL0     H39790   1.997  13.333   9.731  0.7546  0.4878 -0.5850
  295MOL0     H39791   2.094  13.534   9.729  1.6635 -3.3791  0.3462
  295MOL0     H39792   2.182  13.484   9.594  1.9621  2.5108 -1.7549
  295MOL0     H39793   2.176  13.716   9.485  0.5056  0.6773  0.5479
  295MOL0     H39794   2.107  13.779   9.628  2.5014  1.6210 -1.8166
  295MOL0     H39795   2.359  13.621   9.602  2.5030  1.0090  1.8358
  295MOL0     H39796   2.288  13.676   9.763 -2.2570  1.2663  0.0979
  295MOL0     H39797   2.483  13.812   9.697  2.1112 -0.6646 -5.4067
  295MOL0     H39798   2.408  13.868   9.567  2.6015 -4.9881 -1.0861
  295MOL0     H39799   2.219  13.907   9.779  1.1614 -1.5849 -0.2329
  295MOL0     H39800   2.297  14.040   9.707 -1.0380 -0.5530 -2.5359
  295MOL0     H39801   2.301  13.972   9.957  0.2196  1.9469 -0.3839
  295MOL0     H39802   2.406  13.840   9.922 -0.6117  0.6302  3.5095
  295MOL0     H39803   2.469  14.126   9.920 -1.8975 -1.7522  3.1907
  295MOL0     H39804   2.550  14.024   9.788  0.1382 -1.7508 -0.1177
  295MOL0     H39805   2.665  14.059  10.001 -1.2909  1.3685 -3.4616
  295MOL0     H39806   2.628  13.885   9.985  2.1277  2.3243 -1.9117
  295MOL0     H39807   1.794  13.497   9.378 -4.0143  0.5675 -0.1486
  295MOL0     H39808   1.692  13.280   9.347  0.2942  0.6839 -1.0811
  295MOL0     H39809   1.844  12.737   9.403 -0.0893 -2.3931 -1.8253
  295MOL0     H39810   1.721  12.531   9.376  2.5853  1.5855  1.4699
  295MOL0     H39811   0.249  11.601   9.321  3.3705  0.0188 -0.4991
  295MOL0     H39812   0.210  11.383   9.213 -2.8314  0.5534  0.0614
  295MOL0     H39813   0.083  10.992   9.196 -0.8180  1.1668 -1.4327
  295MOL0     H39814   0.052  10.785   9.054  1.2181 -0.0072 -1.1029
  295MOL0     H39815   0.265  10.599   8.754 -1.1118 -0.4605 -0.2031
  295MOL0     H39816   0.408  10.670   8.842 -0.9327  0.0610 -2.0373
  295MOL0     H39817   0.426  10.471   8.980 -0.9645  2.4510  0.7243
  295MOL0     H39818   0.414  10.412   8.810 -0.2907 -0.2429  1.0971
  295MOL0     H39819   0.179  10.356   8.839 -0.6918 -0.0259 -0.4513
  295MOL0     H39820   0.211  10.384   9.011 -1.1092  0.7781 -0.9073
  295MOL0     H39821   0.410  10.200   8.944  0.9075 -3.1643 -1.9114
  295MOL0     H39822   0.333  10.202   8.789  3.2398 -3.0911  1.0091
  295MOL0     H39823   0.129   9.907   8.970 -0.0194  0.3339  0.3363
  295MOL0     H39824   0.483  10.744   9.030  1.3954 -0.5583  0.1490
  295MOL0     H39825   0.517  10.943   9.156  0.1949 -0.0170 -0.4185
  296MOL0     O39826   1.331   1.315  10.094  0.5293 -0.0459  1.3101
  296MOL0     C39827   1.276   1.421  10.128  0.3871  0.2605  0.9302
  296MOL0     O39828   1.207   1.442  10.241 -0.0311 -0.2172  0.8774
  296MOL0     C39829   1.213   1.334  10.327  0.8981  0.1820 -1.0186
  296MOL0     C39830   1.285   1.347  10.450 -0.6550  0.0341 -0.3410
  296MOL0     C39831   1.289   1.236  10.539 -0.2669 -0.2014 -0.1089
  296MOL0     C39832   1.226   1.113  10.504 -0.0924 -0.6898  0.4606
  296MOL0     O39833   1.218   0.988  10.557 -0.0247  0.0452 -0.2029
  296MOL0     C39834   1.248   0.947  10.690  0.4897  0.1113 -0.8179
  296MOL0     C39835   1.217   0.797  10.713  0.4590  0.2101  0.3544
  296MOL0     C39836   1.272   0.691  10.617 -0.1672 -0.1066  0.2784
  296MOL0     C39837   1.422   0.682  10.617 -1.1780 -0.3673  0.0624
  296MOL0     C39838   1.489   0.636  10.751  0.7506  0.1202  0.7550
  296MOL0     C39839   1.644   0.600  10.729  0.2193  0.6809  0.4489
  296MOL0     C39840   1.708   0.562  10.863 -0.0243  0.0877 -0.0111
  296MOL0     C39841   1.848   0.511  10.831 -0.9089 -0.7663  0.4442
  296MOL0     N39842   1.945   0.595  10.767  0.8375  0.2788 -0.3377
  296MOL0     C39843   2.043   0.670  10.821 -1.0300  0.1339  0.0498
  296MOL0     C39844   2.104   0.742  10.725  1.3818  0.3637 -0.2219
  296MOL0     C39845   2.234   0.810  10.735 -0.5495  0.0180 -0.0634
  296MOL0     C39846   2.262   0.865  10.877 -0.4281  0.3907 -0.3023
  296MOL0     C39847   2.163   0.963  10.941  0.1903 -0.1377  0.0935
  296MOL0     C39848   2.203   0.987  11.089  0.8149  0.0690  0.0942
  296MOL0     O39849   2.179   0.877  11.186  0.5050  0.2544 -0.4098
  296MOL0     C39850   2.078   0.786  11.184 -0.1379  0.7483 -0.7872
  296MOL0     C39851   1.953   0.840  11.170 -0.8955 -0.3342  0.3731
  296MOL0     C39852   1.832   0.776  11.182  0.2552  0.3110  0.1947
  296MOL0     C39853   1.703   0.856  11.158  0.5767  0.9488 -0.0992
  296MOL0     C39854   1.832   0.639  11.211  0.5319 -0.5577  0.0379
  296MOL0     C39855   1.715   0.551  11.210 -0.5959 -0.4091 -0.7660
  296MOL0     O39856   1.594   0.592  11.267 -0.6878 -0.1216 -0.3101
  296MOL0     C39857   1.512   0.494  11.284  0.6607  0.2113 -0.5542
  296MOL0     C39858   1.495   0.443  11.414 -0.5705 -1.0770 -0.7087
  296MOL0     C39859   1.419   0.332  11.439  0.8269 -0.4741  0.8674
  296MOL0     C39860   1.358   0.266  11.335  0.9740  0.3384 -0.7058
  296MOL0     O39861   1.290   0.152  11.338 -0.0566 -0.5967  0.0674
  296MOL0     C39862   1.357   0.036  11.388 -0.0442  1.1769  0.1569
  296MOL0     C39863   1.274  -0.082  11.417  0.3910 -0.0568 -0.2681
  296MOL0     C39864   1.187  -0.059  11.535 -0.1400  0.3541  0.3330
  296MOL0     C39865   1.046  -0.070  11.504  0.3702  0.1298 -0.3860
  296MOL0     C39866   0.945   0.013  11.585 -0.4191  0.4917 -0.1282
  296MOL0     C39867   0.904   0.149  11.523  0.9067 -0.6740 -0.5794
  296MOL0     C39868   0.770   0.149  11.470  0.2159  0.4474  0.1830
  296MOL0     C39869   0.754   0.268  11.378 -0.3876  0.2860  0.4608
  296MOL0    Cl39870   0.727   0.425  11.480  0.0084 -0.1783 -0.2029
  296MOL0     C39871   1.355   0.335  11.210  0.5329 -0.2931  0.5386
  296MOL0     C39872   1.424   0.447  11.183  0.2074 -0.0966 -0.5212
  296MOL0     O39873   1.739   0.434  11.167  0.5085 -0.1130 -0.8500
  296MOL0     C39874   1.965   0.577  11.223 -0.6481  0.0147  0.6315
  296MOL0     C39875   2.081   0.650  11.217 -0.1338  0.1632 -0.2517
  296MOL0     N39876   2.046   0.700  10.607  0.3373  0.3099 -0.3034
  296MOL0     N39877   1.939   0.617  10.637 -0.0172  0.3830  0.0446
  296MOL0     C39878   1.158   1.109  10.384 -0.0005 -1.7899  0.4098
  296MOL0     C39879   1.149   1.213  10.300 -0.6240 -0.8077  0.2229
  296MOL0     C39880   1.295   1.532  10.035  0.1481  0.5913  0.1822
  296MOL0     C39881   1.392   1.535   9.920  1.2900  0.4414 -0.7721
  296MOL0     C39882   1.397   1.653   9.841 -0.5433  0.3611  0.2897
  296MOL0     C39883   1.319   1.769   9.876  0.5597  0.2045 -0.4814
  296MOL0     O39884   1.325   1.893   9.815 -0.0283 -0.8251  0.6793
  296MOL0     C39885   1.428   1.912   9.718  0.1570  1.4368 -0.0839
  296MOL0     C39886   1.376   1.866   9.580  0.2493  0.0750  0.8480
  296MOL0     C39887   1.270   1.979   9.528 -0.0001 -0.9276  0.6123
  296MOL0     C39888   1.313   2.060   9.408  0.4733  0.2905  1.0812
  296MOL0     C39889   1.426   2.145   9.442  0.3822  0.2879  0.2015
  296MOL0     C39890   1.526   2.203   9.486  0.4307 -0.4380  0.3006
  296MOL0     C39891   1.223   1.758   9.980  1.0515  0.5886  0.5483
  296MOL0     C39892   1.210   1.640  10.054 -0.1063  0.1786 -0.1192
  296MOL0     H39893   1.317   1.447  10.479 -0.1860  0.1268 -1.1325
  296MOL0     H39894   1.335   1.241  10.637 -1.2628 -1.3122  0.4300
  296MOL0     H39895   1.353   0.970  10.716 -0.0042  1.4909  0.1216
  296MOL0     H39896   1.184   1.011  10.751 -1.3619 -0.4576 -2.0851
  296MOL0     H39897   1.245   0.770  10.816  3.0553  2.4801  0.3637
  296MOL0     H39898   1.108   0.800  10.704  0.3945 -1.9811 -0.1059
  296MOL0     H39899   1.229   0.599  10.657  1.5507  0.2993  3.3502
  296MOL0     H39900   1.254   0.707  10.510 -0.5855 -0.9262  0.2145
  296MOL0     H39901   1.456   0.610  10.542 -0.3699 -1.4429  1.4036
  296MOL0     H39902   1.471   0.775  10.586  1.5759 -2.7027 -3.5354
  296MOL0     H39903   1.478   0.723  10.816  0.5542 -0.8176  1.9933
  296MOL0     H39904   1.435   0.547  10.783  1.2915 -0.6883 -0.4846
  296MOL0     H39905   1.637   0.522  10.653 -1.8809  1.7116 -0.4920
  296MOL0     H39906   1.689   0.693  10.692 -1.3590  1.3360  0.1007
  296MOL0     H39907   1.706   0.651  10.926 -1.4686 -0.9048  1.4256
  296MOL0     H39908   1.656   0.487  10.924  0.2022  0.5454  0.7488
  296MOL0     H39909   1.840   0.414  10.781 -1.2628 -0.2534 -0.5301
  296MOL0     H39910   1.900   0.489  10.925 -2.1021  1.2785  1.6634
  296MOL0     H39911   2.053   0.663  10.929  4.0029 -0.4020 -0.2293
  296MOL0     H39912   2.308   0.731  10.716 -1.5539 -1.3358  1.3452
  296MOL0     H39913   2.236   0.892  10.663  0.9553 -0.2328 -0.3404
  296MOL0     H39914   2.363   0.908  10.879  0.9710 -2.5255  2.6374
  296MOL0     H39915   2.280   0.774  10.935  1.2403 -1.0607 -2.9165
  296MOL0     H39916   2.061   0.924  10.935  1.4790 -3.6723 -1.0429
  296MOL0     H39917   2.167   1.058  10.886  0.3410 -0.8723 -1.1942
  296MOL0     H39918   2.142   1.071  11.126 -1.1316 -1.0898 -0.3237
  296MOL0     H39919   2.308   1.017  11.099 -0.3401  4.0077  2.8339
  296MOL0     H39920   1.942   0.945  11.145 -0.8674 -0.3801  0.1693
  296MOL0     H39921   1.619   0.796  11.122  2.0743 -0.3671 -1.4909
  296MOL0     H39922   1.673   0.905  11.252 -3.5386  0.2217 -0.8354
  296MOL0     H39923   1.725   0.930  11.081  0.4905  1.0884  0.0097
  296MOL0     H39924   1.545   0.497  11.494 -0.7767 -0.6988 -0.8301
  296MOL0     H39925   1.415   0.287  11.538  0.2765 -0.1589  0.9883
  296MOL0     H39926   1.428  -0.003  11.315 -2.6072 -2.2985 -0.7570
  296MOL0     H39927   1.414   0.063  11.478 -2.3023  3.1883  1.0884
  296MOL0     H39928   1.229  -0.110  11.322 -0.5341  0.7585 -0.0844
  296MOL0     H39929   1.350  -0.159  11.431  0.8495 -0.1498 -2.8284
  296MOL0     H39930   1.213   0.037  11.581  2.4333 -0.5342  0.8819
  296MOL0     H39931   1.216  -0.132  11.611  0.2797 -0.9377 -1.0231
  296MOL0     H39932   1.034  -0.047  11.398 -2.1964 -0.0775 -0.2037
  296MOL0     H39933   1.018  -0.174  11.524  2.6931 -0.0842  2.5500
  296MOL0     H39934   0.981   0.022  11.688  1.8157 -0.4327 -0.7598
  296MOL0     H39935   0.855  -0.047  11.596  1.3663 -2.3133  0.1340
  296MOL0     H39936   0.912   0.214  11.611 -1.0246 -2.1798  0.8098
  296MOL0     H39937   0.967   0.172  11.437  1.7698  0.5705  0.3443
  296MOL0     H39938   0.692   0.143  11.547 -1.1431  0.5804 -1.1463
  296MOL0     H39939   0.762   0.064  11.403 -0.5103  0.9487 -0.3806
  296MOL0     H39940   0.681   0.243  11.301  1.9687 -3.2069 -0.9095
  296MOL0     H39941   0.837   0.295  11.312 -2.9756  0.6150 -2.9207
  296MOL0     H39942   1.301   0.286  11.129  2.9440  0.9554 -2.0044
  296MOL0     H39943   1.421   0.492  11.084  1.2966 -1.5126 -1.2424
  296MOL0     H39944   1.970   0.471  11.243 -1.0343  0.3487  2.7971
  296MOL0     H39945   2.172   0.591  11.225  1.0771  1.8694 -0.8708
  296MOL0     H39946   1.139   1.011  10.342  0.2559 -1.4752 -0.4687
  296MOL0     H39947   1.089   1.199  10.210 -1.9525  1.1700  0.7395
  296MOL0     H39948   1.457   1.452   9.895  0.6243  0.4929 -2.8666
  296MOL0     H39949   1.462   1.643   9.755 -3.1235 -4.1086 -1.5083
  296MOL0     H39950   1.440   2.021   9.709  3.7744  1.4874  2.7155
  296MOL0     H39951   1.526   1.869   9.743  0.1615 -0.0428 -2.3720
  296MOL0     H39952   1.339   1.764   9.570 -0.1437  0.4588 -3.9312
  296MOL0     H39953   1.465   1.867   9.517  1.0463 -1.5722  1.8861
  296MOL0     H39954   1.244   2.052   9.605  3.8420  0.7159  0.5653
  296MOL0     H39955   1.185   1.917   9.497 -0.2079 -0.8794  1.0856
  296MOL0     H39956   1.227   2.115   9.371  2.1615  1.3753 -1.5288
  296MOL0     H39957   1.338   1.994   9.325 -1.3960 -0.3826  1.0144
  296MOL0     H39958   1.608   2.254   9.532 -0.1414 -0.6288  1.5905
  296MOL0     H39959   1.155   1.843   9.975  0.4830  0.0663 -1.6861
  296MOL0     H39960   1.135   1.646  10.133  2.1835  2.7878  2.0800
  297MOL0     O39961   3.973   2.054   5.140 -0.1954  0.1707  0.3223
  297MOL0     C39962   3.947   2.109   5.035  0.6613  0.3495  0.5756
  297MOL0     O39963   4.043   2.180   4.961 -0.0867  0.0742 -0.7207
  297MOL0     C39964   4.166   2.193   5.017  0.1298  0.8494 -0.2064
  297MOL0     C39965   4.202   2.326   5.035 -0.0920 -0.5419  0.4660
  297MOL0     C39966   4.318   2.360   5.102  1.0562 -0.0688  0.1414
  297MOL0     C39967   4.399   2.259   5.151 -0.3014  0.6173 -0.1173
  297MOL0     O39968   4.515   2.311   5.217 -0.1110 -0.0644 -0.0739
  297MOL0     C39969   4.612   2.213   5.246 -0.3242  0.0507 -0.3682
  297MOL0     C39970   4.753   2.277   5.265 -0.2683 -0.1778  0.2381
  297MOL0     C39971   4.764   2.370   5.391  0.0572  0.3081 -0.4278
  297MOL0     C39972   4.894   2.452   5.414 -0.0826  0.3329 -0.6584
  297MOL0     C39973   4.876   2.523   5.548 -1.1324 -0.1089 -0.1846
  297MOL0     C39974   5.001   2.586   5.590 -0.7662 -1.1216 -0.3759
  297MOL0     C39975   4.971   2.711   5.684 -0.8805  0.6248 -0.3448
  297MOL0     C39976   4.891   2.831   5.619  0.2716 -0.7207 -0.4288
  297MOL0     N39977   4.968   2.891   5.513  0.0064  0.0268 -0.3102
  297MOL0     C39978   4.986   2.852   5.379 -0.3236 -1.0122  0.7819
  297MOL0     C39979   5.059   2.948   5.327 -0.1136 -0.0234  0.5564
  297MOL0     C39980   5.117   2.948   5.192 -0.0248  0.6358  0.2559
  297MOL0     C39981   5.239   2.852   5.176  0.4806 -0.0156  0.5832
  297MOL0     C39982   5.329   2.888   5.046  0.1203 -0.4307  1.2337
  297MOL0     C39983   5.452   2.797   5.006  1.5398  0.9768 -0.8963
  297MOL0     O39984   5.524   2.841   4.891 -0.0364 -0.4057  0.1358
  297MOL0     C39985   5.501   2.785   4.766 -0.2200  1.0956 -1.5160
  297MOL0     C39986   5.604   2.802   4.672  0.2127 -0.3793  0.2522
  297MOL0     C39987   5.581   2.753   4.543  0.8513  0.2935 -0.9472
  297MOL0     C39988   5.703   2.759   4.453  0.8617  0.4448  0.6520
  297MOL0     C39989   5.462   2.689   4.511 -0.5074 -0.0561  1.0284
  297MOL0     C39990   5.433   2.637   4.374  0.3611  0.8324  0.6938
  297MOL0     O39991   5.405   2.718   4.262 -0.9097 -0.2916 -0.3509
  297MOL0     C39992   5.380   2.849   4.290  0.3809  0.1754 -0.7463
  297MOL0     C39993   5.462   2.945   4.240  0.1727 -0.9235 -0.0760
  297MOL0     C39994   5.442   3.084   4.250  0.2741  0.2004  0.0724
  297MOL0     C39995   5.328   3.132   4.304  0.4696 -0.2727 -1.0017
  297MOL0     O39996   5.306   3.266   4.321  0.1199 -0.3159  0.6476
  297MOL0     C39997   5.195   3.307   4.390  0.0198 -1.2028  0.9480
  297MOL0     C39998   5.158   3.454   4.346 -0.2262 -0.3036  1.1294
  297MOL0     C39999   5.250   3.563   4.388 -0.5114 -0.2775 -0.0086
  297MOL0     C40000   5.306   3.535   4.534  0.2303 -0.1105  0.0444
  297MOL0     C40001   5.356   3.665   4.608  0.2028  0.3530 -0.5390
  297MOL0     C40002   5.475   3.737   4.545  0.7833  0.7915 -0.3623
  297MOL0     C40003   5.498   3.870   4.619 -0.2893  0.3316 -0.8205
  297MOL0     C40004   5.598   3.960   4.547  0.0999  0.5093  0.9247
  297MOL0    Cl40005   5.650   4.101   4.641  0.5692 -0.1542  0.0034
  297MOL0     C40006   5.232   3.028   4.357 -0.3141 -0.6429  0.2880
  297MOL0     C40007   5.255   2.886   4.344  0.9805 -0.0433 -0.5680
  297MOL0     O40008   5.463   2.523   4.365 -0.9620  0.9822  1.0135
  297MOL0     C40009   5.362   2.687   4.603  0.6363 -0.6688  0.5298
  297MOL0     C40010   5.380   2.735   4.725 -0.0418  0.4679 -0.4837
  297MOL0     N40011   5.088   3.041   5.423 -0.0300 -0.3265 -0.2071
  297MOL0     N40012   5.036   3.006   5.537 -1.2096  0.5020  0.3680
  297MOL0     C40013   4.360   2.120   5.152 -0.0323  0.1399 -0.1272
  297MOL0     C40014   4.239   2.087   5.092  0.3155 -0.0111  0.4845
  297MOL0     C40015   3.813   2.101   4.976 -0.4415 -1.4957  0.5581
  297MOL0     C40016   3.717   2.023   5.038  0.1302  0.0770  0.4750
  297MOL0     C40017   3.596   1.993   4.977 -0.0836  0.1821 -0.1488
  297MOL0     C40018   3.568   2.051   4.853  0.8374 -0.0200 -0.9419
  297MOL0     O40019   3.445   2.014   4.795 -0.5502 -1.1001  0.0972
  297MOL0     C40020   3.448   1.970   4.669  0.2988  0.2245  0.2816
  297MOL0     C40021   3.322   1.887   4.632 -0.3876 -0.3976  0.1410
  297MOL0     C40022   3.314   1.872   4.478  0.0367  0.4677 -0.8294
  297MOL0     C40023   3.203   1.793   4.424  0.4795  0.3071 -0.0854
  297MOL0     C40024   3.205   1.656   4.480  0.5310  0.3463  0.6316
  297MOL0     C40025   3.212   1.539   4.525 -0.1334 -0.1276  0.1266
  297MOL0     C40026   3.664   2.128   4.786 -0.4052  0.0327 -0.4364
  297MOL0     C40027   3.787   2.154   4.847  0.7848 -0.8995 -0.4639
  297MOL0     H40028   4.144   2.401   4.982  0.5569  0.5395  1.2264
  297MOL0     H40029   4.342   2.463   5.126  2.6697 -0.2278 -0.6922
  297MOL0     H40030   4.580   2.157   5.335  0.7290  0.7359  0.4662
  297MOL0     H40031   4.632   2.136   5.171 -0.9149 -0.9391  0.4615
  297MOL0     H40032   4.822   2.195   5.286 -2.5110 -1.3524  4.1172
  297MOL0     H40033   4.770   2.338   5.176  2.6860 -0.0015  0.8385
  297MOL0     H40034   4.699   2.453   5.363 -0.3642 -0.4799 -1.9249
  297MOL0     H40035   4.722   2.329   5.483  0.5981  1.8473  0.5252
  297MOL0     H40036   4.981   2.386   5.412  0.2108  0.4836  2.4843
  297MOL0     H40037   4.898   2.536   5.343 -3.5002  2.7334  1.6528
  297MOL0     H40038   4.799   2.599   5.534  1.3492  3.0946  1.9484
  297MOL0     H40039   4.847   2.464   5.635 -3.0737  1.1748  0.0944
  297MOL0     H40040   5.067   2.513   5.638  0.5674  1.4262  1.9732
  297MOL0     H40041   5.059   2.627   5.508 -1.0302  0.1023  0.0334
  297MOL0     H40042   4.900   2.674   5.758 -0.3220 -1.9073 -0.9571
  297MOL0     H40043   5.065   2.747   5.726 -0.4087  1.0872 -1.7286
  297MOL0     H40044   4.881   2.905   5.699  0.7844 -0.6438 -0.4373
  297MOL0     H40045   4.798   2.809   5.566 -0.1321  1.5604 -0.7677
  297MOL0     H40046   4.951   2.755   5.344 -1.2809 -1.4512  2.7905
  297MOL0     H40047   5.044   2.922   5.115 -0.5647  0.7346  0.7253
  297MOL0     H40048   5.139   3.051   5.162  1.0685  0.1481 -0.7077
  297MOL0     H40049   5.197   2.752   5.173 -2.4700  1.1502 -0.4025
  297MOL0     H40050   5.305   2.868   5.262 -0.2993 -1.0572  1.3958
  297MOL0     H40051   5.357   2.994   5.053 -3.0713  0.6915 -0.9349
  297MOL0     H40052   5.266   2.873   4.958  0.2075 -0.4744  1.1786
  297MOL0     H40053   5.427   2.690   5.009  1.0830  1.1109  1.1254
  297MOL0     H40054   5.527   2.790   5.086  2.0602 -1.4000 -1.4981
  297MOL0     H40055   5.692   2.856   4.704  2.4721 -2.0489 -2.5796
  297MOL0     H40056   5.787   2.702   4.494  0.5485 -0.4878  0.0168
  297MOL0     H40057   5.686   2.730   4.349  1.7503  3.0042 -0.2734
  297MOL0     H40058   5.735   2.864   4.450 -0.2619  0.7782 -2.1294
  297MOL0     H40059   5.548   2.903   4.189  0.9857 -1.3606  1.5785
  297MOL0     H40060   5.507   3.164   4.217 -1.1652  2.8597  3.1544
  297MOL0     H40061   5.100   3.253   4.381 -2.7244  2.6747  3.4194
  297MOL0     H40062   5.225   3.303   4.495  4.6211 -4.6992 -0.1753
  297MOL0     H40063   5.153   3.456   4.237 -0.8943  0.4901  1.1641
  297MOL0     H40064   5.056   3.472   4.382 -1.8205 -0.0589 -3.0343
  297MOL0     H40065   5.184   3.651   4.390 -0.0912  0.0447 -0.0555
  297MOL0     H40066   5.323   3.579   4.308 -0.4099 -1.5615 -0.1931
  297MOL0     H40067   5.227   3.487   4.592 -0.4639 -1.7606 -2.1242
  297MOL0     H40068   5.397   3.478   4.512  0.1060  0.4571 -2.1825
  297MOL0     H40069   5.392   3.641   4.709 -0.3187  2.2042  0.1379
  297MOL0     H40070   5.276   3.735   4.632  0.4139 -0.1815  2.1285
  297MOL0     H40071   5.557   3.668   4.562 -0.6411 -0.2067  3.2549
  297MOL0     H40072   5.472   3.752   4.436 -3.4931  0.7400 -0.4332
  297MOL0     H40073   5.530   3.854   4.722 -0.0424 -1.0930 -1.0956
  297MOL0     H40074   5.408   3.932   4.626 -0.9973 -0.8785  2.3672
  297MOL0     H40075   5.543   3.995   4.459 -0.2613  0.9378  1.3209
  297MOL0     H40076   5.684   3.896   4.523 -0.4355 -0.0117  0.3521
  297MOL0     H40077   5.141   3.054   4.409 -1.2507  0.4244 -1.7320
  297MOL0     H40078   5.186   2.808   4.372  0.4319  0.8267  0.5881
  297MOL0     H40079   5.273   2.632   4.574 -1.7925  1.2160  3.7529
  297MOL0     H40080   5.297   2.727   4.795 -0.9063  0.7036 -1.4579
  297MOL0     H40081   4.413   2.043   5.206 -3.3801 -3.2577 -1.2239
  297MOL0     H40082   4.188   1.992   5.076 -1.3132  0.7874  0.6876
  297MOL0     H40083   3.743   1.973   5.131  0.0769 -0.0417  0.4251
  297MOL0     H40084   3.524   1.928   5.025  1.6962 -1.6634  0.1360
  297MOL0     H40085   3.469   2.050   4.597  2.8486  0.2410  0.9265
  297MOL0     H40086   3.536   1.908   4.649  0.3979  0.5863 -0.4452
  297MOL0     H40087   3.227   1.932   4.663 -1.1143  0.4071 -2.9080
  297MOL0     H40088   3.340   1.798   4.692 -1.3816  0.5834  1.9753
  297MOL0     H40089   3.412   1.834   4.449  0.1788  1.0656 -1.1467
  297MOL0     H40090   3.314   1.972   4.434 -0.2369  1.7429  1.8665
  297MOL0     H40091   3.200   1.798   4.315  0.6660  4.0941 -0.0320
  297MOL0     H40092   3.107   1.840   4.448  0.7110  1.8975 -2.0154
  297MOL0     H40093   3.228   1.437   4.555 -0.1926  0.0124  0.6484
  297MOL0     H40094   3.634   2.169   4.690 -0.5355 -1.0046 -0.8473
  297MOL0     H40095   3.863   2.218   4.804 -0.5939  1.7014  0.7865
  298MOL0     O40096   0.210   1.273  10.425  0.1198  0.8477 -1.0255
  298MOL0     C40097   0.219   1.365  10.501 -0.2916 -0.2956 -0.6210
  298MOL0     O40098   0.211   1.357  10.638  0.7225  0.7350  0.2301
  298MOL0     C40099   0.168   1.230  10.687 -0.0526 -0.5748 -0.0501
  298MOL0     C40100   0.254   1.122  10.696  0.3813 -0.0533  0.5628
  298MOL0     C40101   0.215   1.002  10.756 -0.9023  0.6603  0.0526
  298MOL0     C40102   0.094   0.981  10.814  0.3330 -0.2637 -0.8277
  298MOL0     O40103   0.075   0.865  10.883  0.1560  0.0940  0.0268
  298MOL0     C40104  -0.054   0.806  10.881 -1.2604  0.4503 -1.4310
  298MOL0     C40105  -0.035   0.667  10.948  0.6412  0.9848  0.2348
  298MOL0     C40106   0.045   0.667  11.078  0.3468 -0.1888  0.5299
  298MOL0     C40107   0.050   0.523  11.124  0.2799 -0.7430 -0.6620
  298MOL0     C40108   0.075   0.519  11.282 -0.5546 -0.5567 -0.7145
  298MOL0     C40109   0.075   0.375  11.339  0.7210 -0.3218 -0.1363
  298MOL0     C40110  -0.076   0.324  11.336  0.7333 -0.0823 -0.4911
  298MOL0     C40111  -0.076   0.194  11.416 -0.3195 -0.3327  0.6759
  298MOL0     N40112  -0.216   0.154  11.433  0.4678 -0.1074 -0.3043
  298MOL0     C40113  -0.260   0.072  11.539 -0.7295 -0.6381  0.0611
  298MOL0     C40114  -0.388   0.055  11.517  0.3438  1.2491  0.2742
  298MOL0     C40115  -0.472  -0.058  11.577 -0.6676  0.3929 -0.4903
  298MOL0     C40116  -0.449  -0.070  11.732 -0.3707  0.7988 -0.0486
  298MOL0     C40117  -0.344  -0.181  11.760 -0.0354  0.2490  0.5121
  298MOL0     C40118  -0.308  -0.177  11.914  0.3468 -0.5428 -0.2681
  298MOL0     O40119  -0.275  -0.310  11.948 -0.3315 -1.4117 -0.4823
  298MOL0     C40120  -0.209  -0.327  12.065  0.3534 -0.5536  0.1924
  298MOL0     C40121  -0.170  -0.223  12.147  0.0314 -0.2584 -0.5535
  298MOL0     C40122  -0.085  -0.239  12.260  0.1436 -0.4150 -0.0554
  298MOL0     C40123  -0.054  -0.111  12.333  0.1615 -0.6416  0.8528
  298MOL0     C40124  -0.037  -0.368  12.293 -0.7726 -0.3818  0.7236
  298MOL0     C40125   0.051  -0.391  12.401  0.1962  0.3795 -0.3033
  298MOL0     O40126   0.163  -0.313  12.410  0.0663 -0.5169  0.7448
  298MOL0     C40127   0.224  -0.302  12.523 -0.1952  0.1818  0.0390
  298MOL0     C40128   0.357  -0.352  12.518 -0.3442 -0.8881  0.9808
  298MOL0     C40129   0.436  -0.351  12.635 -0.1490 -0.3638 -0.5319
  298MOL0     C40130   0.378  -0.313  12.754  0.5014 -0.5771 -0.8559
  298MOL0     O40131   0.437  -0.327  12.876 -0.2971  0.3876 -0.5047
  298MOL0     C40132   0.481  -0.459  12.915 -0.1343  0.8287  0.0140
  298MOL0     C40133   0.365  -0.562  12.886  0.6035  0.1300 -0.6265
  298MOL0     C40134   0.238  -0.540  12.971 -0.6062 -0.0293  0.1716
  298MOL0     C40135   0.104  -0.593  12.914  0.9641  0.7471  0.7092
  298MOL0     C40136   0.092  -0.748  12.890 -1.1045 -0.4074  0.4231
  298MOL0     C40137  -0.027  -0.796  12.800  0.2090 -0.0564 -0.0520
  298MOL0     C40138  -0.006  -0.776  12.649 -0.9625  0.7579 -0.6698
  298MOL0     C40139  -0.127  -0.834  12.571 -0.3339  0.0461 -0.8021
  298MOL0    Cl40140  -0.177  -1.009  12.608 -0.3609 -0.0178 -0.1161
  298MOL0     C40141   0.244  -0.264  12.756  0.7278  0.1380 -0.5420
  298MOL0     C40142   0.169  -0.254  12.641  0.1596 -0.8379 -0.1988
  298MOL0     O40143   0.018  -0.469  12.485 -0.0106  0.3688  0.6864
  298MOL0     C40144  -0.085  -0.480  12.219 -0.2515  0.7678  0.0069
  298MOL0     C40145  -0.169  -0.458  12.107 -0.2949  0.7908 -0.1907
  298MOL0     N40146  -0.425   0.120  11.399 -0.4657 -0.0379 -0.5595
  298MOL0     N40147  -0.316   0.181  11.354  0.7499 -0.1308  1.1652
  298MOL0     C40148   0.002   1.098  10.804  0.0073 -0.4995  0.3696
  298MOL0     C40149   0.047   1.221  10.745  0.1125 -0.8557  0.7843
  298MOL0     C40150   0.208   1.500  10.453  0.1406  0.0856  0.0404
  298MOL0     C40151   0.249   1.539  10.323 -0.0825 -0.8362 -0.1117
  298MOL0     C40152   0.243   1.672  10.268  0.1525 -0.4379 -0.1376
  298MOL0     C40153   0.204   1.771  10.364  0.9141 -0.1768 -0.6490
  298MOL0     O40154   0.212   1.907  10.334  0.7475 -0.3745  0.0476
  298MOL0     C40155   0.111   1.937  10.228  0.3991 -0.3035 -0.9136
  298MOL0     C40156   0.054   2.076  10.249 -0.7613 -0.4622 -0.4149
  298MOL0     C40157  -0.016   2.108  10.377  0.7656  0.1208  0.4484
  298MOL0     C40158  -0.107   2.230  10.369  0.5018 -0.5443  0.3989
  298MOL0     C40159  -0.238   2.224  10.301  0.4565  0.9040  0.4420
  298MOL0     C40160  -0.341   2.186  10.250 -0.5540 -0.7993  0.5654
  298MOL0     C40161   0.164   1.730  10.493 -0.5094  0.0926 -0.0840
  298MOL0     C40162   0.150   1.598  10.534  0.0273 -0.0830  0.7956
  298MOL0     H40163   0.353   1.126  10.650  1.3761 -0.9045  2.5260
  298MOL0     H40164   0.286   0.920  10.758 -1.3325  0.2642 -0.4063
  298MOL0     H40165  -0.116   0.873  10.942 -0.2103 -1.4779  2.0493
  298MOL0     H40166  -0.097   0.792  10.782 -1.6043  0.0580 -1.2322
  298MOL0     H40167  -0.137   0.635  10.971  0.4755  0.2329 -1.4296
  298MOL0     H40168   0.006   0.600  10.872 -4.2407 -1.2222 -0.8429
  298MOL0     H40169   0.146   0.704  11.060 -0.4207  0.7331 -2.4850
  298MOL0     H40170  -0.017   0.727  11.147 -1.0423 -1.7798  0.7354
  298MOL0     H40171  -0.051   0.483  11.108  0.0979 -0.9961  0.9416
  298MOL0     H40172   0.119   0.464  11.063  0.0182 -1.3372 -0.3888
  298MOL0     H40173   0.169   0.567  11.308 -2.0522  0.4981  3.3620
  298MOL0     H40174  -0.006   0.577  11.327 -1.9570 -2.8199 -0.1666
  298MOL0     H40175   0.142   0.311  11.281  2.0361  0.8912  0.0009
  298MOL0     H40176   0.126   0.375  11.435 -2.4682 -2.0681  1.7464
  298MOL0     H40177  -0.156   0.389  11.373  2.6557  2.1313  0.0402
  298MOL0     H40178  -0.114   0.308  11.235 -1.8849  1.2231  0.2118
  298MOL0     H40179  -0.021   0.218  11.508  1.3037  2.5409 -0.8738
  298MOL0     H40180  -0.018   0.118  11.362 -1.3320 -0.5351 -0.1519
  298MOL0     H40181  -0.196   0.034  11.617 -1.3362  0.3515  1.0591
  298MOL0     H40182  -0.577  -0.028  11.573 -0.7910  0.1652  0.5960
  298MOL0     H40183  -0.431  -0.134  11.509 -0.6232 -0.4467  0.4553
  298MOL0     H40184  -0.538  -0.086  11.793  0.0756  1.8722  0.9300
  298MOL0     H40185  -0.412   0.028  11.765 -0.1597  0.4032  0.9075
  298MOL0     H40186  -0.256  -0.161  11.698  0.1175  1.9296  1.1936
  298MOL0     H40187  -0.397  -0.271  11.730  0.2411  0.8189 -1.8443
  298MOL0     H40188  -0.391  -0.144  11.977  0.3489 -1.0459  0.0071
  298MOL0     H40189  -0.220  -0.112  11.917  1.3459 -1.9001  1.4413
  298MOL0     H40190  -0.196  -0.119  12.129  1.4844  0.5503  1.5577
  298MOL0     H40191  -0.112  -0.023  12.303 -0.3717 -0.5539  2.0832
  298MOL0     H40192  -0.067  -0.125  12.441 -1.4038 -0.8185  0.6788
  298MOL0     H40193   0.048  -0.075  12.321 -0.3784  0.8371  0.4764
  298MOL0     H40194   0.407  -0.389  12.430  1.0832 -1.7364  2.1161
  298MOL0     H40195   0.533  -0.400  12.646 -1.0438 -1.6576  2.9857
  298MOL0     H40196   0.565  -0.479  12.849  0.1015  0.6008  0.3853
  298MOL0     H40197   0.496  -0.463  13.023 -1.3769 -3.1670  0.1796
  298MOL0     H40198   0.335  -0.566  12.781 -0.6259  0.9718 -0.3382
  298MOL0     H40199   0.410  -0.659  12.911  0.1509  0.0490 -0.1000
  298MOL0     H40200   0.212  -0.434  12.977 -0.6733 -0.0777  0.7366
  298MOL0     H40201   0.256  -0.583  13.070  0.4293 -0.7936 -0.3225
  298MOL0     H40202   0.015  -0.588  12.978 -1.1221  1.8941 -2.0826
  298MOL0     H40203   0.077  -0.545  12.819  0.1332 -0.5878  0.2414
  298MOL0     H40204   0.073  -0.797  12.986 -1.7390 -3.4393 -1.1085
  298MOL0     H40205   0.186  -0.790  12.854  0.6934  2.4396  1.4710
  298MOL0     H40206  -0.035  -0.902  12.825  0.8820  0.1939  1.3049
  298MOL0     H40207  -0.125  -0.752  12.821 -0.3794 -0.7276 -1.2932
  298MOL0     H40208   0.083  -0.831  12.615 -0.7873  1.4193 -1.2970
  298MOL0     H40209   0.020  -0.674  12.621 -2.4127  1.6692  1.1095
  298MOL0     H40210  -0.091  -0.823  12.468  0.0552  0.9152 -0.5791
  298MOL0     H40211  -0.213  -0.773  12.601  1.8083  2.3386  1.0997
  298MOL0     H40212   0.191  -0.248  12.849 -1.9723  1.5789 -2.1671
  298MOL0     H40213   0.071  -0.208  12.626  0.0137 -0.1519  2.3005
  298MOL0     H40214  -0.057  -0.577  12.261  1.8464  1.1661 -0.3512
  298MOL0     H40215  -0.212  -0.546  12.061 -1.5378  1.0840  0.3588
  298MOL0     H40216  -0.096   1.075  10.846 -1.5991 -0.0039 -2.7664
  298MOL0     H40217  -0.020   1.306  10.737  0.7549 -0.4256 -0.2314
  298MOL0     H40218   0.278   1.456  10.259 -1.3715 -0.4267 -1.2718
  298MOL0     H40219   0.268   1.703  10.167 -0.0061 -3.9061 -1.3766
  298MOL0     H40220   0.167   1.934  10.134  0.8487 -1.7413 -0.6231
  298MOL0     H40221   0.034   1.862  10.211  0.9937 -0.8889 -1.0604
  298MOL0     H40222  -0.010   2.083  10.161 -2.0686 -5.0165 -0.0671
  298MOL0     H40223   0.130   2.153  10.232  0.1452 -0.0986  4.0755
  298MOL0     H40224   0.048   2.108  10.466  2.1241  2.8482 -0.3831
  298MOL0     H40225  -0.076   2.018  10.392  1.9870 -0.6816  0.6762
  298MOL0     H40226  -0.042   2.309  10.332 -1.3300  0.6370 -0.4040
  298MOL0     H40227  -0.142   2.262  10.468 -0.7073 -0.0353 -0.1736
  298MOL0     H40228  -0.428   2.150  10.200  0.3656  1.4516 -3.0241
  298MOL0     H40229   0.140   1.803  10.570  0.8319 -0.3491  0.7916
  298MOL0     H40230   0.109   1.567  10.629  0.2335 -2.4305  0.2054
  299MOL0     O40231  10.280   5.284   2.478  0.3013 -0.1632  0.5670
  299MOL0     C40232  10.377   5.304   2.548 -0.2308 -1.2194  0.1129
  299MOL0     O40233  10.383   5.326   2.681 -0.4643  0.7228 -0.8501
  299MOL0     C40234  10.266   5.347   2.753 -0.4271  0.6294  0.0355
  299MOL0     C40235  10.194   5.459   2.727  0.6338  0.8076 -0.3341
  299MOL0     C40236  10.085   5.496   2.809 -0.0487  0.1831  0.1730
  299MOL0     C40237  10.041   5.421   2.920  0.1702  0.2866  0.0889
  299MOL0     O40238   9.936   5.462   3.006 -0.0768  0.2247  0.1708
  299MOL0     C40239   9.828   5.549   2.953 -0.9699 -0.1180  0.2802
  299MOL0     C40240   9.684   5.507   2.992 -0.7104 -0.9864 -0.4320
  299MOL0     C40241   9.661   5.511   3.147  0.8024  0.2335  0.3260
  299MOL0     C40242   9.510   5.515   3.176 -0.0891  0.3191  0.5238
  299MOL0     C40243   9.480   5.478   3.328 -1.4678 -0.7944  0.4020
  299MOL0     C40244   9.328   5.461   3.349  0.4146 -0.0680  0.1496
  299MOL0     C40245   9.296   5.451   3.508 -0.1923 -0.4426  0.9545
  299MOL0     C40246   9.302   5.303   3.550 -0.9606  0.3457 -0.6986
  299MOL0     N40247   9.304   5.302   3.695  0.1958  0.6547 -0.5694
  299MOL0     C40248   9.204   5.290   3.787 -0.1449 -0.2734  0.6672
  299MOL0     C40249   9.261   5.304   3.909  0.1938  0.0057 -0.2991
  299MOL0     C40250   9.178   5.285   4.035 -0.1086 -0.2395  0.4660
  299MOL0     C40251   9.223   5.163   4.112  0.5654  0.3202  0.0779
  299MOL0     C40252   9.138   5.126   4.235 -0.2545  0.0707 -1.3619
  299MOL0     C40253   9.225   5.040   4.318  0.2211  0.5824 -0.2829
  299MOL0     O40254   9.174   5.039   4.447 -0.9214  0.2547  0.5379
  299MOL0     C40255   9.220   4.962   4.554  0.4433 -1.1636  0.4303
  299MOL0     C40256   9.320   4.864   4.534  0.1340  0.2571 -0.4508
  299MOL0     C40257   9.374   4.768   4.635  0.3359 -1.3707  0.0380
  299MOL0     C40258   9.492   4.672   4.602  0.7360 -0.2742  0.2188
  299MOL0     C40259   9.302   4.772   4.760 -0.2049  0.4132  0.0817
  299MOL0     C40260   9.365   4.706   4.883 -0.1120 -0.0651 -1.4114
  299MOL0     O40261   9.304   4.741   5.007  0.8396 -0.2199  0.7818
  299MOL0     C40262   9.345   4.700   5.126  0.1807 -0.8740 -0.8323
  299MOL0     C40263   9.295   4.778   5.232 -0.0987 -0.2899  0.0926
  299MOL0     C40264   9.318   4.743   5.367 -0.8863  0.3561  0.7346
  299MOL0     C40265   9.403   4.640   5.398 -0.0360 -0.2015  0.8548
  299MOL0     O40266   9.429   4.590   5.524  0.1540 -0.0489  0.2348
  299MOL0     C40267   9.378   4.654   5.639  0.5559 -0.1698  0.1103
  299MOL0     C40268   9.434   4.579   5.755 -0.0807 -0.4060 -0.5462
  299MOL0     C40269   9.396   4.656   5.881 -0.3696 -0.7954  0.5675
  299MOL0     C40270   9.483   4.783   5.902 -0.1590 -0.1917 -0.1853
  299MOL0     C40271   9.432   4.870   6.020  0.2618 -0.3914  0.8272
  299MOL0     C40272   9.537   4.983   6.043 -1.0752 -0.1381 -0.0862
  299MOL0     C40273   9.521   5.050   6.183  0.2164 -0.2261  0.5185
  299MOL0     C40274   9.575   4.961   6.296  0.1012 -0.0667  0.6465
  299MOL0    Cl40275   9.532   5.044   6.448  0.5076  0.0648 -0.0562
  299MOL0     C40276   9.458   4.562   5.297  0.4164  0.2816  0.4223
  299MOL0     C40277   9.421   4.587   5.166 -0.5782 -1.2340  0.0270
  299MOL0     O40278   9.475   4.645   4.878  0.5940  0.5778 -0.3986
  299MOL0     C40279   9.196   4.868   4.785 -0.1825 -0.1060  0.3858
  299MOL0     C40280   9.162   4.953   4.678  0.0633 -0.4360  0.0467
  299MOL0     N40281   9.401   5.317   3.895  0.0630 -0.5396 -0.4055
  299MOL0     N40282   9.422   5.319   3.769 -0.2421  0.1882  0.6325
  299MOL0     C40283  10.114   5.313   2.951  0.1543  0.7852  0.1548
  299MOL0     C40284  10.228   5.274   2.867  0.3164 -0.1604 -0.1551
  299MOL0     C40285  10.519   5.302   2.493  0.0923  0.2649  0.6188
  299MOL0     C40286  10.639   5.326   2.561  1.0145  0.3564  0.2721
  299MOL0     C40287  10.766   5.302   2.504  0.2924 -0.0973  0.8245
  299MOL0     C40288  10.787   5.252   2.373  0.0833  0.3009 -0.4296
  299MOL0     O40289  10.917   5.218   2.345  0.8664  0.2408 -0.8310
  299MOL0     C40290  10.948   5.162   2.211 -0.1232 -0.2010  0.2520
  299MOL0     C40291  11.079   5.076   2.216  0.4326  0.1760 -0.3351
  299MOL0     C40292  11.117   5.036   2.070  0.1311  0.6515  0.0056
  299MOL0     C40293  11.250   4.955   2.057 -0.2144 -0.2660 -0.0446
  299MOL0     C40294  11.305   4.954   1.919  0.8037 -0.4192  0.1299
  299MOL0     C40295  11.353   4.946   1.805 -0.4696  0.1393 -0.4748
  299MOL0     C40296  10.668   5.237   2.297  0.5401  0.1259  1.0995
  299MOL0     C40297  10.537   5.259   2.362 -0.4147 -0.2892  0.7780
  299MOL0     H40298  10.222   5.522   2.643 -0.6713  2.3003  0.2743
  299MOL0     H40299  10.036   5.591   2.787 -2.6971 -0.3397  2.9962
  299MOL0     H40300   9.843   5.653   2.984  1.4881 -0.2578 -0.1948
  299MOL0     H40301   9.852   5.552   2.846  4.1538  0.6229  1.1666
  299MOL0     H40302   9.621   5.575   2.933  3.0883  1.8010 -1.7331
  299MOL0     H40303   9.675   5.401   2.970  0.3113 -1.7672  2.4692
  299MOL0     H40304   9.703   5.421   3.192 -0.4528 -0.3517  0.3656
  299MOL0     H40305   9.701   5.609   3.176  0.3414  0.2679  0.8482
  299MOL0     H40306   9.458   5.609   3.154 -2.2074 -0.7244  0.8496
  299MOL0     H40307   9.452   5.437   3.126  1.1674 -1.1015  1.2077
  299MOL0     H40308   9.537   5.388   3.350 -1.9141 -0.7445  1.9015
  299MOL0     H40309   9.524   5.559   3.387 -2.3443 -0.1638  0.2197
  299MOL0     H40310   9.274   5.539   3.294 -0.0763 -0.4831  0.0406
  299MOL0     H40311   9.303   5.361   3.313 -0.3731 -0.1910  0.9944
  299MOL0     H40312   9.348   5.526   3.569 -1.2485  2.9172 -1.9628
  299MOL0     H40313   9.189   5.467   3.523 -0.4465 -2.1944  1.3045
  299MOL0     H40314   9.398   5.262   3.513 -1.4676 -0.1434 -1.5173
  299MOL0     H40315   9.217   5.243   3.516  0.2957 -3.3349  1.9611
  299MOL0     H40316   9.105   5.274   3.745  1.7506  0.8390 -5.0614
  299MOL0     H40317   9.197   5.373   4.098  0.3026 -0.6361  0.9086
  299MOL0     H40318   9.070   5.277   4.022  0.4044 -2.2060 -4.6551
  299MOL0     H40319   9.324   5.190   4.143  3.0307 -1.2736 -5.2479
  299MOL0     H40320   9.222   5.078   4.043  0.0543  0.3898 -0.0054
  299MOL0     H40321   9.051   5.068   4.203 -0.6337  1.0751 -2.1850
  299MOL0     H40322   9.110   5.213   4.295  0.0311  1.7852 -3.6247
  299MOL0     H40323   9.330   5.069   4.316  0.9387 -1.0344  3.9024
  299MOL0     H40324   9.211   4.941   4.273  3.1516  0.4782 -1.1585
  299MOL0     H40325   9.371   4.858   4.438  1.4495 -1.5655  0.2932
  299MOL0     H40326   9.579   4.706   4.658 -0.5578 -0.2093  2.2867
  299MOL0     H40327   9.481   4.572   4.643  3.2560 -0.0945  1.5196
  299MOL0     H40328   9.510   4.667   4.494  2.7325  1.0879  0.4416
  299MOL0     H40329   9.236   4.868   5.218 -1.8254 -0.9747  2.3268
  299MOL0     H40330   9.275   4.811   5.440 -1.0449  1.5812 -0.4708
  299MOL0     H40331   9.426   4.752   5.646  1.3968 -0.6856  3.1928
  299MOL0     H40332   9.270   4.665   5.634  0.7019  0.8695 -1.1815
  299MOL0     H40333   9.404   4.475   5.771 -1.0752 -0.6255 -3.3495
  299MOL0     H40334   9.541   4.567   5.733  0.6481 -2.9950  3.3229
  299MOL0     H40335   9.401   4.599   5.975  0.6628  0.6591  1.4364
  299MOL0     H40336   9.293   4.690   5.865 -0.0058 -0.0529 -0.2783
  299MOL0     H40337   9.589   4.756   5.911 -0.4312 -0.8309  1.3370
  299MOL0     H40338   9.480   4.848   5.815 -2.4791 -0.3966 -0.3155
  299MOL0     H40339   9.414   4.795   6.097 -1.8538 -0.0740  0.7033
  299MOL0     H40340   9.333   4.913   6.005 -0.1025 -0.4525  2.8809
  299MOL0     H40341   9.637   4.939   6.050 -0.9381  0.0034 -1.0258
  299MOL0     H40342   9.540   5.055   5.961  1.5359  0.5500  0.5107
  299MOL0     H40343   9.420   5.091   6.194 -0.6655 -2.2144  0.2890
  299MOL0     H40344   9.582   5.140   6.190  0.2083 -0.3364  2.7913
  299MOL0     H40345   9.681   4.945   6.277 -0.4565 -2.7100 -0.7597
  299MOL0     H40346   9.527   4.863   6.304  1.2301 -0.4892  3.0024
  299MOL0     H40347   9.525   4.481   5.323 -1.1205 -0.1849  3.2906
  299MOL0     H40348   9.470   4.528   5.089 -2.0868  0.7342 -2.6277
  299MOL0     H40349   9.145   4.868   4.881  2.9734 -1.0962  2.1969
  299MOL0     H40350   9.088   5.027   4.706 -1.3673 -2.2025  1.1805
  299MOL0     H40351  10.085   5.252   3.036  0.2609  0.3137 -0.1425
  299MOL0     H40352  10.287   5.187   2.894  0.0092  0.2732  2.1154
  299MOL0     H40353  10.635   5.359   2.664 -0.0964 -0.2301  0.4344
  299MOL0     H40354  10.856   5.312   2.563  0.4697  2.5030  0.2214
  299MOL0     H40355  10.868   5.091   2.184 -1.1961  0.6752  1.0192
  299MOL0     H40356  10.971   5.239   2.136 -2.7951  1.2049  0.7415
  299MOL0     H40357  11.068   4.995   2.289  1.1201  2.7116  2.7990
  299MOL0     H40358  11.159   5.136   2.260 -0.1520 -0.2468  1.4016
  299MOL0     H40359  11.125   5.130   2.014 -0.3894  1.1852  0.8023
  299MOL0     H40360  11.036   4.979   2.025 -1.2561  1.1030  1.8055
  299MOL0     H40361  11.228   4.852   2.086 -0.7082 -0.1375  0.0402
  299MOL0     H40362  11.323   5.005   2.122 -1.3935  3.5149 -1.3788
  299MOL0     H40363  11.400   4.950   1.709  0.1207  2.0541 -0.1640
  299MOL0     H40364  10.674   5.207   2.193 -0.8764  1.1581  0.6802
  299MOL0     H40365  10.453   5.222   2.303  0.4540  0.8357 -1.2523
  300MOL0     O40366   0.823  10.559   7.040  0.7088 -0.3196 -0.6202
  300MOL0     C40367   0.934  10.595   6.997  1.0192 -0.3284 -0.1855
  300MOL0     O40368   0.975  10.582   6.861  0.4757  0.1592 -0.0103
  300MOL0     C40369   0.893  10.531   6.764  0.0453 -0.1831 -1.1509
  300MOL0     C40370   0.940  10.434   6.682 -0.1765  0.2032 -0.1626
  300MOL0     C40371   0.869  10.375   6.573 -0.5448  0.6042 -0.1440
  300MOL0     C40372   0.737  10.423   6.548  0.1311 -0.7369  0.6362
  300MOL0     O40373   0.685  10.378   6.431  0.3609 -0.0722 -0.2232
  300MOL0     C40374   0.645  10.478   6.338 -0.0317  0.8507  0.1880
  300MOL0     C40375   0.546  10.432   6.233  0.4887 -0.1313  0.5183
  300MOL0     C40376   0.625  10.405   6.106  1.0232  0.8323  0.0268
  300MOL0     C40377   0.516  10.356   6.010  0.2391 -0.6523  0.1862
  300MOL0     C40378   0.504  10.209   6.001  0.0441  0.4493 -0.4708
  300MOL0     C40379   0.398  10.158   5.901 -0.2640 -0.2174 -0.2507
  300MOL0     C40380   0.386  10.002   5.885  0.0935  0.1271  0.5035
  300MOL0     C40381   0.275   9.966   5.789 -0.8646 -0.6313  0.5695
  300MOL0     N40382   0.145   9.975   5.835 -0.4376  0.7725 -0.5019
  300MOL0     C40383   0.071   9.879   5.903  0.0192  0.3599  0.0550
  300MOL0     C40384  -0.054   9.932   5.917  0.2042  0.9257  0.0868
  300MOL0     C40385  -0.160   9.855   5.991 -0.5803 -0.3398 -0.6554
  300MOL0     C40386  -0.184   9.919   6.131  1.2610 -0.0135 -0.0156
  300MOL0     C40387  -0.068   9.909   6.233 -0.6036 -0.2126  0.6678
  300MOL0     C40388  -0.085   9.991   6.359  0.5091 -0.0798 -0.3013
  300MOL0     O40389   0.005   9.933   6.458 -1.1033 -0.3411 -0.0968
  300MOL0     C40390  -0.045   9.836   6.545 -0.0414  0.0924 -0.4789
  300MOL0     C40391  -0.173   9.770   6.529 -0.1091 -0.2416 -0.5484
  300MOL0     C40392  -0.216   9.689   6.629 -0.2704  1.3476  0.9860
  300MOL0     C40393  -0.360   9.636   6.618 -0.9317  0.0134  0.6179
  300MOL0     C40394  -0.139   9.640   6.736 -0.3954 -0.7968 -0.0291
  300MOL0     C40395  -0.176   9.556   6.855 -0.1960 -0.3464  0.2277
  300MOL0     O40396  -0.072   9.502   6.928 -0.1861 -0.2460  0.6439
  300MOL0     C40397  -0.092   9.415   7.037 -0.3287 -0.1586  0.3694
  300MOL0     C40398  -0.198   9.418   7.128 -0.6745 -0.5619  0.1217
  300MOL0     C40399  -0.218   9.315   7.216  0.0533  0.3055 -0.3870
  300MOL0     C40400  -0.128   9.212   7.226 -1.4263 -0.2899  0.2299
  300MOL0     O40401  -0.129   9.103   7.309  0.2066 -0.1127  0.2158
  300MOL0     C40402  -0.242   9.099   7.405 -0.6595 -0.1195 -0.0321
  300MOL0     C40403  -0.220   8.953   7.463  0.8477 -0.0242 -0.3910
  300MOL0     C40404  -0.289   8.856   7.363  0.0076  0.0175 -0.2137
  300MOL0     C40405  -0.269   8.720   7.436 -0.9715  0.2606  0.1641
  300MOL0     C40406  -0.301   8.601   7.349  1.3385  0.1964  0.6771
  300MOL0     C40407  -0.440   8.611   7.292 -0.4227  0.1749 -0.3597
  300MOL0     C40408  -0.469   8.491   7.201  0.0855  0.1603 -0.3517
  300MOL0     C40409  -0.550   8.530   7.079 -0.9607 -0.3247  0.9475
  300MOL0    Cl40410  -0.441   8.607   6.951 -0.0217 -0.3476 -0.0602
  300MOL0     C40411  -0.012   9.207   7.145  0.5837 -0.8973 -0.3284
  300MOL0     C40412   0.007   9.313   7.055  1.1560  0.0428 -0.2891
  300MOL0     O40413  -0.293   9.540   6.880  0.5957 -0.8082 -0.0253
  300MOL0     C40414  -0.006   9.694   6.735  0.0538  0.2054  0.0248
  300MOL0     C40415   0.034   9.784   6.643 -0.4068  0.0046  1.1761
  300MOL0     N40416  -0.050  10.055   5.855 -0.4333  0.9714 -0.3477
  300MOL0     N40417   0.071  10.075   5.812  0.2320 -0.8153 -0.1215
  300MOL0     C40418   0.681  10.524   6.631  0.0868  0.6509  0.5580
  300MOL0     C40419   0.760  10.578   6.739 -0.0370  0.0165 -0.3764
  300MOL0     C40420   1.037  10.669   7.082  0.9978  1.1349  0.5392
  300MOL0     C40421   1.160  10.682   7.027  0.2368  0.6626  0.4006
  300MOL0     C40422   1.263  10.749   7.090 -0.9064  0.1456 -0.3895
  300MOL0     C40423   1.239  10.794   7.222 -0.2047 -0.1796 -0.3676
  300MOL0     O40424   1.341  10.833   7.309 -0.5976 -0.5512 -0.5174
  300MOL0     C40425   1.471  10.760   7.300  1.2180 -0.0251  0.7712
  300MOL0     C40426   1.550  10.788   7.433 -0.1555 -0.0636  0.2298
  300MOL0     C40427   1.671  10.695   7.440  0.2545  1.1027  0.6856
  300MOL0     C40428   1.740  10.674   7.582  1.1973  0.2655 -1.0374
  300MOL0     C40429   1.864  10.592   7.557  0.8276  0.9903 -0.3649
  300MOL0     C40430   1.953  10.506   7.536 -0.4022 -0.1741  0.3014
  300MOL0     C40431   1.106  10.797   7.277 -0.0897  0.2186 -0.5609
  300MOL0     C40432   1.011  10.725   7.211 -0.2182  0.2416  0.1447
  300MOL0     H40433   1.046  10.413   6.693  0.4786  3.6285  1.1690
  300MOL0     H40434   0.923  10.309   6.506  1.4470  4.2143 -2.4249
  300MOL0     H40435   0.603  10.564   6.392 -2.0334 -0.6172  1.1211
  300MOL0     H40436   0.737  10.527   6.306  1.1623 -0.1251  1.9612
  300MOL0     H40437   0.477  10.356   6.270 -2.3069  1.9176 -0.0811
  300MOL0     H40438   0.478  10.513   6.201 -1.1285 -1.2705  0.9327
  300MOL0     H40439   0.667  10.500   6.071  0.6688  0.7226 -0.7188
  300MOL0     H40440   0.708  10.334   6.112  0.1102 -0.2965 -0.3719
  300MOL0     H40441   0.419  10.403   6.031  1.3683  2.4431 -0.9690
  300MOL0     H40442   0.533  10.397   5.911 -1.1206 -0.3770  0.0445
  300MOL0     H40443   0.599  10.170   5.964  0.4867  0.8806  0.1834
  300MOL0     H40444   0.499  10.179   6.106  0.7799  1.1648 -0.2182
  300MOL0     H40445   0.304  10.213   5.915  1.3442  3.2468 -1.9081
  300MOL0     H40446   0.438  10.184   5.803  0.4946 -1.6985 -0.3618
  300MOL0     H40447   0.481   9.962   5.849 -0.1624 -1.4812  1.5425
  300MOL0     H40448   0.363   9.948   5.977 -1.8008 -0.2648 -0.1575
  300MOL0     H40449   0.288   9.862   5.755  1.6553  0.4394 -2.1575
  300MOL0     H40450   0.297  10.016   5.694 -1.6922 -2.8211 -0.8722
  300MOL0     H40451   0.088   9.774   5.924 -4.0204 -0.8252 -1.5277
  300MOL0     H40452  -0.253   9.851   5.934 -1.6364  0.0712  0.9510
  300MOL0     H40453  -0.127   9.753   6.016 -1.1257  0.0258  1.8574
  300MOL0     H40454  -0.272   9.864   6.165 -0.9331  1.2516 -3.2391
  300MOL0     H40455  -0.203  10.026   6.121 -1.7866 -0.4099  0.6797
  300MOL0     H40456   0.027   9.947   6.195 -0.4055 -2.9796 -2.0140
  300MOL0     H40457  -0.054   9.801   6.248 -5.1791 -0.9633  1.0018
  300MOL0     H40458  -0.189   9.999   6.389  0.4129 -0.2958 -0.5735
  300MOL0     H40459  -0.050  10.094   6.345  0.7042 -0.2086 -0.7859
  300MOL0     H40460  -0.247   9.786   6.451  0.2721  1.2189 -0.6512
  300MOL0     H40461  -0.386   9.624   6.512 -0.6977  5.0624 -0.2409
  300MOL0     H40462  -0.367   9.537   6.665 -3.4365 -0.2998 -0.2370
  300MOL0     H40463  -0.432   9.705   6.664 -1.6729  1.1144 -2.0260
  300MOL0     H40464  -0.285   9.484   7.126 -0.1272  0.1694 -0.7280
  300MOL0     H40465  -0.310   9.317   7.274  0.0573  1.1678 -0.4085
  300MOL0     H40466  -0.236   9.179   7.479 -0.5296  0.4291 -0.6214
  300MOL0     H40467  -0.339   9.113   7.356 -0.2047  1.4813 -0.5380
  300MOL0     H40468  -0.112   8.935   7.462  0.5320 -2.1034 -0.4415
  300MOL0     H40469  -0.268   8.942   7.560 -0.1442  2.4327 -0.5253
  300MOL0     H40470  -0.237   8.852   7.267  3.6299 -0.6112  1.5928
  300MOL0     H40471  -0.397   8.871   7.354  0.3204  5.8086  1.6247
  300MOL0     H40472  -0.166   8.706   7.469 -0.5941 -2.4203 -1.8158
  300MOL0     H40473  -0.325   8.715   7.530 -2.2220 -0.9114 -0.5966
  300MOL0     H40474  -0.309   8.513   7.413 -3.2445 -0.8551 -0.9671
  300MOL0     H40475  -0.226   8.590   7.270 -1.3610 -1.3183 -1.8680
  300MOL0     H40476  -0.507   8.616   7.378  1.5771 -0.6042  1.3006
  300MOL0     H40477  -0.461   8.704   7.237 -1.5296  1.0401  1.4381
  300MOL0     H40478  -0.522   8.413   7.258 -0.6168  2.1747  1.9099
  300MOL0     H40479  -0.374   8.450   7.166  1.1118  1.2807  0.9893
  300MOL0     H40480  -0.636   8.593   7.104 -0.2481  1.5655 -1.0280
  300MOL0     H40481  -0.593   8.436   7.042  2.4110 -0.9638 -1.8632
  300MOL0     H40482   0.055   9.125   7.167 -1.0646 -2.2660 -0.2229
  300MOL0     H40483   0.099   9.321   6.999  0.7069  1.8187 -0.8291
  300MOL0     H40484   0.066   9.667   6.811 -0.3677 -0.2598  0.2682
  300MOL0     H40485   0.139   9.814   6.648 -0.6840  1.3820 -0.4144
  300MOL0     H40486   0.581  10.565   6.619 -0.5267  0.0222  2.9634
  300MOL0     H40487   0.720  10.653   6.806 -0.5110 -0.5831  0.0188
  300MOL0     H40488   1.179  10.634   6.932  0.8236  1.1278  0.2753
  300MOL0     H40489   1.361  10.767   7.047 -1.8674 -0.4457 -3.0170
  300MOL0     H40490   1.449  10.654   7.286 -2.3342  0.6298  0.5250
  300MOL0     H40491   1.527  10.793   7.212 -0.1532  0.7792  0.1622
  300MOL0     H40492   1.478  10.760   7.510  0.6779  0.2943  1.1541
  300MOL0     H40493   1.573  10.894   7.447  1.4326 -0.1920 -1.0676
  300MOL0     H40494   1.738  10.726   7.359 -1.3722 -0.9692 -1.6195
  300MOL0     H40495   1.635  10.596   7.410 -1.0000  0.8077  2.9193
  300MOL0     H40496   1.673  10.636   7.659  2.6325 -1.0932 -0.3924
  300MOL0     H40497   1.768  10.768   7.630  1.0978 -1.2483  2.2793
  300MOL0     H40498   2.029  10.437   7.505 -0.0217  1.5321 -3.0167
  300MOL0     H40499   1.106  10.845   7.375 -1.8643  3.1682 -1.8861
  300MOL0     H40500   0.913  10.711   7.256 -0.6701  0.9284 -0.5907
  301MOL0     O40501   5.761   7.099   2.403  0.5870  0.5414 -0.5215
  301MOL0     C40502   5.865   7.162   2.381 -0.3596  0.3614  0.9016
  301MOL0     O40503   5.882   7.243   2.272 -0.8653 -0.1284 -0.6004
  301MOL0     C40504   5.773   7.277   2.201  0.6354  0.3363  0.0066
  301MOL0     C40505   5.638   7.288   2.246  0.4338 -0.1948 -0.2054
  301MOL0     C40506   5.538   7.341   2.158  0.2819  0.8138  0.8360
  301MOL0     C40507   5.559   7.356   2.023  1.0810  0.7002  0.0012
  301MOL0     O40508   5.476   7.413   1.927  0.0448  0.6354  0.0791
  301MOL0     C40509   5.365   7.496   1.965 -0.3335  0.0014 -0.3932
  301MOL0     C40510   5.360   7.612   1.870 -0.4178 -0.1912  0.2642
  301MOL0     C40511   5.230   7.689   1.879  0.7582 -0.8194  0.3876
  301MOL0     C40512   5.216   7.751   2.021  0.0893  0.3009  0.3120
  301MOL0     C40513   5.117   7.864   2.021 -0.0299  0.0862  0.0114
  301MOL0     C40514   4.969   7.816   2.031 -0.6270  0.0507  0.0165
  301MOL0     C40515   4.908   7.767   1.898 -0.1572  0.0928  0.9572
  301MOL0     C40516   4.757   7.809   1.871  0.4120 -0.4063  0.7154
  301MOL0     N40517   4.674   7.740   1.968 -0.2515 -0.3033  0.9069
  301MOL0     C40518   4.669   7.602   1.988 -0.8387 -0.4685  0.3111
  301MOL0     C40519   4.561   7.588   2.067  0.0348  1.5504  0.4371
  301MOL0     C40520   4.538   7.451   2.128 -0.5096 -0.2100 -0.1268
  301MOL0     C40521   4.398   7.382   2.135  0.0976 -1.5756 -0.1040
  301MOL0     C40522   4.312   7.456   2.244 -0.0122  0.2364 -0.2352
  301MOL0     C40523   4.189   7.370   2.293  1.0229  0.3811  0.7647
  301MOL0     O40524   4.106   7.326   2.185  0.8042  0.8609  0.1792
  301MOL0     C40525   4.002   7.404   2.142  0.9309 -0.4976  0.4004
  301MOL0     C40526   3.898   7.431   2.228  0.6439 -0.2747 -1.1240
  301MOL0     C40527   3.782   7.504   2.195  0.0096  0.1058  0.4029
  301MOL0     C40528   3.681   7.509   2.305  0.4096 -0.5739  0.3643
  301MOL0     C40529   3.766   7.552   2.063  0.2091  0.0918 -0.0743
  301MOL0     C40530   3.647   7.636   2.029  0.1365  1.1617 -0.7974
  301MOL0     O40531   3.606   7.634   1.899 -0.9159 -0.1790 -0.1830
  301MOL0     C40532   3.525   7.737   1.858  0.2696 -0.0705 -0.4310
  301MOL0     C40533   3.392   7.702   1.834 -0.0733 -0.2860  0.3487
  301MOL0     C40534   3.309   7.804   1.770 -0.3907 -0.9951 -0.1960
  301MOL0     C40535   3.354   7.935   1.750  0.2489 -0.0362  0.0486
  301MOL0     O40536   3.282   8.036   1.693  0.0635 -0.5582 -0.4247
  301MOL0     C40537   3.209   8.000   1.583  0.1925  0.3944 -0.1759
  301MOL0     C40538   3.107   8.105   1.570 -0.0208  0.0312 -0.3716
  301MOL0     C40539   3.179   8.242   1.556  0.2266  0.0699 -0.1053
  301MOL0     C40540   3.066   8.335   1.498  0.3905  0.2290  0.2360
  301MOL0     C40541   3.120   8.472   1.457  0.6668  0.0122  0.3682
  301MOL0     C40542   3.006   8.554   1.406 -0.6337  0.4007  0.4757
  301MOL0     C40543   3.047   8.704   1.393 -0.0898  0.2911  0.3627
  301MOL0     C40544   2.936   8.771   1.313 -0.2648  0.5785  0.4219
  301MOL0    Cl40545   3.004   8.922   1.239  0.1818  0.5028 -0.2849
  301MOL0     C40546   3.484   7.964   1.774 -0.6780  0.8440 -0.1765
  301MOL0     C40547   3.577   7.872   1.831  0.2948 -0.2253 -0.5516
  301MOL0     O40548   3.601   7.709   2.118 -0.3851 -0.4285  0.4659
  301MOL0     C40549   3.874   7.538   1.974 -0.4624 -0.0291 -1.0961
  301MOL0     C40550   3.990   7.461   2.013 -1.4513 -0.6157 -0.4909
  301MOL0     N40551   4.502   7.700   2.095 -0.0347 -0.2100 -0.6785
  301MOL0     N40552   4.570   7.791   2.041  0.4766 -0.4668  0.5478
  301MOL0     C40553   5.686   7.319   1.980 -0.3996 -0.1491  0.4639
  301MOL0     C40554   5.791   7.289   2.065 -0.6078 -0.2818 -0.9458
  301MOL0     C40555   5.978   7.152   2.479 -0.4613  0.3195 -0.4692
  301MOL0     C40556   6.104   7.224   2.451 -0.5531  0.2656 -0.1404
  301MOL0     C40557   6.204   7.219   2.549 -0.8597 -0.5574 -0.3429
  301MOL0     C40558   6.195   7.157   2.667 -0.2343  1.3695 -1.0236
  301MOL0     O40559   6.292   7.141   2.767 -0.0971  0.2592  0.8768
  301MOL0     C40560   6.304   7.254   2.853 -0.9548 -0.3260 -0.8658
  301MOL0     C40561   6.193   7.278   2.956  0.3880  0.1794  0.4438
  301MOL0     C40562   6.226   7.398   3.047 -0.2938  0.1000 -0.3300
  301MOL0     C40563   6.134   7.394   3.171 -0.4004  0.2411  0.4981
  301MOL0     C40564   6.167   7.293   3.268 -0.1835 -0.5388 -0.1158
  301MOL0     C40565   6.223   7.227   3.351 -0.3198  0.9089  0.4173
  301MOL0     C40566   6.074   7.085   2.690 -0.1967 -0.9870  0.1356
  301MOL0     C40567   5.966   7.099   2.605  0.2393  0.5608  1.0391
  301MOL0     H40568   5.615   7.266   2.350 -1.7625 -1.6561 -0.9208
  301MOL0     H40569   5.448   7.388   2.197 -0.8667  1.4971 -2.3456
  301MOL0     H40570   5.274   7.437   1.957 -0.0282 -0.3026 -2.0247
  301MOL0     H40571   5.370   7.535   2.067 -0.7404  1.0547 -0.7632
  301MOL0     H40572   5.445   7.678   1.891  0.7319 -0.3643 -3.2578
  301MOL0     H40573   5.369   7.572   1.769  2.5549 -0.5897  0.5915
  301MOL0     H40574   5.215   7.758   1.795  2.1887  0.6906  1.3019
  301MOL0     H40575   5.154   7.612   1.871 -0.9863  0.6585  1.8820
  301MOL0     H40576   5.207   7.680   2.103  1.7168  0.7314  0.8965
  301MOL0     H40577   5.313   7.798   2.040 -0.0495  0.6722  0.1091
  301MOL0     H40578   5.135   7.910   2.119 -3.7235  3.8978 -0.8427
  301MOL0     H40579   5.141   7.944   1.951  1.8762  1.2819  1.9002
  301MOL0     H40580   4.965   7.745   2.114  1.6193  1.6116  1.5617
  301MOL0     H40581   4.920   7.910   2.057  1.6922  2.1156 -2.4799
  301MOL0     H40582   4.969   7.813   1.820  1.4617  3.2631  3.7726
  301MOL0     H40583   4.909   7.659   1.888  0.5131  0.1481  0.3574
  301MOL0     H40584   4.712   7.774   1.778  0.7198 -3.2370  1.5394
  301MOL0     H40585   4.734   7.914   1.889  0.2504 -0.2414 -0.4311
  301MOL0     H40586   4.731   7.530   1.935 -0.4785 -0.4887  0.7451
  301MOL0     H40587   4.616   7.382   2.095  1.3336  1.7046  0.0762
  301MOL0     H40588   4.568   7.459   2.233  2.9879 -0.4032 -1.0100
  301MOL0     H40589   4.421   7.278   2.160  3.4000 -0.9016  0.1230
  301MOL0     H40590   4.354   7.394   2.035  1.8985  1.2641 -0.6867
  301MOL0     H40591   4.266   7.542   2.195  1.8599  1.0896 -0.6124
  301MOL0     H40592   4.366   7.501   2.328 -1.0430 -2.0107  1.7549
  301MOL0     H40593   4.125   7.427   2.360 -0.8985  1.7192 -1.9930
  301MOL0     H40594   4.232   7.288   2.350  2.5528  2.7658  3.2744
  301MOL0     H40595   3.902   7.386   2.327 -0.6652 -0.2132 -1.0302
  301MOL0     H40596   3.693   7.602   2.362 -3.5265 -1.2868  2.7055
  301MOL0     H40597   3.580   7.488   2.270  0.5844 -0.3056 -0.3095
  301MOL0     H40598   3.704   7.438   2.386 -0.2512 -1.4018 -0.1566
  301MOL0     H40599   3.354   7.605   1.861 -2.4027  0.5161  0.1383
  301MOL0     H40600   3.207   7.784   1.738  0.3121 -0.9375 -2.6845
  301MOL0     H40601   3.265   7.995   1.489  0.2030 -3.3872 -0.1219
  301MOL0     H40602   3.171   7.898   1.595  5.3410 -1.6269  1.9256
  301MOL0     H40603   3.040   8.083   1.486  1.2073 -1.5545 -0.9818
  301MOL0     H40604   3.043   8.096   1.658  0.8677 -0.7090  0.2112
  301MOL0     H40605   3.261   8.229   1.485  0.9515 -0.7968  0.8642
  301MOL0     H40606   3.218   8.285   1.648  0.8382  0.8674 -0.7294
  301MOL0     H40607   3.019   8.291   1.410  0.9831 -1.0956  0.5485
  301MOL0     H40608   2.987   8.355   1.571 -0.7362  2.8477 -1.5725
  301MOL0     H40609   3.196   8.475   1.378  2.2460 -1.0408  1.7799
  301MOL0     H40610   3.167   8.508   1.549  2.2016  0.7388 -0.6663
  301MOL0     H40611   2.980   8.508   1.311  0.3594 -0.1692  0.4672
  301MOL0     H40612   2.917   8.549   1.469 -1.1022  1.5173 -0.0755
  301MOL0     H40613   3.145   8.699   1.343 -0.1394 -2.3727  0.3670
  301MOL0     H40614   3.069   8.750   1.489  2.6397 -1.4381  0.6988
  301MOL0     H40615   2.861   8.794   1.389  0.5671 -1.2180  1.8744
  301MOL0     H40616   2.898   8.705   1.234 -0.1772 -0.8719  1.5449
  301MOL0     H40617   3.515   8.063   1.741  1.6924  0.0545 -0.5359
  301MOL0     H40618   3.682   7.888   1.855 -0.7702  2.0937  3.5700
  301MOL0     H40619   3.869   7.587   1.878  1.8548  0.4032 -1.0575
  301MOL0     H40620   4.067   7.449   1.938 -0.2436  0.1846  0.5688
  301MOL0     H40621   5.710   7.324   1.875 -1.2635  0.4817  0.2874
  301MOL0     H40622   5.890   7.291   2.022  0.7672 -1.7487  1.9113
  301MOL0     H40623   6.137   7.290   2.371  0.8866  3.2341  2.6552
  301MOL0     H40624   6.298   7.262   2.516  0.8315 -3.4908  0.2775
  301MOL0     H40625   6.390   7.239   2.918 -1.0216  0.3948 -0.5970
  301MOL0     H40626   6.325   7.347   2.798  0.6805 -0.1564 -0.0169
  301MOL0     H40627   6.194   7.197   3.029  3.5362 -0.4003 -0.0894
  301MOL0     H40628   6.094   7.292   2.912 -0.7937  2.3586  3.4024
  301MOL0     H40629   6.236   7.489   2.987  0.9029 -0.2402 -0.6817
  301MOL0     H40630   6.324   7.376   3.090  0.4136 -0.2361 -2.0461
  301MOL0     H40631   6.029   7.375   3.149 -0.2050 -0.9150  0.5214
  301MOL0     H40632   6.136   7.494   3.216 -2.2540  1.6628 -2.2581
  301MOL0     H40633   6.279   7.168   3.420  1.2664  2.3686  0.4450
  301MOL0     H40634   6.060   7.024   2.779 -3.0396 -1.4074 -0.4880
  301MOL0     H40635   5.873   7.048   2.626  0.0109  0.6893  0.3653
  302MOL0     O40636  10.289  10.216   2.136  0.1984  0.4443  0.1655
  302MOL0     C40637  10.170  10.228   2.101  0.0118  0.4885  1.0324
  302MOL0     O40638  10.063  10.249   2.179 -0.4083  0.4449  0.0916
  302MOL0     C40639  10.077  10.228   2.313 -0.3857 -0.1592 -0.1286
  302MOL0     C40640  10.002  10.320   2.391 -0.3981 -0.8572 -0.0461
  302MOL0     C40641  10.015  10.330   2.533 -0.4223 -0.5977 -0.8440
  302MOL0     C40642  10.100  10.243   2.596 -0.1359  0.8824 -0.7833
  302MOL0     O40643  10.112  10.247   2.732 -0.4377 -0.2697 -0.0451
  302MOL0     C40644   9.990  10.240   2.806 -0.2335 -0.3012  0.4653
  302MOL0     C40645  10.002  10.223   2.958  0.1407  0.3115  0.2692
  302MOL0     C40646   9.867  10.233   3.025 -0.3739 -0.1007 -0.0422
  302MOL0     C40647   9.808  10.364   3.039  0.3044 -0.0313 -0.2484
  302MOL0     C40648   9.697  10.346   3.133 -1.1898  0.1808 -0.4312
  302MOL0     C40649   9.743  10.401   3.266 -0.2247  0.1851  0.5744
  302MOL0     C40650   9.637  10.367   3.385  0.3908  0.0007 -0.3010
  302MOL0     C40651   9.686  10.444   3.503 -0.1613  0.2301 -0.5593
  302MOL0     N40652   9.605  10.393   3.627 -0.3095  0.8089 -0.2347
  302MOL0     C40653   9.473  10.399   3.652  0.0522 -0.5016 -0.3507
  302MOL0     C40654   9.441  10.340   3.770 -0.4288  0.5416 -0.4836
  302MOL0     C40655   9.301  10.321   3.821  0.8655 -0.6018 -0.6147
  302MOL0     C40656   9.251  10.182   3.806  0.1680  0.0350  0.1713
  302MOL0     C40657   9.225  10.136   3.657 -0.5866  0.3214 -0.1492
  302MOL0     C40658   9.216   9.988   3.630 -0.2359  0.5659 -1.2098
  302MOL0     O40659   9.167   9.957   3.494 -0.6696  0.1309 -0.0377
  302MOL0     C40660   9.036   9.920   3.472 -0.5856 -0.0670  0.2736
  302MOL0     C40661   8.925   9.955   3.551 -0.4878 -0.3924 -0.1595
  302MOL0     C40662   8.795   9.901   3.511  0.1362  0.0952 -0.1246
  302MOL0     C40663   8.672   9.944   3.585 -0.6169 -0.4234 -0.0284
  302MOL0     C40664   8.779   9.835   3.392  0.2688  0.1352 -0.1878
  302MOL0     C40665   8.647   9.777   3.349  0.4066  0.0697  0.0502
  302MOL0     O40666   8.659   9.654   3.325  1.0473 -0.4249 -0.3326
  302MOL0     C40667   8.548   9.594   3.268 -1.0418  0.2984 -0.7008
  302MOL0     C40668   8.453   9.518   3.344 -0.2006 -0.2210 -0.4648
  302MOL0     C40669   8.339   9.470   3.275 -0.1256  0.1152  0.0530
  302MOL0     C40670   8.322   9.485   3.146  0.5808  0.2050 -0.3734
  302MOL0     O40671   8.200   9.436   3.095  0.1484 -0.7486  0.0226
  302MOL0     C40672   8.168   9.483   2.959 -0.0001  0.1919 -0.4213
  302MOL0     C40673   8.059   9.420   2.890  0.3475  0.2774 -0.0575
  302MOL0     C40674   7.917   9.458   2.932 -0.0519  0.1367 -1.5784
  302MOL0     C40675   7.821   9.363   2.867 -0.0183  0.0118 -0.6086
  302MOL0     C40676   7.681   9.415   2.852  0.2842  0.0380 -0.3099
  302MOL0     C40677   7.618   9.451   2.984 -0.0434  0.5623  1.5905
  302MOL0     C40678   7.477   9.486   2.974  0.0434  0.0936 -0.7660
  302MOL0     C40679   7.440   9.614   3.038 -0.0025  0.1893 -0.3006
  302MOL0    Cl40680   7.451   9.614   3.214 -0.4448 -1.0598  0.0040
  302MOL0     C40681   8.422   9.545   3.070 -0.0301 -0.0502 -0.2664
  302MOL0     C40682   8.528   9.599   3.134 -0.7593 -0.0047  0.0852
  302MOL0     O40683   8.543   9.843   3.346  0.2618 -0.4601 -0.1171
  302MOL0     C40684   8.893   9.796   3.318 -0.0344 -0.3917 -0.4710
  302MOL0     C40685   9.014   9.837   3.359 -0.1618  0.4304  1.0060
  302MOL0     N40686   9.557  10.277   3.811  0.2486  0.0541  0.0644
  302MOL0     N40687   9.657  10.318   3.738  0.1596  1.1332 -0.7426
  302MOL0     C40688  10.166  10.148   2.520 -0.0729  1.2971 -0.0430
  302MOL0     C40689  10.161  10.145   2.381 -0.3113 -0.3658 -0.1787
  302MOL0     C40690  10.132  10.190   1.966 -0.4679 -0.0854  0.7720
  302MOL0     C40691   9.996  10.167   1.921 -1.0663 -0.0552 -0.5155
  302MOL0     C40692   9.971  10.130   1.792  0.4620 -0.0237  0.0540
  302MOL0     C40693  10.075  10.103   1.702 -1.3263 -1.0564 -0.0648
  302MOL0     O40694  10.030  10.056   1.579 -0.2203  0.8167 -0.0684
  302MOL0     C40695  10.102  10.070   1.457 -0.6943  0.1840  0.4631
  302MOL0     C40696   9.998  10.054   1.349 -0.3783 -0.4961  0.4198
  302MOL0     C40697   9.936  10.197   1.312  0.2634 -0.0667 -0.3657
  302MOL0     C40698   9.840  10.187   1.205  0.2536  0.5590  0.5825
  302MOL0     C40699   9.761  10.308   1.186  0.5744 -0.0231 -0.0356
  302MOL0     C40700   9.707  10.419   1.179 -0.4606 -0.1418 -0.0243
  302MOL0     C40701  10.207  10.125   1.738 -0.6542  0.3652 -0.6299
  302MOL0     C40702  10.241  10.168   1.871  0.3022 -0.3286 -0.6256
  302MOL0     H40703   9.962  10.400   2.330 -0.7322 -0.9150  0.0960
  302MOL0     H40704   9.967  10.413   2.583 -1.6211 -1.5564 -0.3469
  302MOL0     H40705   9.937  10.333   2.784 -4.2641 -2.4727 -0.0380
  302MOL0     H40706   9.924  10.161   2.767  0.8031 -0.4961 -0.9623
  302MOL0     H40707  10.036  10.121   2.974 -1.4163  0.0994  2.8940
  302MOL0     H40708  10.072  10.289   3.011 -0.1805  0.3427  0.6601
  302MOL0     H40709   9.799  10.177   2.960  2.1398 -1.7913 -1.3933
  302MOL0     H40710   9.877  10.193   3.126 -1.4763 -1.6468 -0.5145
  302MOL0     H40711   9.886  10.435   3.065  0.9390 -1.1198  0.9749
  302MOL0     H40712   9.775  10.401   2.942  1.4177  0.0283 -0.6143
  302MOL0     H40713   9.610  10.399   3.095 -2.7563 -2.4323 -0.6840
  302MOL0     H40714   9.662  10.244   3.151 -1.3126  0.3608  0.3599
  302MOL0     H40715   9.839  10.358   3.295 -1.2036 -0.4263  3.1196
  302MOL0     H40716   9.756  10.508   3.246  0.3051 -0.4629 -3.2881
  302MOL0     H40717   9.539  10.407   3.359 -0.8176 -2.0925  0.8253
  302MOL0     H40718   9.630  10.260   3.409 -0.2908  0.0532 -0.2423
  302MOL0     H40719   9.654  10.549   3.507 -1.1422 -0.0782  2.1861
  302MOL0     H40720   9.792  10.449   3.528 -1.0314  1.4053  3.6025
  302MOL0     H40721   9.403  10.457   3.593 -0.0943 -1.0923 -0.7702
  302MOL0     H40722   9.301  10.340   3.929  0.6897 -2.2588 -0.3006
  302MOL0     H40723   9.240  10.397   3.771 -0.1303 -0.8415  0.2208
  302MOL0     H40724   9.156  10.173   3.858 -2.1772 -0.8284 -3.8412
  302MOL0     H40725   9.320  10.108   3.848 -1.5772 -2.6976 -1.5231
  302MOL0     H40726   9.308  10.179   3.600  0.7921 -1.5105  0.3856
  302MOL0     H40727   9.133  10.173   3.611  0.6094  0.9147 -2.2309
  302MOL0     H40728   9.155   9.956   3.715  1.3426  2.1379  0.6059
  302MOL0     H40729   9.320   9.957   3.645 -0.7003 -0.4789  0.0577
  302MOL0     H40730   8.950  10.009   3.641 -3.6348  0.8693  0.1021
  302MOL0     H40731   8.699   9.962   3.689 -1.1658  2.3761 -0.3025
  302MOL0     H40732   8.632  10.031   3.532  0.9224  0.0330 -0.4833
  302MOL0     H40733   8.586   9.876   3.593 -0.4563 -0.6440 -0.1524
  302MOL0     H40734   8.464   9.522   3.452 -1.4735 -2.3846 -0.2044
  302MOL0     H40735   8.260   9.427   3.335  0.0235  2.9966  2.5892
  302MOL0     H40736   8.136   9.586   2.977 -0.5827  0.6296 -3.4298
  302MOL0     H40737   8.265   9.481   2.908  2.2423  1.2229  3.4412
  302MOL0     H40738   8.074   9.428   2.782  0.5230 -3.8823 -0.5096
  302MOL0     H40739   8.061   9.311   2.904  0.5863  0.4362  1.3477
  302MOL0     H40740   7.906   9.558   2.890  0.3252  0.2063 -1.5166
  302MOL0     H40741   7.920   9.450   3.041  0.8983 -1.1059 -1.6768
  302MOL0     H40742   7.863   9.352   2.766  2.5003  2.2798  0.0529
  302MOL0     H40743   7.822   9.268   2.920 -2.8785  0.2014 -0.0745
  302MOL0     H40744   7.613   9.348   2.798 -2.7683  0.9279  2.1108
  302MOL0     H40745   7.682   9.505   2.789  2.2717 -0.9452 -1.7955
  302MOL0     H40746   7.638   9.365   3.049 -2.1788 -2.0571 -0.9643
  302MOL0     H40747   7.673   9.533   3.031  3.2890 -2.1839  2.9225
  302MOL0     H40748   7.410   9.407   3.010 -1.3953  1.8398  0.6385
  302MOL0     H40749   7.456   9.488   2.867 -1.1762 -3.9075 -0.7515
  302MOL0     H40750   7.338   9.642   3.010  1.2633  2.2536 -3.3265
  302MOL0     H40751   7.498   9.695   2.995 -0.7908  0.3489 -1.0992
  302MOL0     H40752   8.423   9.567   2.963  0.8632 -2.7395 -0.9064
  302MOL0     H40753   8.591   9.655   3.066 -2.1505 -1.2937 -2.4041
  302MOL0     H40754   8.892   9.731   3.231  0.8580 -0.1555 -0.6653
  302MOL0     H40755   9.099   9.797   3.305  0.0124  0.4996  1.2271
  302MOL0     H40756  10.222  10.076   2.578 -0.7634 -0.2649 -1.2241
  302MOL0     H40757  10.223  10.069   2.335 -0.7134 -2.1071  1.9546
  302MOL0     H40758   9.911  10.193   1.984  1.0276 -1.6084  3.3262
  302MOL0     H40759   9.868  10.112   1.762  0.7799 -3.1435  0.4296
  302MOL0     H40760  10.144  10.171   1.451 -0.8541  0.1517 -2.4038
  302MOL0     H40761  10.169   9.984   1.454 -1.1929 -0.2089  0.5205
  302MOL0     H40762   9.923   9.980   1.377 -1.8128 -0.6993 -3.3241
  302MOL0     H40763  10.053  10.016   1.262  1.7623  1.4127  0.8203
  302MOL0     H40764  10.016  10.265   1.282  0.7115 -0.3906  0.0763
  302MOL0     H40765   9.884  10.231   1.403  1.7070  2.4788 -0.3837
  302MOL0     H40766   9.785  10.093   1.212  1.1878  0.1351  3.2643
  302MOL0     H40767   9.905  10.182   1.117  0.1392 -1.7407  0.5573
  302MOL0     H40768   9.680  10.523   1.182  3.0848  0.9397 -0.1056
  302MOL0     H40769  10.293  10.109   1.674 -1.2948  1.2049 -1.7617
  302MOL0     H40770  10.345  10.175   1.903  0.5123 -3.6104 -0.1869
  303MOL0     O40771   7.811   9.437  10.980 -0.0436  0.6804 -0.0735
  303MOL0     C40772   7.850   9.338  10.918  0.1547 -0.9611 -0.2475
  303MOL0     O40773   7.987   9.322  10.876  0.0518 -0.0013 -0.1666
  303MOL0     C40774   8.091   9.403  10.912 -0.7945 -0.3388 -0.8028
  303MOL0     C40775   8.094   9.478  11.025 -0.3851  0.0271 -0.0730
  303MOL0     C40776   8.203   9.574  11.044 -0.5389 -0.3718  0.3656
  303MOL0     C40777   8.306   9.587  10.943  1.1687 -0.1518  1.5373
  303MOL0     O40778   8.393   9.690  10.926  0.1779 -0.1535 -0.4098
  303MOL0     C40779   8.367   9.814  10.989 -0.1696  0.8154  0.2258
  303MOL0     C40780   8.485   9.901  10.947  0.2344 -0.0846 -0.7821
  303MOL0     C40781   8.461  10.052  10.961  0.1634  0.0386 -0.3151
  303MOL0     C40782   8.592  10.128  10.928 -0.0410 -0.2732  0.5307
  303MOL0     C40783   8.562  10.273  10.871  1.1295  0.1704 -0.4610
  303MOL0     C40784   8.550  10.372  10.990  0.0872 -0.7136 -0.4115
  303MOL0     C40785   8.553  10.517  10.950  0.7018 -0.0556 -0.1001
  303MOL0     C40786   8.673  10.565  10.859  1.1025  0.0622 -0.1819
  303MOL0     N40787   8.652  10.712  10.862  0.6127 -0.6469  0.2680
  303MOL0     C40788   8.545  10.777  10.793 -0.8644  0.2690 -0.1841
  303MOL0     C40789   8.575  10.906  10.812  0.1417  0.0879  0.4012
  303MOL0     C40790   8.486  11.017  10.763  0.5057 -0.5086 -0.3426
  303MOL0     C40791   8.366  11.029  10.864  0.2767  0.3470 -1.2922
  303MOL0     C40792   8.404  11.074  11.013  0.0853 -0.8654  0.8140
  303MOL0     C40793   8.437  10.960  11.111 -0.0687 -0.4341 -0.2840
  303MOL0     O40794   8.378  10.970  11.247 -0.4869 -0.5758  0.3751
  303MOL0     C40795   8.462  11.027  11.336 -0.1183 -0.0692 -0.0805
  303MOL0     C40796   8.479  10.973  11.460 -0.4300 -0.5036 -0.1336
  303MOL0     C40797   8.559  11.026  11.562 -0.8683 -0.3933  0.0027
  303MOL0     C40798   8.565  10.961  11.694 -0.2036  0.1681  0.4022
  303MOL0     C40799   8.629  11.157  11.535 -0.8495  0.3612  0.2383
  303MOL0     C40800   8.711  11.231  11.638 -0.5893 -1.0003 -0.2340
  303MOL0     O40801   8.741  11.180  11.764  0.0256 -0.0779  0.7141
  303MOL0     C40802   8.847  11.239  11.838 -0.9387  0.5433  1.2117
  303MOL0     C40803   8.823  11.354  11.918  0.2720  0.4967  0.0031
  303MOL0     C40804   8.911  11.403  12.010  0.8858 -0.1284  0.1589
  303MOL0     C40805   9.042  11.346  12.015  0.4642  0.0321  0.0598
  303MOL0     O40806   9.108  11.386  12.124  0.3577 -0.5241  0.3742
  303MOL0     C40807   9.245  11.432  12.105 -0.3444 -0.4113 -0.0279
  303MOL0     C40808   9.262  11.573  12.123  0.7363  0.6692  0.4168
  303MOL0     C40809   9.391  11.621  12.069 -0.0252 -0.5228 -0.5492
  303MOL0     C40810   9.427  11.760  12.125  0.8109  0.2124  0.0420
  303MOL0     C40811   9.559  11.811  12.079 -0.1306 -0.0320  0.2335
  303MOL0     C40812   9.574  11.961  12.123 -0.0020  0.2767  0.4255
  303MOL0     C40813   9.707  12.017  12.078 -0.0135 -0.2342  0.0036
  303MOL0     C40814   9.724  12.007  11.923 -0.1396 -0.0080 -0.0415
  303MOL0    Cl40815   9.587  12.057  11.839 -0.3578 -0.8919  0.7467
  303MOL0     C40816   9.072  11.236  11.940 -0.0508 -0.0436  0.2630
  303MOL0     C40817   8.980  11.189  11.846 -0.2171  0.5492 -0.6997
  303MOL0     O40818   8.751  11.347  11.595  0.7100 -0.4247  0.1726
  303MOL0     C40819   8.613  11.207  11.403 -0.3635  0.3253 -0.0193
  303MOL0     C40820   8.524  11.151  11.311 -0.0896 -0.2697  0.0995
  303MOL0     N40821   8.683  10.917  10.905  0.1466  0.7097 -0.4615
  303MOL0     N40822   8.731  10.797  10.922 -0.9794  0.6702 -0.1690
  303MOL0     C40823   8.305   9.502  10.837  0.3814  0.9128  0.8083
  303MOL0     C40824   8.202   9.414  10.826  0.3794 -0.2709  0.4420
  303MOL0     C40825   7.755   9.228  10.911  0.0336  1.5928 -0.4120
  303MOL0     C40826   7.651   9.213  11.000  0.5355 -0.0897 -0.9309
  303MOL0     C40827   7.562   9.108  10.994  0.1808 -0.1432  0.4419
  303MOL0     C40828   7.576   8.999  10.906  0.4059  0.1131 -0.7897
  303MOL0     O40829   7.476   8.900  10.898  0.0272 -0.8877 -0.0826
  303MOL0     C40830   7.466   8.808  10.788  0.0300 -0.1427  0.3603
  303MOL0     C40831   7.320   8.748  10.788  0.4766  0.0862  1.6007
  303MOL0     C40832   7.303   8.616  10.712  0.1283 -0.5651  0.3114
  303MOL0     C40833   7.152   8.593  10.688 -0.0478  0.1051 -0.4093
  303MOL0     C40834   7.122   8.456  10.638 -0.2108 -1.0182  0.4079
  303MOL0     C40835   7.119   8.350  10.579  0.0548 -0.7714  0.2108
  303MOL0     C40836   7.683   9.005  10.814  0.1137  0.7670 -0.2677
  303MOL0     C40837   7.764   9.115  10.813  0.4599 -0.4919 -0.1748
  303MOL0     H40838   8.009   9.463  11.091 -1.7112  1.4918 -1.3558
  303MOL0     H40839   8.213   9.636  11.133 -3.8541 -0.5298  0.9922
  303MOL0     H40840   8.279   9.858  10.942 -2.4507 -2.6464  0.8704
  303MOL0     H40841   8.353   9.803  11.097  3.4199  0.2842  0.7465
  303MOL0     H40842   8.571   9.879  11.010  1.0016 -1.2745 -2.1731
  303MOL0     H40843   8.506   9.867  10.845  0.8097 -1.2413 -0.2960
  303MOL0     H40844   8.380  10.084  10.895 -0.8310 -2.0415 -0.2048
  303MOL0     H40845   8.425  10.082  11.060 -1.7492 -0.2778 -0.8824
  303MOL0     H40846   8.662  10.122  11.012 -0.1500 -1.2650  0.5674
  303MOL0     H40847   8.646  10.071  10.851 -0.0034  0.3675  0.0838
  303MOL0     H40848   8.649  10.292  10.808  1.6399 -0.8386 -0.0889
  303MOL0     H40849   8.468  10.279  10.816  0.6466  3.1924  0.5086
  303MOL0     H40850   8.456  10.346  11.041  0.5679  1.3807  1.6876
  303MOL0     H40851   8.635  10.364  11.058 -0.7313 -1.8171  0.5246
  303MOL0     H40852   8.466  10.531  10.886 -1.1106 -1.0798  1.9984
  303MOL0     H40853   8.547  10.574  11.043 -0.6564  1.5058 -1.1070
  303MOL0     H40854   8.659  10.535  10.755 -2.1829 -1.7019  0.6334
  303MOL0     H40855   8.765  10.533  10.909  0.2736 -1.0335  0.6890
  303MOL0     H40856   8.465  10.735  10.731 -2.2977 -1.1630  2.4545
  303MOL0     H40857   8.547  11.107  10.778 -1.7531  0.9729  0.6274
  303MOL0     H40858   8.461  11.001  10.657  0.2713 -0.5166 -0.2862
  303MOL0     H40859   8.303  10.940  10.878 -0.1485  0.9544  0.9214
  303MOL0     H40860   8.308  11.108  10.815 -2.1410  0.8581  2.0145
  303MOL0     H40861   8.326  11.140  11.051 -2.3801 -1.8365 -2.1645
  303MOL0     H40862   8.491  11.140  11.002 -0.1828 -0.6462 -0.0724
  303MOL0     H40863   8.544  10.936  11.111 -0.2739 -1.4078  1.0535
  303MOL0     H40864   8.395  10.866  11.077  0.6902 -0.7435 -0.3902
  303MOL0     H40865   8.422  10.885  11.488  1.1874 -1.2538  0.9392
  303MOL0     H40866   8.527  11.031  11.769 -0.0998  0.8641 -0.1873
  303MOL0     H40867   8.502  10.871  11.693  2.5130 -1.8715 -2.1680
  303MOL0     H40868   8.668  10.929  11.710 -0.5491 -2.6120 -2.1384
  303MOL0     H40869   8.717  11.378  11.907 -0.2605 -2.2624 -1.8061
  303MOL0     H40870   8.894  11.468  12.094  1.5618 -0.1273  0.3016
  303MOL0     H40871   9.307  11.394  12.186  0.4910  0.0617 -0.4384
  303MOL0     H40872   9.277  11.392  12.008  0.2127  1.2981 -0.5696
  303MOL0     H40873   9.177  11.631  12.084  0.6344 -1.8343 -3.7445
  303MOL0     H40874   9.256  11.593  12.230  2.9107 -0.1004  0.7394
  303MOL0     H40875   9.392  11.631  11.960  2.7278  1.4596 -0.4566
  303MOL0     H40876   9.477  11.556  12.089 -1.2974 -2.1415 -0.0651
  303MOL0     H40877   9.354  11.832  12.086 -1.4744 -1.0481  1.7444
  303MOL0     H40878   9.428  11.754  12.234  0.0661  1.1593  0.1075
  303MOL0     H40879   9.557  11.805  11.970 -0.5955 -0.4116  0.2594
  303MOL0     H40880   9.647  11.756  12.114 -0.4987 -0.7392  0.0700
  303MOL0     H40881   9.493  12.018  12.078 -2.5012 -3.4211 -0.1724
  303MOL0     H40882   9.578  11.960  12.233  3.1056  3.0303  0.5180
  303MOL0     H40883   9.784  11.958  12.129 -1.2754 -1.6563  0.3550
  303MOL0     H40884   9.703  12.121  12.109 -0.7181 -0.9312  2.4375
  303MOL0     H40885   9.737  11.903  11.890 -2.1690 -0.0419 -0.8808
  303MOL0     H40886   9.812  12.056  11.882 -1.6201  0.4785 -2.9210
  303MOL0     H40887   9.165  11.180  11.942 -1.1735 -2.0041  1.4335
  303MOL0     H40888   8.993  11.101  11.783 -0.7460  1.7227 -2.5590
  303MOL0     H40889   8.668  11.296  11.374  1.3312 -1.5578 -3.1904
  303MOL0     H40890   8.516  11.185  11.209 -2.1731 -0.8986  0.0163
  303MOL0     H40891   8.371   9.531  10.755  1.4907 -2.4107  0.3835
  303MOL0     H40892   8.206   9.358  10.733  1.0048  1.0506 -0.3691
  303MOL0     H40893   7.641   9.290  11.075  2.5652  1.2474 -1.9445
  303MOL0     H40894   7.494   9.092  11.077  1.0604  1.4790  1.5276
  303MOL0     H40895   7.483   8.860  10.693  1.2788  0.3804  0.8511
  303MOL0     H40896   7.537   8.725  10.801 -0.8925 -1.8583 -3.8582
  303MOL0     H40897   7.250   8.826  10.759  3.0951  2.4662  1.2365
  303MOL0     H40898   7.291   8.728  10.891 -1.1640  0.7432  1.2921
  303MOL0     H40899   7.363   8.541  10.765  3.0869  0.7671 -0.9324
  303MOL0     H40900   7.353   8.634  10.617 -2.0149  1.6116 -0.5078
  303MOL0     H40901   7.117   8.661  10.610  0.0896  0.4657 -0.1551
  303MOL0     H40902   7.101   8.628  10.778  0.7734 -2.1745  1.0542
  303MOL0     H40903   7.113   8.253  10.534 -0.5420 -0.8154  0.3823
  303MOL0     H40904   7.705   8.919  10.751  1.6674  0.1873  0.9896
  303MOL0     H40905   7.842   9.117  10.737 -0.4076  0.4581 -1.0838
  304MOL0     O40906   6.576   1.376   1.098 -0.0046  0.2288  0.3010
  304MOL0     C40907   6.659   1.287   1.067  0.7244 -0.1511 -0.2732
  304MOL0     O40908   6.626   1.154   1.060  0.2686  0.7958 -0.6380
  304MOL0     C40909   6.502   1.111   1.101  0.1799 -0.0914  0.4534
  304MOL0     C40910   6.425   1.055   1.000  0.2048  0.7198 -0.2654
  304MOL0     C40911   6.298   1.003   1.028 -0.3036  0.5272  0.4556
  304MOL0     C40912   6.248   1.025   1.160 -0.0059  0.7546  0.1324
  304MOL0     O40913   6.123   0.971   1.191  0.3597 -0.4754 -0.1876
  304MOL0     C40914   6.099   0.837   1.145 -1.0485  0.3810 -0.4008
  304MOL0     C40915   6.154   0.734   1.240  0.9475 -0.6558 -1.6376
  304MOL0     C40916   6.108   0.748   1.388  1.6033 -0.2370  0.0414
  304MOL0     C40917   5.963   0.711   1.409 -0.2392  0.5040  1.6116
  304MOL0     C40918   5.916   0.778   1.540  0.4509 -1.0630  1.1288
  304MOL0     C40919   5.904   0.933   1.549 -0.6524  0.1805  0.4830
  304MOL0     C40920   5.867   0.977   1.694  0.3439 -0.8957 -0.0866
  304MOL0     C40921   5.861   1.135   1.718 -0.6786  1.1916  0.7691
  304MOL0     N40922   5.965   1.215   1.652  0.5502 -1.2739 -0.2096
  304MOL0     C40923   6.093   1.238   1.696 -0.3971 -0.2893 -1.0623
  304MOL0     C40924   6.156   1.313   1.602  1.5310 -0.4759  0.6386
  304MOL0     C40925   6.297   1.378   1.599  0.3152  0.2617  0.0502
  304MOL0     C40926   6.397   1.308   1.687 -0.3236  0.6329  0.0804
  304MOL0     C40927   6.543   1.323   1.654 -0.8692 -0.2293 -0.0855
  304MOL0     C40928   6.638   1.413   1.744  0.2545 -0.7150 -0.2654
  304MOL0     O40929   6.775   1.366   1.752 -0.6534 -0.0780 -0.5038
  304MOL0     C40930   6.856   1.415   1.853  0.0436 -0.6190  1.2421
  304MOL0     C40931   6.975   1.354   1.868  0.5598 -0.3927 -0.1785
  304MOL0     C40932   7.082   1.392   1.954 -0.0887 -0.7190  0.3756
  304MOL0     C40933   7.217   1.333   1.951  0.6094 -0.1863  0.0778
  304MOL0     C40934   7.058   1.504   2.038  0.0590 -0.4950 -0.4383
  304MOL0     C40935   7.148   1.556   2.153 -0.3484  0.4647 -0.0511
  304MOL0     O40936   7.117   1.682   2.191  0.3801 -1.1388 -0.1217
  304MOL0     C40937   7.150   1.726   2.313  0.9746  0.0970 -0.4220
  304MOL0     C40938   7.270   1.783   2.341 -0.6016 -0.0866 -0.6783
  304MOL0     C40939   7.304   1.843   2.460  0.1555  0.2051 -1.0842
  304MOL0     C40940   7.209   1.842   2.562 -0.0880 -0.4780 -0.1841
  304MOL0     O40941   7.244   1.904   2.675  0.5885  0.2487  0.6545
  304MOL0     C40942   7.153   2.005   2.717 -0.6401 -0.2465 -0.2334
  304MOL0     C40943   7.137   2.127   2.618  0.9872  1.1058 -0.2504
  304MOL0     C40944   7.257   2.202   2.592  0.1565 -0.1575 -0.8572
  304MOL0     C40945   7.233   2.324   2.501  0.1779  0.7486 -0.8053
  304MOL0     C40946   7.366   2.400   2.460 -0.7546  0.1049 -0.0255
  304MOL0     C40947   7.436   2.490   2.570  1.2363  0.6362  1.0946
  304MOL0     C40948   7.467   2.624   2.513  0.0718 -1.3704 -0.5126
  304MOL0     C40949   7.532   2.716   2.609  0.1684 -0.0209 -0.7906
  304MOL0    Cl40950   7.574   2.858   2.517  0.0202 -0.0320 -0.1419
  304MOL0     C40951   7.078   1.775   2.543 -1.1453 -0.2654 -0.4289
  304MOL0     C40952   7.059   1.719   2.419  0.3261 -0.4795 -0.4497
  304MOL0     O40953   7.230   1.482   2.211 -0.5365  1.2895 -0.6117
  304MOL0     C40954   6.932   1.566   2.025  0.6015 -0.1193  0.0947
  304MOL0     C40955   6.834   1.528   1.937  0.5164  0.7906  0.7046
  304MOL0     N40956   6.059   1.348   1.507  0.0352  0.1578  0.6539
  304MOL0     N40957   5.951   1.286   1.534  0.6712 -0.9612  0.1458
  304MOL0     C40958   6.322   1.082   1.253 -0.3908 -0.2811  0.3902
  304MOL0     C40959   6.456   1.123   1.225 -0.3988 -0.3584 -0.2833
  304MOL0     C40960   6.796   1.342   1.027 -0.4783  0.5288  0.3406
  304MOL0     C40961   6.901   1.259   0.979 -0.0758  0.0344  0.3071
  304MOL0     C40962   7.033   1.301   0.951 -0.3351 -0.0565 -0.0007
  304MOL0     C40963   7.061   1.438   0.969  0.3152  0.4586 -0.2065
  304MOL0     O40964   7.181   1.487   0.948  0.3757  0.2193 -0.3129
  304MOL0     C40965   7.269   1.437   0.847  0.0646  0.1681  0.8850
  304MOL0     C40966   7.399   1.526   0.863  0.7577 -0.1343 -0.0249
  304MOL0     C40967   7.374   1.673   0.876  0.1770  0.5506  0.3882
  304MOL0     C40968   7.508   1.744   0.897  0.4981  0.1381 -0.2807
  304MOL0     C40969   7.486   1.881   0.929  0.6985  0.1856 -0.3858
  304MOL0     C40970   7.471   1.993   0.959 -1.3665 -0.2022 -0.1696
  304MOL0     C40971   6.960   1.524   1.007 -1.0719 -0.2463 -0.6510
  304MOL0     C40972   6.830   1.476   1.034  0.1573 -0.4919 -0.0567
  304MOL0     H40973   6.476   1.043   0.904 -1.3339 -0.0843 -1.0217
  304MOL0     H40974   6.248   0.957   0.944  2.6652 -0.2571 -1.0218
  304MOL0     H40975   5.993   0.810   1.135 -0.2572 -2.3927 -2.6367
  304MOL0     H40976   6.152   0.809   1.054  0.3148  3.0794 -0.5486
  304MOL0     H40977   6.119   0.638   1.200 -1.5459 -0.1891 -0.7541
  304MOL0     H40978   6.263   0.728   1.245  0.9005 -1.6946 -1.6430
  304MOL0     H40979   6.171   0.693   1.459  1.8631 -1.7180 -1.2730
  304MOL0     H40980   6.119   0.855   1.404 -1.4177  0.7838 -3.3144
  304MOL0     H40981   5.901   0.733   1.322  2.6307  4.7266  0.3286
  304MOL0     H40982   5.967   0.602   1.421  0.4577  0.7118  3.8085
  304MOL0     H40983   5.817   0.737   1.561 -0.1512  0.2487  0.9171
  304MOL0     H40984   5.979   0.740   1.622 -2.5845 -3.3018  2.6302
  304MOL0     H40985   6.000   0.978   1.523  1.2849 -3.3923  0.9058
  304MOL0     H40986   5.820   0.967   1.486 -0.0279 -0.3674 -0.6644
  304MOL0     H40987   5.767   0.937   1.713  0.6073 -1.6893 -0.3499
  304MOL0     H40988   5.948   0.943   1.759  1.8455  2.5829  0.0848
  304MOL0     H40989   5.847   1.167   1.821 -3.1999  2.2382  0.1733
  304MOL0     H40990   5.768   1.159   1.665 -1.3319 -0.5260  1.0429
  304MOL0     H40991   6.151   1.208   1.782  0.6060  2.2727 -0.7486
  304MOL0     H40992   6.332   1.383   1.495 -2.4363  0.2857 -0.9518
  304MOL0     H40993   6.295   1.482   1.633  1.3478 -1.0266  4.8242
  304MOL0     H40994   6.376   1.203   1.669 -0.6191  0.6634  0.2465
  304MOL0     H40995   6.384   1.331   1.793 -0.9425 -2.2392  0.7138
  304MOL0     H40996   6.561   1.349   1.550  1.5375 -4.9054 -1.1079
  304MOL0     H40997   6.588   1.224   1.662  0.2463  0.3606  1.6582
  304MOL0     H40998   6.608   1.417   1.849 -1.7179  1.6561 -0.8354
  304MOL0     H40999   6.637   1.516   1.707  4.8618  2.4091  6.2874
  304MOL0     H41000   6.983   1.275   1.793  4.1779  0.2197 -0.6139
  304MOL0     H41001   7.252   1.326   1.848  0.1493  4.3531 -0.5730
  304MOL0     H41002   7.284   1.408   1.994 -2.3271  1.3282  2.4470
  304MOL0     H41003   7.209   1.233   1.996  1.0737 -0.9187 -1.4172
  304MOL0     H41004   7.339   1.788   2.258 -1.9760  0.8671 -1.8304
  304MOL0     H41005   7.399   1.889   2.485  0.5884 -0.4868 -1.4030
  304MOL0     H41006   7.053   1.965   2.736 -0.8908  0.2672 -0.4550
  304MOL0     H41007   7.181   2.047   2.814 -1.0998  0.5105 -0.4150
  304MOL0     H41008   7.116   2.096   2.515  0.0352 -0.0155  0.2589
  304MOL0     H41009   7.066   2.209   2.633  1.7565  2.1886 -2.1633
  304MOL0     H41010   7.329   2.134   2.544  0.2759 -1.3921  0.9682
  304MOL0     H41011   7.296   2.234   2.689 -1.5734  0.9093 -0.4798
  304MOL0     H41012   7.192   2.285   2.407 -0.0300  1.4302 -0.9978
  304MOL0     H41013   7.164   2.397   2.544  1.2389  2.0187 -1.1760
  304MOL0     H41014   7.337   2.461   2.374  0.4647  1.1932  0.3041
  304MOL0     H41015   7.437   2.323   2.427 -2.2987 -0.7072 -1.5936
  304MOL0     H41016   7.357   2.503   2.644  0.9506 -0.7602  1.0557
  304MOL0     H41017   7.525   2.442   2.611  0.8741 -1.3272 -0.3047
  304MOL0     H41018   7.381   2.685   2.481 -1.0694 -2.5635  0.1550
  304MOL0     H41019   7.530   2.605   2.426  1.0083 -1.6564  0.2184
  304MOL0     H41020   7.625   2.671   2.646  0.3676  2.0937  1.5391
  304MOL0     H41021   7.482   2.747   2.700  3.3702  3.1247  0.1360
  304MOL0     H41022   6.998   1.792   2.616 -1.3663  1.5267 -1.0455
  304MOL0     H41023   6.963   1.671   2.402 -0.0027  0.0739 -0.1736
  304MOL0     H41024   6.903   1.639   2.100 -0.2276 -1.8408  1.5333
  304MOL0     H41025   6.751   1.597   1.923  2.7402  3.2482 -1.9941
  304MOL0     H41026   6.270   1.095   1.348  0.0103  0.3667  0.5282
  304MOL0     H41027   6.522   1.165   1.300  0.1178 -0.8769 -0.4340
  304MOL0     H41028   6.885   1.154   0.959  0.5807 -0.6670  3.1014
  304MOL0     H41029   7.092   1.224   0.904  1.0022 -0.1304  1.7136
  304MOL0     H41030   7.298   1.332   0.861  2.1667  0.5337 -0.3194
  304MOL0     H41031   7.230   1.451   0.746  1.0724  0.4924  0.5285
  304MOL0     H41032   7.467   1.502   0.781 -0.6215 -1.6780 -0.7764
  304MOL0     H41033   7.442   1.497   0.960  3.4846 -4.1752 -2.1176
  304MOL0     H41034   7.313   1.683   0.967  0.5374 -3.8736  1.3688
  304MOL0     H41035   7.316   1.700   0.787  1.3243 -1.0037 -0.8794
  304MOL0     H41036   7.564   1.740   0.804 -1.7097  3.1820 -1.9171
  304MOL0     H41037   7.566   1.705   0.981 -0.6984  2.4438  1.7558
  304MOL0     H41038   7.482   2.096   0.986  3.1797  0.1437 -2.4153
  304MOL0     H41039   6.985   1.628   1.027 -3.1123  0.4060 -1.2822
  304MOL0     H41040   6.760   1.543   1.083 -2.1399 -0.7714 -2.7126
  305MOL0     O41041  10.472   9.844  10.507 -0.3841  0.3678 -0.0289
  305MOL0     C41042  10.592   9.837  10.476  1.5641  0.3920 -0.7921
  305MOL0     O41043  10.665   9.941  10.478 -0.2058  0.2793 -0.0854
  305MOL0     C41044  10.621  10.070  10.487  0.3152 -0.3528  0.4948
  305MOL0     C41045  10.512  10.121  10.552  0.2977  0.4202  0.4076
  305MOL0     C41046  10.489  10.257  10.567  0.1634  0.2396 -0.0193
  305MOL0     C41047  10.583  10.347  10.513  0.7929 -0.0056 -0.1265
  305MOL0     O41048  10.542  10.479  10.535 -0.4138  0.5085 -1.0693
  305MOL0     C41049  10.630  10.571  10.470  0.2210 -0.1820  0.8391
  305MOL0     C41050  10.556  10.703  10.466 -0.0109 -0.5953 -0.1469
  305MOL0     C41051  10.499  10.757  10.603 -0.3488  0.6258  0.6183
  305MOL0     C41052  10.608  10.822  10.692  0.3378 -0.6107  0.3757
  305MOL0     C41053  10.538  10.856  10.829 -0.0144 -0.3624 -0.5000
  305MOL0     C41054  10.638  10.920  10.924 -0.1059  0.3567 -0.5083
  305MOL0     C41055  10.567  10.964  11.056 -0.4394 -0.1990 -0.3914
  305MOL0     C41056  10.666  11.011  11.167  0.5231 -0.2434 -0.8699
  305MOL0     N41057  10.727  10.906  11.228 -0.3962 -0.5560  0.0786
  305MOL0     C41058  10.855  10.874  11.203 -0.7333  1.0498 -0.0838
  305MOL0     C41059  10.856  10.744  11.252 -0.1560 -0.3904 -0.2764
  305MOL0     C41060  10.981  10.652  11.264 -0.7161 -0.4079 -0.2346
  305MOL0     C41061  11.027  10.592  11.136 -0.1671  0.6118  0.2117
  305MOL0     C41062  10.921  10.580  11.028  0.1481  0.1425  0.6736
  305MOL0     C41063  10.992  10.533  10.894 -0.4757 -0.3116  0.2912
  305MOL0     O41064  10.910  10.525  10.776 -0.4950  0.5198  0.1577
  305MOL0     C41065  10.834  10.404  10.784 -0.0994 -0.0933 -0.3003
  305MOL0     C41066  10.715  10.402  10.850 -0.3479 -0.6966 -0.2541
  305MOL0     C41067  10.649  10.281  10.873 -0.2059 -0.1903 -0.1819
  305MOL0     C41068  10.507  10.286  10.928 -0.1005 -0.3694 -0.0291
  305MOL0     C41069  10.720  10.163  10.846 -0.6201  0.2269 -0.3663
  305MOL0     C41070  10.678  10.027  10.876 -0.1185  0.2958 -0.5197
  305MOL0     O41071  10.732   9.925  10.799  0.1281 -0.7639 -0.1677
  305MOL0     C41072  10.681   9.801  10.812 -0.3563 -0.0743 -0.3747
  305MOL0     C41073  10.543   9.768  10.797  0.4268 -0.1697  0.0606
  305MOL0     C41074  10.502   9.637  10.807  0.0211 -0.4201  0.0618
  305MOL0     C41075  10.594   9.533  10.802  0.8902  0.2590  0.2014
  305MOL0     O41076  10.541   9.405  10.790 -0.6942 -0.6580 -0.7264
  305MOL0     C41077  10.619   9.288  10.810 -0.6476 -0.4402  0.5854
  305MOL0     C41078  10.721   9.256  10.696  0.6904 -0.2598  0.0916
  305MOL0     C41079  10.816   9.143  10.720  0.1137  0.9392 -0.3021
  305MOL0     C41080  10.753   8.993  10.723  0.1547  0.3704 -0.6926
  305MOL0     C41081  10.845   8.873  10.699  0.5719  0.2101  0.2477
  305MOL0     C41082  10.771   8.731  10.729 -0.4161 -0.3306 -0.5953
  305MOL0     C41083  10.741   8.701  10.888 -0.4533  0.6157  0.1120
  305MOL0     C41084  10.686   8.558  10.920  0.5654 -0.3245  0.2778
  305MOL0    Cl41085  10.804   8.439  10.889  0.0377  0.0164  0.0112
  305MOL0     C41086  10.729   9.565  10.824 -0.1017 -0.3317 -0.3911
  305MOL0     C41087  10.770   9.699  10.832  0.3021  0.4951  0.3253
  305MOL0     O41088  10.608  10.010  10.977 -0.2668  0.0066  0.1897
  305MOL0     C41089  10.852  10.173  10.788 -0.4034 -0.7441  0.0951
  305MOL0     C41090  10.903  10.290  10.755  0.5779 -0.4791  0.5780
  305MOL0     N41091  10.734  10.707  11.297  0.3703  0.6631  0.1330
  305MOL0     N41092  10.655  10.810  11.292  0.0977 -0.6150  0.3954
  305MOL0     C41093  10.695  10.297  10.442 -0.3622  0.1086 -0.4726
  305MOL0     C41094  10.710  10.159  10.431  0.1411  1.2913  0.8382
  305MOL0     C41095  10.643   9.702  10.453 -0.2462  0.0798 -0.8188
  305MOL0     C41096  10.567   9.582  10.476  0.4187 -0.5418 -1.1367
  305MOL0     C41097  10.620   9.465  10.434 -0.2712  0.0916 -0.3976
  305MOL0     C41098  10.758   9.451  10.376 -0.5071  0.0787 -0.2605
  305MOL0     O41099  10.781   9.334  10.315 -0.2453  0.1859 -0.5672
  305MOL0     C41100  10.911   9.322  10.260  0.8597 -0.6135  1.0599
  305MOL0     C41101  10.927   9.178  10.203  0.2514 -0.3266 -1.0507
  305MOL0     C41102  10.809   9.141  10.106  0.0656 -0.7058  0.3616
  305MOL0     C41103  10.769   8.993  10.126  0.3594 -0.3290 -0.1160
  305MOL0     C41104  10.848   8.913  10.033 -0.6110 -0.3911 -0.1106
  305MOL0     C41105  10.904   8.838   9.957 -0.6693 -0.5833  0.1886
  305MOL0     C41106  10.829   9.571  10.365 -0.6930  0.5188  0.0182
  305MOL0     C41107  10.774   9.694  10.401  0.1447 -1.0313  0.7836
  305MOL0     H41108  10.470  10.047  10.619  2.3559 -1.0168  0.2079
  305MOL0     H41109  10.406  10.289  10.630  0.0780  0.2271 -0.1263
  305MOL0     H41110  10.722  10.574  10.529 -0.1006 -0.6735  1.3788
  305MOL0     H41111  10.644  10.541  10.366 -0.6737 -1.2306  0.9965
  305MOL0     H41112  10.621  10.774  10.414  2.4346  0.2599  3.6552
  305MOL0     H41113  10.468  10.689  10.403  0.2707 -0.3079 -0.6062
  305MOL0     H41114  10.420  10.826  10.573  0.1094  1.1166  0.5172
  305MOL0     H41115  10.464  10.664  10.648  1.1038  0.3457  1.2299
  305MOL0     H41116  10.694  10.754  10.691 -0.1536 -1.2777  1.4939
  305MOL0     H41117  10.651  10.915  10.654 -0.5018 -0.2612  0.2592
  305MOL0     H41118  10.446  10.912  10.813  0.8046  0.5635 -2.2231
  305MOL0     H41119  10.526  10.756  10.873  3.9256 -0.4918  0.6489
  305MOL0     H41120  10.716  10.853  10.961 -1.1102  0.1328  1.3347
  305MOL0     H41121  10.688  11.003  10.873  0.4169  0.5600  0.3105
  305MOL0     H41122  10.503  11.051  11.039 -0.0023  1.4989  4.9639
  305MOL0     H41123  10.508  10.878  11.089  1.6413 -1.0925  1.2362
  305MOL0     H41124  10.614  11.071  11.243 -2.1887 -0.9982 -1.9925
  305MOL0     H41125  10.737  11.077  11.118 -3.3929  2.0012 -4.1239
  305MOL0     H41126  10.941  10.930  11.167  1.5318 -1.1616  1.5290
  305MOL0     H41127  11.066  10.706  11.307  0.7926 -2.5220 -0.4458
  305MOL0     H41128  10.955  10.582  11.344 -3.2258  0.6743 -0.0150
  305MOL0     H41129  11.044  10.486  11.158 -3.3617 -0.1664 -0.6250
  305MOL0     H41130  11.125  10.630  11.106  0.1462  0.7644  1.3822
  305MOL0     H41131  10.868  10.674  11.011 -1.0280 -0.5756  0.2857
  305MOL0     H41132  10.837  10.514  11.049  2.3322 -2.7775  0.7715
  305MOL0     H41133  11.037  10.436  10.917  0.4024 -0.0614 -0.3036
  305MOL0     H41134  11.073  10.604  10.875 -2.2286  1.8828  0.5440
  305MOL0     H41135  10.666  10.495  10.875  0.5825 -0.1644 -0.3661
  305MOL0     H41136  10.453  10.191  10.923  1.4337 -1.2363 -3.8687
  305MOL0     H41137  10.509  10.323  11.030 -2.4067  3.1490 -1.0795
  305MOL0     H41138  10.446  10.358  10.872  1.0350 -0.5157 -1.5055
  305MOL0     H41139  10.469   9.847  10.785  1.7770  0.9558 -1.1509
  305MOL0     H41140  10.398   9.605  10.807  0.7978 -3.2929 -1.7359
  305MOL0     H41141  10.671   9.293  10.906 -4.9740 -1.8434  3.3029
  305MOL0     H41142  10.549   9.205  10.818 -2.2197  1.0170  3.3394
  305MOL0     H41143  10.674   9.230  10.601  1.6823 -1.3222 -0.1287
  305MOL0     H41144  10.787   9.341  10.675  2.2084 -0.8263  2.2105
  305MOL0     H41145  10.863   9.161  10.818 -2.0633 -0.3196  1.0509
  305MOL0     H41146  10.905   9.142  10.656  1.2680 -2.4946  1.0799
  305MOL0     H41147  10.699   8.993  10.818 -0.0443  1.3892 -0.7881
  305MOL0     H41148  10.675   8.988  10.646  0.3481 -1.1681 -0.8114
  305MOL0     H41149  10.943   8.882  10.745  0.2083  0.4457  0.9886
  305MOL0     H41150  10.873   8.890  10.595  4.3238  0.2585  1.1350
  305MOL0     H41151  10.683   8.727  10.664 -0.5615 -2.8724 -0.3253
  305MOL0     H41152  10.835   8.648  10.700 -0.5690 -0.2173 -1.2903
  305MOL0     H41153  10.676   8.786  10.912  0.8412  1.1779  1.8294
  305MOL0     H41154  10.833   8.721  10.943  0.1237 -0.6467 -0.3702
  305MOL0     H41155  10.594   8.541  10.863  0.9419 -1.6771  0.0564
  305MOL0     H41156  10.644   8.546  11.020 -0.5325 -1.1493 -0.2632
  305MOL0     H41157  10.814   9.498  10.833  0.3162  0.1622 -0.5863
  305MOL0     H41158  10.876   9.723  10.834  0.0613  1.5398  1.3064
  305MOL0     H41159  10.912  10.090  10.751 -1.5752 -0.4773 -2.7067
  305MOL0     H41160  11.000  10.287  10.707  0.4012 -4.7798  0.1416
  305MOL0     H41161  10.762  10.357  10.380 -3.3240 -2.2352 -6.8151
  305MOL0     H41162  10.797  10.124  10.375 -1.9469 -3.1466  0.0023
  305MOL0     H41163  10.467   9.583  10.519  0.1805 -2.9549 -1.4710
  305MOL0     H41164  10.563   9.374  10.449  2.4559 -1.6475 -0.0200
  305MOL0     H41165  10.931   9.393  10.178  3.1747 -0.3576  1.7874
  305MOL0     H41166  10.994   9.343  10.328  0.7507  1.9029  0.5113
  305MOL0     H41167  10.943   9.115  10.291 -3.2187  1.8548  1.4419
  305MOL0     H41168  11.022   9.180  10.151  1.6751 -0.1088  1.3900
  305MOL0     H41169  10.847   9.158  10.005  2.0081 -0.2914  1.1017
  305MOL0     H41170  10.718   9.201  10.116  1.4783  1.5098  0.9310
  305MOL0     H41171  10.666   8.985  10.091  1.5349  0.1291 -4.3256
  305MOL0     H41172  10.770   8.957  10.229  1.3964 -0.0617 -0.0191
  305MOL0     H41173  10.961   8.777   9.890 -1.2458 -0.1159 -0.7699
  305MOL0     H41174  10.926   9.567  10.317 -0.5328 -2.3952  0.4099
  305MOL0     H41175  10.825   9.790  10.394  0.3927 -1.0035  2.4542
  306MOL0     O41176   2.421   6.012   9.060  0.5572  0.1089 -0.3041
  306MOL0     C41177   2.443   6.007   8.942  0.0848 -1.0170 -1.0201
  306MOL0     O41178   2.403   5.911   8.859 -0.5426 -0.6102  0.0192
  306MOL0     C41179   2.314   5.818   8.914  0.8636 -0.2834  0.6038
  306MOL0     C41180   2.191   5.850   8.966  0.3045 -0.2137  0.0310
  306MOL0     C41181   2.107   5.753   9.024  0.0388 -0.4426  0.3962
  306MOL0     C41182   2.144   5.619   9.025 -0.9122  1.1653 -0.5933
  306MOL0     O41183   2.091   5.523   9.095  0.0163 -0.2322  0.2004
  306MOL0     C41184   2.023   5.411   9.041  0.7499 -1.5920  0.2007
  306MOL0     C41185   1.880   5.453   9.012  0.2478  0.3448  0.1457
  306MOL0     C41186   1.799   5.331   8.971  0.1041  0.0211  0.4019
  306MOL0     C41187   1.655   5.377   8.932 -0.4702  0.6964  0.7014
  306MOL0     C41188   1.564   5.253   8.932  0.2794  0.4512  0.1580
  306MOL0     C41189   1.427   5.275   8.859 -1.6750  0.6085  0.4212
  306MOL0     C41190   1.328   5.155   8.883  0.2625  0.8231  0.8784
  306MOL0     C41191   1.241   5.138   8.754  0.7958  0.7015 -0.2212
  306MOL0     N41192   1.134   5.039   8.782  0.0559 -0.4549 -0.1728
  306MOL0     C41193   1.045   5.033   8.898 -0.6168 -0.9929  0.4101
  306MOL0     C41194   1.002   4.902   8.896  0.1746 -0.0040 -0.8372
  306MOL0     C41195   0.910   4.824   8.997  0.1293 -0.6534  0.3925
  306MOL0     C41196   0.758   4.866   8.979 -0.2430  0.0162  0.9246
  306MOL0     C41197   0.659   4.757   9.006 -0.6101 -0.5215  0.2795
  306MOL0     C41198   0.648   4.634   8.916 -0.7850  0.0295 -0.0817
  306MOL0     O41199   0.570   4.525   8.982 -0.0907 -0.4154  0.5079
  306MOL0     C41200   0.548   4.406   8.917 -0.6828 -0.5022 -0.4745
  306MOL0     C41201   0.578   4.378   8.784 -0.5993 -0.1335  0.1129
  306MOL0     C41202   0.548   4.256   8.726 -1.2567  0.9967  0.2541
  306MOL0     C41203   0.596   4.225   8.590  0.0096  0.0483 -0.4575
  306MOL0     C41204   0.480   4.159   8.812 -0.5960  0.0734  0.0364
  306MOL0     C41205   0.436   4.024   8.761  0.2261 -0.2185 -1.1966
  306MOL0     O41206   0.308   3.999   8.768 -0.0630  0.0828  0.4913
  306MOL0     C41207   0.262   3.873   8.733  0.3828 -0.4681 -0.6600
  306MOL0     C41208   0.256   3.776   8.828  0.0269 -0.1335 -0.1053
  306MOL0     C41209   0.185   3.654   8.802 -0.1097  1.3315 -0.7353
  306MOL0     C41210   0.127   3.632   8.676 -0.7410 -1.0912  0.1492
  306MOL0     O41211   0.054   3.518   8.634 -0.2440  0.0454  0.5628
  306MOL0     C41212   0.005   3.426   8.730  0.2187 -0.3758  0.1384
  306MOL0     C41213  -0.109   3.485   8.820  0.1144 -0.0068  1.5592
  306MOL0     C41214  -0.236   3.400   8.786  0.3622  0.0527  0.0612
  306MOL0     C41215  -0.239   3.279   8.871 -0.1343  0.6162  0.1863
  306MOL0     C41216  -0.379   3.207   8.882  0.0230 -0.1800  0.1911
  306MOL0     C41217  -0.371   3.057   8.917  0.3805  1.1424  0.3281
  306MOL0     C41218  -0.369   3.019   9.065 -0.5518  0.7082 -0.0850
  306MOL0     C41219  -0.254   3.073   9.136 -0.2512 -0.2839  0.1573
  306MOL0    Cl41220  -0.261   3.021   9.311  0.2833  0.1356 -0.4692
  306MOL0     C41221   0.144   3.731   8.574  0.7602 -0.3927  0.6884
  306MOL0     C41222   0.216   3.855   8.597 -0.2624  0.3836 -0.5110
  306MOL0     O41223   0.522   3.953   8.718 -0.6266  0.4550  0.3611
  306MOL0     C41224   0.443   4.195   8.944 -0.4880  1.3152  0.6156
  306MOL0     C41225   0.485   4.313   8.998  0.3586  0.6601  0.1499
  306MOL0     N41226   1.039   4.843   8.780  1.4705 -0.4057 -1.1760
  306MOL0     N41227   1.119   4.917   8.719 -0.1210  0.3668 -0.2128
  306MOL0     C41228   2.260   5.583   8.958 -0.9146  0.5951  0.7861
  306MOL0     C41229   2.338   5.679   8.884 -0.1091 -0.3520  0.2521
  306MOL0     C41230   2.510   6.123   8.881 -0.0512  0.0069  0.3755
  306MOL0     C41231   2.558   6.120   8.754 -1.3444 -0.6220  0.4446
  306MOL0     C41232   2.638   6.225   8.705  0.6825  0.1256 -0.3192
  306MOL0     C41233   2.676   6.326   8.786 -0.7657 -0.0654 -1.1375
  306MOL0     O41234   2.764   6.417   8.742  0.0337 -0.2877 -0.2898
  306MOL0     C41235   2.709   6.539   8.713 -0.8949 -1.4290  0.2973
  306MOL0     C41236   2.758   6.599   8.572 -0.2001 -0.3319 -0.2333
  306MOL0     C41237   2.661   6.574   8.461  0.2254  0.8668  0.0485
  306MOL0     C41238   2.724   6.524   8.339 -0.0446  1.3032  0.8189
  306MOL0     C41239   2.725   6.378   8.338 -0.3099  0.0500 -0.0747
  306MOL0     C41240   2.713   6.261   8.317 -0.7314 -0.0007  0.0851
  306MOL0     C41241   2.628   6.329   8.915  0.3433  0.3863  0.2144
  306MOL0     C41242   2.541   6.232   8.964  0.4285 -0.2048  1.1310
  306MOL0     H41243   2.173   5.957   8.966  2.7585  0.2643  1.1260
  306MOL0     H41244   2.024   5.783   9.087  2.1373 -2.1503  4.3738
  306MOL0     H41245   2.064   5.374   8.947 -2.7025 -1.2404 -1.6093
  306MOL0     H41246   2.015   5.331   9.115  1.5429 -1.9802 -0.1250
  306MOL0     H41247   1.842   5.506   9.100 -0.2783  3.1092 -1.6155
  306MOL0     H41248   1.876   5.527   8.932 -0.7704 -0.7319 -0.8351
  306MOL0     H41249   1.856   5.280   8.893  2.4353  0.3268  1.8238
  306MOL0     H41250   1.775   5.259   9.050 -3.3780 -1.9534 -2.1703
  306MOL0     H41251   1.622   5.448   9.008 -0.9333 -0.7341  1.8807
  306MOL0     H41252   1.664   5.425   8.834  2.3447 -0.2706  0.3952
  306MOL0     H41253   1.609   5.163   8.891  0.5243  0.5314  0.2491
  306MOL0     H41254   1.543   5.220   9.034  6.5999 -2.3748  1.0310
  306MOL0     H41255   1.397   5.375   8.893  2.7242  2.4624 -0.4544
  306MOL0     H41256   1.454   5.295   8.755  2.0004  1.0289  1.3339
  306MOL0     H41257   1.386   5.064   8.897  2.9677  2.3921  0.5622
  306MOL0     H41258   1.265   5.179   8.969 -4.1396 -2.5280 -1.0361
  306MOL0     H41259   1.290   5.105   8.663 -0.8779  0.2902 -1.0115
  306MOL0     H41260   1.189   5.231   8.730 -1.5894 -0.8393 -1.3960
  306MOL0     H41261   1.038   5.109   8.975  0.2022  1.9234 -2.1943
  306MOL0     H41262   0.910   4.717   8.973 -1.5559 -0.6458  0.2185
  306MOL0     H41263   0.940   4.854   9.097  0.5672  0.7870 -0.1414
  306MOL0     H41264   0.738   4.917   8.885 -0.4955 -0.4036  0.7459
  306MOL0     H41265   0.733   4.941   9.055  1.1356  0.1154  1.3113
  306MOL0     H41266   0.559   4.799   9.014 -0.4693 -0.0810 -0.2046
  306MOL0     H41267   0.698   4.723   9.102  1.2482  1.4270  0.3036
  306MOL0     H41268   0.745   4.588   8.893  0.9958  3.0112  0.8750
  306MOL0     H41269   0.603   4.659   8.819  3.6080  1.5234 -2.0209
  306MOL0     H41270   0.635   4.439   8.715 -0.3986 -3.6156 -3.1062
  306MOL0     H41271   0.644   4.127   8.595 -1.7752 -0.8092  2.4749
  306MOL0     H41272   0.517   4.228   8.515  0.6118 -1.9686 -1.2473
  306MOL0     H41273   0.684   4.287   8.568  1.8229 -1.7661  1.1995
  306MOL0     H41274   0.277   3.794   8.933  0.1007 -1.4807  0.1187
  306MOL0     H41275   0.188   3.580   8.881  4.5804  0.8989 -1.0275
  306MOL0     H41276  -0.028   3.339   8.672 -2.0973  1.9757 -2.3523
  306MOL0     H41277   0.096   3.387   8.778  1.0740 -1.7879 -2.4191
  306MOL0     H41278  -0.079   3.474   8.925 -2.4083 -2.0860  2.1778
  306MOL0     H41279  -0.128   3.588   8.788  0.4179 -0.7806 -1.3667
  306MOL0     H41280  -0.248   3.382   8.679 -1.1721  0.7454  0.0951
  306MOL0     H41281  -0.325   3.457   8.814  1.4091  1.6613  0.1961
  306MOL0     H41282  -0.167   3.205   8.836 -0.3859 -0.0416  1.0346
  306MOL0     H41283  -0.207   3.304   8.973 -0.2976  3.2881 -0.3377
  306MOL0     H41284  -0.447   3.210   8.796 -1.0894 -2.6067  0.8976
  306MOL0     H41285  -0.441   3.262   8.955 -1.5130  2.1096 -2.6180
  306MOL0     H41286  -0.459   3.014   8.870 -0.0596  0.2031  1.9183
  306MOL0     H41287  -0.287   3.009   8.866 -1.3860 -2.0514  0.1563
  306MOL0     H41288  -0.351   2.911   9.074  0.5062  0.4937 -3.5092
  306MOL0     H41289  -0.453   3.058   9.123 -0.6476 -0.0260  0.2893
  306MOL0     H41290  -0.265   3.181   9.135 -1.6383 -0.3933  0.9234
  306MOL0     H41291  -0.155   3.045   9.100 -0.1220  0.2819  0.0743
  306MOL0     H41292   0.090   3.712   8.481 -0.4976  0.1975  1.2778
  306MOL0     H41293   0.233   3.922   8.513  0.3865 -1.2432 -1.7354
  306MOL0     H41294   0.390   4.130   9.013  1.4586 -0.7418  0.2744
  306MOL0     H41295   0.466   4.334   9.103 -0.7388  0.6381 -0.0323
  306MOL0     H41296   2.282   5.477   8.948 -0.6901  0.4826  2.2298
  306MOL0     H41297   2.422   5.652   8.821 -1.4398  1.0875 -2.3000
  306MOL0     H41298   2.541   6.036   8.687  1.1373 -0.4320 -0.5057
  306MOL0     H41299   2.683   6.219   8.606  0.0290  2.8496 -0.8744
  306MOL0     H41300   2.600   6.533   8.717 -0.9231 -0.6683  3.0487
  306MOL0     H41301   2.733   6.610   8.793  0.7069  2.3575 -3.1598
  306MOL0     H41302   2.852   6.559   8.535 -0.6441 -1.4965 -0.1465
  306MOL0     H41303   2.768   6.707   8.580  2.7375 -0.5189 -0.3581
  306MOL0     H41304   2.632   6.676   8.437  0.3376  0.7627 -0.5621
  306MOL0     H41305   2.571   6.518   8.486  0.1990  0.0736 -1.6530
  306MOL0     H41306   2.821   6.566   8.313 -0.6942  0.4993 -3.7951
  306MOL0     H41307   2.652   6.549   8.261  0.1327 -2.1958 -0.6508
  306MOL0     H41308   2.697   6.155   8.314 -0.3733 -0.0455 -0.2769
  306MOL0     H41309   2.655   6.405   8.987  0.4276  0.8527 -0.3073
  306MOL0     H41310   2.509   6.238   9.067  0.2959 -0.9473  1.1352
  307MOL0     O41311   0.405   5.721  10.708  0.1833  0.7847 -0.7165
  307MOL0     C41312   0.404   5.768  10.593 -0.5035  0.4436  0.1706
  307MOL0     O41313   0.389   5.698  10.477  0.5346  0.5344  0.0419
  307MOL0     C41314   0.406   5.562  10.488  0.0289  0.0735 -0.3968
  307MOL0     C41315   0.540   5.515  10.476 -0.0781 -0.2859  0.0478
  307MOL0     C41316   0.581   5.384  10.500  0.3609 -0.6648  0.2934
  307MOL0     C41317   0.487   5.291  10.534  0.5260  0.1458  0.5008
  307MOL0     O41318   0.522   5.162  10.552  0.1988  1.2870  0.5215
  307MOL0     C41319   0.542   5.129  10.688 -0.0134 -0.2892  0.2354
  307MOL0     C41320   0.640   5.012  10.701 -0.2585  0.4972 -0.7657
  307MOL0     C41321   0.576   4.884  10.658  0.1962 -0.1042  0.2751
  307MOL0     C41322   0.646   4.744  10.712  0.3403 -0.3244  0.7583
  307MOL0     C41323   0.783   4.712  10.635  0.6191  0.2525 -0.3208
  307MOL0     C41324   0.845   4.588  10.691 -0.2272 -0.5949 -0.1751
  307MOL0     C41325   0.971   4.550  10.616 -0.0739 -0.2647  0.1851
  307MOL0     C41326   1.016   4.407  10.657 -0.5597  0.1202 -0.3912
  307MOL0     N41327   1.128   4.363  10.570  0.1762 -0.7921 -0.0333
  307MOL0     C41328   1.249   4.414  10.577 -0.0214  1.4587  0.4393
  307MOL0     C41329   1.327   4.346  10.489  0.5208  0.9469  0.0025
  307MOL0     C41330   1.471   4.381  10.460 -0.5757  0.3619  0.2522
  307MOL0     C41331   1.556   4.308  10.568  0.1533 -0.3368 -0.6477
  307MOL0     C41332   1.539   4.152  10.583 -0.0155 -0.3219 -0.1956
  307MOL0     C41333   1.628   4.097  10.693 -0.7961 -0.0685  0.4584
  307MOL0     O41334   1.630   4.155  10.825  0.2955  0.0528 -0.8880
  307MOL0     C41335   1.513   4.172  10.880  0.9932  0.6807 -0.4286
  307MOL0     C41336   1.430   4.059  10.903 -1.2924  1.0238  0.8962
  307MOL0     C41337   1.297   4.067  10.946 -0.6335  0.0819  0.3091
  307MOL0     C41338   1.232   3.931  10.950  0.0132  0.2586 -0.1761
  307MOL0     C41339   1.238   4.195  10.975  0.0836  0.6207 -1.4010
  307MOL0     C41340   1.098   4.221  11.020 -0.8507 -0.4322  0.2227
  307MOL0     O41341   1.069   4.348  11.040  0.1195 -0.9821  0.3772
  307MOL0     C41342   0.953   4.382  11.111  0.6930  0.4216  1.1973
  307MOL0     C41343   0.963   4.440  11.234 -0.1477 -0.3438 -0.5471
  307MOL0     C41344   0.859   4.476  11.319  0.3651 -0.4205 -0.1790
  307MOL0     C41345   0.730   4.452  11.270  0.3348 -0.0343  0.6688
  307MOL0     O41346   0.624   4.478  11.355  0.0743  0.0491 -0.1939
  307MOL0     C41347   0.530   4.369  11.355 -0.6112 -1.1302 -0.3689
  307MOL0     C41348   0.587   4.231  11.368 -0.5070  1.1208  0.4894
  307MOL0     C41349   0.489   4.111  11.382  0.2451 -0.4066  0.9195
  307MOL0     C41350   0.402   4.088  11.259  0.1175 -1.1039  0.3930
  307MOL0     C41351   0.380   3.931  11.247  0.2322 -0.6408  0.4735
  307MOL0     C41352   0.325   3.853  11.379 -0.6787  0.3555 -0.8935
  307MOL0     C41353   0.173   3.871  11.391  0.0180 -0.1946 -0.3263
  307MOL0     C41354   0.105   3.764  11.483  0.5681  0.2242  0.2874
  307MOL0    Cl41355  -0.078   3.769  11.458  0.1624  0.3819 -0.1459
  307MOL0     C41356   0.711   4.403  11.141  0.6826  0.0567  0.1596
  307MOL0     C41357   0.816   4.364  11.060  0.0442 -0.5584  0.2544
  307MOL0     O41358   1.039   4.127  11.076  0.4370 -0.8959  0.1150
  307MOL0     C41359   1.326   4.304  10.961 -0.0451  0.8463 -0.0626
  307MOL0     C41360   1.455   4.283  10.919  0.5057 -0.2170  0.1260
  307MOL0     N41361   1.243   4.246  10.436  0.9419  0.4519 -0.0468
  307MOL0     N41362   1.127   4.262  10.485 -0.6222 -0.5985  0.4538
  307MOL0     C41363   0.351   5.329  10.540 -0.8507 -0.5978 -0.6557
  307MOL0     C41364   0.315   5.470  10.526 -0.6383 -0.4025 -0.1392
  307MOL0     C41365   0.423   5.918  10.582 -0.6986 -0.2139 -0.1400
  307MOL0     C41366   0.374   5.998  10.684  0.7755  0.0392 -0.0037
  307MOL0     C41367   0.374   6.140  10.674 -0.3116  0.0572  0.2775
  307MOL0     C41368   0.425   6.200  10.551 -0.1854  0.2903 -0.7088
  307MOL0     O41369   0.429   6.336  10.534 -0.6577  0.3391  0.1807
  307MOL0     C41370   0.374   6.432  10.622 -0.4177 -0.4175 -1.0041
  307MOL0     C41371   0.454   6.445  10.759 -0.5538  0.6775 -0.5974
  307MOL0     C41372   0.386   6.548  10.852  0.3406  0.0646 -0.0757
  307MOL0     C41373   0.355   6.498  10.996 -0.5137  0.2269 -0.6787
  307MOL0     C41374   0.288   6.368  11.000  0.3153 -0.8701  0.6673
  307MOL0     C41375   0.219   6.271  11.012  0.6013 -0.2313 -0.5179
  307MOL0     C41376   0.471   6.112  10.452  0.1591 -0.3964 -0.2566
  307MOL0     C41377   0.479   5.972  10.465  0.8867 -0.5522 -0.1671
  307MOL0     H41378   0.611   5.592  10.449 -3.0012  1.9337 -1.9928
  307MOL0     H41379   0.685   5.361  10.480  0.7053  1.7319 -1.1780
  307MOL0     H41380   0.603   5.205  10.738  0.9920 -0.1857 -1.0964
  307MOL0     H41381   0.443   5.112  10.732 -1.3546  1.2679 -1.9963
  307MOL0     H41382   0.725   5.034  10.635 -0.6374  1.5470 -0.9196
  307MOL0     H41383   0.682   5.001  10.801 -0.3990 -2.2952 -0.9468
  307MOL0     H41384   0.473   4.886  10.693  0.0981  2.5055  0.0132
  307MOL0     H41385   0.584   4.883  10.549  0.0284 -1.1139  0.2621
  307MOL0     H41386   0.671   4.739  10.819  2.2522  1.6251  0.4786
  307MOL0     H41387   0.575   4.670  10.675  1.5881 -2.5129  2.4898
  307MOL0     H41388   0.764   4.722  10.528  0.0063  3.1008 -0.0303
  307MOL0     H41389   0.856   4.790  10.658  0.1836  0.1663  1.5137
  307MOL0     H41390   0.850   4.615  10.797  1.3833  1.4277 -0.6764
  307MOL0     H41391   0.780   4.501  10.690 -1.4937  0.2958  0.8202
  307MOL0     H41392   0.951   4.549  10.509 -2.0343 -4.0276  0.3849
  307MOL0     H41393   1.047   4.624  10.642 -0.4668  0.4141 -0.5676
  307MOL0     H41394   0.935   4.338  10.632 -0.8040 -0.3578  1.5652
  307MOL0     H41395   1.034   4.390  10.763  1.6226  0.2279 -0.6849
  307MOL0     H41396   1.282   4.498  10.637 -2.7154  0.9886  2.8036
  307MOL0     H41397   1.506   4.345  10.363  2.1122 -1.4796  1.7818
  307MOL0     H41398   1.477   4.490  10.467 -1.6461  0.3384  2.4291
  307MOL0     H41399   1.537   4.366  10.659  0.8956  0.5954 -1.0719
  307MOL0     H41400   1.661   4.313  10.538  0.8116  1.1056  1.6456
  307MOL0     H41401   1.558   4.110  10.484 -2.6666  0.4333 -1.1169
  307MOL0     H41402   1.435   4.125  10.605  0.3480 -2.7081 -1.1074
  307MOL0     H41403   1.729   4.095  10.649 -0.9378 -1.5472  0.1472
  307MOL0     H41404   1.609   3.990  10.705  1.1251 -0.5263 -0.1104
  307MOL0     H41405   1.485   3.967  10.884 -0.3135  1.4628  1.5061
  307MOL0     H41406   1.301   3.863  10.900  0.4815  0.0205  0.7790
  307MOL0     H41407   1.213   3.896  11.052 -3.0695 -2.3643 -1.4673
  307MOL0     H41408   1.134   3.940  10.903 -0.1125 -3.3367 -0.8457
  307MOL0     H41409   1.063   4.457  11.272 -0.4668  1.5807 -0.4678
  307MOL0     H41410   0.859   4.514  11.421 -1.2056  2.6029 -1.1634
  307MOL0     H41411   0.457   4.373  11.437 -1.3877 -2.3316 -0.9646
  307MOL0     H41412   0.464   4.383  11.268 -3.7006  1.2527  2.0872
  307MOL0     H41413   0.650   4.209  11.281 -2.1630  0.9828 -0.7265
  307MOL0     H41414   0.651   4.229  11.456  0.8839 -0.9812 -0.4877
  307MOL0     H41415   0.435   4.132  11.475  1.7816  0.3069  1.6827
  307MOL0     H41416   0.558   4.027  11.387  1.7576  0.7258 -0.1486
  307MOL0     H41417   0.309   4.146  11.262 -0.6144 -2.0836  5.6111
  307MOL0     H41418   0.456   4.122  11.169  0.3368 -0.5925  0.7082
  307MOL0     H41419   0.481   3.890  11.234  0.3906 -0.8391  2.0789
  307MOL0     H41420   0.313   3.903  11.166  0.8063 -2.4967  0.5925
  307MOL0     H41421   0.337   3.745  11.367 -1.7332 -0.1223  1.6967
  307MOL0     H41422   0.370   3.880  11.475 -4.1101 -0.4215  1.0897
  307MOL0     H41423   0.128   3.881  11.292  0.4465  0.5193 -0.4588
  307MOL0     H41424   0.161   3.961  11.452  0.8363  0.2985 -0.8709
  307MOL0     H41425   0.132   3.795  11.584  0.1575 -0.6769  0.6838
  307MOL0     H41426   0.140   3.662  11.467  1.1240  0.3922  0.4180
  307MOL0     H41427   0.615   4.390  11.093  2.0333 -3.4397 -2.0135
  307MOL0     H41428   0.795   4.311  10.968 -3.5360  0.9311  0.0153
  307MOL0     H41429   1.286   4.404  10.967 -1.7399  0.1949 -0.0721
  307MOL0     H41430   1.518   4.370  10.906  0.4806 -0.3003 -0.5727
  307MOL0     H41431   0.284   5.252  10.575  0.8211 -1.7202  0.1964
  307MOL0     H41432   0.214   5.507  10.542  0.7716  2.9977  1.8686
  307MOL0     H41433   0.328   5.953  10.771 -1.0955 -0.7328 -1.3093
  307MOL0     H41434   0.329   6.203  10.750  0.5479 -0.0858  0.9102
  307MOL0     H41435   0.368   6.528  10.569 -0.5832  1.0400  1.5084
  307MOL0     H41436   0.273   6.393  10.639 -0.2149 -0.4538  0.2509
  307MOL0     H41437   0.555   6.481  10.737 -0.5940  0.8577 -0.4880
  307MOL0     H41438   0.471   6.350  10.809 -1.8380 -0.0382 -1.4718
  307MOL0     H41439   0.296   6.590  10.806  0.2096 -1.6842 -1.5069
  307MOL0     H41440   0.444   6.640  10.866 -0.6225  0.7086 -0.2322
  307MOL0     H41441   0.287   6.573  11.037  1.1394  1.1181  0.5459
  307MOL0     H41442   0.446   6.496  11.057 -1.5189  0.3077  0.8753
  307MOL0     H41443   0.168   6.179  11.034  0.8329 -0.2117  0.1363
  307MOL0     H41444   0.503   6.144  10.354 -1.3898 -0.7168 -0.8869
  307MOL0     H41445   0.509   5.921  10.374 -1.3093  1.9722 -2.5396
  308MOL0     O41446   3.180   6.411  10.360  0.4077  0.1400 -0.1182
  308MOL0     C41447   3.139   6.302  10.361  0.2601 -0.1615  0.7332
  308MOL0     O41448   3.209   6.187  10.393  0.2379  0.0896 -0.8786
  308MOL0     C41449   3.344   6.191  10.390  0.4239  0.8012  0.4344
  308MOL0     C41450   3.401   6.113  10.289  0.4069 -0.6318  0.3464
  308MOL0     C41451   3.535   6.112  10.266 -0.1939  0.1121  1.6470
  308MOL0     C41452   3.619   6.186  10.341  0.3194 -0.2663  0.3718
  308MOL0     O41453   3.757   6.155  10.319  0.0785 -0.4015  1.0099
  308MOL0     C41454   3.850   6.246  10.376 -0.4735  0.0925  0.4966
  308MOL0     C41455   3.851   6.379  10.300 -0.7502  0.7116 -0.3233
  308MOL0     C41456   3.960   6.476  10.358  0.7148 -1.4802 -0.1823
  308MOL0     C41457   3.993   6.589  10.268  0.0878  0.7338  0.8667
  308MOL0     C41458   4.067   6.706  10.347  0.6517  1.4264  1.2026
  308MOL0     C41459   4.075   6.843  10.283  0.4743  0.1400  0.5300
  308MOL0     C41460   4.130   6.945  10.388  0.1777  0.4389  0.4766
  308MOL0     C41461   4.280   6.914  10.436  0.5051  0.2729 -0.2651
  308MOL0     N41462   4.338   7.020  10.516  0.6060 -0.4158  0.2549
  308MOL0     C41463   4.418   6.991  10.627 -0.3334 -0.2131 -0.2076
  308MOL0     C41464   4.460   7.107  10.663  0.8488  0.8780  1.2524
  308MOL0     C41465   4.561   7.137  10.771 -0.3053 -0.3290 -0.1537
  308MOL0     C41466   4.673   7.031  10.793  0.2308 -0.6855  0.6848
  308MOL0     C41467   4.771   7.052  10.681 -0.0844 -0.0084 -0.1615
  308MOL0     C41468   4.860   7.171  10.699  0.1715  0.7542  0.2524
  308MOL0     O41469   4.933   7.198  10.577 -0.1160  0.1961 -0.1709
  308MOL0     C41470   5.049   7.279  10.586  0.5078 -0.6655  0.3333
  308MOL0     C41471   5.126   7.294  10.473 -0.4905 -0.3669  0.4386
  308MOL0     C41472   5.242   7.373  10.469 -0.0649  0.4899  0.5065
  308MOL0     C41473   5.318   7.378  10.342  0.5746  0.8923 -1.0019
  308MOL0     C41474   5.292   7.444  10.578  1.0994  0.7057  0.1225
  308MOL0     C41475   5.397   7.529  10.578  0.2782 -0.4099  0.0886
  308MOL0     O41476   5.378   7.654  10.528  0.5891  0.1534  0.4378
  308MOL0     C41477   5.481   7.742  10.557 -0.1290 -0.0075 -0.9203
  308MOL0     C41478   5.547   7.788  10.438 -0.4572  1.1167 -0.8406
  308MOL0     C41479   5.650   7.885  10.453 -0.1376 -0.1057 -0.4603
  308MOL0     C41480   5.705   7.928  10.585  0.6258  0.4159 -0.2771
  308MOL0     O41481   5.799   8.021  10.604 -0.1898  0.5264 -0.0365
  308MOL0     C41482   5.867   8.077  10.490  0.1344 -0.7858 -0.1090
  308MOL0     C41483   5.969   8.172  10.549  0.0823 -0.5250 -0.5577
  308MOL0     C41484   6.078   8.098  10.640  0.0130  0.2025 -0.2772
  308MOL0     C41485   6.190   8.044  10.554  0.9485  0.6456  0.3969
  308MOL0     C41486   6.286   7.943  10.614  0.0835 -0.2109 -0.2425
  308MOL0     C41487   6.374   7.882  10.506  0.2356  0.3999 -0.1575
  308MOL0     C41488   6.466   7.788  10.582 -0.0383  0.1995 -0.6317
  308MOL0     C41489   6.565   7.704  10.499 -0.0121  0.0827  0.3308
  308MOL0    Cl41490   6.679   7.808  10.399 -0.2598 -0.1071  0.2706
  308MOL0     C41491   5.635   7.868  10.693 -0.8764  0.7366 -0.3964
  308MOL0     C41492   5.526   7.784  10.683  0.1081  0.3128 -0.1047
  308MOL0     O41493   5.503   7.487  10.624 -0.2861  0.6238  0.7591
  308MOL0     C41494   5.206   7.441  10.694 -0.1929  0.5531 -0.0386
  308MOL0     C41495   5.090   7.359  10.693  0.7510 -0.3861  0.0118
  308MOL0     N41496   4.395   7.208  10.590 -1.3794 -0.9687  0.0233
  308MOL0     N41497   4.330   7.154  10.498  0.4613  0.0854  0.4285
  308MOL0     C41498   3.571   6.277  10.439  0.1808  0.2738  0.0765
  308MOL0     C41499   3.433   6.281  10.459  0.5746 -0.1553  0.9660
  308MOL0     C41500   3.001   6.275  10.319 -0.1217 -0.3649  0.6113
  308MOL0     C41501   2.926   6.372  10.246 -0.1198 -0.8764 -0.3867
  308MOL0     C41502   2.789   6.360  10.217  1.0081 -0.3157  0.4711
  308MOL0     C41503   2.723   6.252  10.274 -0.7165 -0.6029  0.5540
  308MOL0     O41504   2.583   6.250  10.271 -0.2041 -0.1980  0.8026
  308MOL0     C41505   2.513   6.314  10.387 -0.8426  0.2191  0.1169
  308MOL0     C41506   2.380   6.235  10.404 -0.9898 -0.2274 -0.1033
  308MOL0     C41507   2.267   6.290  10.317  1.1720 -0.3153 -0.3166
  308MOL0     C41508   2.138   6.211  10.324 -0.4969 -0.6592 -0.5243
  308MOL0     C41509   2.095   6.212  10.467 -0.1970  0.2839  0.1621
  308MOL0     C41510   2.073   6.219  10.586 -0.8564  0.0917 -0.4838
  308MOL0     C41511   2.790   6.150  10.334  0.2806  0.1674 -0.6488
  308MOL0     C41512   2.928   6.174  10.369  0.2434  0.1145 -0.0110
  308MOL0     H41513   3.333   6.061  10.224  1.7370 -2.5576  0.4282
  308MOL0     H41514   3.572   6.046  10.189 -1.1862 -0.9786  2.0617
  308MOL0     H41515   3.841   6.258  10.484 -0.8549 -1.3427  0.6535
  308MOL0     H41516   3.947   6.197  10.361 -1.6386 -2.1413 -0.3526
  308MOL0     H41517   3.880   6.365  10.195  0.7952 -0.1613  0.1861
  308MOL0     H41518   3.751   6.423  10.299  0.0728  2.7543  0.7203
  308MOL0     H41519   3.930   6.521  10.453  1.2750  0.0316 -0.6954
  308MOL0     H41520   4.052   6.420  10.378  2.5501  0.9151 -1.4611
  308MOL0     H41521   4.068   6.559  10.194  0.9503  1.3285  1.4762
  308MOL0     H41522   3.904   6.635  10.224  0.3694  0.6671  0.2162
  308MOL0     H41523   4.004   6.729  10.433  0.1908  1.3491  0.8907
  308MOL0     H41524   4.166   6.665  10.369 -0.6278 -1.4450  2.0713
  308MOL0     H41525   4.138   6.826  10.195 -1.5435 -2.6059 -0.4927
  308MOL0     H41526   3.980   6.877  10.242  0.8407  0.4626 -0.0636
  308MOL0     H41527   4.123   7.041  10.335 -3.8557  0.0356 -0.0865
  308MOL0     H41528   4.065   6.952  10.476  0.5833 -2.4584  1.0819
  308MOL0     H41529   4.340   6.897  10.346 -0.3192 -1.8917 -0.4528
  308MOL0     H41530   4.281   6.821  10.493  0.8358 -0.9145 -2.1120
  308MOL0     H41531   4.451   6.896  10.668  2.9543  0.0125 -2.0003
  308MOL0     H41532   4.613   7.232  10.751 -2.6097  0.5058 -2.8275
  308MOL0     H41533   4.505   7.156  10.863 -1.6327  0.5999 -1.1154
  308MOL0     H41534   4.626   6.933  10.788 -1.3402  0.0776 -1.4331
  308MOL0     H41535   4.721   7.035  10.891 -0.4950 -1.4921  1.0854
  308MOL0     H41536   4.712   7.046  10.589 -1.3985 -0.3180  0.6729
  308MOL0     H41537   4.842   6.968  10.678 -2.8880 -2.5810 -4.1258
  308MOL0     H41538   4.926   7.146  10.783 -2.0557 -0.4164  1.7578
  308MOL0     H41539   4.806   7.263  10.725 -2.2151 -0.8633  1.4239
  308MOL0     H41540   5.098   7.237  10.385 -0.3277  1.0850 -0.5898
  308MOL0     H41541   5.308   7.471  10.285  1.0598  0.4352 -1.8452
  308MOL0     H41542   5.425   7.357  10.357  0.4921  1.3726  0.4280
  308MOL0     H41543   5.290   7.288  10.286  1.5253 -2.6992  3.6495
  308MOL0     H41544   5.524   7.755  10.338 -0.0225 -1.0576 -0.2708
  308MOL0     H41545   5.689   7.939  10.367 -1.2031 -1.8373 -2.1307
  308MOL0     H41546   5.923   8.007  10.427  1.0192  1.1140 -1.5285
  308MOL0     H41547   5.793   8.134  10.434  1.3860 -0.0076 -1.0342
  308MOL0     H41548   6.020   8.223  10.467  2.5044 -1.3946  0.3004
  308MOL0     H41549   5.907   8.243  10.604 -0.1974 -2.5668  1.9929
  308MOL0     H41550   6.032   8.016  10.696 -2.3521  1.8467  0.3318
  308MOL0     H41551   6.120   8.176  10.705 -1.4250  0.5923  0.2136
  308MOL0     H41552   6.147   7.986  10.472 -2.0406 -2.2070  3.7286
  308MOL0     H41553   6.242   8.135  10.520 -1.2761  2.4736  1.6013
  308MOL0     H41554   6.220   7.869  10.660 -3.4122  2.5025 -0.4487
  308MOL0     H41555   6.330   7.994  10.700  0.5233 -1.4498  0.2766
  308MOL0     H41556   6.318   7.817  10.438  0.2721  1.5345 -1.3123
  308MOL0     H41557   6.421   7.963  10.450 -4.6080  3.0726 -0.9379
  308MOL0     H41558   6.406   7.714  10.635  0.1115 -0.3167 -1.1591
  308MOL0     H41559   6.529   7.833  10.659  1.8832 -0.1129 -1.9393
  308MOL0     H41560   6.518   7.628  10.437 -0.5211  2.4048 -2.3077
  308MOL0     H41561   6.626   7.646  10.569 -0.5857 -1.2507 -0.2528
  308MOL0     H41562   5.651   7.906  10.794 -1.4139  2.0730 -0.7849
  308MOL0     H41563   5.462   7.751  10.764 -1.2522  0.9185 -0.8946
  308MOL0     H41564   5.223   7.500  10.784  0.7960  0.4714 -0.1518
  308MOL0     H41565   5.036   7.338  10.785 -1.1215 -0.8163 -1.1259
  308MOL0     H41566   3.624   6.338  10.512  0.6052  1.1296 -0.9257
  308MOL0     H41567   3.378   6.353  10.518  0.9372  1.3288 -0.4135
  308MOL0     H41568   2.983   6.462  10.228  1.5979 -1.4721  1.6670
  308MOL0     H41569   2.722   6.433  10.174  0.2931 -1.5094 -0.5172
  308MOL0     H41570   2.577   6.303  10.476  1.0828 -1.1646 -1.3427
  308MOL0     H41571   2.491   6.421  10.380  2.3826  0.8977 -1.7502
  308MOL0     H41572   2.359   6.255  10.509  0.1597  2.5518 -0.2948
  308MOL0     H41573   2.387   6.129  10.380  0.5600 -0.2364  0.2539
  308MOL0     H41574   2.289   6.289  10.210 -3.7873 -1.0307 -1.5726
  308MOL0     H41575   2.253   6.394  10.348  3.0547 -0.1850  0.1725
  308MOL0     H41576   2.157   6.110  10.289 -0.6261 -0.7882 -0.2244
  308MOL0     H41577   2.059   6.255  10.262  0.0094  2.9632  1.1173
  308MOL0     H41578   2.044   6.210  10.689 -0.1860 -3.0658 -0.4472
  308MOL0     H41579   2.744   6.060  10.374  0.7049  1.3525  2.7802
  308MOL0     H41580   2.971   6.113  10.447  0.8233 -1.9742 -1.8890
  309MOL0     O41581   7.987   9.498   1.020 -0.6434 -0.0879  0.2024
  309MOL0     C41582   7.899   9.577   0.992 -0.6676  0.2693 -0.4752
  309MOL0     O41583   7.810   9.624   1.077  0.0929  0.6480  0.7993
  309MOL0     C41584   7.834   9.595   1.213  0.6293  0.6817 -0.2740
  309MOL0     C41585   7.726   9.536   1.276  1.4153  0.1607  0.0961
  309MOL0     C41586   7.727   9.526   1.419 -0.3637 -0.9412 -0.6552
  309MOL0     C41587   7.846   9.561   1.491 -0.4918 -0.3713  0.4146
  309MOL0     O41588   7.881   9.545   1.619  0.1041  0.2115 -0.0711
  309MOL0     C41589   7.781   9.542   1.717 -0.5342  1.4027  0.1594
  309MOL0     C41590   7.717   9.394   1.723  0.1584 -0.0509 -0.0351
  309MOL0     C41591   7.591   9.379   1.806  0.3450 -0.2462  0.3079
  309MOL0     C41592   7.623   9.395   1.949  0.0390 -0.0613 -0.6423
  309MOL0     C41593   7.506   9.437   2.034 -1.1152  0.5120  0.1069
  309MOL0     C41594   7.489   9.593   2.036  0.1716  0.1009  0.2582
  309MOL0     C41595   7.602   9.672   2.089  0.3190  0.3223  0.3161
  309MOL0     C41596   7.557   9.822   2.133  0.2624  0.6401 -0.6970
  309MOL0     N41597   7.669   9.903   2.153 -0.2165 -1.1076  0.3549
  309MOL0     C41598   7.763   9.947   2.060 -1.1002 -0.3387  0.1486
  309MOL0     C41599   7.842  10.041   2.110  0.5138  0.0846 -0.1755
  309MOL0     C41600   7.966  10.100   2.051  0.0442 -0.3334 -0.3914
  309MOL0     C41601   8.082  10.008   2.037 -0.2194  0.5462 -0.1870
  309MOL0     C41602   8.214  10.081   1.990 -0.2432  0.2855 -0.7542
  309MOL0     C41603   8.318   9.995   1.928 -0.4198  0.6640  0.0701
  309MOL0     O41604   8.346   9.874   2.008 -0.4952  0.2249 -0.0131
  309MOL0     C41605   8.405   9.774   1.941 -0.7032  1.0150  0.5137
  309MOL0     C41606   8.481   9.690   2.019  0.4068  0.1657  0.0327
  309MOL0     C41607   8.539   9.573   1.956 -0.3472 -0.0430  0.4758
  309MOL0     C41608   8.619   9.490   2.053  0.7987 -0.3223  0.3709
  309MOL0     C41609   8.528   9.538   1.814  0.0476 -0.6687 -0.0706
  309MOL0     C41610   8.582   9.414   1.749  0.6603 -0.9737  0.2087
  309MOL0     O41611   8.561   9.407   1.615 -0.7686  0.3647  0.1083
  309MOL0     C41612   8.618   9.293   1.559  0.2283  0.5301  0.0641
  309MOL0     C41613   8.744   9.299   1.501  0.5387  0.2409  0.7509
  309MOL0     C41614   8.791   9.192   1.421 -0.3855 -0.6544  0.5421
  309MOL0     C41615   8.712   9.075   1.414 -0.4089 -0.1752 -0.2029
  309MOL0     O41616   8.765   8.964   1.344 -0.3984  0.1986  0.6662
  309MOL0     C41617   8.897   8.909   1.374 -0.0212  0.8166 -1.1043
  309MOL0     C41618   8.942   8.818   1.262  0.2389  0.1174 -0.7602
  309MOL0     C41619   8.882   8.673   1.265 -1.6820 -0.0414 -0.5287
  309MOL0     C41620   8.739   8.653   1.300  0.9070  0.0045  0.6086
  309MOL0     C41621   8.673   8.539   1.218  0.0910 -0.2581  0.3292
  309MOL0     C41622   8.601   8.592   1.098 -0.7320  0.0805 -0.1686
  309MOL0     C41623   8.534   8.478   1.011 -0.0724  0.1769 -0.7082
  309MOL0     C41624   8.469   8.541   0.890 -0.3894 -0.3550  0.1604
  309MOL0    Cl41625   8.616   8.563   0.788 -0.1788 -0.1261 -0.2765
  309MOL0     C41626   8.592   9.070   1.477 -0.0675 -0.3560 -0.0540
  309MOL0     C41627   8.541   9.182   1.554  0.1913 -0.1275  0.3074
  309MOL0     O41628   8.630   9.329   1.820  0.5052 -0.0704  0.4564
  309MOL0     C41629   8.449   9.626   1.736  0.0645  0.1789 -0.9021
  309MOL0     C41630   8.398   9.746   1.799 -0.5921 -0.4179 -0.1300
  309MOL0     N41631   7.803  10.050   2.242 -0.4508 -0.7753 -0.1022
  309MOL0     N41632   7.709   9.968   2.266 -0.0527  0.5863 -0.2881
  309MOL0     C41633   7.951   9.618   1.420 -0.0921 -0.3231 -0.6501
  309MOL0     C41634   7.944   9.638   1.287  0.0700  0.6393  1.0319
  309MOL0     C41635   7.902   9.635   0.856 -0.4585  0.4712 -0.1925
  309MOL0     C41636   8.020   9.640   0.782  0.0836  0.1659 -0.5735
  309MOL0     C41637   8.018   9.700   0.655 -0.1787 -0.7393 -0.2537
  309MOL0     C41638   7.898   9.755   0.607  0.5254 -0.1956 -0.6275
  309MOL0     O41639   7.879   9.835   0.495  0.4379 -0.3957 -0.2360
  309MOL0     C41640   7.993   9.910   0.453 -0.4796 -0.0636  0.4409
  309MOL0     C41641   7.967  10.002   0.335  0.6395 -0.2186  0.2508
  309MOL0     C41642   8.085  10.087   0.289 -0.2284 -0.0328  0.2040
  309MOL0     C41643   8.038  10.174   0.171  0.2819 -0.7665 -0.5771
  309MOL0     C41644   7.979  10.306   0.199  0.1222 -0.0557 -0.2997
  309MOL0     C41645   7.931  10.413   0.211  0.3627  0.1579  0.1161
  309MOL0     C41646   7.784   9.743   0.691  0.0738 -0.6399 -0.6290
  309MOL0     C41647   7.782   9.681   0.813 -0.4617  0.6059  0.4094
  309MOL0     H41648   7.635   9.513   1.222 -0.8172  0.4199  3.4623
  309MOL0     H41649   7.636   9.486   1.463  0.6241 -3.4167 -0.7068
  309MOL0     H41650   7.836   9.565   1.809 -0.0257  0.7769  0.0213
  309MOL0     H41651   7.701   9.615   1.707 -0.3736  1.8236  1.6500
  309MOL0     H41652   7.694   9.362   1.620 -0.2750 -2.7724  0.8212
  309MOL0     H41653   7.796   9.329   1.764  0.2331 -0.0994 -0.2512
  309MOL0     H41654   7.511   9.445   1.771 -2.7232 -3.4108  0.7920
  309MOL0     H41655   7.555   9.276   1.792  0.1211 -0.2374  0.8143
  309MOL0     H41656   7.663   9.304   1.995  0.4347  0.8149  0.8149
  309MOL0     H41657   7.706   9.466   1.950  1.5154 -1.7245 -0.2056
  309MOL0     H41658   7.417   9.386   1.996 -0.5569  0.1859 -0.7915
  309MOL0     H41659   7.527   9.406   2.137  3.3663  1.7124 -0.2610
  309MOL0     H41660   7.464   9.625   1.934 -1.2285 -1.2554  0.1364
  309MOL0     H41661   7.402   9.624   2.096 -1.9808  0.1516 -2.6533
  309MOL0     H41662   7.653   9.623   2.173  2.5639 -0.4052 -1.3804
  309MOL0     H41663   7.678   9.659   2.012  1.3427 -2.0777  1.6196
  309MOL0     H41664   7.487   9.813   2.217 -1.6908  3.6695 -1.8382
  309MOL0     H41665   7.494   9.866   2.055 -1.8832  1.8276  1.5558
  309MOL0     H41666   7.777   9.939   1.953 -1.5290  3.6490 -0.3306
  309MOL0     H41667   7.949  10.155   1.959  3.1001  0.3509 -0.6548
  309MOL0     H41668   7.989  10.171   2.132  1.6286  0.5101 -1.5192
  309MOL0     H41669   8.059   9.935   1.958  2.1283  0.5829 -0.9835
  309MOL0     H41670   8.102   9.962   2.135  0.9410 -1.0951 -1.1324
  309MOL0     H41671   8.259  10.131   2.077  1.2952  0.8555 -1.8358
  309MOL0     H41672   8.193  10.157   1.915  0.9169  0.6023 -0.7814
  309MOL0     H41673   8.414  10.046   1.914 -0.1364 -0.3687 -2.2172
  309MOL0     H41674   8.279   9.974   1.828 -1.2777  1.0382  0.3177
  309MOL0     H41675   8.505   9.718   2.121  2.2001  1.4712 -0.6862
  309MOL0     H41676   8.611   9.527   2.155  0.9040 -2.4535  1.1982
  309MOL0     H41677   8.574   9.390   2.053 -2.4128  0.9918  1.9461
  309MOL0     H41678   8.724   9.486   2.022  1.9256  0.4471  3.6792
  309MOL0     H41679   8.799   9.392   1.512 -2.0154  1.9958 -0.2565
  309MOL0     H41680   8.883   9.196   1.365 -0.7196  0.8791  0.0645
  309MOL0     H41681   8.976   8.983   1.392 -1.6732  2.3406  0.3336
  309MOL0     H41682   8.886   8.848   1.465 -1.6202  1.2473 -0.9837
  309MOL0     H41683   8.933   8.872   1.167 -2.1542  0.7986 -0.2206
  309MOL0     H41684   9.050   8.807   1.277 -0.0878  0.8532  3.4708
  309MOL0     H41685   8.937   8.606   1.332 -0.2313  1.6264  0.0451
  309MOL0     H41686   8.901   8.642   1.162  1.1827  0.3628 -0.2037
  309MOL0     H41687   8.731   8.628   1.406 -2.2712 -2.3217 -0.0454
  309MOL0     H41688   8.680   8.744   1.281  0.7326 -0.4856 -1.3907
  309MOL0     H41689   8.598   8.497   1.285  0.2620 -2.8318 -0.9928
  309MOL0     H41690   8.739   8.456   1.190 -1.0904 -0.9286 -0.5605
  309MOL0     H41691   8.519   8.656   1.133 -0.3579  0.3653  0.2077
  309MOL0     H41692   8.670   8.651   1.037 -2.1197 -0.7416 -2.6578
  309MOL0     H41693   8.465   8.428   1.079 -0.5861  4.0647  1.9449
  309MOL0     H41694   8.605   8.397   0.993 -0.0549  0.0144  0.0604
  309MOL0     H41695   8.416   8.636   0.907 -1.5922 -0.7359 -1.2523
  309MOL0     H41696   8.404   8.468   0.843 -1.8529  0.4496  0.8632
  309MOL0     H41697   8.536   8.979   1.459  0.5276 -0.6939 -0.2204
  309MOL0     H41698   8.439   9.183   1.593 -0.4162  1.0973 -1.2031
  309MOL0     H41699   8.437   9.619   1.629  0.5339 -0.2460 -0.9301
  309MOL0     H41700   8.338   9.794   1.722 -0.1571 -1.1435 -0.9340
  309MOL0     H41701   8.030   9.668   1.476 -1.3235  2.6569 -1.3552
  309MOL0     H41702   8.014   9.700   1.232 -0.8392 -1.0602 -2.2820
  309MOL0     H41703   8.101   9.583   0.824 -2.9316 -4.1798 -0.0027
  309MOL0     H41704   8.110   9.697   0.596  1.8036  2.5337  2.2607
  309MOL0     H41705   8.035   9.983   0.523 -0.4943 -0.1760  0.5656
  309MOL0     H41706   8.072   9.837   0.435  2.7300  2.9554  1.0867
  309MOL0     H41707   7.889  10.076   0.356  0.0454 -0.5402 -0.7866
  309MOL0     H41708   7.936   9.942   0.249  3.7156  0.1392 -1.2498
  309MOL0     H41709   8.157  10.016   0.249 -0.2849 -1.1768  2.0486
  309MOL0     H41710   8.115  10.151   0.372 -1.2952  1.8322 -0.7595
  309MOL0     H41711   7.971  10.112   0.109 -1.9250 -0.4368  1.3372
  309MOL0     H41712   8.131  10.206   0.123  0.9078  2.5739  2.4489
  309MOL0     H41713   7.893  10.511   0.231  1.8831  1.2479 -1.9530
  309MOL0     H41714   7.693   9.780   0.645 -0.2314  1.1543  1.2847
  309MOL0     H41715   7.695   9.670   0.877 -0.8594  0.4510 -0.1553
  310MOL0     O41716   0.608   2.026   7.473 -0.6568 -0.3960  0.3497
  310MOL0     C41717   0.591   2.151   7.492  0.1017  0.4781  0.2326
  310MOL0     O41718   0.477   2.210   7.486 -0.7192 -0.0180  0.2188
  310MOL0     C41719   0.357   2.138   7.471 -0.4834 -0.0135 -0.6354
  310MOL0     C41720   0.260   2.186   7.372  0.3485  0.6204 -1.0282
  310MOL0     C41721   0.144   2.115   7.355 -0.0422  0.5405  0.8357
  310MOL0     C41722   0.122   1.988   7.422 -0.5535  0.0392 -0.0111
  310MOL0     O41723   0.010   1.907   7.397 -0.6786 -1.2295 -0.6417
  310MOL0     C41724  -0.079   1.939   7.287 -0.0645  0.1717  0.7191
  310MOL0     C41725  -0.215   1.859   7.292  0.1990  0.3577 -0.5697
  310MOL0     C41726  -0.190   1.704   7.319 -1.0882  0.0974 -0.1948
  310MOL0     C41727  -0.164   1.642   7.457 -0.6004  0.2114  0.2626
  310MOL0     C41728  -0.287   1.647   7.551  0.0501  0.1668  0.6622
  310MOL0     C41729  -0.245   1.606   7.691 -0.7945  0.2985  1.0374
  310MOL0     C41730  -0.355   1.611   7.801 -0.4326  1.0512 -0.1496
  310MOL0     C41731  -0.414   1.467   7.815 -0.0592  0.1161  0.2261
  310MOL0     N41732  -0.532   1.455   7.904 -0.2810 -0.6951 -0.2310
  310MOL0     C41733  -0.525   1.426   8.035  0.2225 -0.2386  0.7018
  310MOL0     C41734  -0.653   1.457   8.081 -0.9597  0.0302  0.0748
  310MOL0     C41735  -0.698   1.465   8.225  0.0124  0.7566  1.2486
  310MOL0     C41736  -0.616   1.575   8.295  0.1422  0.5326 -0.4589
  310MOL0     C41737  -0.626   1.713   8.220 -0.1392  1.1865 -0.7486
  310MOL0     C41738  -0.563   1.832   8.299 -0.0413 -0.1449 -0.1765
  310MOL0     O41739  -0.426   1.805   8.337 -0.5647  0.5728 -0.0009
  310MOL0     C41740  -0.324   1.844   8.244 -0.2147 -0.1291  0.6280
  310MOL0     C41741  -0.349   1.882   8.109 -0.9390 -1.0565  0.6232
  310MOL0     C41742  -0.249   1.944   8.026  0.1781 -0.1672 -0.6267
  310MOL0     C41743  -0.272   1.974   7.878 -0.1687  0.2739  0.2500
  310MOL0     C41744  -0.134   1.984   8.088  0.1128 -0.0974 -0.3503
  310MOL0     C41745  -0.033   2.064   8.013 -0.3958 -0.6778 -0.5129
  310MOL0     O41746   0.095   2.039   8.053 -0.1114  0.2225 -0.7548
  310MOL0     C41747   0.202   2.123   8.011 -0.8878  0.1771 -0.0802
  310MOL0     C41748   0.236   2.145   7.874 -0.2120 -1.1556  0.6093
  310MOL0     C41749   0.333   2.229   7.837  0.3011 -0.3378 -0.0665
  310MOL0     C41750   0.412   2.295   7.932  0.7325 -0.4196 -0.0470
  310MOL0     O41751   0.515   2.380   7.902 -0.1615  0.7433 -0.2845
  310MOL0     C41752   0.506   2.461   7.790 -0.1293  1.0266 -0.1693
  310MOL0     C41753   0.625   2.554   7.792  0.3869  0.7509  0.2247
  310MOL0     C41754   0.634   2.640   7.914  0.2502  0.1473 -0.4851
  310MOL0     C41755   0.749   2.745   7.895  1.0303  0.7399 -0.3004
  310MOL0     C41756   0.703   2.872   7.814 -0.3998  0.0423  1.1242
  310MOL0     C41757   0.818   2.937   7.738 -0.4868  0.4566  0.4291
  310MOL0     C41758   0.764   3.062   7.657 -0.3223 -1.0577  0.6300
  310MOL0     C41759   0.880   3.128   7.563 -0.8280  1.3676  0.1097
  310MOL0    Cl41760   1.052   3.144   7.627 -0.5068 -0.2237 -0.4695
  310MOL0     C41761   0.388   2.271   8.063  0.4425  0.6286 -0.1577
  310MOL0     C41762   0.291   2.176   8.106  0.6576 -0.1200 -0.8384
  310MOL0     O41763  -0.062   2.165   7.944  0.0094 -0.6814  0.3401
  310MOL0     C41764  -0.106   1.947   8.216  0.2662  1.3615 -0.2140
  310MOL0     C41765  -0.199   1.872   8.292 -0.3406 -0.7511 -0.0580
  310MOL0     N41766  -0.733   1.499   7.981 -0.0317 -0.1893  0.2631
  310MOL0     N41767  -0.662   1.499   7.874 -0.2546 -0.1828  0.2680
  310MOL0     C41768   0.213   1.951   7.512 -0.7555 -0.4803 -0.4860
  310MOL0     C41769   0.332   2.018   7.535  0.4683 -0.7117 -0.4836
  310MOL0     C41770   0.698   2.236   7.521 -0.1890 -0.0843  0.2179
  310MOL0     C41771   0.820   2.183   7.574 -0.0222 -0.9477 -0.0411
  310MOL0     C41772   0.922   2.278   7.607 -0.7727 -0.0273 -0.1524
  310MOL0     C41773   0.910   2.417   7.587 -0.1050  0.2810  0.5080
  310MOL0     O41774   1.007   2.516   7.614  0.1275  0.5405 -0.6786
  310MOL0     C41775   1.140   2.480   7.640  0.0475 -0.1988 -1.3708
  310MOL0     C41776   1.183   2.436   7.499 -0.4663  0.4773  0.1454
  310MOL0     C41777   1.335   2.411   7.490 -0.1554  0.1457  0.3398
  310MOL0     C41778   1.377   2.294   7.578  0.9190 -0.9870  0.0594
  310MOL0     C41779   1.432   2.344   7.709 -0.3150 -0.9430 -1.5237
  310MOL0     C41780   1.444   2.393   7.817 -0.2088 -0.4300 -0.9625
  310MOL0     C41781   0.798   2.457   7.515  0.2780 -0.0671  0.6775
  310MOL0     C41782   0.694   2.371   7.476 -1.1331  0.9119 -0.5908
  310MOL0     H41783   0.278   2.272   7.309 -0.2353 -0.9211 -3.4494
  310MOL0     H41784   0.081   2.161   7.280 -1.0819  0.2007  1.4807
  310MOL0     H41785  -0.104   2.045   7.284 -0.7349  0.0109  0.3309
  310MOL0     H41786  -0.040   1.911   7.188 -0.5536 -0.7121  0.7656
  310MOL0     H41787  -0.283   1.885   7.374 -2.5373  0.5922 -2.7522
  310MOL0     H41788  -0.271   1.875   7.200  2.1944 -2.2248 -2.3675
  310MOL0     H41789  -0.276   1.660   7.268 -2.0108  2.2223 -0.5997
  310MOL0     H41790  -0.098   1.680   7.266 -0.2700  0.4883  1.0155
  310MOL0     H41791  -0.147   1.536   7.439  1.7155  0.2310  1.9141
  310MOL0     H41792  -0.076   1.678   7.511 -0.4325  1.3081 -0.6971
  310MOL0     H41793  -0.317   1.752   7.565  2.5051  1.0111  0.1790
  310MOL0     H41794  -0.371   1.593   7.506  1.7376 -1.1801 -1.0358
  310MOL0     H41795  -0.187   1.514   7.689 -1.3317 -0.0915  2.4095
  310MOL0     H41796  -0.180   1.691   7.716 -1.9039  1.1462  1.1384
  310MOL0     H41797  -0.319   1.638   7.900  1.2934 -0.7946 -0.2090
  310MOL0     H41798  -0.433   1.679   7.767 -0.8318  0.8858  0.4305
  310MOL0     H41799  -0.337   1.397   7.848  2.2230  2.7619  0.9215
  310MOL0     H41800  -0.451   1.433   7.717  1.1439  4.2275 -1.8954
  310MOL0     H41801  -0.441   1.403   8.100 -1.0726  0.7806  2.8532
  310MOL0     H41802  -0.804   1.488   8.238 -0.2385  0.3203  0.0594
  310MOL0     H41803  -0.657   1.376   8.275  1.0668 -0.2880 -1.3219
  310MOL0     H41804  -0.511   1.553   8.315  0.3184  0.4717 -1.3981
  310MOL0     H41805  -0.669   1.582   8.390  2.8081  1.3627  1.0588
  310MOL0     H41806  -0.733   1.726   8.203 -0.6531 -1.6069 -0.0721
  310MOL0     H41807  -0.566   1.699   8.130  3.2603 -1.1186  1.6384
  310MOL0     H41808  -0.606   1.825   8.400  1.4166 -2.0322  0.3775
  310MOL0     H41809  -0.580   1.930   8.253 -2.6198 -0.2852  0.3257
  310MOL0     H41810  -0.450   1.886   8.069  0.6719  0.8047 -3.8930
  310MOL0     H41811  -0.372   1.935   7.858  0.3505 -1.3893  0.7229
  310MOL0     H41812  -0.271   2.082   7.857 -2.0491  0.6771  1.9894
  310MOL0     H41813  -0.197   1.926   7.813 -1.9935 -0.5925 -1.3078
  310MOL0     H41814   0.190   2.078   7.802  0.2456  0.1300 -0.9298
  310MOL0     H41815   0.350   2.223   7.730 -0.1046 -0.3183 -0.1354
  310MOL0     H41816   0.517   2.386   7.711 -4.9520 -1.1167  0.8177
  310MOL0     H41817   0.410   2.513   7.783  1.4841  4.3895  0.6993
  310MOL0     H41818   0.717   2.499   7.775 -0.5806 -1.0033  0.4069
  310MOL0     H41819   0.600   2.617   7.705  0.6591 -1.6530 -1.7097
  310MOL0     H41820   0.670   2.574   7.994  3.2135  1.3921 -0.6648
  310MOL0     H41821   0.542   2.692   7.940  0.1610 -0.2792  0.0897
  310MOL0     H41822   0.783   2.783   7.992 -2.7657  0.2681  1.3803
  310MOL0     H41823   0.839   2.701   7.852  0.7491 -0.5643  0.4121
  310MOL0     H41824   0.659   2.949   7.878  2.5796  3.2319 -0.2805
  310MOL0     H41825   0.632   2.847   7.735 -4.4501  0.5240  4.3131
  310MOL0     H41826   0.887   2.974   7.815 -1.2374 -1.4864  2.1467
  310MOL0     H41827   0.870   2.875   7.665  3.3038  2.1677  1.4197
  310MOL0     H41828   0.732   3.134   7.733  2.1762  0.9074 -0.0253
  310MOL0     H41829   0.684   3.046   7.584  1.8392  0.9090 -2.4092
  310MOL0     H41830   0.858   3.231   7.536  2.8820  2.0460 -0.8888
  310MOL0     H41831   0.880   3.056   7.480  0.6591  0.3125  0.9835
  310MOL0     H41832   0.439   2.322   8.144 -0.8399 -1.0675  1.8163
  310MOL0     H41833   0.282   2.154   8.212 -0.2867  0.5782 -0.7572
  310MOL0     H41834  -0.011   1.974   8.262  1.3509 -1.4603 -0.5902
  310MOL0     H41835  -0.180   1.858   8.398 -2.4605  1.1500  0.6657
  310MOL0     H41836   0.200   1.856   7.564  1.3268 -0.4853  0.1183
  310MOL0     H41837   0.408   1.981   7.603 -0.1302  0.1947  0.7241
  310MOL0     H41838   0.828   2.084   7.617 -1.3575 -0.3951  1.5931
  310MOL0     H41839   1.009   2.231   7.651  0.8014  0.7236 -2.3120
  310MOL0     H41840   1.200   2.570   7.655 -0.6502  1.2842 -5.8964
  310MOL0     H41841   1.148   2.397   7.710 -0.8419 -0.6174 -1.7470
  310MOL0     H41842   1.152   2.513   7.427 -2.5959 -1.0124 -0.6445
  310MOL0     H41843   1.127   2.351   7.459  0.9748 -1.6179  2.3107
  310MOL0     H41844   1.390   2.505   7.502 -1.1809  0.6136  1.6247
  310MOL0     H41845   1.369   2.378   7.392  1.3266  1.1300  0.4908
  310MOL0     H41846   1.462   2.235   7.541  0.1223 -2.4824  0.5076
  310MOL0     H41847   1.297   2.223   7.601  1.4101 -1.0172  1.8088
  310MOL0     H41848   1.433   2.412   7.922 -0.2269 -2.7925 -0.4791
  310MOL0     H41849   0.779   2.559   7.483 -0.5816 -0.0320  1.2842
  310MOL0     H41850   0.622   2.417   7.409  1.8439  3.2903 -2.4376
  311MOL0     O41851   3.498   2.272   5.260 -0.4624  1.2111  0.2554
  311MOL0     C41852   3.604   2.226   5.311 -0.7818 -0.0279 -0.4168
  311MOL0     O41853   3.717   2.297   5.318 -0.1091 -0.0088 -0.7215
  311MOL0     C41854   3.740   2.425   5.268 -0.3407 -0.2291 -0.5049
  311MOL0     C41855   3.652   2.534   5.262  0.6584  0.2061  0.3351
  311MOL0     C41856   3.687   2.654   5.218  0.1580  0.5485  0.3505
  311MOL0     C41857   3.816   2.680   5.188  0.1816  0.9583  0.3830
  311MOL0     O41858   3.838   2.805   5.134  0.1767 -0.4218  1.0678
  311MOL0     C41859   3.980   2.851   5.129 -0.2903  0.2479 -0.4839
  311MOL0     C41860   3.983   3.011   5.140  0.5388  0.1296  0.2793
  311MOL0     C41861   4.113   3.065   5.088 -0.2876 -0.3085 -1.4290
  311MOL0     C41862   4.089   3.210   5.074 -1.2273 -0.3696  0.1696
  311MOL0     C41863   4.234   3.281   5.034 -0.6635 -0.1401 -0.5260
  311MOL0     C41864   4.258   3.269   4.889  0.1303 -0.9518  0.7692
  311MOL0     C41865   4.375   3.370   4.840  0.2072  0.6842 -0.7430
  311MOL0     C41866   4.368   3.389   4.685  0.8163  0.4610  0.0306
  311MOL0     N41867   4.464   3.485   4.647 -0.1324  0.1179 -0.1407
  311MOL0     C41868   4.598   3.454   4.648  0.2220  0.1113 -1.0079
  311MOL0     C41869   4.662   3.563   4.620 -0.0265 -0.0670 -0.4914
  311MOL0     C41870   4.810   3.563   4.575 -0.1678  0.7326  0.3004
  311MOL0     C41871   4.904   3.554   4.694 -0.8227 -0.1072  0.7229
  311MOL0     C41872   4.898   3.686   4.772  1.6873  0.3310 -0.0113
  311MOL0     C41873   4.980   3.667   4.894 -0.3803  0.6834 -1.0220
  311MOL0     O41874   5.120   3.662   4.855 -0.7891  0.1611  0.4560
  311MOL0     C41875   5.209   3.727   4.945 -0.6090 -0.2253 -0.5362
  311MOL0     C41876   5.281   3.846   4.913  0.1211 -0.0491  0.6004
  311MOL0     C41877   5.371   3.910   4.999 -0.3961  0.6809  1.3830
  311MOL0     C41878   5.425   4.034   4.946  0.2402 -1.0956  0.3899
  311MOL0     C41879   5.402   3.848   5.123 -0.2029 -0.2035 -0.2941
  311MOL0     C41880   5.530   3.874   5.201  0.0416  1.1953 -0.2615
  311MOL0     O41881   5.545   3.804   5.323 -0.0798  0.3429  0.7810
  311MOL0     C41882   5.669   3.816   5.384  0.8001  1.2060  0.2424
  311MOL0     C41883   5.754   3.702   5.378  0.3497 -0.2217 -0.9461
  311MOL0     C41884   5.883   3.707   5.436  0.3034 -0.1772 -0.4746
  311MOL0     C41885   5.926   3.826   5.498  0.4142 -0.0738 -0.0483
  311MOL0     O41886   6.050   3.850   5.544 -1.0051  1.0474  0.0359
  311MOL0     C41887   6.133   3.736   5.568 -0.2616 -0.7733 -0.1226
  311MOL0     C41888   6.239   3.778   5.667 -0.1152 -0.6359  1.1617
  311MOL0     C41889   6.314   3.656   5.718 -0.3678  0.1807 -0.4206
  311MOL0     C41890   6.449   3.705   5.761  0.4782 -0.2811  0.3254
  311MOL0     C41891   6.542   3.580   5.790  0.3522  0.9310 -0.7663
  311MOL0     C41892   6.686   3.617   5.841  0.1591  0.1457  0.6508
  311MOL0     C41893   6.776   3.653   5.731 -0.0401  0.2870  1.2049
  311MOL0     C41894   6.919   3.664   5.780 -1.4123  0.0706  0.8460
  311MOL0    Cl41895   6.984   3.491   5.804 -0.2663 -0.3047  0.4758
  311MOL0     C41896   5.847   3.940   5.486  0.2456  0.4347 -1.0457
  311MOL0     C41897   5.717   3.932   5.431 -0.7796 -0.4699 -0.1816
  311MOL0     O41898   5.618   3.946   5.152  0.7898 -0.3644 -0.5241
  311MOL0     C41899   5.330   3.734   5.157  0.2203 -0.5022 -0.1854
  311MOL0     C41900   5.235   3.673   5.074  0.8722 -0.2063  0.2265
  311MOL0     N41901   4.571   3.667   4.617 -0.1045  0.4006  0.3549
  311MOL0     N41902   4.456   3.620   4.647 -0.3830 -0.8037  0.6535
  311MOL0     C41903   3.914   2.573   5.190  0.3882 -0.8602 -0.7260
  311MOL0     C41904   3.872   2.452   5.231  0.4890  0.0671  0.4508
  311MOL0     C41905   3.596   2.092   5.381 -0.0793 -0.4334  0.9607
  311MOL0     C41906   3.712   2.033   5.439  0.1072 -0.3134 -0.4182
  311MOL0     C41907   3.707   1.894   5.483  0.9146  0.2035 -0.0897
  311MOL0     C41908   3.586   1.828   5.469 -0.4768  0.7030  0.0038
  311MOL0     O41909   3.582   1.695   5.509 -0.0174 -0.0504 -0.5837
  311MOL0     C41910   3.588   1.598   5.398 -0.5978 -0.4197  0.4007
  311MOL0     C41911   3.489   1.481   5.418  0.2277 -0.2168 -0.8161
  311MOL0     C41912   3.525   1.371   5.317 -0.3980  0.5080  0.3721
  311MOL0     C41913   3.392   1.291   5.292 -0.5915 -0.9261  0.8319
  311MOL0     C41914   3.428   1.165   5.231 -0.8847  0.2928  0.1379
  311MOL0     C41915   3.456   1.052   5.189  1.3447  0.1711 -0.4773
  311MOL0     C41916   3.476   1.884   5.407 -0.8155 -0.9660 -0.4057
  311MOL0     C41917   3.483   2.021   5.368 -0.2292  0.8020  0.2427
  311MOL0     H41918   3.555   2.518   5.309  1.2171 -0.7964  1.2004
  311MOL0     H41919   3.610   2.731   5.208  1.3476  1.9062  1.2780
  311MOL0     H41920   4.043   2.805   5.205  3.3446 -0.4775 -3.6219
  311MOL0     H41921   4.014   2.818   5.031  0.1128  0.8011 -0.5351
  311MOL0     H41922   3.904   3.047   5.073  1.0555  4.2590  1.6053
  311MOL0     H41923   3.945   3.047   5.236 -3.7451  0.8085 -1.4604
  311MOL0     H41924   4.188   3.041   5.163 -2.0739 -0.5709  0.3494
  311MOL0     H41925   4.133   3.020   4.990 -2.3300  0.3054 -2.1881
  311MOL0     H41926   4.016   3.240   4.998 -0.3592  4.8976  1.0299
  311MOL0     H41927   4.055   3.256   5.167 -0.3696  4.8781 -1.7710
  311MOL0     H41928   4.234   3.390   5.051  1.6540 -0.5889  3.6718
  311MOL0     H41929   4.312   3.242   5.100 -2.2983  0.7893  2.1162
  311MOL0     H41930   4.286   3.167   4.860 -0.4597 -0.6247 -1.1055
  311MOL0     H41931   4.165   3.289   4.835 -0.5251  0.6649  2.3794
  311MOL0     H41932   4.368   3.468   4.886 -0.7880 -0.7887  2.5533
  311MOL0     H41933   4.471   3.325   4.865  0.7932  1.4587 -1.5550
  311MOL0     H41934   4.267   3.424   4.661  1.4606  0.9240 -2.2760
  311MOL0     H41935   4.390   3.293   4.638 -2.0581 -0.2183 -0.1020
  311MOL0     H41936   4.647   3.358   4.658  0.1637 -0.2344 -3.3437
  311MOL0     H41937   4.830   3.475   4.513  1.4440  1.4145 -0.1855
  311MOL0     H41938   4.826   3.637   4.497  0.4359 -1.4053 -1.7348
  311MOL0     H41939   5.004   3.536   4.653 -0.9543  0.1359  0.2841
  311MOL0     H41940   4.881   3.470   4.759  0.3077 -1.5690 -0.6720
  311MOL0     H41941   4.797   3.703   4.811  0.5617  0.4661 -2.7319
  311MOL0     H41942   4.927   3.771   4.709 -0.8992  0.2235 -1.5228
  311MOL0     H41943   4.957   3.573   4.944 -1.2837  2.2764  1.8037
  311MOL0     H41944   4.974   3.753   4.962  1.6687 -2.0142  2.9900
  311MOL0     H41945   5.268   3.884   4.812 -0.1678 -0.7013  0.3834
  311MOL0     H41946   5.378   4.072   4.855  3.4418 -1.5599 -1.6345
  311MOL0     H41947   5.417   4.110   5.025  0.1316  1.8814 -2.2808
  311MOL0     H41948   5.532   4.029   4.923  0.5031  0.2068  1.1726
  311MOL0     H41949   5.728   3.607   5.334  2.7659 -0.6542 -1.6017
  311MOL0     H41950   5.941   3.617   5.419  2.1416  0.9068 -0.2507
  311MOL0     H41951   6.074   3.656   5.615 -0.9690  1.2670  2.7149
  311MOL0     H41952   6.178   3.715   5.471 -1.4044  1.6327 -1.2596
  311MOL0     H41953   6.302   3.851   5.615  2.4659 -4.1334 -1.0662
  311MOL0     H41954   6.192   3.816   5.758 -1.5164 -0.6553  0.4679
  311MOL0     H41955   6.321   3.578   5.641  1.2966  2.1161 -2.3484
  311MOL0     H41956   6.264   3.621   5.808 -1.5115 -0.8395 -1.4083
  311MOL0     H41957   6.489   3.754   5.672 -1.6499 -0.2100 -0.6485
  311MOL0     H41958   6.434   3.774   5.845  0.1687  1.0728 -0.7939
  311MOL0     H41959   6.543   3.497   5.719 -0.3213 -2.3311  2.6518
  311MOL0     H41960   6.487   3.531   5.872 -0.8810  1.9701 -0.9398
  311MOL0     H41961   6.687   3.694   5.918 -3.4992  0.9920  0.0549
  311MOL0     H41962   6.728   3.525   5.884  1.9742  0.3607 -0.5619
  311MOL0     H41963   6.730   3.742   5.686 -1.4532 -1.6004 -1.3437
  311MOL0     H41964   6.778   3.577   5.652  0.3417  2.5092 -1.0854
  311MOL0     H41965   6.937   3.721   5.872 -0.6706 -2.2554  2.2123
  311MOL0     H41966   6.968   3.700   5.689 -2.4279 -1.9657 -0.5737
  311MOL0     H41967   5.884   4.040   5.507 -0.5445  0.7199 -0.9853
  311MOL0     H41968   5.668   4.029   5.429 -0.3334 -0.2575 -1.2594
  311MOL0     H41969   5.355   3.684   5.250  2.4114  0.7787 -0.0185
  311MOL0     H41970   5.172   3.592   5.110 -1.5519  0.5026 -2.1645
  311MOL0     H41971   4.019   2.596   5.177  0.2618 -0.7839 -1.6964
  311MOL0     H41972   3.946   2.372   5.231  0.1459 -0.4959 -3.7546
  311MOL0     H41973   3.802   2.093   5.447 -0.5138  0.4884  0.8059
  311MOL0     H41974   3.791   1.848   5.534 -0.7060 -0.5757  2.0414
  311MOL0     H41975   3.571   1.643   5.300 -1.4071 -1.6467 -0.0347
  311MOL0     H41976   3.690   1.557   5.405  0.3283  1.4669 -1.0523
  311MOL0     H41977   3.388   1.522   5.412  1.4947  3.6308  0.9772
  311MOL0     H41978   3.505   1.443   5.519  0.7902 -0.0451 -0.8332
  311MOL0     H41979   3.606   1.306   5.351 -1.0965 -0.2685  0.5736
  311MOL0     H41980   3.550   1.407   5.216 -2.2451  1.5192  0.2390
  311MOL0     H41981   3.315   1.354   5.247 -0.3848 -0.1724  1.5271
  311MOL0     H41982   3.351   1.255   5.387  1.2795  0.0702  2.0755
  311MOL0     H41983   3.452   0.949   5.160 -0.4232  0.5450 -1.7689
  311MOL0     H41984   3.378   1.837   5.411 -1.4687  0.4381  1.7145
  311MOL0     H41985   3.398   2.069   5.320  0.3389 -0.5745 -2.3260
  312MOL0     O41986   5.856   3.012   8.770 -1.3384  0.8504 -0.3939
  312MOL0     C41987   5.931   3.064   8.681  1.1899  0.4228  0.2501
  312MOL0     O41988   6.063   3.111   8.701  0.2626  0.2175  0.1329
  312MOL0     C41989   6.104   3.114   8.828 -0.5001 -0.4838  0.0062
  312MOL0     C41990   6.043   3.185   8.931 -0.0071 -0.1575 -0.3956
  312MOL0     C41991   6.096   3.195   9.057 -0.0537  0.1844  0.1961
  312MOL0     C41992   6.220   3.130   9.089  0.3389  0.3295 -0.4860
  312MOL0     O41993   6.275   3.154   9.213  0.0847 -0.2361 -0.6910
  312MOL0     C41994   6.325   3.036   9.280 -0.4013 -0.6826 -0.4987
  312MOL0     C41995   6.455   3.078   9.358  1.5187  0.2719 -0.4324
  312MOL0     C41996   6.496   2.969   9.457  0.3825 -0.2107 -0.3240
  312MOL0     C41997   6.502   2.830   9.414  0.0708  0.0779  1.3505
  312MOL0     C41998   6.521   2.720   9.515 -0.3183 -0.7672 -0.3123
  312MOL0     C41999   6.399   2.705   9.617 -0.2943 -0.0813  0.4568
  312MOL0     C42000   6.430   2.579   9.691 -0.9161 -0.1970  0.0664
  312MOL0     C42001   6.310   2.534   9.777  0.2329  0.2079  0.7341
  312MOL0     N42002   6.350   2.435   9.879  0.0364 -0.4706 -0.4514
  312MOL0     C42003   6.428   2.454   9.994  0.2505  0.4419  0.4637
  312MOL0     C42004   6.448   2.328  10.048  0.6804 -0.1929  0.2150
  312MOL0     C42005   6.523   2.306  10.168 -1.0450  0.4642 -0.8727
  312MOL0     C42006   6.443   2.324  10.304 -0.1735  0.2321 -0.1764
  312MOL0     C42007   6.311   2.233  10.324 -0.4802  0.5530 -1.2743
  312MOL0     C42008   6.249   2.252  10.468 -0.1394 -0.2572  0.3592
  312MOL0     O42009   6.329   2.208  10.581 -0.5270  0.7930  1.4270
  312MOL0     C42010   6.327   2.080  10.628  0.3943  0.5007 -0.1409
  312MOL0     C42011   6.395   2.055  10.748  0.3656  0.4641 -0.1093
  312MOL0     C42012   6.395   1.927  10.800 -0.6958  0.4944 -0.2122
  312MOL0     C42013   6.474   1.912  10.926 -0.1769  0.2461  0.2821
  312MOL0     C42014   6.306   1.825  10.755 -0.9088  0.9450  0.3781
  312MOL0     C42015   6.290   1.684  10.813  0.3785 -0.0652  0.4177
  312MOL0     O42016   6.207   1.587  10.752  0.3866  0.1609 -0.3756
  312MOL0     C42017   6.192   1.454  10.805  0.6665 -0.7244  0.3442
  312MOL0     C42018   6.189   1.358  10.713 -0.2680  0.3506  0.1764
  312MOL0     C42019   6.166   1.222  10.750  0.6833 -0.8184 -0.6566
  312MOL0     C42020   6.152   1.185  10.887 -0.1954  0.0974 -0.6051
  312MOL0     O42021   6.126   1.056  10.923  0.2429 -0.3911  0.1960
  312MOL0     C42022   6.237   0.997  10.987  0.2501  0.0582 -0.5475
  312MOL0     C42023   6.226   0.832  10.985  0.2873  0.0127  0.1073
  312MOL0     C42024   6.092   0.769  11.050 -0.8386  0.0448 -0.3985
  312MOL0     C42025   6.071   0.811  11.204  0.2791 -0.1787  1.0647
  312MOL0     C42026   5.939   0.753  11.257 -0.4584  0.2945 -0.0452
  312MOL0     C42027   5.963   0.612  11.290  0.5225  0.2659 -0.5158
  312MOL0     C42028   5.858   0.577  11.388 -0.0454 -0.2150 -0.9424
  312MOL0     C42029   5.880   0.431  11.419 -0.2727 -0.3642  0.3345
  312MOL0    Cl42030   5.751   0.378  11.534  0.0292 -0.2950  0.4391
  312MOL0     C42031   6.154   1.290  10.982 -0.0802  0.1975  0.3769
  312MOL0     C42032   6.173   1.422  10.936 -0.4733 -0.8116 -0.0151
  312MOL0     O42033   6.344   1.670  10.924 -0.4511  0.5301 -0.2770
  312MOL0     C42034   6.244   1.849  10.636 -1.1168  1.1903  0.5898
  312MOL0     C42035   6.250   1.977  10.572 -0.1510 -0.7130 -0.6642
  312MOL0     N42036   6.374   2.239   9.962 -0.1258 -0.2474 -0.6626
  312MOL0     N42037   6.323   2.305   9.866 -0.2626  0.2457 -0.3670
  312MOL0     C42038   6.277   3.054   8.987 -0.2390 -0.2052 -1.3303
  312MOL0     C42039   6.232   3.056   8.858 -0.1285 -0.7505 -0.2280
  312MOL0     C42040   5.882   3.064   8.545  0.6039 -0.6852  0.3158
  312MOL0     C42041   5.957   3.132   8.443 -0.0155 -0.4844 -0.2100
  312MOL0     C42042   5.920   3.135   8.306 -0.1451 -0.0633 -0.2593
  312MOL0     C42043   5.793   3.087   8.274 -1.0701 -0.2663 -0.5128
  312MOL0     O42044   5.752   3.116   8.146  0.1784  1.1359 -0.1977
  312MOL0     C42045   5.662   3.012   8.091 -0.2977  0.6770 -0.6154
  312MOL0     C42046   5.713   2.985   7.957 -0.2356 -0.3382 -1.1323
  312MOL0     C42047   5.875   2.975   7.937 -0.1948 -0.1752  0.5077
  312MOL0     C42048   5.907   2.952   7.793  0.0907 -0.3790 -0.3166
  312MOL0     C42049   6.042   2.966   7.760 -0.5119 -0.7137 -0.9723
  312MOL0     C42050   6.159   2.996   7.736 -0.2932 -1.0009  0.2597
  312MOL0     C42051   5.713   3.030   8.373 -0.0994 -0.1922 -0.1556
  312MOL0     C42052   5.761   3.003   8.503 -0.2368 -0.4044 -0.6898
  312MOL0     H42053   5.950   3.236   8.909  0.6535  2.3467  2.0970
  312MOL0     H42054   6.053   3.254   9.138  2.0750  0.3371  1.3003
  312MOL0     H42055   6.249   3.008   9.354  0.4983  1.9482  1.5895
  312MOL0     H42056   6.346   2.954   9.211  0.4248 -0.0893 -0.9571
  312MOL0     H42057   6.543   3.088   9.293  1.1639 -0.4494 -1.0401
  312MOL0     H42058   6.432   3.170   9.411 -1.5065 -2.2498  3.1173
  312MOL0     H42059   6.594   2.997   9.498  0.5132  1.5113 -1.7159
  312MOL0     H42060   6.426   2.967   9.541  0.4176  0.3708 -0.2731
  312MOL0     H42061   6.406   2.807   9.368  0.6493  0.2353  0.0259
  312MOL0     H42062   6.586   2.826   9.344 -1.7800  2.0816 -1.1794
  312MOL0     H42063   6.537   2.628   9.457  2.2813 -0.5491 -0.0888
  312MOL0     H42064   6.616   2.732   9.568 -1.4875  2.8694  1.2650
  312MOL0     H42065   6.379   2.794   9.678 -0.0339  0.5949 -0.4304
  312MOL0     H42066   6.320   2.681   9.545  1.2099  0.5531 -1.4742
  312MOL0     H42067   6.477   2.501   9.630  0.3211 -0.0661  0.8245
  312MOL0     H42068   6.514   2.600   9.757 -0.7858  1.9409 -0.6921
  312MOL0     H42069   6.236   2.494   9.708  0.6187  0.8291 -0.0553
  312MOL0     H42070   6.270   2.620   9.833 -0.0913  0.2640  0.4173
  312MOL0     H42071   6.467   2.548  10.030  2.0239  0.1834 -0.6523
  312MOL0     H42072   6.574   2.209  10.161  0.2632  1.2041 -1.9384
  312MOL0     H42073   6.612   2.368  10.178  1.0803 -2.5183  0.1935
  312MOL0     H42074   6.397   2.424  10.307  3.0792  1.8881 -0.4987
  312MOL0     H42075   6.504   2.325  10.395  0.1274 -1.6704 -0.3131
  312MOL0     H42076   6.333   2.127  10.317 -1.3524 -0.1086  2.9057
  312MOL0     H42077   6.239   2.257  10.245  2.2097  2.0277 -3.4280
  312MOL0     H42078   6.151   2.204  10.462  1.1220 -2.7447 -2.1241
  312MOL0     H42079   6.230   2.359  10.484  0.8816 -0.2218  1.5050
  312MOL0     H42080   6.444   2.141  10.793 -1.2399  0.9955  0.6638
  312MOL0     H42081   6.516   2.009  10.953 -1.9364  0.9915  0.4151
  312MOL0     H42082   6.415   1.879  11.012  4.0097 -3.4975  2.1624
  312MOL0     H42083   6.547   1.838  10.892 -2.0155 -0.3284 -2.7404
  312MOL0     H42084   6.219   1.379  10.611  0.8458 -0.1396  0.3823
  312MOL0     H42085   6.160   1.135  10.685 -2.2961 -1.8175  0.7568
  312MOL0     H42086   6.331   1.005  10.932 -0.8920 -3.7279 -3.4382
  312MOL0     H42087   6.241   1.033  11.090 -1.5073 -1.1609 -0.0113
  312MOL0     H42088   6.235   0.789  10.885  1.7195  0.3329  0.0742
  312MOL0     H42089   6.302   0.787  11.050 -1.4905 -0.0035  2.3172
  312MOL0     H42090   6.093   0.659  11.043  0.6809  0.0124 -0.0242
  312MOL0     H42091   6.002   0.807  11.001 -0.7319  0.2022 -0.4719
  312MOL0     H42092   6.150   0.789  11.275 -0.0902 -0.8568  1.2732
  312MOL0     H42093   6.060   0.920  11.195  2.2753 -0.0323 -0.1363
  312MOL0     H42094   5.872   0.758  11.170 -1.3097  0.3627  0.6005
  312MOL0     H42095   5.891   0.811  11.336 -2.7834 -2.6575  0.9034
  312MOL0     H42096   5.956   0.556  11.197  1.4182 -2.1434  0.7762
  312MOL0     H42097   6.062   0.592  11.332  0.2163 -2.6982 -0.9705
  312MOL0     H42098   5.761   0.596  11.341 -0.9203  0.7294  1.1041
  312MOL0     H42099   5.871   0.635  11.480 -0.0143 -2.7220  0.7178
  312MOL0     H42100   5.978   0.421  11.466 -1.0303  1.6004  2.5510
  312MOL0     H42101   5.865   0.378  11.325 -3.0839  0.7392  0.0460
  312MOL0     H42102   6.144   1.283  11.090 -2.1727  0.9916  0.2877
  312MOL0     H42103   6.163   1.506  11.004  1.5656 -2.4713  2.4997
  312MOL0     H42104   6.191   1.771  10.582  0.7332  0.0682  0.2980
  312MOL0     H42105   6.200   1.989  10.477 -0.6399  0.1509 -0.3037
  312MOL0     H42106   6.365   2.993   9.002 -1.4882 -2.0935 -1.2812
  312MOL0     H42107   6.295   3.019   8.778 -0.5989  1.9147 -1.9406
  312MOL0     H42108   6.050   3.174   8.480 -0.4423 -1.0373  1.5602
  312MOL0     H42109   5.995   3.191   8.251 -0.2217 -0.1409 -0.4435
  312MOL0     H42110   5.663   2.913   8.137 -0.9185 -0.1307 -2.2725
  312MOL0     H42111   5.558   3.044   8.094 -0.3490  0.6283 -1.5936
  312MOL0     H42112   5.671   3.065   7.895  0.3296 -1.2873 -2.8146
  312MOL0     H42113   5.677   2.887   7.923 -2.6677 -0.3209  1.1347
  312MOL0     H42114   5.927   2.899   7.995  1.6041  0.2239 -0.5295
  312MOL0     H42115   5.932   3.065   7.962  2.8344 -1.5941 -0.7886
  312MOL0     H42116   5.845   3.017   7.731 -1.9436 -2.1052 -0.2443
  312MOL0     H42117   5.864   2.852   7.777 -0.1728 -0.5665  1.4175
  312MOL0     H42118   6.258   3.020   7.702 -0.7300  0.8162  0.1555
  312MOL0     H42119   5.610   3.004   8.352  0.5414 -2.2261 -1.0754
  312MOL0     H42120   5.702   2.941   8.569 -0.7273  0.9084  0.1402
  313MOL0     O42121   6.971  10.040  11.249  0.3242  0.0879  0.5225
  313MOL0     C42122   7.075  10.107  11.230 -0.2832  0.3112 -0.0608
  313MOL0     O42123   7.206  10.063  11.262 -0.3417  0.1729 -0.7839
  313MOL0     C42124   7.218   9.945  11.328 -0.5671  0.0769  0.6673
  313MOL0     C42125   7.252   9.936  11.462 -0.0469 -0.6230  0.4234
  313MOL0     C42126   7.262   9.820  11.531  0.7273 -0.1736 -0.4145
  313MOL0     C42127   7.223   9.697  11.476  0.0146  0.1695  0.2514
  313MOL0     O42128   7.240   9.579  11.550  0.2545  0.2342 -0.2351
  313MOL0     C42129   7.222   9.453  11.483  0.3085  0.7842  0.1019
  313MOL0     C42130   7.323   9.354  11.549  0.9328  0.5958  0.8871
  313MOL0     C42131   7.276   9.209  11.523 -0.8261 -0.0580 -0.0945
  313MOL0     C42132   7.378   9.108  11.584  0.6700 -0.4980 -0.3144
  313MOL0     C42133   7.342   8.955  11.578 -0.4336  0.2516 -0.2084
  313MOL0     C42134   7.237   8.918  11.699  0.0498 -0.3450 -0.1968
  313MOL0     C42135   7.203   8.764  11.690 -0.4165  0.7178  0.2131
  313MOL0     C42136   7.123   8.733  11.569  0.9534  0.5892 -0.2329
  313MOL0     N42137   7.062   8.598  11.587  0.1929 -0.2006 -0.7815
  313MOL0     C42138   7.077   8.481  11.513  0.2978 -0.1638  0.6508
  313MOL0     C42139   6.981   8.401  11.560  0.0482  0.1556 -0.5371
  313MOL0     C42140   6.936   8.281  11.483 -0.0189  0.0834 -0.5597
  313MOL0     C42141   7.038   8.178  11.444 -0.2124  0.7659 -0.5104
  313MOL0     C42142   7.119   8.125  11.567 -0.4341 -0.4211  0.0395
  313MOL0     C42143   7.240   8.045  11.518 -0.5654  1.0532 -0.2772
  313MOL0     O42144   7.190   7.921  11.470  0.2766 -0.3351  0.1940
  313MOL0     C42145   7.277   7.839  11.398  0.2078  0.3103 -0.9491
  313MOL0     C42146   7.252   7.817  11.259  0.4712  1.1764  0.0278
  313MOL0     C42147   7.319   7.705  11.192 -0.5748 -0.1455 -0.3360
  313MOL0     C42148   7.279   7.673  11.051  0.5325  0.5731 -0.7563
  313MOL0     C42149   7.430   7.641  11.261  0.4187 -0.0981  0.2512
  313MOL0     C42150   7.526   7.555  11.184 -0.2666 -0.3696 -0.2839
  313MOL0     O42151   7.632   7.514  11.264  0.6192 -0.2614  0.3688
  313MOL0     C42152   7.693   7.389  11.238 -0.3598  0.5745 -0.3257
  313MOL0     C42153   7.835   7.384  11.257  0.3941 -0.4784  0.6821
  313MOL0     C42154   7.895   7.260  11.249  0.1177 -0.8676  0.0970
  313MOL0     C42155   7.815   7.148  11.245 -0.2099 -0.8270 -0.8179
  313MOL0     O42156   7.869   7.023  11.267  0.6748  0.2680  0.0943
  313MOL0     C42157   7.974   6.970  11.192  0.5636 -0.0198 -0.2879
  313MOL0     C42158   7.927   6.845  11.108 -0.8277 -0.7315  1.4137
  313MOL0     C42159   8.044   6.765  11.053  0.2205 -0.0168  1.0892
  313MOL0     C42160   8.085   6.649  11.144 -0.1653  0.0426 -0.5814
  313MOL0     C42161   8.191   6.563  11.064 -0.6209 -0.1547  0.7153
  313MOL0     C42162   8.316   6.646  11.020 -0.2657  0.4431  0.5170
  313MOL0     C42163   8.389   6.714  11.132 -0.3414  1.0304  1.0307
  313MOL0     C42164   8.502   6.795  11.075  0.0802 -0.7130 -0.4855
  313MOL0    Cl42165   8.418   6.938  11.010  0.0865 -0.6697 -0.4470
  313MOL0     C42166   7.679   7.150  11.227 -0.5435  0.0531 -0.6736
  313MOL0     C42167   7.614   7.271  11.224 -0.7741 -0.0921  0.7664
  313MOL0     O42168   7.513   7.509  11.072 -0.0689 -0.4303  0.7699
  313MOL0     C42169   7.448   7.670  11.400  0.1912  0.6103  0.5008
  313MOL0     C42170   7.366   7.762  11.465  0.7630 -0.8642  0.0617
  313MOL0     N42171   6.914   8.467  11.656  0.1663 -0.9463 -0.0762
  313MOL0     N42172   6.954   8.586  11.672  0.1098  0.0332  0.0654
  313MOL0     C42173   7.169   9.711  11.337  0.4098  0.1381  0.0839
  313MOL0     C42174   7.172   9.825  11.268 -1.3714  0.1486  0.4659
  313MOL0     C42175   7.074  10.241  11.164  0.3299  0.1673  0.9898
  313MOL0     C42176   6.942  10.297  11.130 -0.3072  1.6919  0.9583
  313MOL0     C42177   6.924  10.427  11.090 -0.4990 -0.7369 -0.4335
  313MOL0     C42178   7.041  10.503  11.071 -0.3873  0.4977 -0.5570
  313MOL0     O42179   7.026  10.635  11.028 -0.5783 -0.0802  0.5015
  313MOL0     C42180   6.905  10.667  10.964  0.3086 -0.3875  1.4426
  313MOL0     C42181   6.823  10.730  11.078 -0.4071 -0.0020  0.1299
  313MOL0     C42182   6.675  10.746  11.029 -0.5417 -0.6787 -0.0747
  313MOL0     C42183   6.581  10.759  11.148 -0.2636 -0.4789 -0.3303
  313MOL0     C42184   6.616  10.884  11.231  1.0667  0.6718 -0.2906
  313MOL0     C42185   6.632  10.979  11.302  0.8117  0.4162  0.2428
  313MOL0     C42186   7.169  10.455  11.093 -0.4748 -0.8328  0.0080
  313MOL0     C42187   7.189  10.320  11.140  0.8157 -0.0664  0.0860
  313MOL0     H42188   7.284  10.029  11.510  1.3097  0.7562 -2.8558
  313MOL0     H42189   7.298   9.825  11.634 -1.6828  0.0665  0.4640
  313MOL0     H42190   7.116   9.429  11.473  0.6598 -0.1319 -1.7866
  313MOL0     H42191   7.249   9.471  11.379 -1.1360 -0.7502 -0.5955
  313MOL0     H42192   7.424   9.366  11.510  0.5666 -0.8567 -0.6510
  313MOL0     H42193   7.323   9.388  11.653  0.5787  2.1971  0.3914
  313MOL0     H42194   7.190   9.189  11.589  0.8796 -1.1611  1.9256
  313MOL0     H42195   7.246   9.192  11.420 -0.7814  2.0197 -0.5010
  313MOL0     H42196   7.477   9.115  11.538  0.6671 -1.2672 -0.4402
  313MOL0     H42197   7.395   9.143  11.686  7.1947 -1.2848 -0.7085
  313MOL0     H42198   7.312   8.938  11.474 -3.2352  3.2985 -0.0762
  313MOL0     H42199   7.433   8.901  11.603  0.3359  1.9038  0.7417
  313MOL0     H42200   7.291   8.941  11.791  0.2195 -2.2315  0.2136
  313MOL0     H42201   7.148   8.982  11.698 -0.7286 -1.3972 -0.1066
  313MOL0     H42202   7.290   8.698  11.701 -0.4599  0.8271  1.3274
  313MOL0     H42203   7.139   8.741  11.776  0.4638  2.0026  1.2574
  313MOL0     H42204   7.190   8.735  11.483  2.7300  2.4585  1.1008
  313MOL0     H42205   7.042   8.807  11.572 -0.7665 -1.0977 -1.8503
  313MOL0     H42206   7.150   8.454  11.438  0.4731  0.7120  0.4949
  313MOL0     H42207   6.861   8.230  11.544 -0.1379  1.7076  0.7220
  313MOL0     H42208   6.894   8.324  11.392  1.7467  2.6999 -0.2547
  313MOL0     H42209   7.109   8.219  11.371 -1.9190  2.0652 -1.5024
  313MOL0     H42210   6.986   8.091  11.403 -0.7445  1.9611 -2.4996
  313MOL0     H42211   7.052   8.068  11.633  1.9163 -3.3493  0.0890
  313MOL0     H42212   7.160   8.210  11.622 -0.3939  0.9187 -1.9559
  313MOL0     H42213   7.311   8.029  11.599 -1.1273  1.3336  0.2792
  313MOL0     H42214   7.292   8.109  11.447  1.9816  2.0337  2.2728
  313MOL0     H42215   7.163   7.857  11.210 -1.5066 -2.7097  0.0863
  313MOL0     H42216   7.359   7.704  10.983  2.2488 -2.3997 -0.2773
  313MOL0     H42217   7.260   7.566  11.036  1.2631  0.0457  1.6048
  313MOL0     H42218   7.185   7.722  11.026  1.3538  1.3723 -2.4253
  313MOL0     H42219   7.899   7.470  11.271 -3.6245  2.6069  2.3731
  313MOL0     H42220   8.002   7.245  11.261 -0.3109 -3.3972  1.3282
  313MOL0     H42221   8.020   7.044  11.128 -0.2213 -2.1667 -3.5853
  313MOL0     H42222   8.046   6.930  11.265  0.5489 -3.2302 -1.8312
  313MOL0     H42223   7.845   6.784  11.147 -1.8089 -0.7762 -0.5550
  313MOL0     H42224   7.876   6.878  11.017 -0.2235 -0.9957  0.9739
  313MOL0     H42225   8.135   6.821  11.026  2.1117 -2.5456  1.7751
  313MOL0     H42226   8.017   6.725  10.955  3.5943  1.4823 -0.6083
  313MOL0     H42227   8.133   6.680  11.237  0.3763 -0.5312 -0.6618
  313MOL0     H42228   8.003   6.582  11.172 -1.9685  1.3822 -2.4067
  313MOL0     H42229   8.149   6.506  10.981 -0.8519  1.7750 -0.5755
  313MOL0     H42230   8.227   6.481  11.127  1.0750  2.1658  2.9725
  313MOL0     H42231   8.390   6.579  10.975  1.5614 -0.7118  4.6941
  313MOL0     H42232   8.296   6.720  10.942  1.6183 -0.1868 -0.6414
  313MOL0     H42233   8.440   6.641  11.195 -0.1324 -0.2746 -0.5883
  313MOL0     H42234   8.322   6.773  11.196 -0.5084  0.7105  1.1516
  313MOL0     H42235   8.562   6.764  10.988 -1.3950  1.7513 -2.5185
  313MOL0     H42236   8.565   6.830  11.157 -1.6387  1.0548  0.1409
  313MOL0     H42237   7.618   7.061  11.212 -0.8754  0.3218 -0.9425
  313MOL0     H42238   7.508   7.286  11.206 -1.0493 -0.4545  1.9921
  313MOL0     H42239   7.528   7.625  11.458  0.8355 -1.7227 -1.9661
  313MOL0     H42240   7.385   7.790  11.568 -0.5902  2.2064 -0.4017
  313MOL0     H42241   7.136   9.632  11.270 -2.0938  3.2413 -2.6784
  313MOL0     H42242   7.135   9.828  11.166  0.7014  1.6408 -0.2834
  313MOL0     H42243   6.848  10.247  11.151 -0.0379  0.7643  0.0200
  313MOL0     H42244   6.818  10.453  11.085 -0.5746 -0.3275  2.0320
  313MOL0     H42245   6.927  10.750  10.896 -2.5206  1.9831  3.1521
  313MOL0     H42246   6.851  10.587  10.913 -0.4521  0.9605  0.0257
  313MOL0     H42247   6.864  10.827  11.103  2.0595 -0.6743 -1.0368
  313MOL0     H42248   6.824  10.660  11.162  0.3051  0.1574  0.2593
  313MOL0     H42249   6.642  10.666  10.962 -0.5244  0.4357 -1.4694
  313MOL0     H42250   6.669  10.837  10.967 -1.2791 -1.0022 -0.4895
  313MOL0     H42251   6.595  10.670  11.211  0.0943  0.4949  1.0003
  313MOL0     H42252   6.475  10.772  11.128 -0.4151 -2.9250 -1.4606
  313MOL0     H42253   6.640  11.071  11.357 -4.3675  2.5123 -1.8382
  313MOL0     H42254   7.253  10.524  11.081  0.8073 -1.9032  2.2113
  313MOL0     H42255   7.289  10.280  11.147  1.0513 -0.0930 -2.5931
  314MOL0     O42256   6.446   2.122   8.837  0.1306 -0.1737 -0.1029
  314MOL0     C42257   6.419   2.062   8.736 -0.0537  1.6416  0.4923
  314MOL0     O42258   6.428   1.929   8.713 -0.2672 -0.2326 -0.4169
  314MOL0     C42259   6.416   1.860   8.835 -0.7435 -0.6854 -0.1710
  314MOL0     C42260   6.516   1.860   8.936 -0.3162 -0.2305  0.0411
  314MOL0     C42261   6.502   1.794   9.054  0.3978  0.4075  0.5809
  314MOL0     C42262   6.393   1.707   9.067 -1.0382  0.0388  0.4198
  314MOL0     O42263   6.371   1.621   9.165 -0.3589 -0.3165 -0.1124
  314MOL0     C42264   6.437   1.619   9.285 -0.4455 -0.5977 -0.6757
  314MOL0     C42265   6.560   1.524   9.288 -0.1940 -1.0322 -0.9444
  314MOL0     C42266   6.527   1.394   9.208  0.2568  0.0995 -0.1034
  314MOL0     C42267   6.657   1.295   9.203 -0.0945  0.4646 -0.1962
  314MOL0     C42268   6.653   1.209   9.072  0.1038  0.1170 -0.4847
  314MOL0     C42269   6.673   1.278   8.942  0.4044 -0.3848 -0.1509
  314MOL0     C42270   6.782   1.383   8.934  0.3703  0.4662 -0.3228
  314MOL0     C42271   6.838   1.409   8.797 -0.3377  0.1601 -0.1239
  314MOL0     N42272   6.739   1.430   8.689 -0.1629 -0.3568  0.0545
  314MOL0     C42273   6.655   1.541   8.666 -1.3462 -0.3295 -1.0177
  314MOL0     C42274   6.611   1.529   8.541 -0.0440  0.2688  0.5193
  314MOL0     C42275   6.537   1.637   8.466  0.0441 -0.4540  1.1881
  314MOL0     C42276   6.399   1.584   8.419  0.1436  0.1932  0.1714
  314MOL0     C42277   6.317   1.702   8.346 -0.2831 -0.4244 -0.2039
  314MOL0     C42278   6.371   1.749   8.214 -0.6722  0.0756  0.3291
  314MOL0     O42279   6.329   1.656   8.110  0.1230 -0.4243  0.2466
  314MOL0     C42280   6.339   1.700   7.982  0.7354  0.1158 -0.4260
  314MOL0     C42281   6.286   1.617   7.883 -0.0539 -0.9984  1.0329
  314MOL0     C42282   6.278   1.656   7.747 -0.5097 -0.0310 -0.1392
  314MOL0     C42283   6.223   1.547   7.655  0.3992 -0.4972 -0.0390
  314MOL0     C42284   6.346   1.771   7.702 -0.3989  0.8593 -0.5220
  314MOL0     C42285   6.365   1.820   7.563 -0.0405  0.1249 -0.2922
  314MOL0     O42286   6.435   1.938   7.554 -0.3214 -0.1623  0.6661
  314MOL0     C42287   6.535   1.930   7.459  1.1324  0.8988  0.1907
  314MOL0     C42288   6.660   1.865   7.473  0.3701  0.9369 -0.1223
  314MOL0     C42289   6.747   1.854   7.364 -0.2277  0.0169 -0.3286
  314MOL0     C42290   6.713   1.918   7.233  0.1353 -0.2238 -0.1962
  314MOL0     O42291   6.785   1.907   7.123 -0.3309  0.8399  0.4134
  314MOL0     C42292   6.923   1.933   7.128 -0.3461  0.3913  0.9135
  314MOL0     C42293   6.971   1.983   6.994 -0.0118 -0.3805  0.1377
  314MOL0     C42294   6.937   2.119   6.939  0.0411 -0.4341  0.3278
  314MOL0     C42295   7.027   2.165   6.832 -0.7828 -0.9591 -1.0161
  314MOL0     C42296   7.021   2.077   6.716 -0.6871 -0.2521 -0.2467
  314MOL0     C42297   6.882   2.075   6.647 -0.6206 -0.5367 -0.3827
  314MOL0     C42298   6.896   2.024   6.508  0.7507  0.1143  0.6121
  314MOL0     C42299   6.766   2.059   6.415 -0.4455 -0.1794 -0.6824
  314MOL0    Cl42300   6.809   1.955   6.275  0.0361 -0.4430 -0.4148
  314MOL0     C42301   6.597   1.994   7.231  0.2875 -0.2736 -0.0084
  314MOL0     C42302   6.508   1.998   7.338 -0.0307 -0.0745 -0.8056
  314MOL0     O42303   6.321   1.761   7.466  0.2620 -0.5435 -0.0567
  314MOL0     C42304   6.420   1.837   7.803 -0.5259  0.1044 -0.0254
  314MOL0     C42305   6.409   1.810   7.938 -0.2184  0.2251 -0.2994
  314MOL0     N42306   6.657   1.409   8.490 -0.2498  0.3284  0.6407
  314MOL0     N42307   6.739   1.353   8.577  0.2383  0.2296  0.9199
  314MOL0     C42308   6.302   1.698   8.961 -0.6831  0.4386 -0.5831
  314MOL0     C42309   6.314   1.773   8.844 -0.4684 -0.1046 -0.0416
  314MOL0     C42310   6.376   2.144   8.626  0.3335 -0.1349  0.8469
  314MOL0     C42311   6.340   2.275   8.644  0.0613 -0.1098 -0.6299
  314MOL0     C42312   6.303   2.364   8.545 -0.3024  0.8091  0.7465
  314MOL0     C42313   6.289   2.318   8.415 -0.1403 -0.6970 -1.2386
  314MOL0     O42314   6.247   2.408   8.331  0.2583 -0.7711 -0.4288
  314MOL0     C42315   6.239   2.368   8.194  0.5509 -0.3486  0.4363
  314MOL0     C42316   6.114   2.289   8.161  0.3487  0.0600 -0.3226
  314MOL0     C42317   6.125   2.233   8.018  0.4462  0.5382 -0.7324
  314MOL0     C42318   6.051   2.315   7.913 -0.5314  0.2016  1.0092
  314MOL0     C42319   6.088   2.463   7.902  0.9220  0.1811  0.4942
  314MOL0     C42320   6.125   2.578   7.879 -0.4437  0.0403 -0.4324
  314MOL0     C42321   6.329   2.188   8.397  0.4391 -0.2053  0.1329
  314MOL0     C42322   6.372   2.097   8.494 -0.6682 -0.2052 -0.3679
  314MOL0     H42323   6.608   1.917   8.936  0.6761 -1.6524  2.6902
  314MOL0     H42324   6.581   1.795   9.129  1.5806 -4.7507 -0.2414
  314MOL0     H42325   6.471   1.720   9.309 -0.1837 -0.9195  0.4136
  314MOL0     H42326   6.365   1.594   9.364  1.1758  1.3047  1.5502
  314MOL0     H42327   6.644   1.578   9.244 -1.4230  1.7327 -0.0653
  314MOL0     H42328   6.586   1.500   9.392  0.6682  1.6478 -0.4817
  314MOL0     H42329   6.452   1.335   9.260  1.5256 -0.2107  1.4670
  314MOL0     H42330   6.497   1.412   9.104  0.4197 -0.9990 -0.3504
  314MOL0     H42331   6.747   1.357   9.207  1.1125 -1.2412  2.0251
  314MOL0     H42332   6.660   1.224   9.287  1.7125  1.5127  0.6889
  314MOL0     H42333   6.725   1.129   9.089 -2.6223 -2.7789 -1.5131
  314MOL0     H42334   6.554   1.161   9.075 -0.0623  0.4498 -0.6546
  314MOL0     H42335   6.688   1.215   8.854  0.6652  1.9005 -1.8371
  314MOL0     H42336   6.583   1.336   8.921  1.6519  1.1831 -1.4690
  314MOL0     H42337   6.737   1.480   8.957 -0.4468  0.6411 -2.4413
  314MOL0     H42338   6.864   1.345   8.996  2.8076  1.4060 -2.7363
  314MOL0     H42339   6.910   1.329   8.775 -0.1884  0.6877 -1.6965
  314MOL0     H42340   6.899   1.499   8.808 -1.3010  0.5915  2.2449
  314MOL0     H42341   6.643   1.632   8.723  1.7988  1.8052 -3.3690
  314MOL0     H42342   6.521   1.717   8.539  1.3857  2.1897 -1.2473
  314MOL0     H42343   6.608   1.668   8.388 -1.3128  1.8657  0.7963
  314MOL0     H42344   6.350   1.566   8.515 -0.2549  2.5122  0.4570
  314MOL0     H42345   6.418   1.499   8.353  3.3050  2.5712 -2.3552
  314MOL0     H42346   6.302   1.786   8.414 -0.2743 -0.3666 -0.2732
  314MOL0     H42347   6.216   1.669   8.319 -0.2681  0.2499 -1.1474
  314MOL0     H42348   6.481   1.750   8.214 -0.6596 -0.2950 -0.3995
  314MOL0     H42349   6.334   1.849   8.193  3.2339  1.9796  1.5550
  314MOL0     H42350   6.239   1.526   7.918  0.5963 -3.6258 -4.0277
  314MOL0     H42351   6.157   1.494   7.725  1.3823 -0.6749  0.7705
  314MOL0     H42352   6.164   1.572   7.566 -1.5820  0.9400  1.5764
  314MOL0     H42353   6.301   1.481   7.615  0.6409  1.8683 -4.0091
  314MOL0     H42354   6.686   1.806   7.560 -0.3565 -0.9398 -1.1248
  314MOL0     H42355   6.837   1.793   7.360  0.1652  0.6500 -3.1811
  314MOL0     H42356   6.945   2.006   7.207 -1.3496  0.8090  0.8268
  314MOL0     H42357   6.979   1.842   7.148  0.9989  1.0079  0.1322
  314MOL0     H42358   7.080   1.979   7.005  0.0731 -1.4908 -0.9177
  314MOL0     H42359   6.945   1.906   6.921  2.1138 -2.1488  1.1198
  314MOL0     H42360   6.949   2.194   7.018 -1.7087 -1.2752  1.4558
  314MOL0     H42361   6.830   2.117   6.913  0.1752  1.2802 -0.5027
  314MOL0     H42362   7.010   2.270   6.807 -1.8535 -0.1038  2.7968
  314MOL0     H42363   7.128   2.149   6.872 -0.1386  2.7033 -0.7754
  314MOL0     H42364   7.051   1.974   6.735  2.3435  0.2860 -1.5508
  314MOL0     H42365   7.095   2.121   6.648 -2.2113 -0.4434 -2.1272
  314MOL0     H42366   6.813   2.010   6.702 -0.8307  1.8856  2.4657
  314MOL0     H42367   6.842   2.176   6.638 -1.1174 -0.7401 -0.4798
  314MOL0     H42368   6.909   1.916   6.512  2.5979  0.2899  0.4355
  314MOL0     H42369   6.982   2.076   6.465 -0.6913  1.5053 -0.7378
  314MOL0     H42370   6.757   2.166   6.391 -2.4359 -0.1949 -0.1607
  314MOL0     H42371   6.671   2.042   6.467  0.4464 -0.6309  0.8324
  314MOL0     H42372   6.579   2.040   7.135 -0.0565  0.2542  0.3047
  314MOL0     H42373   6.408   2.035   7.324  0.6636  2.1903 -0.1425
  314MOL0     H42374   6.489   1.919   7.789 -0.5448  0.0427 -0.4955
  314MOL0     H42375   6.458   1.876   8.008 -1.0816  0.8271 -0.2477
  314MOL0     H42376   6.218   1.632   8.980 -0.9486  1.1261  0.7009
  314MOL0     H42377   6.234   1.776   8.770  0.5268  0.6863 -1.1275
  314MOL0     H42378   6.334   2.303   8.749 -1.7344 -1.7913 -0.2229
  314MOL0     H42379   6.256   2.459   8.569  1.9452  2.0259  0.5523
  314MOL0     H42380   6.232   2.461   8.136 -1.0181 -1.1094 -0.6733
  314MOL0     H42381   6.325   2.307   8.165 -0.9998 -3.6423  2.2257
  314MOL0     H42382   6.022   2.346   8.177  2.8375  3.7175  2.6939
  314MOL0     H42383   6.122   2.218   8.243  2.2428  3.5257  2.7880
  314MOL0     H42384   6.075   2.135   8.016 -1.3911  1.4396 -2.4040
  314MOL0     H42385   6.227   2.211   7.985  0.2720  0.3830 -1.1737
  314MOL0     H42386   5.944   2.293   7.912 -0.4143 -0.4513 -0.8873
  314MOL0     H42387   6.081   2.293   7.810 -0.4449 -0.3272  1.1472
  314MOL0     H42388   6.157   2.679   7.860 -0.8693  0.1087 -0.8089
  314MOL0     H42389   6.328   2.144   8.298 -0.1159 -1.9019  0.8621
  314MOL0     H42390   6.392   1.992   8.474  0.4323 -0.3576  1.3614
  315MOL0     O42391   5.182   8.891   4.695  0.6904 -0.7401 -0.2937
  315MOL0     C42392   5.062   8.866   4.672 -0.4771 -0.1007 -0.6709
  315MOL0     O42393   4.995   8.888   4.554  0.2965  0.4644  0.0485
  315MOL0     C42394   5.064   8.966   4.463 -0.4019  0.0844  0.4945
  315MOL0     C42395   5.116   9.096   4.502  0.1575 -0.3275 -0.1967
  315MOL0     C42396   5.190   9.176   4.416  0.2671 -0.4702 -1.0122
  315MOL0     C42397   5.211   9.126   4.284  0.4162 -0.7212 -0.4823
  315MOL0     O42398   5.283   9.197   4.180  0.5377 -0.2580  0.1462
  315MOL0     C42399   5.348   9.321   4.203 -0.3853 -0.1748 -0.4924
  315MOL0     C42400   5.398   9.394   4.081 -0.6380 -0.3626 -0.1985
  315MOL0     C42401   5.287   9.450   3.995  0.3134  0.3853 -1.3196
  315MOL0     C42402   5.346   9.548   3.897 -0.1195  0.3175  0.0888
  315MOL0     C42403   5.419   9.474   3.778  0.8282 -0.1448  1.3388
  315MOL0     C42404   5.463   9.561   3.656  0.6035  0.2056  0.2333
  315MOL0     C42405   5.517   9.481   3.542  0.3485 -0.3576  0.3305
  315MOL0     C42406   5.578   9.581   3.439  1.0223  0.8725 -0.5140
  315MOL0     N42407   5.616   9.501   3.324  0.0451 -0.3330 -0.5208
  315MOL0     C42408   5.727   9.421   3.300  0.0089 -0.7551 -0.4068
  315MOL0     C42409   5.716   9.366   3.174 -0.3975 -0.7046 -0.6188
  315MOL0     C42410   5.819   9.289   3.098  0.4228 -0.4769 -1.1628
  315MOL0     C42411   5.753   9.192   3.003  0.4050  0.0447 -0.1517
  315MOL0     C42412   5.853   9.105   2.925  0.0114 -0.1478  0.0653
  315MOL0     C42413   5.912   9.164   2.790  0.0326  0.2992  0.0148
  315MOL0     O42414   6.027   9.238   2.828  0.7048  0.8447 -0.7200
  315MOL0     C42415   6.094   9.296   2.731 -0.0960  0.3079  0.2803
  315MOL0     C42416   6.203   9.366   2.775  0.2815  0.5884  0.8527
  315MOL0     C42417   6.293   9.427   2.678 -0.2098  0.5217  0.1900
  315MOL0     C42418   6.396   9.515   2.738  0.4626  0.2709 -0.0360
  315MOL0     C42419   6.260   9.432   2.545  0.1883  0.6581  0.5272
  315MOL0     C42420   6.333   9.511   2.436  0.1494  0.9713  0.1980
  315MOL0     O42421   6.267   9.529   2.316  0.1895 -0.3280  0.4809
  315MOL0     C42422   6.351   9.543   2.208  0.4520  0.6505  0.3496
  315MOL0     C42423   6.415   9.428   2.149 -0.4637 -0.2989 -1.2198
  315MOL0     C42424   6.492   9.437   2.039 -0.5363  0.7286 -0.7870
  315MOL0     C42425   6.506   9.571   1.986 -0.2373 -0.5025  0.5602
  315MOL0     O42426   6.554   9.601   1.861 -0.4506 -0.4711 -0.5899
  315MOL0     C42427   6.635   9.497   1.795  1.0325 -0.4378 -0.8988
  315MOL0     C42428   6.653   9.534   1.646 -0.6589 -0.1412 -0.8211
  315MOL0     C42429   6.718   9.422   1.561 -0.0574 -0.5817 -0.6299
  315MOL0     C42430   6.767   9.452   1.420  0.1566  0.5164 -1.2601
  315MOL0     C42431   6.866   9.356   1.354 -1.3098 -0.1910  0.0839
  315MOL0     C42432   6.796   9.225   1.330 -0.5812  0.5370 -0.6019
  315MOL0     C42433   6.887   9.105   1.287  0.3418  0.2728 -0.4094
  315MOL0     C42434   6.912   9.107   1.142  0.6615  0.5990 -1.1364
  315MOL0    Cl42435   7.019   9.233   1.085  0.2215  0.2413 -0.0354
  315MOL0     C42436   6.457   9.681   2.051  0.2946 -0.1481  0.1657
  315MOL0     C42437   6.370   9.675   2.166 -0.0062  0.4596  0.9206
  315MOL0     O42438   6.447   9.536   2.463  0.4881 -0.3076  0.1005
  315MOL0     C42439   6.148   9.358   2.497 -0.8856 -1.3700 -1.0584
  315MOL0     C42440   6.073   9.288   2.590  0.5163  1.1758  0.9997
  315MOL0     N42441   5.607   9.435   3.124  0.8768 -0.5388  0.3294
  315MOL0     N42442   5.533   9.498   3.206 -0.6822  0.2299 -0.0113
  315MOL0     C42443   5.132   9.013   4.246 -0.9574  0.0089 -0.2357
  315MOL0     C42444   5.063   8.928   4.328 -0.1669 -0.4432  0.4501
  315MOL0     C42445   4.983   8.803   4.784  0.1934 -0.0539 -0.2903
  315MOL0     C42446   5.043   8.761   4.907  0.5710  0.5183 -0.4552
  315MOL0     C42447   4.963   8.716   5.017 -1.5104 -0.5809 -0.8928
  315MOL0     C42448   4.827   8.710   5.006  1.1684  0.0933 -0.4038
  315MOL0     O42449   4.774   8.652   5.120  0.1267  0.7493  0.3513
  315MOL0     C42450   4.629   8.657   5.147 -0.5265 -0.4899  0.2897
  315MOL0     C42451   4.572   8.802   5.173 -0.6786 -1.1630 -0.1558
  315MOL0     C42452   4.668   8.875   5.282 -0.7273  0.4856  0.8269
  315MOL0     C42453   4.624   8.894   5.428  0.3301 -0.4869  0.0818
  315MOL0     C42454   4.645   8.757   5.485  0.3073 -1.1995  0.5137
  315MOL0     C42455   4.670   8.649   5.541  0.7233  0.5992  0.3735
  315MOL0     C42456   4.769   8.742   4.881  0.1478  0.5507 -0.3366
  315MOL0     C42457   4.841   8.801   4.778 -0.0921  0.4459  0.4353
  315MOL0     H42458   5.100   9.143   4.598  2.3518  1.0854 -0.4378
  315MOL0     H42459   5.231   9.273   4.439  0.6782 -0.4569 -1.7805
  315MOL0     H42460   5.276   9.382   4.257 -1.6405 -1.5243 -0.5863
  315MOL0     H42461   5.442   9.310   4.259 -0.8730 -1.4323  0.1180
  315MOL0     H42462   5.470   9.466   4.121  1.2633 -2.7948  0.9940
  315MOL0     H42463   5.460   9.332   4.016 -1.1187  1.6487 -2.7790
  315MOL0     H42464   5.232   9.367   3.950 -1.5511 -0.0482  1.5326
  315MOL0     H42465   5.220   9.502   4.064  0.6786  1.9711 -2.0919
  315MOL0     H42466   5.274   9.607   3.840  0.2610  2.0680  1.3336
  315MOL0     H42467   5.430   9.605   3.939  1.6278 -0.6783 -1.8222
  315MOL0     H42468   5.512   9.435   3.822 -0.5650 -1.3677  3.3439
  315MOL0     H42469   5.358   9.389   3.746 -0.5553  0.9909  0.8865
  315MOL0     H42470   5.378   9.622   3.623 -0.0002 -2.6143 -4.2710
  315MOL0     H42471   5.536   9.631   3.699 -2.3640  4.3308 -0.8265
  315MOL0     H42472   5.600   9.423   3.583  0.6158 -0.0055  0.2915
  315MOL0     H42473   5.440   9.420   3.494  0.1103  1.9933 -2.5463
  315MOL0     H42474   5.660   9.636   3.487  2.4918 -1.0592 -0.6756
  315MOL0     H42475   5.503   9.656   3.412  1.1271  0.7511 -1.1398
  315MOL0     H42476   5.809   9.409   3.369 -1.6410 -0.7088  1.6949
  315MOL0     H42477   5.879   9.368   3.051  0.1716 -0.3307 -1.2396
  315MOL0     H42478   5.875   9.231   3.172 -1.5388  0.7882  1.4446
  315MOL0     H42479   5.679   9.245   2.941  1.6196  1.0376 -0.7984
  315MOL0     H42480   5.706   9.125   3.075  2.0528  0.2007  1.1255
  315MOL0     H42481   5.793   9.019   2.894  0.2413  0.4976 -2.3766
  315MOL0     H42482   5.932   9.065   2.989  2.6117 -2.0861 -3.9631
  315MOL0     H42483   5.842   9.232   2.743  1.2627  1.9007  0.4237
  315MOL0     H42484   5.940   9.076   2.732  3.8018 -1.0064  3.3177
  315MOL0     H42485   6.202   9.379   2.883 -2.1019 -0.2656  1.0039
  315MOL0     H42486   6.384   9.617   2.702 -2.2455 -0.4848 -1.5500
  315MOL0     H42487   6.396   9.514   2.848  0.4929 -0.4255 -0.0361
  315MOL0     H42488   6.488   9.467   2.703  1.2174  2.7366 -1.6824
  315MOL0     H42489   6.389   9.329   2.183  1.8598  0.3328  3.0258
  315MOL0     H42490   6.537   9.353   1.986 -0.8471  0.5434 -0.7588
  315MOL0     H42491   6.729   9.483   1.848  0.4508 -0.8025  0.0637
  315MOL0     H42492   6.583   9.401   1.802  2.6822 -1.3913 -1.1616
  315MOL0     H42493   6.551   9.548   1.610 -0.8518 -2.3305 -1.2623
  315MOL0     H42494   6.709   9.628   1.638 -1.5412  0.5825  0.8641
  315MOL0     H42495   6.648   9.339   1.579 -1.9911  1.5387  2.7987
  315MOL0     H42496   6.805   9.400   1.623 -0.7219  3.1321  1.9610
  315MOL0     H42497   6.680   9.475   1.358 -0.4652  0.5676 -0.3971
  315MOL0     H42498   6.832   9.540   1.429  0.4483  0.2126 -0.1975
  315MOL0     H42499   6.950   9.344   1.423 -4.0203  1.8158  4.1921
  315MOL0     H42500   6.878   9.418   1.266 -4.2399 -0.6204 -0.7455
  315MOL0     H42501   6.769   9.202   1.433 -0.1867  3.4653  0.2516
  315MOL0     H42502   6.711   9.246   1.264  1.5865  4.4664 -2.5008
  315MOL0     H42503   6.827   9.018   1.316 -0.8753  0.7741 -1.2989
  315MOL0     H42504   6.976   9.110   1.350 -0.3961  1.5136  0.5818
  315MOL0     H42505   6.818   9.109   1.088  1.6054  1.9480 -2.8478
  315MOL0     H42506   6.957   9.011   1.116  1.5701  1.0349 -1.2325
  315MOL0     H42507   6.462   9.782   2.012  0.1510 -0.1332  0.1872
  315MOL0     H42508   6.322   9.766   2.199 -1.2999 -0.2428  1.0623
  315MOL0     H42509   6.125   9.357   2.391 -2.5325 -3.1886 -0.7388
  315MOL0     H42510   5.995   9.219   2.557 -0.8235  2.9559  0.2718
  315MOL0     H42511   5.126   8.989   4.140  1.5660  1.6665 -0.8503
  315MOL0     H42512   4.999   8.849   4.289 -1.6292  0.5655  0.7646
  315MOL0     H42513   5.150   8.770   4.923  0.6278 -2.0836  1.3895
  315MOL0     H42514   5.017   8.690   5.108 -2.6054 -1.4614 -0.4838
  315MOL0     H42515   4.576   8.615   5.060  0.3311  1.9660 -1.5311
  315MOL0     H42516   4.600   8.595   5.232 -1.4461 -1.4984 -0.7129
  315MOL0     H42517   4.474   8.796   5.221  0.0109 -2.1567  1.2134
  315MOL0     H42518   4.559   8.856   5.079 -0.6102 -0.3494  0.2916
  315MOL0     H42519   4.682   8.977   5.243  3.7377 -0.6390 -1.0795
  315MOL0     H42520   4.766   8.827   5.285 -0.8498  0.2888  2.0473
  315MOL0     H42521   4.522   8.934   5.438  1.5278  2.6851  1.0312
  315MOL0     H42522   4.687   8.969   5.476  0.7635 -0.0217 -1.1836
  315MOL0     H42523   4.672   8.551   5.585  0.2047 -0.3565 -1.6059
  315MOL0     H42524   4.661   8.739   4.870  0.1843 -1.5409 -0.5629
  315MOL0     H42525   4.779   8.824   4.693 -0.6450 -0.7711  0.4872
  316MOL0     O42526   8.265   0.866   5.720 -0.2994 -0.1100  0.1821
  316MOL0     C42527   8.261   0.896   5.839 -0.5006  0.2244 -0.4786
  316MOL0     O42528   8.225   1.013   5.895  0.8606 -0.2771 -0.0095
  316MOL0     C42529   8.213   1.119   5.812 -0.1763 -0.2792 -0.5060
  316MOL0     C42530   8.134   1.226   5.862  0.5429  0.3170 -0.2431
  316MOL0     C42531   8.129   1.350   5.795 -0.1484  1.3009  0.7754
  316MOL0     C42532   8.207   1.376   5.678  0.6532  0.5424  0.5573
  316MOL0     O42533   8.198   1.497   5.616  0.2390 -0.1935  0.3481
  316MOL0     C42534   8.297   1.529   5.511 -1.3107  0.3988 -0.0839
  316MOL0     C42535   8.264   1.671   5.453  0.3434  0.3354  0.3230
  316MOL0     C42536   8.158   1.678   5.340 -0.1159  0.3952  0.2042
  316MOL0     C42537   8.209   1.704   5.198 -0.1210 -0.0256 -1.0751
  316MOL0     C42538   8.243   1.857   5.174 -0.6737 -0.0626 -0.2352
  316MOL0     C42539   8.287   1.880   5.023  0.6027  0.6003  0.3398
  316MOL0     C42540   8.369   2.005   4.997 -0.6013  0.9755 -0.4478
  316MOL0     C42541   8.281   2.116   4.947  0.2576 -0.0237  0.4931
  316MOL0     N42542   8.211   2.185   5.053  0.1484 -0.7713  0.8562
  316MOL0     C42543   8.076   2.174   5.072  1.2140 -0.4091 -0.4916
  316MOL0     C42544   8.038   2.255   5.186  0.1302  0.2839  1.0582
  316MOL0     C42545   7.898   2.258   5.256 -0.0183 -0.2051  0.5545
  316MOL0     C42546   7.899   2.227   5.404 -0.9878  0.0924  0.0010
  316MOL0     C42547   7.922   2.080   5.439 -0.0928 -0.0786  0.7125
  316MOL0     C42548   7.952   2.040   5.580  0.2232  0.6154 -0.6083
  316MOL0     O42549   8.061   2.094   5.651 -0.1746  0.6527 -0.0252
  316MOL0     C42550   8.188   2.046   5.621  0.4018  0.4963 -0.0284
  316MOL0     C42551   8.257   1.962   5.708 -0.8326 -0.3802  0.6918
  316MOL0     C42552   8.379   1.894   5.674 -1.3517  0.2650  0.4791
  316MOL0     C42553   8.417   1.784   5.769  0.3431 -0.8257 -1.1559
  316MOL0     C42554   8.454   1.937   5.560  0.1924 -0.0379  0.4620
  316MOL0     C42555   8.579   1.875   5.495  0.2127 -0.4779 -0.0473
  316MOL0     O42556   8.667   1.946   5.421 -0.2621 -0.4081  1.3107
  316MOL0     C42557   8.758   1.875   5.342  0.9885  0.6387 -0.9300
  316MOL0     C42558   8.866   1.812   5.405  0.6785  0.2613  0.4900
  316MOL0     C42559   8.966   1.746   5.333 -0.0253  0.0359 -0.1485
  316MOL0     C42560   8.960   1.725   5.191  0.4676  0.4807 -0.2812
  316MOL0     O42561   9.058   1.652   5.128  0.5726 -0.2749  0.4125
  316MOL0     C42562   9.005   1.557   5.040 -0.5477 -0.1352  0.2311
  316MOL0     C42563   9.123   1.463   5.027 -0.3250 -0.0289 -0.1900
  316MOL0     C42564   9.245   1.533   4.956  0.3872 -0.2290  0.5132
  316MOL0     C42565   9.373   1.480   5.017 -0.2233  0.0023 -0.1679
  316MOL0     C42566   9.416   1.343   4.967 -0.3601 -0.6421  0.6473
  316MOL0     C42567   9.563   1.301   5.020  0.9575 -1.0767  0.2960
  316MOL0     C42568   9.608   1.159   5.014  0.6449 -0.5959  0.0105
  316MOL0     C42569   9.755   1.132   5.039 -1.1723 -0.3275  0.0875
  316MOL0    Cl42570   9.781   1.187   5.204  0.1222  0.5668  0.1359
  316MOL0     C42571   8.840   1.776   5.134 -0.8226 -0.3083 -0.4632
  316MOL0     C42572   8.742   1.848   5.205  0.6256  0.0921 -0.2861
  316MOL0     O42573   8.585   1.758   5.530  0.2495  0.0285  0.3916
  316MOL0     C42574   8.395   2.039   5.487  0.2892  0.2335  0.0961
  316MOL0     C42575   8.261   2.098   5.512 -0.1535  1.1968 -0.2754
  316MOL0     N42576   8.161   2.320   5.220 -1.4728 -0.3078  0.0295
  316MOL0     N42577   8.258   2.275   5.140 -0.1750 -0.3210 -0.9913
  316MOL0     C42578   8.296   1.278   5.640 -0.5470 -0.1376 -0.6224
  316MOL0     C42579   8.292   1.153   5.701  0.1329  0.3463 -0.6686
  316MOL0     C42580   8.274   0.782   5.936  0.4843 -0.0537  0.2292
  316MOL0     C42581   8.327   0.663   5.880  0.1357  0.0899  0.9556
  316MOL0     C42582   8.351   0.548   5.954 -0.5880 -0.5831 -0.3739
  316MOL0     C42583   8.335   0.558   6.095  0.2804  0.1870 -0.0390
  316MOL0     O42584   8.384   0.448   6.162  0.0530 -0.4370 -0.1180
  316MOL0     C42585   8.488   0.482   6.254  0.2247  1.0280  0.1035
  316MOL0     C42586   8.413   0.469   6.394 -0.5909  0.7658  0.3426
  316MOL0     C42587   8.523   0.455   6.499 -0.1383  0.3809 -0.6693
  316MOL0     C42588   8.587   0.314   6.490  0.0907 -0.5831 -0.2692
  316MOL0     C42589   8.701   0.309   6.594  0.6730 -0.6837  0.0530
  316MOL0     C42590   8.774   0.312   6.685 -0.9333  0.8928  0.2805
  316MOL0     C42591   8.268   0.663   6.151  0.0015 -0.7367 -0.0737
  316MOL0     C42592   8.236   0.780   6.068 -0.8659  0.8006 -0.2729
  316MOL0     H42593   8.076   1.216   5.953 -0.7599 -0.4979 -1.1361
  316MOL0     H42594   8.077   1.439   5.829  0.4512  2.9617 -2.3220
  316MOL0     H42595   8.391   1.524   5.565  0.9064 -0.9714 -3.6983
  316MOL0     H42596   8.307   1.448   5.437  0.4727  0.5592 -0.0587
  316MOL0     H42597   8.235   1.731   5.540  0.2816 -0.0005  0.5399
  316MOL0     H42598   8.359   1.708   5.416  0.2967 -0.6778 -0.8923
  316MOL0     H42599   8.103   1.585   5.327 -0.6431  0.7085  0.1955
  316MOL0     H42600   8.092   1.759   5.373 -1.6088 -1.5255  2.1911
  316MOL0     H42601   8.298   1.643   5.182  0.9830  0.2313  2.8076
  316MOL0     H42602   8.128   1.671   5.132 -1.0544 -1.0710  0.5114
  316MOL0     H42603   8.156   1.921   5.192 -0.6928 -0.5684  1.6456
  316MOL0     H42604   8.323   1.880   5.245 -1.5314 -0.4370  0.8867
  316MOL0     H42605   8.352   1.796   4.995 -0.3956 -0.0832 -0.0168
  316MOL0     H42606   8.203   1.865   4.955  0.3880 -4.9593  1.3543
  316MOL0     H42607   8.440   2.022   5.079  1.2159  3.0374 -2.3267
  316MOL0     H42608   8.436   1.989   4.913  0.6512 -1.2615  0.8874
  316MOL0     H42609   8.222   2.089   4.858 -0.2412  0.6403  0.6134
  316MOL0     H42610   8.347   2.201   4.927  0.5251  0.4371  3.0565
  316MOL0     H42611   8.020   2.106   5.008  1.6923 -1.1147 -0.1776
  316MOL0     H42612   7.860   2.359   5.242  0.9057  0.3508  1.7980
  316MOL0     H42613   7.832   2.185   5.209  1.0975 -1.6524  1.1524
  316MOL0     H42614   7.808   2.255   5.459 -0.8026  4.1696 -1.4427
  316MOL0     H42615   7.970   2.294   5.453  0.4204  0.2130 -2.1058
  316MOL0     H42616   8.010   2.040   5.388  0.2082  0.1895  1.0091
  316MOL0     H42617   7.832   2.026   5.408  0.7119  0.1763 -2.4052
  316MOL0     H42618   7.974   1.933   5.572  2.3908  0.9479  0.3300
  316MOL0     H42619   7.867   2.050   5.647  1.3541  1.1489  0.7870
  316MOL0     H42620   8.214   1.944   5.806  1.3151 -0.5541  1.6525
  316MOL0     H42621   8.524   1.770   5.749 -0.1351 -3.3639 -2.3659
  316MOL0     H42622   8.400   1.822   5.870 -0.9474  1.7548 -2.2348
  316MOL0     H42623   8.371   1.686   5.755  0.8302 -1.7247  2.5260
  316MOL0     H42624   8.874   1.809   5.514 -2.1561 -2.0711  0.7564
  316MOL0     H42625   9.045   1.711   5.400 -1.3909  1.3080  2.2359
  316MOL0     H42626   8.920   1.497   5.071 -0.8280  0.1871  0.0935
  316MOL0     H42627   8.986   1.609   4.945 -2.2333 -2.2681 -0.6815
  316MOL0     H42628   9.147   1.413   5.121  0.7124  3.9135  1.8522
  316MOL0     H42629   9.078   1.381   4.970 -1.1708 -0.0679  0.5113
  316MOL0     H42630   9.248   1.640   4.978  1.3099 -0.3439  1.0076
  316MOL0     H42631   9.243   1.518   4.848 -3.0259 -3.2940  0.7914
  316MOL0     H42632   9.449   1.556   4.996 -0.1379  0.2339  0.9520
  316MOL0     H42633   9.367   1.476   5.126  0.4976  1.4338 -0.0510
  316MOL0     H42634   9.421   1.358   4.859  0.6581  0.6768  0.8576
  316MOL0     H42635   9.343   1.267   4.997 -0.9871  0.0263  0.8393
  316MOL0     H42636   9.633   1.360   4.960  1.0999 -1.7438 -0.1962
  316MOL0     H42637   9.564   1.347   5.120 -0.5686  4.5820 -1.9252
  316MOL0     H42638   9.571   1.121   4.918  0.4245 -4.1316  1.3582
  316MOL0     H42639   9.555   1.097   5.085  0.8523 -1.8163 -0.8619
  316MOL0     H42640   9.818   1.183   4.966 -1.8373  1.9799  1.0213
  316MOL0     H42641   9.787   1.027   5.036  0.5577  0.1719 -0.0055
  316MOL0     H42642   8.812   1.760   5.030  1.0909 -0.5051 -0.9882
  316MOL0     H42643   8.656   1.885   5.150  1.2303  1.5017 -0.3276
  316MOL0     H42644   8.443   2.070   5.395  1.9211 -4.8353 -1.0694
  316MOL0     H42645   8.213   2.166   5.443 -3.5598 -4.0576 -3.8995
  316MOL0     H42646   8.379   1.283   5.569  0.2178 -0.0651  0.2538
  316MOL0     H42647   8.357   1.072   5.671  0.8801  0.5394  0.3376
  316MOL0     H42648   8.364   0.647   5.779  0.8659  0.8951  1.0872
  316MOL0     H42649   8.403   0.458   5.921 -3.0955 -2.2605 -0.0919
  316MOL0     H42650   8.573   0.416   6.241  0.1199  0.4701  1.9459
  316MOL0     H42651   8.528   0.581   6.233  1.8004  0.3473 -0.1766
  316MOL0     H42652   8.348   0.382   6.397 -0.5610  0.7282 -0.0020
  316MOL0     H42653   8.353   0.555   6.423 -0.8506  1.0778 -1.0356
  316MOL0     H42654   8.483   0.478   6.598  0.1903 -1.5153 -0.0755
  316MOL0     H42655   8.600   0.530   6.476  1.6630 -1.5817 -1.2965
  316MOL0     H42656   8.644   0.290   6.400 -0.9653 -0.5442 -0.9663
  316MOL0     H42657   8.506   0.243   6.508 -0.2439  0.0835  0.9530
  316MOL0     H42658   8.838   0.297   6.770 -1.8047 -0.9812  0.6574
  316MOL0     H42659   8.235   0.669   6.254  3.6579 -0.1648  1.2131
  316MOL0     H42660   8.180   0.864   6.106 -0.8312  1.0027 -0.6663
  317MOL0     O42661   8.703   3.585   3.983  0.5494  0.2218  0.9089
  317MOL0     C42662   8.805   3.544   3.927  0.4412 -0.3703 -0.3376
  317MOL0     O42663   8.871   3.596   3.826  0.1645 -0.2459  0.1195
  317MOL0     C42664   8.831   3.712   3.755  1.3463  0.2450 -0.4803
  317MOL0     C42665   8.777   3.833   3.815 -0.6517 -0.1081 -0.1335
  317MOL0     C42666   8.756   3.947   3.739 -0.6316 -0.0622  1.2535
  317MOL0     C42667   8.784   3.946   3.597 -0.0889  0.7529  0.1268
  317MOL0     O42668   8.776   4.054   3.522  1.1648 -0.9714 -0.5850
  317MOL0     C42669   8.657   4.138   3.544 -0.2969 -0.4765 -1.2382
  317MOL0     C42670   8.605   4.202   3.420  0.2478  0.7075  0.2267
  317MOL0     C42671   8.714   4.248   3.311 -0.2021 -0.1564 -0.4796
  317MOL0     C42672   8.739   4.147   3.198  0.7446 -0.8395  0.1167
  317MOL0     C42673   8.805   4.195   3.065  0.1321 -0.5557  0.2397
  317MOL0     C42674   8.835   4.079   2.962  0.0469  0.4637  1.1106
  317MOL0     C42675   8.938   4.115   2.858  1.1337  0.4079  0.3415
  317MOL0     C42676   8.876   4.173   2.735  0.5876 -0.7119  0.4143
  317MOL0     N42677   8.976   4.187   2.627  0.3638  0.0290 -0.1003
  317MOL0     C42678   9.044   4.094   2.556  0.5307 -0.4974  0.0900
  317MOL0     C42679   9.104   4.167   2.463 -0.9395  0.2084  1.2641
  317MOL0     C42680   9.200   4.101   2.361 -0.6785  0.4117 -0.0280
  317MOL0     C42681   9.286   4.181   2.262 -0.5389  0.1634 -0.9708
  317MOL0     C42682   9.204   4.260   2.160 -0.2991 -0.3771 -0.3374
  317MOL0     C42683   9.290   4.333   2.060 -0.5751 -0.5027 -0.6373
  317MOL0     O42684   9.221   4.453   2.008 -0.1979  0.0543  0.0621
  317MOL0     C42685   9.105   4.442   1.929 -1.2420 -0.6369 -0.0623
  317MOL0     C42686   9.055   4.319   1.887  0.3233 -0.1480  0.0038
  317MOL0     C42687   8.936   4.309   1.813 -0.8028  0.5851 -0.4445
  317MOL0     C42688   8.896   4.170   1.756 -0.9514 -0.9625 -0.7550
  317MOL0     C42689   8.855   4.419   1.801 -0.1507 -0.9433  0.0422
  317MOL0     C42690   8.730   4.419   1.720  0.2332 -0.4920 -0.0874
  317MOL0     O42691   8.622   4.477   1.781  0.4971  0.1589 -0.0855
  317MOL0     C42692   8.499   4.517   1.718 -0.5677 -0.0569 -0.6851
  317MOL0     C42693   8.390   4.529   1.806  1.0695 -0.3895 -0.0644
  317MOL0     C42694   8.264   4.555   1.761  0.0690 -0.2120 -0.4838
  317MOL0     C42695   8.241   4.587   1.625  0.4128 -0.9316 -0.5645
  317MOL0     O42696   8.127   4.613   1.560 -0.0750  0.4442  0.1163
  317MOL0     C42697   8.025   4.672   1.635 -0.5322 -0.2478  0.2266
  317MOL0     C42698   7.923   4.716   1.520  0.2139  0.2454 -0.0993
  317MOL0     C42699   7.936   4.837   1.443  0.3983  0.0211 -0.7817
  317MOL0     C42700   7.796   4.876   1.394  0.6270 -0.8957 -0.1766
  317MOL0     C42701   7.805   5.003   1.302  0.0745  0.6422 -0.5491
  317MOL0     C42702   7.886   5.122   1.346  0.4538  0.2736 -0.1304
  317MOL0     C42703   7.885   5.232   1.247  0.3961 -0.3535  0.3155
  317MOL0     C42704   7.986   5.202   1.117  0.3498 -0.8858 -0.9963
  317MOL0    Cl42705   7.987   5.348   1.022  0.1378 -0.0348  0.6619
  317MOL0     C42706   8.350   4.582   1.541 -0.0893  0.1030  0.0348
  317MOL0     C42707   8.480   4.546   1.588  0.0450  0.6654  1.0765
  317MOL0     O42708   8.725   4.376   1.606 -0.1362 -0.3168 -0.2845
  317MOL0     C42709   8.894   4.548   1.857 -0.3557  0.1343 -0.3508
  317MOL0     C42710   9.028   4.556   1.911  1.0065  0.0013 -0.1820
  317MOL0     N42711   9.082   4.303   2.480  0.2704  0.6032  0.1724
  317MOL0     N42712   8.996   4.310   2.576 -0.0199 -0.1294  0.1236
  317MOL0     C42713   8.833   3.824   3.537 -0.1724  0.4834  0.1416
  317MOL0     C42714   8.854   3.709   3.618 -0.0949 -0.0886 -1.0212
  317MOL0     C42715   8.874   3.426   3.994  0.0552  0.2805  0.2410
  317MOL0     C42716   8.972   3.353   3.915 -0.1552 -0.6954 -0.6980
  317MOL0     C42717   9.039   3.248   3.970  0.8298  1.1578  0.0119
  317MOL0     C42718   9.036   3.218   4.106  0.7513  0.0164 -1.2862
  317MOL0     O42719   9.099   3.110   4.159  0.0395 -0.0581 -0.4869
  317MOL0     C42720   9.192   3.028   4.085  0.2548  0.1327 -0.2985
  317MOL0     C42721   9.263   2.919   4.173 -0.3956 -0.3096 -0.4556
  317MOL0     C42722   9.191   2.789   4.162 -0.0558 -0.5012  0.7069
  317MOL0     C42723   9.275   2.667   4.203 -0.2429  0.3335  0.0933
  317MOL0     C42724   9.300   2.662   4.355 -0.6438 -0.0208  0.0038
  317MOL0     C42725   9.315   2.678   4.475 -0.4310 -0.1427  0.0193
  317MOL0     C42726   8.947   3.292   4.184 -0.5978 -0.5875  0.3132
  317MOL0     C42727   8.864   3.399   4.134 -0.2460 -0.0067  0.3151
  317MOL0     H42728   8.752   3.831   3.920  0.4172  0.1134  0.1389
  317MOL0     H42729   8.711   4.032   3.789  0.2120  0.3140  1.3962
  317MOL0     H42730   8.574   4.080   3.584  0.3800 -0.9310 -0.4665
  317MOL0     H42731   8.692   4.212   3.617  0.5627 -0.8870 -1.2257
  317MOL0     H42732   8.541   4.124   3.377  0.7082 -1.1841  2.6778
  317MOL0     H42733   8.539   4.286   3.443  0.4182  1.4470 -1.8293
  317MOL0     H42734   8.679   4.342   3.269  1.4527 -0.0385 -1.7152
  317MOL0     H42735   8.817   4.259   3.348  0.4197 -1.8878 -1.5690
  317MOL0     H42736   8.798   4.059   3.225  0.0287 -1.3398  0.0793
  317MOL0     H42737   8.646   4.105   3.159 -0.1548  0.7009  0.5068
  317MOL0     H42738   8.737   4.261   3.011  2.2967 -2.3185 -5.3895
  317MOL0     H42739   8.897   4.248   3.091  0.3855 -0.9218  0.1112
  317MOL0     H42740   8.879   3.994   3.015  1.7091 -0.6047 -1.7444
  317MOL0     H42741   8.739   4.043   2.922 -0.9366  1.1615  2.7454
  317MOL0     H42742   9.003   4.185   2.911  1.3238 -1.5567  2.8839
  317MOL0     H42743   8.997   4.027   2.831  3.6861  2.7885 -2.6587
  317MOL0     H42744   8.825   4.268   2.753 -0.0151 -1.0102  0.3449
  317MOL0     H42745   8.796   4.108   2.696  0.9361 -0.5422 -0.5986
  317MOL0     H42746   9.038   3.988   2.579 -1.2858  0.2966  4.1646
  317MOL0     H42747   9.264   4.034   2.420 -2.7766  0.5651  2.6118
  317MOL0     H42748   9.142   4.038   2.293  0.2579 -2.8584  1.9469
  317MOL0     H42749   9.355   4.107   2.220 -1.5696  0.3968 -3.2262
  317MOL0     H42750   9.351   4.250   2.317  0.6275 -0.2267 -1.8174
  317MOL0     H42751   9.136   4.328   2.210  2.8271  2.5926  0.2629
  317MOL0     H42752   9.156   4.190   2.090  0.9616 -0.9346 -0.6826
  317MOL0     H42753   9.329   4.257   1.991  2.9344 -0.9314  1.5675
  317MOL0     H42754   9.377   4.372   2.113 -4.2361  2.2611  4.0403
  317MOL0     H42755   9.116   4.230   1.900  0.1681 -0.7306 -2.6826
  317MOL0     H42756   8.936   4.158   1.655  3.8454  0.5678  0.6600
  317MOL0     H42757   8.957   4.092   1.804  3.1729  0.7743 -2.6315
  317MOL0     H42758   8.790   4.154   1.778 -1.1178  0.8935 -0.0764
  317MOL0     H42759   8.408   4.501   1.910  0.2144  1.5764  0.6572
  317MOL0     H42760   8.186   4.559   1.837  1.8737  1.0869  1.3987
  317MOL0     H42761   7.977   4.600   1.702  1.4098 -1.9172 -0.0784
  317MOL0     H42762   8.078   4.754   1.683  0.3887 -1.3530  1.1606
  317MOL0     H42763   7.918   4.637   1.444 -1.3877 -1.3844  1.5634
  317MOL0     H42764   7.830   4.719   1.578  1.4437  1.0894  1.9425
  317MOL0     H42765   8.004   4.814   1.360 -0.3122 -1.4028 -0.9931
  317MOL0     H42766   7.979   4.919   1.501  0.8623 -1.8086  1.5918
  317MOL0     H42767   7.743   4.801   1.334 -2.6486  1.1149 -0.0726
  317MOL0     H42768   7.728   4.894   1.478  0.0543 -2.1923 -0.3310
  317MOL0     H42769   7.700   5.030   1.285 -0.5310  0.3678  2.2871
  317MOL0     H42770   7.851   4.973   1.208 -1.7290  0.4993 -1.4106
  317MOL0     H42771   7.842   5.151   1.441  2.0907  0.6775  0.5435
  317MOL0     H42772   7.990   5.089   1.355  0.2403 -0.7114 -1.0782
  317MOL0     H42773   7.895   5.331   1.293 -0.5956 -0.5482  1.0138
  317MOL0     H42774   7.792   5.234   1.189  1.7619  2.4851 -1.9654
  317MOL0     H42775   7.943   5.112   1.071  2.5243 -2.2182 -0.5668
  317MOL0     H42776   8.088   5.182   1.150  0.6192 -1.3220 -2.0314
  317MOL0     H42777   8.324   4.618   1.441 -1.1246  0.6509  0.4820
  317MOL0     H42778   8.554   4.537   1.509  0.9004  3.1576  1.4992
  317MOL0     H42779   8.837   4.640   1.873 -1.8730 -0.9468  0.8292
  317MOL0     H42780   9.074   4.646   1.952 -3.0349  3.2124 -1.9196
  317MOL0     H42781   8.871   3.821   3.435  0.6885  2.2656  0.3789
  317MOL0     H42782   8.890   3.618   3.572  2.2169  0.1076  0.2712
  317MOL0     H42783   8.999   3.378   3.813 -0.5503  1.6566 -0.2987
  317MOL0     H42784   9.097   3.186   3.902  1.2565  0.9122  0.5826
  317MOL0     H42785   9.127   2.977   4.013  0.3364  0.3123 -0.4979
  317MOL0     H42786   9.272   3.091   4.045 -0.7730  2.9190  1.7237
  317MOL0     H42787   9.262   2.959   4.275 -0.4853  0.1572 -0.6357
  317MOL0     H42788   9.364   2.904   4.134 -0.9373 -2.2378 -1.2440
  317MOL0     H42789   9.159   2.778   4.058 -0.8167  0.4044  0.8238
  317MOL0     H42790   9.093   2.791   4.212  0.9154 -1.7076  2.7778
  317MOL0     H42791   9.373   2.660   4.155 -0.5824 -0.1897 -0.5410
  317MOL0     H42792   9.220   2.583   4.160  1.3657  1.2123 -4.1269
  317MOL0     H42793   9.353   2.692   4.574  1.1262 -0.4374 -0.5236
  317MOL0     H42794   8.949   3.259   4.287  1.6447 -2.1195 -0.1428
  317MOL0     H42795   8.791   3.431   4.208 -0.7066 -0.3762  0.0285
  318MOL0     O42796   4.321   5.783   0.852 -0.4449  0.0326  0.0867
  318MOL0     C42797   4.424   5.754   0.911  0.1108 -0.1164 -0.6179
  318MOL0     O42798   4.494   5.833   0.998 -0.1826 -0.6385 -0.1000
  318MOL0     C42799   4.481   5.966   1.018 -0.0890 -0.0407 -0.2465
  318MOL0     C42800   4.463   6.058   0.909  0.8822 -0.3808 -0.2372
  318MOL0     C42801   4.466   6.196   0.929  0.8252 -0.4562  1.2511
  318MOL0     C42802   4.475   6.249   1.059  1.3369 -0.2318 -0.5980
  318MOL0     O42803   4.460   6.383   1.063  0.5555  0.3468 -0.9173
  318MOL0     C42804   4.470   6.453   1.186  0.0063 -0.2250  0.0939
  318MOL0     C42805   4.455   6.606   1.175  0.1784 -0.9735  0.4539
  318MOL0     C42806   4.547   6.678   1.069 -0.0480  0.0645  0.6146
  318MOL0     C42807   4.506   6.830   1.047  0.4698 -0.1194  0.0623
  318MOL0     C42808   4.549   6.870   0.903  0.8362  0.7533  0.2728
  318MOL0     C42809   4.453   6.820   0.789  0.1634 -0.1449  0.5014
  318MOL0     C42810   4.330   6.902   0.788  0.7709 -0.8119  1.1034
  318MOL0     C42811   4.269   6.910   0.641 -0.4834 -0.6025  1.0830
  318MOL0     N42812   4.201   6.790   0.595  0.1150 -0.2706  0.1521
  318MOL0     C42813   4.264   6.665   0.586 -0.1174 -0.6059 -0.4043
  318MOL0     C42814   4.164   6.578   0.566 -0.2565 -0.1469  0.6768
  318MOL0     C42815   4.188   6.427   0.545  0.7437  0.1166 -0.6042
  318MOL0     C42816   4.288   6.398   0.440  0.5341 -0.3804  1.1560
  318MOL0     C42817   4.352   6.257   0.429 -0.2612  0.0267  0.4548
  318MOL0     C42818   4.275   6.156   0.344 -0.2459 -0.2422 -0.6039
  318MOL0     O42819   4.354   6.040   0.300  1.1787  0.4671 -0.3859
  318MOL0     C42820   4.301   5.955   0.210 -0.1913 -0.0640 -0.9169
  318MOL0     C42821   4.165   5.952   0.183  0.7690 -0.7820 -0.2272
  318MOL0     C42822   4.104   5.865   0.082 -0.4805 -0.1194  0.1778
  318MOL0     C42823   3.965   5.884   0.036 -0.1404 -0.8212 -0.5366
  318MOL0     C42824   4.196   5.784   0.003  0.2632  0.2818  0.4184
  318MOL0     C42825   4.157   5.676  -0.102  0.6203 -1.0428 -0.8166
  318MOL0     O42826   4.263   5.598  -0.155 -0.2182 -0.0412 -0.5446
  318MOL0     C42827   4.238   5.475  -0.211 -0.6351  0.1463  0.6284
  318MOL0     C42828   4.150   5.459  -0.322  0.5863  0.0601 -0.1515
  318MOL0     C42829   4.114   5.327  -0.367 -0.4830 -0.7597 -0.5783
  318MOL0     C42830   4.196   5.216  -0.324  0.8562  0.4581  0.8651
  318MOL0     O42831   4.187   5.092  -0.378 -0.2032  0.0238 -0.3065
  318MOL0     C42832   4.139   5.095  -0.515 -0.1247 -0.3463 -0.3041
  318MOL0     C42833   3.995   5.046  -0.519  0.7500  0.2216 -0.5831
  318MOL0     C42834   3.930   5.055  -0.659  0.6187 -1.0605  0.0385
  318MOL0     C42835   3.784   5.005  -0.652  0.1358  0.0275  0.9085
  318MOL0     C42836   3.718   4.972  -0.782 -0.0755  0.3037  0.7308
  318MOL0     C42837   3.574   4.936  -0.756 -0.1062  0.0599 -0.1594
  318MOL0     C42838   3.507   4.910  -0.894 -0.7615  0.2373 -0.1633
  318MOL0     C42839   3.507   5.030  -0.988 -0.1808 -0.7996 -0.0048
  318MOL0    Cl42840   3.373   5.025  -1.103 -0.5721 -0.0247 -0.3440
  318MOL0     C42841   4.290   5.240  -0.221  0.1250 -0.5357  0.3802
  318MOL0     C42842   4.299   5.363  -0.159 -0.3802 -0.0080  0.9592
  318MOL0     O42843   4.037   5.662  -0.139  0.0923  0.1116  0.0275
  318MOL0     C42844   4.331   5.806   0.028 -0.2738 -0.0213 -0.7319
  318MOL0     C42845   4.385   5.881   0.130  0.2826  0.0416 -0.7254
  318MOL0     N42846   4.051   6.640   0.606 -0.6326  0.7817 -0.8036
  318MOL0     N42847   4.069   6.766   0.603  1.1248  0.5596 -0.5994
  318MOL0     C42848   4.503   6.160   1.170 -0.0117 -0.1093 -0.3856
  318MOL0     C42849   4.504   6.021   1.145 -1.0566 -1.0295 -0.1642
  318MOL0     C42850   4.475   5.613   0.899  0.0427  0.6191 -0.3365
  318MOL0     C42851   4.535   5.546   1.008 -0.4565  0.1520  0.4042
  318MOL0     C42852   4.597   5.421   0.997 -1.3097  0.8806 -0.4543
  318MOL0     C42853   4.591   5.349   0.877 -0.0888 -0.0511  0.3001
  318MOL0     O42854   4.639   5.217   0.876 -0.2046  0.4781 -0.4252
  318MOL0     C42855   4.569   5.131   0.785 -0.3249  0.4331  0.0429
  318MOL0     C42856   4.701   5.072   0.715 -0.1939  0.1746 -0.7420
  318MOL0     C42857   4.683   4.937   0.645  0.3773 -0.0380 -0.3483
  318MOL0     C42858   4.697   4.824   0.752  0.0934  0.0743  0.3551
  318MOL0     C42859   4.838   4.797   0.773  0.2446 -0.4652 -0.3196
  318MOL0     C42860   4.962   4.783   0.775  0.6428 -0.4677 -0.4490
  318MOL0     C42861   4.538   5.416   0.764 -0.6411  0.3124 -0.4906
  318MOL0     C42862   4.488   5.542   0.780  0.1374 -0.6676 -0.3955
  318MOL0     H42863   4.461   6.020   0.808  4.2775  1.2050 -1.0521
  318MOL0     H42864   4.446   6.275   0.857  1.1509 -1.3700  0.1257
  318MOL0     H42865   4.388   6.418   1.250  0.0954  2.1623  1.6484
  318MOL0     H42866   4.569   6.437   1.227 -0.1000  0.0623  0.4732
  318MOL0     H42867   4.354   6.627   1.140  1.5160  3.2702 -1.5993
  318MOL0     H42868   4.471   6.650   1.274  0.5787  1.9394 -0.7977
  318MOL0     H42869   4.655   6.674   1.085  0.6046 -0.1997 -3.1669
  318MOL0     H42870   4.538   6.627   0.973 -1.9466  2.5471 -0.6456
  318MOL0     H42871   4.402   6.861   1.059  0.9297  1.9859 -0.8823
  318MOL0     H42872   4.548   6.896   1.123  1.6439  1.8005 -2.1163
  318MOL0     H42873   4.563   6.979   0.898 -2.3581  1.2644  0.3734
  318MOL0     H42874   4.648   6.827   0.888  0.9188 -0.2714  3.2102
  318MOL0     H42875   4.515   6.820   0.699  3.0575 -1.5347  2.3209
  318MOL0     H42876   4.429   6.715   0.811 -0.6249 -0.8117 -2.9253
  318MOL0     H42877   4.258   6.873   0.864  0.0711  1.2432  1.3027
  318MOL0     H42878   4.352   7.003   0.824 -1.0141 -0.8765  2.5270
  318MOL0     H42879   4.345   6.929   0.565 -2.2943 -2.2112 -1.3097
  318MOL0     H42880   4.205   6.999   0.630  1.4963  0.6953 -0.6002
  318MOL0     H42881   4.370   6.649   0.569  0.2200  1.9245 -0.9757
  318MOL0     H42882   4.207   6.373   0.639 -1.7927 -1.0695 -0.6887
  318MOL0     H42883   4.090   6.387   0.520  0.2000  1.0348  0.0194
  318MOL0     H42884   4.367   6.473   0.430 -0.1653  0.1523 -0.7167
  318MOL0     H42885   4.232   6.418   0.348 -0.0760 -2.3121  1.0684
  318MOL0     H42886   4.362   6.214   0.529  0.6993  1.2788  0.9236
  318MOL0     H42887   4.455   6.258   0.392 -0.1429 -1.1078  0.7167
  318MOL0     H42888   4.228   6.205   0.258 -3.2250 -2.1406 -0.1788
  318MOL0     H42889   4.195   6.125   0.411  0.1274 -0.7355 -0.3785
  318MOL0     H42890   4.097   6.015   0.240  0.7352  0.2508 -1.3575
  318MOL0     H42891   3.961   5.881  -0.073  0.3335  3.9275 -0.8623
  318MOL0     H42892   3.901   5.801   0.069 -0.2473 -0.6595 -0.3361
  318MOL0     H42893   3.930   5.979   0.078  1.3521 -0.6957  0.5148
  318MOL0     H42894   4.094   5.540  -0.367  1.7138  2.1788  1.9848
  318MOL0     H42895   4.038   5.318  -0.444 -2.7258  5.1366  0.3693
  318MOL0     H42896   4.140   5.188  -0.573  0.5008 -0.4024 -0.3890
  318MOL0     H42897   4.199   5.031  -0.580  0.5245  0.3412 -0.3970
  318MOL0     H42898   3.989   4.942  -0.487  1.0070  0.2014 -0.5999
  318MOL0     H42899   3.938   5.104  -0.446  1.1353  1.0790 -0.9482
  318MOL0     H42900   3.988   4.995  -0.730  2.5082  1.1247 -0.4006
  318MOL0     H42901   3.927   5.161  -0.686  1.5735 -0.7230  1.1522
  318MOL0     H42902   3.783   4.910  -0.597  1.3516 -3.2612 -4.0665
  318MOL0     H42903   3.721   5.089  -0.622 -0.9431 -0.4207 -0.0438
  318MOL0     H42904   3.773   4.888  -0.824 -1.3502  0.6408 -1.7420
  318MOL0     H42905   3.722   5.057  -0.850  1.3382 -0.6751 -0.4795
  318MOL0     H42906   3.551   4.848  -0.694  0.3477  1.0248  1.4442
  318MOL0     H42907   3.521   5.021  -0.711 -1.9455 -0.3046 -1.5203
  318MOL0     H42908   3.408   4.878  -0.860 -0.8972  1.0065  0.2039
  318MOL0     H42909   3.554   4.823  -0.941  1.1840  1.8509 -1.3634
  318MOL0     H42910   3.605   5.031  -1.036  0.1673 -4.6215  0.3246
  318MOL0     H42911   3.499   5.125  -0.933  0.2023 -0.8841  0.1985
  318MOL0     H42912   4.356   5.162  -0.186  0.3656 -1.2444 -1.5636
  318MOL0     H42913   4.367   5.370  -0.074 -1.3006 -0.9342  1.7947
  318MOL0     H42914   4.408   5.756  -0.029 -0.9125 -1.3138 -0.4935
  318MOL0     H42915   4.492   5.893   0.140  0.6670 -1.2380 -2.6750
  318MOL0     H42916   4.514   6.201   1.270  1.6934 -1.6746  0.1358
  318MOL0     H42917   4.511   5.966   1.239 -0.2879 -1.1876 -0.3052
  318MOL0     H42918   4.529   5.594   1.105  0.5853  0.5913  0.2684
  318MOL0     H42919   4.641   5.376   1.085  0.8281 -0.8030 -2.2627
  318MOL0     H42920   4.512   5.053   0.836  0.3969  0.2268  0.5431
  318MOL0     H42921   4.498   5.180   0.717 -3.5366 -1.1844  1.9962
  318MOL0     H42922   4.779   5.074   0.791 -0.3541  1.2978 -0.5792
  318MOL0     H42923   4.737   5.146   0.643  2.0981  1.4083  1.5051
  318MOL0     H42924   4.761   4.922   0.570 -0.1346  2.1842 -1.4069
  318MOL0     H42925   4.583   4.929   0.601 -1.3905 -0.9245  3.4427
  318MOL0     H42926   4.650   4.730   0.720 -0.8598  1.3213 -2.1876
  318MOL0     H42927   4.653   4.850   0.849  0.6362  1.1732  0.3119
  318MOL0     H42928   5.068   4.782   0.758  0.4469 -2.0600 -1.9697
  318MOL0     H42929   4.550   5.391   0.659 -1.8130  1.9265 -1.0588
  318MOL0     H42930   4.443   5.590   0.693  4.9750  2.1831 -1.7069
  319MOL0     O42931  10.649   6.286   1.637 -1.3118 -0.6966 -0.6531
  319MOL0     C42932  10.719   6.232   1.725  0.5371  0.0170 -0.1892
  319MOL0     O42933  10.724   6.273   1.855 -0.4119 -0.0368  0.4732
  319MOL0     C42934  10.637   6.383   1.880  0.2173 -0.1204  1.9724
  319MOL0     C42935  10.508   6.360   1.911  0.0956 -0.6236  0.4088
  319MOL0     C42936  10.424   6.461   1.940  0.4091 -0.6533  0.2251
  319MOL0     C42937  10.477   6.599   1.941 -0.4778 -0.0384 -0.3920
  319MOL0     O42938  10.401   6.706   1.969  0.0035  0.3266  0.1070
  319MOL0     C42939  10.267   6.706   2.027 -0.2153 -0.3574  0.1304
  319MOL0     C42940  10.210   6.840   2.008  0.1372  0.5199 -0.2941
  319MOL0     C42941  10.299   6.955   2.065 -0.1011 -0.7367  0.4748
  319MOL0     C42942  10.218   7.075   2.106  0.7364  0.2683 -0.5519
  319MOL0     C42943  10.309   7.182   2.149 -0.7145 -0.2356 -0.6225
  319MOL0     C42944  10.237   7.298   2.206 -0.0010 -0.7927 -0.3981
  319MOL0     C42945  10.344   7.390   2.276 -0.2802  0.1262 -0.5696
  319MOL0     C42946  10.408   7.344   2.403  0.1734  1.2905 -0.1364
  319MOL0     N42947  10.426   7.466   2.477 -0.4658  0.7824  0.0354
  319MOL0     C42948  10.539   7.545   2.493 -0.8106  0.1075  0.1412
  319MOL0     C42949  10.488   7.661   2.536  0.9514 -0.1011  0.4544
  319MOL0     C42950  10.555   7.790   2.568 -0.6183  0.4272  0.7903
  319MOL0     C42951  10.555   7.836   2.711  0.5627  0.5974  0.3417
  319MOL0     C42952  10.614   7.723   2.799  0.7061  0.4282  0.0954
  319MOL0     C42953  10.645   7.779   2.941  0.2808  0.5508  0.5145
  319MOL0     O42954  10.755   7.865   2.939 -0.2257  0.0151 -0.6800
  319MOL0     C42955  10.777   7.966   3.032  0.1023  0.4089  0.1353
  319MOL0     C42956  10.902   8.026   3.031  0.7756  0.5776 -0.0021
  319MOL0     C42957  10.939   8.126   3.124  0.1599  0.6079  0.7496
  319MOL0     C42958  11.076   8.190   3.109  0.3116 -0.7140 -0.2490
  319MOL0     C42959  10.835   8.164   3.227  0.2873  0.2827 -0.0594
  319MOL0     C42960  10.862   8.264   3.332 -0.5835 -0.0397  0.2072
  319MOL0     O42961  10.758   8.311   3.405  0.0258 -0.1434  0.3039
  319MOL0     C42962  10.784   8.419   3.485  0.2767  0.6370  0.1910
  319MOL0     C42963  10.717   8.540   3.451 -0.1934  0.0260 -0.1974
  319MOL0     C42964  10.714   8.652   3.539 -0.6475 -0.1497 -0.2954
  319MOL0     C42965  10.776   8.643   3.659  0.3071 -1.2821 -0.4969
  319MOL0     O42966  10.772   8.750   3.746 -0.0831 -0.0749  0.1936
  319MOL0     C42967  10.892   8.809   3.769 -0.1272  0.4146 -0.1871
  319MOL0     C42968  10.887   8.918   3.875 -0.2584 -0.1050 -0.0495
  319MOL0     C42969  10.749   8.995   3.868  0.2861  0.3459 -0.5807
  319MOL0     C42970  10.657   8.977   3.986  0.4274 -0.2020  0.0214
  319MOL0     C42971  10.521   9.050   3.973  0.1560  0.7348  1.0478
  319MOL0     C42972  10.407   9.007   4.063  0.1759  0.2446 -0.0325
  319MOL0     C42973  10.287   9.098   4.045  0.6396 -0.2267 -0.2910
  319MOL0     C42974  10.182   9.079   4.154  0.2292  0.7424 -0.2407
  319MOL0    Cl42975  10.108   8.904   4.138  0.0205 -0.0683 -0.5644
  319MOL0     C42976  10.847   8.521   3.697  0.3707 -0.3432  0.4245
  319MOL0     C42977  10.845   8.408   3.611 -0.1041 -0.4953  0.2358
  319MOL0     O42978  10.978   8.299   3.357  0.6228  0.0140  0.3339
  319MOL0     C42979  10.712   8.097   3.225  0.1389 -0.7141 -0.3694
  319MOL0     C42980  10.682   7.999   3.123  0.1711 -0.3883  0.2742
  319MOL0     N42981  10.355   7.638   2.565 -0.1210  0.4684  0.5025
  319MOL0     N42982  10.323   7.515   2.539 -0.0044 -1.2547 -0.1207
  319MOL0     C42983  10.608   6.622   1.917 -0.0585  0.2845  0.1827
  319MOL0     C42984  10.683   6.505   1.874  0.0813 -1.1846 -0.3181
  319MOL0     C42985  10.805   6.125   1.687  0.3292  0.2239  0.4725
  319MOL0     C42986  10.821   6.096   1.553 -0.4232  0.1373 -0.5618
  319MOL0     C42987  10.913   5.992   1.528  0.4394  0.5610 -0.5907
  319MOL0     C42988  10.964   5.908   1.628 -0.2179 -0.2907 -0.6312
  319MOL0     O42989  11.060   5.812   1.592  0.1402  0.2449  0.2956
  319MOL0     C42990  11.004   5.725   1.495  0.2481  0.0638 -0.4874
  319MOL0     C42991  10.887   5.640   1.556  0.3095 -0.5503 -0.2769
  319MOL0     C42992  10.821   5.559   1.447  1.1308 -0.1257  0.0775
  319MOL0     C42993  10.700   5.490   1.498 -0.0027  0.1231 -1.3623
  319MOL0     C42994  10.649   5.401   1.392 -0.1731  0.6446  0.7347
  319MOL0     C42995  10.626   5.319   1.308  0.3607 -0.0877 -0.0612
  319MOL0     C42996  10.953   5.948   1.759  0.7454  0.6209  0.2533
  319MOL0     C42997  10.869   6.054   1.792 -0.7633  0.5481  0.2243
  319MOL0     H42998  10.461   6.262   1.920 -1.3156 -0.1178 -1.0019
  319MOL0     H42999  10.318   6.449   1.960 -0.0850  3.1175  0.5320
  319MOL0     H43000  10.196   6.635   1.985 -1.6873  0.6302  0.8438
  319MOL0     H43001  10.267   6.687   2.135  3.0264  1.9874  0.6956
  319MOL0     H43002  10.196   6.862   1.902  0.8009 -0.4689 -0.5985
  319MOL0     H43003  10.112   6.845   2.056 -0.8019  0.0440 -2.0806
  319MOL0     H43004  10.357   6.909   2.145  2.9289 -0.8556 -1.6308
  319MOL0     H43005  10.364   6.989   1.983  2.6869 -0.9546  2.4611
  319MOL0     H43006  10.162   7.113   2.020 -1.3495 -0.2411  0.5024
  319MOL0     H43007  10.159   7.043   2.192 -1.3565  0.0612 -1.9953
  319MOL0     H43008  10.388   7.149   2.217  1.2718  2.1516 -1.6627
  319MOL0     H43009  10.364   7.217   2.062  0.0025  0.7718  0.2091
  319MOL0     H43010  10.194   7.346   2.118  2.3245 -1.3650 -1.9195
  319MOL0     H43011  10.168   7.263   2.284  0.6774 -0.3958  0.3996
  319MOL0     H43012  10.429   7.399   2.208  0.0084  2.1171 -0.0035
  319MOL0     H43013  10.296   7.487   2.283 -1.9848 -0.7123 -0.1436
  319MOL0     H43014  10.498   7.284   2.388 -1.3730 -1.4431  0.7954
  319MOL0     H43015  10.346   7.275   2.462  1.0690  1.1391  0.6538
  319MOL0     H43016  10.644   7.526   2.471 -0.7031  0.9410 -0.0758
  319MOL0     H43017  10.658   7.779   2.534 -0.8209  2.0602 -0.5511
  319MOL0     H43018  10.507   7.867   2.506 -0.5597 -0.3289 -0.2275
  319MOL0     H43019  10.448   7.845   2.734 -0.2634  0.0756 -2.8245
  319MOL0     H43020  10.598   7.936   2.719 -1.4658  1.8443 -2.4108
  319MOL0     H43021  10.697   7.689   2.737 -1.2858 -0.3020 -2.3549
  319MOL0     H43022  10.546   7.638   2.804  0.4275  0.7205  2.3754
  319MOL0     H43023  10.666   7.693   3.006  2.3899 -0.0018 -0.7974
  319MOL0     H43024  10.553   7.825   2.977  0.2797  1.0300 -0.0971
  319MOL0     H43025  10.967   7.983   2.955 -4.5450 -0.0744 -4.9335
  319MOL0     H43026  11.117   8.183   3.007  2.5587  1.3750  0.4143
  319MOL0     H43027  11.065   8.296   3.133  0.4124 -0.1094 -2.5726
  319MOL0     H43028  11.151   8.145   3.175  2.7418  0.7456 -1.8550
  319MOL0     H43029  10.662   8.547   3.358 -1.4407 -3.1031  0.2089
  319MOL0     H43030  10.659   8.741   3.509 -1.0532 -0.6101 -0.9501
  319MOL0     H43031  10.976   8.742   3.789  1.2992  2.4522  1.1102
  319MOL0     H43032  10.911   8.862   3.675  1.2558  3.2871  1.5528
  319MOL0     H43033  10.898   8.869   3.972  0.4371  2.2134  1.1220
  319MOL0     H43034  10.968   8.991   3.875 -1.0905  0.9229 -2.5314
  319MOL0     H43035  10.698   8.983   3.773  1.7476  0.6431 -1.4333
  319MOL0     H43036  10.772   9.102   3.871  0.2577  0.3533 -0.6300
  319MOL0     H43037  10.629   8.871   3.988 -1.8044  0.3498  0.1052
  319MOL0     H43038  10.696   8.987   4.088 -1.9692  1.5404  0.8612
  319MOL0     H43039  10.482   9.040   3.872 -0.2470 -2.3726  1.4142
  319MOL0     H43040  10.554   9.153   3.990  0.9688  1.0742 -2.0290
  319MOL0     H43041  10.374   8.903   4.053 -1.4486  0.4779  2.1572
  319MOL0     H43042  10.461   9.014   4.158  1.8627 -3.1936 -0.5877
  319MOL0     H43043  10.245   9.073   3.947 -0.5133 -0.7875  0.3285
  319MOL0     H43044  10.318   9.203   4.048 -1.2829  0.5722 -3.2341
  319MOL0     H43045  10.096   9.147   4.153 -1.1329 -0.8831 -1.7061
  319MOL0     H43046  10.233   9.103   4.247  0.2950  1.9763 -0.5775
  319MOL0     H43047  10.900   8.503   3.791  0.7277  0.8581  0.4655
  319MOL0     H43048  10.873   8.309   3.645 -0.4206 -0.2803  1.1441
  319MOL0     H43049  10.631   8.122   3.293 -1.6829  0.3002 -2.7490
  319MOL0     H43050  10.590   7.941   3.131 -0.3169  0.2158 -0.8206
  319MOL0     H43051  10.662   6.715   1.903  6.7518 -3.2735 -2.0594
  319MOL0     H43052  10.784   6.524   1.839  0.0772 -0.2440  0.1588
  319MOL0     H43053  10.787   6.168   1.479 -2.0240  1.6414  1.5053
  319MOL0     H43054  10.938   5.984   1.422  2.7446  0.4671 -0.0791
  319MOL0     H43055  10.969   5.788   1.413  0.4838 -2.7342 -2.9068
  319MOL0     H43056  11.082   5.662   1.451 -0.1473 -0.0311 -1.0778
  319MOL0     H43057  10.811   5.713   1.585 -0.7174 -1.3969 -0.7586
  319MOL0     H43058  10.921   5.580   1.640  0.2647 -0.5808 -0.2807
  319MOL0     H43059  10.895   5.486   1.413 -0.6632 -2.0189  0.0734
  319MOL0     H43060  10.793   5.626   1.365  0.3513 -1.4169 -0.7353
  319MOL0     H43061  10.620   5.556   1.532  3.5639  3.6851  0.9430
  319MOL0     H43062  10.727   5.428   1.584 -0.8589  1.5238 -0.0330
  319MOL0     H43063  10.609   5.248   1.229 -1.0682 -0.4762  0.5569
  319MOL0     H43064  11.008   5.914   1.846 -0.3111  0.1269  0.7465
  319MOL0     H43065  10.875   6.089   1.894  1.1506  0.7531  0.0744
  320MOL0     O43066   6.068  10.671   7.085  0.5210 -0.0213 -0.2925
  320MOL0     C43067   6.035  10.705   7.202 -0.3599 -0.3819  0.9178
  320MOL0     O43068   6.051  10.628   7.318  0.5892  0.1709  0.7729
  320MOL0     C43069   6.110  10.503   7.309 -0.0806  0.7568  0.6543
  320MOL0     C43070   6.250  10.493   7.336  0.5430  0.4559 -0.3958
  320MOL0     C43071   6.321  10.371   7.320  0.0794  0.8248  0.2566
  320MOL0     C43072   6.247  10.260   7.271 -0.3125 -0.3961  0.5536
  320MOL0     O43073   6.319  10.148   7.234 -0.1268  0.0888 -0.0456
  320MOL0     C43074   6.255  10.035   7.164  0.2610 -0.1616 -0.0254
  320MOL0     C43075   6.349   9.910   7.168 -0.1791  0.4299 -0.2179
  320MOL0     C43076   6.382   9.861   7.306 -0.0283 -0.2937  0.0486
  320MOL0     C43077   6.522   9.799   7.315 -0.7030  0.2832  0.6576
  320MOL0     C43078   6.555   9.730   7.448  0.1483 -0.3959 -0.8429
  320MOL0     C43079   6.556   9.818   7.573 -0.5890  0.8198 -0.3660
  320MOL0     C43080   6.589   9.728   7.697 -1.6449 -0.7313 -0.1772
  320MOL0     C43081   6.575   9.784   7.836  0.0435  0.0078 -0.5520
  320MOL0     N43082   6.535   9.686   7.939  0.1984  0.4307  0.0917
  320MOL0     C43083   6.626   9.598   8.003  0.8064 -0.2499 -0.2518
  320MOL0     C43084   6.547   9.513   8.076 -0.7602 -0.2805 -0.4760
  320MOL0     C43085   6.587   9.400   8.170  0.0945  0.1608 -1.2117
  320MOL0     C43086   6.472   9.307   8.199  0.2996 -0.1830  0.5933
  320MOL0     C43087   6.530   9.166   8.230 -0.3125 -0.2450 -0.7130
  320MOL0     C43088   6.414   9.072   8.267 -0.5059  0.3169  1.3553
  320MOL0     O43089   6.435   8.932   8.214  0.8993  0.0103 -0.2588
  320MOL0     C43090   6.375   8.825   8.284  0.4536  0.2337 -0.8743
  320MOL0     C43091   6.438   8.706   8.256  0.1254 -0.2449  0.8576
  320MOL0     C43092   6.397   8.585   8.319 -0.8557 -1.0423 -0.4359
  320MOL0     C43093   6.479   8.461   8.290 -0.8906 -0.7165  0.3821
  320MOL0     C43094   6.292   8.592   8.415  0.8339 -0.1674  0.0004
  320MOL0     C43095   6.245   8.465   8.481 -0.6107  0.0145  0.4487
  320MOL0     O43096   6.223   8.460   8.618 -0.9153  0.4299  0.3609
  320MOL0     C43097   6.265   8.553   8.706  0.4375  0.0082 -0.3408
  320MOL0     C43098   6.167   8.613   8.783 -0.6508  0.2092 -0.2175
  320MOL0     C43099   6.206   8.715   8.875  0.4196 -1.1572 -0.2482
  320MOL0     C43100   6.333   8.755   8.899 -0.8654  0.5997 -0.2238
  320MOL0     O43101   6.361   8.847   8.999 -0.2639 -0.3957 -0.6817
  320MOL0     C43102   6.487   8.917   9.015 -0.6344 -0.1197  0.0181
  320MOL0     C43103   6.468   9.041   9.099  0.9476  0.6199 -0.4437
  320MOL0     C43104   6.578   9.150   9.096 -0.5579 -0.3654 -0.5412
  320MOL0     C43105   6.526   9.278   9.023  0.9271  1.0127  0.1526
  320MOL0     C43106   6.644   9.365   8.989 -0.9901 -0.3172 -0.9994
  320MOL0     C43107   6.595   9.511   8.960  0.2383  0.3521 -0.3052
  320MOL0     C43108   6.543   9.585   9.088  0.5948  0.6982  0.6838
  320MOL0     C43109   6.482   9.720   9.054  0.8003  0.3857  0.2222
  320MOL0    Cl43110   6.325   9.698   8.972  0.2309  0.1739 -0.4765
  320MOL0     C43111   6.435   8.694   8.816  0.1688 -0.5115  0.6885
  320MOL0     C43112   6.396   8.591   8.723  0.7047  0.0570  0.0160
  320MOL0     O43113   6.221   8.379   8.400 -0.5752 -0.1408 -0.6273
  320MOL0     C43114   6.223   8.713   8.440 -0.1516 -0.0953 -0.4852
  320MOL0     C43115   6.267   8.827   8.374 -0.3379 -0.5442 -0.2769
  320MOL0     N43116   6.418   9.557   8.064 -0.3657 -0.3076  0.1297
  320MOL0     N43117   6.412   9.653   7.978  0.1206 -0.7993 -0.1540
  320MOL0     C43118   6.103  10.263   7.272 -0.3909  0.5700 -1.0469
  320MOL0     C43119   6.033  10.381   7.288 -0.8201 -0.4441  0.2189
  320MOL0     C43120   6.011  10.845   7.219 -0.2538  0.3137  0.2185
  320MOL0     C43121   6.006  10.912   7.337 -0.2338  0.1777  0.2091
  320MOL0     C43122   6.003  11.054   7.349  0.0318  0.7236 -0.8380
  320MOL0     C43123   5.991  11.139   7.247 -0.1332  0.0939  0.1878
  320MOL0     O43124   5.989  11.275   7.257  0.2299 -0.1311  0.3283
  320MOL0     C43125   5.864  11.329   7.306 -0.4123  1.0641  0.5541
  320MOL0     C43126   5.872  11.474   7.340 -0.8599  0.1320 -0.0511
  320MOL0     C43127   5.976  11.523   7.435 -0.4431 -0.4787  0.1941
  320MOL0     C43128   5.994  11.435   7.562  0.3784 -0.3491 -0.1943
  320MOL0     C43129   5.877  11.454   7.647 -0.4109  0.4066  0.6101
  320MOL0     C43130   5.780  11.450   7.716  0.2638  0.0010  0.7655
  320MOL0     C43131   6.004  11.080   7.125 -0.4202  0.2266 -0.1947
  320MOL0     C43132   6.019  10.934   7.109  0.6947 -0.6048  0.3169
  320MOL0     H43133   6.311  10.581   7.354  0.4982 -0.1004  3.2345
  320MOL0     H43134   6.428  10.376   7.339  0.8811  0.8920 -3.4235
  320MOL0     H43135   6.170  10.004   7.226 -0.2304  2.8613  0.9569
  320MOL0     H43136   6.222  10.059   7.063 -5.1219  0.7183  1.6121
  320MOL0     H43137   6.291   9.846   7.102 -1.5220  2.9430 -1.6277
  320MOL0     H43138   6.441   9.940   7.117  0.6584 -1.4501  0.1045
  320MOL0     H43139   6.355   9.939   7.378 -1.2030 -3.7367  3.6653
  320MOL0     H43140   6.312   9.780   7.330 -0.0254 -0.5827 -0.8770
  320MOL0     H43141   6.516   9.722   7.238  3.0938  2.5779 -2.2546
  320MOL0     H43142   6.600   9.868   7.285  1.5128 -1.7108  1.5105
  320MOL0     H43143   6.475   9.658   7.465 -3.7016  3.5238 -0.3791
  320MOL0     H43144   6.649   9.676   7.434  0.5273 -0.0570  0.2558
  320MOL0     H43145   6.621   9.905   7.581  3.0958 -1.6741 -0.5651
  320MOL0     H43146   6.454   9.856   7.582 -1.2738 -1.2973  2.5282
  320MOL0     H43147   6.522   9.645   7.675 -1.9370  0.0160 -2.3097
  320MOL0     H43148   6.689   9.691   7.675 -0.7354  2.4051 -2.0175
  320MOL0     H43149   6.499   9.863   7.832 -0.7045 -0.4786  2.0181
  320MOL0     H43150   6.669   9.833   7.862  0.2126  1.0474 -2.8649
  320MOL0     H43151   6.734   9.595   7.997  0.8073  1.9307 -2.7087
  320MOL0     H43152   6.668   9.346   8.120  1.4716  0.8627  0.1916
  320MOL0     H43153   6.621   9.444   8.264 -1.6530 -2.1911  0.6384
  320MOL0     H43154   6.403   9.297   8.115 -0.9391  0.3219  1.5166
  320MOL0     H43155   6.414   9.329   8.289 -1.3410 -0.5977 -0.3244
  320MOL0     H43156   6.604   9.174   8.310 -1.0315  2.5645 -0.2114
  320MOL0     H43157   6.583   9.130   8.142  2.6184 -0.4497  1.0033
  320MOL0     H43158   6.330   9.111   8.208  1.7256  3.5867  0.0376
  320MOL0     H43159   6.379   9.076   8.371  2.0785  1.4527  2.2772
  320MOL0     H43160   6.522   8.725   8.190  1.5805  1.1073  2.9651
  320MOL0     H43161   6.436   8.396   8.213 -2.3387 -2.6338  2.6687
  320MOL0     H43162   6.582   8.485   8.260 -0.6843  0.7870  2.0883
  320MOL0     H43163   6.501   8.409   8.383  3.1275 -0.8291 -0.4320
  320MOL0     H43164   6.060   8.606   8.768 -1.0311  3.4291  0.3551
  320MOL0     H43165   6.127   8.759   8.935  0.6812 -0.5545 -0.3340
  320MOL0     H43166   6.562   8.850   9.058 -0.3783  0.3809  0.3651
  320MOL0     H43167   6.509   8.950   8.913 -2.0110  1.9946  0.3626
  320MOL0     H43168   6.371   9.089   9.084  0.8479 -0.1192 -2.4100
  320MOL0     H43169   6.458   8.992   9.196  2.4771  0.6503 -0.2415
  320MOL0     H43170   6.662   9.100   9.046 -2.0228 -2.6018 -0.9421
  320MOL0     H43171   6.608   9.177   9.198 -0.6124  0.1427 -0.6625
  320MOL0     H43172   6.472   9.258   8.930  4.9514  2.6008 -2.8480
  320MOL0     H43173   6.464   9.324   9.101 -1.1896  0.0145 -0.8537
  320MOL0     H43174   6.704   9.328   8.905  2.0183 -0.7591  1.1896
  320MOL0     H43175   6.711   9.365   9.075 -2.2310  0.5667  0.0050
  320MOL0     H43176   6.673   9.572   8.913  1.4949 -1.3411 -0.5591
  320MOL0     H43177   6.516   9.498   8.885  2.9265 -0.3572 -3.2856
  320MOL0     H43178   6.618   9.593   9.167 -0.5055  0.3507  1.7934
  320MOL0     H43179   6.462   9.528   9.133 -1.3060  1.7348 -1.2056
  320MOL0     H43180   6.560   9.772   8.999  2.9839 -1.6096  1.2620
  320MOL0     H43181   6.456   9.775   9.145 -0.3212  1.0736 -0.4844
  320MOL0     H43182   6.539   8.725   8.817 -0.2054  1.1396 -2.0540
  320MOL0     H43183   6.463   8.529   8.663 -0.8967 -1.3996 -0.3585
  320MOL0     H43184   6.142   8.721   8.511 -0.9699  1.2725 -1.5268
  320MOL0     H43185   6.240   8.929   8.402  0.2775 -0.5339  0.3033
  320MOL0     H43186   6.053  10.170   7.249  1.9200 -0.1198 -3.9691
  320MOL0     H43187   5.925  10.385   7.277 -0.6723 -1.8561 -2.5640
  320MOL0     H43188   6.012  10.863   7.434  3.4209  0.7670  0.4281
  320MOL0     H43189   6.000  11.096   7.450 -1.7548  1.6181 -1.2219
  320MOL0     H43190   5.795  11.314   7.222  1.7925 -0.3172 -1.1251
  320MOL0     H43191   5.835  11.264   7.389  0.3185 -0.2510 -0.1927
  320MOL0     H43192   5.778  11.520   7.371 -0.6056  2.4668 -2.3290
  320MOL0     H43193   5.888  11.529   7.246  0.8676 -1.0443 -0.4991
  320MOL0     H43194   5.966  11.630   7.458 -0.2898 -0.1204 -1.3056
  320MOL0     H43195   6.073  11.512   7.387 -1.7893 -2.6929 -2.2771
  320MOL0     H43196   6.087  11.451   7.618  0.2018 -0.0391  0.0122
  320MOL0     H43197   6.007  11.329   7.539 -2.3009 -0.6496 -0.5700
  320MOL0     H43198   5.695  11.455   7.781  2.4566 -1.7055  4.1183
  320MOL0     H43199   6.006  11.138   7.032 -0.9936  0.3801 -0.1147
  320MOL0     H43200   6.043  10.901   7.008  1.1846 -0.9053  0.5261
  321MOL0     O43201   5.734  10.621   8.216  0.7804 -0.4572 -0.9759
  321MOL0     C43202   5.745  10.742   8.224  0.2347 -0.1259 -0.1127
  321MOL0     O43203   5.647  10.838   8.233  0.3870  0.3299  0.0334
  321MOL0     C43204   5.516  10.820   8.271  0.3470 -0.2210  0.1648
  321MOL0     C43205   5.415  10.914   8.242 -0.5354 -0.2061 -1.1077
  321MOL0     C43206   5.294  10.912   8.297 -0.7148 -0.1156  0.2274
  321MOL0     C43207   5.260  10.810   8.391 -0.7624 -0.0399  0.9349
  321MOL0     O43208   5.133  10.788   8.429 -0.0533  0.0078  0.2006
  321MOL0     C43209   5.039  10.807   8.325 -0.4563 -0.3554 -0.0040
  321MOL0     C43210   4.901  10.769   8.376 -0.2461  0.7004 -0.2917
  321MOL0     C43211   4.772  10.819   8.294 -0.5840 -0.8427  0.2322
  321MOL0     C43212   4.644  10.741   8.344 -0.0920 -0.3908 -0.2359
  321MOL0     C43213   4.527  10.743   8.239 -0.4794  0.7124  0.0023
  321MOL0     C43214   4.555  10.651   8.118  0.0969 -1.0227  0.7021
  321MOL0     C43215   4.559  10.718   7.973  0.0201 -0.3720  0.0671
  321MOL0     C43216   4.571  10.612   7.865 -0.0186  0.5450 -0.6913
  321MOL0     N43217   4.571  10.673   7.724 -0.0503 -0.5768 -0.1334
  321MOL0     C43218   4.448  10.692   7.650  0.0995 -0.0539 -0.0744
  321MOL0     C43219   4.478  10.710   7.519 -0.3210  0.1588 -0.7648
  321MOL0     C43220   4.385  10.752   7.408 -0.0426 -0.5566 -0.6165
  321MOL0     C43221   4.353  10.903   7.412  0.5974  0.4254 -0.2348
  321MOL0     C43222   4.276  10.950   7.296  0.1196  0.2351  1.3076
  321MOL0     C43223   4.346  10.931   7.159 -0.5146 -0.4268  0.3030
  321MOL0     O43224   4.302  11.029   7.057  0.6468  0.2042  0.3308
  321MOL0     C43225   4.371  11.030   6.940  0.1775  0.1298 -0.2204
  321MOL0     C43226   4.363  11.147   6.867  0.3420  0.7757 -0.3147
  321MOL0     C43227   4.415  11.158   6.740  0.6735 -0.6445  0.7923
  321MOL0     C43228   4.374  11.285   6.665  0.9135  0.0517 -0.2035
  321MOL0     C43229   4.499  11.064   6.688 -0.5972 -0.1610  0.2651
  321MOL0     C43230   4.558  11.080   6.555 -0.6316  0.2289  1.0725
  321MOL0     O43231   4.495  11.145   6.462 -0.3300  0.6112 -0.2754
  321MOL0     C43232   4.561  11.171   6.348 -0.7963  0.4487 -0.6405
  321MOL0     C43233   4.588  11.068   6.255  0.3444 -0.2547  0.0812
  321MOL0     C43234   4.686  11.086   6.158 -0.1050 -0.5106 -0.5643
  321MOL0     C43235   4.734  11.220   6.135 -0.5916 -0.1802  0.0308
  321MOL0     O43236   4.805  11.248   6.022  1.1728  0.6697 -0.4320
  321MOL0     C43237   4.722  11.307   5.925 -0.1861  0.3976 -0.3173
  321MOL0     C43238   4.829  11.413   5.874  0.0317 -0.1281  0.3352
  321MOL0     C43239   4.942  11.373   5.776  0.4218 -0.9696 -0.2008
  321MOL0     C43240   4.890  11.324   5.641 -0.7575 -0.2307  0.8334
  321MOL0     C43241   5.002  11.240   5.570 -1.1932  0.6116 -0.2384
  321MOL0     C43242   4.975  11.214   5.418  0.5027  0.5736 -0.7823
  321MOL0     C43243   5.083  11.126   5.355  1.1129 -0.4690  0.2621
  321MOL0     C43244   5.059  11.113   5.206 -0.4576  0.4193  0.7993
  321MOL0    Cl43245   5.160  10.984   5.138  0.1814  0.3093  0.3348
  321MOL0     C43246   4.713  11.322   6.230  0.6647  1.0226  0.5623
  321MOL0     C43247   4.627  11.295   6.339  0.7388  1.0920  0.2072
  321MOL0     O43248   4.668  11.029   6.536  0.5740 -0.2879 -0.4607
  321MOL0     C43249   4.509  10.937   6.759 -0.6129 -0.4266 -0.4275
  321MOL0     C43250   4.446  10.926   6.885 -0.7048 -0.1151 -0.3853
  321MOL0     N43251   4.617  10.693   7.505  0.2283  0.0985 -0.1663
  321MOL0     N43252   4.660  10.667   7.622  0.7484  0.5790 -1.2381
  321MOL0     C43253   5.356  10.718   8.418 -0.7505  0.3793 -0.3592
  321MOL0     C43254   5.486  10.715   8.359  0.3465  0.9050  1.0177
  321MOL0     C43255   5.885  10.795   8.245 -0.5154 -0.2004  0.9301
  321MOL0     C43256   6.002  10.726   8.199  0.1982 -0.3402 -0.2601
  321MOL0     C43257   6.129  10.782   8.231 -0.2770 -0.7217 -0.2604
  321MOL0     C43258   6.132  10.915   8.277  0.8359  0.1935  0.1850
  321MOL0     O43259   6.247  10.985   8.290  0.7373 -1.0910  0.0660
  321MOL0     C43260   6.374  10.945   8.237 -0.3126  0.4725 -0.4454
  321MOL0     C43261   6.385  10.955   8.084  0.0612  0.1594 -0.1251
  321MOL0     C43262   6.363  11.094   8.033  0.6318  0.1210 -0.8505
  321MOL0     C43263   6.223  11.159   8.046  0.7439 -0.2930 -0.0146
  321MOL0     C43264   6.198  11.292   7.969 -0.3809 -0.2008 -0.2089
  321MOL0     C43265   6.169  11.387   7.896 -0.0794 -0.0497 -0.6828
  321MOL0     C43266   6.025  10.989   8.309  0.3224 -0.4406 -0.5420
  321MOL0     C43267   5.896  10.933   8.293 -0.1636  0.5665  0.0785
  321MOL0     H43268   5.462  10.986   8.175 -0.0124 -0.3589 -0.9062
  321MOL0     H43269   5.222  10.987   8.266 -1.1671 -0.5685  0.1915
  321MOL0     H43270   5.048  10.916   8.315  0.9903 -0.3425  1.0826
  321MOL0     H43271   5.064  10.755   8.232  0.6128  0.5431 -0.2337
  321MOL0     H43272   4.894  10.660   8.379 -1.7018  0.7597 -0.6215
  321MOL0     H43273   4.884  10.799   8.480 -1.3352  0.3943 -0.3662
  321MOL0     H43274   4.765  10.927   8.312  1.4328 -0.5972 -0.2638
  321MOL0     H43275   4.791  10.806   8.187  0.7187 -0.2592  0.3752
  321MOL0     H43276   4.671  10.636   8.362 -1.5322 -1.7303 -4.4936
  321MOL0     H43277   4.603  10.782   8.436  1.5428 -0.7507  0.6933
  321MOL0     H43278   4.438  10.695   8.281 -0.4779 -0.6730 -1.4869
  321MOL0     H43279   4.508  10.844   8.205 -2.6624  1.8932  4.0589
  321MOL0     H43280   4.657  10.615   8.136  0.4128  0.0761  1.1840
  321MOL0     H43281   4.480  10.571   8.111  1.8826 -2.6275 -1.5651
  321MOL0     H43282   4.467  10.772   7.952 -0.4949 -2.0853 -2.5507
  321MOL0     H43283   4.639  10.793   7.963 -2.4328  2.1524 -2.7907
  321MOL0     H43284   4.496  10.534   7.879 -0.4029  0.8724 -0.9012
  321MOL0     H43285   4.669  10.564   7.872 -0.5500 -0.3924  0.5372
  321MOL0     H43286   4.348  10.693   7.692 -1.8674  1.6019 -4.2196
  321MOL0     H43287   4.449  10.747   7.319  0.0353 -0.1090 -0.5853
  321MOL0     H43288   4.292  10.693   7.405 -0.7111  0.2820  1.7886
  321MOL0     H43289   4.452  10.950   7.408  1.6908 -1.8150 -1.9477
  321MOL0     H43290   4.287  10.920   7.497 -1.6485 -2.8837 -1.1294
  321MOL0     H43291   4.250  11.056   7.309 -2.6450 -0.2042  0.0705
  321MOL0     H43292   4.178  10.903   7.292 -1.2109  2.7401  2.2151
  321MOL0     H43293   4.335  10.827   7.128 -1.8747 -0.3018  0.3190
  321MOL0     H43294   4.454  10.943   7.172 -0.0529 -2.3016 -1.2964
  321MOL0     H43295   4.304  11.226   6.911 -2.8341 -0.8428 -1.3140
  321MOL0     H43296   4.323  11.256   6.573  0.4704 -3.7644  1.1044
  321MOL0     H43297   4.296  11.337   6.721 -0.4297 -2.2429  0.1395
  321MOL0     H43298   4.474  11.330   6.662  1.6339 -1.5149 -0.1710
  321MOL0     H43299   4.548  10.968   6.269  2.8522 -1.3315  0.0374
  321MOL0     H43300   4.707  11.003   6.091  0.0812 -0.4574 -0.5732
  321MOL0     H43301   4.684  11.238   5.849 -2.1348  0.4068  0.5830
  321MOL0     H43302   4.633  11.357   5.964  0.2287  3.0620 -2.4551
  321MOL0     H43303   4.769  11.493   5.828 -1.1655 -2.0204 -1.5777
  321MOL0     H43304   4.865  11.461   5.965  0.9578 -1.8851  0.9405
  321MOL0     H43305   5.009  11.302   5.826  2.0571  1.3030  1.0333
  321MOL0     H43306   5.001  11.464   5.760  1.1530 -1.4137 -0.0773
  321MOL0     H43307   4.795  11.270   5.637 -1.5577  1.1888 -0.7385
  321MOL0     H43308   4.869  11.410   5.576 -1.6331 -1.1962 -0.2085
  321MOL0     H43309   5.015  11.144   5.622 -0.3118  0.9260  0.1502
  321MOL0     H43310   5.091  11.303   5.583 -3.0102  3.3115 -0.2108
  321MOL0     H43311   4.882  11.158   5.410  0.4053  0.9149 -2.4153
  321MOL0     H43312   4.969  11.311   5.368  1.2540  1.3231  0.5208
  321MOL0     H43313   5.087  11.030   5.408  1.7584  0.1032  1.2904
  321MOL0     H43314   5.182  11.173   5.363  0.1161  1.6638  0.5988
  321MOL0     H43315   5.089  11.212   5.170 -0.7609  0.7055  1.3246
  321MOL0     H43316   4.953  11.092   5.193 -0.6868  1.8972  0.1175
  321MOL0     H43317   4.747  11.422   6.206 -1.6133  1.2987 -2.0636
  321MOL0     H43318   4.590  11.370   6.408 -4.8995 -2.1003  1.2189
  321MOL0     H43319   4.579  10.867   6.716 -1.7181  0.2305 -3.5350
  321MOL0     H43320   4.460  10.829   6.933 -0.6341 -0.4199 -1.0151
  321MOL0     H43321   5.324  10.648   8.494 -5.1374  1.9217 -0.5523
  321MOL0     H43322   5.562  10.647   8.394  2.6475  1.9506 -1.6209
  321MOL0     H43323   5.997  10.620   8.178 -2.0166 -0.8741  2.4108
  321MOL0     H43324   6.223  10.730   8.215 -0.8756 -1.3632 -1.9462
  321MOL0     H43325   6.449  11.012   8.281 -0.5540  1.9843 -2.2424
  321MOL0     H43326   6.396  10.845   8.276 -0.6385  0.5967  0.0654
  321MOL0     H43327   6.312  10.885   8.043 -0.9683  2.2509 -2.0616
  321MOL0     H43328   6.484  10.918   8.054  0.6525 -0.0013  1.8374
  321MOL0     H43329   6.394  11.090   7.929  0.0668  2.0981 -1.1382
  321MOL0     H43330   6.436  11.159   8.084 -1.6901  1.2743  1.2334
  321MOL0     H43331   6.206  11.194   8.148 -3.1693  2.3901 -1.3518
  321MOL0     H43332   6.146  11.085   8.022  2.7450 -1.5670 -3.1057
  321MOL0     H43333   6.152  11.475   7.837  2.7429  1.1123  0.0447
  321MOL0     H43334   6.035  11.093   8.338 -0.5469  0.1264 -2.1302
  321MOL0     H43335   5.805  10.987   8.319 -0.3601 -0.0508  0.7037
  322MOL0     O43336   1.627   9.868   3.365 -0.1650  0.2489 -0.4712
  322MOL0     C43337   1.571   9.916   3.267 -0.2783 -0.1424 -0.7037
  322MOL0     O43338   1.518  10.038   3.259  0.3162 -0.0659 -0.3600
  322MOL0     C43339   1.522  10.133   3.358  0.5987 -0.4748 -0.0247
  322MOL0     C43340   1.632  10.161   3.443  0.6598  1.2013  0.3138
  322MOL0     C43341   1.623  10.255   3.550  0.5031  0.7994 -0.3316
  322MOL0     C43342   1.511  10.341   3.558 -0.1415  0.8979  0.2527
  322MOL0     O43343   1.513  10.420   3.667  0.4160 -0.1648 -0.6967
  322MOL0     C43344   1.412  10.528   3.674  0.2930  0.2819 -0.3105
  322MOL0     C43345   1.271  10.480   3.724  0.0676 -0.1815  0.2770
  322MOL0     C43346   1.155  10.553   3.648  0.2722 -0.5680  0.3992
  322MOL0     C43347   1.178  10.704   3.630  0.2418 -0.6859  0.4046
  322MOL0     C43348   1.055  10.787   3.601  0.9588 -0.1103 -0.4070
  322MOL0     C43349   1.083  10.929   3.573 -0.2675 -0.3228  0.8555
  322MOL0     C43350   0.944  10.985   3.545  0.8340  0.1286 -0.1033
  322MOL0     C43351   0.934  11.138   3.551  0.0100  0.1925  1.7118
  322MOL0     N43352   1.029  11.187   3.440  0.5198  0.6178  0.5629
  322MOL0     C43353   1.165  11.220   3.445 -0.6653  0.8203 -0.2798
  322MOL0     C43354   1.210  11.234   3.320  0.2979  0.9751  0.4526
  322MOL0     C43355   1.354  11.248   3.283 -0.1612 -0.3641 -0.4184
  322MOL0     C43356   1.406  11.109   3.229 -0.4548  0.1108 -0.8417
  322MOL0     C43357   1.553  11.105   3.216 -0.6078 -0.4740  0.2636
  322MOL0     C43358   1.605  10.989   3.132  1.0196 -0.5219  0.0489
  322MOL0     O43359   1.578  10.868   3.195  0.1602 -0.0988 -0.7364
  322MOL0     C43360   1.578  10.747   3.127  0.4271 -0.3783 -0.9736
  322MOL0     C43361   1.622  10.737   3.000 -0.3971  0.8491  0.0409
  322MOL0     C43362   1.631  10.606   2.945 -0.4900 -0.2591  0.2238
  322MOL0     C43363   1.690  10.595   2.807 -0.5145  0.7827 -0.4085
  322MOL0     C43364   1.591  10.491   3.015  0.5066 -0.8307 -0.4873
  322MOL0     C43365   1.631  10.362   2.980 -0.7665 -0.3450 -0.5543
  322MOL0     O43366   1.764  10.330   2.985  0.4419  0.2786 -0.0717
  322MOL0     C43367   1.820  10.214   2.940  0.8110 -0.0999 -0.1063
  322MOL0     C43368   1.780  10.087   2.988 -0.2135 -0.0071 -0.3712
  322MOL0     C43369   1.842   9.963   2.952  0.3979 -0.9501  0.3394
  322MOL0     C43370   1.945   9.976   2.859 -0.0464  0.2792 -0.0654
  322MOL0     O43371   2.020   9.863   2.822  0.6981 -0.4112 -0.6852
  322MOL0     C43372   1.928   9.758   2.780 -0.2907  0.0357 -0.4863
  322MOL0     C43373   2.005   9.660   2.692 -0.0156 -0.2137 -0.4304
  322MOL0     C43374   1.910   9.560   2.629  0.3587 -0.2123  0.9619
  322MOL0     C43375   1.861   9.444   2.720 -0.1586 -0.3957  0.1959
  322MOL0     C43376   1.809   9.340   2.621 -0.3492  0.4462 -0.1898
  322MOL0     C43377   1.796   9.197   2.661 -1.5563  0.8731 -0.1124
  322MOL0     C43378   1.708   9.115   2.565  0.8114 -0.7041  0.4954
  322MOL0     C43379   1.649   8.986   2.632 -0.7792  0.2893  0.1324
  322MOL0    Cl43380   1.712   8.842   2.535  0.0488  0.1002  0.0934
  322MOL0     C43381   1.992  10.104   2.815 -0.4538  0.3418  0.3267
  322MOL0     C43382   1.928  10.221   2.862 -0.0453  0.5388  0.0090
  322MOL0     O43383   1.538  10.281   2.963  0.4856  0.3978 -0.8495
  322MOL0     C43384   1.533  10.510   3.146 -0.0399  0.8636 -0.0018
  322MOL0     C43385   1.534  10.638   3.200 -1.0659 -1.1582  0.2043
  322MOL0     N43386   1.107  11.210   3.232  0.1181  0.0972  0.3929
  322MOL0     N43387   0.999  11.182   3.302  0.6461 -0.1565 -0.3263
  322MOL0     C43388   1.402  10.322   3.470 -0.7933  0.0177  0.5266
  322MOL0     C43389   1.408  10.222   3.369  0.3723  0.6067 -0.2662
  322MOL0     C43390   1.565   9.827   3.149  0.0935 -0.3725  0.9210
  322MOL0     C43391   1.491   9.866   3.037  0.3488 -0.0455  0.4346
  322MOL0     C43392   1.477   9.790   2.922 -0.3349 -0.6343 -0.4339
  322MOL0     C43393   1.550   9.668   2.908  0.5295 -0.6066  0.2559
  322MOL0     O43394   1.549   9.586   2.802  0.2747 -0.4595  0.4436
  322MOL0     C43395   1.501   9.649   2.674  0.0900  1.1691  0.8951
  322MOL0     C43396   1.347   9.640   2.664  0.1383  0.2073  0.0888
  322MOL0     C43397   1.287   9.739   2.558 -0.0856 -0.0255 -0.3646
  322MOL0     C43398   1.133   9.726   2.563  0.7275 -0.3696  0.1478
  322MOL0     C43399   1.067   9.855   2.583  0.2385  0.1619  0.2465
  322MOL0     C43400   1.015   9.962   2.589 -1.5962 -0.4173  0.2140
  322MOL0     C43401   1.614   9.626   3.022  1.0232 -0.2817  0.8487
  322MOL0     C43402   1.626   9.702   3.137  0.1912  0.3846 -0.7939
  322MOL0     H43403   1.706  10.084   3.425 -2.4869 -1.8063 -0.8289
  322MOL0     H43404   1.704  10.274   3.619 -1.7756 -0.3838  2.9240
  322MOL0     H43405   1.452  10.598   3.749  1.3860  0.0927 -0.7036
  322MOL0     H43406   1.407  10.582   3.579 -1.8758  0.2781 -0.2450
  322MOL0     H43407   1.257  10.375   3.696 -0.2669 -0.8418  2.6586
  322MOL0     H43408   1.263  10.497   3.832 -0.2212  1.9678 -0.0245
  322MOL0     H43409   1.149  10.492   3.557 -1.2810 -1.0278  0.7731
  322MOL0     H43410   1.065  10.552   3.711  0.4769  1.0501  0.7428
  322MOL0     H43411   1.236  10.741   3.715 -2.7238  1.1073  1.8313
  322MOL0     H43412   1.248  10.713   3.547  0.1159 -2.4392  0.0649
  322MOL0     H43413   1.005  10.736   3.519  3.1305 -0.5784 -1.5114
  322MOL0     H43414   0.992  10.763   3.687  2.3468 -3.7587 -0.2541
  322MOL0     H43415   1.129  10.992   3.650 -2.4005  1.1093  1.0418
  322MOL0     H43416   1.149  10.928   3.486 -2.1884 -2.5200 -0.6586
  322MOL0     H43417   0.905  10.940   3.454  2.0553  1.5047 -1.3686
  322MOL0     H43418   0.878  10.952   3.625 -0.3711  1.2766 -0.5858
  322MOL0     H43419   0.971  11.171   3.648  1.5985 -3.1876  2.4364
  322MOL0     H43420   0.833  11.176   3.539  0.7558  1.5993 -0.8928
  322MOL0     H43421   1.231  11.222   3.532  0.6984 -1.6043 -1.1756
  322MOL0     H43422   1.353  11.327   3.207 -3.9244 -1.8686 -2.1721
  322MOL0     H43423   1.400  11.273   3.379 -0.8812  0.0859 -0.1823
  322MOL0     H43424   1.358  11.079   3.135 -0.5305 -2.7340  0.0016
  322MOL0     H43425   1.373  11.033   3.301 -2.3718  3.0482  1.6338
  322MOL0     H43426   1.615  11.105   3.307  1.8449  2.3928 -1.2179
  322MOL0     H43427   1.589  11.188   3.155 -0.3260 -0.4288  0.4868
  322MOL0     H43428   1.712  11.000   3.110  1.3762  0.4478  2.0239
  322MOL0     H43429   1.544  10.988   3.041  2.3744 -0.4868 -0.8875
  322MOL0     H43430   1.663  10.824   2.949  2.4045  0.0114  0.7083
  322MOL0     H43431   1.635  10.516   2.756  1.7741 -2.5153  1.8272
  322MOL0     H43432   1.698  10.685   2.745  1.2824 -0.0707 -1.4999
  322MOL0     H43433   1.796  10.571   2.820 -0.2591  1.8168 -0.4906
  322MOL0     H43434   1.697  10.082   3.058  2.1277 -1.4192  2.5288
  322MOL0     H43435   1.810   9.872   3.000 -0.4987 -1.9978 -2.0787
  322MOL0     H43436   1.884   9.706   2.866  0.4916 -2.6543 -1.6188
  322MOL0     H43437   1.842   9.786   2.719 -1.3652 -3.6370 -0.8372
  322MOL0     H43438   2.048   9.719   2.610  0.1030 -0.5963 -0.6514
  322MOL0     H43439   2.080   9.600   2.745  2.8012  1.3838 -2.3423
  322MOL0     H43440   1.963   9.519   2.544 -1.8375 -1.9701  0.3448
  322MOL0     H43441   1.822   9.607   2.583  0.9802 -1.3027 -1.4935
  322MOL0     H43442   1.950   9.410   2.775  2.1908  3.0893 -1.0420
  322MOL0     H43443   1.776   9.480   2.778 -0.2171  3.0571 -1.7758
  322MOL0     H43444   1.877   9.337   2.535 -0.3107 -0.1223 -0.1377
  322MOL0     H43445   1.714   9.384   2.588 -0.1602  2.0446  1.2425
  322MOL0     H43446   1.895   9.149   2.656 -1.4381  1.2373 -2.7951
  322MOL0     H43447   1.753   9.175   2.759 -1.0849  2.6895  0.5296
  322MOL0     H43448   1.759   9.089   2.471 -0.6043 -0.3598 -0.4057
  322MOL0     H43449   1.620   9.175   2.539 -0.7134 -3.2540 -0.6157
  322MOL0     H43450   1.541   8.998   2.637 -1.0911 -1.8020 -0.7211
  322MOL0     H43451   1.696   8.970   2.730 -1.7402 -1.2182  0.3752
  322MOL0     H43452   2.067  10.103   2.737 -1.2618 -5.1344 -0.8211
  322MOL0     H43453   1.957  10.319   2.824 -0.8965  0.8026  0.0194
  322MOL0     H43454   1.500  10.421   3.199  0.7122  1.0191  0.7449
  322MOL0     H43455   1.493  10.637   3.300 -0.8174  2.9226  0.5332
  322MOL0     H43456   1.312  10.381   3.480 -1.6490 -1.2654  0.6934
  322MOL0     H43457   1.331  10.213   3.294 -0.2298  1.2397  0.2640
  322MOL0     H43458   1.451   9.967   3.038 -0.2600 -0.2900  1.2588
  322MOL0     H43459   1.410   9.826   2.845  0.3482 -0.1287 -0.8059
  322MOL0     H43460   1.528   9.754   2.672 -2.1387  1.7955 -0.2306
  322MOL0     H43461   1.550   9.610   2.584 -0.8912  1.5907  0.1472
  322MOL0     H43462   1.300   9.658   2.761 -0.4473  3.4201 -0.6933
  322MOL0     H43463   1.330   9.540   2.624  0.3984  0.5830 -0.9947
  322MOL0     H43464   1.323   9.692   2.465 -0.3200 -1.8574  0.4241
  322MOL0     H43465   1.316   9.844   2.567 -0.5698  0.2731 -1.9113
  322MOL0     H43466   1.106   9.662   2.648  3.2248 -0.5561  0.8803
  322MOL0     H43467   1.100   9.687   2.466  1.6435 -0.9353  0.0550
  322MOL0     H43468   0.970  10.059   2.588 -2.6266 -0.8768 -0.3768
  322MOL0     H43469   1.664   9.529   3.022  4.3448  1.1910 -1.9573
  322MOL0     H43470   1.676   9.657   3.222  2.0913  0.2761 -1.8994
  323MOL0     O43471   7.163   6.713   5.572 -0.3956 -0.1177  0.1069
  323MOL0     C43472   7.168   6.689   5.690  0.0444  1.2842 -1.2464
  323MOL0     O43473   7.072   6.726   5.778  0.0264  0.5412 -0.0618
  323MOL0     C43474   6.963   6.812   5.766 -0.0168 -0.2348  0.3167
  323MOL0     C43475   6.956   6.920   5.679 -0.0336  0.3360 -0.6046
  323MOL0     C43476   6.863   7.020   5.694 -0.0062 -0.2557  0.4973
  323MOL0     C43477   6.766   7.016   5.799 -0.2899 -0.7631 -0.0967
  323MOL0     O43478   6.695   7.136   5.805 -0.7121  0.6710 -0.1960
  323MOL0     C43479   6.659   7.167   5.939  1.2042  0.5784 -0.3672
  323MOL0     C43480   6.655   7.313   5.950  0.1444  0.0365 -0.5957
  323MOL0     C43481   6.542   7.375   5.868 -0.1687  0.5159  0.2909
  323MOL0     C43482   6.555   7.524   5.865 -0.3488 -0.0309 -0.2439
  323MOL0     C43483   6.427   7.585   5.810  0.2283  0.7289 -0.3508
  323MOL0     C43484   6.464   7.722   5.759  0.3032  1.2979  0.2709
  323MOL0     C43485   6.535   7.812   5.864  0.8992  0.7822  0.3806
  323MOL0     C43486   6.544   7.956   5.791 -0.5235 -1.2388  0.1255
  323MOL0     N43487   6.635   7.954   5.675  0.2244 -0.3631  0.5679
  323MOL0     C43488   6.760   7.912   5.688 -0.5615 -0.2363 -0.4321
  323MOL0     C43489   6.813   7.901   5.567  0.4458 -0.4154 -0.0293
  323MOL0     C43490   6.956   7.863   5.538 -0.1354 -0.2510  0.7782
  323MOL0     C43491   7.067   7.919   5.625 -0.3097 -0.6884  0.6444
  323MOL0     C43492   7.219   7.889   5.594  1.1318 -0.5890  0.0570
  323MOL0     C43493   7.311   8.003   5.636  0.1389 -0.5200  0.3825
  323MOL0     O43494   7.274   8.123   5.559 -0.4289  0.4257 -0.5753
  323MOL0     C43495   7.355   8.178   5.459  0.1888 -0.1976  0.1551
  323MOL0     C43496   7.442   8.108   5.375 -0.9059 -0.4526 -0.6932
  323MOL0     C43497   7.511   8.174   5.274 -0.2201  1.2895 -0.1172
  323MOL0     C43498   7.593   8.081   5.179  0.9923  0.0951 -0.5783
  323MOL0     C43499   7.508   8.316   5.268  0.2154 -0.4773 -0.9124
  323MOL0     C43500   7.582   8.405   5.176  0.0862  0.1955 -0.0429
  323MOL0     O43501   7.545   8.540   5.162  0.9318  0.0266  0.9158
  323MOL0     C43502   7.588   8.610   5.054 -0.7709 -0.5414  0.5024
  323MOL0     C43503   7.713   8.673   5.055 -0.3871 -1.1820  0.7171
  323MOL0     C43504   7.760   8.754   4.948 -0.0563 -0.5801 -1.3241
  323MOL0     C43505   7.672   8.779   4.841  0.4999  0.2630 -0.1618
  323MOL0     O43506   7.710   8.839   4.718 -0.2692  0.3365 -0.8851
  323MOL0     C43507   7.821   8.791   4.642  0.0749 -0.3486 -1.4275
  323MOL0     C43508   7.784   8.776   4.502 -0.2721  0.1565  1.0074
  323MOL0     C43509   7.903   8.721   4.416 -0.5465  0.2888  0.1345
  323MOL0     C43510   8.011   8.819   4.366 -0.5984 -0.1700  0.5456
  323MOL0     C43511   8.114   8.736   4.284 -1.0314 -0.0539  0.0561
  323MOL0     C43512   8.231   8.819   4.256  0.3567 -0.8118  0.2645
  323MOL0     C43513   8.359   8.735   4.207  0.2823 -0.1342 -0.0680
  323MOL0     C43514   8.462   8.829   4.138  0.0895  0.2545  0.8539
  323MOL0    Cl43515   8.455   9.002   4.206 -0.0702  0.0752 -0.3760
  323MOL0     C43516   7.541   8.724   4.841 -0.6518 -0.1106  0.4736
  323MOL0     C43517   7.503   8.645   4.946  0.4580  1.5855  0.4104
  323MOL0     O43518   7.687   8.357   5.127  0.1883 -0.6428 -0.4546
  323MOL0     C43519   7.430   8.383   5.366 -0.4234  0.1353 -0.5635
  323MOL0     C43520   7.345   8.317   5.458 -0.2713 -0.2456  0.3183
  323MOL0     N43521   6.707   7.925   5.475  0.1498 -0.1987 -0.6382
  323MOL0     N43522   6.607   7.960   5.543 -0.0154 -0.8777 -0.5369
  323MOL0     C43523   6.764   6.899   5.882 -0.1285 -0.3764  0.5271
  323MOL0     C43524   6.860   6.798   5.861 -0.0553 -1.0536  0.1811
  323MOL0     C43525   7.290   6.613   5.739 -0.1859 -0.4683 -0.3125
  323MOL0     C43526   7.377   6.567   5.635 -0.3195 -0.0596 -0.5335
  323MOL0     C43527   7.493   6.493   5.677 -0.2010 -0.0498 -0.0045
  323MOL0     C43528   7.522   6.474   5.806 -0.4365  0.4056  0.1072
  323MOL0     O43529   7.654   6.424   5.840  0.7461  0.1144 -0.6975
  323MOL0     C43530   7.742   6.370   5.741 -1.1952 -0.4510  0.1302
  323MOL0     C43531   7.884   6.380   5.814  0.4902 -1.0083  0.4361
  323MOL0     C43532   7.926   6.531   5.847 -0.3789  0.6944 -1.1577
  323MOL0     C43533   8.060   6.527   5.924 -0.5646  0.6548  0.0490
  323MOL0     C43534   8.165   6.481   5.834 -0.6250 -0.3581  1.0166
  323MOL0     C43535   8.259   6.440   5.762  0.0246  0.5173  0.9800
  323MOL0     C43536   7.436   6.514   5.910  0.5103 -0.2779  0.9633
  323MOL0     C43537   7.313   6.582   5.874 -0.3096  0.7054 -0.5103
  323MOL0     H43538   7.031   6.929   5.601  0.0847 -3.4772 -1.1361
  323MOL0     H43539   6.859   7.105   5.627 -5.6264 -0.1703  0.4433
  323MOL0     H43540   6.560   7.124   5.957  1.1547  1.9092  3.7460
  323MOL0     H43541   6.713   7.119   6.021  0.8162  0.5276 -0.1388
  323MOL0     H43542   6.658   7.343   6.056  1.5878 -2.6189  0.1843
  323MOL0     H43543   6.752   7.347   5.915  1.1527 -0.8176  1.2174
  323MOL0     H43544   6.563   7.340   5.766  1.3508  3.0631 -0.3479
  323MOL0     H43545   6.442   7.345   5.901 -0.6512 -0.0816 -1.5880
  323MOL0     H43546   6.563   7.576   5.960  0.8130 -0.3273 -0.1631
  323MOL0     H43547   6.648   7.552   5.816  0.5278  0.1955  1.5111
  323MOL0     H43548   6.368   7.524   5.742 -0.8972 -0.3754  1.5096
  323MOL0     H43549   6.362   7.603   5.896  1.1879  1.0891  0.3195
  323MOL0     H43550   6.527   7.703   5.672  2.0032 -2.6238  2.1301
  323MOL0     H43551   6.372   7.771   5.724 -1.5779  0.5706  3.7330
  323MOL0     H43552   6.471   7.827   5.952 -1.9746 -1.7111 -1.0683
  323MOL0     H43553   6.630   7.768   5.894  0.7959 -0.4278 -0.9669
  323MOL0     H43554   6.575   8.031   5.865  2.1943 -0.7999 -1.3408
  323MOL0     H43555   6.446   7.996   5.764 -0.3619 -1.8841 -1.5040
  323MOL0     H43556   6.809   7.906   5.785 -0.9225 -2.3307 -0.3307
  323MOL0     H43557   6.958   7.756   5.517 -0.6954  0.4993 -4.6953
  323MOL0     H43558   6.964   7.906   5.437  2.2758 -1.0348  0.5823
  323MOL0     H43559   7.049   7.891   5.729  1.3934 -0.5273  1.0188
  323MOL0     H43560   7.039   8.025   5.616 -0.5873 -0.7038  1.2417
  323MOL0     H43561   7.229   7.873   5.487  0.2970  0.2128 -0.1551
  323MOL0     H43562   7.256   7.794   5.633  2.5763  0.4109  1.2223
  323MOL0     H43563   7.415   7.977   5.614 -0.0837 -0.5277 -0.6717
  323MOL0     H43564   7.313   8.023   5.744  4.3203 -2.1815  0.7955
  323MOL0     H43565   7.450   8.000   5.378  2.8738 -0.2914 -0.4690
  323MOL0     H43566   7.662   8.141   5.119  0.9559  2.7056  1.8019
  323MOL0     H43567   7.661   8.007   5.222  0.9726  0.2749 -0.2382
  323MOL0     H43568   7.523   8.024   5.117 -0.0346  0.1179  0.5272
  323MOL0     H43569   7.795   8.642   5.119  1.1218  1.3000  0.1484
  323MOL0     H43570   7.860   8.795   4.939  0.9275 -2.2857  0.8227
  323MOL0     H43571   7.899   8.867   4.637 -0.9294  0.6261 -4.4871
  323MOL0     H43572   7.842   8.691   4.682 -0.6302 -0.4559 -1.3049
  323MOL0     H43573   7.705   8.701   4.492  1.6533 -2.3256  2.8017
  323MOL0     H43574   7.757   8.870   4.454 -0.2999 -1.3074 -2.0674
  323MOL0     H43575   7.862   8.680   4.323 -0.1909  4.9373 -2.3842
  323MOL0     H43576   7.961   8.641   4.462  0.3095  1.1117  0.5399
  323MOL0     H43577   7.966   8.890   4.296  0.1342 -2.0716 -1.9998
  323MOL0     H43578   8.059   8.858   4.456 -1.2190 -0.4319  0.9909
  323MOL0     H43579   8.071   8.706   4.188 -0.1172  2.1668 -1.1243
  323MOL0     H43580   8.141   8.641   4.332 -1.7970 -0.1960  0.2263
  323MOL0     H43581   8.201   8.898   4.187  0.4812 -0.6415  0.4040
  323MOL0     H43582   8.259   8.868   4.350  1.6177  2.9294 -1.8379
  323MOL0     H43583   8.329   8.669   4.126  2.5593  0.6050 -1.6106
  323MOL0     H43584   8.405   8.687   4.294 -0.6298 -0.2321  0.3719
  323MOL0     H43585   8.444   8.836   4.031 -0.0963 -1.7262  0.7167
  323MOL0     H43586   8.563   8.791   4.156 -0.5692 -3.7469 -2.4772
  323MOL0     H43587   7.478   8.747   4.755 -1.7050 -0.7043  1.0594
  323MOL0     H43588   7.402   8.605   4.949  0.5556  1.2060 -0.7750
  323MOL0     H43589   7.437   8.491   5.372  2.1032  0.2405 -2.9992
  323MOL0     H43590   7.291   8.377   5.531 -0.2802  1.1087 -0.7489
  323MOL0     H43591   6.688   6.888   5.958 -0.3124 -3.2794  0.0228
  323MOL0     H43592   6.869   6.713   5.928 -0.4052 -1.0302  0.2564
  323MOL0     H43593   7.357   6.592   5.531 -2.8975 -2.3591 -0.6970
  323MOL0     H43594   7.564   6.472   5.598 -2.5776 -1.7328 -1.8431
  323MOL0     H43595   7.712   6.267   5.719 -2.0696  0.2325 -2.2078
  323MOL0     H43596   7.751   6.432   5.651  0.2474  2.4370  2.0979
  323MOL0     H43597   7.954   6.323   5.752 -2.4976 -4.5839  0.0215
  323MOL0     H43598   7.880   6.325   5.908  3.4368 -3.7471 -0.8266
  323MOL0     H43599   7.855   6.578   5.915  2.9918  0.8520  2.6742
  323MOL0     H43600   7.939   6.587   5.754 -0.7058  0.1396 -1.5434
  323MOL0     H43601   8.052   6.454   6.005  0.1397  0.3014 -0.1878
  323MOL0     H43602   8.090   6.626   5.959 -1.0417 -0.2047  3.1043
  323MOL0     H43603   8.336   6.394   5.704 -2.1450  0.6665 -2.3041
  323MOL0     H43604   7.470   6.492   6.011  1.4184 -2.3207  0.2826
  323MOL0     H43605   7.233   6.608   5.942 -2.0332 -1.8336 -1.3895
  324MOL0     O43606   2.571   4.511   9.587  0.7885  0.3832  0.8837
  324MOL0     C43607   2.628   4.494   9.473 -1.1076 -0.5172  0.4159
  324MOL0     O43608   2.764   4.506   9.452 -0.2987  0.4243 -0.0478
  324MOL0     C43609   2.847   4.562   9.552 -0.7139 -0.0436 -0.2805
  324MOL0     C43610   2.959   4.645   9.515 -0.1500 -0.1017 -0.0892
  324MOL0     C43611   3.054   4.681   9.605  0.5321 -0.8006  0.5976
  324MOL0     C43612   3.062   4.634   9.732 -0.0349 -0.0025 -0.6872
  324MOL0     O43613   3.155   4.661   9.830 -0.1738 -0.2594  0.2442
  324MOL0     C43614   3.251   4.769   9.817 -0.3045 -0.1060 -1.1097
  324MOL0     C43615   3.288   4.808   9.966  0.5892 -0.1596  0.1751
  324MOL0     C43616   3.413   4.733  10.007  0.1645 -1.1026 -0.8185
  324MOL0     C43617   3.452   4.779  10.153 -0.2576  0.3455 -0.9120
  324MOL0     C43618   3.594   4.742  10.194  0.3903  0.2316  0.5704
  324MOL0     C43619   3.710   4.833  10.126  0.0463  0.2235  0.8159
  324MOL0     C43620   3.845   4.795  10.181  0.1066  0.1955 -0.7237
  324MOL0     C43621   3.885   4.843  10.330 -0.2187  0.0205  1.2462
  324MOL0     N43622   3.899   4.989  10.333  0.4850  0.4166  0.0057
  324MOL0     C43623   3.995   5.057  10.254  0.1537  0.7446  0.5257
  324MOL0     C43624   3.973   5.181  10.298 -0.6189 -0.0413 -0.0620
  324MOL0     C43625   4.040   5.308  10.260  0.5795  0.1339 -0.4211
  324MOL0     C43626   4.100   5.304  10.110  0.9775  0.2572  0.0962
  324MOL0     C43627   3.986   5.302   9.996  0.1370 -0.1420 -0.1438
  324MOL0     C43628   4.048   5.274   9.871 -0.2393  0.9430  1.1913
  324MOL0     O43629   4.071   5.133   9.856  0.9498  0.6935 -1.0037
  324MOL0     C43630   4.021   5.081   9.742 -0.6644  0.7803  0.1537
  324MOL0     C43631   4.088   5.102   9.625 -0.5746 -0.7244 -0.1285
  324MOL0     C43632   4.041   5.044   9.501 -0.3592 -0.2352 -0.2626
  324MOL0     C43633   4.116   5.085   9.373  0.0394  0.5954 -0.1263
  324MOL0     C43634   3.922   4.976   9.497  1.4559  0.4154 -0.5385
  324MOL0     C43635   3.867   4.941   9.368 -0.0225  0.0962 -0.3071
  324MOL0     O43636   3.907   4.816   9.318  0.5344  0.3892  0.6296
  324MOL0     C43637   3.839   4.778   9.208 -0.0073  1.3489  0.4701
  324MOL0     C43638   3.707   4.727   9.222 -0.6309 -0.2691  0.6357
  324MOL0     C43639   3.643   4.673   9.107  0.5101  0.3877  0.2875
  324MOL0     C43640   3.710   4.665   8.982  0.6597  0.1392  0.4986
  324MOL0     O43641   3.639   4.607   8.886  0.2848  0.5106 -0.5803
  324MOL0     C43642   3.662   4.647   8.752  0.1433 -0.4644  0.4636
  324MOL0     C43643   3.709   4.519   8.674 -0.5141 -1.4041  0.5194
  324MOL0     C43644   3.599   4.416   8.659  0.0295 -0.3171 -0.0222
  324MOL0     C43645   3.491   4.459   8.555 -0.5807  0.6652  0.2047
  324MOL0     C43646   3.426   4.333   8.494 -0.2043  0.1024 -0.4732
  324MOL0     C43647   3.350   4.257   8.604  0.2226  1.1200 -0.4000
  324MOL0     C43648   3.257   4.154   8.545  0.2719 -0.8050  0.1573
  324MOL0     C43649   3.118   4.140   8.600  0.7110 -0.1088  0.1514
  324MOL0    Cl43650   3.024   4.291   8.564  0.0815  0.5313 -0.1122
  324MOL0     C43651   3.849   4.693   8.979  0.0699 -0.7020  0.1439
  324MOL0     C43652   3.913   4.763   9.081  0.5168  0.2129 -0.1611
  324MOL0     O43653   3.774   5.013   9.321 -0.0849  1.0246  0.7349
  324MOL0     C43654   3.850   4.964   9.620  0.1275  0.5397  1.1624
  324MOL0     C43655   3.910   5.008   9.741 -0.3582  0.5039  0.0695
  324MOL0     N43656   3.885   5.186  10.392  0.4134 -0.4269 -0.3453
  324MOL0     N43657   3.845   5.068  10.422 -0.0043  0.0984 -0.3417
  324MOL0     C43658   2.952   4.537   9.769 -0.1133 -1.2868  0.2603
  324MOL0     C43659   2.854   4.500   9.681  0.0412  0.1629  0.1573
  324MOL0     C43660   2.555   4.455   9.349 -0.0594  0.4061 -0.0405
  324MOL0     C43661   2.415   4.406   9.355 -0.0066  0.0975 -0.4464
  324MOL0     C43662   2.363   4.354   9.240 -0.0273 -0.4530  0.4440
  324MOL0     C43663   2.429   4.342   9.118 -0.5304 -0.1619  0.8531
  324MOL0     O43664   2.369   4.276   9.013  0.5821 -0.7744 -0.0498
  324MOL0     C43665   2.449   4.238   8.895 -0.4420  0.1810 -0.4923
  324MOL0     C43666   2.376   4.166   8.788  0.3700 -0.0362 -0.2464
  324MOL0     C43667   2.361   4.245   8.653  0.2978 -0.1399  0.3236
  324MOL0     C43668   2.273   4.173   8.548  0.6345 -0.5881 -0.0184
  324MOL0     C43669   2.330   4.050   8.494 -0.6577 -0.8277 -0.1846
  324MOL0     C43670   2.391   3.949   8.462 -0.5241 -0.8481  0.3247
  324MOL0     C43671   2.554   4.405   9.113 -0.1801 -0.3984  0.3962
  324MOL0     C43672   2.620   4.459   9.223  0.4318 -0.1658  0.4930
  324MOL0     H43673   2.967   4.691   9.417 -1.2741  1.0289  0.3077
  324MOL0     H43674   3.135   4.749   9.578  1.4093 -3.0440 -3.0635
  324MOL0     H43675   3.336   4.722   9.766 -0.4225 -2.3987  0.6207
  324MOL0     H43676   3.212   4.862   9.776  1.0182 -0.4390 -3.3060
  324MOL0     H43677   3.314   4.914   9.977 -1.8190  0.5337 -0.1771
  324MOL0     H43678   3.214   4.777  10.040  0.8827  2.9104  1.8957
  324MOL0     H43679   3.408   4.626   9.989  1.9081 -1.4682  0.5619
  324MOL0     H43680   3.480   4.772   9.930 -3.6763 -0.3986 -4.1380
  324MOL0     H43681   3.456   4.889  10.152 -0.4396  0.3840 -3.6771
  324MOL0     H43682   3.383   4.743  10.229 -0.2335 -0.6219 -1.3454
  324MOL0     H43683   3.604   4.762  10.301 -1.6661  1.1593  0.6287
  324MOL0     H43684   3.612   4.636  10.171  0.5331  0.8689 -2.9223
  324MOL0     H43685   3.715   4.798  10.023 -1.6321  1.0414  0.4106
  324MOL0     H43686   3.693   4.941  10.128  1.2788  0.4205  1.3378
  324MOL0     H43687   3.854   4.686  10.190 -0.6536  0.2878  2.1273
  324MOL0     H43688   3.920   4.837  10.113  1.4033  2.4551  1.8536
  324MOL0     H43689   3.983   4.796  10.342  0.0301  0.0443 -0.4596
  324MOL0     H43690   3.797   4.811  10.387 -2.1914  3.3524  0.3248
  324MOL0     H43691   4.057   5.035  10.168  0.3724  5.6924 -0.9095
  324MOL0     H43692   3.977   5.398  10.267 -0.8789 -0.7550 -1.5725
  324MOL0     H43693   4.120   5.323  10.333  2.3724 -3.0815 -1.5648
  324MOL0     H43694   4.167   5.220  10.088  1.5033  0.7459 -0.2054
  324MOL0     H43695   4.159   5.396  10.111 -0.0152  0.9237  1.5669
  324MOL0     H43696   3.932   5.397  10.005 -0.2473 -0.5754  3.1389
  324MOL0     H43697   3.910   5.226  10.016  1.8469 -1.7799  0.4218
  324MOL0     H43698   4.143   5.324   9.850  0.0762  0.5504  1.6572
  324MOL0     H43699   3.973   5.311   9.801  2.3590  1.6822 -1.3912
  324MOL0     H43700   4.183   5.154   9.617 -1.3451  0.7355 -0.1617
  324MOL0     H43701   4.135   4.994   9.314 -3.9683 -0.1181 -0.6381
  324MOL0     H43702   4.051   5.147   9.309  0.8731  2.5880  0.8888
  324MOL0     H43703   4.209   5.140   9.384  0.6086  0.7029 -4.0669
  324MOL0     H43704   3.658   4.728   9.319 -0.4481  0.1006  0.7296
  324MOL0     H43705   3.540   4.643   9.122  0.5303  1.3820  3.0860
  324MOL0     H43706   3.576   4.691   8.701  1.1090 -1.7007 -2.4099
  324MOL0     H43707   3.745   4.718   8.755 -0.7109  0.5319  1.1193
  324MOL0     H43708   3.739   4.548   8.573 -2.8441 -0.8711 -0.0722
  324MOL0     H43709   3.790   4.471   8.731 -0.5584 -0.0299  1.7855
  324MOL0     H43710   3.551   4.407   8.757  3.4921  0.4299  1.9189
  324MOL0     H43711   3.648   4.322   8.632 -0.0593 -0.4240  0.1972
  324MOL0     H43712   3.413   4.523   8.598 -0.7115  1.2460 -0.8549
  324MOL0     H43713   3.533   4.518   8.473 -0.4457 -1.1236 -1.0632
  324MOL0     H43714   3.512   4.276   8.459 -0.0062 -0.9523  1.5628
  324MOL0     H43715   3.354   4.367   8.419 -2.0334  1.0176  1.5691
  324MOL0     H43716   3.405   4.200   8.680 -0.2888  2.4301  1.0150
  324MOL0     H43717   3.297   4.337   8.657 -0.6111 -0.8345  1.8721
  324MOL0     H43718   3.305   4.056   8.550 -2.8399 -2.4061  1.9804
  324MOL0     H43719   3.225   4.188   8.446  0.7805  2.8922  1.0868
  324MOL0     H43720   3.117   4.134   8.709  1.9020  2.6744  0.4166
  324MOL0     H43721   3.079   4.045   8.565  1.7016 -0.9555  1.2741
  324MOL0     H43722   3.909   4.689   8.888 -2.8957 -4.1877 -1.9470
  324MOL0     H43723   4.013   4.791   9.049  0.1023 -0.1735 -1.9444
  324MOL0     H43724   3.758   4.907   9.625  0.6585 -0.4621  0.1111
  324MOL0     H43725   3.853   4.995   9.832 -3.5084 -0.0675 -1.8601
  324MOL0     H43726   2.960   4.485   9.864 -3.6396 -0.9035  0.9062
  324MOL0     H43727   2.786   4.421   9.712 -3.0891  2.2553 -0.8234
  324MOL0     H43728   2.365   4.400   9.451  1.6788  2.1409  0.6167
  324MOL0     H43729   2.264   4.311   9.251 -0.0901 -0.2713  0.5858
  324MOL0     H43730   2.487   4.327   8.846  2.5029 -0.0127  1.2058
  324MOL0     H43731   2.525   4.163   8.920 -1.8264 -1.6473 -1.4451
  324MOL0     H43732   2.291   4.110   8.827  0.5103  1.3740  2.2569
  324MOL0     H43733   2.435   4.081   8.752 -1.9750 -1.4702 -0.9284
  324MOL0     H43734   2.461   4.250   8.610 -0.0361 -0.4361 -0.5090
  324MOL0     H43735   2.335   4.349   8.676 -1.2768  0.0407 -1.9380
  324MOL0     H43736   2.249   4.235   8.461  1.0810 -2.3394 -1.4443
  324MOL0     H43737   2.182   4.141   8.600  1.7977 -1.5708  1.4957
  324MOL0     H43738   2.441   3.861   8.427 -0.8815 -0.2707 -1.7947
  324MOL0     H43739   2.605   4.401   9.017 -0.6877  0.7649  0.0642
  324MOL0     H43740   2.722   4.493   9.214  0.2650  0.4126  0.7268
  325MOL0     O43741   8.182  11.348   2.449  1.3136 -0.4654  0.2177
  325MOL0     C43742   8.301  11.339   2.450 -0.4579 -0.5683 -0.5944
  325MOL0     O43743   8.381  11.312   2.341  0.2264  0.6785  0.5391
  325MOL0     C43744   8.322  11.254   2.234  0.3756  0.2256  0.1946
  325MOL0     C43745   8.335  11.310   2.106  0.5064 -0.1035  0.0446
  325MOL0     C43746   8.276  11.239   1.989 -0.3390 -0.1713  0.0869
  325MOL0     C43747   8.237  11.109   2.000  1.0550 -0.2315 -0.4651
  325MOL0     O43748   8.198  11.024   1.901 -0.4056 -0.8205 -0.1922
  325MOL0     C43749   8.159  11.068   1.777 -0.1959  0.3602  1.2138
  325MOL0     C43750   8.053  10.978   1.712  0.5114 -0.0231  0.0218
  325MOL0     C43751   7.916  11.000   1.774 -0.9394  0.1379 -0.3905
  325MOL0     C43752   7.789  11.025   1.680  0.1348  0.2325 -0.2945
  325MOL0     C43753   7.786  11.151   1.605 -0.4859 -0.4546  0.6904
  325MOL0     C43754   7.730  11.271   1.682 -0.1893 -0.5140 -0.0277
  325MOL0     C43755   7.827  11.383   1.725 -1.0705  0.4671 -0.2748
  325MOL0     C43756   7.896  11.459   1.609 -0.4744  0.4216  0.1463
  325MOL0     N43757   7.914  11.595   1.656  0.3981  0.0612 -0.0765
  325MOL0     C43758   7.845  11.698   1.591  0.5570  1.5443 -0.5289
  325MOL0     C43759   7.861  11.801   1.671  0.4753  0.0607  0.2727
  325MOL0     C43760   7.783  11.933   1.649 -0.2424 -0.1585 -0.0823
  325MOL0     C43761   7.876  12.051   1.691  0.2634 -0.2513 -0.0664
  325MOL0     C43762   7.789  12.183   1.711  0.1939 -0.2766  0.0394
  325MOL0     C43763   7.676  12.159   1.820 -0.1095  0.2126  0.1901
  325MOL0     O43764   7.649  12.291   1.877 -0.4797 -0.0254 -0.5605
  325MOL0     C43765   7.597  12.380   1.787 -0.3575 -0.2078 -0.1301
  325MOL0     C43766   7.623  12.511   1.815  0.3511 -0.6719 -0.7778
  325MOL0     C43767   7.573  12.624   1.747  0.4747  0.8492  0.5763
  325MOL0     C43768   7.627  12.758   1.796  0.5719  0.0939 -0.6889
  325MOL0     C43769   7.468  12.599   1.650 -0.2059 -0.4572  1.0489
  325MOL0     C43770   7.400  12.704   1.564  0.6309  0.0633 -0.4031
  325MOL0     O43771   7.403  12.839   1.608 -0.2360 -0.4919 -0.1605
  325MOL0     C43772   7.381  12.947   1.520 -0.1181  0.1741 -0.3484
  325MOL0     C43773   7.416  13.057   1.587  0.0116 -0.2922 -0.0363
  325MOL0     C43774   7.390  13.180   1.526 -0.6393  1.1776  0.9551
  325MOL0     C43775   7.339  13.194   1.397 -0.9313 -0.3533 -0.1969
  325MOL0     O43776   7.313  13.322   1.355 -0.1536  0.0958  0.2612
  325MOL0     C43777   7.228  13.349   1.245 -0.3132 -0.3861 -0.8727
  325MOL0     C43778   7.199  13.503   1.243  0.2159  0.5918  0.6767
  325MOL0     C43779   7.182  13.576   1.375  0.7588 -0.7487 -0.2417
  325MOL0     C43780   7.225  13.729   1.382 -0.4808 -0.4749 -0.7929
  325MOL0     C43781   7.228  13.785   1.519  0.2656  0.1856  0.6574
  325MOL0     C43782   7.084  13.824   1.580 -0.3096 -0.8850  0.3299
  325MOL0     C43783   7.101  13.849   1.733  1.1306 -0.4810  0.0901
  325MOL0     C43784   6.963  13.904   1.783 -0.5003  0.2330 -0.3113
  325MOL0    Cl43785   6.966  13.889   1.962  0.4011  0.9787  0.0501
  325MOL0     C43786   7.293  13.075   1.337 -0.0143 -0.9777 -0.1461
  325MOL0     C43787   7.316  12.947   1.393  0.2956  0.5857 -0.6429
  325MOL0     O43788   7.337  12.655   1.466 -0.2275 -0.3321  0.4422
  325MOL0     C43789   7.442  12.458   1.616 -0.1448  0.3335 -1.0028
  325MOL0     C43790   7.513  12.357   1.684  1.2770 -1.2499 -0.2488
  325MOL0     N43791   7.942  11.759   1.776  1.1514 -0.8146  0.0421
  325MOL0     N43792   7.976  11.635   1.766 -0.3188  0.2847 -0.5969
  325MOL0     C43793   8.231  11.049   2.131 -0.3948 -0.3632 -0.1133
  325MOL0     C43794   8.259  11.123   2.246 -1.2466 -0.5231 -0.6848
  325MOL0     C43795   8.360  11.330   2.588  0.1861  0.2516  0.6242
  325MOL0     C43796   8.293  11.372   2.696  0.6283 -0.7848 -0.9806
  325MOL0     C43797   8.353  11.363   2.826  0.1728 -0.4338  0.1757
  325MOL0     C43798   8.487  11.312   2.844 -0.3159  0.1438 -0.1278
  325MOL0     O43799   8.553  11.311   2.965 -0.0536  0.4962  1.2418
  325MOL0     C43800   8.632  11.195   2.988 -0.4340 -0.0926 -0.0841
  325MOL0     C43801   8.549  11.066   3.003  0.8268  0.0952  0.3568
  325MOL0     C43802   8.653  10.956   3.044  0.0574 -0.9021  0.0053
  325MOL0     C43803   8.577  10.831   3.073  0.2790  0.6090  0.4626
  325MOL0     C43804   8.669  10.732   3.125  0.8293 -0.6542 -0.5389
  325MOL0     C43805   8.737  10.638   3.146  0.2469 -0.4267 -0.3838
  325MOL0     C43806   8.546  11.266   2.728 -0.5129 -0.5184  0.2759
  325MOL0     C43807   8.493  11.278   2.595 -0.2677  0.4687  0.2258
  325MOL0     H43808   8.380  11.407   2.091  1.1507 -0.4000  0.0321
  325MOL0     H43809   8.282  11.279   1.889  1.6117 -0.8632 -0.1038
  325MOL0     H43810   8.119  11.169   1.766  1.3983  0.8854 -0.2559
  325MOL0     H43811   8.238  11.043   1.705 -0.9293  1.4758 -0.0042
  325MOL0     H43812   8.039  11.016   1.611 -4.8197  0.7985  0.7747
  325MOL0     H43813   8.089  10.874   1.712  1.8119  0.3947 -0.9999
  325MOL0     H43814   7.906  10.898   1.814  1.8665  0.1262  0.4973
  325MOL0     H43815   7.912  11.083   1.845 -2.9024 -0.2163 -0.0111
  325MOL0     H43816   7.785  10.935   1.618 -1.5339  0.4075 -0.4993
  325MOL0     H43817   7.701  11.035   1.744  0.6025 -0.5366  0.4902
  325MOL0     H43818   7.883  11.189   1.573 -1.0946  0.1969 -0.4617
  325MOL0     H43819   7.717  11.145   1.520 -0.6896  3.5636  0.3862
  325MOL0     H43820   7.654  11.315   1.617 -1.2119  0.8004  1.9374
  325MOL0     H43821   7.682  11.240   1.775  2.8865 -3.5624  0.7463
  325MOL0     H43822   7.758  11.457   1.766  0.1444  1.0132  0.8586
  325MOL0     H43823   7.897  11.352   1.803 -2.6645  0.7377  1.3399
  325MOL0     H43824   7.833  11.461   1.520  0.1892  0.9358 -0.3232
  325MOL0     H43825   7.997  11.424   1.587 -0.6912  1.1267 -2.1994
  325MOL0     H43826   7.774  11.673   1.513  0.6717 -3.4523  0.6795
  325MOL0     H43827   7.747  11.946   1.546 -2.5083 -0.9483  0.5511
  325MOL0     H43828   7.695  11.918   1.711 -1.7019 -1.0915 -2.2676
  325MOL0     H43829   7.949  12.068   1.611 -0.7079 -1.1272 -1.1685
  325MOL0     H43830   7.933  12.044   1.784 -0.6270 -1.5476  0.4161
  325MOL0     H43831   7.746  12.217   1.616  0.9590 -0.9698 -0.5802
  325MOL0     H43832   7.867  12.257   1.731  0.1378  1.4119 -4.6174
  325MOL0     H43833   7.715  12.107   1.908  0.3702 -1.9234 -1.2120
  325MOL0     H43834   7.590  12.106   1.779 -0.8225  1.4961 -0.0322
  325MOL0     H43835   7.681  12.542   1.901 -2.5887  1.4013  0.6482
  325MOL0     H43836   7.573  12.764   1.891  1.9046 -1.0033  0.1828
  325MOL0     H43837   7.730  12.748   1.832 -0.7658 -2.9135  3.0832
  325MOL0     H43838   7.610  12.847   1.734  2.4664  1.3043  0.4012
  325MOL0     H43839   7.457  13.050   1.687  2.8929 -0.8715 -1.1505
  325MOL0     H43840   7.413  13.270   1.582  0.5515  0.0981  2.2661
  325MOL0     H43841   7.281  13.312   1.157 -0.4394  1.5772 -1.8306
  325MOL0     H43842   7.132  13.296   1.250  0.5347 -1.8687  0.9361
  325MOL0     H43843   7.285  13.549   1.193  0.4420 -0.9250 -0.3984
  325MOL0     H43844   7.111  13.523   1.181 -0.1922  2.6039  1.8277
  325MOL0     H43845   7.245  13.520   1.445  1.2149 -0.4333 -0.3910
  325MOL0     H43846   7.077  13.560   1.401  1.3224 -1.1477  2.0380
  325MOL0     H43847   7.321  13.758   1.338 -0.4315  1.9775  0.7647
  325MOL0     H43848   7.149  13.779   1.322 -1.8661 -1.9704 -0.3790
  325MOL0     H43849   7.292  13.874   1.523 -1.0356  1.2859 -1.3072
  325MOL0     H43850   7.266  13.708   1.586 -1.7792 -2.4178 -0.9828
  325MOL0     H43851   7.044  13.916   1.536  2.5490  0.1595 -0.3412
  325MOL0     H43852   7.010  13.746   1.564 -0.6904 -0.3696 -0.5023
  325MOL0     H43853   7.193  13.907   1.748  0.8551  0.3017 -1.0781
  325MOL0     H43854   7.133  13.755   1.780  2.5570  0.2285  0.6182
  325MOL0     H43855   6.871  13.856   1.748 -2.0410 -0.1340  3.7218
  325MOL0     H43856   6.955  14.008   1.750 -1.2990 -0.0959 -1.2014
  325MOL0     H43857   7.239  13.083   1.243 -1.0485  0.9964  0.5534
  325MOL0     H43858   7.279  12.854   1.352  0.9196 -1.6235  3.2449
  325MOL0     H43859   7.375  12.433   1.535  0.8632 -0.8119 -1.5129
  325MOL0     H43860   7.481  12.254   1.670 -2.5385 -0.3541  0.7129
  325MOL0     H43861   8.193  10.948   2.143  0.0513 -0.3073  2.1004
  325MOL0     H43862   8.236  11.100   2.350  1.3957 -2.3451 -0.3946
  325MOL0     H43863   8.192  11.412   2.686 -1.1460 -4.2965  0.9629
  325MOL0     H43864   8.291  11.397   2.908 -0.2237 -1.5861  0.3756
  325MOL0     H43865   8.715  11.194   2.917  0.2242  0.8776  0.6422
  325MOL0     H43866   8.679  11.205   3.087 -2.2429  1.5130  0.6685
  325MOL0     H43867   8.492  11.031   2.916  1.4976 -2.6600  0.9253
  325MOL0     H43868   8.473  11.081   3.081 -1.3360  1.9758 -1.9520
  325MOL0     H43869   8.694  10.978   3.143 -0.0718  0.5188 -0.2485
  325MOL0     H43870   8.735  10.947   2.973 -0.9731 -1.8223 -1.1087
  325MOL0     H43871   8.536  10.776   2.988 -2.8581 -2.2236  3.5044
  325MOL0     H43872   8.490  10.845   3.137 -1.5237 -0.6734 -1.5468
  325MOL0     H43873   8.812  10.572   3.186 -0.2281 -0.0655  1.1831
  325MOL0     H43874   8.648  11.229   2.730 -0.5375 -0.6001  2.2133
  325MOL0     H43875   8.547  11.234   2.512 -0.7869  1.2020 -0.5306
  326MOL0     O43876   1.161   9.580   2.946 -0.3244  0.5781  0.0278
  326MOL0     C43877   1.216   9.521   3.045  0.0497 -0.7508  0.3175
  326MOL0     O43878   1.258   9.390   3.047 -0.3313 -0.0519 -0.3104
  326MOL0     C43879   1.228   9.310   2.941 -0.6382  0.5279  1.4016
  326MOL0     C43880   1.130   9.213   2.941  0.9975 -0.3705  0.3613
  326MOL0     C43881   1.106   9.129   2.830 -0.0215  0.6222  0.1840
  326MOL0     C43882   1.192   9.142   2.722  0.8591 -0.1908 -0.4666
  326MOL0     O43883   1.198   9.060   2.612 -0.0396 -0.4205  0.0862
  326MOL0     C43884   1.116   8.945   2.615 -0.5039  0.3567 -0.1839
  326MOL0     C43885   1.154   8.864   2.492 -0.4845  0.1018  0.4913
  326MOL0     C43886   1.303   8.803   2.490 -0.1983 -0.2392 -0.3605
  326MOL0     C43887   1.316   8.664   2.422 -1.0490  0.3144 -0.6491
  326MOL0     C43888   1.463   8.618   2.417 -0.0590 -0.1402 -0.2808
  326MOL0     C43889   1.473   8.487   2.339  0.3274  0.6127  0.1268
  326MOL0     C43890   1.626   8.453   2.329 -0.3933 -0.0777 -1.0453
  326MOL0     C43891   1.670   8.336   2.232 -0.0389 -0.0368 -0.3130
  326MOL0     N43892   1.623   8.334   2.100  0.2331 -0.3460 -0.2570
  326MOL0     C43893   1.701   8.366   1.993 -0.4668 -0.1472 -0.4515
  326MOL0     C43894   1.627   8.360   1.885  0.1794  0.5597  0.6000
  326MOL0     C43895   1.680   8.376   1.746 -0.3373  0.0626  0.7920
  326MOL0     C43896   1.591   8.465   1.661 -0.9062  0.2332 -0.4621
  326MOL0     C43897   1.594   8.610   1.703  0.3410  0.0580  0.2912
  326MOL0     C43898   1.485   8.691   1.623  0.1977 -0.3684  0.9452
  326MOL0     O43899   1.508   8.838   1.644 -0.3394  0.2980  0.2096
  326MOL0     C43900   1.434   8.903   1.743  0.9556 -0.1013  0.4403
  326MOL0     C43901   1.351   9.012   1.708 -0.4100 -0.1264  0.0787
  326MOL0     C43902   1.265   9.082   1.809  0.2246 -0.5477  0.9695
  326MOL0     C43903   1.171   9.183   1.756 -0.5563  0.6784 -1.0769
  326MOL0     C43904   1.264   9.042   1.947 -0.3592  0.1716 -0.1275
  326MOL0     C43905   1.179   9.095   2.054 -0.1501 -0.2672  0.0953
  326MOL0     O43906   1.078   9.187   2.034 -0.8402 -0.0682 -0.4296
  326MOL0     C43907   1.035   9.251   2.139  0.1995  0.6839 -0.0999
  326MOL0     C43908   0.935   9.195   2.216 -0.8247 -0.5605  0.0242
  326MOL0     C43909   0.885   9.272   2.325  0.9117 -0.4411  0.3483
  326MOL0     C43910   0.938   9.405   2.347  0.0292 -0.4939 -1.1182
  326MOL0     O43911   0.886   9.495   2.437 -0.6545  0.2088 -0.4296
  326MOL0     C43912   0.866   9.454   2.572 -0.1872  0.4857  0.0984
  326MOL0     C43913   0.804   9.558   2.657 -0.1549 -0.6943 -0.5963
  326MOL0     C43914   0.811   9.516   2.798 -0.6788  0.2182 -0.6948
  326MOL0     C43915   0.705   9.598   2.880  0.7793 -0.2053 -0.3530
  326MOL0     C43916   0.753   9.745   2.879 -0.5529 -0.0315  0.2480
  326MOL0     C43917   0.659   9.844   2.941  0.1532  0.8369 -0.3313
  326MOL0     C43918   0.731   9.986   2.955  0.3351  0.2353  0.1736
  326MOL0     C43919   0.678  10.064   3.073 -0.7483 -0.1704  0.8912
  326MOL0    Cl43920   0.507  10.109   3.057 -0.5681  0.8572 -0.1391
  326MOL0     C43921   1.035   9.458   2.267 -0.0925  0.0472 -0.7263
  326MOL0     C43922   1.082   9.377   2.167 -1.0107 -0.1069 -0.1521
  326MOL0     O43923   1.210   9.059   2.166  0.4964  0.3929  0.2577
  326MOL0     C43924   1.355   8.936   1.978 -0.8305  0.5821 -0.4721
  326MOL0     C43925   1.444   8.872   1.888  0.2201 -1.6865 -0.0957
  326MOL0     N43926   1.490   8.343   1.929 -1.2751 -0.3649  0.2699
  326MOL0     N43927   1.492   8.331   2.061 -0.2343  0.2580  0.3731
  326MOL0     C43928   1.293   9.239   2.716  0.0019  0.1167  0.7879
  326MOL0     C43929   1.309   9.326   2.822  0.9361 -0.4396  0.4221
  326MOL0     C43930   1.233   9.596   3.171  0.4776  0.8698 -0.0212
  326MOL0     C43931   1.339   9.566   3.248 -0.2494  0.1457 -0.6347
  326MOL0     C43932   1.355   9.624   3.373 -0.0548 -1.0130  0.7441
  326MOL0     C43933   1.270   9.719   3.421  0.2406 -0.1397  0.0091
  326MOL0     O43934   1.293   9.783   3.545 -0.2233  0.2338  0.1761
  326MOL0     C43935   1.311   9.930   3.539 -0.0743 -0.4746 -0.1829
  326MOL0     C43936   1.358   9.995   3.670 -0.8268  0.5917  0.6345
  326MOL0     C43937   1.245  10.007   3.771  0.3097 -0.7533 -0.3473
  326MOL0     C43938   1.282  10.099   3.891  0.3390  0.2372  1.0093
  326MOL0     C43939   1.384  10.026   3.973  0.7274  0.8041 -0.0078
  326MOL0     C43940   1.462   9.962   4.035  0.3578 -0.2107 -0.2329
  326MOL0     C43941   1.161   9.754   3.342  0.1087  0.5612  0.2807
  326MOL0     C43942   1.156   9.701   3.217  0.6333 -0.0545 -0.2577
  326MOL0     H43943   1.065   9.199   3.027 -0.2956  2.1976 -0.1092
  326MOL0     H43944   1.035   9.047   2.834  3.7371 -3.0069 -0.7514
  326MOL0     H43945   1.131   8.897   2.713  0.3292 -1.0216 -0.9609
  326MOL0     H43946   1.009   8.961   2.600 -1.0799 -3.2308 -0.7957
  326MOL0     H43947   1.077   8.787   2.490  0.8943 -1.3525  0.9491
  326MOL0     H43948   1.149   8.929   2.404 -0.7807 -0.1863  0.2926
  326MOL0     H43949   1.377   8.871   2.447 -2.3154  1.7114 -1.1106
  326MOL0     H43950   1.320   8.792   2.598 -1.6883  0.3588 -0.0494
  326MOL0     H43951   1.260   8.591   2.481  0.4053 -1.0100 -0.8415
  326MOL0     H43952   1.271   8.653   2.323 -2.3878  0.3885 -0.0687
  326MOL0     H43953   1.528   8.692   2.370  1.2077 -2.4491 -2.4455
  326MOL0     H43954   1.506   8.603   2.516  1.1004  0.0888 -0.7366
  326MOL0     H43955   1.425   8.410   2.399 -1.5326  1.8118  0.2512
  326MOL0     H43956   1.424   8.500   2.242  0.7990 -1.0733 -0.3801
  326MOL0     H43957   1.688   8.535   2.292  2.0044 -1.6548 -0.7397
  326MOL0     H43958   1.656   8.423   2.430 -0.5051 -2.0601 -1.5448
  326MOL0     H43959   1.625   8.246   2.275  0.0226  0.2429  0.3520
  326MOL0     H43960   1.778   8.323   2.246 -0.2999  0.6518  3.7701
  326MOL0     H43961   1.805   8.396   1.989 -0.3503 -0.5471 -0.4963
  326MOL0     H43962   1.781   8.417   1.753  1.0322 -2.0154 -3.3944
  326MOL0     H43963   1.684   8.273   1.710  0.4480 -0.6734  2.8114
  326MOL0     H43964   1.489   8.426   1.672 -1.1303  0.9151 -0.0690
  326MOL0     H43965   1.614   8.452   1.555 -0.8812  1.6425 -0.6444
  326MOL0     H43966   1.693   8.657   1.701  0.6129 -0.5319 -0.4003
  326MOL0     H43967   1.572   8.622   1.810  0.3366  1.2767  0.1699
  326MOL0     H43968   1.386   8.657   1.656 -1.3552 -0.2564 -3.0671
  326MOL0     H43969   1.499   8.670   1.517 -0.5274 -0.1706  0.8064
  326MOL0     H43970   1.361   9.033   1.602  0.0169  1.2738  0.3684
  326MOL0     H43971   1.167   9.184   1.647 -4.6131 -0.3499 -1.1136
  326MOL0     H43972   1.067   9.168   1.789  0.5195 -0.5468  2.1257
  326MOL0     H43973   1.201   9.278   1.802 -0.0094 -1.1343  2.6810
  326MOL0     H43974   0.900   9.093   2.202 -1.0331 -0.4988  0.0878
  326MOL0     H43975   0.795   9.239   2.377  1.0833  0.7380  1.4559
  326MOL0     H43976   0.805   9.363   2.569  1.0400 -0.3393 -1.5113
  326MOL0     H43977   0.950   9.410   2.626 -3.2953 -1.7015  3.6501
  326MOL0     H43978   0.866   9.648   2.649 -0.7422 -0.0338  1.4736
  326MOL0     H43979   0.707   9.587   2.615  0.4306 -0.7522 -2.0091
  326MOL0     H43980   0.911   9.535   2.837 -0.0527  0.4120 -2.2960
  326MOL0     H43981   0.799   9.412   2.830 -3.3155  1.4248  2.8702
  326MOL0     H43982   0.600   9.595   2.851  1.1620  0.5541 -1.9260
  326MOL0     H43983   0.716   9.559   2.982  2.0888 -0.2755 -0.5013
  326MOL0     H43984   0.790   9.781   2.783  1.0078 -1.6252  0.2242
  326MOL0     H43985   0.837   9.743   2.949 -0.5156  2.8214  0.4201
  326MOL0     H43986   0.566   9.840   2.884 -0.1078 -2.5507  0.1184
  326MOL0     H43987   0.653   9.805   3.043 -0.9251 -0.5047 -0.8751
  326MOL0     H43988   0.738  10.040   2.861  0.5440 -3.4068 -2.0958
  326MOL0     H43989   0.833   9.961   2.984  0.5757  1.6645  0.6257
  326MOL0     H43990   0.749  10.147   3.078  2.7212 -2.7047 -1.2236
  326MOL0     H43991   0.672  10.006   3.165 -3.2551  0.2840  1.0809
  326MOL0     H43992   1.068   9.560   2.284 -0.0697 -0.0028 -0.4489
  326MOL0     H43993   1.166   9.413   2.108  0.2275 -2.7312 -0.0939
  326MOL0     H43994   1.367   8.907   2.081  3.0144  4.5396  0.4809
  326MOL0     H43995   1.514   8.792   1.910  1.0417 -1.6849 -2.3887
  326MOL0     H43996   1.359   9.254   2.632  2.7585 -0.7618  2.6735
  326MOL0     H43997   1.372   9.414   2.815 -0.1628  0.3262 -0.2116
  326MOL0     H43998   1.421   9.508   3.208 -1.4615 -2.1750  0.0454
  326MOL0     H43999   1.440   9.593   3.432  1.8861  2.4336  0.0510
  326MOL0     H44000   1.381   9.955   3.459  0.3782  0.1796  0.4033
  326MOL0     H44001   1.212   9.972   3.519 -0.1085 -1.0790 -1.3662
  326MOL0     H44002   1.395  10.092   3.635  3.5654 -1.7804 -2.1415
  326MOL0     H44003   1.440   9.941   3.717 -2.0452 -0.7108  1.3600
  326MOL0     H44004   1.233   9.908   3.817  1.7479 -0.1798  1.3811
  326MOL0     H44005   1.161  10.051   3.716  1.3987  0.3750 -1.1264
  326MOL0     H44006   1.183  10.115   3.935 -1.1030 -2.8666 -0.7419
  326MOL0     H44007   1.336  10.188   3.858  2.1484 -1.4521 -0.9541
  326MOL0     H44008   1.535   9.916   4.099  1.0352  4.0348  2.4036
  326MOL0     H44009   1.094   9.832   3.376  0.6500  1.5146 -0.7715
  326MOL0     H44010   1.082   9.735   3.145 -0.5071 -1.3278  0.2748
  327MOL0     O44011   5.327   4.731   9.678  0.2020  0.4067 -0.4007
  327MOL0     C44012   5.360   4.681   9.566  0.2795  0.3824  0.0131
  327MOL0     O44013   5.488   4.669   9.523  0.2554  0.2505  0.3495
  327MOL0     C44014   5.587   4.741   9.582  0.3664 -0.3611 -0.2335
  327MOL0     C44015   5.562   4.864   9.650  0.2764  0.4788  0.3708
  327MOL0     C44016   5.664   4.921   9.720  0.4150  0.3349 -0.5935
  327MOL0     C44017   5.796   4.866   9.712 -0.4756 -0.0216 -0.3258
  327MOL0     O44018   5.892   4.951   9.771 -0.1399  1.0346  0.6276
  327MOL0     C44019   6.014   4.882   9.810 -0.4566  0.2045  0.4574
  327MOL0     C44020   6.092   4.953   9.920 -0.1242 -0.4028 -0.8698
  327MOL0     C44021   6.014   4.946  10.058  0.1719 -0.0585 -0.2849
  327MOL0     C44022   5.962   4.799  10.072 -0.7950 -0.1422  0.5027
  327MOL0     C44023   5.964   4.778  10.222 -0.3598  0.4908  0.8497
  327MOL0     C44024   5.905   4.643  10.272 -0.7505  1.1272 -0.6701
  327MOL0     C44025   5.805   4.580  10.186 -0.1155  1.0734 -0.1392
  327MOL0     C44026   5.738   4.453  10.239  0.6408  0.1247  0.6275
  327MOL0     N44027   5.817   4.364  10.321  0.2568 -0.1851  0.2383
  327MOL0     C44028   5.937   4.296  10.295 -0.2388  0.2156 -0.0927
  327MOL0     C44029   5.961   4.219  10.408 -0.4798 -0.0974  0.8395
  327MOL0     C44030   6.075   4.113  10.426  0.8238 -0.6734  0.7553
  327MOL0     C44031   6.206   4.176  10.484 -0.1635 -0.4921  0.5308
  327MOL0     C44032   6.298   4.254  10.397 -0.1194 -0.0817 -0.4740
  327MOL0     C44033   6.420   4.316  10.482 -0.1586  0.8076 -0.3582
  327MOL0     O44034   6.505   4.375  10.388 -0.4778  0.7881 -0.1171
  327MOL0     C44035   6.605   4.453  10.438 -1.0485  0.8052  0.4920
  327MOL0     C44036   6.666   4.544  10.342  0.0020 -0.4732  0.6588
  327MOL0     C44037   6.772   4.633  10.378  1.4361  0.0697  0.5172
  327MOL0     C44038   6.807   4.736  10.276 -0.5172 -0.1617  0.6314
  327MOL0     C44039   6.823   4.620  10.500  0.2507  1.0563 -0.7764
  327MOL0     C44040   6.951   4.681  10.536  0.5705 -0.0912  0.2878
  327MOL0     O44041   6.960   4.723  10.664 -0.1771  0.0816 -0.2880
  327MOL0     C44042   7.068   4.812  10.686 -0.3351 -0.4411  0.5453
  327MOL0     C44043   7.072   4.952  10.643 -0.0251 -0.1835  0.0084
  327MOL0     C44044   7.177   5.040  10.678  0.2145  0.0209 -0.2031
  327MOL0     C44045   7.292   4.997  10.741 -0.0183  0.7798  0.2012
  327MOL0     O44046   7.397   5.086  10.754  0.3746  0.1973 -0.4105
  327MOL0     C44047   7.521   5.039  10.813 -0.6693  0.3774 -0.3108
  327MOL0     C44048   7.618   5.161  10.814  1.2653 -0.0718  0.5161
  327MOL0     C44049   7.757   5.117  10.840  0.1425 -0.2704 -0.6673
  327MOL0     C44050   7.851   5.204  10.767 -0.5651 -0.3809  0.7997
  327MOL0     C44051   7.989   5.138  10.739  0.5890 -0.2574 -0.4434
  327MOL0     C44052   8.097   5.210  10.643  0.0113 -0.0221  0.1460
  327MOL0     C44053   8.051   5.221  10.496  0.0203  0.0098 -0.2418
  327MOL0     C44054   8.174   5.272  10.423 -0.8798 -0.8205  0.3425
  327MOL0    Cl44055   8.130   5.291  10.257  0.0547  0.1001  0.0230
  327MOL0     C44056   7.290   4.858  10.778  0.5583 -0.3867 -0.4034
  327MOL0     C44057   7.185   4.772  10.744 -0.4101  0.5485  0.7889
  327MOL0     O44058   7.043   4.679  10.456 -0.5493 -0.0840  0.5118
  327MOL0     C44059   6.765   4.535  10.595 -0.0184 -0.6784 -0.2755
  327MOL0     C44060   6.648   4.462  10.574  0.2703 -0.3625  0.3290
  327MOL0     N44061   5.873   4.257  10.501  0.0822 -0.3089 -0.4161
  327MOL0     N44062   5.787   4.338  10.448  0.8814  0.3588  0.5724
  327MOL0     C44063   5.819   4.741   9.657 -0.5926 -0.5279 -0.1022
  327MOL0     C44064   5.720   4.680   9.585  0.4507 -0.3764 -0.1358
  327MOL0     C44065   5.261   4.643   9.469 -0.1930 -0.2265 -0.9981
  327MOL0     C44066   5.127   4.648   9.502  0.8379 -0.2017 -0.4454
  327MOL0     C44067   5.023   4.608   9.409 -0.5589  0.0296 -0.3129
  327MOL0     C44068   5.057   4.569   9.284 -1.2521  0.2903  0.4070
  327MOL0     O44069   4.967   4.542   9.177  0.8683 -0.6872  0.3207
  327MOL0     C44070   4.826   4.586   9.194 -0.4077  0.0195  0.2592
  327MOL0     C44071   4.748   4.584   9.063 -0.4346 -0.2900 -0.2182
  327MOL0     C44072   4.810   4.693   8.968 -0.7375 -0.0374 -0.3311
  327MOL0     C44073   4.811   4.638   8.828 -0.9345 -0.4968 -1.2006
  327MOL0     C44074   4.673   4.628   8.776  1.4560  0.6623 -1.2097
  327MOL0     C44075   4.558   4.605   8.778  0.0906 -0.6258  0.4379
  327MOL0     C44076   5.193   4.566   9.246  0.1695  0.1216  0.5584
  327MOL0     C44077   5.293   4.595   9.339  0.3251 -0.1036 -0.8149
  327MOL0     H44078   5.468   4.918   9.657 -1.1689 -1.7496 -0.7602
  327MOL0     H44079   5.654   5.017   9.770 -1.0239 -0.0280 -0.1277
  327MOL0     H44080   6.013   4.775   9.832  0.3440  0.3413  1.2294
  327MOL0     H44081   6.081   4.886   9.723 -3.2125 -0.5464 -1.8565
  327MOL0     H44082   6.191   4.907   9.917 -0.5540 -1.2928 -3.8481
  327MOL0     H44083   6.103   5.057   9.887  2.6982  0.2985  1.7398
  327MOL0     H44084   6.072   4.985  10.143 -0.7012  0.9490 -0.1218
  327MOL0     H44085   5.926   5.012  10.057  1.3297  1.7524 -4.3787
  327MOL0     H44086   5.870   4.791  10.013  0.8007 -3.6902 -1.8461
  327MOL0     H44087   6.028   4.728  10.021  0.5112  3.1105 -2.7145
  327MOL0     H44088   6.066   4.789  10.261  0.7897 -3.1694 -0.6280
  327MOL0     H44089   5.912   4.859  10.273  0.9100  2.3442 -0.6527
  327MOL0     H44090   5.990   4.577  10.291 -0.7698  1.7214  1.9352
  327MOL0     H44091   5.858   4.663  10.369  0.1000  0.3520 -0.0804
  327MOL0     H44092   5.723   4.651  10.174  1.4929  3.4531  1.8855
  327MOL0     H44093   5.847   4.555  10.088 -1.0437 -2.7180  0.2897
  327MOL0     H44094   5.688   4.387  10.169 -0.2988 -1.1609  2.4203
  327MOL0     H44095   5.660   4.503  10.297  0.8610  1.8379 -0.4970
  327MOL0     H44096   5.994   4.285  10.203 -2.1487  0.2520 -1.3382
  327MOL0     H44097   6.044   4.044  10.505  2.3687 -1.2634  0.8804
  327MOL0     H44098   6.093   4.049  10.339  3.6432 -0.9555  1.4432
  327MOL0     H44099   6.259   4.088  10.521 -1.1609 -0.3605  2.4272
  327MOL0     H44100   6.171   4.230  10.573  0.2461 -0.2579  0.5494
  327MOL0     H44101   6.245   4.342  10.357 -1.7274 -0.6703  0.2834
  327MOL0     H44102   6.334   4.192  10.314  0.5196 -1.0345  0.4869
  327MOL0     H44103   6.467   4.232  10.533 -0.6936  1.0154  0.4973
  327MOL0     H44104   6.384   4.381  10.562  0.1259 -0.9792  1.2635
  327MOL0     H44105   6.631   4.541  10.239 -1.8228  1.7777  1.1222
  327MOL0     H44106   6.824   4.830  10.329 -0.8618 -0.4508  1.2651
  327MOL0     H44107   6.891   4.699  10.217  0.1858  1.1440  0.7899
  327MOL0     H44108   6.723   4.755  10.208  0.6175  0.2892 -0.6666
  327MOL0     H44109   6.987   5.004  10.601 -0.4151 -0.1848  0.7663
  327MOL0     H44110   7.169   5.145  10.651 -1.9746 -0.6234 -2.2865
  327MOL0     H44111   7.490   5.007  10.913  2.4846  2.8250  1.6323
  327MOL0     H44112   7.558   4.960  10.747 -1.0416 -2.7003  2.9031
  327MOL0     H44113   7.613   5.201  10.713 -4.9093  2.1743  1.2826
  327MOL0     H44114   7.589   5.236  10.888 -0.8399 -0.4251  0.1071
  327MOL0     H44115   7.778   5.013  10.812  0.1780 -0.9437  1.5916
  327MOL0     H44116   7.791   5.120  10.944 -2.0868 -0.0361  0.1092
  327MOL0     H44117   7.812   5.243  10.673 -0.5258  1.2894  1.4326
  327MOL0     H44118   7.873   5.294  10.825 -1.0481  0.6744 -0.6077
  327MOL0     H44119   7.972   5.040  10.693  0.8485 -0.0015 -1.0958
  327MOL0     H44120   8.035   5.119  10.836  0.1072 -0.8408 -0.3199
  327MOL0     H44121   8.137   5.309  10.669  0.6536 -0.6639  1.6823
  327MOL0     H44122   8.178   5.138  10.651  2.7172  2.8807  1.0159
  327MOL0     H44123   7.970   5.294  10.501  0.8099  0.8515  0.7941
  327MOL0     H44124   8.014   5.127  10.454  1.3582  0.1722 -1.9010
  327MOL0     H44125   8.252   5.195  10.432 -1.0365 -0.8275  1.8089
  327MOL0     H44126   8.216   5.366  10.459  0.0809 -1.2669  0.4261
  327MOL0     H44127   7.367   4.814  10.840  2.5775 -1.3047 -3.3413
  327MOL0     H44128   7.197   4.671  10.782  0.8771  0.7106  0.8317
  327MOL0     H44129   6.806   4.527  10.696 -1.6345 -1.3984  0.3615
  327MOL0     H44130   6.605   4.407  10.657 -1.6948  0.3010 -0.2014
  327MOL0     H44131   5.914   4.691   9.644 -0.4479  0.1134 -1.7983
  327MOL0     H44132   5.738   4.591   9.525  1.4733  1.4803 -2.8002
  327MOL0     H44133   5.098   4.683   9.601  1.3756  0.3536 -0.4767
  327MOL0     H44134   4.925   4.607   9.455  1.4025 -0.6358  4.5240
  327MOL0     H44135   4.782   4.508   9.257 -1.1885 -0.6552 -1.0795
  327MOL0     H44136   4.813   4.679   9.250 -0.5923 -1.5743  3.0301
  327MOL0     H44137   4.640   4.594   9.069 -0.5982 -0.8819 -1.8399
  327MOL0     H44138   4.773   4.483   9.030  2.6837  0.5582 -0.8414
  327MOL0     H44139   4.910   4.723   8.999 -0.0562 -1.4356 -1.1373
  327MOL0     H44140   4.738   4.775   8.985 -1.8052 -1.5240  3.5595
  327MOL0     H44141   4.866   4.548   8.798  0.2299  0.0426 -0.7452
  327MOL0     H44142   4.869   4.703   8.761  0.5625 -0.6019 -0.0477
  327MOL0     H44143   4.452   4.604   8.795 -0.0979 -1.2445 -0.6725
  327MOL0     H44144   5.210   4.542   9.142 -0.3006  0.8382  0.3092
  327MOL0     H44145   5.393   4.570   9.307  0.2582 -2.2706  0.4811
  328MOL0     O44146   7.721   8.845   7.936 -0.0106 -0.6215  0.3458
  328MOL0     C44147   7.640   8.787   8.011  0.3163  0.9708  1.0569
  328MOL0     O44148   7.510   8.838   8.029  0.1418 -0.1619  0.0198
  328MOL0     C44149   7.453   8.930   7.947  0.4235  0.9783 -0.5682
  328MOL0     C44150   7.461   8.928   7.812 -0.9867 -0.3226 -0.0883
  328MOL0     C44151   7.403   9.033   7.741 -0.2715 -0.3625  0.0184
  328MOL0     C44152   7.343   9.150   7.800  0.6170 -0.2722 -0.3695
  328MOL0     O44153   7.278   9.249   7.727  0.6840 -0.2197 -0.4374
  328MOL0     C44154   7.232   9.363   7.790  0.2677  0.1305 -0.2110
  328MOL0     C44155   7.336   9.466   7.818 -0.3610  0.2240 -0.9304
  328MOL0     C44156   7.299   9.612   7.829  0.0571 -0.1858  0.0501
  328MOL0     C44157   7.409   9.720   7.815 -1.6883  0.4615  0.1678
  328MOL0     C44158   7.345   9.849   7.860  0.6135 -1.3726 -0.2725
  328MOL0     C44159   7.435   9.977   7.820 -0.7308 -0.7022  0.3150
  328MOL0     C44160   7.446  10.018   7.666 -0.7977  0.8580 -0.1531
  328MOL0     C44161   7.332  10.002   7.574  0.1489 -0.5211  0.4959
  328MOL0     N44162   7.343  10.084   7.454  1.4302 -0.3550  0.5425
  328MOL0     C44163   7.257  10.183   7.418  0.4047  0.0127 -0.5247
  328MOL0     C44164   7.331  10.241   7.324 -0.1502  0.0406  0.4396
  328MOL0     C44165   7.316  10.371   7.252  0.9963  0.5979  0.0675
  328MOL0     C44166   7.184  10.371   7.163 -0.5818  0.2326 -0.2659
  328MOL0     C44167   7.141  10.518   7.132 -0.4266  0.8375 -0.6110
  328MOL0     C44168   7.082  10.589   7.249  0.8885 -0.0548  0.5348
  328MOL0     O44169   6.964  10.524   7.295 -0.4073  0.2764  0.3175
  328MOL0     C44170   6.940  10.508   7.424  0.6183 -0.1090  0.7447
  328MOL0     C44171   6.842  10.408   7.453  0.1146  1.1509  0.0597
  328MOL0     C44172   6.809  10.366   7.580  0.3883  1.1041 -0.5101
  328MOL0     C44173   6.727  10.235   7.581  1.0937  0.0761  0.4749
  328MOL0     C44174   6.885  10.415   7.689 -0.3108 -0.0626 -0.0449
  328MOL0     C44175   6.880  10.358   7.824 -0.5994 -0.4377 -0.7353
  328MOL0     O44176   6.914  10.451   7.930 -0.5381 -0.8834 -0.1620
  328MOL0     C44177   6.937  10.391   8.052  0.4349 -0.1581 -0.3844
  328MOL0     C44178   6.847  10.301   8.121 -0.1550  0.7869 -1.0015
  328MOL0     C44179   6.876  10.254   8.249  0.0271  0.4117 -0.2442
  328MOL0     C44180   7.004  10.271   8.304  0.3921  0.0748  0.1337
  328MOL0     O44181   7.045  10.198   8.411 -0.4336  0.3223  1.1907
  328MOL0     C44182   6.954  10.156   8.513  1.1535 -0.0301  0.0289
  328MOL0     C44183   7.035  10.113   8.636  0.0642  1.1852 -0.5904
  328MOL0     C44184   7.078   9.964   8.615 -0.1795  0.6325 -0.4828
  328MOL0     C44185   7.158   9.898   8.726 -0.2542 -0.0522 -0.6721
  328MOL0     C44186   7.233   9.769   8.669  0.1415  0.5654 -1.3047
  328MOL0     C44187   7.344   9.723   8.768 -0.9755  1.1056 -0.3200
  328MOL0     C44188   7.471   9.813   8.789  0.4902  0.8281 -0.3068
  328MOL0     C44189   7.567   9.756   8.890  0.3197  0.6529 -0.1138
  328MOL0    Cl44190   7.664   9.907   8.945  0.2329  0.0565 -0.6173
  328MOL0     C44191   7.094  10.359   8.245  0.7556  0.0378  1.1634
  328MOL0     C44192   7.059  10.429   8.126 -0.8295 -0.1485  0.4859
  328MOL0     O44193   6.867  10.237   7.828  0.1072 -0.1486  0.3785
  328MOL0     C44194   6.972  10.525   7.666 -0.1273  0.9939 -0.5388
  328MOL0     C44195   6.994  10.566   7.538  0.5257  0.1566 -0.5342
  328MOL0     N44196   7.434  10.165   7.281 -0.2163  0.0507 -0.1327
  328MOL0     N44197   7.435  10.060   7.364  0.1197 -0.5818  0.0086
  328MOL0     C44198   7.315   9.141   7.939 -1.1545  0.4523 -0.1748
  328MOL0     C44199   7.377   9.030   8.008  0.3537  0.3663 -1.0143
  328MOL0     C44200   7.659   8.655   8.066 -0.0772 -0.5768 -0.5153
  328MOL0     C44201   7.557   8.576   8.111  0.4822  0.9581  0.2044
  328MOL0     C44202   7.584   8.454   8.177 -0.6170  0.3384 -0.0955
  328MOL0     C44203   7.719   8.418   8.204  0.2738  0.4481 -1.1081
  328MOL0     O44204   7.742   8.331   8.301 -0.5353  0.5045 -0.6811
  328MOL0     C44205   7.709   8.378   8.433  0.6498 -0.0881 -0.5147
  328MOL0     C44206   7.622   8.302   8.520  0.3927 -0.4953 -1.0160
  328MOL0     C44207   7.677   8.158   8.549 -0.0741 -0.1449 -0.3265
  328MOL0     C44208   7.595   8.051   8.621  0.5177  0.1789 -0.2499
  328MOL0     C44209   7.666   7.918   8.628  0.7974 -0.0906  1.2812
  328MOL0     C44210   7.728   7.817   8.630 -0.4111  0.0296 -0.1527
  328MOL0     C44211   7.819   8.488   8.140 -0.3375  0.3095 -0.1398
  328MOL0     C44212   7.790   8.607   8.078 -0.3440 -0.0983 -0.1600
  328MOL0     H44213   7.522   8.848   7.770  0.0876 -1.8499  3.9507
  328MOL0     H44214   7.413   9.035   7.633  3.3794  1.5683  0.2230
  328MOL0     H44215   7.158   9.403   7.720 -0.7194  0.3954  0.9466
  328MOL0     H44216   7.169   9.353   7.879  0.2676 -0.9200 -0.3137
  328MOL0     H44217   7.384   9.448   7.915  1.3663  3.2405 -1.0792
  328MOL0     H44218   7.413   9.473   7.740  2.5733  2.3140  1.8740
  328MOL0     H44219   7.222   9.632   7.754 -2.3418 -1.1039  2.1690
  328MOL0     H44220   7.245   9.618   7.924  0.3197 -1.9323  0.3341
  328MOL0     H44221   7.495   9.704   7.880 -2.3586  1.9999  1.4866
  328MOL0     H44222   7.440   9.727   7.710 -0.1310  3.4600  0.7107
  328MOL0     H44223   7.247   9.866   7.814  1.0206  0.3245 -0.5687
  328MOL0     H44224   7.339   9.851   7.969  0.0379  4.1505 -0.1615
  328MOL0     H44225   7.375  10.047   7.879 -0.8647  0.5017 -1.1952
  328MOL0     H44226   7.537   9.979   7.859 -0.7405  1.7702  0.4017
  328MOL0     H44227   7.447  10.127   7.657  0.8682  0.8264 -0.5733
  328MOL0     H44228   7.535   9.973   7.622 -2.7134 -0.9066 -2.5370
  328MOL0     H44229   7.241  10.023   7.630 -1.9270 -1.8822 -2.1462
  328MOL0     H44230   7.325   9.897   7.542  1.0153 -0.3907 -0.1741
  328MOL0     H44231   7.176  10.234   7.469  0.7095 -1.5282  1.6831
  328MOL0     H44232   7.320  10.442   7.335 -1.4965  2.1191 -0.9933
  328MOL0     H44233   7.409  10.376   7.194  1.8831 -1.8424  1.1488
  328MOL0     H44234   7.098  10.322   7.209 -0.3712  1.9962  2.1735
  328MOL0     H44235   7.209  10.323   7.068 -1.3324 -0.8264  0.0576
  328MOL0     H44236   7.065  10.513   7.054  1.7013  1.3304 -2.8347
  328MOL0     H44237   7.225  10.573   7.088  2.0420 -0.7201  1.8127
  328MOL0     H44238   7.052  10.686   7.207 -1.0970 -0.8115  0.0777
  328MOL0     H44239   7.161  10.599   7.324  0.4221 -0.3260  1.0675
  328MOL0     H44240   6.800  10.351   7.371 -0.3554 -0.1267  1.1742
  328MOL0     H44241   6.781  10.143   7.604  0.5628 -1.4618 -3.5588
  328MOL0     H44242   6.646  10.248   7.653 -0.7651  1.8804 -1.7593
  328MOL0     H44243   6.685  10.232   7.480 -2.1326  1.3273  1.6255
  328MOL0     H44244   6.762  10.260   8.068  0.1506  0.9699 -1.6489
  328MOL0     H44245   6.805  10.188   8.298  0.1108  0.9254  0.5883
  328MOL0     H44246   6.903  10.245   8.551  2.4939  0.1524  1.4734
  328MOL0     H44247   6.889  10.075   8.478 -0.5988  1.4830 -0.3593
  328MOL0     H44248   7.124  10.176   8.649  0.4833  0.8051 -1.4958
  328MOL0     H44249   6.974  10.119   8.726  1.2390 -0.5995  0.3864
  328MOL0     H44250   7.148   9.960   8.532  1.3666 -0.6345  0.8013
  328MOL0     H44251   6.994   9.905   8.578  2.2201 -2.0400 -2.0942
  328MOL0     H44252   7.230   9.966   8.772  0.1792 -2.4025  2.4928
  328MOL0     H44253   7.096   9.872   8.812 -2.3735  1.8697 -1.5380
  328MOL0     H44254   7.265   9.793   8.568 -1.3155 -0.6274 -2.0891
  328MOL0     H44255   7.162   9.687   8.653 -2.5472  1.1688  4.6770
  328MOL0     H44256   7.294   9.710   8.865  0.7006 -0.3934  0.3838
  328MOL0     H44257   7.372   9.627   8.724  1.0712  1.8052 -0.6362
  328MOL0     H44258   7.432   9.911   8.820 -0.0901  1.3129 -2.4389
  328MOL0     H44259   7.523   9.820   8.693 -2.5036 -3.0461 -2.4565
  328MOL0     H44260   7.634   9.680   8.848 -1.9145 -1.8155  0.4957
  328MOL0     H44261   7.516   9.705   8.972  0.8905  0.3444  0.0491
  328MOL0     H44262   7.197  10.341   8.273  1.8427 -6.2945 -4.5098
  328MOL0     H44263   7.124  10.501   8.078  0.6210 -1.0361  1.0359
  328MOL0     H44264   7.034  10.566   7.745 -0.2050  4.0818 -1.9286
  328MOL0     H44265   7.056  10.654   7.525 -0.2749  0.7649 -0.2853
  328MOL0     H44266   7.264   9.209   8.005 -0.7779 -1.6368  2.4299
  328MOL0     H44267   7.383   9.037   8.116  1.1994  0.6203 -1.0687
  328MOL0     H44268   7.461   8.616   8.081  1.7226  2.3842 -2.1663
  328MOL0     H44269   7.512   8.389   8.226  1.8600 -0.3395  2.9971
  328MOL0     H44270   7.802   8.405   8.485  2.5574 -1.8995 -2.7616
  328MOL0     H44271   7.660   8.475   8.422 -0.8167 -1.0106 -2.8540
  328MOL0     H44272   7.532   8.275   8.463  0.0876 -2.9550  0.4759
  328MOL0     H44273   7.593   8.353   8.612  2.3380  0.5931 -0.9642
  328MOL0     H44274   7.762   8.178   8.615 -0.6423  0.5171  0.2333
  328MOL0     H44275   7.708   8.121   8.451 -0.7645  0.5267 -0.8174
  328MOL0     H44276   7.496   8.048   8.573  0.6731 -0.6216 -0.5244
  328MOL0     H44277   7.574   8.073   8.726  0.5831 -1.1813  0.0627
  328MOL0     H44278   7.787   7.728   8.625 -1.3075 -0.5998  0.3200
  328MOL0     H44279   7.921   8.462   8.165  0.2440  3.5247  1.4195
  328MOL0     H44280   7.877   8.664   8.046 -0.3144 -0.3987 -0.6262
  329MOL0     O44281   4.449   2.162   0.899 -0.3592 -0.5523  0.0174
  329MOL0     C44282   4.492   2.233   0.806 -0.6028  0.3198 -0.9232
  329MOL0     O44283   4.449   2.228   0.683 -0.7442  0.9602 -0.3628
  329MOL0     C44284   4.352   2.145   0.633 -0.1347 -0.4264  0.1531
  329MOL0     C44285   4.361   2.134   0.499 -0.1203 -0.2337  0.2923
  329MOL0     C44286   4.247   2.066   0.423  0.6609 -0.4143 -0.1297
  329MOL0     C44287   4.144   2.011   0.494 -0.0757 -0.3943 -0.0231
  329MOL0     O44288   4.043   1.952   0.411  0.2181  0.1369 -0.7225
  329MOL0     C44289   3.922   1.917   0.473  0.0856 -0.2239 -0.1078
  329MOL0     C44290   3.818   1.867   0.374 -0.4943 -0.2598  0.0452
  329MOL0     C44291   3.681   1.869   0.443 -0.3066  0.7661 -0.1506
  329MOL0     C44292   3.562   1.813   0.363  0.8153  0.0289 -0.5583
  329MOL0     C44293   3.439   1.813   0.459  0.8831 -0.5619  1.1317
  329MOL0     C44294   3.320   1.742   0.383  0.7782 -0.1729  0.1792
  329MOL0     C44295   3.200   1.728   0.476  0.7966 -1.3124 -0.8748
  329MOL0     C44296   3.083   1.642   0.432 -0.0833 -0.0332  0.3619
  329MOL0     N44297   2.972   1.677   0.524 -1.0396  0.7121  0.3135
  329MOL0     C44298   2.959   1.625   0.652  0.5802  0.4757  0.2384
  329MOL0     C44299   2.828   1.620   0.676  0.0096 -0.3077  0.3508
  329MOL0     C44300   2.766   1.575   0.805 -0.5255  1.3992  0.8571
  329MOL0     C44301   2.636   1.495   0.777  0.5395  0.3604  0.3996
  329MOL0     C44302   2.578   1.420   0.901  0.9958  0.0544 -0.6484
  329MOL0     C44303   2.606   1.489   1.036 -0.1646  0.5400 -0.0735
  329MOL0     O44304   2.504   1.435   1.131 -1.3349  0.5241 -0.0621
  329MOL0     C44305   2.530   1.477   1.264 -0.0430 -0.5697  0.3627
  329MOL0     C44306   2.439   1.423   1.349 -0.0392  0.3581 -0.4829
  329MOL0     C44307   2.436   1.473   1.486  0.5396  0.3630  1.0484
  329MOL0     C44308   2.327   1.403   1.570 -0.9175 -0.1272  0.5190
  329MOL0     C44309   2.520   1.577   1.530  0.0868 -0.5299  0.2321
  329MOL0     C44310   2.517   1.612   1.675 -0.4917 -0.2503  0.2575
  329MOL0     O44311   2.557   1.530   1.784  0.0770 -0.0024  1.1680
  329MOL0     C44312   2.561   1.598   1.905 -0.5207 -0.2486  0.4582
  329MOL0     C44313   2.450   1.658   1.969 -0.0955 -0.9386  0.1314
  329MOL0     C44314   2.469   1.727   2.090  0.1908  0.5097  1.0033
  329MOL0     C44315   2.592   1.732   2.146  0.3082  0.2738  0.2021
  329MOL0     O44316   2.617   1.821   2.243 -0.4456 -0.5167  0.1335
  329MOL0     C44317   2.713   1.777   2.344  0.4765  0.3532 -0.2623
  329MOL0     C44318   2.703   1.882   2.461  0.0493 -0.5414  0.9668
  329MOL0     C44319   2.687   2.024   2.423 -0.2496  0.4935 -0.9241
  329MOL0     C44320   2.799   2.070   2.337  0.4579  0.1466 -0.2831
  329MOL0     C44321   2.816   2.230   2.343  0.2059  0.4372 -0.7770
  329MOL0     C44322   2.915   2.281   2.242 -0.2206 -0.2927  0.0781
  329MOL0     C44323   2.896   2.430   2.224 -0.1690 -0.5914  0.0335
  329MOL0     C44324   2.868   2.479   2.078  0.3922 -1.0166  0.2886
  329MOL0    Cl44325   3.007   2.414   1.987  0.6092  0.0302 -0.1257
  329MOL0     C44326   2.695   1.665   2.090 -0.9135  0.8049  1.3472
  329MOL0     C44327   2.681   1.598   1.973 -0.3840  1.3500 -0.0651
  329MOL0     O44328   2.493   1.731   1.683 -0.3746 -0.3842  0.1415
  329MOL0     C44329   2.609   1.636   1.435 -0.5418 -0.1241  0.2265
  329MOL0     C44330   2.622   1.579   1.307 -0.3734  0.4235 -0.1913
  329MOL0     N44331   2.760   1.661   0.566  0.4701  0.1743 -0.2179
  329MOL0     N44332   2.851   1.691   0.479  0.1448  0.5200  0.3078
  329MOL0     C44333   4.149   2.026   0.630  0.1124  0.8599 -0.2651
  329MOL0     C44334   4.249   2.087   0.706 -0.4855 -0.2027  1.0196
  329MOL0     C44335   4.593   2.332   0.848 -0.2353  0.4646 -0.8110
  329MOL0     C44336   4.610   2.454   0.790  0.7616 -0.0344 -0.2613
  329MOL0     C44337   4.701   2.542   0.840 -0.6029 -0.6644  0.9851
  329MOL0     C44338   4.790   2.512   0.933  0.0838  0.0406 -0.3918
  329MOL0     O44339   4.896   2.601   0.946 -0.3185  0.1985 -0.2807
  329MOL0     C44340   4.996   2.589   1.045 -0.2088 -0.1789  0.8631
  329MOL0     C44341   5.036   2.730   1.101  0.0875  0.0304  1.3419
  329MOL0     C44342   5.119   2.809   1.000 -0.0884 -0.4910 -0.0105
  329MOL0     C44343   5.261   2.753   0.990  0.6846 -0.0027 -1.0185
  329MOL0     C44344   5.345   2.833   0.901 -0.4122  0.2627 -0.9894
  329MOL0     C44345   5.408   2.906   0.836 -0.0194 -0.7747  0.4403
  329MOL0     C44346   4.784   2.391   1.000  0.0083  0.0745 -0.4544
  329MOL0     C44347   4.680   2.298   0.950 -0.7345 -0.3823 -0.5970
  329MOL0     H44348   4.433   2.187   0.438  0.1281  2.7242  2.8481
  329MOL0     H44349   4.244   2.048   0.316 -0.5558 -1.0564 -0.0006
  329MOL0     H44350   3.943   1.842   0.550 -0.6567 -3.4773 -2.8087
  329MOL0     H44351   3.880   2.000   0.530  0.2312 -0.8138  0.8863
  329MOL0     H44352   3.817   1.945   0.297  1.9998  0.7658  0.9415
  329MOL0     H44353   3.847   1.770   0.335 -4.2093 -1.1026 -1.0087
  329MOL0     H44354   3.689   1.808   0.534  1.7444  0.0228 -0.7635
  329MOL0     H44355   3.657   1.973   0.465 -2.9174  0.7422 -2.4325
  329MOL0     H44356   3.547   1.864   0.267 -1.4224 -0.3321 -0.4522
  329MOL0     H44357   3.577   1.709   0.335 -2.8945 -0.6650 -0.4014
  329MOL0     H44358   3.467   1.754   0.546  0.0744  0.3872  2.0617
  329MOL0     H44359   3.416   1.916   0.490 -2.9519 -1.5228  1.9966
  329MOL0     H44360   3.286   1.808   0.303 -2.3252  0.1237  1.6150
  329MOL0     H44361   3.338   1.644   0.338 -1.9889 -0.8318  0.3265
  329MOL0     H44362   3.245   1.690   0.569  0.3266 -0.4428 -0.2762
  329MOL0     H44363   3.178   1.831   0.507 -1.3121 -1.9876  0.0651
  329MOL0     H44364   3.094   1.533   0.434 -2.6054 -0.3491  1.7259
  329MOL0     H44365   3.064   1.677   0.331 -1.0535  0.1712  0.6005
  329MOL0     H44366   3.036   1.579   0.712 -1.6254 -1.9587  1.3593
  329MOL0     H44367   2.836   1.507   0.856 -1.3521  1.1608  1.6988
  329MOL0     H44368   2.758   1.663   0.870 -2.1309  0.4183  2.0572
  329MOL0     H44369   2.641   1.419   0.699  1.4318  0.4904  0.3247
  329MOL0     H44370   2.569   1.575   0.743  1.3052  2.5280  3.5285
  329MOL0     H44371   2.642   1.336   0.928 -0.8314 -1.1339  0.2084
  329MOL0     H44372   2.472   1.394   0.900  0.6405  1.3428  0.0648
  329MOL0     H44373   2.595   1.596   1.021  0.7681  0.3361 -2.6971
  329MOL0     H44374   2.708   1.467   1.072 -0.8414  1.4125  2.6486
  329MOL0     H44375   2.370   1.351   1.308  0.5530 -0.2655 -0.3979
  329MOL0     H44376   2.245   1.386   1.500 -1.2612 -1.0157  1.1193
  329MOL0     H44377   2.338   1.302   1.612  1.0515  0.1268  0.7231
  329MOL0     H44378   2.293   1.467   1.652  1.7889 -0.4825  2.0656
  329MOL0     H44379   2.351   1.653   1.925  0.1198  1.4994 -0.8194
  329MOL0     H44380   2.385   1.773   2.141 -2.1916 -1.9425 -0.3970
  329MOL0     H44381   2.667   1.685   2.381 -3.4977  2.3434  0.2367
  329MOL0     H44382   2.818   1.765   2.317  0.8656  3.9888 -0.9472
  329MOL0     H44383   2.619   1.869   2.530 -1.9960 -2.4802 -1.6836
  329MOL0     H44384   2.791   1.878   2.525  2.7775 -1.6204 -2.5518
  329MOL0     H44385   2.701   2.070   2.521  0.9846  0.5435 -1.1053
  329MOL0     H44386   2.590   2.055   2.384 -1.3470  1.2179  2.0988
  329MOL0     H44387   2.896   2.042   2.378  0.2111  2.3611  2.0876
  329MOL0     H44388   2.779   2.040   2.234 -0.7480 -2.2973  0.5894
  329MOL0     H44389   2.831   2.272   2.443  0.2554  1.6924 -1.2856
  329MOL0     H44390   2.719   2.269   2.312 -0.2701  0.2342  0.4143
  329MOL0     H44391   3.020   2.266   2.269  0.2110 -3.2213 -2.6453
  329MOL0     H44392   2.887   2.229   2.150 -2.6122 -0.8828  1.0670
  329MOL0     H44393   2.991   2.472   2.257 -1.3630  1.2934  1.2526
  329MOL0     H44394   2.821   2.461   2.297 -0.4950 -2.1347  0.3973
  329MOL0     H44395   2.855   2.587   2.086  0.2421 -1.0774  0.9162
  329MOL0     H44396   2.776   2.436   2.037 -0.7297  2.3162 -1.0271
  329MOL0     H44397   2.795   1.674   2.133 -0.9865 -0.8525  1.8998
  329MOL0     H44398   2.772   1.549   1.939  0.8191  1.1746  3.0775
  329MOL0     H44399   2.698   1.688   1.469 -0.0199 -1.0148  0.2795
  329MOL0     H44400   2.701   1.616   1.242  2.4388 -3.3876  0.6785
  329MOL0     H44401   4.067   1.977   0.682  0.0722  0.3368 -0.8073
  329MOL0     H44402   4.234   2.101   0.813  2.2839  3.7606  1.1297
  329MOL0     H44403   4.534   2.485   0.718  0.7730 -1.6902 -1.0191
  329MOL0     H44404   4.704   2.637   0.787  2.5788 -1.1510  0.0848
  329MOL0     H44405   4.961   2.532   1.131 -2.2149 -1.2791 -0.5884
  329MOL0     H44406   5.082   2.534   1.007  0.0281 -0.0719  1.2409
  329MOL0     H44407   5.095   2.701   1.189 -0.9006 -3.3740  1.0603
  329MOL0     H44408   4.948   2.787   1.131 -0.0879 -0.5548  1.9640
  329MOL0     H44409   5.125   2.911   1.038  0.0030 -0.4800 -0.0544
  329MOL0     H44410   5.069   2.820   0.904  1.1937 -0.8858 -0.7424
  329MOL0     H44411   5.253   2.654   0.943  2.6315 -0.8249  0.2596
  329MOL0     H44412   5.310   2.743   1.087 -1.2912  3.2711  0.4874
  329MOL0     H44413   5.460   2.959   0.758  2.1582 -1.3972  1.4027
  329MOL0     H44414   4.856   2.368   1.078  2.5060  1.3419 -2.2422
  329MOL0     H44415   4.673   2.198   0.993 -0.6046 -1.1945 -2.3640
  330MOL0     O44416   4.266   2.715   5.306 -0.2647  0.2674 -0.1875
  330MOL0     C44417   4.359   2.647   5.358  0.3223 -0.2291  0.6627
  330MOL0     O44418   4.494   2.664   5.346 -0.1067  0.0959  0.2391
  330MOL0     C44419   4.550   2.775   5.307 -0.2571  0.4609 -0.0516
  330MOL0     C44420   4.522   2.893   5.378  0.2597  0.4065 -0.8675
  330MOL0     C44421   4.571   3.022   5.337  0.3474 -0.2682 -0.2828
  330MOL0     C44422   4.668   3.025   5.238 -0.2660  0.5537 -0.1792
  330MOL0     O44423   4.716   3.139   5.171  0.0978 -0.3961  0.0092
  330MOL0     C44424   4.648   3.267   5.176 -0.2256 -1.0369  0.0413
  330MOL0     C44425   4.718   3.369   5.086  0.0652 -0.2210  0.4996
  330MOL0     C44426   4.656   3.504   5.043  0.9929 -0.5100 -1.0503
  330MOL0     C44427   4.571   3.567   5.149 -0.8414 -0.1267  0.6996
  330MOL0     C44428   4.546   3.719   5.112 -0.1317  0.2539  0.2616
  330MOL0     C44429   4.477   3.809   5.227 -0.9072  0.8544 -0.3327
  330MOL0     C44430   4.464   3.951   5.173 -0.3642 -1.2901  0.8936
  330MOL0     C44431   4.415   4.048   5.282  0.0397  0.6963 -0.6864
  330MOL0     N44432   4.315   4.134   5.227  0.5864 -0.2127  0.0785
  330MOL0     C44433   4.186   4.112   5.258  1.2166 -0.4212 -1.0256
  330MOL0     C44434   4.122   4.183   5.161 -0.0429 -0.5487  0.4627
  330MOL0     C44435   3.972   4.205   5.148  0.3464 -1.0181 -1.1122
  330MOL0     C44436   3.908   4.292   5.262  0.2925  0.0470 -0.1427
  330MOL0     C44437   3.916   4.227   5.398 -0.7591 -0.3603 -0.3795
  330MOL0     C44438   3.852   4.325   5.500 -0.0281 -0.2238 -0.1764
  330MOL0     O44439   3.934   4.441   5.499 -0.4161 -0.8790 -0.3444
  330MOL0     C44440   3.891   4.555   5.555  0.1644 -0.7571 -0.2673
  330MOL0     C44441   3.968   4.667   5.555  0.4201 -0.5548 -0.5331
  330MOL0     C44442   3.941   4.792   5.614  0.2859  0.8638 -0.5566
  330MOL0     C44443   4.051   4.899   5.614  0.8228 -0.4146 -0.1320
  330MOL0     C44444   3.819   4.804   5.678  0.9179  0.2204 -0.2161
  330MOL0     C44445   3.766   4.926   5.744 -0.0479 -0.1777 -0.6953
  330MOL0     O44446   3.642   4.919   5.812  0.4996  0.1214  1.0863
  330MOL0     C44447   3.599   5.033   5.876 -0.1061  0.3579 -0.5709
  330MOL0     C44448   3.458   5.055   5.884  0.5240  0.2693  0.1049
  330MOL0     C44449   3.398   5.154   5.966 -0.2499 -0.3364  0.0233
  330MOL0     C44450   3.481   5.236   6.046 -0.7239 -0.5546  0.0833
  330MOL0     O44451   3.411   5.324   6.125 -0.5379  0.3570  0.4932
  330MOL0     C44452   3.493   5.383   6.229 -0.5670 -0.4711 -1.3940
  330MOL0     C44453   3.407   5.448   6.340 -0.4660 -0.0396  0.5216
  330MOL0     C44454   3.498   5.520   6.441  0.2783 -0.3104 -0.7792
  330MOL0     C44455   3.412   5.587   6.549 -0.1059 -0.1265  0.2534
  330MOL0     C44456   3.360   5.479   6.649 -0.1138 -0.1600  0.0328
  330MOL0     C44457   3.297   5.531   6.778 -0.0082 -0.4279 -0.1674
  330MOL0     C44458   3.220   5.424   6.858  0.2481 -0.8961 -0.8110
  330MOL0     C44459   3.068   5.407   6.839 -0.9407 -0.5712  0.9348
  330MOL0    Cl44460   3.005   5.392   6.673 -0.1314 -0.7927  0.5975
  330MOL0     C44461   3.621   5.228   6.043  0.8081  0.5218  0.1994
  330MOL0     C44462   3.678   5.131   5.956 -0.6638 -0.2670  0.5801
  330MOL0     O44463   3.832   5.022   5.738  0.8198  0.1682  0.5425
  330MOL0     C44464   3.722   4.696   5.669 -0.0303 -0.3821 -0.3932
  330MOL0     C44465   3.769   4.567   5.626  0.0729  0.1456  0.7997
  330MOL0     N44466   4.216   4.247   5.075  0.1183  0.5484  0.3835
  330MOL0     N44467   4.329   4.209   5.118  0.3584 -0.1483 -0.2357
  330MOL0     C44468   4.700   2.900   5.166  0.5722 -0.3320  0.3754
  330MOL0     C44469   4.638   2.777   5.206 -0.2043  0.2337 -0.2324
  330MOL0     C44470   4.313   2.530   5.435  0.2282 -0.3695  1.2280
  330MOL0     C44471   4.172   2.493   5.442  0.1497 -0.0770  0.1478
  330MOL0     C44472   4.127   2.387   5.518  0.3839 -0.1830  0.2922
  330MOL0     C44473   4.218   2.306   5.586 -0.2147  0.1874 -1.1979
  330MOL0     O44474   4.157   2.198   5.652  0.1875  0.5046  0.9597
  330MOL0     C44475   4.241   2.091   5.695  0.7545  0.4205  0.5015
  330MOL0     C44476   4.307   2.011   5.586 -0.4548  0.5297  0.1531
  330MOL0     C44477   4.199   1.976   5.486  1.0590  0.1801 -0.1414
  330MOL0     C44478   4.097   1.858   5.517  0.9183 -0.2397  0.6807
  330MOL0     C44479   4.151   1.741   5.578  0.3180 -0.2754 -0.6894
  330MOL0     C44480   4.202   1.657   5.654 -0.0187  0.0157 -0.1117
  330MOL0     C44481   4.356   2.337   5.580 -0.2429  0.1339  0.1664
  330MOL0     C44482   4.393   2.451   5.510 -0.6151  0.5288 -0.6560
  330MOL0     H44483   4.464   2.883   5.469  0.0833  1.2856 -0.8788
  330MOL0     H44484   4.542   3.115   5.384 -0.6529 -0.4742 -0.4630
  330MOL0     H44485   4.546   3.256   5.136 -1.0383  1.5522  1.1527
  330MOL0     H44486   4.636   3.307   5.277  0.4243  0.2947 -0.3833
  330MOL0     H44487   4.817   3.376   5.131  0.3218 -1.9570  0.2855
  330MOL0     H44488   4.755   3.320   4.995  0.9235  0.7024  0.3335
  330MOL0     H44489   4.741   3.571   5.024  1.1663 -0.4086  0.0078
  330MOL0     H44490   4.588   3.500   4.958  0.1924  0.4768 -0.4805
  330MOL0     H44491   4.477   3.514   5.166 -1.2311  0.5379  0.6374
  330MOL0     H44492   4.627   3.581   5.242  1.1990  1.2081 -0.6515
  330MOL0     H44493   4.637   3.765   5.074 -0.0151  0.9323  1.3560
  330MOL0     H44494   4.478   3.716   5.026 -0.8290 -2.2128  0.7972
  330MOL0     H44495   4.376   3.785   5.258 -1.5398  1.0596 -2.0910
  330MOL0     H44496   4.544   3.814   5.314  0.1995  3.5403 -1.2133
  330MOL0     H44497   4.554   3.995   5.129 -2.4467  2.9537  0.2661
  330MOL0     H44498   4.385   3.942   5.097  0.9430  1.2884 -0.9548
  330MOL0     H44499   4.498   4.110   5.319  2.3453 -1.2149 -2.3350
  330MOL0     H44500   4.372   3.991   5.364 -0.3404  3.5319  1.2421
  330MOL0     H44501   4.143   4.039   5.325  4.2921  1.7476  3.8231
  330MOL0     H44502   3.954   4.247   5.049  0.2847 -0.0761 -0.7097
  330MOL0     H44503   3.931   4.104   5.161 -2.1551 -0.1860 -2.1066
  330MOL0     H44504   3.802   4.309   5.243 -0.0732 -1.2335  0.6353
  330MOL0     H44505   3.961   4.388   5.269 -0.6490  0.7243 -1.7370
  330MOL0     H44506   4.021   4.222   5.428 -1.0355  1.3251  0.9838
  330MOL0     H44507   3.858   4.136   5.414 -0.7929 -0.0188  1.7012
  330MOL0     H44508   3.836   4.283   5.599  2.2134 -2.3870 -0.6295
  330MOL0     H44509   3.755   4.356   5.461  0.3623  0.6719 -0.4688
  330MOL0     H44510   4.063   4.646   5.508  0.6307 -0.9711  0.0647
  330MOL0     H44511   4.065   4.936   5.716  4.4290  1.3949 -1.1195
  330MOL0     H44512   4.142   4.867   5.562 -0.2159 -0.7753 -1.8198
  330MOL0     H44513   4.030   4.991   5.558 -1.1878 -1.1046 -0.5915
  330MOL0     H44514   3.395   5.006   5.810  0.0769  0.1379  0.5556
  330MOL0     H44515   3.298   5.194   5.958  0.8614  2.3062 -2.8274
  330MOL0     H44516   3.569   5.317   6.271  1.5332  1.3010 -2.2074
  330MOL0     H44517   3.551   5.465   6.185 -1.0138 -0.3289 -1.7367
  330MOL0     H44518   3.344   5.524   6.293  0.0935  0.1273  0.0392
  330MOL0     H44519   3.350   5.374   6.396 -0.9611  0.8416  1.2105
  330MOL0     H44520   3.548   5.597   6.381 -0.1059  1.1572  0.6858
  330MOL0     H44521   3.579   5.459   6.483 -0.7239  0.0170  1.8533
  330MOL0     H44522   3.476   5.661   6.598 -5.1581  4.8972  0.3805
  330MOL0     H44523   3.326   5.638   6.505  2.3169  1.6550 -2.8402
  330MOL0     H44524   3.441   5.407   6.669  0.1002  0.0517 -0.0723
  330MOL0     H44525   3.275   5.427   6.604 -1.4576  2.2366 -0.3385
  330MOL0     H44526   3.380   5.561   6.842 -1.4649  2.2690  0.5692
  330MOL0     H44527   3.231   5.614   6.754  0.5075 -0.4637 -1.8716
  330MOL0     H44528   3.234   5.459   6.961  0.9821  0.1240 -1.2426
  330MOL0     H44529   3.262   5.323   6.849 -1.1002 -1.3543 -2.2463
  330MOL0     H44530   3.019   5.500   6.871 -4.9775 -1.3788 -2.0181
  330MOL0     H44531   3.032   5.326   6.904 -2.8345  1.2001  2.2337
  330MOL0     H44532   3.691   5.281   6.106  0.1784  0.8937  0.5977
  330MOL0     H44533   3.786   5.126   5.953 -0.7053 -1.0105 -1.8922
  330MOL0     H44534   3.622   4.701   5.711 -0.9786  1.3213 -2.6494
  330MOL0     H44535   3.711   4.476   5.641  0.3351  0.0115  1.0126
  330MOL0     H44536   4.776   2.903   5.089 -0.3307  1.6024 -0.4949
  330MOL0     H44537   4.654   2.692   5.140 -0.1676 -1.1000  1.4433
  330MOL0     H44538   4.090   2.543   5.391  2.0974  0.4415 -2.7697
  330MOL0     H44539   4.019   2.374   5.520  0.4524 -0.6273  1.3702
  330MOL0     H44540   4.314   2.112   5.773  2.2950 -3.2652  0.2669
  330MOL0     H44541   4.174   2.016   5.738  0.1466 -1.4601 -3.3069
  330MOL0     H44542   4.350   1.920   5.629 -3.5306 -1.9823 -1.6782
  330MOL0     H44543   4.386   2.067   5.536 -0.5612 -0.1240 -0.7852
  330MOL0     H44544   4.250   1.950   5.393  0.4819 -1.4729 -0.0432
  330MOL0     H44545   4.143   2.064   5.455  0.4699 -1.1141 -3.1500
  330MOL0     H44546   4.039   1.835   5.428  0.4900  0.9031  0.6386
  330MOL0     H44547   4.022   1.895   5.588  0.1904  0.5014 -0.4379
  330MOL0     H44548   4.235   1.588   5.729  2.4632  0.6213 -0.5515
  330MOL0     H44549   4.435   2.272   5.617 -2.3309 -4.0648 -2.0097
  330MOL0     H44550   4.501   2.462   5.513 -0.5226 -0.2962  2.1402
  331MOL0     O44551   1.787   3.534   2.625  0.0706  1.1571 -0.6955
  331MOL0     C44552   1.752   3.520   2.743  0.6261 -0.1067  0.3151
  331MOL0     O44553   1.622   3.487   2.779  0.1385 -0.2607  0.6578
  331MOL0     C44554   1.515   3.497   2.690 -0.0528  0.6770 -0.8682
  331MOL0     C44555   1.475   3.627   2.649 -0.0543  0.2997 -0.3559
  331MOL0     C44556   1.361   3.655   2.573  1.2322  0.5294  0.2941
  331MOL0     C44557   1.295   3.547   2.516  0.1552  0.3323 -0.0352
  331MOL0     O44558   1.195   3.556   2.430  0.0450 -0.0097  0.0977
  331MOL0     C44559   1.218   3.628   2.318 -0.2983 -0.0060  0.4890
  331MOL0     C44560   1.093   3.630   2.248  0.7632 -0.5785  0.7962
  331MOL0     C44561   1.032   3.500   2.206 -0.6635  0.7744  0.2851
  331MOL0     C44562   0.882   3.517   2.162  0.1312 -0.1417  0.4546
  331MOL0     C44563   0.866   3.616   2.047 -0.4872  0.6757  0.4147
  331MOL0     C44564   0.913   3.574   1.905  0.1004 -0.4548 -0.3095
  331MOL0     C44565   0.856   3.437   1.846  0.4715  0.2876  0.5300
  331MOL0     C44566   0.882   3.432   1.690  0.0326 -0.1470  0.4714
  331MOL0     N44567   0.762   3.419   1.599  0.4197 -0.6706 -0.3206
  331MOL0     C44568   0.712   3.294   1.575 -0.8296  0.6688  0.5622
  331MOL0     C44569   0.611   3.317   1.490 -0.9769  0.9933  1.1040
  331MOL0     C44570   0.530   3.211   1.414  0.0031 -0.2874 -0.2845
  331MOL0     C44571   0.524   3.258   1.265 -0.9764 -0.8604 -0.2595
  331MOL0     C44572   0.445   3.155   1.181  0.2097  1.1747 -0.5241
  331MOL0     C44573   0.536   3.040   1.159 -0.0213  0.7973  0.5936
  331MOL0     O44574   0.510   2.951   1.270 -0.3301  0.2126 -0.4683
  331MOL0     C44575   0.584   2.834   1.285 -1.0121  0.6066 -0.3958
  331MOL0     C44576   0.648   2.764   1.176 -0.0051 -0.3652  0.3522
  331MOL0     C44577   0.712   2.644   1.194 -0.3608  0.1311  0.2638
  331MOL0     C44578   0.784   2.597   1.066  0.8051 -0.4442  0.4220
  331MOL0     C44579   0.717   2.584   1.318  0.7689 -0.0920  0.5687
  331MOL0     C44580   0.795   2.462   1.358 -0.0813  0.0958 -0.2096
  331MOL0     O44581   0.741   2.374   1.452 -0.0733 -0.2222 -1.0429
  331MOL0     C44582   0.814   2.268   1.499  0.0478 -1.0448  0.0818
  331MOL0     C44583   0.943   2.212   1.452 -0.3850 -0.5351 -0.5494
  331MOL0     C44584   0.988   2.087   1.503 -0.4568 -0.5422 -0.5042
  331MOL0     C44585   0.919   2.016   1.608  0.2719 -1.0362 -0.0426
  331MOL0     O44586   0.973   1.897   1.663  0.4552 -0.2606  0.3507
  331MOL0     C44587   1.034   1.810   1.571  0.5373 -0.0181  0.0970
  331MOL0     C44588   1.041   1.669   1.623  0.2425  0.0947 -0.2272
  331MOL0     C44589   1.137   1.659   1.748  0.2857  0.0150  1.3118
  331MOL0     C44590   1.133   1.514   1.795  0.6601 -0.4238  0.7591
  331MOL0     C44591   1.183   1.491   1.944  0.2807 -1.5756 -0.5431
  331MOL0     C44592   1.335   1.528   1.951  0.0298 -0.3570 -0.1437
  331MOL0     C44593   1.396   1.474   2.078  0.2050  0.3936 -0.5157
  331MOL0     C44594   1.395   1.325   2.091 -0.3618  0.0528 -1.1747
  331MOL0    Cl44595   1.495   1.249   2.225 -0.3417  0.0178  0.0618
  331MOL0     C44596   0.801   2.070   1.655  0.3055  0.1943  0.7212
  331MOL0     C44597   0.753   2.193   1.601 -0.2920  0.0871 -0.1899
  331MOL0     O44598   0.900   2.451   1.300  0.6368 -0.3429 -0.2953
  331MOL0     C44599   0.648   2.644   1.422 -0.6016  0.0783  0.1977
  331MOL0     C44600   0.573   2.762   1.406 -0.1051  0.3226 -1.0919
  331MOL0     N44601   0.587   3.450   1.477  0.1790  0.3917  0.0234
  331MOL0     N44602   0.682   3.515   1.531 -0.6059 -1.0275  0.2294
  331MOL0     C44603   1.334   3.416   2.558  0.3867 -0.5228 -0.1973
  331MOL0     C44604   1.439   3.390   2.649 -0.5174 -0.0946  0.3287
  331MOL0     C44605   1.855   3.510   2.846 -0.3736  0.1644  0.2444
  331MOL0     C44606   1.817   3.492   2.982  0.3528  0.9775 -0.0194
  331MOL0     C44607   1.918   3.458   3.077  0.1388  0.0318  0.0157
  331MOL0     C44608   2.058   3.473   3.042 -0.0683 -0.1697 -0.7506
  331MOL0     O44609   2.160   3.454   3.131  0.2741  0.7038  0.7631
  331MOL0     C44610   2.146   3.344   3.234  0.7036 -0.3827  0.5856
  331MOL0     C44611   2.274   3.274   3.294 -0.1447  0.5622 -0.0045
  331MOL0     C44612   2.382   3.360   3.351 -0.5902 -0.1767  0.5245
  331MOL0     C44613   2.455   3.265   3.450  0.0785 -0.9047 -0.5295
  331MOL0     C44614   2.571   3.336   3.501  0.7272  0.4299 -0.2144
  331MOL0     C44615   2.669   3.394   3.545  0.1564 -0.5177 -0.3473
  331MOL0     C44616   2.086   3.514   2.915 -0.3055 -0.4702 -0.7162
  331MOL0     C44617   1.990   3.511   2.813 -0.0421  0.5744 -0.1419
  331MOL0     H44618   1.539   3.703   2.692 -1.0029  1.5480 -1.0809
  331MOL0     H44619   1.334   3.758   2.554  2.9061  0.7416 -1.1966
  331MOL0     H44620   1.256   3.728   2.341  0.5491 -0.7047  2.3793
  331MOL0     H44621   1.292   3.578   2.256 -1.8485 -1.3600 -0.3282
  331MOL0     H44622   1.022   3.672   2.320 -0.1275  0.5699 -0.6887
  331MOL0     H44623   1.109   3.702   2.167 -1.3110  2.4398  2.8445
  331MOL0     H44624   1.073   3.460   2.112 -0.6396  0.3257  0.4833
  331MOL0     H44625   1.042   3.436   2.294  1.2844  5.2087  3.6841
  331MOL0     H44626   0.849   3.418   2.129  1.5321  0.3571 -2.7697
  331MOL0     H44627   0.827   3.549   2.252 -1.1697  1.1458 -0.7373
  331MOL0     H44628   0.757   3.623   2.036 -0.3388  2.8551 -0.3430
  331MOL0     H44629   0.896   3.717   2.077 -0.0966  0.8776 -0.5952
  331MOL0     H44630   0.886   3.655   1.837  1.2403  0.9586  0.8321
  331MOL0     H44631   1.022   3.578   1.892  0.1838 -0.7187  0.2756
  331MOL0     H44632   0.907   3.356   1.899 -0.7459  1.2196  3.2788
  331MOL0     H44633   0.752   3.419   1.874 -0.5002 -1.1977 -3.3943
  331MOL0     H44634   0.950   3.349   1.671  1.4160  1.4336 -1.9856
  331MOL0     H44635   0.940   3.522   1.668 -0.9181  0.5605  0.8105
  331MOL0     H44636   0.742   3.190   1.585  2.6838  1.2273 -2.1413
  331MOL0     H44637   0.591   3.121   1.423  1.3436  0.5540 -0.6257
  331MOL0     H44638   0.430   3.201   1.457 -0.1424  1.8955 -0.0127
  331MOL0     H44639   0.627   3.272   1.229 -0.4293 -1.6810  0.9275
  331MOL0     H44640   0.475   3.355   1.253  1.2065  0.1327 -1.8303
  331MOL0     H44641   0.414   3.189   1.082 -2.4911 -0.7306 -0.4636
  331MOL0     H44642   0.363   3.119   1.245  1.5584  1.3377  1.3827
  331MOL0     H44643   0.641   3.069   1.144 -0.3948  1.0073 -2.0229
  331MOL0     H44644   0.496   3.006   1.064 -0.6465  0.4901  0.9596
  331MOL0     H44645   0.645   2.803   1.074 -5.3055 -1.9556 -0.3810
  331MOL0     H44646   0.854   2.513   1.073  0.7784 -0.3132  3.1757
  331MOL0     H44647   0.707   2.564   0.996  0.4895 -1.2591  1.1450
  331MOL0     H44648   0.830   2.683   1.016  0.5618 -1.0631 -0.8975
  331MOL0     H44649   1.020   2.264   1.397 -0.6622  0.2987 -0.1726
  331MOL0     H44650   1.079   2.048   1.458 -0.8697 -0.2291 -1.6329
  331MOL0     H44651   0.970   1.815   1.482  1.0845  2.5784 -0.2468
  331MOL0     H44652   1.130   1.854   1.542 -1.3369  3.6375 -1.2554
  331MOL0     H44653   0.941   1.634   1.651  0.8349 -2.8373 -1.4861
  331MOL0     H44654   1.073   1.601   1.544 -1.8651 -0.3858 -0.7170
  331MOL0     H44655   1.102   1.719   1.832  2.1783  2.1525  0.6705
  331MOL0     H44656   1.239   1.685   1.716 -0.2694 -0.4897 -1.0264
  331MOL0     H44657   1.032   1.473   1.801 -0.1807  1.6876  2.0069
  331MOL0     H44658   1.196   1.452   1.731 -1.0979 -2.6961  1.1174
  331MOL0     H44659   1.172   1.385   1.970  0.1463 -0.9475  2.3173
  331MOL0     H44660   1.134   1.558   2.016 -0.7334 -2.4145 -0.4307
  331MOL0     H44661   1.400   1.494   1.870  3.3760  1.9662  1.3617
  331MOL0     H44662   1.335   1.637   1.961  0.6203 -0.5024  1.7688
  331MOL0     H44663   1.339   1.514   2.163  1.8239 -0.5732  1.0979
  331MOL0     H44664   1.500   1.507   2.082  0.0006  1.0955 -0.8649
  331MOL0     H44665   1.442   1.280   2.003  0.4066 -0.5507 -0.4693
  331MOL0     H44666   1.295   1.293   2.119  0.8856 -1.7416  1.6642
  331MOL0     H44667   0.752   2.027   1.742  1.9457  1.7680  2.5273
  331MOL0     H44668   0.668   2.253   1.632 -0.0557  2.0979 -2.9537
  331MOL0     H44669   0.673   2.607   1.521  1.7181  0.1558 -0.2985
  331MOL0     H44670   0.521   2.809   1.489 -2.7265  1.2944 -3.1466
  331MOL0     H44671   1.274   3.334   2.520 -0.9359 -0.6473  1.9772
  331MOL0     H44672   1.450   3.292   2.694  2.7255 -0.5410 -1.0993
  331MOL0     H44673   1.713   3.488   3.013 -1.0814  4.3690 -3.4618
  331MOL0     H44674   1.885   3.438   3.179 -1.5749  2.0520 -0.0587
  331MOL0     H44675   2.090   3.396   3.311  0.6825 -1.6880  1.4889
  331MOL0     H44676   2.079   3.264   3.201 -1.1786  2.1246 -2.1611
  331MOL0     H44677   2.314   3.206   3.219  1.0076  1.7887 -0.5440
  331MOL0     H44678   2.238   3.192   3.356 -2.7763 -1.1442 -3.4336
  331MOL0     H44679   2.338   3.447   3.402  0.7906  1.4738 -0.9818
  331MOL0     H44680   2.454   3.399   3.278 -0.3704  1.3525  1.4916
  331MOL0     H44681   2.488   3.186   3.382 -0.3310 -2.1578  0.7052
  331MOL0     H44682   2.397   3.223   3.532 -2.0339 -0.7891 -1.8815
  331MOL0     H44683   2.760   3.437   3.582  2.5254 -3.2468 -2.4385
  331MOL0     H44684   2.192   3.524   2.892 -0.5860 -0.3640 -2.0004
  331MOL0     H44685   2.028   3.513   2.712  0.8206  0.1881  0.1659
  332MOL0     O44686  10.096   3.364   3.554  0.1694  0.2841 -0.5777
  332MOL0     C44687  10.063   3.368   3.673  0.5735 -0.0088  0.1611
  332MOL0     O44688   9.943   3.328   3.725 -0.0695  0.7626  0.6424
  332MOL0     C44689   9.856   3.270   3.644 -0.3575  0.4306 -0.2169
  332MOL0     C44690   9.755   3.353   3.595  0.0380 -0.2844  0.0819
  332MOL0     C44691   9.661   3.301   3.508  0.8852 -0.3796  0.3435
  332MOL0     C44692   9.672   3.166   3.469  0.6509 -0.3964 -0.0872
  332MOL0     O44693   9.590   3.120   3.370  0.9405 -0.0947  0.6910
  332MOL0     C44694   9.533   2.990   3.367 -0.5979 -0.2155 -0.0599
  332MOL0     C44695   9.434   3.007   3.248 -0.0127  0.3620  0.1452
  332MOL0     C44696   9.492   2.949   3.111  0.4216  0.8216  0.1420
  332MOL0     C44697   9.409   2.986   2.991  0.2574 -0.1448 -1.5547
  332MOL0     C44698   9.463   2.998   2.848 -0.5137  0.5353 -0.5900
  332MOL0     C44699   9.353   3.069   2.769 -1.1253  0.2035 -0.1327
  332MOL0     C44700   9.387   3.054   2.615 -0.0816  0.2537 -0.5265
  332MOL0     C44701   9.349   2.924   2.542 -0.3441  0.2169  0.2608
  332MOL0     N44702   9.204   2.923   2.514  0.6833 -0.1745 -0.7795
  332MOL0     C44703   9.114   2.886   2.611 -0.3808  0.2339  0.1147
  332MOL0     C44704   8.992   2.928   2.569 -0.4259 -0.2629 -0.2289
  332MOL0     C44705   8.855   2.904   2.629 -1.1692 -0.6803  0.7079
  332MOL0     C44706   8.794   2.767   2.609  0.3981 -0.1499 -0.3954
  332MOL0     C44707   8.651   2.772   2.663 -0.3351 -0.0395  0.9189
  332MOL0     C44708   8.565   2.643   2.663 -0.3658 -0.5223 -0.1720
  332MOL0     O44709   8.662   2.541   2.672 -0.5041 -0.0302 -0.1595
  332MOL0     C44710   8.675   2.466   2.559 -0.3835  1.1941  0.2167
  332MOL0     C44711   8.566   2.400   2.510  0.7927  0.1224 -0.1304
  332MOL0     C44712   8.565   2.320   2.397 -0.0777 -0.4771  0.7608
  332MOL0     C44713   8.431   2.267   2.360  0.0782 -0.1088  0.2118
  332MOL0     C44714   8.687   2.295   2.326  0.4420  0.0686 -0.7447
  332MOL0     C44715   8.693   2.198   2.214 -0.1398 -0.3584 -0.2645
  332MOL0     O44716   8.800   2.119   2.202  0.5516 -0.0060 -0.6085
  332MOL0     C44717   8.784   2.014   2.108 -0.3614 -0.2343  0.2570
  332MOL0     C44718   8.770   1.880   2.139  0.2094  0.4974  0.3588
  332MOL0     C44719   8.755   1.777   2.042 -0.1799 -0.7303 -0.0652
  332MOL0     C44720   8.781   1.813   1.907 -0.1963  0.5184  0.1333
  332MOL0     O44721   8.784   1.726   1.797 -0.0504  0.6700  0.1864
  332MOL0     C44722   8.842   1.593   1.824  0.6311 -0.8236  0.1043
  332MOL0     C44723   8.819   1.482   1.721 -0.6630 -0.6459  0.7253
  332MOL0     C44724   8.684   1.428   1.663  0.6866  0.9645 -0.1403
  332MOL0     C44725   8.693   1.284   1.600  0.2351  0.3289  0.7128
  332MOL0     C44726   8.557   1.234   1.533  0.6010  0.1169 -0.6546
  332MOL0     C44727   8.450   1.211   1.638 -0.5480 -0.0098 -0.5434
  332MOL0     C44728   8.473   1.092   1.730  1.2837 -0.3060  0.3991
  332MOL0     C44729   8.499   0.951   1.666  0.0590 -0.8168 -0.3187
  332MOL0    Cl44730   8.552   0.862   1.809  0.0126  0.2045  0.0100
  332MOL0     C44731   8.817   1.947   1.872  0.6361  0.3246 -0.6366
  332MOL0     C44732   8.812   2.047   1.972 -0.1652  0.1172  0.0920
  332MOL0     O44733   8.599   2.200   2.129  0.1804 -0.1256  0.2381
  332MOL0     C44734   8.800   2.344   2.389 -0.4273 -0.0421 -0.3281
  332MOL0     C44735   8.800   2.431   2.501  0.0772  0.0628  0.2450
  332MOL0     N44736   9.010   2.997   2.446 -0.1248  0.9390 -0.2985
  332MOL0     N44737   9.136   2.986   2.412 -0.0358  0.2081  0.3817
  332MOL0     C44738   9.778   3.082   3.515  0.0324  0.2644 -0.5845
  332MOL0     C44739   9.863   3.132   3.613  0.2755  0.2792  0.5089
  332MOL0     C44740  10.166   3.411   3.772  0.5628  0.9345 -0.1392
  332MOL0     C44741  10.297   3.438   3.735  0.4194  0.0175  0.2900
  332MOL0     C44742  10.381   3.491   3.836 -0.1649  0.2456  0.1115
  332MOL0     C44743  10.343   3.509   3.973 -0.4280 -1.4211 -0.6042
  332MOL0     O44744  10.441   3.547   4.063  0.3835 -0.8126  0.9573
  332MOL0     C44745  10.420   3.529   4.203  0.6766  0.6995 -0.1348
  332MOL0     C44746  10.394   3.662   4.273 -0.4181  0.1580 -0.2464
  332MOL0     C44747  10.345   3.655   4.421 -0.7395  0.0258  0.9858
  332MOL0     C44748  10.457   3.632   4.516 -0.4067 -0.1374 -0.2574
  332MOL0     C44749  10.501   3.492   4.514 -0.6287  0.1026  0.1969
  332MOL0     C44750  10.535   3.378   4.513  0.0156  0.0467 -0.4839
  332MOL0     C44751  10.210   3.481   4.008 -0.6909  0.3482 -0.0754
  332MOL0     C44752  10.124   3.433   3.904 -0.1665 -0.2152  1.1429
  332MOL0     H44753   9.732   3.454   3.630  0.4698 -0.9002  2.3019
  332MOL0     H44754   9.573   3.356   3.477 -0.2177 -3.2133 -2.0772
  332MOL0     H44755   9.599   2.906   3.346  0.3715 -0.0240  1.9600
  332MOL0     H44756   9.474   2.974   3.458 -0.9253 -4.4202 -0.8399
  332MOL0     H44757   9.339   2.959   3.274  0.4070 -0.3545  0.3740
  332MOL0     H44758   9.416   3.114   3.232  2.6108  0.9469  0.7104
  332MOL0     H44759   9.593   2.988   3.095 -0.0958  1.2715 -2.5038
  332MOL0     H44760   9.492   2.839   3.107 -1.7722  0.7798 -3.5545
  332MOL0     H44761   9.322   2.919   2.999  0.3378 -0.4124 -2.7354
  332MOL0     H44762   9.382   3.086   3.025  2.7151 -0.5361  2.1163
  332MOL0     H44763   9.552   3.061   2.843 -0.3853  0.8925  3.1871
  332MOL0     H44764   9.486   2.900   2.804  0.4597  1.7742 -2.9973
  332MOL0     H44765   9.253   3.034   2.796 -1.9351  2.0913 -0.5302
  332MOL0     H44766   9.351   3.174   2.799 -0.3341  0.8991 -2.3569
  332MOL0     H44767   9.320   3.127   2.571 -1.9781 -0.5916  0.8239
  332MOL0     H44768   9.489   3.085   2.590 -0.3741  2.4620  0.7533
  332MOL0     H44769   9.361   2.831   2.598  2.5321 -0.8774 -1.9316
  332MOL0     H44770   9.402   2.911   2.448 -1.8655 -0.7207 -0.5086
  332MOL0     H44771   9.132   2.843   2.709  0.3442  4.1853  1.9110
  332MOL0     H44772   8.853   2.930   2.735  0.9879 -1.0113  0.8868
  332MOL0     H44773   8.786   2.969   2.574 -0.4896  1.0463  1.8206
  332MOL0     H44774   8.847   2.694   2.671  0.2301 -0.2582 -0.3787
  332MOL0     H44775   8.794   2.742   2.503  1.6825  0.2499 -0.5114
  332MOL0     H44776   8.598   2.834   2.590 -1.7557 -1.9391  0.2616
  332MOL0     H44777   8.652   2.824   2.759 -0.2600 -1.7358  1.8756
  332MOL0     H44778   8.516   2.632   2.565  3.7370  0.7394 -2.6029
  332MOL0     H44779   8.495   2.645   2.746  1.8357  1.1802  1.7649
  332MOL0     H44780   8.472   2.413   2.561 -0.7418 -0.2252 -2.6806
  332MOL0     H44781   8.430   2.158   2.349 -1.0971  0.0781 -2.4008
  332MOL0     H44782   8.360   2.296   2.438  0.5078  0.2617  0.4701
  332MOL0     H44783   8.393   2.292   2.260  1.1323 -2.7107 -0.9465
  332MOL0     H44784   8.780   1.852   2.244  1.7486 -1.6551 -0.2925
  332MOL0     H44785   8.744   1.675   2.077 -0.5700  0.8716  5.3169
  332MOL0     H44786   8.949   1.608   1.836  0.9879 -2.9120 -0.2495
  332MOL0     H44787   8.798   1.551   1.915 -3.0507  1.7869 -0.2197
  332MOL0     H44788   8.878   1.513   1.635 -2.1825 -1.6141 -0.7348
  332MOL0     H44789   8.868   1.401   1.776 -0.4327 -1.0103 -0.0046
  332MOL0     H44790   8.637   1.499   1.595  0.0692  0.4138 -0.2979
  332MOL0     H44791   8.609   1.408   1.741  1.7188 -2.6022  0.1269
  332MOL0     H44792   8.769   1.291   1.522  0.9638  0.8395  1.4558
  332MOL0     H44793   8.734   1.225   1.683  3.4298  2.5839  0.9240
  332MOL0     H44794   8.582   1.146   1.472  0.0116  0.3030 -1.1618
  332MOL0     H44795   8.519   1.311   1.467 -2.2185  1.1202  1.9303
  332MOL0     H44796   8.451   1.298   1.704  0.7438 -1.0371  0.8812
  332MOL0     H44797   8.352   1.205   1.590 -1.3414  1.2121  0.8477
  332MOL0     H44798   8.387   1.066   1.792  1.2878 -3.1968 -0.6637
  332MOL0     H44799   8.546   1.124   1.805  1.6975 -2.1032  0.8205
  332MOL0     H44800   8.584   0.942   1.598  0.7446 -3.2481  0.7401
  332MOL0     H44801   8.411   0.902   1.622  0.2660 -1.1901 -0.3237
  332MOL0     H44802   8.836   1.965   1.767 -0.1910 -1.8687 -1.2276
  332MOL0     H44803   8.836   2.150   1.946 -1.4050  0.8397  1.6173
  332MOL0     H44804   8.893   2.336   2.333  0.5580  1.2484  1.0312
  332MOL0     H44805   8.886   2.479   2.547  0.1746 -0.2586  0.4020
  332MOL0     H44806   9.793   2.992   3.457 -1.4203  1.4589 -2.9831
  332MOL0     H44807   9.940   3.073   3.660  1.2357  0.6763 -0.5326
  332MOL0     H44808  10.333   3.422   3.634 -0.2110 -1.9316  0.3098
  332MOL0     H44809  10.484   3.525   3.826  0.3071 -0.2813  2.5210
  332MOL0     H44810  10.336   3.464   4.231  0.6041  1.0039  0.3636
  332MOL0     H44811  10.511   3.483   4.243  0.4118  3.0970  3.6655
  332MOL0     H44812  10.312   3.711   4.220 -0.6784 -1.5140 -1.4757
  332MOL0     H44813  10.480   3.729   4.276 -0.2506  0.0836 -2.2441
  332MOL0     H44814  10.259   3.590   4.437 -1.5818  1.6763  3.9367
  332MOL0     H44815  10.315   3.758   4.444 -1.1024 -0.4907  2.9989
  332MOL0     H44816  10.416   3.658   4.614 -1.5994 -0.4889 -0.6541
  332MOL0     H44817  10.546   3.696   4.509  0.0140 -0.5749  0.8555
  332MOL0     H44818  10.587   3.285   4.505  3.0229  1.4240  1.4207
  332MOL0     H44819  10.180   3.497   4.111  1.6977  2.4420  0.4058
  332MOL0     H44820  10.022   3.412   3.935 -1.1655  1.3201 -0.9102
  333MOL0     O44821   5.146  10.399   8.454  0.0550  0.3722 -0.2733
  333MOL0     C44822   5.180  10.314   8.539 -0.1080  0.5799  0.2802
  333MOL0     O44823   5.103  10.205   8.573 -0.1728  0.0905 -0.2682
  333MOL0     C44824   4.968  10.223   8.585 -0.7025 -1.6309 -0.3918
  333MOL0     C44825   4.909  10.340   8.616 -0.1757 -0.3030 -0.3847
  333MOL0     C44826   4.775  10.357   8.636  0.0595 -1.0790  0.7523
  333MOL0     C44827   4.693  10.243   8.641  0.2948  0.3063  0.9324
  333MOL0     O44828   4.565  10.263   8.687  0.4530 -0.4664 -0.5459
  333MOL0     C44829   4.475  10.155   8.723 -0.5573 -1.2377  0.3010
  333MOL0     C44830   4.345  10.226   8.762  0.4448 -0.7005  0.7657
  333MOL0     C44831   4.246  10.273   8.651 -0.6276  0.4422 -0.4079
  333MOL0     C44832   4.309  10.304   8.514 -0.5190 -0.8273  0.7836
  333MOL0     C44833   4.217  10.312   8.393  0.0130 -0.9880  0.9881
  333MOL0     C44834   4.313  10.347   8.274  0.2338 -0.0714  0.1622
  333MOL0     C44835   4.227  10.367   8.149 -0.3775  0.2175 -0.6661
  333MOL0     C44836   4.159  10.501   8.154  0.0117  0.0906  0.2585
  333MOL0     N44837   4.135  10.562   8.019 -1.1983  0.8569 -0.0037
  333MOL0     C44838   4.039  10.521   7.928 -0.1742  0.0695 -0.4507
  333MOL0     C44839   4.054  10.595   7.815  0.2327  0.2384  0.2084
  333MOL0     C44840   3.979  10.577   7.684 -0.6117 -0.3024 -0.5841
  333MOL0     C44841   4.056  10.471   7.600 -0.3603  0.3649 -0.4032
  333MOL0     C44842   4.086  10.335   7.663  0.4417 -0.2328  0.4482
  333MOL0     C44843   3.954  10.266   7.705 -0.5653 -0.0855 -0.1401
  333MOL0     O44844   3.972  10.133   7.739 -0.3279  0.1756 -0.4200
  333MOL0     C44845   3.953  10.044   7.624 -0.0323  0.6711 -0.1998
  333MOL0     C44846   3.839   9.971   7.612  0.8203 -0.2736  0.2147
  333MOL0     C44847   3.818   9.872   7.511 -1.2483 -0.3366  0.1431
  333MOL0     C44848   3.701   9.777   7.519 -0.6547 -0.2722 -0.1241
  333MOL0     C44849   3.907   9.875   7.397  0.0068  1.7975  0.2400
  333MOL0     C44850   3.896   9.795   7.265 -0.0366  0.1075 -0.5846
  333MOL0     O44851   3.776   9.731   7.253  0.1049  0.4665  0.0200
  333MOL0     C44852   3.753   9.652   7.147  0.4994  0.9254 -0.2275
  333MOL0     C44853   3.823   9.545   7.115  0.0826  0.8356 -0.5275
  333MOL0     C44854   3.823   9.483   6.990 -0.0314 -0.1447  0.1300
  333MOL0     C44855   3.737   9.535   6.896 -0.2320 -0.3465 -0.1204
  333MOL0     O44856   3.727   9.488   6.770 -0.1167  0.7028 -0.0001
  333MOL0     C44857   3.848   9.453   6.694 -0.3848  0.1530 -0.1372
  333MOL0     C44858   3.964   9.542   6.687 -0.4812 -0.3720  0.4378
  333MOL0     C44859   3.943   9.690   6.650  1.0468  0.7022  0.8130
  333MOL0     C44860   4.015   9.768   6.761  0.0785  0.3755 -0.3984
  333MOL0     C44861   3.988   9.916   6.749 -0.8757 -0.4248 -0.4805
  333MOL0     C44862   4.062   9.994   6.856  0.0240  0.8454 -0.2879
  333MOL0     C44863   4.061  10.150   6.847  0.0995  0.2265  0.2019
  333MOL0     C44864   4.137  10.219   6.951 -0.2139  0.8217 -0.1144
  333MOL0    Cl44865   4.042  10.242   7.110  0.6839 -0.4984  0.3036
  333MOL0     C44866   3.649   9.648   6.930  0.1328  0.3014 -0.0250
  333MOL0     C44867   3.669   9.707   7.056  0.4808  0.5480 -0.3761
  333MOL0     O44868   4.000   9.783   7.195  0.2621  0.9740 -0.5425
  333MOL0     C44869   4.029   9.948   7.419  0.2348 -0.6793  0.9202
  333MOL0     C44870   4.041  10.033   7.528  0.5856  0.0948  0.0117
  333MOL0     N44871   4.158  10.690   7.849  0.1546  0.6667  0.4203
  333MOL0     N44872   4.210  10.658   7.959 -0.4795 -0.7424 -0.7750
  333MOL0     C44873   4.746  10.118   8.624 -0.7378 -0.4766 -0.3085
  333MOL0     C44874   4.888  10.109   8.602 -0.1268  0.6189 -0.4919
  333MOL0     C44875   5.330  10.305   8.568  0.4283 -0.8453 -0.8626
  333MOL0     C44876   5.420  10.362   8.468 -0.1713  0.0336 -0.0522
  333MOL0     C44877   5.555  10.362   8.500 -0.5560 -1.3171 -0.3545
  333MOL0     C44878   5.609  10.303   8.619  0.2206 -0.4578  0.2767
  333MOL0     O44879   5.742  10.306   8.650 -0.1422  0.2228  0.1926
  333MOL0     C44880   5.830  10.411   8.591  0.9987  0.0494 -0.2151
  333MOL0     C44881   5.898  10.367   8.468 -0.9423 -0.2875  0.6035
  333MOL0     C44882   6.006  10.274   8.509  0.2927  0.8815  0.5721
  333MOL0     C44883   6.108  10.267   8.396  0.0440  0.4227  0.4524
  333MOL0     C44884   6.055  10.242   8.259 -0.1051 -0.7953 -0.6989
  333MOL0     C44885   6.013  10.230   8.142  0.3735  0.4229 -0.1154
  333MOL0     C44886   5.518  10.250   8.710 -0.2693  0.3233  0.9416
  333MOL0     C44887   5.381  10.252   8.688 -0.1816  0.1822  0.2153
  333MOL0     H44888   4.960  10.432   8.589 -1.6248  0.8628  0.6372
  333MOL0     H44889   4.734  10.457   8.646  0.0968 -0.9181 -0.5161
  333MOL0     H44890   4.452  10.086   8.641 -1.0127 -0.4025 -0.2999
  333MOL0     H44891   4.520  10.111   8.812  1.2342 -1.1515 -0.5219
  333MOL0     H44892   4.284  10.158   8.822 -0.8711  1.7703  2.3824
  333MOL0     H44893   4.381  10.306   8.827  2.5337 -0.2471 -0.8413
  333MOL0     H44894   4.173  10.191   8.643 -3.3283  2.8015 -1.7861
  333MOL0     H44895   4.187  10.360   8.683  0.3230  0.6538  0.8612
  333MOL0     H44896   4.368  10.396   8.520 -0.6049 -0.6838 -0.3005
  333MOL0     H44897   4.384  10.233   8.479 -0.2752  0.1710 -0.8492
  333MOL0     H44898   4.169  10.219   8.363  0.5957 -0.4193 -1.9602
  333MOL0     H44899   4.155  10.402   8.403  0.6408  0.1061 -3.1258
  333MOL0     H44900   4.386  10.427   8.285  1.0092 -0.3309 -2.4290
  333MOL0     H44901   4.374  10.256   8.264  2.2387  1.2564 -0.2238
  333MOL0     H44902   4.287  10.355   8.058 -0.6073 -3.8745 -0.4707
  333MOL0     H44903   4.158  10.281   8.147  0.2654 -0.3915  1.3181
  333MOL0     H44904   4.229  10.575   8.193 -0.8536  1.1834 -0.2045
  333MOL0     H44905   4.059  10.492   8.196 -0.7281 -1.1835 -1.6351
  333MOL0     H44906   3.976  10.434   7.945  1.3535 -1.2303 -1.1132
  333MOL0     H44907   3.879  10.540   7.711 -0.5850 -0.1962 -0.3347
  333MOL0     H44908   3.965  10.675   7.638 -3.4107  1.1485  2.8809
  333MOL0     H44909   4.157  10.500   7.572  1.3511 -1.5948  3.0410
  333MOL0     H44910   3.993  10.450   7.513  0.3894 -0.4374 -0.7654
  333MOL0     H44911   4.156  10.337   7.747  0.9987 -3.1341  0.1594
  333MOL0     H44912   4.134  10.283   7.579  0.0330  1.2680 -0.7833
  333MOL0     H44913   3.891  10.275   7.616  0.2450  0.3627 -0.6801
  333MOL0     H44914   3.912  10.327   7.785  1.0891 -0.8879  1.4021
  333MOL0     H44915   3.767   9.978   7.693  0.2095 -1.3376 -0.2144
  333MOL0     H44916   3.726   9.675   7.490 -1.7566 -0.9909  1.3461
  333MOL0     H44917   3.667   9.773   7.623  1.4979  0.1641  0.6443
  333MOL0     H44918   3.613   9.814   7.465 -1.9045  2.5975  3.4748
  333MOL0     H44919   3.904   9.507   7.176 -0.2161 -0.0609 -0.6704
  333MOL0     H44920   3.883   9.397   6.962 -0.4507 -0.1425 -0.7990
  333MOL0     H44921   3.885   9.353   6.718  0.1568  0.6959  1.3680
  333MOL0     H44922   3.822   9.440   6.588  1.7927 -2.2983 -0.4839
  333MOL0     H44923   4.004   9.531   6.789 -1.8145 -1.7877  0.8427
  333MOL0     H44924   4.026   9.496   6.610  0.0603  0.1292  0.5683
  333MOL0     H44925   3.835   9.708   6.651  0.8302 -0.2698 -1.1779
  333MOL0     H44926   3.979   9.716   6.550  0.6931 -1.6661  0.0067
  333MOL0     H44927   3.972   9.733   6.855 -0.1045 -0.6625 -0.8486
  333MOL0     H44928   4.120   9.735   6.761 -0.0275 -0.1034 -2.7378
  333MOL0     H44929   3.882   9.940   6.766 -0.1675  1.1294  2.3628
  333MOL0     H44930   4.017   9.947   6.648  5.5218  3.0634  1.8555
  333MOL0     H44931   3.999   9.978   6.944 -0.8206  2.3466 -0.5708
  333MOL0     H44932   4.160   9.950   6.876 -0.3346  1.2025  2.8429
  333MOL0     H44933   3.955  10.177   6.850  0.2005  0.6011  0.6970
  333MOL0     H44934   4.096  10.182   6.748  0.8003  0.0153  0.3782
  333MOL0     H44935   4.154  10.320   6.912 -2.3665  0.4945 -2.0991
  333MOL0     H44936   4.226  10.157   6.963 -1.6828 -1.8388 -1.8608
  333MOL0     H44937   3.584   9.693   6.856  0.5822  2.3150  0.7151
  333MOL0     H44938   3.614   9.799   7.073  1.6148  1.3962 -1.1138
  333MOL0     H44939   4.104   9.963   7.342  1.6186  0.3834  2.3962
  333MOL0     H44940   4.136  10.085   7.529  0.8147 -0.3251  1.1260
  333MOL0     H44941   4.677  10.036   8.637 -1.5138  0.1727 -0.2629
  333MOL0     H44942   4.927  10.010   8.581  1.3236 -0.0733  4.1898
  333MOL0     H44943   5.383  10.401   8.374 -0.3576 -1.2856 -0.5487
  333MOL0     H44944   5.624  10.410   8.431 -2.1581  0.5634 -0.7107
  333MOL0     H44945   5.782  10.509   8.594  2.7880  0.9359  1.9717
  333MOL0     H44946   5.913  10.431   8.659 -1.0018  2.7562  1.6288
  333MOL0     H44947   5.956  10.444   8.415 -0.8416 -0.6202  0.2305
  333MOL0     H44948   5.829  10.313   8.402 -0.5323  0.0102 -0.0870
  333MOL0     H44949   5.967  10.174   8.532  2.3694  0.4658  2.6576
  333MOL0     H44950   6.054  10.308   8.601 -0.3774  2.2344  0.4374
  333MOL0     H44951   6.191  10.197   8.410  1.4418  1.8541 -0.2681
  333MOL0     H44952   6.159  10.363   8.409 -2.4910  1.9111  0.0263
  333MOL0     H44953   5.978  10.235   8.041 -0.0591  1.2532  0.0640
  333MOL0     H44954   5.534  10.199   8.804  0.7617 -2.3753 -0.5846
  333MOL0     H44955   5.310  10.220   8.763 -1.3233 -3.9616 -2.3096
  334MOL0     O44956   1.448   7.990   7.440 -0.0834 -0.5494 -0.0015
  334MOL0     C44957   1.497   8.034   7.544 -0.3183 -0.6500  0.1130
  334MOL0     O44958   1.425   8.073   7.654  0.1132 -0.1176  0.2170
  334MOL0     C44959   1.290   8.043   7.660 -0.2375  0.2194  0.2975
  334MOL0     C44960   1.243   7.910   7.645 -0.0310 -0.0509 -0.0997
  334MOL0     C44961   1.105   7.877   7.643 -0.4247  0.0212 -0.8334
  334MOL0     C44962   1.014   7.980   7.645  0.2564  0.3777 -1.5137
  334MOL0     O44963   0.880   7.935   7.621  0.1829 -0.5400 -0.1143
  334MOL0     C44964   0.764   8.028   7.640 -0.4666  0.5684  0.3584
  334MOL0     C44965   0.704   7.993   7.779  0.6667 -0.1329 -0.1383
  334MOL0     C44966   0.630   8.126   7.830 -0.7974  0.2924 -0.8897
  334MOL0     C44967   0.558   8.081   7.961 -0.4795 -0.4078 -0.0543
  334MOL0     C44968   0.464   8.186   8.012 -0.3582  0.3014  0.2185
  334MOL0     C44969   0.410   8.125   8.142  0.6885  0.8942  0.2242
  334MOL0     C44970   0.357   8.228   8.246 -1.1356  0.1182  0.0176
  334MOL0     C44971   0.283   8.145   8.354 -0.1197  0.5562 -0.5916
  334MOL0     N44972   0.220   8.241   8.448  1.2003  0.5694  0.6388
  334MOL0     C44973   0.279   8.298   8.552 -0.9180 -0.8263  0.1154
  334MOL0     C44974   0.173   8.365   8.611 -0.2204  1.7366 -0.4934
  334MOL0     C44975   0.181   8.451   8.735 -0.0061 -0.0668 -0.2507
  334MOL0     C44976   0.213   8.594   8.689 -0.0891 -0.6195 -0.5977
  334MOL0     C44977   0.182   8.706   8.791  0.2709  0.4432 -0.5350
  334MOL0     C44978   0.183   8.848   8.730  0.2058 -0.2074 -0.9154
  334MOL0     O44979   0.105   8.939   8.820  1.7492  0.1213  0.1437
  334MOL0     C44980   0.094   9.066   8.776  0.1543  0.0193  0.9900
  334MOL0     C44981   0.034   9.158   8.852 -0.5144 -0.4056 -0.3024
  334MOL0     C44982  -0.005   9.282   8.813  0.3467 -0.0907  0.2833
  334MOL0     C44983  -0.045   9.384   8.919 -0.3042 -0.0805  0.4498
  334MOL0     C44984   0.007   9.319   8.669  0.4472 -0.0403 -0.3370
  334MOL0     C44985  -0.046   9.444   8.615  0.2865  0.4508  1.1001
  334MOL0     O44986  -0.018   9.563   8.689  0.0404  0.0064  0.5206
  334MOL0     C44987  -0.099   9.666   8.685  0.0645 -0.2974 -0.4082
  334MOL0     C44988  -0.227   9.663   8.649  0.5973 -0.1764  0.0240
  334MOL0     C44989  -0.301   9.781   8.630 -0.3602  0.9059 -0.1183
  334MOL0     C44990  -0.243   9.902   8.651 -0.4880 -0.8663  0.8856
  334MOL0     O44991  -0.300  10.023   8.648 -0.3391  0.1051  0.4698
  334MOL0     C44992  -0.433  10.045   8.586  0.2357  0.0348 -0.0938
  334MOL0     C44993  -0.501  10.164   8.655 -0.0508 -0.7004  0.1413
  334MOL0     C44994  -0.597  10.234   8.558 -0.2036  0.5027 -0.4529
  334MOL0     C44995  -0.751  10.227   8.609 -0.4696  0.2331 -0.7795
  334MOL0     C44996  -0.849  10.294   8.512 -0.0912  0.2429 -0.0389
  334MOL0     C44997  -0.827  10.449   8.506 -0.5882 -0.1907  0.5204
  334MOL0     C44998  -0.899  10.530   8.400 -0.1374  0.9172 -0.2660
  334MOL0     C44999  -0.886  10.677   8.424 -0.6527  0.1366 -0.2652
  334MOL0    Cl45000  -0.726  10.736   8.396  0.0725 -0.3376 -0.2359
  334MOL0     C45001  -0.106   9.904   8.681  0.6864 -0.5240 -0.0900
  334MOL0     C45002  -0.037   9.788   8.717  0.3919 -0.7137  0.3914
  334MOL0     O45003  -0.132   9.429   8.520  0.5063 -0.8588 -0.3753
  334MOL0     C45004   0.061   9.221   8.594 -1.3249  0.7932  0.6464
  334MOL0     C45005   0.118   9.100   8.646 -1.2000 -0.4900 -1.1163
  334MOL0     N45006   0.056   8.326   8.544  0.1311 -0.3841 -0.1318
  334MOL0     N45007   0.085   8.262   8.438  0.2181  0.6515 -0.1369
  334MOL0     C45008   1.058   8.110   7.667 -0.7013 -0.3069 -0.4123
  334MOL0     C45009   1.193   8.136   7.666  0.2264 -0.1608 -0.0677
  334MOL0     C45010   1.630   8.094   7.526  0.2528  0.0057  0.3649
  334MOL0     C45011   1.708   8.124   7.638  0.9107  0.9618  1.1842
  334MOL0     C45012   1.830   8.171   7.612 -0.2583 -1.0605 -0.1643
  334MOL0     C45013   1.884   8.218   7.483 -0.3109 -0.2405  0.8843
  334MOL0     O45014   2.010   8.262   7.455  0.0256  0.1821 -0.1898
  334MOL0     C45015   2.110   8.231   7.553  0.0464  0.2203  0.1265
  334MOL0     C45016   2.134   8.363   7.638 -0.3575 -0.2885 -0.8115
  334MOL0     C45017   2.242   8.335   7.742  0.5461  0.1273  0.8473
  334MOL0     C45018   2.379   8.316   7.677 -0.4079 -0.6974 -0.0839
  334MOL0     C45019   2.487   8.322   7.773  0.3402  0.0973  0.1071
  334MOL0     C45020   2.584   8.321   7.834 -0.1298  0.3400  0.4925
  334MOL0     C45021   1.791   8.206   7.380 -1.4096 -1.7038  0.0538
  334MOL0     C45022   1.672   8.137   7.399  0.5337 -0.4637  0.0567
  334MOL0     H45023   1.311   7.826   7.630 -0.6562 -0.2534 -2.0848
  334MOL0     H45024   1.078   7.774   7.622 -0.2812  0.0801 -1.3220
  334MOL0     H45025   0.801   8.130   7.630  0.8304  0.4005  2.7704
  334MOL0     H45026   0.686   7.996   7.570  0.5876 -0.6531 -0.2926
  334MOL0     H45027   0.630   7.913   7.768 -2.8607  2.9139 -0.3894
  334MOL0     H45028   0.783   7.976   7.854  0.2491  0.6240  0.4915
  334MOL0     H45029   0.705   8.205   7.832  0.1948 -0.6281  0.6601
  334MOL0     H45030   0.543   8.141   7.766 -3.4962 -3.1022  1.6190
  334MOL0     H45031   0.506   7.987   7.938 -1.0769 -0.3357  0.9465
  334MOL0     H45032   0.635   8.055   8.034 -0.8472  1.4278  1.0368
  334MOL0     H45033   0.515   8.281   8.027 -0.3268  0.9059 -2.9759
  334MOL0     H45034   0.392   8.203   7.932 -0.1160  0.9962  0.1454
  334MOL0     H45035   0.337   8.045   8.126 -2.1403  2.8373  2.2806
  334MOL0     H45036   0.485   8.071   8.199 -1.9713 -1.7157  1.4807
  334MOL0     H45037   0.442   8.285   8.283 -0.6234  0.2802 -1.3274
  334MOL0     H45038   0.294   8.300   8.193  0.8149 -0.3400 -3.1840
  334MOL0     H45039   0.363   8.093   8.408  2.8738  1.6647 -3.5313
  334MOL0     H45040   0.216   8.072   8.310  1.6129 -1.6514  0.2619
  334MOL0     H45041   0.384   8.297   8.579 -0.6334  1.1704 -0.7540
  334MOL0     H45042   0.076   8.468   8.762  0.2089  1.0946 -0.0875
  334MOL0     H45043   0.250   8.411   8.810 -1.4041 -0.5966  0.8142
  334MOL0     H45044   0.160   8.625   8.599 -0.8108  2.6412  0.8065
  334MOL0     H45045   0.320   8.594   8.667 -0.1585  2.8116 -1.4742
  334MOL0     H45046   0.243   8.702   8.881 -0.4406  0.8845 -0.0257
  334MOL0     H45047   0.082   8.680   8.829 -0.2773 -0.4193 -2.4047
  334MOL0     H45048   0.134   8.829   8.634 -1.3048 -1.9277  0.1409
  334MOL0     H45049   0.282   8.894   8.721  0.2474 -0.1347 -0.1215
  334MOL0     H45050   0.009   9.139   8.956 -0.3347 -0.7424 -0.3178
  334MOL0     H45051  -0.028   9.355   9.023  1.2938  1.2758  0.6266
  334MOL0     H45052   0.019   9.473   8.921 -0.0488 -0.2699  1.0124
  334MOL0     H45053  -0.152   9.405   8.910 -0.5965 -2.0624 -1.3182
  334MOL0     H45054  -0.288   9.573   8.646 -0.9024  0.8230 -0.4227
  334MOL0     H45055  -0.409   9.768   8.618 -0.2631  0.1621 -0.2182
  334MOL0     H45056  -0.421  10.062   8.479  1.5811  1.2398  0.2241
  334MOL0     H45057  -0.498   9.957   8.585  1.1487 -0.7013  1.8460
  334MOL0     H45058  -0.559  10.125   8.739 -1.3926 -0.5839 -0.7022
  334MOL0     H45059  -0.424  10.229   8.697  0.2521 -0.8788 -0.1292
  334MOL0     H45060  -0.577  10.186   8.462  0.6997  0.3922 -0.2148
  334MOL0     H45061  -0.569  10.340   8.563 -3.3701  1.4156  0.8923
  334MOL0     H45062  -0.773  10.120   8.618  3.5505 -0.7258 -0.1705
  334MOL0     H45063  -0.779  10.267   8.707 -4.2374 -6.1661  1.3563
  334MOL0     H45064  -0.951  10.274   8.547 -0.8011 -1.0175 -2.5766
  334MOL0     H45065  -0.833  10.253   8.412 -0.1841 -1.0159  0.4445
  334MOL0     H45066  -0.840  10.492   8.605 -2.0693  2.8911 -0.8580
  334MOL0     H45067  -0.721  10.466   8.484 -0.1620 -0.3572  2.3014
  334MOL0     H45068  -1.003  10.497   8.394  0.2011 -0.4164  0.7049
  334MOL0     H45069  -0.842  10.511   8.309  0.9095  3.0211 -0.1031
  334MOL0     H45070  -0.923  10.695   8.525  2.5403  2.5156  0.6689
  334MOL0     H45071  -0.955  10.726   8.354 -2.0189 -0.0123  0.9314
  334MOL0     H45072  -0.061  10.002   8.695 -1.5469  0.2714  2.5785
  334MOL0     H45073   0.066   9.803   8.748 -0.0397  0.9453  1.1477
  334MOL0     H45074   0.067   9.246   8.489 -2.6345  2.0398  0.8386
  334MOL0     H45075   0.167   9.034   8.575  2.3296  0.0487  0.6399
  334MOL0     H45076   0.990   8.192   7.690 -1.3858 -0.2888 -2.3061
  334MOL0     H45077   1.228   8.239   7.669  1.0592 -0.2885 -2.8773
  334MOL0     H45078   1.679   8.090   7.737 -2.2407 -1.0247 -0.2414
  334MOL0     H45079   1.902   8.175   7.694 -0.9307 -1.3869  0.4577
  334MOL0     H45080   2.087   8.144   7.616 -1.2542 -0.2499 -0.9422
  334MOL0     H45081   2.202   8.211   7.497  0.5205  2.1061  0.1807
  334MOL0     H45082   2.049   8.391   7.701  2.1858 -0.6493  3.1044
  334MOL0     H45083   2.164   8.447   7.574 -0.1750 -0.5542 -1.0769
  334MOL0     H45084   2.222   8.247   7.804 -1.9089 -0.1220 -0.1997
  334MOL0     H45085   2.251   8.415   7.817  0.1501 -0.2288  1.2812
  334MOL0     H45086   2.393   8.397   7.605  0.9123 -0.4004  0.4912
  334MOL0     H45087   2.393   8.226   7.616 -0.3175 -0.3614 -0.5630
  334MOL0     H45088   2.671   8.309   7.896  0.1818 -0.0108 -0.0037
  334MOL0     H45089   1.812   8.243   7.281  0.7123  1.2788  1.4690
  334MOL0     H45090   1.599   8.129   7.319  1.2993  0.2593 -0.7294
  335MOL0     O45091   0.909   3.866  10.750 -0.2932 -0.0424  0.7521
  335MOL0     C45092   0.817   3.934  10.805  0.1922 -0.1683  0.1188
  335MOL0     O45093   0.761   3.900  10.927  0.7529 -1.1614 -0.5557
  335MOL0     C45094   0.821   3.803  11.009 -1.0522 -0.2939 -0.3971
  335MOL0     C45095   0.803   3.663  10.995 -0.1776 -0.6756  0.5778
  335MOL0     C45096   0.851   3.568  11.088 -0.4342  0.0362 -0.0627
  335MOL0     C45097   0.896   3.610  11.212 -0.0144  0.7352 -0.1180
  335MOL0     O45098   0.934   3.541  11.325  0.8154  0.4644 -0.0128
  335MOL0     C45099   0.968   3.398  11.314 -0.1388  0.4568  1.1194
  335MOL0     C45100   0.913   3.330  11.435 -0.1175  0.6718 -0.6277
  335MOL0     C45101   0.887   3.184  11.405 -0.1907  0.5379  0.9010
  335MOL0     C45102   0.899   3.087  11.527 -0.4977 -0.3345  0.7691
  335MOL0     C45103   0.923   2.939  11.500 -0.2065  0.8225 -0.0057
  335MOL0     C45104   0.916   2.865  11.636 -0.2574  0.4360 -0.5069
  335MOL0     C45105   0.951   2.719  11.614 -0.4561 -0.1963  0.8882
  335MOL0     C45106   1.105   2.706  11.614 -0.6069  0.5583  0.7171
  335MOL0     N45107   1.150   2.563  11.609  0.0816  0.5752  0.1929
  335MOL0     C45108   1.139   2.489  11.500 -0.5913  0.4234 -0.7130
  335MOL0     C45109   1.234   2.395  11.517  0.0534  1.1448 -0.5444
  335MOL0     C45110   1.269   2.292  11.412  0.2110 -0.0618 -0.1972
  335MOL0     C45111   1.379   2.336  11.310  0.1756 -0.3262 -0.4493
  335MOL0     C45112   1.329   2.424  11.204 -0.4583 -0.3276 -0.3083
  335MOL0     C45113   1.203   2.379  11.131 -0.6252  0.2766  0.5257
  335MOL0     O45114   1.078   2.424  11.183 -0.2745 -0.1882  0.2853
  335MOL0     C45115   0.961   2.394  11.124  0.1808  0.1508 -0.2066
  335MOL0     C45116   0.957   2.296  11.019 -1.0989  0.4184  0.0217
  335MOL0     C45117   0.833   2.251  10.959  0.2866 -0.7035  0.1837
  335MOL0     C45118   0.822   2.143  10.850 -0.1659  0.2788  0.4382
  335MOL0     C45119   0.719   2.312  11.009 -0.2080 -0.7726 -0.6816
  335MOL0     C45120   0.585   2.280  10.957 -0.0490  1.0581  0.4535
  335MOL0     O45121   0.547   2.150  10.947 -0.0804  0.2421 -0.0808
  335MOL0     C45122   0.423   2.127  10.898 -0.5982 -1.1506  0.7643
  335MOL0     C45123   0.312   2.114  10.970 -1.3030  0.1627 -0.5227
  335MOL0     C45124   0.190   2.072  10.907  1.0864  0.4715 -0.4021
  335MOL0     C45125   0.183   2.048  10.766 -0.3857 -0.1501  0.1826
  335MOL0     O45126   0.073   1.996  10.696 -0.1694 -0.1751 -0.4252
  335MOL0     C45127  -0.042   1.959  10.783  0.6001  0.0858  0.8940
  335MOL0     C45128  -0.128   1.861  10.701  0.6880 -0.0973 -0.1874
  335MOL0     C45129  -0.248   1.794  10.774  0.7316  0.3111  0.3599
  335MOL0     C45130  -0.217   1.680  10.877 -0.5830 -0.3819 -0.5308
  335MOL0     C45131  -0.351   1.616  10.916 -0.1850 -0.1973 -1.0721
  335MOL0     C45132  -0.422   1.717  11.005  0.1794 -0.3854  0.2196
  335MOL0     C45133  -0.521   1.641  11.091  0.0868  1.0213 -0.4062
  335MOL0     C45134  -0.608   1.737  11.177  0.3904  1.0596  0.2479
  335MOL0    Cl45135  -0.684   1.872  11.078  0.0355 -0.1319 -0.1521
  335MOL0     C45136   0.305   2.068  10.689  1.1150  1.2451 -0.6120
  335MOL0     C45137   0.421   2.109  10.754 -0.9310 -0.5063 -0.1856
  335MOL0     O45138   0.519   2.369  10.915  0.4152  0.1461  0.5608
  335MOL0     C45139   0.722   2.390  11.121  0.6882 -0.1644  1.4875
  335MOL0     C45140   0.838   2.441  11.180 -0.2980  0.5342  0.3725
  335MOL0     N45141   1.288   2.407  11.644 -0.3590  0.1898 -0.2998
  335MOL0     N45142   1.230   2.509  11.698 -0.6226  0.6586 -0.8948
  335MOL0     C45143   0.895   3.750  11.231  0.8594  0.1506 -0.1999
  335MOL0     C45144   0.866   3.840  11.135 -0.2640 -0.1120  0.2104
  335MOL0     C45145   0.748   4.048  10.742 -1.2240 -0.1836  0.1287
  335MOL0     C45146   0.785   4.075  10.603 -0.6403 -0.1890 -0.3604
  335MOL0     C45147   0.725   4.175  10.541 -0.3679  0.4186  0.4246
  335MOL0     C45148   0.625   4.249  10.600 -0.5648 -0.2581  0.9496
  335MOL0     O45149   0.547   4.349  10.542 -0.2372  0.2679 -0.6634
  335MOL0     C45150   0.598   4.434  10.437  0.2939 -0.3044 -0.1840
  335MOL0     C45151   0.502   4.405  10.320  0.2253  0.1854 -0.5298
  335MOL0     C45152   0.353   4.427  10.343 -0.4803 -0.8159 -0.1553
  335MOL0     C45153   0.257   4.319  10.281  0.4053 -0.1233  0.6651
  335MOL0     C45154   0.116   4.356  10.299  0.1414 -0.3520 -0.7143
  335MOL0     C45155  -0.001   4.395  10.311 -0.6085  0.7300  0.2032
  335MOL0     C45156   0.593   4.233  10.737  0.2525  0.1034  0.7582
  335MOL0     C45157   0.659   4.131  10.809 -0.0321 -1.2135 -0.3375
  335MOL0     H45158   0.754   3.624  10.906 -1.0428  1.2523  0.1585
  335MOL0     H45159   0.834   3.463  11.066 -1.9157  0.2778 -0.1894
  335MOL0     H45160   0.926   3.344  11.229  0.7103  2.3065 -0.5532
  335MOL0     H45161   1.077   3.390  11.307 -0.1149  0.6465  1.2634
  335MOL0     H45162   0.985   3.330  11.518 -0.0123 -2.8667 -0.5613
  335MOL0     H45163   0.813   3.374  11.447 -1.6388 -1.9869 -2.5938
  335MOL0     H45164   0.796   3.163  11.349  1.3928  0.7092 -1.9723
  335MOL0     H45165   0.967   3.149  11.338 -0.7581 -0.0457  0.5160
  335MOL0     H45166   0.973   3.123  11.599  0.9990 -0.8148 -0.4817
  335MOL0     H45167   0.803   3.083  11.579 -2.0299  1.4590 -1.7015
  335MOL0     H45168   0.846   2.897  11.435 -1.7662  0.0626  2.2232
  335MOL0     H45169   1.025   2.924  11.463  0.0629  0.8775  0.7144
  335MOL0     H45170   0.986   2.901  11.712 -0.7717 -0.2172  0.2937
  335MOL0     H45171   0.817   2.882  11.680 -0.4130  0.0009 -0.6877
  335MOL0     H45172   0.905   2.662  11.695  0.8618  1.9192  3.2970
  335MOL0     H45173   0.913   2.683  11.519 -2.2848 -0.7360  1.7721
  335MOL0     H45174   1.162   2.758  11.691  1.9942 -2.3722  0.9352
  335MOL0     H45175   1.140   2.746  11.518  2.2728 -4.2429 -0.5442
  335MOL0     H45176   1.077   2.505  11.412 -1.4772  1.0605  0.0011
  335MOL0     H45177   1.304   2.202  11.463  0.7885  0.0107 -0.4491
  335MOL0     H45178   1.184   2.268  11.348  0.1502  3.0778 -1.4961
  335MOL0     H45179   1.422   2.244  11.269 -0.5593 -1.7571  1.7927
  335MOL0     H45180   1.455   2.392  11.367 -0.2435  4.1423 -3.7089
  335MOL0     H45181   1.407   2.426  11.127 -0.4036  1.2663 -0.2436
  335MOL0     H45182   1.315   2.527  11.237  2.8759  0.7967 -1.9890
  335MOL0     H45183   1.207   2.272  11.109  3.9342  0.2231  0.7594
  335MOL0     H45184   1.202   2.431  11.034 -0.5545 -3.9649 -2.0160
  335MOL0     H45185   1.046   2.247  10.980  0.5157  1.2500  2.3781
  335MOL0     H45186   0.920   2.128  10.804 -1.6115  0.3240 -2.8746
  335MOL0     H45187   0.785   2.050  10.893 -0.9369  0.1952 -0.3688
  335MOL0     H45188   0.755   2.174  10.770 -1.3293  0.4019  1.4239
  335MOL0     H45189   0.315   2.143  11.075 -2.0689 -0.8145 -0.2137
  335MOL0     H45190   0.106   2.057  10.974  0.3968 -1.8077 -1.6689
  335MOL0     H45191  -0.016   1.913  10.879 -1.3464 -0.4391  1.2221
  335MOL0     H45192  -0.105   2.047  10.805  0.0885 -0.5053  1.9012
  335MOL0     H45193  -0.167   1.924  10.621 -0.6248  1.5206  1.6379
  335MOL0     H45194  -0.071   1.778  10.656 -2.5722 -2.0718 -0.9612
  335MOL0     H45195  -0.293   1.746  10.686  2.4538 -0.6856 -0.0292
  335MOL0     H45196  -0.316   1.869  10.815 -0.8940 -0.2901 -1.0944
  335MOL0     H45197  -0.151   1.609  10.826  1.9322 -0.7564  2.8999
  335MOL0     H45198  -0.158   1.707  10.965 -0.5532 -0.2784 -0.5835
  335MOL0     H45199  -0.319   1.526  10.970 -0.2871  1.4710  1.9809
  335MOL0     H45200  -0.406   1.578  10.829 -0.4120 -1.4185 -0.4283
  335MOL0     H45201  -0.360   1.775  11.075 -0.3062 -0.9662  1.1377
  335MOL0     H45202  -0.477   1.789  10.944 -0.3302 -1.5641 -0.7435
  335MOL0     H45203  -0.464   1.569  11.150 -1.2184 -2.5655 -3.1663
  335MOL0     H45204  -0.581   1.572  11.031  1.8324 -0.2409 -0.7683
  335MOL0     H45205  -0.544   1.792  11.246  0.1636  2.4908 -0.6414
  335MOL0     H45206  -0.685   1.682  11.232 -0.2381 -1.9957 -3.2384
  335MOL0     H45207   0.311   2.044  10.583 -1.4301 -2.6702 -0.0731
  335MOL0     H45208   0.509   2.132  10.694 -0.6609  1.6295  0.9279
  335MOL0     H45209   0.625   2.427  11.154  0.2783  1.3866 -1.1146
  335MOL0     H45210   0.835   2.492  11.276 -0.0749  1.0802  0.0906
  335MOL0     H45211   0.926   3.789  11.328  1.1153  1.2990 -0.7202
  335MOL0     H45212   0.882   3.944  11.159  1.6056 -0.9048  2.8430
  335MOL0     H45213   0.868   4.029  10.551 -0.5857  1.2629 -1.6134
  335MOL0     H45214   0.752   4.199  10.439  0.9904  3.6544  1.4323
  335MOL0     H45215   0.618   4.535  10.474 -0.4970 -0.2421  0.1038
  335MOL0     H45216   0.696   4.394  10.409  2.5042  2.5471  2.7602
  335MOL0     H45217   0.528   4.304  10.287  2.8037  0.5218  0.2819
  335MOL0     H45218   0.526   4.473  10.237  2.7544  2.8294  2.1090
  335MOL0     H45219   0.319   4.523  10.303  1.1673 -0.1709 -0.0741
  335MOL0     H45220   0.337   4.436  10.451 -1.6008  0.8436 -0.4155
  335MOL0     H45221   0.273   4.222  10.329 -1.2760  0.1281  1.8471
  335MOL0     H45222   0.292   4.309  10.178 -0.2185  0.5774  0.3756
  335MOL0     H45223  -0.104   4.426  10.309 -0.7100  0.5842 -2.8671
  335MOL0     H45224   0.520   4.299  10.783 -2.5709 -3.0160  1.1417
  335MOL0     H45225   0.617   4.111  10.907  0.7140  1.0257  0.5082
  336MOL0     O45226   7.254   8.079   2.471 -0.2089 -0.5609  0.4584
  336MOL0     C45227   7.274   7.999   2.557 -0.7628  0.0203 -0.7381
  336MOL0     O45228   7.279   8.034   2.690  0.1830  0.4913 -0.2268
  336MOL0     C45229   7.250   8.154   2.736  0.3235 -0.3208 -0.4453
  336MOL0     C45230   7.346   8.221   2.811 -1.4259 -0.2143  0.0864
  336MOL0     C45231   7.315   8.348   2.860  0.2321 -0.6999  0.3743
  336MOL0     C45232   7.186   8.388   2.877 -0.6033  0.0335 -0.3600
  336MOL0     O45233   7.168   8.510   2.951 -0.4704 -0.1966  0.2564
  336MOL0     C45234   7.041   8.534   3.013  0.7085 -1.0959 -0.5188
  336MOL0     C45235   7.049   8.652   3.115  0.5004 -0.0480 -1.2551
  336MOL0     C45236   6.929   8.664   3.217 -0.6898 -0.2584 -0.0398
  336MOL0     C45237   6.798   8.622   3.163  0.6795 -0.7557 -0.5250
  336MOL0     C45238   6.689   8.634   3.258 -0.5454  1.2422 -0.5394
  336MOL0     C45239   6.683   8.507   3.346 -0.2084 -0.0297 -0.3128
  336MOL0     C45240   6.605   8.526   3.481 -0.1775 -0.4156 -1.1330
  336MOL0     C45241   6.472   8.605   3.477  0.4748  0.2987 -0.3855
  336MOL0     N45242   6.378   8.524   3.400  0.5186  0.0007 -0.4017
  336MOL0     C45243   6.327   8.398   3.428  0.1589 -0.7408  0.0859
  336MOL0     C45244   6.247   8.363   3.329 -0.3679 -0.6567  0.2373
  336MOL0     C45245   6.178   8.230   3.300 -0.9711  0.2962 -0.8608
  336MOL0     C45246   6.203   8.169   3.155 -0.8512 -0.2779  0.4064
  336MOL0     C45247   6.352   8.184   3.104 -0.2801  0.6307 -0.8096
  336MOL0     C45248   6.454   8.124   3.212 -0.1071  0.3048  0.4848
  336MOL0     O45249   6.446   7.981   3.194  0.3286  0.3745  0.4310
  336MOL0     C45250   6.470   7.906   3.310 -0.6813  0.4063  0.2859
  336MOL0     C45251   6.527   7.947   3.436  0.2338 -0.4231  0.3716
  336MOL0     C45252   6.558   7.852   3.532 -0.6709 -1.0557 -0.9949
  336MOL0     C45253   6.613   7.896   3.667  0.7653 -0.0995  0.3094
  336MOL0     C45254   6.527   7.716   3.518  0.1706 -0.0298  0.3822
  336MOL0     C45255   6.545   7.602   3.617 -0.0782  0.4020  0.1488
  336MOL0     O45256   6.455   7.492   3.609  0.1855  0.4306 -0.9469
  336MOL0     C45257   6.450   7.407   3.709 -0.2886  0.3711  0.2726
  336MOL0     C45258   6.550   7.318   3.749 -0.0558  0.7227 -0.5917
  336MOL0     C45259   6.544   7.237   3.861  0.6242  0.0906  0.0298
  336MOL0     C45260   6.428   7.232   3.931 -0.0306  0.0496 -0.5514
  336MOL0     O45261   6.404   7.151   4.040  0.3211  0.0800 -0.6427
  336MOL0     C45262   6.443   7.214   4.163  0.3194 -0.3242  0.2911
  336MOL0     C45263   6.403   7.145   4.291 -0.0427 -0.1608  0.6596
  336MOL0     C45264   6.411   7.234   4.419  0.1171  1.3078  2.4098
  336MOL0     C45265   6.289   7.315   4.444  0.0601 -0.3411 -0.4472
  336MOL0     C45266   6.324   7.459   4.442 -0.5255 -0.0967 -0.6233
  336MOL0     C45267   6.196   7.539   4.439  0.0348 -0.3302 -1.3589
  336MOL0     C45268   6.198   7.670   4.515 -0.0450 -0.2661  0.4824
  336MOL0     C45269   6.091   7.763   4.468  0.7281 -0.4174  0.0435
  336MOL0    Cl45270   5.928   7.726   4.527 -0.5361 -0.2165  0.0288
  336MOL0     C45271   6.319   7.316   3.891  0.2431  0.5892  0.5057
  336MOL0     C45272   6.338   7.401   3.776 -0.4693 -0.2093  0.4816
  336MOL0     O45273   6.647   7.605   3.686 -0.2084 -0.2430  0.7409
  336MOL0     C45274   6.463   7.677   3.407 -0.4274 -0.0034 -0.2771
  336MOL0     C45275   6.436   7.770   3.299  0.2534  0.7237 -0.2048
  336MOL0     N45276   6.251   8.465   3.227 -0.0865 -0.7321 -0.7666
  336MOL0     N45277   6.327   8.561   3.279  0.1152 -0.5054  0.5135
  336MOL0     C45278   7.088   8.310   2.818  0.0370 -0.2727  0.2322
  336MOL0     C45279   7.108   8.194   2.744 -0.0412 -0.0651 -0.2042
  336MOL0     C45280   7.283   7.856   2.533 -0.7609  0.1609 -0.0865
  336MOL0     C45281   7.374   7.769   2.597  0.0452  0.2758  0.6963
  336MOL0     C45282   7.383   7.635   2.563  0.9534 -0.3490 -0.2522
  336MOL0     C45283   7.281   7.573   2.479  0.1997  0.0403 -0.9318
  336MOL0     O45284   7.291   7.444   2.430  0.5937  0.0619 -0.1022
  336MOL0     C45285   7.284   7.339   2.533  0.2465 -0.6405  0.2639
  336MOL0     C45286   7.200   7.217   2.487  0.9100 -0.2580  1.0275
  336MOL0     C45287   7.223   7.173   2.340  0.0889  0.3480 -0.1996
  336MOL0     C45288   7.160   7.038   2.316  0.7981 -0.2644 -0.0248
  336MOL0     C45289   7.265   6.934   2.320 -0.4229  0.3853 -0.3210
  336MOL0     C45290   7.358   6.849   2.295  1.3136  0.9789 -0.2391
  336MOL0     C45291   7.185   7.657   2.419  0.3482  0.8136  0.3485
  336MOL0     C45292   7.192   7.796   2.450 -0.0228  0.6800 -0.7633
  336MOL0     H45293   7.448   8.186   2.826 -1.1429  1.2074  1.8056
  336MOL0     H45294   7.402   8.402   2.896 -0.7884 -0.1883  2.1677
  336MOL0     H45295   6.963   8.557   2.940 -0.9792 -2.6172  0.7307
  336MOL0     H45296   7.010   8.444   3.067  3.0274 -1.4887  0.2580
  336MOL0     H45297   7.129   8.635   3.187  2.4206 -2.8195 -3.7739
  336MOL0     H45298   7.061   8.750   3.067 -0.8225  0.0121 -1.4933
  336MOL0     H45299   6.958   8.611   3.309 -0.3344 -1.6353 -0.9047
  336MOL0     H45300   6.926   8.772   3.229  2.0522  0.2024 -2.4823
  336MOL0     H45301   6.779   8.683   3.074  0.0693  3.6502  2.3257
  336MOL0     H45302   6.798   8.515   3.138 -0.6367 -0.4119 -2.1853
  336MOL0     H45303   6.715   8.709   3.334 -0.1906 -0.6591  1.3407
  336MOL0     H45304   6.590   8.639   3.211 -0.9671 -4.1081 -0.7837
  336MOL0     H45305   6.630   8.424   3.298  3.0648 -0.9411 -2.6398
  336MOL0     H45306   6.779   8.465   3.375 -0.7665 -0.9821  0.2282
  336MOL0     H45307   6.592   8.425   3.520  0.1701  0.0262  0.1951
  336MOL0     H45308   6.665   8.580   3.555 -0.1374 -0.5844 -1.0421
  336MOL0     H45309   6.483   8.698   3.420 -0.6213  1.0707  0.6201
  336MOL0     H45310   6.427   8.628   3.573 -2.4505 -1.8355 -1.1188
  336MOL0     H45311   6.363   8.346   3.517 -0.6536 -1.1898  0.1659
  336MOL0     H45312   6.210   8.152   3.370  0.2464 -0.3980 -2.1308
  336MOL0     H45313   6.074   8.258   3.315 -0.5591  0.7041  1.8780
  336MOL0     H45314   6.129   8.211   3.086  1.0267 -1.9497 -2.8207
  336MOL0     H45315   6.179   8.063   3.166  0.4510 -1.0795 -3.2400
  336MOL0     H45316   6.366   8.293   3.095  1.8067  0.4981  0.2011
  336MOL0     H45317   6.370   8.129   3.012 -2.7079 -3.2478  0.7720
  336MOL0     H45318   6.437   8.153   3.316  2.0458 -0.7498  1.1805
  336MOL0     H45319   6.557   8.157   3.193 -0.0007  1.2521  2.4913
  336MOL0     H45320   6.544   8.054   3.449 -2.3606  0.1428 -0.2134
  336MOL0     H45321   6.647   7.999   3.653  0.4306 -0.0375 -0.0770
  336MOL0     H45322   6.520   7.892   3.724 -0.2257  0.7054 -1.1674
  336MOL0     H45323   6.696   7.841   3.711 -0.6397 -0.9640  1.9704
  336MOL0     H45324   6.630   7.292   3.681 -0.2993  0.2489 -0.6984
  336MOL0     H45325   6.620   7.168   3.897  1.4152 -0.4849 -2.5959
  336MOL0     H45326   6.549   7.242   4.168 -0.0416  0.8991  3.0416
  336MOL0     H45327   6.399   7.314   4.164  2.5185  0.9281 -3.6710
  336MOL0     H45328   6.303   7.100   4.294 -0.0796 -0.0170  2.5627
  336MOL0     H45329   6.474   7.063   4.302  0.7530  0.5010  0.5275
  336MOL0     H45330   6.502   7.292   4.407  0.6065 -0.0396 -2.2527
  336MOL0     H45331   6.435   7.169   4.504  2.2700 -1.9731 -0.4318
  336MOL0     H45332   6.203   7.285   4.385  1.5936 -2.9099 -1.5526
  336MOL0     H45333   6.266   7.288   4.548  2.5195 -0.0677  0.2357
  336MOL0     H45334   6.377   7.488   4.350  1.9441 -4.0934 -0.6736
  336MOL0     H45335   6.388   7.481   4.528  0.1208  2.4580 -1.6698
  336MOL0     H45336   6.172   7.562   4.335 -0.1147 -1.3974 -1.5722
  336MOL0     H45337   6.109   7.485   4.479  0.0750  1.0470  0.7280
  336MOL0     H45338   6.288   7.729   4.494  1.2905 -1.9912  1.1362
  336MOL0     H45339   6.191   7.653   4.623  1.2823  2.6956  1.1327
  336MOL0     H45340   6.094   7.770   4.358  1.3917 -1.9465 -0.0552
  336MOL0     H45341   6.117   7.861   4.510 -1.9102  0.4502 -0.1270
  336MOL0     H45342   6.225   7.309   3.944 -0.1236  1.9423  0.0526
  336MOL0     H45343   6.256   7.464   3.744 -0.7169 -0.1742  1.1554
  336MOL0     H45344   6.425   7.576   3.392  0.1712  0.2599 -5.0482
  336MOL0     H45345   6.387   7.723   3.214  0.6256  0.7100 -0.4104
  336MOL0     H45346   6.983   8.335   2.831  0.5553  1.7568  1.0407
  336MOL0     H45347   7.021   8.135   2.718  0.3399 -1.4871  1.5300
  336MOL0     H45348   7.448   7.808   2.666 -1.4106  2.2203  1.2365
  336MOL0     H45349   7.464   7.577   2.605  1.6663  0.5322 -0.3692
  336MOL0     H45350   7.385   7.298   2.543 -0.0093 -0.9102  2.3573
  336MOL0     H45351   7.253   7.388   2.627 -0.5381 -1.7081  0.5837
  336MOL0     H45352   7.095   7.248   2.489  0.8807 -0.3922  1.8656
  336MOL0     H45353   7.221   7.138   2.559  1.2495 -1.6462 -0.5391
  336MOL0     H45354   7.329   7.170   2.312 -0.0706  1.8657 -1.0807
  336MOL0     H45355   7.171   7.250   2.282  2.0763  1.3869 -0.7112
  336MOL0     H45356   7.114   7.039   2.217  0.1087 -2.5901  0.1886
  336MOL0     H45357   7.076   7.018   2.384  1.2109 -0.9359  0.3054
  336MOL0     H45358   7.436   6.775   2.288  0.5083  0.2593 -2.2361
  336MOL0     H45359   7.114   7.614   2.349  2.5976  0.2016 -1.6945
  336MOL0     H45360   7.120   7.854   2.395  0.6178  0.3775 -1.9570
  337MOL0     O45361   0.018   5.871   7.597 -0.1522 -0.1433 -0.2836
  337MOL0     C45362   0.011   5.901   7.479  0.3706 -0.2232 -0.0724
  337MOL0     O45363  -0.035   6.016   7.410 -0.3134  0.3717 -0.9761
  337MOL0     C45364  -0.084   6.133   7.468  0.0952  0.2973  0.1515
  337MOL0     C45365  -0.063   6.166   7.601  0.7358  0.0564  0.4665
  337MOL0     C45366  -0.107   6.289   7.651  0.4499  1.3301 -1.7168
  337MOL0     C45367  -0.175   6.376   7.575  0.2157  0.0384 -0.5501
  337MOL0     O45368  -0.221   6.491   7.632 -0.3713 -0.3816 -0.3150
  337MOL0     C45369  -0.355   6.532   7.616  0.6053  0.2665 -0.3205
  337MOL0     C45370  -0.376   6.653   7.703 -0.4802 -0.3871  0.2692
  337MOL0     C45371  -0.294   6.777   7.651  0.4635 -0.6174  0.4605
  337MOL0     C45372  -0.316   6.809   7.502 -0.0256 -0.5357 -0.5534
  337MOL0     C45373  -0.460   6.853   7.475  0.1167  0.0116 -0.6330
  337MOL0     C45374  -0.483   7.008   7.496 -0.3940  0.3565 -0.1800
  337MOL0     C45375  -0.548   7.022   7.621 -0.2954 -1.0599 -0.2595
  337MOL0     C45376  -0.586   7.172   7.646  0.1600 -0.3386 -0.3629
  337MOL0     N45377  -0.702   7.225   7.577 -0.0164 -0.3191 -0.9533
  337MOL0     C45378  -0.810   7.158   7.526 -0.9854 -0.5093 -0.3425
  337MOL0     C45379  -0.889   7.257   7.479 -0.0377 -0.2643  1.2429
  337MOL0     C45380  -1.025   7.230   7.417  0.6758  0.3022  0.2813
  337MOL0     C45381  -1.023   7.122   7.306 -0.6074 -1.1717 -0.2108
  337MOL0     C45382  -1.152   7.055   7.280  0.2238 -1.1622  0.0043
  337MOL0     C45383  -1.132   6.979   7.144  0.0370 -0.2185 -0.3009
  337MOL0     O45384  -1.227   7.048   7.063  0.2930  0.1549 -0.2347
  337MOL0     C45385  -1.246   7.000   6.942 -0.2751 -0.4648  0.0677
  337MOL0     C45386  -1.171   6.899   6.872  0.8957  0.2140  0.0877
  337MOL0     C45387  -1.215   6.853   6.747  0.2174 -0.2913  0.4275
  337MOL0     C45388  -1.119   6.754   6.684 -0.0928  0.3100 -0.5802
  337MOL0     C45389  -1.328   6.920   6.680  0.1606  0.4509  0.7614
  337MOL0     C45390  -1.383   6.876   6.550  0.7730 -0.1382 -0.3539
  337MOL0     O45391  -1.367   6.750   6.515 -0.4425  0.7634  0.1987
  337MOL0     C45392  -1.419   6.697   6.395 -0.5706  0.6275 -0.4573
  337MOL0     C45393  -1.326   6.633   6.318 -0.1764 -0.5565 -0.0906
  337MOL0     C45394  -1.352   6.612   6.181  0.4704  0.0761 -0.2473
  337MOL0     C45395  -1.458   6.660   6.109  0.2433 -1.1010  0.0425
  337MOL0     O45396  -1.483   6.647   5.978 -0.2787  0.3729  0.8538
  337MOL0     C45397  -1.422   6.758   5.907  0.0827 -0.0777  0.0795
  337MOL0     C45398  -1.413   6.740   5.753 -0.7901 -0.1070 -0.7933
  337MOL0     C45399  -1.280   6.814   5.697 -0.1586  0.2222  0.3496
  337MOL0     C45400  -1.157   6.725   5.699  0.8394 -0.9021  0.1999
  337MOL0     C45401  -1.035   6.752   5.605  0.3135 -0.1733 -0.4257
  337MOL0     C45402  -0.943   6.629   5.612 -0.7634 -0.2981  0.0001
  337MOL0     C45403  -0.801   6.655   5.544 -0.0148 -0.0323 -0.1450
  337MOL0     C45404  -0.798   6.575   5.419  0.8472 -0.2618  0.0948
  337MOL0    Cl45405  -0.869   6.672   5.276  0.3306  0.2715  0.1420
  337MOL0     C45406  -1.558   6.726   6.192  0.5075  0.2283  0.2148
  337MOL0     C45407  -1.538   6.739   6.331  0.4688 -0.1216 -0.0473
  337MOL0     O45408  -1.459   6.958   6.492  0.2375  0.6080  0.4066
  337MOL0     C45409  -1.394   7.013   6.750  0.5756 -0.1231 -0.9086
  337MOL0     C45410  -1.350   7.061   6.874  0.2758  0.7002  0.5947
  337MOL0     N45411  -0.829   7.381   7.500  0.4010  0.7753  0.1952
  337MOL0     N45412  -0.720   7.351   7.556 -0.3010  0.9397 -0.0976
  337MOL0     C45413  -0.186   6.340   7.439  0.8136  0.0494 -0.3098
  337MOL0     C45414  -0.151   6.221   7.386 -0.9509 -0.0504  0.3306
  337MOL0     C45415   0.089   5.806   7.394 -0.1315 -0.0834 -0.3435
  337MOL0     C45416   0.111   5.833   7.262  0.1073  0.2139  0.2012
  337MOL0     C45417   0.199   5.753   7.193  0.6399 -0.8159 -0.2416
  337MOL0     C45418   0.267   5.647   7.252 -1.1150  0.7356 -0.5348
  337MOL0     O45419   0.352   5.568   7.180  0.0448 -0.4357 -0.3180
  337MOL0     C45420   0.464   5.514   7.255  0.4208  0.3009 -0.1238
  337MOL0     C45421   0.579   5.485   7.152  0.7593 -0.2655 -0.1918
  337MOL0     C45422   0.699   5.426   7.218 -0.2453  0.4694 -0.7226
  337MOL0     C45423   0.826   5.388   7.125  0.7754 -0.2237 -0.0069
  337MOL0     C45424   0.927   5.331   7.213 -0.7297 -0.3946  0.8372
  337MOL0     C45425   1.010   5.271   7.283  1.0636  0.4107 -0.4817
  337MOL0     C45426   0.237   5.614   7.384  0.1893  0.1192 -0.4211
  337MOL0     C45427   0.149   5.691   7.454  0.5890 -0.1810 -0.3338
  337MOL0     H45428  -0.016   6.103   7.677 -1.0406 -0.3612  1.2745
  337MOL0     H45429  -0.101   6.318   7.756  0.8534 -1.1058 -1.0167
  337MOL0     H45430  -0.374   6.551   7.510 -1.2565 -0.1932 -0.0882
  337MOL0     H45431  -0.419   6.449   7.647 -0.2869  2.5148  4.9559
  337MOL0     H45432  -0.483   6.676   7.701 -0.4297 -0.1191 -2.0551
  337MOL0     H45433  -0.334   6.610   7.795  0.7055 -0.3293 -0.2358
  337MOL0     H45434  -0.314   6.850   7.730  0.9237 -0.9150  0.8639
  337MOL0     H45435  -0.185   6.765   7.661  0.7031  0.8082 -0.1658
  337MOL0     H45436  -0.253   6.892   7.466 -0.4450  0.5505  1.1252
  337MOL0     H45437  -0.288   6.720   7.444  2.7907  0.8988 -1.5926
  337MOL0     H45438  -0.477   6.834   7.369  1.5403 -0.9897 -0.7041
  337MOL0     H45439  -0.532   6.788   7.526  0.5887  1.6735  2.4082
  337MOL0     H45440  -0.391   7.066   7.486 -0.6019  0.4088 -2.2283
  337MOL0     H45441  -0.556   7.038   7.420 -1.6766  0.0881  0.9146
  337MOL0     H45442  -0.639   6.964   7.642 -0.2519 -0.0907  3.3165
  337MOL0     H45443  -0.469   6.991   7.691 -0.0897  0.3287  0.1512
  337MOL0     H45444  -0.503   7.241   7.628 -1.4460  2.2256  1.3091
  337MOL0     H45445  -0.605   7.174   7.754  0.8674 -1.3841 -0.2060
  337MOL0     H45446  -0.833   7.052   7.519  0.4703 -0.8229 -0.7334
  337MOL0     H45447  -1.089   7.193   7.498 -0.3421  0.9854 -0.1886
  337MOL0     H45448  -1.080   7.323   7.398 -1.3496 -0.7235  0.7730
  337MOL0     H45449  -0.952   7.045   7.337 -0.3507 -0.0773  2.1849
  337MOL0     H45450  -0.990   7.177   7.218  1.3193 -1.0418  0.5416
  337MOL0     H45451  -1.239   7.121   7.288  1.0511 -0.1566  0.9140
  337MOL0     H45452  -1.165   6.981   7.360 -1.1565 -0.4348  0.4837
  337MOL0     H45453  -1.170   6.876   7.142  0.3424 -0.3889 -3.7358
  337MOL0     H45454  -1.033   6.994   7.101  0.7116  0.8243  1.5176
  337MOL0     H45455  -1.079   6.852   6.906  1.7837 -0.0697 -2.4576
  337MOL0     H45456  -1.020   6.762   6.730 -0.4276  1.1036  0.0440
  337MOL0     H45457  -1.169   6.657   6.690  1.2073 -0.6427 -3.6102
  337MOL0     H45458  -1.103   6.768   6.577 -1.6641 -0.2349 -0.9094
  337MOL0     H45459  -1.224   6.610   6.347  0.2500  0.3726 -0.8206
  337MOL0     H45460  -1.271   6.562   6.131 -0.0797 -2.1613  0.9750
  337MOL0     H45461  -1.480   6.844   5.944 -0.5972 -0.4446 -0.1113
  337MOL0     H45462  -1.319   6.778   5.937 -0.3478  2.1775  0.2624
  337MOL0     H45463  -1.417   6.635   5.723  1.9336 -0.9679  1.3837
  337MOL0     H45464  -1.504   6.773   5.703 -0.1017 -0.1541 -2.1340
  337MOL0     H45465  -1.251   6.894   5.766  3.3482  1.3169 -2.0935
  337MOL0     H45466  -1.287   6.843   5.592  1.0742 -1.4913 -0.2607
  337MOL0     H45467  -1.120   6.723   5.802  1.4817  2.0427  0.1039
  337MOL0     H45468  -1.201   6.627   5.679  0.2561 -0.1772 -2.4687
  337MOL0     H45469  -0.981   6.844   5.628 -1.2784  0.4297  1.0385
  337MOL0     H45470  -1.065   6.771   5.501 -1.2086 -2.4291 -0.4836
  337MOL0     H45471  -0.917   6.620   5.718  1.2728 -2.3939 -0.5855
  337MOL0     H45472  -0.994   6.541   5.573 -1.7819 -0.6762  2.0283
  337MOL0     H45473  -0.723   6.609   5.605  3.4272  0.4897 -3.7246
  337MOL0     H45474  -0.771   6.759   5.530 -1.2633  0.2427 -0.9096
  337MOL0     H45475  -0.865   6.490   5.435  0.9550 -0.3456  0.0989
  337MOL0     H45476  -0.700   6.528   5.404  1.8024  1.4078  0.7997
  337MOL0     H45477  -1.654   6.766   6.160 -0.0895 -0.7424  0.6976
  337MOL0     H45478  -1.621   6.786   6.381  0.1933 -0.8585  0.2023
  337MOL0     H45479  -1.483   7.053   6.702 -1.0501 -2.0047  0.3525
  337MOL0     H45480  -1.408   7.131   6.933  1.4600 -1.6099  4.8999
  337MOL0     H45481  -0.249   6.401   7.375 -0.2815 -0.1483  0.5314
  337MOL0     H45482  -0.184   6.207   7.283 -0.3211  3.0473 -0.3769
  337MOL0     H45483   0.056   5.906   7.202 -1.7408 -3.6866 -3.3437
  337MOL0     H45484   0.218   5.777   7.089  0.2889  1.8119  0.2421
  337MOL0     H45485   0.494   5.594   7.323 -2.4563  2.4596 -1.1788
  337MOL0     H45486   0.438   5.419   7.302 -2.0668  0.4876 -0.9828
  337MOL0     H45487   0.619   5.581   7.118  0.4378  1.4686  3.7610
  337MOL0     H45488   0.540   5.427   7.068 -0.5943  0.7245 -0.2764
  337MOL0     H45489   0.642   5.342   7.260 -1.6676  1.1060 -1.3091
  337MOL0     H45490   0.739   5.493   7.294 -3.0243  2.1773 -0.6291
  337MOL0     H45491   0.861   5.473   7.064 -2.3546  0.2260 -1.4009
  337MOL0     H45492   0.792   5.314   7.052 -2.2003 -0.1556  1.1829
  337MOL0     H45493   1.085   5.231   7.349 -0.7005 -0.3898  1.1449
  337MOL0     H45494   0.291   5.533   7.432 -1.2480 -0.0552  0.9738
  337MOL0     H45495   0.135   5.663   7.558  1.3787  1.8063  0.3588
  338MOL0     O45496   2.651   4.608   0.519  0.5409  0.4092  0.4735
  338MOL0     C45497   2.545   4.553   0.546  0.5966 -0.1442 -0.7327
  338MOL0     O45498   2.469   4.482   0.461 -0.4577  0.7005 -0.3270
  338MOL0     C45499   2.520   4.439   0.340 -0.2776 -0.0232  0.6394
  338MOL0     C45500   2.506   4.300   0.319 -0.0030 -0.4170  0.1488
  338MOL0     C45501   2.519   4.249   0.192  0.0508  0.3948  0.2617
  338MOL0     C45502   2.563   4.328   0.086  0.4585  0.6501 -0.4583
  338MOL0     O45503   2.604   4.267  -0.033 -1.0511 -0.2436  0.3499
  338MOL0     C45504   2.630   4.132  -0.045  0.6516  0.5389  0.6697
  338MOL0     C45505   2.679   4.106  -0.191  0.6043  0.6429  0.3802
  338MOL0     C45506   2.734   3.973  -0.212  0.8031  0.4159  0.3210
  338MOL0     C45507   2.769   3.965  -0.366 -0.5889 -0.9612 -0.6643
  338MOL0     C45508   2.721   3.828  -0.434 -0.1921  0.2285  0.0857
  338MOL0     C45509   2.784   3.699  -0.361 -0.4931 -0.6693  0.1123
  338MOL0     C45510   2.780   3.573  -0.442  0.3623  0.5739 -0.1769
  338MOL0     C45511   2.831   3.448  -0.355 -0.7719 -0.9097 -0.1291
  338MOL0     N45512   2.975   3.433  -0.371 -1.0814  0.4725 -0.5659
  338MOL0     C45513   3.077   3.481  -0.288  0.3978  0.5115  0.2052
  338MOL0     C45514   3.194   3.465  -0.355 -0.3285 -0.2291  1.1901
  338MOL0     C45515   3.334   3.507  -0.306  0.0488 -0.1701  0.3322
  338MOL0     C45516   3.433   3.551  -0.427 -0.0051 -0.0637 -0.6580
  338MOL0     C45517   3.387   3.684  -0.492  0.2407  0.0482  0.4755
  338MOL0     C45518   3.352   3.801  -0.404 -0.9257  0.8072  0.6095
  338MOL0     O45519   3.221   3.783  -0.339 -0.1740  0.3552  0.6254
  338MOL0     C45520   3.192   3.887  -0.255 -0.0788  0.2936 -0.1270
  338MOL0     C45521   3.238   4.019  -0.259  0.3151 -0.1466 -1.6339
  338MOL0     C45522   3.218   4.108  -0.154  0.0057  0.9299 -0.7367
  338MOL0     C45523   3.286   4.238  -0.174 -0.0943  0.0651  0.3247
  338MOL0     C45524   3.152   4.066  -0.028 -0.2238  0.0210 -0.0942
  338MOL0     C45525   3.120   4.150   0.089  0.6970 -0.4663 -0.3729
  338MOL0     O45526   3.061   4.082   0.185 -0.1428  0.3454  0.7241
  338MOL0     C45527   3.009   4.136   0.295 -0.0859 -0.5014 -1.0179
  338MOL0     C45528   3.035   4.068   0.417 -0.7216  0.2772 -0.6224
  338MOL0     C45529   2.989   4.117   0.537 -0.9599  0.1336 -0.5881
  338MOL0     C45530   2.924   4.245   0.540  0.1562  0.8425  0.3038
  338MOL0     O45531   2.882   4.312   0.657  0.4436  0.3451  0.1313
  338MOL0     C45532   2.854   4.253   0.787 -0.8557  0.6566 -0.7221
  338MOL0     C45533   2.766   4.331   0.884 -0.1449 -0.8766  0.6797
  338MOL0     C45534   2.836   4.466   0.918  0.2739  0.4918 -0.0626
  338MOL0     C45535   2.735   4.558   1.007 -0.4344  0.0749  0.1398
  338MOL0     C45536   2.799   4.690   1.054 -0.5437 -0.4915 -0.2418
  338MOL0     C45537   2.697   4.776   1.138 -0.9832  0.4771  1.1137
  338MOL0     C45538   2.749   4.897   1.224  0.0453 -0.7825 -0.0162
  338MOL0     C45539   2.630   4.979   1.259  0.8197 -0.7953 -0.8004
  338MOL0    Cl45540   2.667   5.145   1.304  0.1596 -0.8260  0.0056
  338MOL0     C45541   2.899   4.309   0.423 -0.2693  0.1036  0.4768
  338MOL0     C45542   2.941   4.264   0.295  0.2009  0.3555 -0.6157
  338MOL0     O45543   3.141   4.273   0.076  0.1547  0.0437 -0.6487
  338MOL0     C45544   3.105   3.932  -0.025  0.7571  1.4206 -0.3124
  338MOL0     C45545   3.135   3.848  -0.133 -0.6070  0.2954 -0.1773
  338MOL0     N45546   3.165   3.395  -0.469 -0.7048 -0.3271  0.0042
  338MOL0     N45547   3.038   3.371  -0.479  0.4156  0.0307  0.1182
  338MOL0     C45548   2.576   4.463   0.107 -0.5982  0.5880 -1.0733
  338MOL0     C45549   2.553   4.517   0.229 -0.1810  0.2730 -0.1992
  338MOL0     C45550   2.481   4.568   0.677  0.0163  0.3719  0.2912
  338MOL0     C45551   2.503   4.687   0.735  0.4522 -0.5457  0.4794
  338MOL0     C45552   2.432   4.727   0.847  0.9639 -0.5710 -1.0480
  338MOL0     C45553   2.321   4.648   0.895 -0.8864  0.4468  0.4639
  338MOL0     O45554   2.236   4.663   1.009 -0.7002  0.6850  0.1068
  338MOL0     C45555   2.260   4.776   1.087 -0.1043  0.0299 -0.5720
  338MOL0     C45556   2.164   4.770   1.211 -0.7105  0.1669  0.1986
  338MOL0     C45557   2.241   4.766   1.335 -0.2165 -1.0583  0.1124
  338MOL0     C45558   2.149   4.828   1.452 -0.1509  0.4594 -1.0660
  338MOL0     C45559   2.210   4.799   1.587 -0.6108 -0.6065  0.8561
  338MOL0     C45560   2.275   4.763   1.693  0.1736  0.1334 -0.0937
  338MOL0     C45561   2.305   4.524   0.823  0.5103 -0.3681 -0.2634
  338MOL0     C45562   2.379   4.487   0.717 -0.4200  0.1909  0.2562
  338MOL0     H45563   2.502   4.238   0.408  1.5674 -1.2029 -0.2936
  338MOL0     H45564   2.508   4.141   0.184 -0.6083  0.5044 -0.5255
  338MOL0     H45565   2.693   4.094   0.037 -0.7353  1.2969  2.1353
  338MOL0     H45566   2.536   4.077  -0.041  0.2325  1.1614 -0.2573
  338MOL0     H45567   2.593   4.111  -0.258  0.6040 -0.8654  0.2287
  338MOL0     H45568   2.767   4.169  -0.210  2.3591 -1.5182  0.7981
  338MOL0     H45569   2.814   3.957  -0.139  0.4464  2.2372  1.1692
  338MOL0     H45570   2.654   3.904  -0.185  0.6724  0.0290 -0.9672
  338MOL0     H45571   2.734   4.047  -0.429 -1.4796 -1.4273 -0.7878
  338MOL0     H45572   2.878   3.972  -0.367 -0.5500 -1.2654 -3.1280
  338MOL0     H45573   2.614   3.845  -0.424  0.3577  3.0233  2.5402
  338MOL0     H45574   2.760   3.828  -0.537 -0.0469  4.0180  0.0106
  338MOL0     H45575   2.891   3.709  -0.340  0.0690 -2.9015 -1.3740
  338MOL0     H45576   2.736   3.690  -0.263 -0.5659 -0.2122  0.1245
  338MOL0     H45577   2.675   3.551  -0.462 -0.2868 -2.4521  4.9299
  338MOL0     H45578   2.835   3.584  -0.536  3.4378  0.9412  1.5302
  338MOL0     H45579   2.784   3.355  -0.388 -3.5378 -0.8242  2.9742
  338MOL0     H45580   2.812   3.465  -0.248  3.6774  0.4407  0.6224
  338MOL0     H45581   3.061   3.540  -0.198  1.9191  0.1046  0.7806
  338MOL0     H45582   3.327   3.579  -0.223  2.3771 -1.4326  1.7394
  338MOL0     H45583   3.392   3.428  -0.257  2.2230  1.0176 -0.1610
  338MOL0     H45584   3.439   3.472  -0.503 -3.2977 -1.5654  0.4733
  338MOL0     H45585   3.532   3.563  -0.381 -0.4843 -0.3294  0.4650
  338MOL0     H45586   3.307   3.659  -0.562  1.3453  0.5151 -0.9765
  338MOL0     H45587   3.481   3.710  -0.540  0.7762 -3.2182 -0.4645
  338MOL0     H45588   3.353   3.890  -0.468  2.4865 -0.4375 -1.3332
  338MOL0     H45589   3.437   3.812  -0.335  1.4579 -1.7263 -1.6807
  338MOL0     H45590   3.307   4.053  -0.335  0.8637 -0.4298 -1.2677
  338MOL0     H45591   3.215   4.319  -0.153  0.7565  0.4310  1.9633
  338MOL0     H45592   3.376   4.255  -0.114 -0.3615 -0.2839  0.8205
  338MOL0     H45593   3.315   4.252  -0.279 -2.3991 -0.7094 -0.4826
  338MOL0     H45594   3.089   3.974   0.416  1.4371  1.3406  1.7883
  338MOL0     H45595   3.034   4.076   0.626 -1.6349  1.7034  0.5370
  338MOL0     H45596   2.805   4.155   0.793 -1.3165  0.9487  0.7805
  338MOL0     H45597   2.947   4.236   0.842 -1.7203 -1.7899  0.1325
  338MOL0     H45598   2.667   4.351   0.841  1.7173  0.5769 -3.5085
  338MOL0     H45599   2.760   4.271   0.975 -0.8389 -0.1171  1.1498
  338MOL0     H45600   2.854   4.516   0.823  0.5694 -2.6209 -1.7652
  338MOL0     H45601   2.937   4.451   0.959  0.8674  1.9665 -0.9158
  338MOL0     H45602   2.649   4.581   0.944 -0.1284  2.5045  0.5180
  338MOL0     H45603   2.709   4.500   1.096  3.0154 -2.6821 -0.4183
  338MOL0     H45604   2.830   4.747   0.967  0.9453 -1.7041 -0.5547
  338MOL0     H45605   2.892   4.655   1.101 -0.9787 -2.4644 -0.7615
  338MOL0     H45606   2.615   4.812   1.076  1.2896  2.6854 -0.8146
  338MOL0     H45607   2.652   4.708   1.211  0.2497  1.2226  2.6427
  338MOL0     H45608   2.803   4.965   1.158 -3.4326  0.4556 -1.8913
  338MOL0     H45609   2.808   4.866   1.310  0.9399  0.7883 -0.0246
  338MOL0     H45610   2.573   4.927   1.337  0.2165  1.6990  0.5580
  338MOL0     H45611   2.559   4.980   1.176  1.9859 -0.5895 -1.8281
  338MOL0     H45612   2.838   4.398   0.435 -1.1642 -0.2859 -1.0139
  338MOL0     H45613   2.907   4.315   0.206  1.3953 -0.5197 -1.6209
  338MOL0     H45614   3.068   3.881   0.064 -2.3683  0.9213 -1.7646
  338MOL0     H45615   3.126   3.740  -0.130  2.3577 -0.0602  3.3145
  338MOL0     H45616   2.579   4.530   0.022 -1.3034  2.2138  0.1217
  338MOL0     H45617   2.550   4.625   0.241  0.0159  0.2972 -0.3648
  338MOL0     H45618   2.562   4.761   0.682 -0.8013 -0.2458 -0.5550
  338MOL0     H45619   2.447   4.831   0.877 -1.2695 -0.1924 -1.0729
  338MOL0     H45620   2.367   4.781   1.109  0.2931  0.1117 -2.4073
  338MOL0     H45621   2.258   4.867   1.026 -1.4197  1.3042  1.2632
  338MOL0     H45622   2.108   4.677   1.193  1.2195 -0.8808 -0.6985
  338MOL0     H45623   2.099   4.858   1.207 -0.7830  0.0869 -0.8761
  338MOL0     H45624   2.342   4.807   1.336  0.2771 -2.2625  0.1262
  338MOL0     H45625   2.253   4.659   1.353  2.1708 -0.6026  1.6472
  338MOL0     H45626   2.052   4.779   1.458 -0.5444  1.4167  2.3588
  338MOL0     H45627   2.144   4.937   1.440  1.6260  0.6188 -0.7421
  338MOL0     H45628   2.322   4.717   1.777  0.6738 -2.8847 -1.8521
  338MOL0     H45629   2.225   4.453   0.845  1.2053 -0.3277  2.8498
  338MOL0     H45630   2.349   4.398   0.663  1.7395 -2.4175  3.0393
  339MOL0     O45631   7.783   0.392   4.387 -0.2942  0.4366  0.0776
  339MOL0     C45632   7.708   0.343   4.472  0.4844 -0.4777  0.4248
  339MOL0     O45633   7.568   0.330   4.456  0.5812  0.1766 -0.3678
  339MOL0     C45634   7.507   0.419   4.375  0.3234 -0.5114 -0.0623
  339MOL0     C45635   7.459   0.365   4.252  0.1551  1.4232  0.0177
  339MOL0     C45636   7.399   0.453   4.158 -0.2584 -0.2979 -0.2859
  339MOL0     C45637   7.406   0.591   4.173 -0.7221  0.1298  0.2234
  339MOL0     O45638   7.374   0.690   4.079 -0.1214  0.1865 -1.0105
  339MOL0     C45639   7.281   0.648   3.986  1.0249 -0.4024 -0.0245
  339MOL0     C45640   7.229   0.757   3.892  0.2345 -0.0216  0.6974
  339MOL0     C45641   7.174   0.881   3.959  1.4480  0.2152 -1.2233
  339MOL0     C45642   7.173   0.991   3.854  0.7043 -0.4715  0.0494
  339MOL0     C45643   7.078   1.102   3.902 -0.1647 -0.4833 -0.3467
  339MOL0     C45644   6.928   1.073   3.889 -0.0906 -1.1213  0.0316
  339MOL0     C45645   6.841   1.178   3.959 -1.3612 -0.4379 -0.2175
  339MOL0     C45646   6.715   1.110   4.025 -0.5356  0.6066  0.6113
  339MOL0     N45647   6.751   1.008   4.128  0.1409 -0.2475 -0.4761
  339MOL0     C45648   6.829   1.037   4.233 -0.6961 -0.1169  0.7744
  339MOL0     C45649   6.843   0.919   4.304 -0.3922 -0.5521 -0.0310
  339MOL0     C45650   6.921   0.909   4.432  0.2317  0.0336 -0.4999
  339MOL0     C45651   7.072   0.924   4.402  0.3139 -0.0035 -0.6018
  339MOL0     C45652   7.161   0.926   4.529 -0.4366 -0.1882  0.4535
  339MOL0     C45653   7.138   0.817   4.634  0.0966  0.5832  0.9052
  339MOL0     O45654   7.134   0.688   4.571  0.1722  0.3897 -0.4301
  339MOL0     C45655   7.164   0.580   4.650  0.7512 -1.1731  1.0202
  339MOL0     C45656   7.180   0.575   4.790  0.6753 -0.5653 -0.0125
  339MOL0     C45657   7.236   0.482   4.864 -0.9397 -0.7134  0.6282
  339MOL0     C45658   7.261   0.505   5.020 -0.1046 -0.1903  1.4353
  339MOL0     C45659   7.278   0.366   4.797  0.1682  0.4027 -0.9730
  339MOL0     C45660   7.330   0.245   4.862 -0.6042 -0.2284 -0.2721
  339MOL0     O45661   7.359   0.257   5.009 -1.0411  0.0326  0.1529
  339MOL0     C45662   7.434   0.170   5.083  0.4897  0.6855  0.5046
  339MOL0     C45663   7.436   0.036   5.059  0.4209 -0.5249  0.5925
  339MOL0     C45664   7.505  -0.059   5.131 -0.3108  0.8077 -0.4063
  339MOL0     C45665   7.587  -0.025   5.241 -0.1350 -0.4155 -0.2156
  339MOL0     O45666   7.653  -0.124   5.306 -0.2098  0.1126  0.0660
  339MOL0     C45667   7.755  -0.093   5.398 -0.2612  0.1788  0.4884
  339MOL0     C45668   7.706  -0.130   5.541 -0.1881 -0.1226  0.0769
  339MOL0     C45669   7.637  -0.274   5.561  0.5913  0.4624  0.1194
  339MOL0     C45670   7.647  -0.329   5.705 -0.3400  0.5533  0.8433
  339MOL0     C45671   7.583  -0.468   5.737  0.0217  0.0514  0.4185
  339MOL0     C45672   7.604  -0.517   5.884  0.3557 -0.0838 -0.0586
  339MOL0     C45673   7.573  -0.404   5.982 -0.6466 -0.0772  0.4465
  339MOL0     C45674   7.552  -0.463   6.116 -0.3093 -0.4677  1.0069
  339MOL0    Cl45675   7.683  -0.563   6.172 -0.3522 -0.2176  0.2335
  339MOL0     C45676   7.582   0.114   5.280  1.2166 -0.1766 -0.0425
  339MOL0     C45677   7.505   0.207   5.201  0.0445 -0.7211  0.0349
  339MOL0     O45678   7.362   0.157   4.796 -0.0922  0.0480 -0.2110
  339MOL0     C45679   7.264   0.361   4.661  0.1188  0.5781  0.8186
  339MOL0     C45680   7.218   0.468   4.584 -0.1946 -0.3460 -0.6962
  339MOL0     N45681   6.769   0.824   4.241  0.3195  0.6671  0.5789
  339MOL0     N45682   6.722   0.871   4.131  0.3200  0.1503 -0.3151
  339MOL0     C45683   7.460   0.651   4.290 -0.4181 -0.0351 -0.3232
  339MOL0     C45684   7.502   0.562   4.395  0.0777 -1.0316  0.7332
  339MOL0     C45685   7.761   0.274   4.590 -0.1375  0.2071 -0.0695
  339MOL0     C45686   7.899   0.270   4.601  0.0454 -0.1493 -0.3723
  339MOL0     C45687   7.947   0.188   4.697  0.3033 -0.7321  0.8626
  339MOL0     C45688   7.865   0.131   4.803 -0.3465 -0.4554 -0.9775
  339MOL0     O45689   7.919   0.084   4.925  0.8192  0.0977 -0.7298
  339MOL0     C45690   8.065   0.091   4.935  0.3627  0.5132 -0.0373
  339MOL0     C45691   8.110   0.045   5.068 -0.5970  0.0855 -1.5756
  339MOL0     C45692   8.023  -0.072   5.112  0.0717  0.1504  0.0809
  339MOL0     C45693   8.028  -0.198   5.022  0.0703 -0.2628 -0.7939
  339MOL0     C45694   8.160  -0.250   5.037 -0.7869  0.0640 -0.7615
  339MOL0     C45695   8.268  -0.286   5.081 -0.6726  0.4315  0.4159
  339MOL0     C45696   7.728   0.141   4.785  0.0568 -0.0998 -0.1587
  339MOL0     C45697   7.673   0.216   4.681 -0.4971 -0.3636  0.1858
  339MOL0     H45698   7.457   0.257   4.239 -0.9723  1.4779 -0.3681
  339MOL0     H45699   7.370   0.418   4.059  2.1372  2.2004 -2.0341
  339MOL0     H45700   7.321   0.565   3.926 -0.0417 -0.4415 -0.7241
  339MOL0     H45701   7.198   0.610   4.046  1.2491  0.3158  0.7544
  339MOL0     H45702   7.313   0.794   3.832 -1.5141  1.1937 -1.1177
  339MOL0     H45703   7.157   0.718   3.819  0.2681  1.0302  0.0892
  339MOL0     H45704   7.078   0.858   4.007  1.3302  1.2587 -0.9478
  339MOL0     H45705   7.237   0.911   4.042 -1.0504  0.4101  0.7295
  339MOL0     H45706   7.270   1.040   3.850 -0.5339  2.1353 -0.0746
  339MOL0     H45707   7.134   0.958   3.757  0.0111  0.9657 -0.1857
  339MOL0     H45708   7.123   1.134   3.997  2.6510 -1.2471 -1.3105
  339MOL0     H45709   7.095   1.184   3.832  1.3232 -1.8485 -1.6621
  339MOL0     H45710   6.912   1.076   3.781 -0.9855  0.3005  0.1742
  339MOL0     H45711   6.914   0.974   3.933 -1.9868 -1.2544 -0.8111
  339MOL0     H45712   6.900   1.231   4.034 -2.2764 -1.1014  1.0062
  339MOL0     H45713   6.818   1.253   3.883  1.4864  2.9551  1.9692
  339MOL0     H45714   6.664   1.052   3.948 -0.9870  1.5521  0.1759
  339MOL0     H45715   6.652   1.189   4.067 -0.5823  0.5487  0.6500
  339MOL0     H45716   6.865   1.137   4.256 -1.9621 -0.0440  2.7305
  339MOL0     H45717   6.897   0.980   4.511  0.2287 -2.3300  1.7900
  339MOL0     H45718   6.894   0.812   4.476 -3.5026  1.1863  0.0477
  339MOL0     H45719   7.094   1.021   4.358  1.2357  1.3361  2.5071
  339MOL0     H45720   7.108   0.853   4.328 -1.9527 -0.6968 -1.1285
  339MOL0     H45721   7.160   1.025   4.575 -1.6969 -0.7253  1.6340
  339MOL0     H45722   7.255   0.905   4.478 -0.7862 -4.0356  1.0964
  339MOL0     H45723   7.044   0.829   4.688 -0.3812  0.6538  0.0626
  339MOL0     H45724   7.228   0.823   4.697 -0.1666  2.0065  1.1688
  339MOL0     H45725   7.143   0.664   4.839 -2.0316 -1.6919  0.2097
  339MOL0     H45726   7.368   0.513   5.042  0.5740  1.1630 -1.8402
  339MOL0     H45727   7.217   0.603   5.040 -1.0828  0.0567 -1.4724
  339MOL0     H45728   7.214   0.434   5.089 -1.5111 -0.2104  0.4911
  339MOL0     H45729   7.372  -0.000   4.979  0.1517  0.7524  0.2021
  339MOL0     H45730   7.497  -0.160   5.093 -2.4829  1.5815 -2.2754
  339MOL0     H45731   7.829  -0.174   5.396 -2.2941 -1.7742  0.1737
  339MOL0     H45732   7.800   0.006   5.389 -2.3445  1.0282 -1.5515
  339MOL0     H45733   7.795  -0.136   5.604 -0.6826  0.3763  0.8388
  339MOL0     H45734   7.649  -0.046   5.582  0.9861  0.1865  1.1108
  339MOL0     H45735   7.682  -0.350   5.496  2.0954 -0.1292  1.7604
  339MOL0     H45736   7.530  -0.278   5.536  0.5499  2.1411 -0.0712
  339MOL0     H45737   7.754  -0.334   5.728 -0.4921 -4.5378  1.4926
  339MOL0     H45738   7.610  -0.250   5.772 -0.3844  3.3768 -2.2585
  339MOL0     H45739   7.629  -0.548   5.678  0.7371 -0.4812  1.6505
  339MOL0     H45740   7.476  -0.466   5.715 -0.0176  1.1842  0.6527
  339MOL0     H45741   7.541  -0.604   5.905 -1.9722  1.3211 -0.8317
  339MOL0     H45742   7.710  -0.537   5.900  0.8105  2.5532  0.7587
  339MOL0     H45743   7.478  -0.357   5.954  0.5964  1.0201 -2.2137
  339MOL0     H45744   7.664  -0.344   5.979 -0.1192 -0.6555  2.8841
  339MOL0     H45745   7.456  -0.517   6.115 -1.0851  0.8720  0.8362
  339MOL0     H45746   7.538  -0.385   6.192 -1.0455 -0.9680  1.4060
  339MOL0     H45747   7.642   0.129   5.370  0.8639 -0.0673  0.1771
  339MOL0     H45748   7.502   0.309   5.238  2.3501 -0.4907 -0.2687
  339MOL0     H45749   7.293   0.270   4.609  1.9483  0.7238  1.4925
  339MOL0     H45750   7.223   0.460   4.475  0.8025  1.0132 -0.7758
  339MOL0     H45751   7.458   0.759   4.295  0.2573 -0.0641  0.6831
  339MOL0     H45752   7.547   0.607   4.483  2.0256  1.9575 -1.5841
  339MOL0     H45753   7.961   0.316   4.525  3.0255 -4.9808 -1.3156
  339MOL0     H45754   8.054   0.172   4.700  0.4545 -0.6788 -1.8878
  339MOL0     H45755   8.096   0.019   4.860 -2.4234 -2.0897  1.0851
  339MOL0     H45756   8.102   0.193   4.922  1.8456  0.1916  1.3723
  339MOL0     H45757   8.100   0.127   5.141  2.8004 -0.0538 -0.8033
  339MOL0     H45758   8.217   0.028   5.057 -0.3251  0.6200  0.0173
  339MOL0     H45759   7.917  -0.047   5.125  0.1645 -0.1693  1.6496
  339MOL0     H45760   8.045  -0.095   5.217  0.8154  1.7611  0.3167
  339MOL0     H45761   8.010  -0.187   4.915 -0.9790 -4.9785 -1.2992
  339MOL0     H45762   7.948  -0.262   5.060 -1.6739  2.6085  0.8076
  339MOL0     H45763   8.353  -0.343   5.114  1.1577  1.7902 -1.7003
  339MOL0     H45764   7.669   0.090   4.861 -2.0311 -1.3722 -2.4698
  339MOL0     H45765   7.566   0.233   4.672 -0.0670  2.5099 -0.5696
  340MOL0     O45766   1.696   2.611   0.753  0.0784 -0.7451  0.0674
  340MOL0     C45767   1.795   2.680   0.726  0.1009 -0.1929  0.3827
  340MOL0     O45768   1.802   2.809   0.717  0.5235 -0.1599  0.8603
  340MOL0     C45769   1.699   2.901   0.750  0.1870  1.1085  0.5132
  340MOL0     C45770   1.728   3.033   0.733 -0.1259  0.4749 -0.0340
  340MOL0     C45771   1.633   3.125   0.763 -0.2167 -0.2320 -0.4253
  340MOL0     C45772   1.512   3.099   0.824 -0.8768 -0.2238 -0.2434
  340MOL0     O45773   1.425   3.203   0.862 -0.1229  0.5554 -0.3401
  340MOL0     C45774   1.299   3.169   0.922  0.0204 -0.1291 -0.1461
  340MOL0     C45775   1.216   3.292   0.938  0.2307 -0.2921 -1.2378
  340MOL0     C45776   1.267   3.363   1.061  0.1818 -0.6652 -0.8833
  340MOL0     C45777   1.209   3.502   1.066 -0.4270  0.2331 -0.6939
  340MOL0     C45778   1.236   3.576   1.194  0.1979 -0.0669 -0.0124
  340MOL0     C45779   1.137   3.689   1.217  0.8477 -0.3206 -0.5084
  340MOL0     C45780   0.985   3.665   1.191 -0.6923  0.1279 -0.4176
  340MOL0     C45781   0.923   3.580   1.303 -0.1487  0.4507 -0.3848
  340MOL0     N45782   0.967   3.437   1.321 -0.7330  0.4971  0.8338
  340MOL0     C45783   0.914   3.341   1.234 -0.3957 -1.0089 -0.8903
  340MOL0     C45784   0.960   3.229   1.283 -0.2029 -0.7301 -0.8218
  340MOL0     C45785   0.924   3.090   1.232  0.2962 -1.4544 -0.3952
  340MOL0     C45786   1.056   3.004   1.220 -0.1651 -0.9496  0.0179
  340MOL0     C45787   1.011   2.876   1.170 -0.7128 -0.1722  0.2729
  340MOL0     C45788   1.122   2.775   1.183 -0.3160 -1.1983 -0.1203
  340MOL0     O45789   1.223   2.810   1.099 -0.2099 -0.0096 -0.2948
  340MOL0     C45790   1.329   2.725   1.114  0.3224  0.4083  0.4560
  340MOL0     C45791   1.439   2.757   1.199  0.7206 -0.0767 -0.3704
  340MOL0     C45792   1.541   2.662   1.209  0.4919 -0.2478  0.7730
  340MOL0     C45793   1.648   2.700   1.314  0.4665 -0.2127  0.0736
  340MOL0     C45794   1.543   2.546   1.130 -0.2950 -0.0055  1.2886
  340MOL0     C45795   1.667   2.461   1.112 -0.4377 -0.5460  0.6873
  340MOL0     O45796   1.792   2.520   1.115 -0.1015 -0.5244 -0.3949
  340MOL0     C45797   1.893   2.436   1.145 -0.1437  0.2617 -0.3584
  340MOL0     C45798   1.921   2.382   1.273  0.2248 -0.2428  0.5691
  340MOL0     C45799   2.024   2.300   1.290 -0.2144  0.5478  0.8370
  340MOL0     C45800   2.119   2.268   1.190  0.8055 -0.2264 -0.3559
  340MOL0     O45801   2.227   2.191   1.203  1.0647 -0.5083 -0.2017
  340MOL0     C45802   2.261   2.162   1.344 -0.4006  0.5522  0.4333
  340MOL0     C45803   2.377   2.059   1.354 -0.0801 -0.0131  0.8877
  340MOL0     C45804   2.510   2.121   1.312  0.0688 -0.3843  0.1633
  340MOL0     C45805   2.530   2.108   1.161 -0.6061  0.1506 -0.2577
  340MOL0     C45806   2.654   2.169   1.105 -0.7694 -0.3312 -0.2439
  340MOL0     C45807   2.783   2.105   1.153 -0.5746 -0.1466  0.2110
  340MOL0     C45808   2.907   2.157   1.088  0.7520  0.2161  0.1457
  340MOL0     C45809   2.957   2.292   1.153  0.2387 -0.1542 -0.8680
  340MOL0    Cl45810   3.036   2.259   1.319 -0.2067  0.0846 -0.6742
  340MOL0     C45811   2.102   2.336   1.071 -1.1547  0.2826  0.0484
  340MOL0     C45812   1.989   2.413   1.045  0.4297  0.5122  0.4447
  340MOL0     O45813   1.642   2.336   1.099 -0.2867 -0.4217 -0.6825
  340MOL0     C45814   1.441   2.510   1.039  0.9329 -0.5476  0.1754
  340MOL0     C45815   1.332   2.606   1.041 -0.5028  0.4002 -0.0005
  340MOL0     N45816   1.042   3.246   1.400 -0.3861 -0.0318  0.0562
  340MOL0     N45817   1.040   3.376   1.418 -0.3565  0.2415 -0.1881
  340MOL0     C45818   1.491   2.966   0.850  0.6501 -0.2105 -0.4577
  340MOL0     C45819   1.577   2.862   0.812 -0.2831 -0.9393 -0.5296
  340MOL0     C45820   1.909   2.606   0.687 -1.1677 -0.5512  0.9323
  340MOL0     C45821   1.902   2.483   0.622 -0.1068  0.5127 -0.0989
  340MOL0     C45822   2.015   2.418   0.581  0.0512  0.2316  0.4979
  340MOL0     C45823   2.147   2.467   0.601  0.9227 -0.0290 -0.3941
  340MOL0     O45824   2.256   2.395   0.574  0.4115 -0.1675 -0.4190
  340MOL0     C45825   2.239   2.277   0.502 -0.7214 -0.7982  0.0128
  340MOL0     C45826   2.384   2.223   0.468  0.0636 -0.1588  0.9620
  340MOL0     C45827   2.459   2.173   0.589 -0.0149 -1.0376  0.4360
  340MOL0     C45828   2.596   2.117   0.544  0.4534 -0.0899 -0.1686
  340MOL0     C45829   2.668   2.081   0.668 -0.3431 -0.2516  0.6011
  340MOL0     C45830   2.731   2.041   0.768  0.4967 -0.1314  0.7279
  340MOL0     C45831   2.155   2.590   0.663 -0.8068 -0.0906 -0.5143
  340MOL0     C45832   2.038   2.657   0.709 -1.0870  0.1103 -0.2980
  340MOL0     H45833   1.811   3.057   0.667  0.1561 -1.1144 -0.2922
  340MOL0     H45834   1.644   3.227   0.726  3.3424  0.1950  1.4282
  340MOL0     H45835   1.245   3.117   0.842  1.2491  3.0680 -3.3358
  340MOL0     H45836   1.306   3.111   1.014 -0.5013 -1.8744 -1.1436
  340MOL0     H45837   1.231   3.372   0.865 -0.5231  0.8354 -0.1936
  340MOL0     H45838   1.110   3.268   0.948  0.2788 -0.2126 -0.4774
  340MOL0     H45839   1.235   3.302   1.146 -0.8241 -1.3622 -1.7362
  340MOL0     H45840   1.376   3.373   1.066  0.0041  1.6829 -0.6146
  340MOL0     H45841   1.243   3.559   0.979 -2.4743  0.1175 -1.6328
  340MOL0     H45842   1.103   3.482   1.046 -0.4014  1.7549 -2.6790
  340MOL0     H45843   1.234   3.504   1.276 -0.9797 -0.4535 -0.3498
  340MOL0     H45844   1.340   3.609   1.198 -0.6182  2.6877  0.8304
  340MOL0     H45845   1.148   3.716   1.322  1.4721  1.0594 -0.9032
  340MOL0     H45846   1.171   3.769   1.150 -1.8936 -0.8335 -2.7156
  340MOL0     H45847   0.932   3.761   1.197 -0.9605  0.1088 -2.1205
  340MOL0     H45848   0.960   3.627   1.092  2.8393 -0.2524 -1.3048
  340MOL0     H45849   0.814   3.586   1.291 -0.3498 -3.4355 -1.7431
  340MOL0     H45850   0.954   3.641   1.388  0.2831 -1.0694  0.5747
  340MOL0     H45851   0.842   3.345   1.152  1.9783 -4.0099 -3.4201
  340MOL0     H45852   0.849   3.053   1.303 -1.1519  0.7428 -0.6836
  340MOL0     H45853   0.866   3.111   1.143  2.1829  0.2059 -1.3167
  340MOL0     H45854   1.084   2.996   1.325 -0.4759  0.8439  0.2619
  340MOL0     H45855   1.124   3.065   1.160 -0.8598 -0.1294  0.0450
  340MOL0     H45856   0.977   2.885   1.067 -0.0508 -1.8075 -0.1189
  340MOL0     H45857   0.928   2.839   1.231 -2.6445 -0.4583 -2.3901
  340MOL0     H45858   1.080   2.680   1.149 -0.1878 -1.8397  1.4571
  340MOL0     H45859   1.151   2.768   1.288 -1.2751  0.3528  0.2789
  340MOL0     H45860   1.422   2.843   1.262 -1.0782 -0.9790  0.4425
  340MOL0     H45861   1.646   2.623   1.392 -2.5344  1.5813  1.9730
  340MOL0     H45862   1.746   2.693   1.267  0.2247  1.6410 -0.8063
  340MOL0     H45863   1.633   2.793   1.369  2.9714  0.0656  0.3657
  340MOL0     H45864   1.862   2.410   1.359  0.0616 -0.6902  0.6044
  340MOL0     H45865   2.038   2.279   1.396 -1.4305 -2.2414  0.5536
  340MOL0     H45866   2.283   2.242   1.415  0.5900  0.1856  0.5524
  340MOL0     H45867   2.172   2.112   1.383  1.4294  0.3588  4.8760
  340MOL0     H45868   2.393   2.022   1.456 -0.0374 -1.5167  0.3605
  340MOL0     H45869   2.353   1.968   1.298  3.1021 -0.0723 -0.5537
  340MOL0     H45870   2.586   2.066   1.367 -0.9837 -4.3516 -1.9735
  340MOL0     H45871   2.516   2.228   1.335 -1.3934  0.7321 -3.8131
  340MOL0     H45872   2.542   2.000   1.145 -2.0789  0.1106 -1.3143
  340MOL0     H45873   2.440   2.134   1.104 -0.7722 -0.1735 -0.1453
  340MOL0     H45874   2.664   2.276   1.127  0.7979 -0.8229  1.6571
  340MOL0     H45875   2.646   2.164   0.996 -1.2749  1.6801 -0.3423
  340MOL0     H45876   2.780   2.103   1.262 -3.3538 -1.2069  0.1850
  340MOL0     H45877   2.783   2.000   1.123  1.0553  0.0274 -0.5292
  340MOL0     H45878   2.891   2.159   0.980  2.6776  0.3803 -0.1765
  340MOL0     H45879   2.989   2.085   1.097  1.1850  0.7666  0.7711
  340MOL0     H45880   2.871   2.357   1.173 -1.3599 -1.6996 -2.3126
  340MOL0     H45881   3.032   2.336   1.086  0.7362 -2.2182 -1.7625
  340MOL0     H45882   2.183   2.331   0.999 -1.8129  1.4005 -0.7958
  340MOL0     H45883   1.964   2.463   0.952 -0.2345  0.3460  0.5320
  340MOL0     H45884   1.432   2.419   0.981 -0.7381  1.2217 -2.5563
  340MOL0     H45885   1.240   2.591   0.985 -1.5295 -1.5309  2.0758
  340MOL0     H45886   1.403   2.934   0.905 -0.2389  1.5432 -0.7832
  340MOL0     H45887   1.546   2.758   0.813 -0.9716 -0.7417 -0.8801
  340MOL0     H45888   1.806   2.433   0.610  0.5078 -0.9146  0.6456
  340MOL0     H45889   1.995   2.327   0.527 -4.5180  1.2817  0.0450
  340MOL0     H45890   2.189   2.209   0.572  0.2323 -2.6060 -0.9810
  340MOL0     H45891   2.177   2.291   0.414 -0.8385  2.6788  0.5015
  340MOL0     H45892   2.437   2.302   0.415 -0.6327  0.2482  0.8575
  340MOL0     H45893   2.379   2.152   0.385  0.9328 -0.6357  1.2984
  340MOL0     H45894   2.399   2.096   0.637 -2.8185 -0.0302 -1.2108
  340MOL0     H45895   2.470   2.253   0.662  1.5017 -2.1531  1.5001
  340MOL0     H45896   2.644   2.205   0.499 -3.7169  2.8245  0.5268
  340MOL0     H45897   2.579   2.027   0.484  1.2646 -3.0833  3.7251
  340MOL0     H45898   2.766   2.013   0.866  2.0269 -0.7787  0.0249
  340MOL0     H45899   2.255   2.632   0.673 -0.5748 -0.1299 -2.3091
  340MOL0     H45900   2.050   2.757   0.749 -0.6970 -0.0682  0.0424
  341MOL0     O45901   5.401   0.031   9.243 -0.1609  0.6890  0.2006
  341MOL0     C45902   5.524   0.010   9.254 -1.4712 -0.2706  0.2080
  341MOL0     O45903   5.622   0.074   9.186  0.1856 -0.5740  0.1045
  341MOL0     C45904   5.602   0.198   9.134 -0.4914 -0.1510  0.1747
  341MOL0     C45905   5.721   0.259   9.084 -0.0754  0.9202 -0.6482
  341MOL0     C45906   5.724   0.382   9.016  0.6202  0.3660  0.4273
  341MOL0     C45907   5.603   0.454   8.993  0.1819 -0.4407 -0.0740
  341MOL0     O45908   5.610   0.575   8.922 -0.5759  0.0301 -0.6801
  341MOL0     C45909   5.485   0.627   8.866 -0.1959  0.8703 -0.4065
  341MOL0     C45910   5.419   0.730   8.970 -0.1857  0.0671 -0.1703
  341MOL0     C45911   5.499   0.858   8.972 -0.1515 -0.1124 -0.2342
  341MOL0     C45912   5.433   0.979   9.043 -0.3105 -0.8277  0.5100
  341MOL0     C45913   5.530   1.107   9.034 -0.8372  0.4223 -0.1741
  341MOL0     C45914   5.574   1.155   8.890  0.5215  0.0949  1.3286
  341MOL0     C45915   5.475   1.241   8.828 -1.0578 -1.1211  0.5017
  341MOL0     C45916   5.514   1.255   8.679  0.3391  0.9772  0.8856
  341MOL0     N45917   5.602   1.370   8.652 -0.1054 -0.3421 -0.1355
  341MOL0     C45918   5.740   1.370   8.651 -0.3461  0.5330  0.3308
  341MOL0     C45919   5.772   1.466   8.574 -0.0925 -0.0495  0.0727
  341MOL0     C45920   5.908   1.494   8.520  0.7104  0.0674 -0.1812
  341MOL0     C45921   5.924   1.492   8.372 -1.2455  0.2866  0.3156
  341MOL0     C45922   5.843   1.380   8.312  0.0835  0.3584 -0.2974
  341MOL0     C45923   5.845   1.371   8.164  0.1627  0.1255  0.1234
  341MOL0     O45924   5.974   1.337   8.130 -0.4154 -0.2193  0.0276
  341MOL0     C45925   6.009   1.307   7.998 -0.4103  0.7246 -1.0668
  341MOL0     C45926   5.915   1.286   7.895  0.0571 -0.1584  0.2050
  341MOL0     C45927   5.955   1.256   7.767 -0.3854  0.4631  0.9958
  341MOL0     C45928   5.856   1.227   7.657  0.3852  0.4599 -0.8335
  341MOL0     C45929   6.082   1.228   7.734 -0.2486 -0.9508  0.1145
  341MOL0     C45930   6.140   1.198   7.601  0.0146 -0.3162 -0.2884
  341MOL0     O45931   6.068   1.209   7.482  0.4829  0.1107 -1.4690
  341MOL0     C45932   6.140   1.210   7.361  1.3413 -0.9696  1.3725
  341MOL0     C45933   6.137   1.117   7.265 -0.4966 -0.0297  0.1929
  341MOL0     C45934   6.197   1.133   7.141 -0.8456  0.1915 -0.7168
  341MOL0     C45935   6.262   1.249   7.098  0.2817 -0.1543 -1.3720
  341MOL0     O45936   6.329   1.261   6.977 -0.1286 -0.3684 -0.4964
  341MOL0     C45937   6.423   1.354   6.965  0.2309 -0.1846 -0.5598
  341MOL0     C45938   6.509   1.320   6.845 -0.8350  0.0596  0.3224
  341MOL0     C45939   6.433   1.266   6.726 -1.5733 -0.8117  0.4090
  341MOL0     C45940   6.521   1.212   6.617 -0.5907 -0.0036  0.9165
  341MOL0     C45941   6.444   1.173   6.489 -0.2535  0.2436 -0.6067
  341MOL0     C45942   6.530   1.104   6.385 -0.2412 -1.1381 -0.3045
  341MOL0     C45943   6.445   1.065   6.259 -0.5199 -0.5030 -0.2243
  341MOL0     C45944   6.538   1.051   6.138  0.2775  0.9815 -0.7429
  341MOL0    Cl45945   6.602   1.199   6.093 -0.0986  0.0390  0.0991
  341MOL0     C45946   6.249   1.351   7.188 -0.0522 -0.5614  0.7461
  341MOL0     C45947   6.194   1.335   7.316  0.9842  0.5818 -0.1173
  341MOL0     O45948   6.259   1.171   7.604 -0.2730 -0.0920 -0.1038
  341MOL0     C45949   6.175   1.232   7.844  0.6508 -0.6350  0.5124
  341MOL0     C45950   6.144   1.272   7.971  0.3883 -1.0752 -0.2086
  341MOL0     N45951   5.664   1.544   8.549 -0.3347  0.2481  0.0051
  341MOL0     N45952   5.558   1.485   8.596  0.0432  0.6232  0.3641
  341MOL0     C45953   5.482   0.384   9.028  0.2564 -0.3844 -0.8112
  341MOL0     C45954   5.479   0.266   9.102 -0.2471  0.0779  0.2128
  341MOL0     C45955   5.578  -0.099   9.336 -0.5071 -0.1662 -0.7163
  341MOL0     C45956   5.504  -0.134   9.454  0.2202 -0.3906  0.0885
  341MOL0     C45957   5.547  -0.243   9.531  0.0635 -0.1767 -1.0195
  341MOL0     C45958   5.648  -0.332   9.489 -0.6076 -0.4956  0.0022
  341MOL0     O45959   5.677  -0.448   9.549  0.3121  0.5062 -0.2886
  341MOL0     C45960   5.735  -0.457   9.681  0.5425 -0.1535 -1.0370
  341MOL0     C45961   5.662  -0.578   9.740 -0.0916  0.4608  0.2745
  341MOL0     C45962   5.692  -0.614   9.883 -0.5846 -0.6078  0.6903
  341MOL0     C45963   5.599  -0.730   9.923 -0.3011  0.1392  0.5548
  341MOL0     C45964   5.664  -0.850   9.882  0.3187 -0.2570 -0.7171
  341MOL0     C45965   5.717  -0.953   9.852  0.3567  0.3998  0.2867
  341MOL0     C45966   5.713  -0.307   9.368  0.0172  0.7386 -0.2476
  341MOL0     C45967   5.682  -0.189   9.295 -0.2301 -0.4218 -0.1729
  341MOL0     H45968   5.818   0.222   9.118  0.2121  0.9016 -1.4721
  341MOL0     H45969   5.818   0.431   8.996  0.7099  0.3860  0.8855
  341MOL0     H45970   5.500   0.686   8.775  1.8323  0.9201 -0.0749
  341MOL0     H45971   5.436   0.534   8.836  2.6122 -0.5735 -0.8061
  341MOL0     H45972   5.314   0.758   8.952  0.5612  3.6770  0.3234
  341MOL0     H45973   5.415   0.687   9.070 -0.2436  1.3810  0.4103
  341MOL0     H45974   5.599   0.856   9.015 -0.0068  0.1002 -0.5555
  341MOL0     H45975   5.514   0.880   8.866 -0.2812  0.8816 -0.0567
  341MOL0     H45976   5.333   0.991   9.000  0.9524  1.1284 -2.1630
  341MOL0     H45977   5.405   0.966   9.148 -0.2642 -3.4338  0.2592
  341MOL0     H45978   5.491   1.195   9.084 -1.2810  0.8730 -1.2892
  341MOL0     H45979   5.611   1.081   9.103 -1.3671  0.0175  0.2956
  341MOL0     H45980   5.673   1.200   8.894  0.3968  0.5265  0.0057
  341MOL0     H45981   5.583   1.064   8.830 -0.5925  0.1255  1.0957
  341MOL0     H45982   5.374   1.204   8.847 -1.8488  0.7126  0.1254
  341MOL0     H45983   5.476   1.344   8.865 -0.7150  0.2251 -2.8443
  341MOL0     H45984   5.420   1.282   8.628  0.4675  0.4056  0.3351
  341MOL0     H45985   5.543   1.168   8.620  0.2796  3.3535 -3.0113
  341MOL0     H45986   5.813   1.292   8.671  1.2365  1.5358 -1.2395
  341MOL0     H45987   5.944   1.590   8.556  0.8416 -0.2044  0.4283
  341MOL0     H45988   5.982   1.420   8.554 -0.5557 -0.0287  2.5796
  341MOL0     H45989   6.031   1.479   8.353 -1.7554 -1.8381 -1.4599
  341MOL0     H45990   5.898   1.586   8.322  0.7726 -0.2887 -2.0358
  341MOL0     H45991   5.743   1.366   8.353  1.8806 -3.0638  3.6586
  341MOL0     H45992   5.897   1.292   8.349 -1.0124 -0.6642 -1.0903
  341MOL0     H45993   5.813   1.466   8.119  2.7227  1.5724  1.1532
  341MOL0     H45994   5.775   1.296   8.127 -0.6695  0.8848  0.1250
  341MOL0     H45995   5.812   1.313   7.918  0.5415  0.1805  2.0779
  341MOL0     H45996   5.864   1.121   7.633  2.3232 -0.4458  2.9222
  341MOL0     H45997   5.757   1.244   7.700  0.6573  3.0220 -1.0178
  341MOL0     H45998   5.860   1.301   7.577  0.3047  1.2971 -0.0874
  341MOL0     H45999   6.095   1.019   7.280  3.0581 -1.2766  3.7635
  341MOL0     H46000   6.202   1.061   7.060  0.2697  0.7565 -1.1737
  341MOL0     H46001   6.377   1.453   6.956 -3.6641 -1.4140  2.9950
  341MOL0     H46002   6.496   1.355   7.047  1.2610  0.2316 -1.4472
  341MOL0     H46003   6.568   1.410   6.827  0.1551 -0.6121  0.1620
  341MOL0     H46004   6.574   1.239   6.880 -2.0227 -2.2907 -2.5264
  341MOL0     H46005   6.375   1.350   6.686  1.1958  1.1345  0.1971
  341MOL0     H46006   6.360   1.188   6.750 -0.1846 -1.8882  1.2620
  341MOL0     H46007   6.596   1.286   6.588 -1.6534 -0.2661 -3.1552
  341MOL0     H46008   6.576   1.126   6.657 -0.8885 -2.2289 -2.9209
  341MOL0     H46009   6.399   1.260   6.441 -1.5437 -1.6019 -2.9690
  341MOL0     H46010   6.368   1.102   6.521  0.9708  0.6927  3.9089
  341MOL0     H46011   6.614   1.166   6.354  1.8780 -3.1992  0.9133
  341MOL0     H46012   6.574   1.015   6.434 -2.4303 -1.4280  1.2894
  341MOL0     H46013   6.382   1.152   6.238  2.0584  1.3995 -0.4454
  341MOL0     H46014   6.384   0.975   6.275 -0.7606 -0.1187  1.2077
  341MOL0     H46015   6.478   1.014   6.054  0.0397  0.6575 -0.4339
  341MOL0     H46016   6.610   0.973   6.164 -1.0563 -0.0421  0.0567
  341MOL0     H46017   6.297   1.443   7.157 -1.0341  0.5883  2.5158
  341MOL0     H46018   6.202   1.411   7.394  1.1732  0.0208  0.4175
  341MOL0     H46019   6.279   1.202   7.845  0.1382 -2.5618  0.4262
  341MOL0     H46020   6.201   1.260   8.063 -0.3017 -0.6234  0.2928
  341MOL0     H46021   5.388   0.431   9.002  0.8412  2.6744  1.9051
  341MOL0     H46022   5.381   0.224   9.123  0.6551 -0.4914  4.3314
  341MOL0     H46023   5.417  -0.073   9.478 -1.2282 -1.2459 -2.6368
  341MOL0     H46024   5.498  -0.273   9.623  3.2587 -2.8944  0.0286
  341MOL0     H46025   5.843  -0.471   9.685  0.6069 -0.3559 -2.8278
  341MOL0     H46026   5.695  -0.376   9.744  2.4862 -0.3188  0.4893
  341MOL0     H46027   5.692  -0.664   9.681  0.8658  0.4743  0.7251
  341MOL0     H46028   5.555  -0.558   9.730 -0.2420  0.6398  1.9182
  341MOL0     H46029   5.672  -0.526   9.945 -3.6616  2.9964 -4.5720
  341MOL0     H46030   5.792  -0.652   9.906 -0.4540 -0.2735  0.6752
  341MOL0     H46031   5.503  -0.720   9.872  2.1451 -2.0857 -5.4092
  341MOL0     H46032   5.602  -0.730  10.032 -0.4351 -0.2291  0.5585
  341MOL0     H46033   5.780  -1.040   9.847  1.0031  0.7271  2.1098
  341MOL0     H46034   5.785  -0.376   9.325 -2.0164 -0.2491 -2.3098
  341MOL0     H46035   5.724  -0.175   9.196 -0.3074 -0.4105 -0.2049
  342MOL0     O46036  10.111   8.102  11.233 -0.6812  0.8155 -0.1350
  342MOL0     C46037  10.139   8.196  11.314  0.0141  0.4589  1.3137
  342MOL0     O46038  10.205   8.312  11.285  0.0851  0.1095  0.5864
  342MOL0     C46039  10.264   8.323  11.165  0.9180 -0.5327  0.8512
  342MOL0     C46040  10.354   8.233  11.107 -0.0019  0.2252  0.0665
  342MOL0     C46041  10.414   8.258  10.981  0.8986 -0.4995  0.0374
  342MOL0     C46042  10.379   8.369  10.901 -0.0645 -0.8444  0.1056
  342MOL0     O46043  10.414   8.368  10.766  0.7530 -0.5466  0.4650
  342MOL0     C46044  10.479   8.253  10.714 -0.1916  1.0908  0.2565
  342MOL0     C46045  10.526   8.283  10.568 -0.5499  0.5763 -0.1857
  342MOL0     C46046  10.637   8.382  10.562  0.3045 -0.3320  0.7063
  342MOL0     C46047  10.707   8.371  10.425  0.6957 -0.2516 -0.0281
  342MOL0     C46048  10.813   8.475  10.414 -0.1151 -0.0648  0.6016
  342MOL0     C46049  10.876   8.469  10.274  0.1812 -0.8444 -0.0489
  342MOL0     C46050  10.980   8.360  10.251 -0.0142 -0.1479  0.2779
  342MOL0     C46051  11.048   8.378  10.110  0.0423 -0.2578 -0.7173
  342MOL0     N46052  11.168   8.293  10.098  0.1890  0.2141  0.0529
  342MOL0     C46053  11.176   8.189  10.008 -0.5326 -0.2529  0.1332
  342MOL0     C46054  11.316   8.173  10.006  0.4373 -1.0149  0.0888
  342MOL0     C46055  11.391   8.103   9.894  0.9553 -0.4847 -0.1941
  342MOL0     C46056  11.378   7.955   9.891  0.3236  0.2076 -0.9071
  342MOL0     C46057  11.415   7.902   9.749 -0.4355 -0.7634 -0.2339
  342MOL0     C46058  11.394   7.756   9.737 -0.4210 -0.1089  0.1050
  342MOL0     O46059  11.259   7.716   9.727 -0.0336  0.2264  0.7249
  342MOL0     C46060  11.236   7.589   9.691 -0.5627  0.7489  0.0369
  342MOL0     C46061  11.310   7.475   9.718 -0.0198 -0.8700  0.1711
  342MOL0     C46062  11.271   7.346   9.654  1.1779 -0.6066  0.0058
  342MOL0     C46063  11.358   7.230   9.679  0.8680 -0.4444 -0.3287
  342MOL0     C46064  11.157   7.343   9.575  0.8934 -0.0663 -0.1445
  342MOL0     C46065  11.100   7.221   9.510 -0.2452  0.2677 -0.1659
  342MOL0     O46066  11.127   7.093   9.560 -0.5021  0.3820 -0.6558
  342MOL0     C46067  11.081   6.973   9.507  0.2128  0.5510 -0.3302
  342MOL0     C46068  11.135   6.858   9.566  0.1876  0.2332  0.5462
  342MOL0     C46069  11.085   6.733   9.546  0.4040  0.2826 -0.1473
  342MOL0     C46070  10.976   6.711   9.459 -0.7381  0.4799  0.4408
  342MOL0     O46071  10.935   6.579   9.431 -0.3408 -0.1943  0.1794
  342MOL0     C46072  10.847   6.552   9.316 -0.2546 -0.4755  0.1533
  342MOL0     C46073  10.794   6.418   9.337 -0.0023  0.4022 -0.1069
  342MOL0     C46074  10.907   6.315   9.325  0.7253  0.4465 -0.3405
  342MOL0     C46075  10.865   6.170   9.360  0.2913  0.6514  0.7124
  342MOL0     C46076  10.796   6.157   9.502  0.6824  0.2947  0.2083
  342MOL0     C46077  10.871   6.221   9.623 -0.9279  0.0435 -0.2884
  342MOL0     C46078  11.012   6.160   9.653  0.4118  0.6964 -0.1726
  342MOL0     C46079  11.080   6.208   9.778 -0.4302  0.4981 -0.4665
  342MOL0    Cl46080  11.116   6.373   9.756  0.2801  0.2723  0.0413
  342MOL0     C46081  10.914   6.823   9.400 -0.5883  0.2924  0.7620
  342MOL0     C46082  10.972   6.948   9.422  0.7218 -0.2603  0.1970
  342MOL0     O46083  11.027   7.244   9.410 -0.2802 -0.1869 -0.4677
  342MOL0     C46084  11.080   7.459   9.567  0.9053 -0.0616  0.0171
  342MOL0     C46085  11.123   7.581   9.613  0.2954 -0.6731  0.1924
  342MOL0     N46086  11.383   8.250  10.097 -1.0029 -0.1798  0.7043
  342MOL0     N46087  11.291   8.323  10.146  0.9438 -1.4804 -0.6301
  342MOL0     C46088  10.282   8.448  10.955  0.9796  0.1724 -0.1900
  342MOL0     C46089  10.222   8.430  11.082 -0.3147  0.2750  0.3140
  342MOL0     C46090  10.090   8.168  11.447  0.5584 -0.3089  0.4593
  342MOL0     C46091  10.010   8.054  11.472  0.4167 -0.6038 -0.6118
  342MOL0     C46092   9.946   8.045  11.601 -0.6146 -0.8687 -0.5213
  342MOL0     C46093   9.977   8.139  11.696  0.3537  1.1668  0.1262
  342MOL0     O46094   9.894   8.120  11.806  0.2417 -1.0147 -1.0562
  342MOL0     C46095   9.916   8.187  11.932 -0.7283  0.4707  0.1966
  342MOL0     C46096   9.796   8.212  12.015 -0.3209 -0.0910  0.4672
  342MOL0     C46097   9.741   8.078  12.087 -0.5382  0.3281  0.0468
  342MOL0     C46098   9.632   8.128  12.184  0.9339 -0.6274 -0.1274
  342MOL0     C46099   9.574   8.028  12.274  0.4361  0.3197 -0.5028
  342MOL0     C46100   9.534   7.941  12.346 -1.1426  0.2953 -0.1917
  342MOL0     C46101  10.080   8.232  11.678  0.7842  0.2222 -0.6113
  342MOL0     C46102  10.137   8.254  11.551  0.0518  1.1161  0.4969
  342MOL0     H46103  10.377   8.138  11.154  1.9092  1.0432  0.8733
  342MOL0     H46104  10.501   8.197  10.957  1.0559 -0.7235  1.0847
  342MOL0     H46105  10.573   8.243  10.768  0.1994 -0.4366 -0.6500
  342MOL0     H46106  10.415   8.164  10.717  0.8311  0.3029 -0.6175
  342MOL0     H46107  10.558   8.189  10.523 -0.2718 -0.1505  1.4672
  342MOL0     H46108  10.448   8.337  10.514  1.7114  3.1984 -1.0912
  342MOL0     H46109  10.598   8.483  10.570 -1.3185 -0.6057 -2.1812
  342MOL0     H46110  10.712   8.373  10.641  0.1076 -0.4138  0.8836
  342MOL0     H46111  10.753   8.272  10.425 -0.8485 -0.9948  0.8600
  342MOL0     H46112  10.632   8.378  10.345 -2.1146  0.2100  2.4689
  342MOL0     H46113  10.762   8.571  10.423 -1.7618 -0.9579  1.3449
  342MOL0     H46114  10.894   8.469  10.488  1.2442 -0.3830 -0.8543
  342MOL0     H46115  10.800   8.454  10.197  0.8976 -1.4588 -0.6550
  342MOL0     H46116  10.928   8.565  10.263 -2.2130  0.9414  2.7659
  342MOL0     H46117  11.052   8.368  10.333  0.1632 -0.6181  0.1715
  342MOL0     H46118  10.923   8.267  10.253  1.4137 -1.0526  1.2354
  342MOL0     H46119  11.086   8.479  10.090  4.3771 -1.5174  0.1572
  342MOL0     H46120  10.981   8.344  10.031 -0.8965 -0.6853  0.2357
  342MOL0     H46121  11.096   8.146   9.949  0.4344  0.2059 -1.5856
  342MOL0     H46122  11.335   8.140   9.808  0.7810  2.1563  0.9435
  342MOL0     H46123  11.491   8.146   9.884  0.9436 -0.6598 -1.1440
  342MOL0     H46124  11.279   7.923   9.925  0.2472  2.1649  0.9104
  342MOL0     H46125  11.455   7.925   9.962 -1.5103 -0.0912  1.0559
  342MOL0     H46126  11.515   7.938   9.723 -1.5935  1.9501 -1.4365
  342MOL0     H46127  11.344   7.948   9.679  1.7510  2.2523 -0.6619
  342MOL0     H46128  11.453   7.698   9.808 -2.9886 -1.9973  0.8203
  342MOL0     H46129  11.443   7.728   9.643 -0.4937  0.1141 -0.0027
  342MOL0     H46130  11.399   7.479   9.779  1.0587 -0.4308 -1.3768
  342MOL0     H46131  11.459   7.267   9.700  0.8315 -1.2379  1.3741
  342MOL0     H46132  11.321   7.184   9.771  2.3223  1.7966  1.5104
  342MOL0     H46133  11.359   7.155   9.600 -1.1565  1.2364 -2.0669
  342MOL0     H46134  11.227   6.869   9.623  0.7642 -2.0876  0.1402
  342MOL0     H46135  11.137   6.653   9.597  0.7460  1.4493  1.4049
  342MOL0     H46136  10.761   6.620   9.322  0.2382  0.0393  1.8619
  342MOL0     H46137  10.898   6.553   9.219  2.0939 -3.0791  1.2170
  342MOL0     H46138  10.742   6.421   9.433  1.6219  0.7345  0.7953
  342MOL0     H46139  10.730   6.396   9.250  0.4192  0.1626 -0.3559
  342MOL0     H46140  10.991   6.337   9.391  0.2669 -1.5855  1.0124
  342MOL0     H46141  10.954   6.322   9.226  2.8394 -1.0428  0.4863
  342MOL0     H46142  10.795   6.133   9.284 -0.5427  1.2062  1.2064
  342MOL0     H46143  10.963   6.121   9.354  1.0002  2.1684 -2.5139
  342MOL0     H46144  10.781   6.049   9.510  0.6684  0.1338 -1.5691
  342MOL0     H46145  10.696   6.200   9.493 -0.9432 -2.8504  1.5623
  342MOL0     H46146  10.880   6.327   9.598  1.1200 -0.4500 -1.8598
  342MOL0     H46147  10.810   6.216   9.715  0.2016  2.2147  0.6576
  342MOL0     H46148  11.086   6.154   9.573  0.2722 -2.5810 -0.1715
  342MOL0     H46149  10.996   6.053   9.670 -0.4569  0.4452 -2.2426
  342MOL0     H46150  11.174   6.153   9.794 -1.0930 -1.4123 -2.6303
  342MOL0     H46151  11.015   6.189   9.864  0.5836  2.5230  0.8510
  342MOL0     H46152  10.830   6.818   9.330  1.7127 -1.8184 -2.1451
  342MOL0     H46153  10.905   7.028   9.394  0.0738 -0.5227  0.9659
  342MOL0     H46154  10.987   7.464   9.510  0.7185 -0.4059  0.2836
  342MOL0     H46155  11.059   7.666   9.591 -0.3024 -1.0645  0.3859
  342MOL0     H46156  10.238   8.530  10.899 -3.4698 -0.2366  2.2405
  342MOL0     H46157  10.143   8.495  11.117 -0.2001 -0.1528  1.4052
  342MOL0     H46158   9.993   7.976  11.399 -0.4036  0.9060 -2.1220
  342MOL0     H46159   9.877   7.964  11.625 -2.5133  1.1933  1.5040
  342MOL0     H46160   9.996   8.152  11.998 -1.5999  1.0269  1.6013
  342MOL0     H46161   9.931   8.292  11.905  0.0782  0.6362  1.2290
  342MOL0     H46162   9.720   8.258  11.952  0.1832  3.2525  2.0859
  342MOL0     H46163   9.832   8.275  12.097 -0.7352 -0.2326  0.7631
  342MOL0     H46164   9.824   8.043  12.150  0.1158 -0.2417 -1.0949
  342MOL0     H46165   9.694   8.006  12.020 -2.7055  0.4631  1.3541
  342MOL0     H46166   9.555   8.179  12.126  0.0449 -3.1933 -1.3671
  342MOL0     H46167   9.672   8.209  12.246  0.9118  1.1404 -2.2984
  342MOL0     H46168   9.523   7.850  12.401 -0.0264 -0.8671 -1.8224
  342MOL0     H46169  10.110   8.300  11.757  2.0526  4.6750 -4.4505
  342MOL0     H46170  10.212   8.328  11.524 -1.5441  2.5638 -0.1775
  343MOL0     O46171   4.278   9.030   8.421 -1.0569 -0.0241  0.0132
  343MOL0     C46172   4.357   9.096   8.487  0.4007 -0.8910 -0.4953
  343MOL0     O46173   4.494   9.108   8.459  0.2496 -0.3682 -0.2945
  343MOL0     C46174   4.545   9.027   8.363 -0.2387  0.0498 -0.4269
  343MOL0     C46175   4.557   8.883   8.389  0.3829 -0.2389  0.3622
  343MOL0     C46176   4.603   8.798   8.290  0.3181  0.6665  0.0891
  343MOL0     C46177   4.615   8.851   8.157  0.6757 -0.4218 -0.3767
  343MOL0     O46178   4.657   8.775   8.052  0.5517 -1.4545 -0.4899
  343MOL0     C46179   4.725   8.655   8.076  0.2065  0.8423 -0.6956
  343MOL0     C46180   4.756   8.611   7.931 -0.0538  0.9832  0.7211
  343MOL0     C46181   4.857   8.497   7.932  0.2310  0.2022 -0.7920
  343MOL0     C46182   5.002   8.548   7.966  0.1576  0.4881 -0.3834
  343MOL0     C46183   5.089   8.437   8.021 -0.1544  0.5900 -0.3450
  343MOL0     C46184   5.234   8.487   8.063  0.9491  0.1016 -0.2178
  343MOL0     C46185   5.318   8.542   7.948  0.3314 -0.5118 -0.0407
  343MOL0     C46186   5.462   8.577   7.992  0.2588 -0.0041 -0.3396
  343MOL0     N46187   5.478   8.672   8.104  0.1793  0.8330  0.3652
  343MOL0     C46188   5.467   8.806   8.094  0.5746  0.1288  1.1253
  343MOL0     C46189   5.490   8.853   8.215  0.5297  0.2981 -1.7934
  343MOL0     C46190   5.499   9.002   8.257 -0.3471  0.0355 -1.0784
  343MOL0     C46191   5.519   9.103   8.144  0.1746  0.0154 -0.4934
  343MOL0     C46192   5.453   9.231   8.173 -0.5050  0.1505 -0.6351
  343MOL0     C46193   5.525   9.339   8.091 -0.7290 -0.3563 -0.7734
  343MOL0     O46194   5.538   9.312   7.953 -0.3639  0.1924 -0.0086
  343MOL0     C46195   5.462   9.396   7.880 -0.3800 -0.0121  0.6099
  343MOL0     C46196   5.325   9.386   7.866  0.1346  0.6874 -0.0002
  343MOL0     C46197   5.252   9.463   7.771 -0.1787  0.7447  0.3606
  343MOL0     C46198   5.114   9.440   7.749 -0.2469 -0.0702 -0.0430
  343MOL0     C46199   5.319   9.567   7.708 -0.6272 -1.0164  0.9969
  343MOL0     C46200   5.264   9.636   7.593  0.4537  0.7048  0.6198
  343MOL0     O46201   5.367   9.637   7.492 -0.1536  0.3699  0.0949
  343MOL0     C46202   5.360   9.731   7.394  0.4662 -0.2643 -0.2228
  343MOL0     C46203   5.260   9.734   7.298  0.4279  0.0645 -0.0392
  343MOL0     C46204   5.258   9.829   7.197 -0.7934  0.2629  0.6708
  343MOL0     C46205   5.355   9.931   7.194  0.0003  0.8276 -0.1755
  343MOL0     O46206   5.368  10.030   7.100  0.5565 -0.0027  0.7929
  343MOL0     C46207   5.302   9.991   6.976  0.1979 -1.0209  0.3521
  343MOL0     C46208   5.348  10.078   6.861  0.6460  0.1416  0.4263
  343MOL0     C46209   5.283  10.221   6.873  0.4759  0.2437 -0.0249
  343MOL0     C46210   5.325  10.331   6.770  0.3434  0.7396  0.1814
  343MOL0     C46211   5.284  10.465   6.814  0.6814  0.6552  0.1266
  343MOL0     C46212   5.354  10.569   6.730  1.1118  0.1094  0.2801
  343MOL0     C46213   5.316  10.574   6.581  0.1097  1.0174 -0.1692
  343MOL0     C46214   5.170  10.604   6.559  0.3149 -0.6844 -0.0674
  343MOL0    Cl46215   5.134  10.621   6.381 -0.1990 -0.8502 -0.1932
  343MOL0     C46216   5.462   9.922   7.284  0.4820 -0.5387 -1.0491
  343MOL0     C46217   5.465   9.827   7.384  0.3656  0.5100  0.3253
  343MOL0     O46218   5.151   9.681   7.578  0.4869  0.4709  0.2686
  343MOL0     C46219   5.462   9.573   7.717  1.0444 -0.8419  0.5671
  343MOL0     C46220   5.534   9.483   7.802 -0.0361 -0.5122 -0.8772
  343MOL0     N46221   5.518   8.744   8.302 -0.6847  0.6430  0.8542
  343MOL0     N46222   5.516   8.632   8.232  0.6342 -0.7948  0.1815
  343MOL0     C46223   4.583   8.982   8.136 -0.0697 -0.3674  0.3994
  343MOL0     C46224   4.557   9.075   8.236 -0.3479  0.0769 -0.0444
  343MOL0     C46225   4.300   9.170   8.609 -0.5049 -0.3449  0.3737
  343MOL0     C46226   4.379   9.258   8.678 -0.2963  0.5993  0.2429
  343MOL0     C46227   4.323   9.321   8.788  0.1518  0.2335 -0.2312
  343MOL0     C46228   4.194   9.302   8.828  0.5035 -0.3565  0.0960
  343MOL0     O46229   4.158   9.381   8.937  0.0994  0.4980 -1.1110
  343MOL0     C46230   4.032   9.361   9.005 -0.2882  0.2164  0.2504
  343MOL0     C46231   4.043   9.242   9.101 -0.4954  0.0504  0.3519
  343MOL0     C46232   4.168   9.233   9.196  0.3437  0.6415  0.2384
  343MOL0     C46233   4.166   9.094   9.272  0.0296  0.2118 -0.0768
  343MOL0     C46234   4.255   9.111   9.385  1.3526  0.2649  0.0210
  343MOL0     C46235   4.309   9.130   9.491  0.1681  1.1983  0.5771
  343MOL0     C46236   4.116   9.209   8.758  1.0745  0.0380 -1.0277
  343MOL0     C46237   4.164   9.148   8.643  0.2189  0.6697  0.4475
  343MOL0     H46238   4.548   8.852   8.493 -4.1196  1.7155  0.7695
  343MOL0     H46239   4.634   8.695   8.304  1.7190  1.2125  1.1735
  343MOL0     H46240   4.818   8.667   8.133 -0.1151  1.1678 -0.2266
  343MOL0     H46241   4.659   8.590   8.135 -0.5090  0.7046 -1.6307
  343MOL0     H46242   4.669   8.565   7.884  0.9479  0.5264 -0.7417
  343MOL0     H46243   4.780   8.698   7.870 -5.2613  0.6510 -2.3750
  343MOL0     H46244   4.812   8.428   8.004 -2.6299 -0.1772 -2.7601
  343MOL0     H46245   4.855   8.441   7.838 -0.3268 -3.5602  1.2431
  343MOL0     H46246   5.048   8.584   7.873 -0.4100 -0.8475 -1.2209
  343MOL0     H46247   5.007   8.629   8.039  2.9708 -0.7572  0.9600
  343MOL0     H46248   5.032   8.395   8.104 -3.2476  2.5389 -1.2938
  343MOL0     H46249   5.092   8.361   7.942  0.0437  1.3895 -1.1309
  343MOL0     H46250   5.220   8.565   8.138  2.1171  0.7418 -0.6548
  343MOL0     H46251   5.292   8.409   8.114 -0.2715 -0.3678  0.4904
  343MOL0     H46252   5.335   8.471   7.867 -1.8240 -2.3671  1.0309
  343MOL0     H46253   5.272   8.631   7.904  1.8080  0.3304  0.0613
  343MOL0     H46254   5.519   8.617   7.907  2.6217 -2.8020 -0.2297
  343MOL0     H46255   5.518   8.486   8.012  2.1560  0.7340 -1.9850
  343MOL0     H46256   5.426   8.857   8.006 -1.3846  0.3687  2.1068
  343MOL0     H46257   5.400   9.027   8.297 -0.7083 -2.1998 -0.4375
  343MOL0     H46258   5.577   9.019   8.331  3.3779 -1.0416 -4.4491
  343MOL0     H46259   5.466   9.071   8.054 -0.8058 -0.2286  0.1515
  343MOL0     H46260   5.626   9.106   8.125  1.0028 -0.5886  3.2249
  343MOL0     H46261   5.440   9.259   8.278 -3.2603 -0.3691 -0.7608
  343MOL0     H46262   5.354   9.230   8.128  0.1957 -1.3166 -2.2572
  343MOL0     H46263   5.626   9.343   8.135  0.4562 -3.6078 -2.8047
  343MOL0     H46264   5.475   9.431   8.121 -1.6978 -1.3549  0.8770
  343MOL0     H46265   5.275   9.300   7.910 -0.3148 -0.1964 -2.1187
  343MOL0     H46266   5.055   9.525   7.787 -1.9405 -1.5735  0.8144
  343MOL0     H46267   5.111   9.423   7.641  0.9693 -0.0269 -0.0945
  343MOL0     H46268   5.071   9.353   7.799 -2.5900  0.4276 -1.0198
  343MOL0     H46269   5.186   9.654   7.299 -1.9682  2.1607  0.3782
  343MOL0     H46270   5.176   9.824   7.126  2.1069  0.4863 -3.0785
  343MOL0     H46271   5.335   9.888   6.956 -1.0435 -1.3605 -0.0582
  343MOL0     H46272   5.194   9.987   6.993 -0.0728  3.2494  0.7388
  343MOL0     H46273   5.457  10.078   6.855  0.6233  1.8989 -0.9176
  343MOL0     H46274   5.304  10.038   6.769 -1.5446  0.3146  1.3191
  343MOL0     H46275   5.296  10.249   6.978 -3.7134 -0.3143  0.8226
  343MOL0     H46276   5.174  10.210   6.877  0.4714  0.6834  1.5487
  343MOL0     H46277   5.435  10.333   6.764  0.4823 -3.1463 -3.5774
  343MOL0     H46278   5.296  10.299   6.669 -1.2434  1.7171  0.3073
  343MOL0     H46279   5.315  10.482   6.918  2.3230  2.0632 -0.5502
  343MOL0     H46280   5.175  10.461   6.816  0.6491  1.3199 -0.0144
  343MOL0     H46281   5.329  10.662   6.782  1.9976 -0.2322  1.3576
  343MOL0     H46282   5.463  10.558   6.739  0.7764 -3.4698  1.7607
  343MOL0     H46283   5.336  10.478   6.532 -1.1850  2.1583 -3.1338
  343MOL0     H46284   5.373  10.649   6.524  0.7320  2.7237  2.4866
  343MOL0     H46285   5.158  10.701   6.609  3.2192  0.2666 -1.0138
  343MOL0     H46286   5.100  10.530   6.600  0.7681  0.1233  2.3478
  343MOL0     H46287   5.540   9.995   7.267 -0.3252  0.9704  1.2626
  343MOL0     H46288   5.549   9.824   7.453  0.9831 -0.0137 -0.4188
  343MOL0     H46289   5.518   9.651   7.667 -0.2231  1.1938  2.1996
  343MOL0     H46290   5.642   9.493   7.798 -0.1554  0.5328 -4.5901
  343MOL0     H46291   4.590   9.012   8.032  0.6535 -1.8433  0.0037
  343MOL0     H46292   4.528   9.176   8.207  1.3954  0.5104 -0.4503
  343MOL0     H46293   4.479   9.281   8.642  0.7970 -2.9012  0.7049
  343MOL0     H46294   4.394   9.389   8.835 -1.3038  2.8355 -1.5536
  343MOL0     H46295   4.010   9.451   9.063 -0.2233 -0.9166  2.1088
  343MOL0     H46296   3.956   9.335   8.931  0.2715 -0.6722 -0.0201
  343MOL0     H46297   4.040   9.155   9.034  0.9548  1.7572 -2.1357
  343MOL0     H46298   3.955   9.242   9.166 -0.3697  0.4131  0.5233
  343MOL0     H46299   4.151   9.315   9.266 -1.2540 -1.1522  2.0992
  343MOL0     H46300   4.268   9.255   9.158 -0.0553  1.0111 -0.6130
  343MOL0     H46301   4.197   9.012   9.206 -0.3516  2.1781 -2.8134
  343MOL0     H46302   4.067   9.066   9.308 -0.0068  2.3590  1.7305
  343MOL0     H46303   4.360   9.151   9.583 -2.6218  1.4537  2.1544
  343MOL0     H46304   4.013   9.201   8.793  2.0533  3.2316  3.4002
  343MOL0     H46305   4.101   9.076   8.592  0.2764  0.9447 -0.0145
  344MOL0     O46306   5.052   3.247   7.547  0.0255  0.1862  0.8314
  344MOL0     C46307   5.099   3.350   7.577  0.2531 -1.1946  0.4696
  344MOL0     O46308   5.078   3.476   7.514 -0.6881  0.0898 -0.3180
  344MOL0     C46309   4.999   3.491   7.403  0.5139  0.0851  0.4455
  344MOL0     C46310   5.025   3.615   7.335 -0.0796  0.0315  0.4430
  344MOL0     C46311   4.954   3.652   7.223  0.7262  0.3742  0.3812
  344MOL0     C46312   4.881   3.562   7.160  0.4705  1.7229  0.0204
  344MOL0     O46313   4.832   3.587   7.034  0.7978  1.2471 -0.2983
  344MOL0     C46314   4.855   3.704   6.962 -0.3089 -0.1070 -0.0141
  344MOL0     C46315   4.990   3.702   6.895 -0.5970 -0.1339  0.3858
  344MOL0     C46316   4.990   3.798   6.781 -0.1244 -0.7284  0.2615
  344MOL0     C46317   5.092   3.779   6.667  0.2173 -0.3811 -0.5815
  344MOL0     C46318   5.046   3.682   6.554  0.2168  1.0418  0.4965
  344MOL0     C46319   4.916   3.714   6.476 -0.1113  0.4638 -0.0240
  344MOL0     C46320   4.894   3.870   6.460  0.9214  0.1482  0.4886
  344MOL0     C46321   4.763   3.901   6.388 -0.3081 -0.2181 -0.2501
  344MOL0     N46322   4.640   3.854   6.446  0.5818 -0.5385  0.4874
  344MOL0     C46323   4.585   3.876   6.576  0.5900  0.5476 -0.7803
  344MOL0     C46324   4.468   3.817   6.571 -0.2621  0.6316  0.6064
  344MOL0     C46325   4.357   3.805   6.668  0.1295 -1.1798  0.0963
  344MOL0     C46326   4.414   3.788   6.803  0.5494 -0.0244 -0.0694
  344MOL0     C46327   4.309   3.754   6.908 -0.5006  0.0289  0.1915
  344MOL0     C46328   4.374   3.737   7.045 -0.2012  0.4238  0.0150
  344MOL0     O46329   4.276   3.729   7.149  0.6324 -0.0755  0.2423
  344MOL0     C46330   4.318   3.702   7.278  0.0012  0.5035 -0.5253
  344MOL0     C46331   4.432   3.640   7.318 -0.5216  0.3390  0.1090
  344MOL0     C46332   4.452   3.613   7.460 -0.1921 -0.2999  1.3124
  344MOL0     C46333   4.587   3.548   7.494 -0.4560  0.3262  0.7206
  344MOL0     C46334   4.365   3.670   7.554  0.1594 -0.1171 -0.3189
  344MOL0     C46335   4.391   3.674   7.702  0.3495 -0.3533 -0.1138
  344MOL0     O46336   4.512   3.710   7.737 -1.2048 -0.6543  0.5382
  344MOL0     C46337   4.556   3.682   7.862  0.8620  0.5291  0.1347
  344MOL0     C46338   4.613   3.793   7.932 -0.8525 -0.1469 -0.8555
  344MOL0     C46339   4.657   3.784   8.062  0.5033 -0.2439  0.5292
  344MOL0     C46340   4.645   3.660   8.128 -0.3964  0.5997 -0.9459
  344MOL0     O46341   4.692   3.632   8.261  0.4224  1.3927  0.4197
  344MOL0     C46342   4.808   3.699   8.299 -1.0362  0.1461 -0.0777
  344MOL0     C46343   4.870   3.630   8.430  1.1879  0.5217 -0.8887
  344MOL0     C46344   5.010   3.687   8.473 -0.1211  0.1482  0.3839
  344MOL0     C46345   5.040   3.702   8.627 -0.9538 -0.9483  0.5177
  344MOL0     C46346   5.195   3.714   8.652  0.3306 -0.8364  0.0242
  344MOL0     C46347   5.249   3.660   8.789 -0.0130  0.7858  0.0468
  344MOL0     C46348   5.394   3.666   8.793 -0.2795 -0.0226 -0.0183
  344MOL0     C46349   5.435   3.783   8.881  0.5599  0.8825  0.1990
  344MOL0    Cl46350   5.613   3.792   8.910 -0.2755  0.0637  0.1826
  344MOL0     C46351   4.574   3.558   8.063  0.0057 -0.3233  0.9054
  344MOL0     C46352   4.536   3.561   7.928  0.2048 -0.2937  0.3561
  344MOL0     O46353   4.293   3.641   7.777 -0.8687  0.7746 -0.0565
  344MOL0     C46354   4.249   3.730   7.510  0.1971 -0.3111 -0.4887
  344MOL0     C46355   4.229   3.749   7.374 -0.3357  0.1757  0.3161
  344MOL0     N46356   4.443   3.780   6.439 -0.5671 -0.3657 -0.3715
  344MOL0     N46357   4.547   3.802   6.362 -0.5823  1.2010  0.2001
  344MOL0     C46358   4.854   3.436   7.224  0.4074 -0.3903  0.2685
  344MOL0     C46359   4.912   3.397   7.343  1.6806  0.3107  0.0303
  344MOL0     C46360   5.191   3.351   7.684 -0.6161  1.2351 -0.4068
  344MOL0     C46361   5.254   3.221   7.716  0.0614  0.9293 -0.6057
  344MOL0     C46362   5.340   3.209   7.830  0.6096  1.0069  0.5695
  344MOL0     C46363   5.369   3.328   7.908  0.3262 -0.1876  0.1955
  344MOL0     O46364   5.450   3.319   8.019  0.9822 -0.6251  0.1414
  344MOL0     C46365   5.541   3.417   8.065  0.0089 -0.3927  0.0057
  344MOL0     C46366   5.552   3.390   8.213  0.0391 -0.5394  0.4884
  344MOL0     C46367   5.456   3.472   8.291  0.2110 -0.0757  0.4746
  344MOL0     C46368   5.437   3.415   8.436 -0.3692 -0.3399 -0.3501
  344MOL0     C46369   5.558   3.396   8.522  0.3368 -0.6662 -0.3939
  344MOL0     C46370   5.655   3.381   8.591  0.2685  0.3959  0.2218
  344MOL0     C46371   5.322   3.449   7.870  0.8958  0.3260 -0.1736
  344MOL0     C46372   5.221   3.456   7.771 -0.7359  0.1890  1.1557
  344MOL0     H46373   5.096   3.679   7.386 -0.4955 -0.1137  1.2109
  344MOL0     H46374   4.982   3.748   7.182  0.6710  0.9085  1.5657
  344MOL0     H46375   4.775   3.718   6.888 -1.2035  0.5278  1.0276
  344MOL0     H46376   4.850   3.784   7.037 -0.5179 -1.7376  1.7804
  344MOL0     H46377   5.081   3.724   6.952 -0.4318  0.5503 -0.1210
  344MOL0     H46378   5.007   3.598   6.867 -4.1471 -1.5100  2.6196
  344MOL0     H46379   4.891   3.787   6.734 -0.2768  1.0202  0.0796
  344MOL0     H46380   4.986   3.897   6.828 -2.2443 -1.1802  1.1673
  344MOL0     H46381   5.109   3.876   6.620 -3.4026 -0.7391 -3.0144
  344MOL0     H46382   5.183   3.751   6.721 -0.9743  0.2720  1.9550
  344MOL0     H46383   5.117   3.667   6.471  2.8356  2.0417  2.4113
  344MOL0     H46384   5.043   3.584   6.603  0.3912  0.0761 -1.3240
  344MOL0     H46385   4.895   3.652   6.388 -0.6506 -0.0567  0.4608
  344MOL0     H46386   4.834   3.677   6.539 -0.9244  0.4051 -1.0873
  344MOL0     H46387   4.894   3.908   6.563 -0.4766 -5.4626  2.9313
  344MOL0     H46388   4.976   3.910   6.399  1.3512 -1.8968 -0.3572
  344MOL0     H46389   4.768   3.870   6.284  2.4217  1.8778 -0.8400
  344MOL0     H46390   4.765   4.010   6.393 -0.2837 -0.2123 -0.4005
  344MOL0     H46391   4.624   3.929   6.662 -0.7051 -3.7540  2.8415
  344MOL0     H46392   4.289   3.890   6.659  0.6175 -0.7756  0.2638
  344MOL0     H46393   4.289   3.720   6.650 -2.2762  0.4473  0.9489
  344MOL0     H46394   4.483   3.866   6.835  1.1483  0.3456 -2.1547
  344MOL0     H46395   4.488   3.707   6.804 -0.5560 -1.1171  2.3591
  344MOL0     H46396   4.251   3.668   6.873  2.3021 -0.8444 -2.7851
  344MOL0     H46397   4.237   3.837   6.903 -0.5024 -0.0070 -0.4855
  344MOL0     H46398   4.438   3.823   7.067  4.1589 -2.5578  0.3374
  344MOL0     H46399   4.431   3.644   7.036 -0.7492  0.0081  0.7301
  344MOL0     H46400   4.509   3.594   7.257 -1.0433 -0.3470 -0.0407
  344MOL0     H46401   4.641   3.630   7.542 -4.5991  2.8608  1.5131
  344MOL0     H46402   4.579   3.454   7.549 -1.4031 -0.3201 -0.4695
  344MOL0     H46403   4.636   3.515   7.401 -0.6263  0.7968  0.4593
  344MOL0     H46404   4.628   3.887   7.880 -0.8760  1.2633  1.5474
  344MOL0     H46405   4.705   3.869   8.110 -3.8308  2.0145  1.3241
  344MOL0     H46406   4.872   3.686   8.211 -2.3626  1.3415 -1.2719
  344MOL0     H46407   4.791   3.806   8.312  1.1007  0.6899 -1.1672
  344MOL0     H46408   4.791   3.640   8.505  0.1158  5.1194 -2.3210
  344MOL0     H46409   4.886   3.523   8.411 -0.5880  0.1929 -0.7126
  344MOL0     H46410   5.031   3.786   8.430  3.4167 -1.1057 -1.1638
  344MOL0     H46411   5.094   3.629   8.433  0.8256  1.7981 -0.1424
  344MOL0     H46412   4.999   3.798   8.659  0.8916 -0.1115  0.5050
  344MOL0     H46413   4.997   3.623   8.689  0.7743 -1.6808  0.8516
  344MOL0     H46414   5.222   3.820   8.643 -4.0876  0.7570  2.2901
  344MOL0     H46415   5.248   3.667   8.569  1.2850 -1.3649  0.9207
  344MOL0     H46416   5.196   3.708   8.871  3.3728 -0.6043  3.3294
  344MOL0     H46417   5.221   3.554   8.795  0.2036  0.7206 -0.0694
  344MOL0     H46418   5.438   3.680   8.694 -0.3223 -1.1246 -0.2108
  344MOL0     H46419   5.441   3.582   8.844  1.2679  1.9982  2.0868
  344MOL0     H46420   5.395   3.779   8.982 -0.0506 -1.6481 -0.0833
  344MOL0     H46421   5.404   3.873   8.826 -2.1241 -1.0810 -1.8427
  344MOL0     H46422   4.563   3.466   8.120 -0.4172  0.5243  2.2312
  344MOL0     H46423   4.493   3.473   7.882  0.3249 -0.2733  0.2053
  344MOL0     H46424   4.174   3.765   7.581 -1.8825 -0.4050 -2.4891
  344MOL0     H46425   4.140   3.798   7.336  0.1336  1.2862  0.6201
  344MOL0     H46426   4.796   3.370   7.160 -0.8411  1.8088 -0.9819
  344MOL0     H46427   4.899   3.294   7.374 -0.5632  0.6295  0.3307
  344MOL0     H46428   5.226   3.137   7.652 -0.8587  1.6669 -1.1975
  344MOL0     H46429   5.407   3.127   7.854  1.5179  1.5485 -0.0710
  344MOL0     H46430   5.639   3.417   8.017 -0.7246 -1.1133 -1.5239
  344MOL0     H46431   5.495   3.516   8.055  0.2571 -0.1926  0.7847
  344MOL0     H46432   5.652   3.422   8.244  0.7780 -2.7306  0.5307
  344MOL0     H46433   5.559   3.282   8.232  0.7191 -0.5446  0.2566
  344MOL0     H46434   5.358   3.461   8.244  0.6820  0.3124 -0.6176
  344MOL0     H46435   5.487   3.576   8.293 -0.6370  0.2339 -1.1379
  344MOL0     H46436   5.372   3.328   8.436 -0.2719 -0.4896 -2.9729
  344MOL0     H46437   5.378   3.484   8.497  1.3035  1.5899 -0.7904
  344MOL0     H46438   5.746   3.372   8.648 -0.9560 -4.7415  1.8838
  344MOL0     H46439   5.345   3.533   7.934 -0.1130  0.2744  0.2917
  344MOL0     H46440   5.182   3.556   7.756 -0.7397 -0.1030 -0.9850
  345MOL0     O46441   9.580   5.818  10.133  0.5908  0.6459 -0.4070
  345MOL0     C46442   9.476   5.815  10.197  0.5589 -0.0076 -1.0527
  345MOL0     O46443   9.408   5.699  10.227  0.5651  0.0898 -0.2309
  345MOL0     C46444   9.467   5.581  10.196  0.3380  0.1543  0.0044
  345MOL0     C46445   9.518   5.505  10.289 -0.6772 -0.1459  0.1086
  345MOL0     C46446   9.572   5.381  10.267 -1.1889  1.6606  0.6820
  345MOL0     C46447   9.583   5.338  10.132  0.4108  0.0790 -0.0145
  345MOL0     O46448   9.648   5.216  10.103 -0.5524  0.2846 -0.3998
  345MOL0     C46449   9.597   5.138   9.997  0.0094  0.2102  0.2363
  345MOL0     C46450   9.676   5.011   9.996 -0.1145  0.4069 -0.3870
  345MOL0     C46451   9.629   4.891  10.069  0.6857 -0.2973  0.1779
  345MOL0     C46452   9.630   4.916  10.227  1.1990  0.2563  0.4149
  345MOL0     C46453   9.561   4.797  10.300 -0.2291 -1.3308 -0.3101
  345MOL0     C46454   9.641   4.669  10.296  0.3299  0.0811 -0.1488
  345MOL0     C46455   9.573   4.570  10.401 -0.3020 -0.6289 -0.2675
  345MOL0     C46456   9.428   4.542  10.364  0.0249  0.0252 -0.8593
  345MOL0     N46457   9.373   4.432  10.448 -0.3527  0.1419 -0.4523
  345MOL0     C46458   9.431   4.306  10.454 -0.7939 -0.3702 -0.7490
  345MOL0     C46459   9.319   4.224  10.493 -0.4991 -0.2230 -0.2438
  345MOL0     C46460   9.344   4.075  10.526 -0.8003  0.1134 -0.7298
  345MOL0     C46461   9.244   3.989  10.479  0.4131  0.5712  0.0613
  345MOL0     C46462   9.257   3.836  10.505 -0.7893 -0.1373  0.3983
  345MOL0     C46463   9.115   3.781  10.500 -1.0352 -0.1878  0.0509
  345MOL0     O46464   9.079   3.727  10.373  0.1868  0.2101  0.1933
  345MOL0     C46465   8.972   3.644  10.354  0.4878 -0.2194 -0.2520
  345MOL0     C46466   8.886   3.579  10.445  0.3771 -0.0537  0.5348
  345MOL0     C46467   8.787   3.484  10.411  0.0862  0.0069 -0.7467
  345MOL0     C46468   8.702   3.434  10.521 -0.9672 -0.7419 -0.1537
  345MOL0     C46469   8.775   3.457  10.267  0.8828  0.3997  0.4371
  345MOL0     C46470   8.684   3.351  10.218 -0.5816  0.0540 -0.6470
  345MOL0     O46471   8.588   3.307  10.304 -0.1347 -0.1168 -0.2587
  345MOL0     C46472   8.505   3.201  10.284 -0.4356  0.2388  0.9077
  345MOL0     C46473   8.553   3.075  10.236  0.2380 -0.5187 -0.7015
  345MOL0     C46474   8.455   2.980  10.222 -0.4600  1.0274  0.2656
  345MOL0     C46475   8.320   2.997  10.225 -0.0965 -0.3088 -0.8683
  345MOL0     O46476   8.219   2.913  10.203  0.3811 -0.4522 -0.2633
  345MOL0     C46477   8.247   2.783  10.153 -0.0770 -1.3294 -0.5264
  345MOL0     C46478   8.240   2.794  10.002  0.8761 -0.5921 -0.2539
  345MOL0     C46479   8.289   2.654   9.937  0.0294 -0.1604  0.3592
  345MOL0     C46480   8.179   2.548   9.934 -0.7781  0.4052 -0.5518
  345MOL0     C46481   8.067   2.591   9.853  0.2335 -0.4061  0.0970
  345MOL0     C46482   7.946   2.501   9.834 -0.4979 -0.3077 -0.6631
  345MOL0     C46483   7.898   2.462   9.964  0.9692 -0.1226 -0.2385
  345MOL0     C46484   7.779   2.371   9.952 -0.5645  0.2599 -0.3008
  345MOL0    Cl46485   7.787   2.240   9.820  0.2206 -0.4568  0.0222
  345MOL0     C46486   8.278   3.122  10.265 -0.3902 -0.0422 -0.4151
  345MOL0     C46487   8.367   3.218  10.298 -0.1720  0.2867 -0.7137
  345MOL0     O46488   8.716   3.306  10.112 -0.4263 -0.1404 -0.6201
  345MOL0     C46489   8.857   3.524  10.177  0.8963 -0.2966 -0.9163
  345MOL0     C46490   8.947   3.615  10.223  0.5777  0.2227 -0.5731
  345MOL0     N46491   9.215   4.310  10.532 -0.5304 -0.3852  0.6722
  345MOL0     N46492   9.245   4.428  10.486  0.1960 -0.2125 -0.0008
  345MOL0     C46493   9.527   5.421  10.024  0.2448 -0.1823  0.3281
  345MOL0     C46494   9.475   5.543  10.057 -0.1080 -0.4882 -0.8752
  345MOL0     C46495   9.421   5.942  10.242  0.1101  0.3678 -0.0619
  345MOL0     C46496   9.508   6.049  10.266 -0.1857 -0.5084 -0.3168
  345MOL0     C46497   9.463   6.186  10.284 -0.1351  0.4659 -0.4414
  345MOL0     C46498   9.328   6.210  10.291  0.2220  0.1616 -0.1735
  345MOL0     O46499   9.292   6.341  10.307  0.6337  0.0714  1.3867
  345MOL0     C46500   9.154   6.385  10.323 -0.9462  0.4833 -0.4166
  345MOL0     C46501   9.108   6.409  10.473 -0.2481 -0.3096  0.4637
  345MOL0     C46502   9.202   6.507  10.542  0.4168  0.0987 -0.1729
  345MOL0     C46503   9.213   6.649  10.475 -0.1954 -0.2691 -0.3351
  345MOL0     C46504   9.087   6.728  10.482  0.1087  0.6470 -0.8366
  345MOL0     C46505   8.984   6.798  10.483 -0.5839  0.8046 -0.3155
  345MOL0     C46506   9.241   6.096  10.273 -0.4029 -1.0126  0.1944
  345MOL0     C46507   9.283   5.970  10.246 -0.3209 -0.0917  0.1593
  345MOL0     H46508   9.502   5.560  10.381 -1.5510  0.4708 -0.3834
  345MOL0     H46509   9.617   5.322  10.347 -0.7087 -0.0357 -0.7836
  345MOL0     H46510   9.489   5.128  10.005 -0.0314 -0.7999 -1.2591
  345MOL0     H46511   9.635   5.189   9.908  0.1094  2.0793  1.3067
  345MOL0     H46512   9.682   4.980   9.892  1.7504  0.5256 -0.3595
  345MOL0     H46513   9.778   5.027  10.033  0.0109 -1.9052  0.4093
  345MOL0     H46514   9.526   4.873  10.037  1.6928 -3.7139 -1.6439
  345MOL0     H46515   9.687   4.804  10.038  0.5200  0.7576 -3.5297
  345MOL0     H46516   9.732   4.931  10.263  0.6664 -0.0027  2.0868
  345MOL0     H46517   9.576   5.007  10.252  1.4532 -0.2520  3.0628
  345MOL0     H46518   9.550   4.840  10.399  1.4773  0.0121 -0.6520
  345MOL0     H46519   9.473   4.786  10.236  1.6130  0.6700 -3.4665
  345MOL0     H46520   9.639   4.620  10.198 -1.4453  0.6449 -0.4343
  345MOL0     H46521   9.743   4.684  10.333 -0.5386 -1.5457  3.2745
  345MOL0     H46522   9.637   4.481  10.407 -2.0691 -1.9146  0.4007
  345MOL0     H46523   9.556   4.615  10.499  2.7965 -0.0993  0.1226
  345MOL0     H46524   9.430   4.516  10.258 -2.7193  2.6800 -1.6939
  345MOL0     H46525   9.370   4.634  10.373  1.9448  1.2830 -0.7844
  345MOL0     H46526   9.527   4.262  10.432  0.3734  1.8715 -0.3932
  345MOL0     H46527   9.435   4.042  10.473  0.9073 -0.3050  2.2654
  345MOL0     H46528   9.361   4.073  10.634  1.2609  0.8645 -0.9913
  345MOL0     H46529   9.242   3.980  10.370 -0.5132 -3.3942  0.2259
  345MOL0     H46530   9.144   4.024  10.508 -0.4839 -1.2034 -0.6997
  345MOL0     H46531   9.300   3.823  10.604 -3.3958  0.1996  1.6638
  345MOL0     H46532   9.316   3.786  10.428  0.2770  1.4949  0.0997
  345MOL0     H46533   9.039   3.853  10.533  0.4366  1.3945  0.1356
  345MOL0     H46534   9.109   3.704  10.577 -2.4042  0.8675  1.0544
  345MOL0     H46535   8.897   3.614  10.547  4.1044  0.2982  0.1475
  345MOL0     H46536   8.711   3.325  10.530 -3.7212 -1.2630 -2.2600
  345MOL0     H46537   8.725   3.485  10.614 -0.1359  0.5210 -1.0227
  345MOL0     H46538   8.598   3.456  10.495 -0.3950  1.5950 -0.6971
  345MOL0     H46539   8.659   3.059  10.217  0.4896  2.3218 -2.2564
  345MOL0     H46540   8.500   2.886  10.191  0.1099  1.5302 -0.4594
  345MOL0     H46541   8.350   2.752  10.174  0.8413  2.4829  1.3872
  345MOL0     H46542   8.185   2.705  10.198  0.4815 -0.9144  1.0446
  345MOL0     H46543   8.155   2.840   9.951  0.5732 -2.5592 -1.6594
  345MOL0     H46544   8.316   2.868   9.980 -0.5692  2.2563  3.3037
  345MOL0     H46545   8.371   2.610   9.995 -1.1627 -1.7204  0.8972
  345MOL0     H46546   8.325   2.666   9.834  1.4414 -1.5027  0.6622
  345MOL0     H46547   8.215   2.451   9.896  1.0173  1.5508 -1.9540
  345MOL0     H46548   8.157   2.531  10.039  0.9236  0.4814 -0.1544
  345MOL0     H46549   8.106   2.612   9.752  0.2166 -0.3932  0.0935
  345MOL0     H46550   8.030   2.682   9.901 -1.1548 -1.4967  1.1707
  345MOL0     H46551   7.868   2.553   9.777 -0.5089  0.5142  0.0723
  345MOL0     H46552   7.998   2.422   9.779  2.5258  1.5653 -0.7279
  345MOL0     H46553   7.879   2.544  10.034  2.2733  0.1793 -0.2089
  345MOL0     H46554   7.974   2.399  10.012 -0.2769 -0.1461  1.8369
  345MOL0     H46555   7.693   2.433   9.923  0.1965  1.2076 -0.5654
  345MOL0     H46556   7.768   2.320  10.048 -1.0751  0.5549 -0.1988
  345MOL0     H46557   8.178   3.144  10.302  0.5015  3.4464  0.2324
  345MOL0     H46558   8.321   3.305  10.344  1.7512  0.7535  0.4428
  345MOL0     H46559   8.849   3.504  10.071  3.4904  2.1202 -1.7070
  345MOL0     H46560   9.003   3.672  10.150 -0.7270  4.7513  1.5531
  345MOL0     H46561   9.527   5.403   9.917 -0.9486  3.9612 -0.5601
  345MOL0     H46562   9.435   5.612   9.985 -2.8762  2.9212  3.4164
  345MOL0     H46563   9.614   6.026  10.268 -0.1851 -0.6608 -1.3975
  345MOL0     H46564   9.538   6.264  10.297 -2.3745  2.5938  0.7294
  345MOL0     H46565   9.138   6.482  10.274  0.5584  0.3582 -1.1917
  345MOL0     H46566   9.076   6.319  10.285 -1.3274 -0.1165  1.3181
  345MOL0     H46567   9.103   6.316  10.529  0.2347  0.6183  2.1139
  345MOL0     H46568   9.005   6.444  10.480  0.0540  0.3290  2.1785
  345MOL0     H46569   9.304   6.468  10.542  1.2129  2.0709  0.2060
  345MOL0     H46570   9.164   6.521  10.643 -0.5620 -0.6342 -0.4184
  345MOL0     H46571   9.241   6.641  10.370 -0.5832  0.2691 -0.4836
  345MOL0     H46572   9.294   6.706  10.522  0.0949  1.1272 -2.4030
  345MOL0     H46573   8.907   6.872  10.486 -1.9036 -0.5477  0.6241
  345MOL0     H46574   9.134   6.119  10.277  0.3938  3.6054  0.5521
  345MOL0     H46575   9.202   5.907  10.210 -3.9250  2.3983  3.1648
  346MOL0     O46576   8.460   6.091   4.445  0.2687 -0.1465 -1.1095
  346MOL0     C46577   8.471   6.038   4.554 -0.9787  0.2262 -0.0461
  346MOL0     O46578   8.373   6.001   4.643 -0.0620  0.5564  0.3794
  346MOL0     C46579   8.236   6.025   4.619 -0.5553  0.7403 -0.2619
  346MOL0     C46580   8.189   6.134   4.535 -1.0791  0.5367 -0.2923
  346MOL0     C46581   8.050   6.144   4.526 -0.1143  0.7173 -0.5190
  346MOL0     C46582   7.964   6.048   4.562  1.1177  0.7209 -0.5392
  346MOL0     O46583   7.823   6.050   4.535  0.4851 -0.1777  0.7026
  346MOL0     C46584   7.765   6.176   4.502  0.9890  0.4010  0.4553
  346MOL0     C46585   7.746   6.250   4.631 -0.7095  0.6072 -0.4563
  346MOL0     C46586   7.624   6.202   4.715 -0.2875 -0.6579 -0.2201
  346MOL0     C46587   7.617   6.278   4.844 -0.6512  0.4898  0.2892
  346MOL0     C46588   7.487   6.222   4.926 -0.0578 -0.8725  1.0145
  346MOL0     C46589   7.501   6.227   5.081 -0.6602  0.0909 -0.3097
  346MOL0     C46590   7.478   6.359   5.158  1.0138  0.1601 -0.3560
  346MOL0     C46591   7.493   6.329   5.313  0.6037 -0.7918 -0.2404
  346MOL0     N46592   7.634   6.308   5.330 -1.2308  0.0727 -0.6148
  346MOL0     C46593   7.731   6.409   5.323  0.5700  0.9922  0.8293
  346MOL0     C46594   7.826   6.371   5.398  0.6656 -0.1365 -0.3863
  346MOL0     C46595   7.950   6.450   5.419 -0.1993  0.9154  0.8946
  346MOL0     C46596   8.059   6.404   5.321 -0.5815  0.5389  0.0624
  346MOL0     C46597   8.190   6.493   5.313 -0.0558  0.6003  0.7143
  346MOL0     C46598   8.292   6.449   5.211 -0.1155  0.7905 -0.6223
  346MOL0     O46599   8.401   6.529   5.250 -0.0038  0.5779 -0.3840
  346MOL0     C46600   8.526   6.491   5.198 -0.5053 -0.4236  0.0555
  346MOL0     C46601   8.559   6.389   5.108  1.3238 -0.5211 -1.8233
  346MOL0     C46602   8.690   6.359   5.063  0.3353 -0.4159  0.1166
  346MOL0     C46603   8.705   6.238   4.984  0.5656  1.2056  0.0323
  346MOL0     C46604   8.789   6.450   5.102 -0.6430 -0.7425  0.0425
  346MOL0     C46605   8.928   6.457   5.053 -0.2945 -0.0248 -0.6528
  346MOL0     O46606   9.020   6.544   5.127  0.3566 -0.0238 -0.4579
  346MOL0     C46607   9.151   6.531   5.102 -0.7919 -0.0171  0.0880
  346MOL0     C46608   9.221   6.640   5.052  0.1053 -0.0737 -1.6872
  346MOL0     C46609   9.362   6.638   5.037  0.1989 -0.7218 -0.7914
  346MOL0     C46610   9.428   6.524   5.067  0.5179  0.0407 -0.4887
  346MOL0     O46611   9.564   6.512   5.051  0.0188  0.5215 -0.0345
  346MOL0     C46612   9.639   6.627   5.009  0.2412  0.3667 -0.1746
  346MOL0     C46613   9.791   6.598   5.003 -0.4363  0.5235 -0.3416
  346MOL0     C46614   9.855   6.683   4.893 -0.7772  0.1029  0.3936
  346MOL0     C46615   9.807   6.656   4.750 -0.5904  0.6969 -0.2265
  346MOL0     C46616   9.834   6.514   4.707 -0.1422  0.7216 -0.2336
  346MOL0     C46617   9.805   6.512   4.552 -0.8133 -0.4414  0.1341
  346MOL0     C46618   9.866   6.377   4.490  0.8759  1.3724 -0.2662
  346MOL0     C46619   9.792   6.251   4.542  0.4485 -1.0510  0.1750
  346MOL0    Cl46620   9.889   6.107   4.490  0.3308 -0.5746  0.2754
  346MOL0     C46621   9.365   6.417   5.131  0.1686  0.0178 -0.0912
  346MOL0     C46622   9.222   6.426   5.143  0.1026 -0.0587  0.1137
  346MOL0     O46623   8.954   6.398   4.948 -0.1623 -0.1906  0.2230
  346MOL0     C46624   8.757   6.557   5.199 -0.2251  0.8987  0.3407
  346MOL0     C46625   8.625   6.569   5.244  0.6984  0.2036 -0.2549
  346MOL0     N46626   7.804   6.239   5.442 -0.1905  0.0257 -0.2664
  346MOL0     N46627   7.681   6.203   5.401 -0.5507  0.1617 -0.0195
  346MOL0     C46628   8.006   5.949   4.650  0.4328 -0.9918  0.3979
  346MOL0     C46629   8.141   5.936   4.680  0.5352 -0.1597 -0.2758
  346MOL0     C46630   8.617   6.018   4.591  0.1551 -0.1248 -0.1440
  346MOL0     C46631   8.642   5.972   4.718 -0.1422 -0.5578 -0.4025
  346MOL0     C46632   8.770   5.962   4.755 -0.7156  0.6672  0.1336
  346MOL0     C46633   8.879   5.985   4.667 -0.9704 -0.2242  0.0938
  346MOL0     O46634   9.012   5.961   4.704  0.0527 -0.6420  0.5162
  346MOL0     C46635   9.060   6.062   4.796 -1.0601 -0.4276 -0.1938
  346MOL0     C46636   9.166   6.145   4.724 -0.4614  1.6005 -0.2167
  346MOL0     C46637   9.290   6.054   4.685 -1.4482 -0.5500  0.2531
  346MOL0     C46638   9.410   6.145   4.654  0.0927  0.3447  0.3354
  346MOL0     C46639   9.486   6.176   4.779  0.6507  0.1688  0.0031
  346MOL0     C46640   9.543   6.199   4.880 -0.5687  0.6080 -0.4202
  346MOL0     C46641   8.850   6.009   4.536 -0.1039 -0.0883  0.4918
  346MOL0     C46642   8.721   6.037   4.500  0.8144 -0.2292  0.4958
  346MOL0     H46643   8.262   6.202   4.494  1.4398 -1.4567  0.6168
  346MOL0     H46644   8.032   6.233   4.466 -1.0287  0.8608 -0.0462
  346MOL0     H46645   7.820   6.237   4.430  0.8969 -1.0290 -0.8967
  346MOL0     H46646   7.676   6.155   4.442 -0.6628  1.1241  2.5447
  346MOL0     H46647   7.839   6.232   4.685 -1.6275 -3.4650  0.0589
  346MOL0     H46648   7.729   6.358   4.627 -1.3746  0.4748 -2.5196
  346MOL0     H46649   7.531   6.227   4.663  0.3107  2.5134  0.0193
  346MOL0     H46650   7.625   6.094   4.734  1.0405 -0.0973  3.7284
  346MOL0     H46651   7.709   6.253   4.899  0.0489 -1.6626 -1.6720
  346MOL0     H46652   7.626   6.385   4.826  2.8646  0.4424  0.9745
  346MOL0     H46653   7.400   6.283   4.900  0.6076  0.2420  1.3359
  346MOL0     H46654   7.456   6.121   4.898 -1.4793 -0.5841  1.4370
  346MOL0     H46655   7.429   6.148   5.101 -0.9344  0.2939 -0.4830
  346MOL0     H46656   7.601   6.192   5.108 -0.0682  1.3528 -0.7551
  346MOL0     H46657   7.553   6.432   5.127 -1.8390  3.7956  0.6396
  346MOL0     H46658   7.375   6.385   5.131  0.8040 -0.1214  0.1696
  346MOL0     H46659   7.424   6.248   5.338 -1.1771  0.5833 -0.5339
  346MOL0     H46660   7.461   6.422   5.361 -1.0486 -0.2613 -2.2240
  346MOL0     H46661   7.732   6.502   5.268 -0.0390  1.2519  1.2537
  346MOL0     H46662   7.941   6.559   5.422 -0.7294  0.8546  1.9385
  346MOL0     H46663   7.993   6.422   5.515  2.0100  0.1277 -0.2351
  346MOL0     H46664   8.019   6.390   5.220  0.8259 -0.5345 -0.3835
  346MOL0     H46665   8.090   6.312   5.372 -0.6852  1.4163  1.7825
  346MOL0     H46666   8.236   6.495   5.412 -0.3684  1.8288  0.8582
  346MOL0     H46667   8.161   6.596   5.289  0.2816  0.5370  0.0125
  346MOL0     H46668   8.255   6.474   5.110  0.7395  0.5374 -1.0030
  346MOL0     H46669   8.308   6.341   5.212  1.6040  1.0014 -1.5371
  346MOL0     H46670   8.480   6.324   5.070  0.2253 -1.4073  1.6545
  346MOL0     H46671   8.627   6.162   4.989  3.5571 -2.0979  1.4398
  346MOL0     H46672   8.734   6.254   4.880 -0.0092  1.0462 -0.1579
  346MOL0     H46673   8.784   6.178   5.030  0.3814 -0.5081 -1.7641
  346MOL0     H46674   9.171   6.732   5.023 -1.9465  0.2261  2.1058
  346MOL0     H46675   9.403   6.725   4.986  1.1933 -0.9621 -0.4092
  346MOL0     H46676   9.602   6.679   4.920 -0.5936  2.7019  1.4320
  346MOL0     H46677   9.631   6.705   5.086  0.8309 -1.1908  1.5230
  346MOL0     H46678   9.840   6.633   5.094 -1.6924 -1.4244  1.1860
  346MOL0     H46679   9.821   6.494   4.987  2.4164  0.8367  2.1194
  346MOL0     H46680   9.963   6.665   4.903 -0.2464  1.3722 -2.2601
  346MOL0     H46681   9.843   6.789   4.914 -0.8700  1.0380 -3.6053
  346MOL0     H46682   9.701   6.675   4.728 -1.2175 -0.9900  1.0778
  346MOL0     H46683   9.865   6.721   4.684 -0.2511 -1.6441 -2.3731
  346MOL0     H46684   9.766   6.444   4.756  0.4146 -1.9999 -3.0845
  346MOL0     H46685   9.936   6.480   4.726  0.2583  0.3802 -2.6948
  346MOL0     H46686   9.698   6.526   4.536 -0.7616 -0.3857 -0.1684
  346MOL0     H46687   9.864   6.586   4.497 -1.1350 -1.6383 -1.9594
  346MOL0     H46688   9.972   6.373   4.516  0.2705  0.3187  2.4319
  346MOL0     H46689   9.853   6.379   4.382  0.7729  0.1748 -0.2826
  346MOL0     H46690   9.689   6.254   4.505  0.8748  1.3504 -1.0581
  346MOL0     H46691   9.776   6.255   4.650 -0.0195 -0.4269  0.0903
  346MOL0     H46692   9.413   6.326   5.166 -0.1794 -0.4609 -0.8346
  346MOL0     H46693   9.165   6.350   5.196  2.1361 -0.8630  1.2450
  346MOL0     H46694   8.822   6.631   5.244  4.0531 -1.0799 -2.0042
  346MOL0     H46695   8.600   6.648   5.313  1.4525  0.5988 -0.4284
  346MOL0     H46696   7.942   5.869   4.685 -0.5183  0.7895  2.9630
  346MOL0     H46697   8.166   5.846   4.736  1.3434  0.5695  0.5669
  346MOL0     H46698   8.569   5.950   4.796 -1.3366  1.3457 -0.9003
  346MOL0     H46699   8.796   5.932   4.856  0.8710  0.0575 -0.4268
  346MOL0     H46700   8.982   6.126   4.837  0.7578  3.2888 -2.0273
  346MOL0     H46701   9.119   6.017   4.877  3.6051  2.7824 -1.3539
  346MOL0     H46702   9.189   6.226   4.795 -1.1023  1.7473 -0.1661
  346MOL0     H46703   9.143   6.187   4.626  0.0917 -0.7117 -1.3953
  346MOL0     H46704   9.269   5.999   4.593  1.3548 -0.5244 -0.4924
  346MOL0     H46705   9.314   5.969   4.751  0.4377 -0.3996 -0.1815
  346MOL0     H46706   9.373   6.241   4.616 -1.4934 -0.3948 -0.0861
  346MOL0     H46707   9.484   6.101   4.587  2.6145  2.4524  1.5522
  346MOL0     H46708   9.577   6.222   4.979 -0.0026 -2.0120  0.0776
  346MOL0     H46709   8.924   6.026   4.458 -0.4144 -0.4956  0.1030
  346MOL0     H46710   8.687   6.068   4.402 -0.0144  3.3575  1.7632
  347MOL0     O46711   6.070   4.481   6.679  0.3350  0.8174  0.1708
  347MOL0     C46712   5.966   4.456   6.739  1.3081 -0.6940 -0.3037
  347MOL0     O46713   5.924   4.344   6.798  0.4567 -0.0235  0.0413
  347MOL0     C46714   6.015   4.242   6.796 -0.9212  0.6293  0.3489
  347MOL0     C46715   6.143   4.252   6.853  0.1746 -0.0266  0.7659
  347MOL0     C46716   6.228   4.138   6.868  0.3748  1.0782 -0.4227
  347MOL0     C46717   6.198   4.010   6.815  0.3991  0.5837 -0.2619
  347MOL0     O46718   6.288   3.909   6.818  0.6681 -0.3293  0.2785
  347MOL0     C46719   6.250   3.787   6.747  0.1433 -0.2693  0.1329
  347MOL0     C46720   6.357   3.677   6.784  0.6352 -0.7132  0.0580
  347MOL0     C46721   6.496   3.723   6.749  0.1698  0.8499 -0.3171
  347MOL0     C46722   6.599   3.603   6.769  0.3156 -0.7322  0.3434
  347MOL0     C46723   6.744   3.652   6.741  0.3918  0.5382  0.1619
  347MOL0     C46724   6.842   3.533   6.744 -0.0289 -0.1970 -0.7401
  347MOL0     C46725   6.979   3.591   6.734  0.5622 -0.4442  0.4256
  347MOL0     C46726   7.027   3.647   6.600  0.5035  0.5026 -0.1281
  347MOL0     N46727   6.996   3.788   6.569 -0.4953  0.4514  0.7820
  347MOL0     C46728   6.946   3.886   6.647 -0.1843 -0.0235  0.8797
  347MOL0     C46729   6.952   4.000   6.574  0.5570 -0.1338  1.3385
  347MOL0     C46730   6.916   4.132   6.633 -0.3422 -0.0099 -0.4528
  347MOL0     C46731   6.779   4.170   6.590  1.5395  0.4083 -0.2768
  347MOL0     C46732   6.662   4.062   6.608  0.3223  0.0868 -0.6038
  347MOL0     C46733   6.518   4.121   6.582 -0.6168 -1.2208 -0.4983
  347MOL0     O46734   6.493   4.173   6.447  0.0996 -0.3920  0.3644
  347MOL0     C46735   6.378   4.247   6.414  0.2646  0.9521 -0.4178
  347MOL0     C46736   6.372   4.330   6.309  0.0936  0.4936 -0.5071
  347MOL0     C46737   6.244   4.384   6.270  0.0528  0.6399 -0.5167
  347MOL0     C46738   6.237   4.469   6.146 -0.3403  0.1460  0.1344
  347MOL0     C46739   6.132   4.355   6.345 -0.1702 -0.5937  0.6445
  347MOL0     C46740   5.999   4.438   6.325 -1.5442 -0.0900 -0.2224
  347MOL0     O46741   5.885   4.375   6.368 -0.3750  0.0897  0.0957
  347MOL0     C46742   5.776   4.397   6.293  0.0177  0.0232 -0.4357
  347MOL0     C46743   5.676   4.484   6.343  0.0274  0.6391 -0.0884
  347MOL0     C46744   5.558   4.499   6.267 -0.5315  0.5699  0.4998
  347MOL0     C46745   5.548   4.438   6.140  0.1191  1.2212 -0.6000
  347MOL0     O46746   5.427   4.435   6.068 -0.1068 -0.4127  0.8482
  347MOL0     C46747   5.355   4.559   6.080  0.1410 -0.6675  0.2436
  347MOL0     C46748   5.231   4.547   5.997  0.5982  0.0852  0.6085
  347MOL0     C46749   5.236   4.541   5.840 -0.3587  0.5073 -0.4841
  347MOL0     C46750   5.094   4.576   5.777 -0.0928  0.1181 -1.2184
  347MOL0     C46751   4.996   4.460   5.784  0.1741  0.0985 -0.4237
  347MOL0     C46752   4.858   4.499   5.716  0.0068  0.3261  0.3800
  347MOL0     C46753   4.768   4.374   5.685 -0.5160  0.6360 -0.3420
  347MOL0     C46754   4.819   4.299   5.565 -0.2263 -0.5093  0.1113
  347MOL0    Cl46755   4.704   4.176   5.497 -0.4239 -0.0193 -0.6006
  347MOL0     C46756   5.648   4.359   6.086 -0.7788  0.0260  0.2849
  347MOL0     C46757   5.760   4.330   6.167  0.1307  1.4123  0.2474
  347MOL0     O46758   6.005   4.539   6.261 -0.1062 -0.4729  1.1305
  347MOL0     C46759   6.137   4.258   6.444 -0.2924 -1.1456 -0.0299
  347MOL0     C46760   6.257   4.201   6.480  0.4484 -1.4741 -0.2006
  347MOL0     N46761   6.993   3.971   6.443 -0.1905 -0.2372 -0.9587
  347MOL0     N46762   7.026   3.848   6.440 -0.2529 -0.1211  0.3745
  347MOL0     C46763   6.076   4.004   6.745 -0.6172 -0.7873 -0.1027
  347MOL0     C46764   5.985   4.116   6.740 -0.3612 -0.0875  0.4285
  347MOL0     C46765   5.864   4.561   6.747  0.8806 -0.1263 -0.4949
  347MOL0     C46766   5.752   4.562   6.833 -0.2040 -0.3302  0.1698
  347MOL0     C46767   5.650   4.660   6.812 -0.0237 -0.2488  0.6675
  347MOL0     C46768   5.666   4.759   6.717  1.0286 -0.9204 -0.0491
  347MOL0     O46769   5.555   4.832   6.717 -0.8110 -0.4746  0.3922
  347MOL0     C46770   5.543   4.922   6.595 -0.6128  0.4073  0.4725
  347MOL0     C46771   5.403   4.994   6.602 -0.1308  0.4286 -0.2901
  347MOL0     C46772   5.404   5.107   6.706  0.0468 -0.0904  0.2337
  347MOL0     C46773   5.272   5.177   6.722 -0.2505 -0.4815 -0.9061
  347MOL0     C46774   5.221   5.257   6.616  0.1667 -0.1044  0.0230
  347MOL0     C46775   5.187   5.310   6.519 -0.9944 -0.9719  0.7192
  347MOL0     C46776   5.774   4.757   6.639  0.4951  0.1459 -0.3535
  347MOL0     C46777   5.870   4.655   6.652  1.0779 -0.4336 -0.2035
  347MOL0     H46778   6.176   4.348   6.892  2.4509  0.8029 -2.7635
  347MOL0     H46779   6.317   4.147   6.930 -1.6460  0.2364  2.8098
  347MOL0     H46780   6.147   3.761   6.772 -1.6111  5.1332 -0.0458
  347MOL0     H46781   6.260   3.812   6.641 -0.7100  0.8620  0.2982
  347MOL0     H46782   6.358   3.658   6.891  0.6034  0.3334  0.2505
  347MOL0     H46783   6.329   3.579   6.742 -1.6165 -0.8892  1.7898
  347MOL0     H46784   6.505   3.760   6.646 -2.7728 -0.3365 -1.1205
  347MOL0     H46785   6.520   3.793   6.829 -3.7526  0.0366  1.8254
  347MOL0     H46786   6.597   3.561   6.870  0.9613  2.5004  1.8385
  347MOL0     H46787   6.579   3.519   6.703  2.7457 -0.8013 -0.3995
  347MOL0     H46788   6.760   3.707   6.648  2.2323 -1.0373 -0.5266
  347MOL0     H46789   6.757   3.720   6.826 -1.9345  0.3692  0.7141
  347MOL0     H46790   6.837   3.478   6.838 -0.0414 -2.1409 -1.8278
  347MOL0     H46791   6.822   3.456   6.668 -2.0855  3.4291 -4.2855
  347MOL0     H46792   7.004   3.665   6.811  2.2230  1.4186 -1.7637
  347MOL0     H46793   7.048   3.508   6.754 -0.7677 -2.7152 -3.3883
  347MOL0     H46794   6.994   3.581   6.519  0.7521  1.7954 -1.3209
  347MOL0     H46795   7.135   3.635   6.610  0.4040 -0.4562 -0.1371
  347MOL0     H46796   6.924   3.878   6.753 -2.4475  0.2758  0.4862
  347MOL0     H46797   6.930   4.133   6.741  1.2029  1.1038 -0.6351
  347MOL0     H46798   6.984   4.209   6.597  0.2433 -0.2357  0.1643
  347MOL0     H46799   6.770   4.188   6.482 -0.9685 -2.5680 -0.7184
  347MOL0     H46800   6.756   4.261   6.646 -2.1205 -2.7152  4.0436
  347MOL0     H46801   6.663   4.015   6.707  0.1233  1.4385  0.0578
  347MOL0     H46802   6.664   3.979   6.536  0.0792  0.9896 -1.6683
  347MOL0     H46803   6.515   4.205   6.653  1.2228 -1.1443 -0.4498
  347MOL0     H46804   6.440   4.047   6.600 -0.8784 -1.3130 -1.9269
  347MOL0     H46805   6.460   4.342   6.247  0.4705  1.0398  0.1191
  347MOL0     H46806   6.154   4.438   6.082  0.5309 -1.6622 -0.1912
  347MOL0     H46807   6.234   4.578   6.155 -2.5429  0.8481 -5.1000
  347MOL0     H46808   6.319   4.450   6.076 -1.9884 -0.2042 -1.7715
  347MOL0     H46809   5.696   4.539   6.434 -2.5835 -1.3762  1.8922
  347MOL0     H46810   5.473   4.543   6.319 -2.3966 -2.2157  0.0435
  347MOL0     H46811   5.306   4.569   6.178 -2.5395 -3.8011 -0.5895
  347MOL0     H46812   5.414   4.648   6.060 -0.2084  0.1673  2.6322
  347MOL0     H46813   5.183   4.459   6.041 -0.2894 -0.2954 -1.0469
  347MOL0     H46814   5.166   4.633   6.017  0.7794  1.5347 -4.0076
  347MOL0     H46815   5.274   4.442   5.811  0.2296 -0.0170  1.8294
  347MOL0     H46816   5.310   4.618   5.815  0.8116 -0.0787  0.9676
  347MOL0     H46817   5.065   4.666   5.831  0.1969 -0.7593  0.4515
  347MOL0     H46818   5.105   4.584   5.668 -0.2815 -1.4113 -1.3715
  347MOL0     H46819   4.980   4.436   5.890  0.4066  3.8953  0.6147
  347MOL0     H46820   5.026   4.371   5.729 -0.3667  0.7095 -1.7451
  347MOL0     H46821   4.805   4.567   5.784 -2.6750 -2.9658  1.8883
  347MOL0     H46822   4.876   4.552   5.623  1.7106  0.8939  0.9871
  347MOL0     H46823   4.666   4.401   5.657 -1.2707 -2.3226 -0.7083
  347MOL0     H46824   4.772   4.294   5.759  0.5900  0.2608 -0.7921
  347MOL0     H46825   4.917   4.254   5.583 -0.6361 -1.6480 -0.4630
  347MOL0     H46826   4.824   4.365   5.478 -1.9877  0.2921  0.5799
  347MOL0     H46827   5.650   4.306   5.991 -0.5379  4.2545 -2.3224
  347MOL0     H46828   5.830   4.260   6.124  1.5353  2.3882  0.8529
  347MOL0     H46829   6.053   4.227   6.505  1.4150 -3.6356  1.2733
  347MOL0     H46830   6.256   4.131   6.563 -0.2236  2.8497  3.8982
  347MOL0     H46831   6.044   3.916   6.690 -0.1103  0.0324 -1.7942
  347MOL0     H46832   5.893   4.094   6.686 -0.7812 -0.6181  1.3472
  347MOL0     H46833   5.732   4.485   6.907  2.2981  0.9580  2.3764
  347MOL0     H46834   5.567   4.665   6.882 -0.4797  0.5812  0.0866
  347MOL0     H46835   5.626   4.992   6.588  0.0935 -0.3754  0.8383
  347MOL0     H46836   5.542   4.852   6.511 -4.4576  1.2407 -0.3888
  347MOL0     H46837   5.319   4.927   6.623 -0.0020  0.5389  0.5763
  347MOL0     H46838   5.380   5.035   6.503 -1.8249  0.3704  0.0466
  347MOL0     H46839   5.485   5.179   6.689  0.2582  0.5044  3.3128
  347MOL0     H46840   5.425   5.069   6.806  1.0189  1.7168  0.7630
  347MOL0     H46841   5.280   5.244   6.808 -1.6921 -2.4086  0.8257
  347MOL0     H46842   5.209   5.094   6.754 -0.2078 -0.6927 -1.3570
  347MOL0     H46843   5.177   5.350   6.420  0.6843  1.1298  1.3270
  347MOL0     H46844   5.791   4.831   6.561 -3.0834 -0.0952 -1.5324
  347MOL0     H46845   5.956   4.661   6.586  1.6508  2.7004  0.6763
  348MOL0     O46846   5.851   9.789   6.449  0.4411  0.1666 -0.1994
  348MOL0     C46847   5.734   9.766   6.409 -0.7544 -0.0638 -0.2652
  348MOL0     O46848   5.630   9.697   6.472  0.3963 -0.1198  0.0309
  348MOL0     C46849   5.641   9.669   6.609  0.0551 -0.2011  0.6754
  348MOL0     C46850   5.719   9.749   6.705  0.7210 -0.5108 -0.1097
  348MOL0     C46851   5.699   9.722   6.843 -0.3674 -0.5810 -0.0397
  348MOL0     C46852   5.598   9.638   6.884  0.1969 -0.6131 -0.3666
  348MOL0     O46853   5.571   9.635   7.017  0.0688  0.0901 -0.3475
  348MOL0     C46854   5.560   9.500   7.063  0.1313  0.0365 -0.0844
  348MOL0     C46855   5.690   9.422   7.052 -0.6895  0.7301 -1.2847
  348MOL0     C46856   5.808   9.482   7.130  0.0005  0.5133 -0.3352
  348MOL0     C46857   5.947   9.426   7.076  0.2951  0.1630  0.4084
  348MOL0     C46858   6.035   9.327   7.156 -0.5367 -0.1411 -0.0661
  348MOL0     C46859   5.946   9.202   7.186 -0.1148 -0.0793  0.4856
  348MOL0     C46860   6.030   9.112   7.280  1.0904  0.5040 -0.5683
  348MOL0     C46861   5.985   8.966   7.300 -0.7033 -0.0338  0.2391
  348MOL0     N46862   6.062   8.882   7.392 -0.5618  0.3168  0.2596
  348MOL0     C46863   6.126   8.767   7.366 -1.1330  0.2413  0.2356
  348MOL0     C46864   6.157   8.716   7.481 -1.0042  0.4820  0.0157
  348MOL0     C46865   6.229   8.582   7.498 -0.2205 -1.0275 -0.5140
  348MOL0     C46866   6.326   8.542   7.384 -0.4215 -0.9768  0.5255
  348MOL0     C46867   6.412   8.431   7.442 -0.1868  0.5656 -0.4553
  348MOL0     C46868   6.466   8.330   7.327 -0.1027  0.3653  0.1410
  348MOL0     O46869   6.454   8.356   7.191  0.7469 -0.4683  0.3259
  348MOL0     C46870   6.525   8.465   7.139 -0.1786 -0.3114 -0.4979
  348MOL0     C46871   6.626   8.548   7.201 -0.4694 -0.1081 -0.0359
  348MOL0     C46872   6.672   8.670   7.139  0.3605  0.5398  0.0617
  348MOL0     C46873   6.767   8.765   7.213 -0.7880 -0.6811 -0.1849
  348MOL0     C46874   6.640   8.703   7.011  0.3497  0.7249  0.2577
  348MOL0     C46875   6.686   8.813   6.930  0.1513  0.8119 -0.2899
  348MOL0     O46876   6.808   8.876   6.954  0.4275 -0.0742 -0.4176
  348MOL0     C46877   6.855   8.977   6.870  0.3377 -0.0220 -0.0535
  348MOL0     C46878   6.877   8.946   6.740  0.5089  0.0775  0.0904
  348MOL0     C46879   6.938   9.049   6.659  0.5289  0.2416  0.2998
  348MOL0     C46880   6.963   9.170   6.696  0.0505 -0.7487 -0.4891
  348MOL0     O46881   7.016   9.271   6.619  0.5496 -0.2202  0.0512
  348MOL0     C46882   6.994   9.272   6.481 -0.5110 -0.0240  0.5720
  348MOL0     C46883   7.122   9.267   6.389  0.1312 -0.0697  0.3456
  348MOL0     C46884   7.168   9.118   6.401 -0.0204  0.6572 -0.4712
  348MOL0     C46885   7.286   9.080   6.315  0.3234 -0.8460  0.8543
  348MOL0     C46886   7.341   8.940   6.366  0.3754 -1.0664  0.3859
  348MOL0     C46887   7.423   8.872   6.257  0.0279  0.1161 -0.0605
  348MOL0     C46888   7.431   8.718   6.281  0.2260  0.2939 -0.3677
  348MOL0     C46889   7.567   8.677   6.353  0.2415  0.3454 -0.3270
  348MOL0    Cl46890   7.586   8.748   6.517 -0.0835  0.3362  0.0889
  348MOL0     C46891   6.951   9.195   6.832  0.2635 -0.2694 -0.2736
  348MOL0     C46892   6.886   9.102   6.917 -0.0584 -1.2458 -0.5697
  348MOL0     O46893   6.609   8.847   6.837 -0.6614  0.0069 -0.6684
  348MOL0     C46894   6.547   8.615   6.954 -1.0089 -0.0160 -0.0346
  348MOL0     C46895   6.489   8.497   7.016 -0.9700 -0.4060 -0.4505
  348MOL0     N46896   6.097   8.785   7.583  0.6694  0.0103 -0.2261
  348MOL0     N46897   6.033   8.889   7.533 -0.3418  0.1219  0.4642
  348MOL0     C46898   5.526   9.563   6.781  0.2034  0.7285 -0.1985
  348MOL0     C46899   5.556   9.574   6.645  0.6349 -1.0597 -0.7745
  348MOL0     C46900   5.707   9.819   6.273 -0.9912  0.1899  0.0674
  348MOL0     C46901   5.774   9.935   6.221  1.3918 -0.1597 -0.4216
  348MOL0     C46902   5.729   9.983   6.095  0.7244 -0.6917  0.3167
  348MOL0     C46903   5.626   9.923   6.021  0.0562  0.7461  0.1506
  348MOL0     O46904   5.616   9.962   5.888 -0.9222 -0.4487 -0.0175
  348MOL0     C46905   5.495   9.970   5.816  0.0254  0.1128  1.4913
  348MOL0     C46906   5.403  10.070   5.870  0.3843 -0.1185  0.4815
  348MOL0     C46907   5.454  10.219   5.839 -0.0458  0.3449 -0.7450
  348MOL0     C46908   5.525  10.285   5.958  0.2907  0.7688  0.5458
  348MOL0     C46909   5.549  10.428   5.937 -0.6843 -0.3669 -0.3292
  348MOL0     C46910   5.555  10.549   5.925 -0.3307 -0.1606 -0.8651
  348MOL0     C46911   5.563   9.815   6.072  1.0455  0.6446  0.9107
  348MOL0     C46912   5.608   9.757   6.198 -0.0892 -0.4840 -0.3069
  348MOL0     H46913   5.782   9.834   6.681  2.3511 -1.6996 -0.1901
  348MOL0     H46914   5.763   9.785   6.904 -1.5220  1.5752 -0.9062
  348MOL0     H46915   5.535   9.498   7.169 -1.0002 -0.1762 -0.3428
  348MOL0     H46916   5.483   9.440   7.015  1.2519 -1.3550 -0.2130
  348MOL0     H46917   5.682   9.316   7.077 -0.0842  0.9687  0.0083
  348MOL0     H46918   5.729   9.422   6.950  0.6497 -0.2410 -0.8000
  348MOL0     H46919   5.799   9.589   7.111 -0.0824  0.1916 -2.2696
  348MOL0     H46920   5.802   9.483   7.239  1.3328 -3.3818 -0.0926
  348MOL0     H46921   5.936   9.376   6.979  3.1034 -0.4116  0.2901
  348MOL0     H46922   6.007   9.517   7.062 -0.0460  0.5554  1.4622
  348MOL0     H46923   6.117   9.309   7.086  0.9182  4.0990  0.2721
  348MOL0     H46924   6.081   9.385   7.237  1.8802 -1.8485 -0.1023
  348MOL0     H46925   5.856   9.238   7.237  0.5314  6.7205 -2.0922
  348MOL0     H46926   5.914   9.155   7.093 -1.8444  1.1165  0.4371
  348MOL0     H46927   6.122   9.103   7.222  0.6319 -1.0684 -1.0980
  348MOL0     H46928   6.051   9.150   7.381 -1.2298 -1.0206  0.5848
  348MOL0     H46929   5.991   8.899   7.214 -0.0390 -1.7754  1.5741
  348MOL0     H46930   5.880   8.963   7.329 -0.3000 -1.0569  1.7538
  348MOL0     H46931   6.152   8.729   7.268  2.3963 -0.0028  1.1549
  348MOL0     H46932   6.275   8.584   7.598 -4.0044 -1.0800  1.4210
  348MOL0     H46933   6.154   8.502   7.496 -1.5778  0.1161  1.4138
  348MOL0     H46934   6.379   8.631   7.346 -1.8328  0.4538  1.7648
  348MOL0     H46935   6.268   8.509   7.297 -2.9628 -2.2298  2.5746
  348MOL0     H46936   6.353   8.375   7.515 -0.4111  0.9386 -0.3507
  348MOL0     H46937   6.495   8.475   7.499  0.9535 -0.0050 -1.6172
  348MOL0     H46938   6.409   8.236   7.335 -2.4773  1.8128  1.5970
  348MOL0     H46939   6.568   8.302   7.355 -0.1198  0.2723  0.1109
  348MOL0     H46940   6.661   8.531   7.303 -0.8443  1.9486  0.4943
  348MOL0     H46941   6.804   8.718   7.305 -1.9690 -0.7016  0.2985
  348MOL0     H46942   6.860   8.791   7.162 -0.3293  2.3888  1.9390
  348MOL0     H46943   6.717   8.859   7.236 -0.7600 -0.7631  0.2150
  348MOL0     H46944   6.854   8.842   6.717 -2.7657  0.4808  1.0215
  348MOL0     H46945   6.964   9.010   6.561  2.9290 -0.3005  1.1004
  348MOL0     H46946   6.932   9.194   6.436  1.8454 -0.8520 -1.4238
  348MOL0     H46947   6.942   9.367   6.465 -0.6752 -0.1006  0.6469
  348MOL0     H46948   7.098   9.290   6.284 -0.3661  0.1014  0.4919
  348MOL0     H46949   7.194   9.341   6.425  2.8135 -0.7037 -3.1539
  348MOL0     H46950   7.087   9.051   6.372  1.1945 -0.9791 -0.2201
  348MOL0     H46951   7.200   9.100   6.505  0.0045  0.3651 -0.5281
  348MOL0     H46952   7.258   9.074   6.210  3.0487 -2.3655  0.1035
  348MOL0     H46953   7.373   9.145   6.328  0.4341 -1.3736  3.3766
  348MOL0     H46954   7.261   8.869   6.391  1.1836 -1.5004  1.8277
  348MOL0     H46955   7.386   8.949   6.465  1.7665 -1.3626 -0.2049
  348MOL0     H46956   7.385   8.902   6.158  1.6082  1.5749 -0.2702
  348MOL0     H46957   7.525   8.910   6.252  0.3626 -0.6607  0.7832
  348MOL0     H46958   7.430   8.675   6.181  2.5637  2.8822 -1.6723
  348MOL0     H46959   7.349   8.686   6.345  1.3945  2.4359  2.4497
  348MOL0     H46960   7.649   8.721   6.297  0.8982 -2.0248 -1.3719
  348MOL0     H46961   7.578   8.569   6.371 -2.3718  0.4438  2.9438
  348MOL0     H46962   6.965   9.295   6.873 -3.8716  0.8007 -1.0239
  348MOL0     H46963   6.859   9.115   7.022  0.4068 -3.5603 -0.1219
  348MOL0     H46964   6.518   8.634   6.851  0.2114  0.3356 -0.3331
  348MOL0     H46965   6.432   8.427   6.955  1.3505 -1.6116 -1.3550
  348MOL0     H46966   5.437   9.503   6.798 -0.2802  1.5190  0.1119
  348MOL0     H46967   5.492   9.516   6.579  2.0833 -0.4437 -2.8402
  348MOL0     H46968   5.840   9.990   6.287 -0.5147  0.6178  0.9411
  348MOL0     H46969   5.785  10.069   6.060  3.1304 -2.0782  0.5748
  348MOL0     H46970   5.512  10.000   5.713 -5.0651 -1.1322 -0.0254
  348MOL0     H46971   5.441   9.875   5.804 -1.0844  1.0880 -3.0974
  348MOL0     H46972   5.382  10.057   5.976  0.6301 -1.8778  0.3485
  348MOL0     H46973   5.309  10.044   5.821 -0.2455  0.1572  1.5303
  348MOL0     H46974   5.370  10.283   5.810  0.0959  0.1673 -1.5828
  348MOL0     H46975   5.525  10.221   5.756 -0.1990  0.5827 -0.8717
  348MOL0     H46976   5.625  10.245   5.976  0.2335 -1.1368 -2.6480
  348MOL0     H46977   5.465  10.270   6.048  1.4361  1.4917  1.4760
  348MOL0     H46978   5.556  10.656   5.912  0.4917  0.0882  0.9479
  348MOL0     H46979   5.490   9.761   6.013  0.3231  3.1380 -0.6578
  348MOL0     H46980   5.559   9.666   6.232 -0.9423  0.4803  1.1596
  349MOL0     O46981   2.715   4.766   3.804 -0.0032 -0.2075  0.2197
  349MOL0     C46982   2.594   4.736   3.807  0.0206  0.0735  0.4882
  349MOL0     O46983   2.516   4.712   3.920  0.3115 -0.0014 -0.6158
  349MOL0     C46984   2.574   4.671   4.038 -0.8098 -0.0856  0.3472
  349MOL0     C46985   2.516   4.712   4.163 -0.6126  0.4103 -0.2808
  349MOL0     C46986   2.592   4.696   4.280  0.5414  0.2558  0.6948
  349MOL0     C46987   2.716   4.647   4.284 -0.2931 -0.6482 -0.6162
  349MOL0     O46988   2.771   4.638   4.413 -0.3530 -0.1094 -0.1797
  349MOL0     C46989   2.909   4.600   4.424  0.0754  0.5228  0.4723
  349MOL0     C46990   2.940   4.620   4.577  0.6784  0.7798  0.1414
  349MOL0     C46991   2.875   4.525   4.681  0.0941 -0.5053 -0.6226
  349MOL0     C46992   2.730   4.563   4.711  0.8632 -0.0832  0.4366
  349MOL0     C46993   2.691   4.497   4.845 -0.0821  0.4138  0.9060
  349MOL0     C46994   2.550   4.530   4.886  0.0189  0.7539 -0.0081
  349MOL0     C46995   2.507   4.449   5.011 -0.0809 -0.4366 -0.8281
  349MOL0     C46996   2.366   4.483   5.056  0.5665 -0.5908 -0.3063
  349MOL0     N46997   2.347   4.630   5.085  0.7445 -0.0262  0.0625
  349MOL0     C46998   2.224   4.693   5.069  0.0735 -0.5130 -0.3506
  349MOL0     C46999   2.236   4.802   5.159 -0.5370  0.5212  0.1142
  349MOL0     C47000   2.127   4.906   5.183 -1.2256 -0.4024 -0.3494
  349MOL0     C47001   2.103   4.989   5.062 -0.8381 -0.6614  0.0675
  349MOL0     C47002   2.234   5.066   5.013 -0.7995  0.9992  0.3270
  349MOL0     C47003   2.322   5.136   5.115 -0.6022  0.6801  0.0996
  349MOL0     O47004   2.439   5.211   5.070  0.2717 -0.2692  0.1436
  349MOL0     C47005   2.556   5.147   5.024  0.3532  0.1282  0.0946
  349MOL0     C47006   2.581   5.013   5.046 -0.3062 -0.3684 -0.0391
  349MOL0     C47007   2.709   4.964   5.010 -1.0506  1.0048  0.5360
  349MOL0     C47008   2.730   4.805   5.023 -0.1952 -1.1588  0.1871
  349MOL0     C47009   2.795   5.031   4.924 -0.5393  1.1219 -0.1090
  349MOL0     C47010   2.922   4.974   4.859  1.0794 -0.4270  0.0017
  349MOL0     O47011   3.020   5.065   4.844  0.2134 -0.1191 -0.4894
  349MOL0     C47012   3.139   5.022   4.797 -0.6017  0.0715 -0.3040
  349MOL0     C47013   3.216   4.943   4.891  0.5365  0.6368 -0.1092
  349MOL0     C47014   3.338   4.897   4.861  0.0966  0.3869  0.5320
  349MOL0     C47015   3.397   4.923   4.736 -0.2589 -0.1929 -0.4101
  349MOL0     O47016   3.512   4.885   4.677  0.6805  0.1731  0.0371
  349MOL0     C47017   3.565   4.758   4.715 -0.3947  0.1077  0.7203
  349MOL0     C47018   3.477   4.636   4.681  0.6562  0.3100  0.6991
  349MOL0     C47019   3.541   4.505   4.722 -0.0292  0.5674 -0.0339
  349MOL0     C47020   3.426   4.427   4.794 -0.3384  0.2203 -0.3745
  349MOL0     C47021   3.483   4.303   4.849 -0.3754  0.2102  0.6073
  349MOL0     C47022   3.536   4.316   4.991  0.3720  0.8606  0.1414
  349MOL0     C47023   3.561   4.175   5.067 -0.6492  0.5207  0.3456
  349MOL0     C47024   3.432   4.110   5.102 -0.5291 -0.0177  0.0011
  349MOL0    Cl47025   3.477   3.969   5.213  0.6407 -0.3569 -0.4102
  349MOL0     C47026   3.326   5.013   4.654 -0.0181 -0.3395  0.1475
  349MOL0     C47027   3.197   5.058   4.679 -0.3815 -0.5397 -0.0370
  349MOL0     O47028   2.926   4.856   4.824 -0.4123 -0.5093 -0.0267
  349MOL0     C47029   2.764   5.162   4.904 -0.6144 -0.6380 -0.5166
  349MOL0     C47030   2.650   5.217   4.949  0.1176 -0.0207  0.5475
  349MOL0     N47031   2.358   4.796   5.218  0.4219 -0.3404  0.2842
  349MOL0     N47032   2.423   4.691   5.176  0.1869 -0.1967  0.3489
  349MOL0     C47033   2.780   4.607   4.168  0.1668 -0.2264  0.9640
  349MOL0     C47034   2.706   4.610   4.046  0.5726 -0.7240 -0.9477
  349MOL0     C47035   2.513   4.747   3.683 -0.3913 -0.1012  0.6106
  349MOL0     C47036   2.578   4.773   3.561  0.2549 -0.6685  0.1337
  349MOL0     C47037   2.506   4.753   3.440  0.4141  0.2299  0.1535
  349MOL0     C47038   2.368   4.727   3.448 -0.2829 -0.0503  0.3576
  349MOL0     O47039   2.288   4.705   3.340 -0.2191  0.0780  1.1602
  349MOL0     C47040   2.305   4.810   3.232  0.2716  0.4493 -0.6128
  349MOL0     C47041   2.213   4.787   3.108 -0.3592  0.0003 -0.0322
  349MOL0     C47042   2.069   4.764   3.149  0.5398  0.4739 -0.0166
  349MOL0     C47043   1.985   4.890   3.148  0.4681 -0.0713  0.5178
  349MOL0     C47044   1.869   4.866   3.222  0.4243 -0.2999 -0.2761
  349MOL0     C47045   1.763   4.831   3.277  0.0460  0.0525 -0.3727
  349MOL0     C47046   2.301   4.736   3.566  0.1344 -0.1296  0.2174
  349MOL0     C47047   2.372   4.737   3.681  0.5878  0.0615 -0.9472
  349MOL0     H47048   2.417   4.757   4.155 -0.6775  0.3839  0.3928
  349MOL0     H47049   2.542   4.721   4.373  0.3967 -0.2251  0.7481
  349MOL0     H47050   2.919   4.500   4.382  0.8279  0.5735  0.5161
  349MOL0     H47051   2.969   4.670   4.364 -0.6657 -1.5310 -2.9462
  349MOL0     H47052   3.048   4.604   4.588  0.6721 -1.2911 -2.0570
  349MOL0     H47053   2.912   4.721   4.610 -1.4163 -0.1111  1.2476
  349MOL0     H47054   2.884   4.421   4.650  3.0035 -0.6653  0.4935
  349MOL0     H47055   2.937   4.525   4.771  0.2644  1.9824 -0.6514
  349MOL0     H47056   2.718   4.670   4.726 -2.1386 -0.4980  1.8445
  349MOL0     H47057   2.664   4.531   4.630 -0.1240  0.2200  1.0980
  349MOL0     H47058   2.701   4.389   4.832  3.4924  0.8697 -1.6352
  349MOL0     H47059   2.767   4.517   4.921  5.6574 -1.6450 -3.5481
  349MOL0     H47060   2.542   4.636   4.910  1.3588  0.8991 -0.1309
  349MOL0     H47061   2.477   4.515   4.807  2.6199  0.4844 -2.5353
  349MOL0     H47062   2.507   4.343   4.987  1.5186 -1.8038  4.1244
  349MOL0     H47063   2.576   4.465   5.094  1.5192 -1.5569 -1.8827
  349MOL0     H47064   2.350   4.424   5.147  1.1536 -0.1703  0.0791
  349MOL0     H47065   2.293   4.444   4.984 -0.2267 -4.1059  2.0984
  349MOL0     H47066   2.136   4.669   5.010  1.4350 -1.4943 -2.0849
  349MOL0     H47067   2.033   4.859   5.216  0.7479 -3.1468  1.8913
  349MOL0     H47068   2.157   4.983   5.254 -3.0278  1.3214 -1.3435
  349MOL0     H47069   2.034   5.065   5.101 -0.0696  0.1028 -0.0419
  349MOL0     H47070   2.053   4.936   4.980 -0.2016 -1.0231 -0.0924
  349MOL0     H47071   2.208   5.132   4.930  2.6584  2.3970  0.2079
  349MOL0     H47072   2.303   4.990   4.975 -0.0698  1.4052  0.8067
  349MOL0     H47073   2.353   5.067   5.193 -1.3743 -0.5770 -0.6571
  349MOL0     H47074   2.263   5.214   5.163 -0.8633  1.2460 -1.0898
  349MOL0     H47075   2.509   4.947   5.094 -1.1936  0.5453 -0.0685
  349MOL0     H47076   2.726   4.764   4.921 -0.1369 -0.8928  0.0777
  349MOL0     H47077   2.820   4.781   5.079  0.5436 -1.9522 -1.2775
  349MOL0     H47078   2.647   4.768   5.084 -1.3592  0.9235 -0.0483
  349MOL0     H47079   3.160   4.925   4.982  1.6775  2.1657  0.9428
  349MOL0     H47080   3.390   4.839   4.936  2.2177  1.0018 -0.3822
  349MOL0     H47081   3.661   4.746   4.664 -1.6471 -0.0398 -1.7383
  349MOL0     H47082   3.586   4.752   4.822  1.6289  2.0730  0.4942
  349MOL0     H47083   3.376   4.644   4.721 -0.6743 -3.7373 -1.2539
  349MOL0     H47084   3.480   4.628   4.571  1.7924  2.4402  0.5106
  349MOL0     H47085   3.634   4.517   4.778 -1.3964 -1.3322  2.8932
  349MOL0     H47086   3.550   4.444   4.632  0.5326 -2.3401  1.8501
  349MOL0     H47087   3.373   4.483   4.872  3.2241 -0.3374  2.7576
  349MOL0     H47088   3.349   4.397   4.723  0.8045 -3.0163 -0.3997
  349MOL0     H47089   3.547   4.253   4.775 -1.0537 -0.1815  0.2739
  349MOL0     H47090   3.396   4.238   4.862  0.0686 -0.1624  1.8274
  349MOL0     H47091   3.626   4.377   4.985  2.8932 -2.6794 -3.1130
  349MOL0     H47092   3.463   4.381   5.040  0.0004  3.9825 -4.0241
  349MOL0     H47093   3.619   4.199   5.156  0.1332  1.2382 -0.3377
  349MOL0     H47094   3.625   4.109   5.007 -1.3093  0.1482  0.0394
  349MOL0     H47095   3.379   4.067   5.016 -1.2926 -0.9474  0.9166
  349MOL0     H47096   3.368   4.181   5.156 -1.3973 -1.3375  0.7644
  349MOL0     H47097   3.371   5.034   4.558 -0.0290  0.5653  0.3394
  349MOL0     H47098   3.139   5.111   4.604  0.4117 -1.1501 -1.1054
  349MOL0     H47099   2.833   5.238   4.868  0.9424 -2.0711 -0.7139
  349MOL0     H47100   2.610   5.316   4.929 -2.2696 -0.3767  2.9101
  349MOL0     H47101   2.876   4.557   4.159  1.1237  1.8815 -1.8442
  349MOL0     H47102   2.747   4.572   3.953 -2.3878 -1.9056 -1.8855
  349MOL0     H47103   2.682   4.804   3.551 -0.7198  2.3000 -4.5878
  349MOL0     H47104   2.557   4.747   3.344  0.0073  2.0036 -0.2103
  349MOL0     H47105   2.283   4.912   3.265 -2.7571 -0.1251 -0.5868
  349MOL0     H47106   2.411   4.815   3.206  1.3707 -1.6100  2.9186
  349MOL0     H47107   2.254   4.704   3.049 -2.2610 -0.2991 -1.0035
  349MOL0     H47108   2.223   4.865   3.032 -2.1974 -1.6506 -2.1345
  349MOL0     H47109   2.056   4.716   3.246 -1.1976 -1.3077 -1.0523
  349MOL0     H47110   2.021   4.697   3.077 -0.8267  2.2955 -0.8781
  349MOL0     H47111   1.955   4.914   3.045 -1.5538  0.9224  1.2777
  349MOL0     H47112   2.048   4.975   3.177  1.5935  2.2096 -6.5547
  349MOL0     H47113   1.664   4.798   3.300 -0.3024  0.7350 -0.8865
  349MOL0     H47114   2.193   4.739   3.569  0.1458  3.9258  1.9545
  349MOL0     H47115   2.320   4.718   3.774  3.6294 -2.0635  0.4915
  350MOL0     O47116   0.482   6.150   3.331  0.1638  0.1245  0.2059
  350MOL0     C47117   0.541   6.098   3.231  0.4708 -1.5777 -1.4188
  350MOL0     O47118   0.631   6.167   3.156 -0.9634  0.3218  0.2394
  350MOL0     C47119   0.659   6.299   3.183 -0.0793 -0.0338 -0.7957
  350MOL0     C47120   0.784   6.340   3.216 -0.1229  0.3147 -0.7821
  350MOL0     C47121   0.819   6.474   3.235 -0.3686 -0.3318 -0.6075
  350MOL0     C47122   0.721   6.574   3.247  0.3747  0.3764  0.3274
  350MOL0     O47123   0.743   6.706   3.268 -0.5767  0.8496 -0.3541
  350MOL0     C47124   0.878   6.748   3.280  0.1402  0.1230 -0.6650
  350MOL0     C47125   0.944   6.745   3.427 -0.3617  0.6562  0.6230
  350MOL0     C47126   0.848   6.826   3.519 -0.2028  0.3635 -0.2709
  350MOL0     C47127   0.750   6.733   3.597  0.0689  0.3070  0.1949
  350MOL0     C47128   0.630   6.797   3.681  0.6280 -0.4858 -0.1254
  350MOL0     C47129   0.531   6.899   3.621  0.3706 -0.8283  0.6406
  350MOL0     C47130   0.441   6.844   3.512  0.3267  1.1771 -1.2107
  350MOL0     C47131   0.360   6.961   3.445 -0.3717  0.8225 -0.4059
  350MOL0     N47132   0.258   7.006   3.538 -0.9699 -0.0018  0.0110
  350MOL0     C47133   0.137   6.949   3.554 -0.1988  0.2655  0.0924
  350MOL0     C47134   0.083   7.007   3.664  0.1918 -0.5611  0.3196
  350MOL0     C47135  -0.059   6.977   3.730  0.5086 -0.6761  0.5659
  350MOL0     C47136  -0.166   7.033   3.642  0.1534  0.2397 -0.6849
  350MOL0     C47137  -0.300   7.056   3.720 -0.8733  0.4099  0.3627
  350MOL0     C47138  -0.390   6.930   3.733  0.0697 -0.9738  0.3260
  350MOL0     O47139  -0.406   6.857   3.612  0.3959 -0.9932 -0.3556
  350MOL0     C47140  -0.497   6.747   3.609  1.1330 -0.6910 -0.6814
  350MOL0     C47141  -0.515   6.676   3.493 -0.8487  0.6213  0.2150
  350MOL0     C47142  -0.609   6.573   3.480 -0.0758 -0.5673 -0.6750
  350MOL0     C47143  -0.626   6.504   3.340 -0.6400  0.5286 -0.5676
  350MOL0     C47144  -0.695   6.542   3.589 -0.3788  0.6376  0.9193
  350MOL0     C47145  -0.787   6.426   3.596 -0.1926 -0.3830  0.3175
  350MOL0     O47146  -0.736   6.301   3.560  0.1845  0.8622 -1.0114
  350MOL0     C47147  -0.812   6.187   3.591 -0.5455 -0.1567 -0.0768
  350MOL0     C47148  -0.860   6.113   3.480 -0.6858 -0.2178  0.4128
  350MOL0     C47149  -0.930   5.998   3.500  0.0975 -0.1467  0.4713
  350MOL0     C47150  -0.970   5.951   3.622 -0.7534  0.1440  0.0300
  350MOL0     O47151  -1.035   5.831   3.647  0.3134  0.0930  0.6672
  350MOL0     C47152  -1.160   5.814   3.572 -0.4518 -0.4610  0.0240
  350MOL0     C47153  -1.242   5.701   3.627  0.1052 -0.0721 -0.1561
  350MOL0     C47154  -1.193   5.563   3.595  1.4739 -0.0755 -0.4276
  350MOL0     C47155  -1.268   5.459   3.694 -0.3035  0.4242  0.1587
  350MOL0     C47156  -1.259   5.322   3.639  0.0987 -0.0799 -0.9921
  350MOL0     C47157  -1.114   5.268   3.659  0.3001  1.0503 -0.0422
  350MOL0     C47158  -1.111   5.117   3.690  0.8346 -1.3025 -0.0424
  350MOL0     C47159  -1.154   5.029   3.570  1.4668 -1.0115  1.3585
  350MOL0    Cl47160  -1.033   5.062   3.437 -0.2443 -0.0133 -0.0064
  350MOL0     C47161  -0.919   6.022   3.733 -0.3701  0.0381  0.3104
  350MOL0     C47162  -0.842   6.137   3.720  0.5964  0.3593  0.4877
  350MOL0     O47163  -0.906   6.437   3.646 -0.1023 -0.0273 -0.1162
  350MOL0     C47164  -0.673   6.606   3.704 -0.3232  0.1320  0.1802
  350MOL0     C47165  -0.584   6.714   3.716 -0.4860 -0.1672 -0.0698
  350MOL0     N47166   0.170   7.112   3.704 -0.1559  0.9511 -0.2291
  350MOL0     N47167   0.274   7.112   3.627 -0.3942 -0.1298  1.3612
  350MOL0     C47168   0.589   6.529   3.225  0.4752 -0.1240  0.2743
  350MOL0     C47169   0.556   6.399   3.196  0.5404 -0.8588  0.8194
  350MOL0     C47170   0.500   5.964   3.198 -0.2883 -0.7347  0.0103
  350MOL0     C47171   0.373   5.924   3.234  0.3600  0.5257 -0.0974
  350MOL0     C47172   0.331   5.787   3.226  0.0853 -0.0952  0.4674
  350MOL0     C47173   0.405   5.703   3.149 -0.4849 -0.1381 -0.4828
  350MOL0     O47174   0.373   5.571   3.133  0.8386  0.3589 -0.1488
  350MOL0     C47175   0.292   5.541   3.018 -0.1474 -0.4871 -0.1178
  350MOL0     C47176   0.149   5.525   3.063  0.9508  0.6029 -0.3692
  350MOL0     C47177   0.129   5.387   3.141 -0.3436  0.1088 -0.4128
  350MOL0     C47178  -0.004   5.394   3.216 -0.7835  0.1956 -0.9262
  350MOL0     C47179  -0.028   5.264   3.280  0.3779 -0.4387  0.4595
  350MOL0     C47180  -0.032   5.153   3.326 -0.6269 -0.6333 -0.3526
  350MOL0     C47181   0.536   5.741   3.114  0.2568  0.7893 -0.0546
  350MOL0     C47182   0.579   5.876   3.123  0.2845  0.3298 -1.0992
  350MOL0     H47183   0.858   6.260   3.221  2.1710  2.3807  3.9604
  350MOL0     H47184   0.926   6.491   3.244 -0.1852 -1.1149 -1.2096
  350MOL0     H47185   0.945   6.713   3.200 -0.3190 -1.1868 -0.4956
  350MOL0     H47186   0.872   6.854   3.253 -1.4612  0.4532  0.8540
  350MOL0     H47187   0.944   6.639   3.453 -0.3780  1.1757  2.8746
  350MOL0     H47188   1.042   6.793   3.416  0.2112 -0.8370 -1.6530
  350MOL0     H47189   0.913   6.880   3.588 -2.0075  1.2255  0.8240
  350MOL0     H47190   0.799   6.909   3.467  0.9214  0.5985 -1.0013
  350MOL0     H47191   0.711   6.657   3.530 -1.2603 -0.6111  1.9238
  350MOL0     H47192   0.820   6.689   3.669 -0.5208  1.2715  1.4244
  350MOL0     H47193   0.579   6.706   3.715  2.5763 -1.5479  0.0953
  350MOL0     H47194   0.683   6.846   3.763  2.1943 -0.1038 -1.3150
  350MOL0     H47195   0.478   6.949   3.703  0.9750 -0.3597  0.7511
  350MOL0     H47196   0.585   6.988   3.587 -1.9716  1.1605  1.8219
  350MOL0     H47197   0.494   6.790   3.433 -1.2350 -2.8649  0.2632
  350MOL0     H47198   0.375   6.774   3.563 -1.6914  1.6742 -2.9881
  350MOL0     H47199   0.310   6.916   3.358 -0.4963  1.0656 -0.4592
  350MOL0     H47200   0.428   7.039   3.409 -0.7233  1.8694  1.0925
  350MOL0     H47201   0.099   6.864   3.498 -0.7623 -0.9348  2.1833
  350MOL0     H47202  -0.080   6.870   3.729  1.9769 -0.9943  0.5033
  350MOL0     H47203  -0.075   7.009   3.833 -2.8650  0.3713 -0.1871
  350MOL0     H47204  -0.180   6.977   3.549  0.1595 -1.5482  0.3602
  350MOL0     H47205  -0.133   7.134   3.614 -0.2806  0.1399 -1.6046
  350MOL0     H47206  -0.363   7.129   3.669  0.8450  1.0301 -0.9610
  350MOL0     H47207  -0.280   7.098   3.819  0.8000  0.7058 -0.0738
  350MOL0     H47208  -0.487   6.965   3.769 -0.1547  0.3467 -1.4196
  350MOL0     H47209  -0.347   6.858   3.803  1.3819 -2.8173 -2.2062
  350MOL0     H47210  -0.475   6.717   3.401 -1.5298 -1.1718 -0.9597
  350MOL0     H47211  -0.720   6.528   3.291  0.2500  0.1067 -2.5675
  350MOL0     H47212  -0.550   6.543   3.272 -0.3406  0.5969 -0.1995
  350MOL0     H47213  -0.598   6.398   3.346  1.0081  0.9470 -0.2718
  350MOL0     H47214  -0.840   6.150   3.380 -1.7198  0.3238  0.3917
  350MOL0     H47215  -0.947   5.935   3.414 -0.9840  2.4819 -1.3607
  350MOL0     H47216  -1.222   5.904   3.587 -2.5985 -1.9276  0.3776
  350MOL0     H47217  -1.157   5.796   3.464 -1.8436 -0.8772  0.0331
  350MOL0     H47218  -1.241   5.699   3.736  2.6287 -2.2236 -0.1313
  350MOL0     H47219  -1.346   5.725   3.602 -0.7679 -3.9224 -0.9460
  350MOL0     H47220  -1.086   5.549   3.607  1.1273 -4.5055 -0.8167
  350MOL0     H47221  -1.208   5.548   3.488  2.3008  0.3081 -0.6056
  350MOL0     H47222  -1.233   5.467   3.798  0.9092 -2.8806  0.1267
  350MOL0     H47223  -1.374   5.486   3.693 -0.2773  0.5638  0.5994
  350MOL0     H47224  -1.309   5.321   3.541 -1.1856  2.0405 -0.4318
  350MOL0     H47225  -1.325   5.263   3.702  1.4209  0.9876  1.5307
  350MOL0     H47226  -1.062   5.284   3.564  2.1803 -2.1243  0.2865
  350MOL0     H47227  -1.067   5.325   3.739  1.5391  1.3687 -0.9654
  350MOL0     H47228  -1.181   5.083   3.767 -0.4860 -3.0149 -1.8945
  350MOL0     H47229  -1.004   5.107   3.709  1.2850  3.2750  1.0561
  350MOL0     H47230  -1.253   5.055   3.533  0.8189  1.9839  4.6895
  350MOL0     H47231  -1.161   4.922   3.595  2.2526 -1.3768  0.0875
  350MOL0     H47232  -0.930   5.966   3.826  0.2271 -1.0666 -0.2547
  350MOL0     H47233  -0.823   6.181   3.817 -3.4457 -0.5587  1.8898
  350MOL0     H47234  -0.722   6.583   3.798  0.0041  0.8095  0.5215
  350MOL0     H47235  -0.581   6.766   3.812 -0.1921  1.5132 -0.9552
  350MOL0     H47236   0.508   6.596   3.255  1.0228  0.1168  1.2714
  350MOL0     H47237   0.450   6.379   3.182 -0.1813  1.7330  1.9322
  350MOL0     H47238   0.306   5.999   3.273  0.1598  0.1529  0.2864
  350MOL0     H47239   0.236   5.757   3.267 -0.3262  1.4982  0.7206
  350MOL0     H47240   0.286   5.627   2.950 -0.4196 -1.1587 -0.9628
  350MOL0     H47241   0.317   5.448   2.967  0.2859 -1.2661  1.4600
  350MOL0     H47242   0.081   5.540   2.979  0.8841  0.1473 -0.3983
  350MOL0     H47243   0.128   5.613   3.124 -0.3982  1.1331 -1.5351
  350MOL0     H47244   0.210   5.362   3.210 -1.3187 -0.6415  0.4864
  350MOL0     H47245   0.140   5.305   3.070  3.1799 -0.0668  0.1247
  350MOL0     H47246  -0.083   5.440   3.156 -1.5341 -0.3149 -0.3528
  350MOL0     H47247   0.006   5.465   3.299 -0.0739 -2.3635  1.3148
  350MOL0     H47248  -0.063   5.060   3.369  0.6774 -1.2123 -0.6021
  350MOL0     H47249   0.612   5.679   3.067  1.3615  0.6638  1.7838
  350MOL0     H47250   0.669   5.911   3.073 -1.3483  2.5775 -2.6885
  351MOL0     O47251   3.828   5.428  10.921 -0.8129 -0.0490  0.4717
  351MOL0     C47252   3.816   5.413  10.798 -1.0645 -0.0262  0.2885
  351MOL0     O47253   3.919   5.405  10.709 -0.3514 -0.0565 -0.2141
  351MOL0     C47254   4.049   5.448  10.728  0.0956  1.1688  0.5792
  351MOL0     C47255   4.150   5.398  10.637  1.1062 -0.1875  0.2366
  351MOL0     C47256   4.277   5.443  10.650 -0.3327  0.5817 -0.5000
  351MOL0     C47257   4.314   5.539  10.748  0.1582 -0.8775 -0.3042
  351MOL0     O47258   4.440   5.601  10.770  0.2166 -0.2943 -0.0436
  351MOL0     C47259   4.539   5.584  10.664  0.7143  0.1590 -0.4959
  351MOL0     C47260   4.640   5.459  10.678  0.4314 -0.5504  0.0235
  351MOL0     C47261   4.748   5.461  10.567  0.1482  0.7072  0.4487
  351MOL0     C47262   4.691   5.436  10.426 -0.0707  0.2649  0.6529
  351MOL0     C47263   4.655   5.561  10.343  0.3493  0.3074  0.9205
  351MOL0     C47264   4.618   5.545  10.191  0.2622 -0.5779  0.0221
  351MOL0     C47265   4.494   5.462  10.173  0.8490 -0.3264 -0.4164
  351MOL0     C47266   4.495   5.308  10.151  0.2021 -0.4738 -0.5295
  351MOL0     N47267   4.492   5.254  10.011 -0.2541 -0.4241  0.8479
  351MOL0     C47268   4.604   5.207   9.944 -0.3479  0.4350 -0.3428
  351MOL0     C47269   4.557   5.188   9.818 -0.3028  0.1198  0.3300
  351MOL0     C47270   4.638   5.150   9.699 -0.0761  0.1427 -0.2450
  351MOL0     C47271   4.559   5.059   9.595  0.3479 -0.6125  1.1971
  351MOL0     C47272   4.645   5.022   9.480  0.0371  0.0318 -1.4015
  351MOL0     C47273   4.580   4.905   9.407  0.2382 -0.1604 -0.2850
  351MOL0     O47274   4.614   4.928   9.268  0.0363  0.4280 -0.3917
  351MOL0     C47275   4.521   4.907   9.168 -1.1302  0.0457 -0.6621
  351MOL0     C47276   4.555   4.961   9.049 -0.3093 -0.1082  0.2381
  351MOL0     C47277   4.492   4.931   8.924  0.5194 -0.8753  0.9582
  351MOL0     C47278   4.547   4.974   8.780 -0.1968 -0.7740 -0.7880
  351MOL0     C47279   4.367   4.855   8.933 -0.1254  0.1325 -0.2484
  351MOL0     C47280   4.269   4.827   8.819  0.2590 -0.9555 -0.5687
  351MOL0     O47281   4.308   4.858   8.690  0.2865 -0.0198  0.5519
  351MOL0     C47282   4.217   4.830   8.588  0.0766 -0.5590  0.3348
  351MOL0     C47283   4.074   4.871   8.586  0.1065 -0.2935 -0.9268
  351MOL0     C47284   4.002   4.835   8.474  0.5934 -0.2457 -0.4121
  351MOL0     C47285   4.045   4.752   8.368  0.1149 -0.1936 -0.1409
  351MOL0     O47286   3.968   4.710   8.252  0.0513  0.2710  0.2504
  351MOL0     C47287   3.829   4.777   8.248 -1.7661  0.1767 -0.3035
  351MOL0     C47288   3.805   4.784   8.104 -0.3891  0.1650 -0.3299
  351MOL0     C47289   3.664   4.825   8.068  0.1702 -0.2011  1.0076
  351MOL0     C47290   3.642   4.821   7.916 -0.4364  0.0005  0.8220
  351MOL0     C47291   3.514   4.901   7.877  0.0998 -0.3889  0.0030
  351MOL0     C47292   3.463   4.850   7.731  0.4912  0.1128  0.0670
  351MOL0     C47293   3.340   4.930   7.685 -0.7021 -0.3738 -0.0508
  351MOL0     C47294   3.370   5.080   7.649 -0.5408  0.8110 -0.2776
  351MOL0    Cl47295   3.453   5.088   7.489 -0.0578 -0.1872 -0.5323
  351MOL0     C47296   4.177   4.706   8.381 -0.7025 -0.5192 -0.5504
  351MOL0     C47297   4.259   4.756   8.481 -0.9283  0.0574 -0.5403
  351MOL0     O47298   4.155   4.795   8.857 -0.2353 -0.3764  0.1760
  351MOL0     C47299   4.339   4.808   9.057  0.3102 -0.2603 -0.5978
  351MOL0     C47300   4.417   4.821   9.172 -0.1768 -0.0078 -0.2015
  351MOL0     N47301   4.411   5.207   9.822  0.3306 -0.6877  0.6568
  351MOL0     N47302   4.379   5.240   9.941  0.5730  0.2042  0.0924
  351MOL0     C47303   4.218   5.587  10.833 -1.1772  0.4585 -1.1869
  351MOL0     C47304   4.085   5.540  10.829 -0.2062  1.1074  0.0701
  351MOL0     C47305   3.682   5.407  10.738 -0.2738  0.0989 -0.0288
  351MOL0     C47306   3.663   5.397  10.593  0.0646  0.6102 -0.0478
  351MOL0     C47307   3.540   5.412  10.519 -0.0819  1.1910 -0.3408
  351MOL0     C47308   3.429   5.421  10.600  0.5586 -0.6381 -0.8369
  351MOL0     O47309   3.300   5.429  10.558 -0.4945  0.7325  0.0835
  351MOL0     C47310   3.261   5.416  10.418 -0.0520 -0.6417  0.4405
  351MOL0     C47311   3.274   5.543  10.331  0.1233  0.0473 -0.7429
  351MOL0     C47312   3.250   5.671  10.415 -0.4805 -0.3958  0.5360
  351MOL0     C47313   3.226   5.794  10.320 -0.8026 -0.4212  0.0304
  351MOL0     C47314   3.084   5.780  10.281  0.7900  0.3766  0.4188
  351MOL0     C47315   2.967   5.780  10.242  0.9468 -0.0642  0.5619
  351MOL0     C47316   3.442   5.429  10.739  0.6660  0.4441 -0.3921
  351MOL0     C47317   3.565   5.424  10.813  0.0157 -0.4280  0.5134
  351MOL0     H47318   4.131   5.318  10.566 -2.8843  0.7731 -0.0384
  351MOL0     H47319   4.350   5.392  10.588 -0.2599 -0.8558  0.7179
  351MOL0     H47320   4.491   5.582  10.565  1.6981 -0.5744 -0.9818
  351MOL0     H47321   4.594   5.678  10.656 -1.6152  1.8870  2.1837
  351MOL0     H47322   4.683   5.453  10.779  0.9069 -3.0189 -0.2561
  351MOL0     H47323   4.586   5.364  10.664 -0.4652  0.0960 -1.0381
  351MOL0     H47324   4.810   5.551  10.557  2.0966 -0.3428  2.1917
  351MOL0     H47325   4.818   5.381  10.594 -0.5203 -1.5657 -3.7605
  351MOL0     H47326   4.759   5.369  10.373  1.1348  1.4261  0.6704
  351MOL0     H47327   4.597   5.384  10.449  0.1786  0.3766  1.9441
  351MOL0     H47328   4.580   5.612  10.404  3.3615  1.6625  3.8158
  351MOL0     H47329   4.749   5.617  10.336  0.2040  0.5866  1.2316
  351MOL0     H47330   4.602   5.637  10.135  1.9031 -0.0874  0.3044
  351MOL0     H47331   4.701   5.503  10.134  0.3059  0.3314 -0.5867
  351MOL0     H47332   4.413   5.489  10.242 -1.3924  0.2510 -3.0824
  351MOL0     H47333   4.461   5.496  10.074  2.5718 -0.2809 -1.0065
  351MOL0     H47334   4.406   5.271  10.202  0.5709 -2.8416 -1.4920
  351MOL0     H47335   4.580   5.274  10.211 -1.2592 -2.5803  0.4410
  351MOL0     H47336   4.708   5.195   9.972  0.1040 -0.1694 -2.1522
  351MOL0     H47337   4.677   5.240   9.650  3.3510 -0.1612  1.5624
  351MOL0     H47338   4.728   5.099   9.736 -0.7085 -0.9187 -0.1330
  351MOL0     H47339   4.479   5.113   9.544 -0.1012 -0.4876  2.0134
  351MOL0     H47340   4.506   4.972   9.637 -1.2177 -1.3226 -1.9647
  351MOL0     H47341   4.748   5.016   9.518 -1.1389 -0.7757  1.9583
  351MOL0     H47342   4.646   5.109   9.414  1.0450  2.3259  1.4123
  351MOL0     H47343   4.476   4.919   9.437  0.3009  0.2542 -0.2514
  351MOL0     H47344   4.613   4.806   9.439 -0.6335 -0.8890 -1.5539
  351MOL0     H47345   4.634   5.037   9.046 -2.4870  2.2613 -1.9942
  351MOL0     H47346   4.544   4.896   8.703 -1.4684  2.1447 -3.9352
  351MOL0     H47347   4.490   5.060   8.747  1.1674  0.5028  0.0511
  351MOL0     H47348   4.649   5.007   8.805  0.0048  1.3960 -3.9752
  351MOL0     H47349   4.035   4.923   8.673  2.9304  1.3910 -0.5098
  351MOL0     H47350   3.900   4.872   8.483  0.7871  0.2113 -0.0034
  351MOL0     H47351   3.753   4.715   8.297 -1.1355 -0.4137 -0.0462
  351MOL0     H47352   3.831   4.874   8.299 -1.1678 -1.2119  2.5088
  351MOL0     H47353   3.874   4.856   8.058  0.7182 -1.5939 -1.5320
  351MOL0     H47354   3.826   4.684   8.065  1.4394  1.0475 -1.7828
  351MOL0     H47355   3.650   4.928   8.102 -1.2369 -0.3570  0.9226
  351MOL0     H47356   3.594   4.764   8.126  0.0736  1.5610  2.8438
  351MOL0     H47357   3.733   4.851   7.863 -0.4257 -0.6635  0.4486
  351MOL0     H47358   3.636   4.716   7.885 -2.1822  0.5848 -1.0668
  351MOL0     H47359   3.538   5.008   7.885  1.7208 -0.8388  1.8790
  351MOL0     H47360   3.432   4.874   7.944  0.8000 -0.5114  0.8250
  351MOL0     H47361   3.536   4.862   7.650 -0.7364 -0.2405 -1.1427
  351MOL0     H47362   3.433   4.745   7.734  2.4673 -0.4628  1.5179
  351MOL0     H47363   3.272   4.923   7.770 -2.2581 -0.3429 -1.2458
  351MOL0     H47364   3.289   4.895   7.594 -0.2625  0.3479 -0.5799
  351MOL0     H47365   3.424   5.119   7.736 -2.8803  1.7556  0.8433
  351MOL0     H47366   3.273   5.131   7.648  0.9661  3.9663 -2.3672
  351MOL0     H47367   4.220   4.651   8.298 -2.5870  0.1254 -2.0197
  351MOL0     H47368   4.367   4.742   8.476 -0.9759 -1.4390  1.5157
  351MOL0     H47369   4.258   4.737   9.070  1.7073 -1.7226  0.7025
  351MOL0     H47370   4.385   4.778   9.267  0.5061  0.5635  0.2983
  351MOL0     H47371   4.262   5.645  10.913  4.6890 -0.4448 -3.3190
  351MOL0     H47372   4.016   5.577  10.904 -2.3658 -4.7765  1.5532
  351MOL0     H47373   3.752   5.383  10.532  0.1225  0.1185  0.1524
  351MOL0     H47374   3.527   5.410  10.411  0.3135  3.5147 -0.4896
  351MOL0     H47375   3.322   5.341  10.366 -0.4878 -0.3582 -0.4837
  351MOL0     H47376   3.159   5.378  10.408 -2.5524  4.9775  1.1076
  351MOL0     H47377   3.207   5.542  10.244 -3.0606  5.1591  1.2036
  351MOL0     H47378   3.372   5.555  10.284  0.5228 -3.2127 -1.0180
  351MOL0     H47379   3.337   5.694  10.477  0.2151  3.5374 -1.5786
  351MOL0     H47380   3.170   5.651  10.487  2.2242  0.3309  4.0410
  351MOL0     H47381   3.299   5.802  10.239 -0.2079 -3.6389  0.1276
  351MOL0     H47382   3.243   5.890  10.370  0.1721 -2.2100  3.5134
  351MOL0     H47383   2.869   5.787  10.199  1.8328  2.3417 -1.2270
  351MOL0     H47384   3.354   5.432  10.802 -0.5791 -0.8171 -1.9799
  351MOL0     H47385   3.569   5.435  10.920 -1.5989 -0.6951  0.6185
  352MOL0     O47386   6.148   0.549   6.427 -0.2669  0.5323  0.2739
  352MOL0     C47387   6.204   0.492   6.524  0.2751 -0.4303  0.1911
  352MOL0     O47388   6.184   0.363   6.556 -0.6147  0.0294 -0.4623
  352MOL0     C47389   6.107   0.277   6.477 -0.5215  0.0620  0.3025
  352MOL0     C47390   6.032   0.180   6.541  0.1222 -0.0978  0.3577
  352MOL0     C47391   5.975   0.079   6.466 -0.1228 -0.7504  0.4924
  352MOL0     C47392   5.958   0.082   6.323  0.4103 -0.0765 -0.1045
  352MOL0     O47393   5.894  -0.019   6.247  0.2502 -0.7062 -0.8301
  352MOL0     C47394   5.744  -0.014   6.255 -0.0990  0.2899  0.2834
  352MOL0     C47395   5.676   0.070   6.154  0.5266  0.0332 -0.3648
  352MOL0     C47396   5.735   0.078   6.016  0.5059  0.9240  0.4353
  352MOL0     C47397   5.705  -0.051   5.928 -0.0985 -0.7371 -0.6353
  352MOL0     C47398   5.724  -0.041   5.779  0.4997  0.0014 -0.6765
  352MOL0     C47399   5.867  -0.056   5.745 -0.1828  0.4296 -0.0549
  352MOL0     C47400   5.896  -0.051   5.590 -0.6282 -0.6643  0.3912
  352MOL0     C47401   5.896  -0.184   5.515  0.2990  0.4209 -0.4056
  352MOL0     N47402   5.772  -0.256   5.542  0.6787  0.5169  0.0176
  352MOL0     C47403   5.747  -0.334   5.654 -0.0416 -0.3163  0.8055
  352MOL0     C47404   5.613  -0.367   5.643  0.8160 -0.2990 -0.3507
  352MOL0     C47405   5.562  -0.468   5.740 -0.4359 -0.7264  0.3947
  352MOL0     C47406   5.509  -0.604   5.680 -0.5149 -0.4971 -0.7063
  352MOL0     C47407   5.366  -0.589   5.636  0.7373 -0.4978 -0.1759
  352MOL0     C47408   5.312  -0.723   5.585  0.1699 -0.7161  0.3062
  352MOL0     O47409   5.270  -0.794   5.701  0.5912  0.1664  0.7719
  352MOL0     C47410   5.236  -0.923   5.687  0.3869  0.6547  0.0868
  352MOL0     C47411   5.135  -0.974   5.774 -0.5286 -0.4922 -0.2304
  352MOL0     C47412   5.083  -1.101   5.758 -0.1860  0.2718  0.7140
  352MOL0     C47413   4.991  -1.158   5.858 -0.5983 -0.3099  0.1699
  352MOL0     C47414   5.120  -1.182   5.643 -0.0390 -0.5978  0.2930
  352MOL0     C47415   5.071  -1.322   5.614  1.1859 -0.6259 -0.2429
  352MOL0     O47416   5.161  -1.417   5.566 -0.1640 -0.6085 -0.4031
  352MOL0     C47417   5.130  -1.515   5.487 -0.5048  0.2098  0.1417
  352MOL0     C47418   5.241  -1.602   5.467 -0.2404  0.2976  0.5157
  352MOL0     C47419   5.236  -1.714   5.384 -0.4006 -0.8195  0.0276
  352MOL0     C47420   5.113  -1.740   5.312  0.6520  0.1895  0.6883
  352MOL0     O47421   5.130  -1.835   5.218  0.6278 -0.3964  0.6030
  352MOL0     C47422   5.021  -1.913   5.192 -0.0814 -0.4088 -0.2919
  352MOL0     C47423   5.061  -2.048   5.156  0.6894 -0.4006  0.1388
  352MOL0     C47424   4.939  -2.144   5.122 -0.6519  0.3917  0.2031
  352MOL0     C47425   4.982  -2.279   5.068  0.2809  0.7848  0.0164
  352MOL0     C47426   4.865  -2.369   5.040 -0.0110 -0.2699  0.6163
  352MOL0     C47427   4.802  -2.338   4.901 -0.4374 -0.9731  0.1916
  352MOL0     C47428   4.670  -2.405   4.883  0.5115  0.3668 -0.8464
  352MOL0     C47429   4.586  -2.336   4.776  0.0354  0.6334 -1.6396
  352MOL0    Cl47430   4.498  -2.443   4.684 -0.3185  0.3818 -0.4967
  352MOL0     C47431   5.003  -1.648   5.325  0.5941 -0.0347 -0.8453
  352MOL0     C47432   5.011  -1.542   5.416  0.5425  0.4583  0.2901
  352MOL0     O47433   4.950  -1.340   5.628 -0.1324 -0.6926 -0.5284
  352MOL0     C47434   5.225  -1.128   5.566 -0.6787 -0.2988  0.6724
  352MOL0     C47435   5.285  -1.004   5.589  0.3976 -0.3734 -0.5126
  352MOL0     N47436   5.554  -0.290   5.542  1.0243  0.2673 -0.0549
  352MOL0     N47437   5.647  -0.222   5.486 -0.1234 -0.4037 -0.1119
  352MOL0     C47438   6.020   0.184   6.259 -0.5907 -0.2485  0.9736
  352MOL0     C47439   6.101   0.271   6.329 -0.6242 -0.3287 -0.6326
  352MOL0     C47440   6.289   0.570   6.620  0.4290 -0.8234  0.5370
  352MOL0     C47441   6.295   0.709   6.613 -0.3846  0.0050  0.3071
  352MOL0     C47442   6.375   0.776   6.706 -0.3825 -0.4793  0.1066
  352MOL0     C47443   6.436   0.723   6.814  0.2944  0.1679  0.2578
  352MOL0     O47444   6.507   0.793   6.905 -0.4618 -0.5520  0.0257
  352MOL0     C47445   6.568   0.736   7.022 -0.5068 -0.4436 -0.4021
  352MOL0     C47446   6.663   0.851   7.074 -0.7741  0.1242  0.4162
  352MOL0     C47447   6.586   0.982   7.120  0.6397  0.0978 -0.5636
  352MOL0     C47448   6.536   0.950   7.267 -0.3609 -0.3333 -0.6150
  352MOL0     C47449   6.644   0.975   7.373 -0.4432  0.0328 -0.3848
  352MOL0     C47450   6.727   1.012   7.455 -0.1720 -0.3280 -0.3992
  352MOL0     C47451   6.425   0.586   6.823 -0.4605  0.2362 -0.2319
  352MOL0     C47452   6.352   0.505   6.726 -0.0580  0.6232  0.2243
  352MOL0     H47453   6.033   0.189   6.649  2.6545  4.0250  0.2293
  352MOL0     H47454   5.931  -0.005   6.518  1.0076 -1.6050  0.1024
  352MOL0     H47455   5.718  -0.120   6.250  3.2253 -0.5879 -0.7954
  352MOL0     H47456   5.707   0.030   6.349  2.6580 -1.6977  2.4890
  352MOL0     H47457   5.572   0.036   6.152  0.9849 -1.3967 -1.8928
  352MOL0     H47458   5.674   0.169   6.201 -0.2521 -1.0471  1.9990
  352MOL0     H47459   5.697   0.164   5.958 -3.3109 -0.6791  0.2344
  352MOL0     H47460   5.844   0.077   6.017  0.6049 -2.4950  3.2440
  352MOL0     H47461   5.770  -0.129   5.970 -0.6111 -1.3652 -0.9885
  352MOL0     H47462   5.601  -0.081   5.946  0.7141 -2.5463  1.5032
  352MOL0     H47463   5.667  -0.111   5.718  0.2260 -1.8032  1.5427
  352MOL0     H47464   5.700   0.064   5.758  3.4503  1.3383  1.8272
  352MOL0     H47465   5.921   0.029   5.788 -3.8386  2.1442  1.5686
  352MOL0     H47466   5.908  -0.145   5.794  2.6885  1.2219 -0.7993
  352MOL0     H47467   5.826   0.018   5.541  1.9946  1.7419 -0.2047
  352MOL0     H47468   5.998  -0.015   5.570 -0.7978 -0.4849 -0.1925
  352MOL0     H47469   5.980  -0.251   5.535  0.6462  1.2153  0.9586
  352MOL0     H47470   5.886  -0.167   5.407 -0.7508 -1.9804 -0.7472
  352MOL0     H47471   5.816  -0.368   5.731  2.2990 -1.1890 -1.5122
  352MOL0     H47472   5.641  -0.490   5.812 -0.1072  2.1878  1.0587
  352MOL0     H47473   5.484  -0.419   5.799  1.6444  0.5506  2.2634
  352MOL0     H47474   5.514  -0.689   5.748  0.7880  0.1792  0.0806
  352MOL0     H47475   5.570  -0.621   5.590  2.1845  0.2053  0.8754
  352MOL0     H47476   5.366  -0.521   5.550  3.3938 -1.4988 -1.0805
  352MOL0     H47477   5.298  -0.554   5.714 -1.6180  0.4653 -2.5011
  352MOL0     H47478   5.393  -0.772   5.530  1.4779 -0.3105  1.7821
  352MOL0     H47479   5.226  -0.707   5.519  0.6258  0.1367 -0.1058
  352MOL0     H47480   5.099  -0.911   5.855 -1.0503  0.4111 -1.1334
  352MOL0     H47481   4.975  -1.099   5.949  2.3348 -0.2439  0.7414
  352MOL0     H47482   4.896  -1.167   5.805 -1.5535 -0.4128  1.8148
  352MOL0     H47483   5.028  -1.259   5.882 -0.9814 -0.6996 -0.8414
  352MOL0     H47484   5.335  -1.559   5.500  0.0118 -1.0743  1.6611
  352MOL0     H47485   5.327  -1.771   5.367  1.3220  1.1309  2.0541
  352MOL0     H47486   4.968  -1.925   5.287  1.2792 -2.3726  0.3014
  352MOL0     H47487   4.955  -1.875   5.114  0.1261 -2.1232 -1.3635
  352MOL0     H47488   5.125  -2.038   5.068  1.8508  1.4102  1.1221
  352MOL0     H47489   5.116  -2.092   5.240 -0.0818  1.4341  1.6653
  352MOL0     H47490   4.877  -2.096   5.046 -0.4749 -2.2774 -1.7388
  352MOL0     H47491   4.886  -2.156   5.217 -3.0211 -0.8261 -1.1786
  352MOL0     H47492   5.041  -2.264   4.976  2.3607  0.9750  1.3110
  352MOL0     H47493   5.048  -2.324   5.143 -2.7549 -1.0892  1.7619
  352MOL0     H47494   4.785  -2.373   5.114 -0.8676 -1.2573 -0.3111
  352MOL0     H47495   4.920  -2.464   5.039  1.1819  0.0779  5.8917
  352MOL0     H47496   4.798  -2.230   4.885  1.5573 -1.1429 -1.8860
  352MOL0     H47497   4.862  -2.379   4.819 -0.4454  0.2888 -0.4684
  352MOL0     H47498   4.613  -2.420   4.975  0.0102 -3.0990 -1.5947
  352MOL0     H47499   4.696  -2.507   4.852 -0.2024  0.5422 -2.1072
  352MOL0     H47500   4.650  -2.291   4.699 -0.8080 -0.9703 -3.3587
  352MOL0     H47501   4.532  -2.254   4.823  1.6421  0.5721  0.4480
  352MOL0     H47502   4.916  -1.658   5.259  0.6720  2.1037 -1.3723
  352MOL0     H47503   4.921  -1.481   5.416  0.9640  1.2911  3.8755
  352MOL0     H47504   5.264  -1.181   5.480  1.7027 -0.5563  1.8410
  352MOL0     H47505   5.367  -0.969   5.528  0.3505 -2.4413 -1.8613
  352MOL0     H47506   6.015   0.179   6.151  1.6516 -0.3789  0.8216
  352MOL0     H47507   6.150   0.358   6.284  0.6714 -0.2407  0.8828
  352MOL0     H47508   6.245   0.758   6.530 -0.8510 -0.4143  0.3394
  352MOL0     H47509   6.387   0.882   6.688  1.9973 -0.1702  2.8038
  352MOL0     H47510   6.498   0.714   7.102 -1.8328 -1.6900 -1.8304
  352MOL0     H47511   6.628   0.646   7.007 -2.1681 -1.8379  0.9996
  352MOL0     H47512   6.725   0.873   6.987  0.9711 -2.6591  0.8269
  352MOL0     H47513   6.730   0.817   7.154  0.2350 -0.9128 -0.8368
  352MOL0     H47514   6.504   1.007   7.052 -0.9464 -2.0444  0.4060
  352MOL0     H47515   6.657   1.064   7.120 -0.4104  1.1676 -3.6666
  352MOL0     H47516   6.491   0.850   7.266 -0.8481 -0.1297 -2.3438
  352MOL0     H47517   6.458   1.024   7.286  0.1246  0.0481 -0.0699
  352MOL0     H47518   6.793   1.060   7.524 -2.6988 -0.4688  2.3110
  352MOL0     H47519   6.477   0.539   6.906  2.6961  2.1754 -0.9392
  352MOL0     H47520   6.361   0.397   6.728 -1.3424  0.4853  2.9277
  353MOL0     O47521  10.831   2.668   3.522 -0.5061 -0.0070 -0.5615
  353MOL0     C47522  10.832   2.651   3.640  0.5406 -0.1990 -0.0851
  353MOL0     O47523  10.936   2.655   3.722 -0.1331 -0.8034  0.1231
  353MOL0     C47524  11.065   2.672   3.668  1.3383 -0.0165  0.0642
  353MOL0     C47525  11.110   2.608   3.548  0.2964 -0.1266  1.1135
  353MOL0     C47526  11.242   2.609   3.500 -0.7302  0.3133 -0.0614
  353MOL0     C47527  11.328   2.691   3.572 -0.5780  0.7464  0.0941
  353MOL0     O47528  11.464   2.716   3.559  0.4846  0.5040  0.6279
  353MOL0     C47529  11.538   2.629   3.469  0.5409 -0.2343 -0.9357
  353MOL0     C47530  11.653   2.722   3.440 -1.0071  0.3450  0.2760
  353MOL0     C47531  11.618   2.807   3.308 -0.6137 -0.3385 -0.1729
  353MOL0     C47532  11.751   2.861   3.265  0.5572  0.4167 -0.1143
  353MOL0     C47533  11.735   3.008   3.216 -1.1778  0.0755  0.3043
  353MOL0     C47534  11.866   3.062   3.149  0.2466  0.1353 -0.7682
  353MOL0     C47535  11.833   3.195   3.071  0.1159 -0.0189 -0.0604
  353MOL0     C47536  11.956   3.261   2.993  0.2292 -0.3537 -0.2016
  353MOL0     N47537  12.008   3.380   3.067  0.1198  0.2791 -0.8774
  353MOL0     C47538  11.935   3.470   3.140 -0.6478  1.3284  0.0558
  353MOL0     C47539  12.023   3.545   3.211  0.0447 -0.0184 -0.1455
  353MOL0     C47540  12.005   3.631   3.333 -0.1811 -0.2937 -0.7888
  353MOL0     C47541  11.967   3.773   3.300 -0.8085 -0.2374 -0.1547
  353MOL0     C47542  12.085   3.849   3.242  0.6808 -0.3380  0.0615
  353MOL0     C47543  12.043   3.989   3.193 -0.4539  0.0310  0.2641
  353MOL0     O47544  12.151   4.068   3.139  0.2317  0.2018 -0.2254
  353MOL0     C47545  12.203   4.042   3.006  0.8262  0.3684 -0.0666
  353MOL0     C47546  12.294   4.135   2.963 -0.8496  0.7489  0.7859
  353MOL0     C47547  12.361   4.139   2.838  0.9687  0.4658  0.0466
  353MOL0     C47548  12.483   4.238   2.827  0.4728  0.3804 -0.2003
  353MOL0     C47549  12.296   4.062   2.734  0.3771 -0.3157 -1.1586
  353MOL0     C47550  12.330   4.067   2.591  0.4268 -0.2526 -0.1345
  353MOL0     O47551  12.302   3.963   2.516  0.0314 -0.4633 -0.5711
  353MOL0     C47552  12.237   3.976   2.398  0.2483 -0.2545 -0.2133
  353MOL0     C47553  12.172   4.091   2.337  0.8387  0.5784  0.0824
  353MOL0     C47554  12.106   4.070   2.210 -0.1219 -0.2061 -0.3300
  353MOL0     C47555  12.097   3.953   2.156  1.1521  1.0553  0.3667
  353MOL0     O47556  12.027   3.957   2.032 -0.0139  0.4169  0.5773
  353MOL0     C47557  12.002   3.847   1.953 -0.3766  0.0648 -0.0294
  353MOL0     C47558  11.992   3.901   1.810 -0.3442 -0.2517  0.4455
  353MOL0     C47559  11.919   4.029   1.790  0.5746 -0.1840 -0.3417
  353MOL0     C47560  11.771   4.025   1.823  0.0615 -0.4084 -0.6352
  353MOL0     C47561  11.704   4.161   1.823 -0.2893 -0.1757  0.5139
  353MOL0     C47562  11.552   4.159   1.857 -0.7480 -0.0718 -0.3053
  353MOL0     C47563  11.518   4.079   1.986 -0.2840 -0.2609  0.4375
  353MOL0     C47564  11.376   4.118   2.041 -0.7086 -0.7502 -0.5379
  353MOL0    Cl47565  11.319   4.023   2.181 -0.2578 -0.1795  0.2778
  353MOL0     C47566  12.152   3.838   2.212 -0.1821  1.6528  0.1997
  353MOL0     C47567  12.221   3.848   2.334  0.0059 -0.1234 -0.7758
  353MOL0     O47568  12.385   4.165   2.549 -0.6147 -0.3705 -0.1767
  353MOL0     C47569  12.185   3.974   2.775 -0.5814  0.8713  0.3829
  353MOL0     C47570  12.145   3.963   2.908  0.6419  0.2995  0.0799
  353MOL0     N47571  12.154   3.489   3.181 -1.1271  0.1158  0.2462
  353MOL0     N47572  12.141   3.398   3.088  0.1078 -0.6320 -0.5012
  353MOL0     C47573  11.283   2.749   3.697  0.1966 -0.0695 -0.0967
  353MOL0     C47574  11.161   2.738   3.745  0.9904  0.5237 -0.3263
  353MOL0     C47575  10.705   2.595   3.692  0.0623  0.4537 -0.5380
  353MOL0     C47576  10.586   2.590   3.610  0.6494  0.0574  0.4481
  353MOL0     C47577  10.466   2.547   3.658 -0.5787  0.2768  0.7788
  353MOL0     C47578  10.457   2.507   3.788  0.3414 -0.7142  0.3816
  353MOL0     O47579  10.328   2.481   3.839  0.2580  0.2555  0.1342
  353MOL0     C47580  10.309   2.524   3.980 -0.1142  0.7903  0.1308
  353MOL0     C47581  10.175   2.516   4.045  0.0870  0.1185  0.0190
  353MOL0     C47582  10.087   2.391   4.013 -1.0581  0.0356  0.1074
  353MOL0     C47583   9.951   2.399   4.087  0.2919  0.6564  0.5892
  353MOL0     C47584   9.956   2.389   4.231 -0.5297 -0.1382 -0.1504
  353MOL0     C47585   9.981   2.369   4.350 -1.5116 -0.6452  0.2593
  353MOL0     C47586  10.567   2.496   3.872  0.3943  0.1305 -0.0345
  353MOL0     C47587  10.688   2.543   3.822 -0.3861  0.4213  0.2913
  353MOL0     H47588  11.037   2.560   3.485 -0.2896 -0.2460  1.8727
  353MOL0     H47589  11.270   2.547   3.416  1.0673 -0.5459  1.1239
  353MOL0     H47590  11.564   2.535   3.517 -1.8599  0.2171  1.5078
  353MOL0     H47591  11.490   2.609   3.373 -1.4413 -0.0517 -0.0516
  353MOL0     H47592  11.684   2.787   3.522 -0.1676 -0.5120  0.6589
  353MOL0     H47593  11.740   2.659   3.421 -0.5957  0.7953  0.6606
  353MOL0     H47594  11.571   2.746   3.230  0.1903 -0.2400 -0.7427
  353MOL0     H47595  11.554   2.894   3.325  2.5219  1.5653  3.5280
  353MOL0     H47596  11.818   2.881   3.350 -0.2153  0.6936  0.4429
  353MOL0     H47597  11.808   2.788   3.206  1.6168 -0.0987  1.4764
  353MOL0     H47598  11.659   3.007   3.138  1.0050  0.1151 -1.9434
  353MOL0     H47599  11.704   3.071   3.300 -1.1262  0.1727  0.2505
  353MOL0     H47600  11.941   3.088   3.225  1.0228 -1.6676 -0.8830
  353MOL0     H47601  11.917   2.984   3.093  0.7911  0.5182 -0.8124
  353MOL0     H47602  11.748   3.181   3.003 -0.2300 -0.4276  0.4516
  353MOL0     H47603  11.793   3.270   3.140  3.4430  2.5678 -0.6282
  353MOL0     H47604  11.919   3.289   2.893 -4.3711 -2.0985  0.7232
  353MOL0     H47605  12.038   3.191   2.974  1.6389  1.2172 -0.0501
  353MOL0     H47606  11.826   3.468   3.143 -0.8299 -1.0998 -2.8871
  353MOL0     H47607  11.920   3.599   3.395 -1.9422  0.8024 -2.5460
  353MOL0     H47608  12.096   3.627   3.395 -0.8742 -2.5116  0.2244
  353MOL0     H47609  11.944   3.808   3.402  2.6456 -1.8649  1.3513
  353MOL0     H47610  11.883   3.776   3.230 -2.0091  0.8923  1.2413
  353MOL0     H47611  12.121   3.791   3.156 -1.5685 -1.3316 -0.2672
  353MOL0     H47612  12.161   3.877   3.316  0.1713  1.3813 -0.0150
  353MOL0     H47613  11.984   4.029   3.275  0.3182  0.1905  0.7484
  353MOL0     H47614  11.970   3.971   3.113  0.1747  1.3314 -0.6268
  353MOL0     H47615  12.327   4.201   3.043  2.9897 -2.2684  2.0103
  353MOL0     H47616  12.534   4.212   2.734 -0.6947  1.8163 -1.2970
  353MOL0     H47617  12.446   4.337   2.799 -2.1532 -0.8032 -1.2475
  353MOL0     H47618  12.546   4.249   2.916  3.6806  2.2082 -2.4621
  353MOL0     H47619  12.167   4.188   2.385  1.2156  1.9023 -2.4042
  353MOL0     H47620  12.058   4.158   2.168 -2.6972 -0.4591  1.8873
  353MOL0     H47621  12.076   3.766   1.962  0.2162  0.7563  1.7241
  353MOL0     H47622  11.902   3.813   1.982 -0.1368  0.4113  1.2444
  353MOL0     H47623  12.097   3.917   1.784 -0.4269 -2.7178 -1.8430
  353MOL0     H47624  11.947   3.832   1.738 -0.9562  0.1313  0.4510
  353MOL0     H47625  11.940   4.055   1.686  0.9835  1.6846  0.1660
  353MOL0     H47626  11.962   4.111   1.848  1.7145 -2.4468  2.2405
  353MOL0     H47627  11.717   3.951   1.764  0.1522 -0.4871 -0.6202
  353MOL0     H47628  11.770   3.992   1.927 -3.3731 -1.6922 -0.9658
  353MOL0     H47629  11.727   4.207   1.726  1.0943 -3.7130 -0.9953
  353MOL0     H47630  11.753   4.216   1.904 -0.2615  0.6126 -0.0241
  353MOL0     H47631  11.520   4.263   1.861 -1.4840 -0.1834 -2.1911
  353MOL0     H47632  11.495   4.125   1.770 -1.3336 -0.9653  0.4052
  353MOL0     H47633  11.593   4.098   2.063  1.2309 -2.8903 -0.2308
  353MOL0     H47634  11.523   3.972   1.961  2.0688  0.5635 -3.5589
  353MOL0     H47635  11.301   4.100   1.963 -3.5893  1.2218  1.5436
  353MOL0     H47636  11.389   4.225   2.063  3.9717 -1.1025 -0.7076
  353MOL0     H47637  12.139   3.742   2.163 -2.1962  1.8338  0.3186
  353MOL0     H47638  12.259   3.753   2.371 -0.3000 -0.8291 -2.1719
  353MOL0     H47639  12.153   3.904   2.699  1.0655  2.8137 -2.3141
  353MOL0     H47640  12.063   3.892   2.915  1.1554 -0.5481 -1.8958
  353MOL0     H47641  11.352   2.807   3.758  1.2519  0.4839 -1.7589
  353MOL0     H47642  11.130   2.776   3.842  1.4544 -0.5349  0.2594
  353MOL0     H47643  10.583   2.639   3.513 -0.7701 -0.1443  0.3624
  353MOL0     H47644  10.367   2.550   3.613 -0.2013  0.6289 -0.0546
  353MOL0     H47645  10.380   2.463   4.036  1.2650 -1.0589 -3.2736
  353MOL0     H47646  10.333   2.630   3.991 -3.3855  1.6702 -0.1207
  353MOL0     H47647  10.125   2.601   3.998  2.0428  1.6623  0.6086
  353MOL0     H47648  10.188   2.519   4.154  1.0896  1.0205 -0.1110
  353MOL0     H47649  10.134   2.299   4.049 -0.0735 -0.7474 -2.8930
  353MOL0     H47650  10.078   2.364   3.908  1.8773 -2.1458  0.3081
  353MOL0     H47651   9.893   2.315   4.046 -1.2894  2.1182 -0.3011
  353MOL0     H47652   9.890   2.483   4.051 -4.8884 -2.7839  0.1400
  353MOL0     H47653  10.008   2.372   4.454 -0.8022 -1.0605  0.0941
  353MOL0     H47654  10.570   2.460   3.975 -0.0462 -2.1575 -0.7642
  353MOL0     H47655  10.772   2.521   3.887  0.7865 -4.6897 -2.4255
  354MOL0     O47656   6.919   1.540   0.221  0.4923  0.1908 -1.0005
  354MOL0     C47657   6.871   1.522   0.109 -0.3582 -0.0383 -0.4874
  354MOL0     O47658   6.902   1.589  -0.004 -0.5142  0.7464  0.5253
  354MOL0     C47659   6.957   1.715   0.021  0.0725  1.3466  0.3198
  354MOL0     C47660   6.860   1.820   0.029  0.5471 -0.3346  1.2091
  354MOL0     C47661   6.903   1.952   0.045 -0.2645  0.7147  1.7853
  354MOL0     C47662   7.040   1.980   0.065 -0.2042 -0.0763 -0.0539
  354MOL0     O47663   7.089   2.103   0.109  0.1663 -0.7067 -0.4630
  354MOL0     C47664   6.991   2.206   0.139  0.5047  0.9030 -0.5449
  354MOL0     C47665   6.936   2.259   0.011 -0.1762  0.1830  0.4065
  354MOL0     C47666   7.027   2.365  -0.057 -0.5562 -0.0815 -0.0353
  354MOL0     C47667   6.944   2.425  -0.164 -0.8078  0.7378 -0.3354
  354MOL0     C47668   7.017   2.532  -0.244  0.0051  0.2915  0.3367
  354MOL0     C47669   7.115   2.480  -0.352  0.0421  0.0312  0.3676
  354MOL0     C47670   7.175   2.590  -0.444 -0.3292 -1.0743 -0.8891
  354MOL0     C47671   7.283   2.546  -0.539 -0.4132  0.1739 -0.6388
  354MOL0     N47672   7.217   2.452  -0.631  0.6049 -0.5724  0.5527
  354MOL0     C47673   7.137   2.500  -0.737 -0.1022  0.3229  0.2878
  354MOL0     C47674   7.113   2.393  -0.824 -0.4272  0.4555 -0.5776
  354MOL0     C47675   7.031   2.389  -0.948  0.6914  0.0855  0.2947
  354MOL0     C47676   7.003   2.248  -1.006  0.1743  0.4492  0.0617
  354MOL0     C47677   7.121   2.152  -1.054  0.3148 -0.1859  0.1656
  354MOL0     C47678   7.071   2.013  -1.075 -0.1363  0.0067 -0.4921
  354MOL0     O47679   7.022   1.990  -1.207  0.0311  0.6415  0.2996
  354MOL0     C47680   6.986   1.863  -1.248 -0.4541 -0.6902 -0.2840
  354MOL0     C47681   6.923   1.862  -1.376 -0.1790 -0.0798 -0.6268
  354MOL0     C47682   6.868   1.744  -1.418  1.3737 -0.3806 -0.5683
  354MOL0     C47683   6.796   1.751  -1.552  0.3996  0.1520 -1.0005
  354MOL0     C47684   6.878   1.623  -1.338  1.3718 -0.6416  0.5526
  354MOL0     C47685   6.855   1.481  -1.378  0.4772  1.1449  0.8269
  354MOL0     O47686   6.885   1.383  -1.291  0.5204  0.1856  0.5828
  354MOL0     C47687   6.871   1.250  -1.304  0.5015  0.1450 -0.6944
  354MOL0     C47688   6.920   1.178  -1.192  0.6382  0.4106  0.6215
  354MOL0     C47689   6.889   1.042  -1.185  0.2588 -0.7565 -0.0801
  354MOL0     C47690   6.803   0.988  -1.268  0.4886 -0.8459  0.7288
  354MOL0     O47691   6.755   0.860  -1.262 -0.6444  0.3195 -0.1467
  354MOL0     C47692   6.803   0.774  -1.162  0.5845  0.1685  0.6010
  354MOL0     C47693   6.827   0.648  -1.241  0.5640 -0.1278 -0.4830
  354MOL0     C47694   6.876   0.527  -1.158  0.7242 -0.7330 -0.6286
  354MOL0     C47695   6.822   0.533  -1.012  0.0092  0.6249  0.5830
  354MOL0     C47696   6.891   0.418  -0.938 -0.4552 -0.3841  0.0897
  354MOL0     C47697   6.838   0.389  -0.797 -0.3249  0.6390  0.3154
  354MOL0     C47698   6.906   0.269  -0.716 -0.9046  0.4844 -0.0049
  354MOL0     C47699   6.824   0.218  -0.595 -0.5053 -0.8542 -0.2055
  354MOL0    Cl47700   6.906   0.102  -0.496  0.0243  0.2311 -0.0448
  354MOL0     C47701   6.765   1.048  -1.377 -0.2342  0.0510  0.2505
  354MOL0     C47702   6.797   1.182  -1.403 -0.3853  0.7261 -0.5630
  354MOL0     O47703   6.800   1.469  -1.486 -0.3369  1.0247  0.3438
  354MOL0     C47704   6.922   1.634  -1.203  0.1549  0.6393 -0.6401
  354MOL0     C47705   6.977   1.757  -1.161  0.0693 -0.5601  0.2494
  354MOL0     N47706   7.176   2.282  -0.761 -0.2833 -0.4761  0.1492
  354MOL0     N47707   7.248   2.322  -0.658 -0.0428 -0.3803 -0.0675
  354MOL0     C47708   7.124   1.869   0.065 -0.7780 -0.7580 -0.1944
  354MOL0     C47709   7.086   1.740   0.039 -0.2150 -0.0378 -0.6875
  354MOL0     C47710   6.773   1.415   0.087 -0.4301  0.6301  0.7919
  354MOL0     C47711   6.688   1.418  -0.026 -0.1821  0.5666 -1.1619
  354MOL0     C47712   6.597   1.320  -0.042 -0.2109 -0.3209 -0.2176
  354MOL0     C47713   6.591   1.217   0.050 -0.0137  0.9236  0.2177
  354MOL0     O47714   6.518   1.109   0.014 -0.5239  0.5896 -0.4465
  354MOL0     C47715   6.459   1.036   0.117 -0.3835  0.6824  0.6109
  354MOL0     C47716   6.323   0.970   0.059 -0.3823 -0.7531 -0.2925
  354MOL0     C47717   6.261   0.854   0.127 -0.1848  0.1937  0.6176
  354MOL0     C47718   6.163   0.882   0.242  0.4758  1.0262  0.5835
  354MOL0     C47719   6.143   0.748   0.300  0.4912 -0.2015  0.3756
  354MOL0     C47720   6.124   0.632   0.330 -0.1790 -0.1407 -0.3893
  354MOL0     C47721   6.669   1.214   0.161 -0.1567  0.1233  0.1416
  354MOL0     C47722   6.761   1.307   0.182  0.4155  0.1402 -0.3713
  354MOL0     H47723   6.753   1.801   0.029  0.1491  1.6262  0.5110
  354MOL0     H47724   6.822   2.023   0.028 -1.1266 -0.8861 -1.9218
  354MOL0     H47725   6.915   2.158   0.201  2.5034  0.5815  1.8218
  354MOL0     H47726   7.048   2.276   0.201  1.5979  0.2080 -0.7276
  354MOL0     H47727   6.922   2.184  -0.067 -1.5465 -1.3019  2.0080
  354MOL0     H47728   6.836   2.300   0.029 -1.9339  0.0033 -6.3103
  354MOL0     H47729   7.046   2.445   0.015  0.1926 -2.6405  2.7830
  354MOL0     H47730   7.126   2.332  -0.090 -0.7887 -1.1706  0.3161
  354MOL0     H47731   6.909   2.345  -0.230 -2.0136  1.7868 -1.0090
  354MOL0     H47732   6.859   2.464  -0.107  1.2099  1.9094  2.0465
  354MOL0     H47733   6.948   2.590  -0.306 -2.0638 -3.1188 -0.8133
  354MOL0     H47734   7.066   2.600  -0.173  0.4128 -2.3890  2.8061
  354MOL0     H47735   7.195   2.421  -0.308  0.6814  0.9368  0.4540
  354MOL0     H47736   7.056   2.422  -0.424 -5.0991  4.1346  0.6089
  354MOL0     H47737   7.109   2.642  -0.513  1.7480  0.0784 -2.1278
  354MOL0     H47738   7.218   2.658  -0.370 -1.3096 -2.7775  1.3502
  354MOL0     H47739   7.364   2.496  -0.484 -1.3066 -0.5251  0.0634
  354MOL0     H47740   7.336   2.632  -0.582  1.7644 -0.6658  0.2463
  354MOL0     H47741   7.121   2.606  -0.752  2.4553  1.2004  2.8239
  354MOL0     H47742   6.934   2.437  -0.930  1.2305  0.3376  2.8731
  354MOL0     H47743   7.085   2.454  -1.018 -0.7532  0.4671 -0.5133
  354MOL0     H47744   6.928   2.257  -1.085 -0.3835  1.2054  0.6663
  354MOL0     H47745   6.948   2.200  -0.925 -0.6453  1.1729 -0.0448
  354MOL0     H47746   7.200   2.144  -0.978  0.9570 -2.9664 -0.6841
  354MOL0     H47747   7.170   2.191  -1.145  2.3995 -1.3882  0.6956
  354MOL0     H47748   6.991   2.003  -1.001  0.1514  0.1889 -0.1602
  354MOL0     H47749   7.150   1.938  -1.065 -1.8208 -2.2410 -2.7053
  354MOL0     H47750   6.920   1.950  -1.440 -0.6382  0.3055 -0.0812
  354MOL0     H47751   6.693   1.717  -1.538  0.3470  0.7876  0.2695
  354MOL0     H47752   6.795   1.849  -1.602 -0.7017  2.3646  2.9191
  354MOL0     H47753   6.841   1.680  -1.621  0.7104  0.3073 -0.9577
  354MOL0     H47754   6.996   1.210  -1.121  0.7902  1.0185  0.1822
  354MOL0     H47755   6.920   0.987  -1.097 -3.1661 -3.4587 -0.3521
  354MOL0     H47756   6.901   0.786  -1.116  2.6274 -1.7766 -2.8285
  354MOL0     H47757   6.720   0.770  -1.091 -0.7804 -1.6830 -0.9689
  354MOL0     H47758   6.737   0.622  -1.297 -1.6164  1.8716  1.8650
  354MOL0     H47759   6.906   0.677  -1.311  0.7584  2.5201  0.7186
  354MOL0     H47760   6.983   0.516  -1.174  0.4429 -1.8241 -1.9296
  354MOL0     H47761   6.838   0.435  -1.203  0.2864 -1.7725  1.7193
  354MOL0     H47762   6.856   0.624  -0.961  1.5167  0.3471  0.1460
  354MOL0     H47763   6.714   0.529  -1.001  0.1479 -0.9228  1.8548
  354MOL0     H47764   6.994   0.454  -0.928 -1.0605  2.2722 -2.1882
  354MOL0     H47765   6.894   0.328  -1.000  1.6801 -0.4582  0.1995
  354MOL0     H47766   6.860   0.482  -0.744 -2.0738  3.4964 -3.5612
  354MOL0     H47767   6.729   0.379  -0.802 -0.3932  0.9410  1.1222
  354MOL0     H47768   7.003   0.301  -0.677 -1.8125  2.2431  0.9559
  354MOL0     H47769   6.913   0.187  -0.788  4.2769 -0.7443  1.4310
  354MOL0     H47770   6.727   0.192  -0.636 -1.5212  3.0224 -0.6470
  354MOL0     H47771   6.808   0.303  -0.528 -0.2459 -0.6740 -0.3674
  354MOL0     H47772   6.719   0.989  -1.456  0.9623 -2.1154  1.0926
  354MOL0     H47773   6.745   1.225  -1.489 -4.5393 -0.4718  1.0959
  354MOL0     H47774   6.928   1.561  -1.124  2.0276  1.3262 -0.0911
  354MOL0     H47775   7.005   1.773  -1.057 -2.6272 -0.0693  0.9857
  354MOL0     H47776   7.226   1.883   0.098 -1.2983  0.4360  1.0197
  354MOL0     H47777   7.158   1.662   0.019  2.0359  1.1888  1.8872
  354MOL0     H47778   6.691   1.490  -0.107  0.2827  0.2041 -1.4728
  354MOL0     H47779   6.541   1.314  -0.135 -3.2492  0.8895  1.3770
  354MOL0     H47780   6.536   0.967   0.151  0.4353  0.3594 -1.7280
  354MOL0     H47781   6.430   1.091   0.208 -2.7926  1.9503 -0.7949
  354MOL0     H47782   6.349   0.938  -0.042  1.7215 -3.9735  1.0884
  354MOL0     H47783   6.246   1.047   0.066 -1.8473 -2.2267  0.6375
  354MOL0     H47784   6.329   0.771   0.150  0.3808  0.1626 -1.0066
  354MOL0     H47785   6.208   0.813   0.040  3.9796 -0.9941 -1.6510
  354MOL0     H47786   6.059   0.905   0.219 -1.4015 -3.4144  3.1708
  354MOL0     H47787   6.196   0.960   0.312 -1.5022  0.6872  1.9889
  354MOL0     H47788   6.102   0.534   0.368 -2.2567 -0.1286 -1.4201
  354MOL0     H47789   6.667   1.128   0.227 -0.4281 -0.4852 -0.6424
  354MOL0     H47790   6.823   1.297   0.270 -0.2206 -1.6404 -0.1002
  355MOL0     O47791   2.887  10.487   3.245 -0.1061 -0.5136  0.1656
  355MOL0     C47792   2.847  10.439   3.136  0.5419  0.2200 -0.2950
  355MOL0     O47793   2.881  10.313   3.096 -0.0762  0.3643  0.2881
  355MOL0     C47794   2.964  10.229   3.166  0.2650  0.0406  0.0707
  355MOL0     C47795   2.952  10.208   3.300 -0.1945  0.2210 -0.1567
  355MOL0     C47796   3.048  10.131   3.355  0.1338  0.7185 -0.5996
  355MOL0     C47797   3.144  10.061   3.291  0.4846 -0.1082 -0.9925
  355MOL0     O47798   3.239  10.006   3.374  0.6799 -0.4531 -0.7095
  355MOL0     C47799   3.326   9.899   3.325  1.0280 -0.0638 -0.0233
  355MOL0     C47800   3.256   9.762   3.325 -0.0828 -0.9096  0.8324
  355MOL0     C47801   3.193   9.712   3.456 -0.5543 -1.6819 -0.2204
  355MOL0     C47802   3.264   9.588   3.499 -0.4537  0.1705 -0.6701
  355MOL0     C47803   3.206   9.537   3.630 -0.2559 -0.4825  0.0333
  355MOL0     C47804   3.310   9.445   3.706  0.9289  0.0834 -0.1709
  355MOL0     C47805   3.243   9.378   3.827  0.0499  0.4983 -0.4050
  355MOL0     C47806   3.215   9.471   3.948 -0.1403 -0.8656  0.0322
  355MOL0     N47807   3.134   9.394   4.048 -0.2351 -0.0234  0.2008
  355MOL0     C47808   3.192   9.333   4.163 -0.8024  0.9056  0.4000
  355MOL0     C47809   3.087   9.261   4.222  0.6280 -0.2287 -0.0892
  355MOL0     C47810   3.088   9.152   4.338  0.2687  0.1641  0.9178
  355MOL0     C47811   3.193   9.046   4.318 -0.6495  0.1961 -0.8024
  355MOL0     C47812   3.191   8.957   4.436 -0.0655  1.0876 -0.5306
  355MOL0     C47813   3.273   8.831   4.424  0.3311  0.0357  0.6998
  355MOL0     O47814   3.400   8.850   4.366 -0.5032 -0.5328  0.5275
  355MOL0     C47815   3.501   8.787   4.434 -0.0991  0.2559  0.7142
  355MOL0     C47816   3.601   8.861   4.501  0.5722  0.2504 -0.7664
  355MOL0     C47817   3.714   8.800   4.547 -0.0480  0.2942 -1.1735
  355MOL0     C47818   3.802   8.900   4.613  0.5290 -0.9187 -0.0216
  355MOL0     C47819   3.736   8.662   4.537  0.0399 -0.2596 -0.5268
  355MOL0     C47820   3.852   8.576   4.591 -0.8527 -0.4547  0.4928
  355MOL0     O47821   3.822   8.451   4.629 -0.7395  0.0730  0.4444
  355MOL0     C47822   3.920   8.365   4.670 -1.0389 -0.0683 -0.8963
  355MOL0     C47823   4.039   8.335   4.596 -1.3047 -0.4232 -0.3584
  355MOL0     C47824   4.131   8.239   4.642  0.1912  0.3846 -0.2572
  355MOL0     C47825   4.112   8.170   4.766 -0.1331  1.0521 -0.2690
  355MOL0     O47826   4.200   8.083   4.829  0.3093 -0.9595  0.2229
  355MOL0     C47827   4.285   8.012   4.744  0.5753 -0.2990 -0.0292
  355MOL0     C47828   4.204   7.918   4.651  0.5816 -0.0670 -0.6884
  355MOL0     C47829   4.122   7.815   4.740  0.5715  0.3157 -0.4723
  355MOL0     C47830   4.190   7.726   4.828  0.3321  1.0171 -1.0548
  355MOL0     C47831   4.097   7.617   4.886  0.6294  0.4083 -0.5483
  355MOL0     C47832   4.053   7.505   4.791 -0.3548 -0.2098 -0.2809
  355MOL0     C47833   4.040   7.374   4.855 -0.2192 -0.1790  0.5379
  355MOL0     C47834   4.174   7.303   4.831  0.8515 -0.6821  0.1291
  355MOL0    Cl47835   4.309   7.354   4.937 -0.1079 -0.6918 -0.3300
  355MOL0     C47836   3.991   8.189   4.835 -0.4180  0.0367  0.2338
  355MOL0     C47837   3.898   8.280   4.782  0.1830  0.3555  0.1192
  355MOL0     O47838   3.970   8.623   4.603 -0.4622  0.0758  0.6048
  355MOL0     C47839   3.637   8.589   4.472  0.0037 -0.3194  0.0242
  355MOL0     C47840   3.515   8.644   4.430  0.1273  0.2264 -0.1010
  355MOL0     N47841   2.972   9.287   4.143 -0.3260  0.1488 -0.1738
  355MOL0     N47842   2.997   9.378   4.052 -0.0904 -0.0689  0.4627
  355MOL0     C47843   3.142  10.069   3.151 -0.8551 -0.2445 -1.1540
  355MOL0     C47844   3.054  10.155   3.088  0.3469  0.1810  0.1087
  355MOL0     C47845   2.751  10.516   3.049 -0.3448 -0.1602 -0.0496
  355MOL0     C47846   2.676  10.461   2.949  0.6684  0.4200  0.2934
  355MOL0     C47847   2.594  10.536   2.861 -0.0635  0.6286  0.6933
  355MOL0     C47848   2.590  10.672   2.877 -0.5308  0.3508 -0.6547
  355MOL0     O47849   2.526  10.758   2.792  0.1415  0.2726 -0.3032
  355MOL0     C47850   2.387  10.773   2.808  0.3116 -0.4620 -0.0941
  355MOL0     C47851   2.339  10.913   2.837 -0.7878 -0.4913 -0.3565
  355MOL0     C47852   2.341  10.986   2.703  0.6790 -0.4097  0.6423
  355MOL0     C47853   2.293  11.133   2.721  0.6638  0.3681  0.0739
  355MOL0     C47854   2.280  11.209   2.602 -0.0400  0.6894 -0.0321
  355MOL0     C47855   2.273  11.290   2.516 -1.0880  0.5834  0.4819
  355MOL0     C47856   2.668  10.732   2.976  0.2636 -0.3426 -0.5465
  355MOL0     C47857   2.747  10.660   3.067  0.1254  0.3761  0.3770
  355MOL0     H47858   2.894  10.270   3.367  2.4164  3.3953 -0.5879
  355MOL0     H47859   3.039  10.137   3.463 -0.4048 -2.7063 -0.3553
  355MOL0     H47860   3.376   9.913   3.229  1.8295 -0.2925  0.3531
  355MOL0     H47861   3.406   9.901   3.400 -1.3420 -0.5971  2.7157
  355MOL0     H47862   3.175   9.765   3.252  2.3622 -1.5080 -2.0940
  355MOL0     H47863   3.322   9.684   3.286 -0.6949 -0.9810 -0.0995
  355MOL0     H47864   3.199   9.788   3.535  1.9825  0.1726 -2.0281
  355MOL0     H47865   3.088   9.692   3.435 -1.4726  1.2702  0.9630
  355MOL0     H47866   3.248   9.511   3.423  0.3612 -0.5163 -0.1648
  355MOL0     H47867   3.372   9.604   3.507 -0.0769  0.7474 -4.7628
  355MOL0     H47868   3.202   9.620   3.701 -1.9691 -0.2739 -0.2562
  355MOL0     H47869   3.108   9.489   3.629 -0.6876  0.2350  2.1445
  355MOL0     H47870   3.353   9.369   3.640  2.3831  2.3591 -2.0280
  355MOL0     H47871   3.391   9.510   3.740 -1.2787  2.2521  1.3129
  355MOL0     H47872   3.153   9.328   3.789  1.5241 -3.6441  1.0261
  355MOL0     H47873   3.315   9.301   3.855  0.2450 -0.2733 -2.7790
  355MOL0     H47874   3.161   9.563   3.925  0.9640 -0.7109 -2.2360
  355MOL0     H47875   3.315   9.494   3.985  0.5159 -5.3329  1.6909
  355MOL0     H47876   3.298   9.343   4.187 -0.5671 -0.2450 -0.0575
  355MOL0     H47877   3.117   9.201   4.432  1.2881 -0.5722  1.0040
  355MOL0     H47878   2.991   9.103   4.346  0.2378 -0.4040 -1.9074
  355MOL0     H47879   3.291   9.093   4.310 -1.0775  0.9056 -2.1409
  355MOL0     H47880   3.188   8.985   4.228 -0.1179 -0.0920 -0.6402
  355MOL0     H47881   3.085   8.932   4.443  0.4369 -2.3248 -2.6268
  355MOL0     H47882   3.226   9.000   4.530 -1.6087 -0.1463  0.6577
  355MOL0     H47883   3.222   8.766   4.352  0.7542 -2.4833  2.5462
  355MOL0     H47884   3.277   8.768   4.513 -1.4106 -0.4675  0.4635
  355MOL0     H47885   3.585   8.968   4.507 -0.7716  0.1035 -1.3383
  355MOL0     H47886   3.834   8.969   4.535 -0.1861 -1.5491 -0.8909
  355MOL0     H47887   3.745   8.954   4.690  1.2316  0.2279 -0.2838
  355MOL0     H47888   3.891   8.867   4.667 -1.3983 -0.9059  3.5361
  355MOL0     H47889   4.067   8.380   4.501 -0.4345 -2.9479 -1.4128
  355MOL0     H47890   4.229   8.237   4.595  1.3913  0.0846  2.1011
  355MOL0     H47891   4.346   8.082   4.685 -1.1103  0.3171 -1.1122
  355MOL0     H47892   4.336   7.954   4.821 -1.4011 -3.2232 -0.7398
  355MOL0     H47893   4.130   7.979   4.598  0.3526 -1.3273 -1.8711
  355MOL0     H47894   4.271   7.864   4.583  0.7694 -1.2156  0.3724
  355MOL0     H47895   4.062   7.753   4.672  2.9861 -0.8046 -1.6999
  355MOL0     H47896   4.059   7.877   4.805 -0.0751  0.0420 -0.8272
  355MOL0     H47897   4.256   7.670   4.761 -0.8180 -2.1267  0.2357
  355MOL0     H47898   4.240   7.789   4.901 -2.5445  3.8376 -1.3062
  355MOL0     H47899   3.999   7.654   4.918 -0.4758 -1.2801 -1.8055
  355MOL0     H47900   4.146   7.582   4.977 -0.8369 -2.4257 -0.7500
  355MOL0     H47901   3.952   7.528   4.754 -0.2090 -1.2747 -1.3787
  355MOL0     H47902   4.129   7.497   4.713  0.9817 -0.0403  0.9663
  355MOL0     H47903   3.962   7.312   4.810 -0.0722 -1.6364  2.1893
  355MOL0     H47904   4.011   7.396   4.958 -2.7419  0.2008 -0.1937
  355MOL0     H47905   4.210   7.309   4.728 -0.0874  1.2055 -0.1429
  355MOL0     H47906   4.150   7.198   4.852 -1.0622 -0.2472  0.3030
  355MOL0     H47907   3.977   8.116   4.914  0.5934  0.1370  0.5201
  355MOL0     H47908   3.806   8.277   4.839 -0.8135 -1.9561 -1.4684
  355MOL0     H47909   3.650   8.481   4.464 -1.2991 -0.5989  1.2520
  355MOL0     H47910   3.434   8.590   4.382  0.7846  0.1700 -1.1833
  355MOL0     H47911   3.221  10.014   3.100  1.0293  1.2579 -0.0100
  355MOL0     H47912   3.048  10.187   2.984 -1.2175  3.1884  1.0043
  355MOL0     H47913   2.692  10.356   2.925 -1.5568 -0.4022  2.0733
  355MOL0     H47914   2.528  10.502   2.781 -1.8855  1.6645  1.6888
  355MOL0     H47915   2.344  10.732   2.717  1.9173  1.0563 -1.6232
  355MOL0     H47916   2.341  10.714   2.888 -1.1329 -0.4665 -0.9023
  355MOL0     H47917   2.409  10.964   2.904  0.7938 -2.1866 -0.6527
  355MOL0     H47918   2.236  10.912   2.872 -0.7095  3.7567  0.6230
  355MOL0     H47919   2.271  10.937   2.635 -0.0507 -0.2400  1.2648
  355MOL0     H47920   2.440  10.987   2.655 -0.0084 -0.7042 -0.8319
  355MOL0     H47921   2.367  11.186   2.781 -1.4835  1.0463  2.2988
  355MOL0     H47922   2.198  11.134   2.776  0.2513 -1.2254 -0.5530
  355MOL0     H47923   2.263  11.351   2.429 -3.5734 -1.7629 -1.0236
  355MOL0     H47924   2.682  10.839   2.992 -1.2546 -0.1683 -0.2311
  355MOL0     H47925   2.806  10.713   3.141 -1.0943  2.7327 -0.2260
  356MOL0     O47926   2.324   3.119   9.141  0.1343 -0.0344  0.7418
  356MOL0     C47927   2.362   3.194   9.047 -0.0310 -0.2083 -0.9392
  356MOL0     O47928   2.278   3.300   9.003 -0.4326 -0.6867  0.2125
  356MOL0     C47929   2.170   3.342   9.081 -1.4721  0.4914  0.4245
  356MOL0     C47930   2.060   3.356   9.013  0.7109  0.4900 -0.4883
  356MOL0     C47931   1.946   3.411   9.079 -0.3511 -0.1563  0.2927
  356MOL0     C47932   1.959   3.460   9.210 -0.3353  0.8212 -0.4349
  356MOL0     O47933   1.863   3.519   9.284 -0.1135  0.0483  0.1073
  356MOL0     C47934   1.746   3.568   9.221 -0.1324  0.0973  0.1696
  356MOL0     C47935   1.623   3.464   9.193 -0.0673 -0.2279  0.7087
  356MOL0     C47936   1.605   3.379   9.304 -0.0779  0.5355 -0.1828
  356MOL0     C47937   1.485   3.289   9.269 -0.4172  0.3587 -0.6377
  356MOL0     C47938   1.446   3.182   9.377  0.2256 -0.4695  0.4106
  356MOL0     C47939   1.376   3.065   9.307 -0.5766 -0.7915  0.4774
  356MOL0     C47940   1.222   3.095   9.291 -0.3287  0.4771  1.0206
  356MOL0     C47941   1.151   2.967   9.241  0.3844 -0.2457  0.3963
  356MOL0     N47942   1.004   2.986   9.230  0.3964 -0.2872 -0.6094
  356MOL0     C47943   0.929   3.031   9.338  0.1380  0.4026  1.0521
  356MOL0     C47944   0.827   3.091   9.292  0.3804 -0.5206  1.5404
  356MOL0     C47945   0.733   3.174   9.370  0.9970  0.5844  0.0599
  356MOL0     C47946   0.621   3.086   9.427 -0.0312 -0.5323 -0.3855
  356MOL0     C47947   0.531   3.145   9.536 -0.3837  0.3250 -0.6292
  356MOL0     C47948   0.480   3.282   9.493 -0.6774 -1.3580  0.4942
  356MOL0     O47949   0.404   3.259   9.373 -0.9170  0.0366  0.0179
  356MOL0     C47950   0.300   3.351   9.355 -0.4512  0.2115 -0.1453
  356MOL0     C47951   0.309   3.489   9.365 -0.5962  0.0759 -0.2349
  356MOL0     C47952   0.197   3.566   9.325  0.1316 -0.7725  0.3635
  356MOL0     C47953   0.201   3.712   9.336 -0.8070  1.1855  0.0821
  356MOL0     C47954   0.072   3.505   9.275 -0.8591 -0.1877 -0.6204
  356MOL0     C47955  -0.047   3.586   9.220 -0.2736  0.2178 -0.1972
  356MOL0     O47956  -0.171   3.513   9.207 -0.3495 -0.2412 -0.1032
  356MOL0     C47957  -0.283   3.598   9.215 -0.3053  0.8361 -0.0362
  356MOL0     C47958  -0.372   3.587   9.113 -1.1230 -0.0990 -0.1096
  356MOL0     C47959  -0.502   3.642   9.127  1.1897 -0.3090 -0.2624
  356MOL0     C47960  -0.539   3.699   9.250 -0.8064  0.7146 -0.5264
  356MOL0     O47961  -0.663   3.764   9.245  0.0436 -0.1995  0.0989
  356MOL0     C47962  -0.723   3.791   9.376  0.4187 -0.9796  0.4017
  356MOL0     C47963  -0.727   3.942   9.408 -0.1179  0.7999 -0.1362
  356MOL0     C47964  -0.874   3.989   9.455 -1.3837  0.4949  0.7830
  356MOL0     C47965  -0.886   4.137   9.438 -0.1248  1.0097  0.0627
  356MOL0     C47966  -1.004   4.211   9.511  1.2054  0.5575 -0.3389
  356MOL0     C47967  -1.021   4.358   9.472  0.8841 -0.9743 -0.4719
  356MOL0     C47968  -1.154   4.404   9.541 -0.4499  0.5108  0.2627
  356MOL0     C47969  -1.204   4.533   9.512  0.5107 -0.8570  0.3464
  356MOL0    Cl47970  -1.253   4.538   9.343 -0.6109  0.0347  0.0262
  356MOL0     C47971  -0.448   3.703   9.352  0.1153 -0.1224  0.0329
  356MOL0     C47972  -0.322   3.646   9.333 -0.2795  0.0248 -0.2613
  356MOL0     O47973  -0.022   3.689   9.170  0.0884 -0.1895  0.1288
  356MOL0     C47974   0.070   3.365   9.277  0.6314  0.4939  0.5437
  356MOL0     C47975   0.177   3.293   9.325  0.4785  0.5501  0.5912
  356MOL0     N47976   0.840   3.094   9.153 -0.4699  0.2862  0.2560
  356MOL0     N47977   0.950   3.033   9.116  0.2363  0.2621  0.1182
  356MOL0     C47978   2.081   3.446   9.275 -0.1129  0.1369 -0.8684
  356MOL0     C47979   2.185   3.391   9.204  0.4365  0.3002 -0.0987
  356MOL0     C47980   2.489   3.171   8.980  0.1864 -0.0500  0.0089
  356MOL0     C47981   2.512   3.211   8.850  0.2664  0.0870 -0.3014
  356MOL0     C47982   2.631   3.187   8.777  0.6946  0.5825 -0.2891
  356MOL0     C47983   2.731   3.115   8.840 -0.1099 -0.4483 -0.8482
  356MOL0     O47984   2.843   3.087   8.771 -0.2605  0.3123 -0.3524
  356MOL0     C47985   2.969   3.055   8.842  0.4671 -0.5766  0.3774
  356MOL0     C47986   3.084   3.086   8.750 -0.2504  0.6665 -0.2629
  356MOL0     C47987   3.216   3.055   8.834 -0.3543 -0.3735  0.2626
  356MOL0     C47988   3.343   3.109   8.762  0.4992 -0.4773  0.2074
  356MOL0     C47989   3.413   3.011   8.680  0.1370  0.9500  0.0592
  356MOL0     C47990   3.465   2.918   8.608 -0.4437 -0.0910 -0.2641
  356MOL0     C47991   2.718   3.076   8.977  0.3227  0.2836  0.0179
  356MOL0     C47992   2.596   3.095   9.038  0.2053 -0.5845 -0.0565
  356MOL0     H47993   2.045   3.327   8.910  1.8973 -1.0753 -0.2726
  356MOL0     H47994   1.854   3.411   9.020  0.2885 -0.8180 -0.7353
  356MOL0     H47995   1.708   3.647   9.286  3.9021  2.1820  0.3623
  356MOL0     H47996   1.779   3.622   9.132  0.8402  0.7944  0.9294
  356MOL0     H47997   1.532   3.518   9.164 -2.8846 -4.4745  0.7609
  356MOL0     H47998   1.652   3.403   9.107  0.6397 -1.2114  1.6070
  356MOL0     H47999   1.699   3.328   9.326 -0.6207 -1.1102 -1.4751
  356MOL0     H48000   1.570   3.443   9.386 -1.7052 -2.1191  1.3681
  356MOL0     H48001   1.401   3.355   9.248 -0.7862  0.3064  0.6390
  356MOL0     H48002   1.505   3.239   9.173  2.1464  1.0250 -0.5362
  356MOL0     H48003   1.541   3.140   9.410  0.9111  0.0314 -0.8392
  356MOL0     H48004   1.378   3.214   9.456 -1.8142 -0.2310 -1.3355
  356MOL0     H48005   1.432   3.047   9.215 -0.4184  1.7708 -0.0028
  356MOL0     H48006   1.391   2.976   9.370 -1.2300  0.4154  2.4481
  356MOL0     H48007   1.187   3.134   9.387  0.9179  0.6905  1.4155
  356MOL0     H48008   1.206   3.175   9.218  1.6360  1.2353  1.3597
  356MOL0     H48009   1.181   2.882   9.303  1.0270 -0.2263  0.1199
  356MOL0     H48010   1.185   2.959   9.138  1.2475 -0.4787  0.6917
  356MOL0     H48011   0.945   3.031   9.446 -1.5270  2.4105  1.3824
  356MOL0     H48012   0.781   3.221   9.457 -1.6155 -1.2169  2.7004
  356MOL0     H48013   0.695   3.250   9.301  0.9202  1.4123  0.9770
  356MOL0     H48014   0.666   2.996   9.471 -2.9528 -1.4082  1.1118
  356MOL0     H48015   0.568   3.046   9.340  2.0899  0.3000 -2.1362
  356MOL0     H48016   0.579   3.150   9.634  0.8917 -2.9932 -0.9261
  356MOL0     H48017   0.451   3.071   9.543 -0.4482  0.4653  0.2288
  356MOL0     H48018   0.560   3.355   9.476 -4.2483  3.5889  2.5364
  356MOL0     H48019   0.423   3.336   9.569  0.9589  0.9319  0.1904
  356MOL0     H48020   0.396   3.536   9.411 -0.1251 -2.1392  1.3162
  356MOL0     H48021   0.215   3.763   9.241 -0.6619 -2.2960 -1.9341
  356MOL0     H48022   0.106   3.736   9.385 -2.6504  1.1340 -3.1933
  356MOL0     H48023   0.283   3.720   9.408 -1.2650 -0.2878  0.8148
  356MOL0     H48024  -0.340   3.536   9.023  1.0644 -0.7724  0.9881
  356MOL0     H48025  -0.575   3.637   9.047  0.5008  3.2029 -0.0367
  356MOL0     H48026  -0.828   3.760   9.376 -0.1089  0.5669  2.6135
  356MOL0     H48027  -0.675   3.734   9.457  1.1854 -0.3153  0.4313
  356MOL0     H48028  -0.664   3.956   9.496 -1.2163  1.1939  0.6136
  356MOL0     H48029  -0.691   4.007   9.328 -0.0264  2.3045  1.0987
  356MOL0     H48030  -0.888   3.958   9.559 -1.0541 -3.1618 -0.1115
  356MOL0     H48031  -0.951   3.945   9.392 -0.8010 -0.5443  0.7705
  356MOL0     H48032  -0.802   4.182   9.492 -0.2935  0.5554  0.7180
  356MOL0     H48033  -0.881   4.168   9.333 -1.1161 -0.5462 -0.4673
  356MOL0     H48034  -0.992   4.210   9.620  1.9735 -1.1767 -0.3975
  356MOL0     H48035  -1.092   4.147   9.505  1.4322 -0.0453  1.8459
  356MOL0     H48036  -0.926   4.400   9.505  2.1270 -3.8207 -0.1372
  356MOL0     H48037  -1.035   4.375   9.365  1.5319  1.3200 -0.2447
  356MOL0     H48038  -1.141   4.416   9.649 -1.4079 -0.7523  0.5507
  356MOL0     H48039  -1.238   4.337   9.521 -2.2571  2.5688  0.5636
  356MOL0     H48040  -1.128   4.608   9.533 -0.5588 -0.0880  1.6478
  356MOL0     H48041  -1.284   4.564   9.580  0.5693 -0.6852  0.3376
  356MOL0     H48042  -0.481   3.750   9.444 -0.7686  0.8117 -0.7320
  356MOL0     H48043  -0.255   3.642   9.419  0.1782 -0.9868 -0.6460
  356MOL0     H48044  -0.028   3.325   9.253  0.7628 -1.0456  2.3243
  356MOL0     H48045   0.173   3.186   9.344  1.3999  0.5926  1.0957
  356MOL0     H48046   2.100   3.497   9.368 -0.3434 -1.3111  0.0019
  356MOL0     H48047   2.286   3.393   9.245  1.0949 -0.6142 -1.5658
  356MOL0     H48048   2.439   3.268   8.793  0.0139  2.3604  2.0690
  356MOL0     H48049   2.638   3.231   8.678 -5.3806  0.4794 -1.1183
  356MOL0     H48050   2.974   3.121   8.929 -5.3629  2.1721 -0.8935
  356MOL0     H48051   2.984   2.955   8.883 -0.2949 -0.4774  0.9232
  356MOL0     H48052   3.076   3.184   8.702 -1.6727  0.3186 -0.8055
  356MOL0     H48053   3.077   3.013   8.669 -3.7582 -1.7562  1.9479
  356MOL0     H48054   3.231   2.947   8.840  0.4838 -0.3415 -0.9439
  356MOL0     H48055   3.220   3.106   8.931  1.3485 -3.8010  2.1946
  356MOL0     H48056   3.413   3.153   8.834  1.2587  1.5353 -1.6427
  356MOL0     H48057   3.330   3.195   8.695  2.2855 -1.6510 -1.8030
  356MOL0     H48058   3.520   2.839   8.562  1.0352  1.6439 -1.6413
  356MOL0     H48059   2.806   3.040   9.031  0.6893  1.3299  0.1497
  356MOL0     H48060   2.587   3.068   9.143 -0.0633  0.9657  0.3449
  357MOL0     O48061  10.837   6.082   4.633 -0.3013  0.0500 -0.4645
  357MOL0     C48062  10.894   6.184   4.612  0.0698 -0.4400 -0.2823
  357MOL0     O48063  10.929   6.269   4.714  0.2930  0.5071  0.2263
  357MOL0     C48064  10.885   6.229   4.839 -0.4685 -0.4587 -0.0475
  357MOL0     C48065  10.745   6.235   4.871  0.8817  0.8673 -0.3576
  357MOL0     C48066  10.694   6.217   5.000  1.1573  1.3487 -0.4267
  357MOL0     C48067  10.789   6.194   5.104  0.3194  0.7674  0.5938
  357MOL0     O48068  10.760   6.195   5.238 -0.5193  0.0432 -0.2230
  357MOL0     C48069  10.623   6.213   5.275 -0.5967  0.2290  0.6477
  357MOL0     C48070  10.598   6.194   5.423 -1.4050  0.9953  0.6787
  357MOL0     C48071  10.450   6.177   5.470  0.3060 -0.4180  0.5004
  357MOL0     C48072  10.382   6.060   5.400  0.4862 -0.7903  0.0644
  357MOL0     C48073  10.232   6.042   5.446  0.1411 -0.4604 -0.0363
  357MOL0     C48074  10.170   5.967   5.328  0.8731  1.0657 -0.0192
  357MOL0     C48075  10.026   5.928   5.344  0.1670 -0.3371 -0.2797
  357MOL0     C48076   9.989   5.840   5.476  0.1931  0.1477 -0.9474
  357MOL0     N48077  10.068   5.710   5.482 -0.2628 -0.4463  0.9126
  357MOL0     C48078  10.034   5.609   5.402 -1.0750 -0.5273  0.2661
  357MOL0     C48079  10.128   5.518   5.423  0.1075  0.1789  0.1076
  357MOL0     C48080  10.119   5.375   5.386 -0.4284 -0.5428  0.5219
  357MOL0     C48081  10.127   5.348   5.234  0.3586  0.5383 -0.4344
  357MOL0     C48082  10.248   5.431   5.182  0.9277  0.3437  0.1245
  357MOL0     C48083  10.301   5.378   5.051  0.0470  0.1596  0.3153
  357MOL0     O48084  10.310   5.230   5.066  0.0995 -1.4153  0.1837
  357MOL0     C48085  10.328   5.157   4.953 -0.0036 -0.5993  0.2796
  357MOL0     C48086  10.328   5.023   4.983  0.4824  0.0980  0.1678
  357MOL0     C48087  10.369   4.932   4.880 -0.6266  0.4361  0.1082
  357MOL0     C48088  10.387   4.792   4.925  0.3153  1.5254  0.5663
  357MOL0     C48089  10.408   4.973   4.751 -0.0985 -1.0595  0.0830
  357MOL0     C48090  10.450   4.877   4.645  0.7300 -0.3455  0.1922
  357MOL0     O48091  10.357   4.859   4.547 -0.6961 -0.0593 -0.2832
  357MOL0     C48092  10.400   4.766   4.453  0.1075 -1.0314 -0.5889
  357MOL0     C48093  10.496   4.817   4.356  0.7883  0.5437 -0.3643
  357MOL0     C48094  10.528   4.729   4.247 -1.3591 -0.3236  0.5494
  357MOL0     C48095  10.462   4.602   4.230  1.2299  0.2681 -0.3827
  357MOL0     O48096  10.480   4.494   4.139  0.0595  0.0390  0.2133
  357MOL0     C48097  10.593   4.519   4.052  0.1385 -0.7314 -0.3288
  357MOL0     C48098  10.600   4.416   3.942  0.5052  0.6207  0.4880
  357MOL0     C48099  10.677   4.296   3.992 -0.0580 -0.0349  0.5147
  357MOL0     C48100  10.708   4.209   3.873  0.4424 -0.4078 -0.1810
  357MOL0     C48101  10.793   4.090   3.916 -0.1992 -0.5538 -0.2296
  357MOL0     C48102  10.715   3.966   3.946 -0.3243 -0.6182  0.2442
  357MOL0     C48103  10.809   3.883   4.039 -0.0104  0.4150  0.6983
  357MOL0     C48104  10.781   3.735   4.033 -0.0132  0.0085 -0.2138
  357MOL0    Cl48105  10.820   3.689   3.862  0.3221  0.1793 -0.5749
  357MOL0     C48106  10.366   4.567   4.332  0.0245 -0.4109  0.1892
  357MOL0     C48107  10.337   4.642   4.443  0.0406  0.1522  0.3143
  357MOL0     O48108  10.555   4.820   4.655  0.3883  0.3200  0.1772
  357MOL0     C48109  10.408   5.114   4.732 -0.4486  0.3366  1.1088
  357MOL0     C48110  10.375   5.207   4.830  0.8657  0.6897  0.3824
  357MOL0     N48111  10.222   5.567   5.504  0.7101 -0.2881  0.4100
  357MOL0     N48112  10.182   5.684   5.540 -1.5770  0.7668  0.5145
  357MOL0     C48113  10.920   6.188   5.072  0.3883 -0.0826 -0.2586
  357MOL0     C48114  10.974   6.200   4.944 -0.6732  0.7826  0.1586
  357MOL0     C48115  10.922   6.215   4.469  0.7980  0.2612 -0.3651
  357MOL0     C48116  10.866   6.134   4.362 -0.3708  0.4788 -0.2987
  357MOL0     C48117  10.893   6.156   4.227  0.0027 -0.1144  0.2237
  357MOL0     C48118  10.967   6.263   4.192  1.3772 -0.7098  0.2921
  357MOL0     O48119  11.002   6.286   4.060  0.3547  0.0158 -0.0528
  357MOL0     C48120  11.130   6.222   4.037 -1.7227  0.4358  1.0148
  357MOL0     C48121  11.160   6.184   3.898 -0.8314  0.3720 -0.8110
  357MOL0     C48122  11.143   6.293   3.795 -0.8878 -0.2848 -0.7547
  357MOL0     C48123  11.176   6.245   3.652 -0.0177  0.6651  0.1965
  357MOL0     C48124  11.311   6.200   3.629  0.4244 -0.0808  0.7791
  357MOL0     C48125  11.420   6.163   3.603  0.0401  0.1648 -0.3739
  357MOL0     C48126  11.006   6.353   4.298 -1.0355  1.2677  0.0836
  357MOL0     C48127  10.985   6.327   4.430 -0.3387  0.0633  0.2595
  357MOL0     H48128  10.681   6.269   4.790  2.6330  2.5133 -1.1396
  357MOL0     H48129  10.592   6.239   5.031  1.9794  0.0615  3.7697
  357MOL0     H48130  10.591   6.316   5.255 -1.8733 -0.7082 -2.7550
  357MOL0     H48131  10.557   6.144   5.223  0.7630 -0.6830  0.0573
  357MOL0     H48132  10.660   6.109   5.452  0.9282  1.5949 -2.1426
  357MOL0     H48133  10.643   6.277   5.479 -2.0462  0.6506  1.7413
  357MOL0     H48134  10.457   6.154   5.577 -2.7574  0.6279  1.0379
  357MOL0     H48135  10.388   6.266   5.454  0.2518  0.3092  3.9604
  357MOL0     H48136  10.391   6.075   5.292  3.4988 -1.8359  0.0795
  357MOL0     H48137  10.440   5.970   5.423 -0.3176 -1.0595  1.1316
  357MOL0     H48138  10.228   5.997   5.546  1.6877  0.5707  0.5257
  357MOL0     H48139  10.185   6.141   5.454 -1.6912 -1.2422 -0.5349
  357MOL0     H48140  10.170   6.032   5.241  1.9015  0.9395 -0.1190
  357MOL0     H48141  10.222   5.875   5.298 -0.2982  0.1147  0.7429
  357MOL0     H48142   9.989   6.031   5.339  2.6889  0.5812 -3.3310
  357MOL0     H48143   9.991   5.869   5.259  2.3527 -4.3027  1.2858
  357MOL0     H48144   9.881   5.821   5.471 -0.2794  2.2834  0.3046
  357MOL0     H48145   9.985   5.896   5.569  0.1539  0.6087 -1.2248
  357MOL0     H48146   9.937   5.605   5.353 -1.2417  0.6438  0.4637
  357MOL0     H48147  10.210   5.326   5.422  0.4278 -0.0013 -0.8186
  357MOL0     H48148  10.028   5.338   5.434  0.3455 -2.7265  0.4259
  357MOL0     H48149  10.035   5.387   5.189  0.8121  3.4525  0.9873
  357MOL0     H48150  10.131   5.241   5.212  0.3055  0.7315 -1.4288
  357MOL0     H48151  10.321   5.443   5.262 -0.5358  2.3110  1.2486
  357MOL0     H48152  10.224   5.538   5.177  0.5346  0.8451  5.9738
  357MOL0     H48153  10.396   5.430   5.035 -0.9675  2.2326  0.7341
  357MOL0     H48154  10.227   5.401   4.975 -1.7477 -0.5882  1.7652
  357MOL0     H48155  10.300   4.992   5.083  0.5737  0.9699  0.4751
  357MOL0     H48156  10.303   4.736   4.881  0.1535  1.5283  0.8633
  357MOL0     H48157  10.485   4.748   4.907 -1.0623 -2.9795  2.3734
  357MOL0     H48158  10.361   4.770   5.029  1.1028 -3.0200  0.0389
  357MOL0     H48159  10.544   4.914   4.364 -0.5057  1.0540  2.9862
  357MOL0     H48160  10.604   4.757   4.175 -2.4913 -0.7754 -0.8827
  357MOL0     H48161  10.579   4.608   3.990  0.9085 -0.5989 -0.3180
  357MOL0     H48162  10.685   4.545   4.105 -0.8259 -0.5130  1.3154
  357MOL0     H48163  10.499   4.381   3.917 -0.0792  2.5414  0.0538
  357MOL0     H48164  10.634   4.449   3.843 -2.8953  1.5483 -0.5194
  357MOL0     H48165  10.628   4.239   4.071  3.8546 -0.9237  2.5860
  357MOL0     H48166  10.769   4.339   4.034 -1.4879  1.3167  2.4592
  357MOL0     H48167  10.619   4.177   3.818  1.5206 -2.2396 -0.9251
  357MOL0     H48168  10.772   4.265   3.804 -0.4384 -0.1575 -0.8233
  357MOL0     H48169  10.860   4.118   3.998  0.0704  5.2800 -1.9846
  357MOL0     H48170  10.856   4.070   3.828  0.4311 -0.0688  0.1073
  357MOL0     H48171  10.623   3.988   4.000  0.2389  2.5077  0.1209
  357MOL0     H48172  10.689   3.905   3.859  1.7012 -2.2328  0.6823
  357MOL0     H48173  10.784   3.924   4.137  1.5212 -2.3215  2.3691
  357MOL0     H48174  10.915   3.905   4.024  0.8729  0.6067  5.4964
  357MOL0     H48175  10.677   3.716   4.062  0.2915  1.0677  1.6887
  357MOL0     H48176  10.850   3.672   4.090  2.6973  2.0849 -1.0048
  357MOL0     H48177  10.315   4.472   4.321  1.5136 -1.3956  1.3259
  357MOL0     H48178  10.262   4.602   4.511 -0.3333  0.8787  0.3411
  357MOL0     H48179  10.449   5.158   4.642 -2.7349  2.6990  1.1035
  357MOL0     H48180  10.379   5.312   4.803  0.9593  1.0078  1.5513
  357MOL0     H48181  10.990   6.176   5.154 -0.3362 -1.5372  0.1943
  357MOL0     H48182  11.077   6.188   4.908 -0.8022  0.0891 -0.0059
  357MOL0     H48183  10.801   6.050   4.384 -0.5171  0.3076 -1.3698
  357MOL0     H48184  10.854   6.080   4.161  0.3587 -0.0799 -0.0275
  357MOL0     H48185  11.211   6.294   4.053 -1.0150  0.8270 -3.2070
  357MOL0     H48186  11.151   6.140   4.107  1.2704  1.6439  1.7065
  357MOL0     H48187  11.079   6.111   3.883  0.8056 -2.4224  2.4572
  357MOL0     H48188  11.260   6.140   3.899  0.0492  2.2027  1.2866
  357MOL0     H48189  11.205   6.380   3.815 -0.5916 -0.3537 -1.3600
  357MOL0     H48190  11.045   6.342   3.805  0.7818  3.6108 -1.7543
  357MOL0     H48191  11.161   6.331   3.586  3.3047  1.0260 -0.2366
  357MOL0     H48192  11.104   6.165   3.634 -0.1906  0.2347  2.4423
  357MOL0     H48193  11.512   6.143   3.552 -0.2236  0.1158 -0.8365
  357MOL0     H48194  11.064   6.434   4.255 -0.5096  2.3229  2.6273
  357MOL0     H48195  11.019   6.409   4.493  3.9081 -1.5836  0.4100
  358MOL0     O48196   1.679   1.042   7.058  0.2717 -0.4595 -0.4994
  358MOL0     C48197   1.610   1.072   6.964  0.7202 -0.5900  0.3766
  358MOL0     O48198   1.591   1.196   6.929 -0.7674 -0.2588 -0.0157
  358MOL0     C48199   1.645   1.304   6.993  0.0335 -0.0224 -0.3625
  358MOL0     C48200   1.742   1.310   7.093 -0.5071 -0.2103  0.2752
  358MOL0     C48201   1.782   1.429   7.153  0.3715 -0.2150 -0.2530
  358MOL0     C48202   1.709   1.543   7.123  0.0603 -1.0617  0.8006
  358MOL0     O48203   1.727   1.659   7.193  0.4183 -0.2329 -0.2283
  358MOL0     C48204   1.768   1.758   7.097 -0.7136 -0.6051 -1.0948
  358MOL0     C48205   1.752   1.894   7.178  0.3118  0.5358  0.8210
  358MOL0     C48206   1.778   2.031   7.111  0.4792 -0.5191  0.2114
  358MOL0     C48207   1.643   2.106   7.080 -0.2838  1.4100 -0.2862
  358MOL0     C48208   1.657   2.248   7.030  0.0199 -0.5144 -0.6752
  358MOL0     C48209   1.751   2.277   6.914 -0.8503 -1.0282  0.1382
  358MOL0     C48210   1.831   2.408   6.935  0.1311 -0.5138  0.1935
  358MOL0     C48211   1.922   2.443   6.810 -1.2372  0.4638 -0.8202
  358MOL0     N48212   2.004   2.328   6.745  0.0581 -0.1094 -0.1136
  358MOL0     C48213   2.111   2.265   6.805 -0.8701  0.8231 -0.1702
  358MOL0     C48214   2.129   2.152   6.724 -0.2103  0.6173  0.2835
  358MOL0     C48215   2.214   2.030   6.746 -0.0570  0.6479  0.0245
  358MOL0     C48216   2.150   1.925   6.847  0.3594  0.1590  0.5804
  358MOL0     C48217   2.256   1.803   6.861 -0.3686 -0.5193  0.3898
  358MOL0     C48218   2.213   1.690   6.954 -0.4102  0.1814 -0.2602
  358MOL0     O48219   2.082   1.658   6.904 -0.8610 -0.4327 -0.1060
  358MOL0     C48220   2.050   1.530   6.869 -0.0115 -0.0056  0.8296
  358MOL0     C48221   1.933   1.512   6.802  0.2930  0.2736 -0.1917
  358MOL0     C48222   1.883   1.399   6.757  0.5342 -0.4158  0.2259
  358MOL0     C48223   1.745   1.415   6.688  0.4769  1.3720 -0.3538
  358MOL0     C48224   1.959   1.280   6.768 -0.3886  0.9444 -0.0656
  358MOL0     C48225   1.907   1.150   6.733 -0.1496 -0.6527 -0.3296
  358MOL0     O48226   2.001   1.066   6.678  0.2298 -0.3200 -0.3167
  358MOL0     C48227   1.973   0.933   6.653 -0.2363 -0.9938 -0.0564
  358MOL0     C48228   2.003   0.870   6.529 -0.5487  0.0483 -1.4049
  358MOL0     C48229   1.998   0.733   6.515  0.2303  0.3179 -1.4453
  358MOL0     C48230   1.935   0.653   6.614 -0.9975  0.2306  0.7050
  358MOL0     O48231   1.909   0.520   6.576  0.6759  0.1950 -0.8864
  358MOL0     C48232   1.796   0.449   6.636  1.2145  0.5140  0.9065
  358MOL0     C48233   1.800   0.312   6.565 -0.4091  1.3871  0.2107
  358MOL0     C48234   1.756   0.302   6.418  0.7080 -1.0196  1.1175
  358MOL0     C48235   1.609   0.320   6.390  0.2511 -0.1448  0.1556
  358MOL0     C48236   1.567   0.339   6.247  0.0790 -0.8277  0.4023
  358MOL0     C48237   1.441   0.419   6.232 -0.1725 -1.0904 -0.6610
  358MOL0     C48238   1.425   0.449   6.079  0.3869  0.4582 -0.3995
  358MOL0     C48239   1.306   0.541   6.050  0.2493 -0.1532  0.5785
  358MOL0    Cl48240   1.159   0.496   6.142 -0.0575  0.3329 -0.1964
  358MOL0     C48241   1.896   0.712   6.733  0.8149 -0.0694 -0.4523
  358MOL0     C48242   1.921   0.851   6.756  0.9626  0.4324  0.0849
  358MOL0     O48243   1.789   1.128   6.734 -0.3014  0.2039 -0.4213
  358MOL0     C48244   2.099   1.293   6.811  0.4824  0.8832  0.3876
  358MOL0     C48245   2.143   1.417   6.871 -0.1500 -0.5350 -0.2973
  358MOL0     N48246   2.029   2.154   6.630 -0.7059 -0.8337  0.4756
  358MOL0     N48247   1.955   2.258   6.637 -0.5421 -0.1190 -0.1311
  358MOL0     C48248   1.602   1.536   7.031  0.2335  0.1933 -0.3267
  358MOL0     C48249   1.572   1.417   6.969 -0.4109  0.6225  0.3983
  358MOL0     C48250   1.539   0.969   6.875 -0.5431 -0.8994 -0.1922
  358MOL0     C48251   1.484   1.005   6.752 -0.1187  0.5250 -0.0345
  358MOL0     C48252   1.413   0.911   6.678 -0.5821  0.3944  0.8870
  358MOL0     C48253   1.390   0.788   6.734  0.3365  1.6253 -0.6781
  358MOL0     O48254   1.318   0.685   6.684  0.5046  0.1578  0.1118
  358MOL0     C48255   1.269   0.690   6.550  1.0677 -0.7293 -0.0485
  358MOL0     C48256   1.223   0.566   6.494 -0.3655 -0.6341  1.1363
  358MOL0     C48257   1.092   0.515   6.565 -0.6142  1.3053  0.1897
  358MOL0     C48258   1.040   0.373   6.518 -0.0359  0.9432 -0.0813
  358MOL0     C48259   0.943   0.394   6.409  0.4106  0.9155 -0.1018
  358MOL0     C48260   0.854   0.412   6.325  0.6599 -0.0369 -1.0764
  358MOL0     C48261   1.459   0.760   6.850  0.4589  0.4529 -0.3963
  358MOL0     C48262   1.536   0.839   6.926  0.6195 -0.6274 -0.0309
  358MOL0     H48263   1.797   1.220   7.118 -1.7200 -0.9185  0.4684
  358MOL0     H48264   1.848   1.419   7.238 -0.6748 -2.1141  0.4169
  358MOL0     H48265   1.876   1.751   7.079  0.0631 -1.1900  2.8121
  358MOL0     H48266   1.704   1.777   7.010  0.6687  0.2337 -1.9677
  358MOL0     H48267   1.650   1.904   7.215  0.0619 -0.0280  0.3058
  358MOL0     H48268   1.815   1.891   7.267 -1.7692  1.0536  2.4032
  358MOL0     H48269   1.837   2.093   7.180  1.8671  0.7486 -1.9841
  358MOL0     H48270   1.826   2.027   7.013 -3.0196  1.6638 -1.7892
  358MOL0     H48271   1.590   2.048   7.004 -1.3959 -0.9878  2.1972
  358MOL0     H48272   1.582   2.105   7.171  1.2908  1.9292  0.8193
  358MOL0     H48273   1.555   2.286   7.013  0.3365  2.5410  2.9634
  358MOL0     H48274   1.684   2.305   7.119 -1.1838 -0.5727 -0.2492
  358MOL0     H48275   1.824   2.196   6.901  0.6853  0.1242  1.1382
  358MOL0     H48276   1.702   2.286   6.816 -2.3696  0.3092  0.9841
  358MOL0     H48277   1.763   2.493   6.944  0.4275 -0.0162 -1.8243
  358MOL0     H48278   1.894   2.397   7.024  1.1098 -0.1784 -0.4366
  358MOL0     H48279   1.990   2.516   6.854  1.6426 -3.7472  2.6137
  358MOL0     H48280   1.862   2.484   6.728  1.5867  1.4518 -2.5507
  358MOL0     H48281   2.175   2.289   6.889 -0.3721  3.0821 -1.1280
  358MOL0     H48282   2.212   1.987   6.646 -6.1589 -1.6813  0.7113
  358MOL0     H48283   2.313   2.062   6.782 -1.7145  1.2615  4.8463
  358MOL0     H48284   2.055   1.898   6.801 -0.6734  4.2477 -0.0788
  358MOL0     H48285   2.127   1.972   6.943 -0.1653 -0.0323  0.5513
  358MOL0     H48286   2.355   1.834   6.896 -0.3254 -1.3252  1.0271
  358MOL0     H48287   2.277   1.765   6.761  2.9359  0.0526  0.7586
  358MOL0     H48288   2.208   1.716   7.060  0.5879 -0.0817 -0.1344
  358MOL0     H48289   2.284   1.606   6.947  0.9186  1.4220 -3.2470
  358MOL0     H48290   1.876   1.604   6.803  1.3020  0.9083  1.0228
  358MOL0     H48291   1.752   1.370   6.589  0.1529 -1.1206  0.6824
  358MOL0     H48292   1.669   1.364   6.749 -1.1016  2.7298 -1.0904
  358MOL0     H48293   1.712   1.520   6.687  0.1231  1.3713  2.4564
  358MOL0     H48294   2.045   0.925   6.445  2.9373 -0.6634 -0.2812
  358MOL0     H48295   2.039   0.707   6.418 -2.4560  2.8137 -3.4449
  358MOL0     H48296   1.800   0.429   6.744 -2.9010  2.4206  1.6180
  358MOL0     H48297   1.703   0.498   6.605  1.0398 -0.9775 -1.1138
  358MOL0     H48298   1.905   0.282   6.575 -1.1271 -1.1246  0.8544
  358MOL0     H48299   1.745   0.230   6.612  0.1903  0.6074 -0.4254
  358MOL0     H48300   1.770   0.200   6.382 -1.7829 -0.5074 -1.7079
  358MOL0     H48301   1.815   0.374   6.360 -2.5185  0.6996 -0.2599
  358MOL0     H48302   1.548   0.241   6.434 -2.3095  2.1431  1.0416
  358MOL0     H48303   1.577   0.409   6.446  1.1536  3.0537 -3.9411
  358MOL0     H48304   1.564   0.244   6.191  1.8542  0.6253 -2.4226
  358MOL0     H48305   1.646   0.399   6.200 -0.6200  0.3538  0.6994
  358MOL0     H48306   1.352   0.360   6.257 -1.9418  1.4788 -0.4156
  358MOL0     H48307   1.447   0.518   6.279  0.1048 -0.9271 -1.0320
  358MOL0     H48308   1.405   0.359   6.019 -1.8472 -0.1859  1.2080
  358MOL0     H48309   1.515   0.488   6.030  1.7163  0.4325  1.8668
  358MOL0     H48310   1.282   0.546   5.944 -1.9696 -3.1611  0.8077
  358MOL0     H48311   1.337   0.642   6.079 -2.5198  0.5223  1.5005
  358MOL0     H48312   1.844   0.660   6.812  4.1872 -2.7554  0.2388
  358MOL0     H48313   1.894   0.886   6.855  1.1726 -0.5142  0.4902
  358MOL0     H48314   2.155   1.200   6.818  0.4429  0.8990  0.9652
  358MOL0     H48315   2.249   1.422   6.896 -0.1440 -0.8367 -0.2593
  358MOL0     H48316   1.526   1.612   7.016  2.5739  2.6767 -0.4055
  358MOL0     H48317   1.484   1.411   6.905  1.7271 -0.1051 -2.7592
  358MOL0     H48318   1.493   1.107   6.718  1.7218  1.1206  1.9711
  358MOL0     H48319   1.364   0.946   6.588  0.5442  4.0427  1.4791
  358MOL0     H48320   1.180   0.752   6.535 -1.7536 -4.3567  0.4562
  358MOL0     H48321   1.350   0.727   6.486 -1.4684  1.3270 -2.3770
  358MOL0     H48322   1.303   0.496   6.515 -2.4999 -3.7567 -0.3272
  358MOL0     H48323   1.199   0.580   6.388  3.4050 -2.3869 -0.0829
  358MOL0     H48324   1.010   0.583   6.540 -0.7381  1.4042  0.8320
  358MOL0     H48325   1.109   0.521   6.673 -1.6961  2.3228  0.3178
  358MOL0     H48326   0.994   0.305   6.590 -1.0636 -2.0976 -3.3193
  358MOL0     H48327   1.126   0.319   6.477 -0.7663 -2.6186  2.5558
  358MOL0     H48328   0.776   0.430   6.254 -2.1926 -1.0615  1.5802
  358MOL0     H48329   1.438   0.657   6.879  1.4735  0.4685  0.4066
  358MOL0     H48330   1.579   0.809   7.021 -0.9619 -2.0982  0.2872
  359MOL0     O48331   9.564   4.372   9.031 -0.2058  0.1421 -0.4738
  359MOL0     C48332   9.497   4.282   9.076  0.2016 -0.1505  1.2207
  359MOL0     O48333   9.540   4.175   9.153 -0.1691 -0.8442  0.1450
  359MOL0     C48334   9.672   4.154   9.152  0.8881  0.7562  0.2739
  359MOL0     C48335   9.724   4.047   9.077 -0.8079 -0.2710 -0.9599
  359MOL0     C48336   9.857   4.037   9.066  0.0988  0.2787  0.0347
  359MOL0     C48337   9.944   4.134   9.118 -0.9363 -0.1399 -0.7029
  359MOL0     O48338  10.078   4.109   9.105 -0.1127 -0.5724  0.1663
  359MOL0     C48339  10.168   4.157   9.201 -0.9250 -0.1648 -0.0485
  359MOL0     C48340  10.300   4.076   9.183  0.0903  0.6852  0.1733
  359MOL0     C48341  10.383   4.101   9.047 -0.1652  0.1109 -1.2150
  359MOL0     C48342  10.528   4.050   9.055  0.9011  0.3811  0.9269
  359MOL0     C48343  10.627   4.114   8.962 -0.7806  0.7074 -0.1998
  359MOL0     C48344  10.752   4.025   8.938  0.1139 -0.0349 -0.3980
  359MOL0     C48345  10.733   3.870   8.911 -1.1177  0.3755  0.2246
  359MOL0     C48346  10.862   3.812   8.852  0.5810  0.7033 -0.0397
  359MOL0     N48347  10.895   3.854   8.715 -0.4095  0.2584  0.6838
  359MOL0     C48348  10.960   3.972   8.685 -0.9289 -1.1208 -0.6161
  359MOL0     C48349  10.959   3.973   8.548 -0.3026 -0.0064 -0.3409
  359MOL0     C48350  11.035   4.083   8.477 -0.0472 -0.8716  0.1793
  359MOL0     C48351  10.954   4.202   8.431 -0.5256 -0.3314  0.3244
  359MOL0     C48352  10.833   4.244   8.505  0.0799 -0.4862 -0.5366
  359MOL0     C48353  10.867   4.341   8.626 -0.1512 -0.1576  0.1634
  359MOL0     O48354  10.926   4.279   8.744 -0.0592 -0.2947  0.3016
  359MOL0     C48355  10.976   4.373   8.835  1.7483  0.8062 -0.3840
  359MOL0     C48356  11.073   4.471   8.806 -0.3556  0.2883  0.1045
  359MOL0     C48357  11.114   4.559   8.902 -0.2781 -0.4035 -0.6191
  359MOL0     C48358  11.218   4.659   8.867 -0.5442 -0.8821  0.0776
  359MOL0     C48359  11.061   4.549   9.036  0.1560  0.3873 -0.5043
  359MOL0     C48360  11.114   4.636   9.134 -0.0493 -0.8816 -0.0809
  359MOL0     O48361  11.100   4.768   9.119 -1.4965 -0.1949  0.2685
  359MOL0     C48362  11.169   4.855   9.200 -0.0909 -0.0960  0.1076
  359MOL0     C48363  11.308   4.846   9.210 -0.1814  0.2490  0.1128
  359MOL0     C48364  11.368   4.933   9.302 -1.3270 -0.2038  1.1681
  359MOL0     C48365  11.304   5.038   9.374  0.6030  0.2664 -0.6955
  359MOL0     O48366  11.349   5.128   9.466 -0.5182 -0.1789  0.4940
  359MOL0     C48367  11.459   5.086   9.543 -0.4217 -0.5708 -0.9276
  359MOL0     C48368  11.512   5.211   9.628  0.5213  0.0752 -0.3248
  359MOL0     C48369  11.609   5.164   9.736  0.1645  0.3164  0.2403
  359MOL0     C48370  11.682   5.279   9.799 -0.8150  0.2344  0.0162
  359MOL0     C48371  11.594   5.352   9.895  0.1604  0.4183 -0.9204
  359MOL0     C48372  11.663   5.482   9.954 -0.1246 -0.6125 -1.1922
  359MOL0     C48373  11.665   5.484  10.100  0.9133  0.3630  0.5072
  359MOL0     C48374  11.718   5.622  10.155 -0.0142 -0.1577  0.8696
  359MOL0    Cl48375  11.583   5.735  10.156 -0.1160 -0.0285  0.9558
  359MOL0     C48376  11.172   5.044   9.351  0.0113  0.0650  0.8832
  359MOL0     C48377  11.104   4.957   9.271  0.0277  1.0983  0.6967
  359MOL0     O48378  11.189   4.584   9.219  0.1633 -0.9677 -0.4825
  359MOL0     C48379  10.955   4.460   9.067  0.9333  0.1951  0.7932
  359MOL0     C48380  10.918   4.372   8.964  0.1532 -0.0411 -0.1532
  359MOL0     N48381  10.903   3.853   8.505  0.7942 -0.3776  0.1533
  359MOL0     N48382  10.857   3.788   8.602 -0.5215  0.0743 -0.2976
  359MOL0     C48383   9.895   4.243   9.192 -0.1960  0.2992  0.6745
  359MOL0     C48384   9.759   4.249   9.213  0.1967  0.3372 -0.3623
  359MOL0     C48385   9.349   4.281   9.037  0.0814 -0.1411 -0.3814
  359MOL0     C48386   9.297   4.372   8.934 -0.0726 -0.9420 -0.7296
  359MOL0     C48387   9.159   4.372   8.913  0.6563  0.4024  0.4980
  359MOL0     C48388   9.077   4.279   8.971  0.4568 -0.7227  0.0413
  359MOL0     O48389   8.942   4.296   8.941 -0.0466  0.2096 -0.2394
  359MOL0     C48390   8.852   4.204   8.999  0.1882  0.2989 -1.0494
  359MOL0     C48391   8.714   4.245   8.963  0.2226  0.0520 -0.3025
  359MOL0     C48392   8.663   4.200   8.832 -0.1775 -0.0915  0.1680
  359MOL0     C48393   8.740   4.258   8.705 -0.8638  0.5375 -0.4968
  359MOL0     C48394   8.732   4.402   8.690  0.4521 -0.4577  0.0361
  359MOL0     C48395   8.720   4.526   8.693 -0.0108 -0.4857  0.0233
  359MOL0     C48396   9.128   4.187   9.062  0.1130 -0.7838  0.3052
  359MOL0     C48397   9.259   4.187   9.099 -0.1727  0.2036  0.8047
  359MOL0     H48398   9.660   3.977   9.023 -5.8990 -0.0516  3.9003
  359MOL0     H48399   9.887   3.953   9.004  3.6663 -0.7331  2.7991
  359MOL0     H48400  10.178   4.265   9.197 -0.5475 -0.0577  2.5198
  359MOL0     H48401  10.135   4.146   9.304  2.1766  1.4305  1.2351
  359MOL0     H48402  10.363   4.110   9.266  0.5724  1.0643 -0.3329
  359MOL0     H48403  10.286   3.968   9.192  3.5101  0.0572 -0.4368
  359MOL0     H48404  10.333   4.048   8.966 -0.0864 -1.6595 -0.1626
  359MOL0     H48405  10.384   4.210   9.034  0.8686  0.1573 -0.8350
  359MOL0     H48406  10.556   4.059   9.160  0.7323  3.7666  0.7842
  359MOL0     H48407  10.520   3.944   9.029  0.5712 -0.3304  3.6781
  359MOL0     H48408  10.569   4.122   8.869 -2.1945  4.4980  0.7988
  359MOL0     H48409  10.660   4.216   8.985 -0.3751  0.6568 -0.5385
  359MOL0     H48410  10.785   4.068   8.843  1.2096 -0.1681 -0.0903
  359MOL0     H48411  10.828   4.032   9.016 -1.2405 -2.6579  1.2974
  359MOL0     H48412  10.699   3.814   8.998  2.5730  0.2591  1.7792
  359MOL0     H48413  10.664   3.857   8.827  0.1557 -1.3018 -0.6196
  359MOL0     H48414  10.865   3.703   8.855  0.1853  0.6902  0.0176
  359MOL0     H48415  10.938   3.849   8.921  0.6907  1.8661 -0.7454
  359MOL0     H48416  10.993   4.041   8.761 -2.4702 -0.0450 -0.8902
  359MOL0     H48417  11.102   4.123   8.554 -0.6597 -2.1214  1.4121
  359MOL0     H48418  11.096   4.033   8.401  1.1932 -0.3998  0.8367
  359MOL0     H48419  10.918   4.172   8.333  1.3073  2.8883 -1.4769
  359MOL0     H48420  11.021   4.283   8.403 -1.9323  0.5833 -0.4948
  359MOL0     H48421  10.766   4.173   8.555  0.5385  0.2700  1.2419
  359MOL0     H48422  10.775   4.300   8.431 -1.6635  1.5749  2.1736
  359MOL0     H48423  10.770   4.384   8.653  0.1608  0.0340  1.0250
  359MOL0     H48424  10.929   4.417   8.576  0.7504 -1.3711 -0.6110
  359MOL0     H48425  11.111   4.477   8.704 -0.8930 -0.6578 -0.1715
  359MOL0     H48426  11.264   4.647   8.768  1.8095 -0.9599  1.1082
  359MOL0     H48427  11.176   4.760   8.880 -0.5420 -1.1340  2.4494
  359MOL0     H48428  11.293   4.641   8.944 -2.2099 -1.1731  1.6894
  359MOL0     H48429  11.372   4.774   9.160  1.2170  0.0376  2.0849
  359MOL0     H48430  11.476   4.924   9.306 -1.3724 -1.9411 -0.4276
  359MOL0     H48431  11.435   5.003   9.611  1.6163  1.1620  2.1568
  359MOL0     H48432  11.546   5.063   9.481  0.6565 -0.6364  0.5539
  359MOL0     H48433  11.556   5.281   9.556 -0.7093  1.4173  0.1885
  359MOL0     H48434  11.425   5.253   9.678  1.1898  1.1582 -0.0355
  359MOL0     H48435  11.685   5.097   9.694  2.7204  1.6486  2.4295
  359MOL0     H48436  11.558   5.110   9.816 -0.9005 -0.5827 -1.0171
  359MOL0     H48437  11.764   5.239   9.860 -0.3602  1.2112  0.0484
  359MOL0     H48438  11.740   5.340   9.730  3.2102 -0.4232  2.4647
  359MOL0     H48439  11.597   5.278   9.974  1.3221  0.4621 -0.8966
  359MOL0     H48440  11.494   5.367   9.854  0.4777  0.7536 -1.5950
  359MOL0     H48441  11.761   5.507   9.912  1.1892 -2.0603  0.8552
  359MOL0     H48442  11.589   5.556   9.921 -0.9921  0.4470  2.5921
  359MOL0     H48443  11.725   5.399  10.135  1.0013  0.7850  1.4139
  359MOL0     H48444  11.558   5.479  10.121  0.5065 -0.4819 -1.5741
  359MOL0     H48445  11.799   5.654  10.089  0.6372 -1.7031  0.8690
  359MOL0     H48446  11.770   5.623  10.251  2.4433 -3.5148 -0.2348
  359MOL0     H48447  11.115   5.118   9.406 -2.1020 -1.2954  0.6325
  359MOL0     H48448  10.998   4.968   9.253  0.4897  4.5492 -0.9046
  359MOL0     H48449  10.904   4.450   9.162 -0.1298 -0.3403  0.1930
  359MOL0     H48450  10.842   4.299   8.990  1.3520 -0.4001  2.7807
  359MOL0     H48451   9.963   4.319   9.228  0.5218 -0.3822  0.7933
  359MOL0     H48452   9.710   4.323   9.276 -1.8813 -3.0076  2.3018
  359MOL0     H48453   9.352   4.457   8.895 -2.0477  0.3494 -0.8669
  359MOL0     H48454   9.120   4.444   8.841  1.1259  2.4092  2.1509
  359MOL0     H48455   8.875   4.104   8.960 -2.6173 -1.4002  1.2846
  359MOL0     H48456   8.850   4.212   9.108  1.0012 -0.6835 -0.9516
  359MOL0     H48457   8.711   4.355   8.961 -0.9311  0.0634 -3.0853
  359MOL0     H48458   8.637   4.201   9.027  0.7742 -1.3861 -0.5948
  359MOL0     H48459   8.554   4.205   8.828 -0.2267  1.0040  1.6646
  359MOL0     H48460   8.690   4.094   8.829  1.4312  0.2862 -3.3066
  359MOL0     H48461   8.690   4.208   8.622 -1.3342  0.3470 -0.1060
  359MOL0     H48462   8.841   4.215   8.709 -1.4057 -1.1133 -2.6188
  359MOL0     H48463   8.709   4.632   8.691  2.1177 -0.1397  1.8818
  359MOL0     H48464   9.072   4.099   9.092 -1.4555 -0.3404 -1.1746
  359MOL0     H48465   9.299   4.115   9.170 -1.5979  0.2868  1.7254
  360MOL0     O48466  11.007   9.797   6.309 -0.0309 -0.7203 -0.9114
  360MOL0     C48467  10.957   9.905   6.271  0.4716  0.7967  0.5271
  360MOL0     O48468  10.926  10.008   6.350  0.9386  0.8805  0.2685
  360MOL0     C48469  10.950   9.986   6.482  0.7365  0.0827 -0.3560
  360MOL0     C48470  11.058  10.047   6.544 -0.0531 -0.3089  0.4578
  360MOL0     C48471  11.082  10.025   6.683 -1.0441 -0.1376  0.7186
  360MOL0     C48472  10.994   9.958   6.760 -0.4391  0.3883 -0.6377
  360MOL0     O48473  11.014   9.954   6.897 -1.2277  0.4560  0.4415
  360MOL0     C48474  10.909   9.920   6.986 -0.1805 -0.3656 -0.6325
  360MOL0     C48475  10.964   9.923   7.124 -0.8103  0.5498 -0.0758
  360MOL0     C48476  11.070   9.814   7.140 -0.9569  0.7464 -0.1530
  360MOL0     C48477  11.093   9.756   7.276  0.1807 -0.0306 -0.4965
  360MOL0     C48478  10.993   9.646   7.311  1.0197  0.1907  1.4086
  360MOL0     C48479  11.000   9.605   7.456 -0.3369 -0.4048 -0.9260
  360MOL0     C48480  11.122   9.516   7.488  0.7211  0.3451  0.6440
  360MOL0     C48481  11.128   9.481   7.638 -0.7653 -0.4715 -0.2311
  360MOL0     N48482  11.081   9.343   7.660  0.3608  0.1622  0.0177
  360MOL0     C48483  10.952   9.308   7.661  0.0499  0.5102 -0.4980
  360MOL0     C48484  10.963   9.168   7.672 -0.0232 -0.1245 -0.0020
  360MOL0     C48485  10.836   9.081   7.674 -0.0404  0.0666  0.1365
  360MOL0     C48486  10.780   9.068   7.529 -0.1421 -0.3458  0.4741
  360MOL0     C48487  10.858   8.978   7.439  1.5223 -0.3038 -0.4248
  360MOL0     C48488  10.835   9.011   7.289 -0.5887  0.3200  0.3579
  360MOL0     O48489  10.880   9.137   7.244  0.1594  0.2406  1.0805
  360MOL0     C48490  10.801   9.245   7.204 -1.1210  0.1983  1.2206
  360MOL0     C48491  10.663   9.254   7.234 -0.0053 -0.4680  0.0143
  360MOL0     C48492  10.578   9.368   7.192  0.2310 -0.6349 -0.3389
  360MOL0     C48493  10.435   9.368   7.231  0.0850  0.0990  0.3504
  360MOL0     C48494  10.632   9.458   7.101 -0.6530 -0.3751  0.2901
  360MOL0     C48495  10.559   9.573   7.030  0.2541 -0.5468 -0.4123
  360MOL0     O48496  10.633   9.658   6.949  0.2711 -0.4464  0.3207
  360MOL0     C48497  10.574   9.772   6.903 -0.9626 -0.2560  0.1988
  360MOL0     C48498  10.536   9.779   6.768 -0.2833  0.4998 -0.5265
  360MOL0     C48499  10.477   9.903   6.727 -0.0397 -0.6204  0.0797
  360MOL0     C48500  10.474  10.016   6.813  0.3432 -0.5142 -0.3155
  360MOL0     O48501  10.445  10.142   6.772  0.0317  0.1626 -0.4559
  360MOL0     C48502  10.555  10.212   6.708 -0.2022  0.6601  0.2845
  360MOL0     C48503  10.535  10.192   6.553 -0.8379  0.1132 -0.3244
  360MOL0     C48504  10.643  10.259   6.469  0.2339 -0.2673 -0.1643
  360MOL0     C48505  10.617  10.242   6.317  0.1219 -0.3575 -0.7043
  360MOL0     C48506  10.500  10.317   6.254  0.1360 -0.6856  1.1236
  360MOL0     C48507  10.493  10.265   6.105  0.1164  0.3749  0.4412
  360MOL0     C48508  10.368  10.304   6.021  0.9201 -0.3103  0.4548
  360MOL0     C48509  10.373  10.248   5.878  0.4872 -1.4737 -0.1903
  360MOL0    Cl48510  10.272  10.345   5.758 -0.0360 -0.1931  0.0910
  360MOL0     C48511  10.522  10.008   6.940  0.2899  0.2573 -0.4269
  360MOL0     C48512  10.574   9.885   6.989 -0.6855  0.5588 -0.4856
  360MOL0     O48513  10.447   9.587   7.065 -0.4247 -0.0655  0.3929
  360MOL0     C48514  10.766   9.440   7.056 -0.0294 -0.3268  0.2397
  360MOL0     C48515  10.848   9.344   7.120 -0.0009  0.6548  1.1444
  360MOL0     N48516  11.091   9.128   7.687 -0.2439  0.7794  0.5090
  360MOL0     N48517  11.166   9.234   7.682  0.4405  0.8337 -0.5192
  360MOL0     C48518  10.884   9.892   6.696 -0.5946  0.1552  0.7775
  360MOL0     C48519  10.859   9.907   6.562 -0.3450  0.2049  0.0781
  360MOL0     C48520  10.947   9.935   6.128 -0.3953 -1.0639 -0.5728
  360MOL0     C48521  10.929  10.064   6.068  1.0123 -0.4016 -0.1474
  360MOL0     C48522  10.928  10.073   5.927  0.3423  0.5967  0.5966
  360MOL0     C48523  10.957   9.961   5.846  0.0126 -0.1797 -0.5391
  360MOL0     O48524  10.981   9.994   5.708 -0.1716 -0.8489 -0.2840
  360MOL0     C48525  11.052   9.907   5.620  0.4220 -0.1228 -0.7111
  360MOL0     C48526  11.023   9.943   5.472  0.3218 -0.2493  1.0810
  360MOL0     C48527  10.872   9.974   5.449 -0.5507  0.3144  0.0157
  360MOL0     C48528  10.832   9.964   5.298 -0.8771  0.5193  0.1926
  360MOL0     C48529  10.888  10.058   5.205 -0.3322 -0.1906  0.7690
  360MOL0     C48530  10.938  10.128   5.120  0.1212 -0.6989 -0.1419
  360MOL0     C48531  10.969   9.838   5.904 -0.1932  0.5463  0.3876
  360MOL0     C48532  10.973   9.833   6.040 -0.5109 -0.6286 -0.9154
  360MOL0     H48533  11.124  10.102   6.478 -2.5730  1.5863 -0.6586
  360MOL0     H48534  11.165  10.073   6.734 -1.6691  0.1888  1.4544
  360MOL0     H48535  10.821   9.986   6.986 -1.1513 -1.6057 -1.3180
  360MOL0     H48536  10.864   9.825   6.955 -0.8395  0.5256 -2.5798
  360MOL0     H48537  11.012  10.019   7.145  1.1852 -0.0945 -1.3746
  360MOL0     H48538  10.885   9.926   7.200  1.9807  3.0728  3.0542
  360MOL0     H48539  11.055   9.725   7.080  5.6099  0.0705 -1.5911
  360MOL0     H48540  11.164   9.856   7.103 -1.1830  0.1320 -1.4783
  360MOL0     H48541  11.193   9.712   7.284  1.2442  2.3486  0.1820
  360MOL0     H48542  11.101   9.832   7.353 -0.1089 -1.0012  0.5242
  360MOL0     H48543  10.893   9.684   7.287  0.9421  0.3522  1.9558
  360MOL0     H48544  11.017   9.556   7.253 -1.0654 -1.1749  2.4917
  360MOL0     H48545  11.012   9.698   7.511 -1.5131 -1.7824  1.8190
  360MOL0     H48546  10.907   9.553   7.480  0.8627 -2.6563 -0.9056
  360MOL0     H48547  11.117   9.429   7.422  1.6992  2.1471 -1.9818
  360MOL0     H48548  11.219   9.564   7.471  2.1309 -2.0891  1.4000
  360MOL0     H48549  11.059   9.540   7.700 -0.3535 -0.5479  0.2983
  360MOL0     H48550  11.229   9.494   7.676 -1.3004  3.6748  0.2614
  360MOL0     H48551  10.858   9.360   7.648 -0.9517 -1.3301 -1.0361
  360MOL0     H48552  10.869   8.982   7.706 -1.4915  0.1720  2.1460
  360MOL0     H48553  10.772   9.122   7.752 -1.2162 -0.4096 -0.5617
  360MOL0     H48554  10.777   9.170   7.490 -1.2246  0.1798  1.8452
  360MOL0     H48555  10.678   9.029   7.537 -2.1244  4.1582 -0.1159
  360MOL0     H48556  10.821   8.875   7.443  0.8824 -0.2529 -3.0818
  360MOL0     H48557  10.964   8.999   7.457  1.1837  0.9316  0.2125
  360MOL0     H48558  10.729   9.010   7.260 -0.2462 -1.3393 -0.9818
  360MOL0     H48559  10.871   8.935   7.219 -1.0260 -0.0372  0.5155
  360MOL0     H48560  10.600   9.177   7.275  0.0193 -1.6611 -2.0444
  360MOL0     H48561  10.409   9.277   7.287  1.6529 -1.2672 -1.0127
  360MOL0     H48562  10.426   9.454   7.298 -0.9060  1.0645 -0.9773
  360MOL0     H48563  10.360   9.377   7.152  1.6691  0.8886 -1.1203
  360MOL0     H48564  10.527   9.691   6.705 -0.7543  1.2564 -1.5468
  360MOL0     H48565  10.449   9.919   6.623  0.1999  0.0487  0.1129
  360MOL0     H48566  10.549  10.318   6.732 -2.5496  1.0726 -1.7911
  360MOL0     H48567  10.653  10.172   6.738  0.0030  2.1468  1.7354
  360MOL0     H48568  10.541  10.084   6.537 -1.1326 -0.0654  0.6656
  360MOL0     H48569  10.433  10.218   6.524 -1.5485  0.1922  2.0126
  360MOL0     H48570  10.745  10.226   6.489  0.5679  0.6789 -0.2394
  360MOL0     H48571  10.648  10.366   6.491 -1.0104 -0.3748  0.7478
  360MOL0     H48572  10.707  10.274   6.264  1.9006 -3.2639  0.3432
  360MOL0     H48573  10.599  10.135   6.306  0.0087 -0.5779  1.1946
  360MOL0     H48574  10.526  10.423   6.247  1.5462 -1.0872  0.0224
  360MOL0     H48575  10.400  10.309   6.299  0.0208 -2.4023  0.5960
  360MOL0     H48576  10.571  10.322   6.055  1.0456 -0.0452  1.3793
  360MOL0     H48577  10.504  10.158   6.124 -0.9946  0.2740  0.5579
  360MOL0     H48578  10.363  10.413   6.016  0.1056 -0.3608  0.1610
  360MOL0     H48579  10.276  10.260   6.060 -0.4902 -0.3298 -2.6301
  360MOL0     H48580  10.340  10.144   5.873  0.4782 -1.4913  0.1971
  360MOL0     H48581  10.474  10.255   5.838  0.4924 -3.2958 -0.5933
  360MOL0     H48582  10.537  10.094   7.004  1.2235  0.5990 -1.0841
  360MOL0     H48583  10.603   9.899   7.092  0.0006  0.0237 -0.5992
  360MOL0     H48584  10.809   9.514   6.990  0.8685  0.9659  2.1724
  360MOL0     H48585  10.948   9.343   7.080 -1.2702 -2.4039 -2.5810
  360MOL0     H48586  10.812   9.830   6.748 -1.4720  2.9129  3.1132
  360MOL0     H48587  10.761   9.874   6.528 -0.4064  1.3559 -0.9300
  360MOL0     H48588  10.918  10.153   6.130  0.0034 -0.0763 -0.7733
  360MOL0     H48589  10.920  10.166   5.871  0.4410  0.0303 -0.3950
  360MOL0     H48590  11.156   9.910   5.652  0.2663 -2.1091  0.0965
  360MOL0     H48591  11.013   9.806   5.633  0.7602 -0.0816  0.8876
  360MOL0     H48592  11.063   9.879   5.393 -1.4150 -1.0013  0.7673
  360MOL0     H48593  11.080  10.033   5.449  2.3312 -1.5034  0.8907
  360MOL0     H48594  10.841  10.074   5.483 -0.2126  0.1312  0.8872
  360MOL0     H48595  10.814   9.906   5.511  2.4167 -2.0736  0.4112
  360MOL0     H48596  10.724   9.979   5.302 -0.9152  0.0421  1.6312
  360MOL0     H48597  10.842   9.866   5.250 -6.3632  0.3795 -1.2908
  360MOL0     H48598  11.006  10.198   5.077  1.4614 -0.7138  1.8205
  360MOL0     H48599  10.984   9.757   5.833  0.7769  2.2380 -1.4373
  360MOL0     H48600  11.020   9.744   6.079 -0.5652  0.4693  1.8796
  361MOL0     O48601   5.082   7.133   4.687  1.0471 -0.8304 -0.4758
  361MOL0     C48602   5.194   7.163   4.646  0.7315 -1.2552 -0.3812
  361MOL0     O48603   5.304   7.165   4.728 -0.2533 -0.7837  0.2695
  361MOL0     C48604   5.293   7.107   4.852  0.4065  0.9138  0.4409
  361MOL0     C48605   5.325   7.184   4.974  1.2147 -0.3625 -0.8504
  361MOL0     C48606   5.330   7.116   5.095  0.7636  1.0950  0.0456
  361MOL0     C48607   5.306   6.979   5.102 -0.6089  0.4045 -0.4672
  361MOL0     O48608   5.317   6.903   5.219  0.5593  0.3233  0.5636
  361MOL0     C48609   5.452   6.905   5.277 -0.1698 -0.8798 -0.1205
  361MOL0     C48610   5.504   6.781   5.342  0.2228  0.4618  0.8029
  361MOL0     C48611   5.480   6.650   5.260 -0.2090  0.0033 -0.2801
  361MOL0     C48612   5.495   6.520   5.348  0.6839 -0.1863  0.6763
  361MOL0     C48613   5.526   6.378   5.274 -0.2191 -0.3404  0.4633
  361MOL0     C48614   5.671   6.380   5.222  0.1483  0.8868  0.0669
  361MOL0     C48615   5.713   6.278   5.109  0.6384 -0.4120 -0.4953
  361MOL0     C48616   5.603   6.260   4.999 -0.8938 -0.1399  0.2516
  361MOL0     N48617   5.552   6.374   4.925 -0.8139  0.9848  0.2718
  361MOL0     C48618   5.602   6.497   4.917 -0.1195  0.4067 -0.1499
  361MOL0     C48619   5.521   6.570   4.842  0.1347  0.1447 -0.2417
  361MOL0     C48620   5.556   6.708   4.789  0.0152  0.2038  0.1169
  361MOL0     C48621   5.491   6.741   4.647  0.1160  0.6906  1.1504
  361MOL0     C48622   5.526   6.887   4.620 -0.1926 -0.9104  0.0765
  361MOL0     C48623   5.473   6.932   4.479 -0.1695 -0.1773  0.1477
  361MOL0     O48624   5.534   6.837   4.390 -0.0470 -0.7736  0.2404
  361MOL0     C48625   5.526   6.854   4.254  0.2770 -0.3338  0.3400
  361MOL0     C48626   5.460   6.962   4.193  0.3403  0.4422 -0.2752
  361MOL0     C48627   5.464   6.970   4.050  0.6027 -0.4335  0.5231
  361MOL0     C48628   5.369   7.072   3.986 -0.1042  0.4545 -0.3063
  361MOL0     C48629   5.533   6.875   3.979 -0.7330 -0.7911 -0.4998
  361MOL0     C48630   5.543   6.876   3.833  0.8108 -0.5787 -0.6812
  361MOL0     O48631   5.596   6.763   3.775  1.1178  0.2107  0.7281
  361MOL0     C48632   5.581   6.730   3.639  0.0544 -0.1447 -0.0743
  361MOL0     C48633   5.682   6.650   3.579 -0.0804  1.3995  0.2253
  361MOL0     C48634   5.681   6.605   3.452  0.0317  0.3136  0.0585
  361MOL0     C48635   5.573   6.646   3.372 -0.5225  1.5008 -0.5418
  361MOL0     O48636   5.567   6.608   3.237 -0.0999  0.2090  0.4214
  361MOL0     C48637   5.685   6.630   3.157 -0.3243  0.0149 -0.5538
  361MOL0     C48638   5.640   6.693   3.017  0.4164 -0.8495 -0.0554
  361MOL0     C48639   5.768   6.726   2.935 -0.2170  0.4749  0.6733
  361MOL0     C48640   5.726   6.763   2.792  0.1559  0.6674  0.1974
  361MOL0     C48641   5.831   6.763   2.683  0.1026  0.5838 -1.6058
  361MOL0     C48642   5.762   6.740   2.551 -0.1710 -0.1574  0.2324
  361MOL0     C48643   5.774   6.591   2.515 -0.0072  1.3310  0.3571
  361MOL0     C48644   5.725   6.551   2.373 -0.3847  0.5501 -0.7792
  361MOL0    Cl48645   5.546   6.529   2.374  0.3665  0.3235 -0.1659
  361MOL0     C48646   5.461   6.706   3.432  0.2205 -1.2075  0.2632
  361MOL0     C48647   5.467   6.750   3.566 -0.3226 -0.3296 -0.1373
  361MOL0     O48648   5.516   6.975   3.772 -0.2153  0.3579  0.7862
  361MOL0     C48649   5.608   6.778   4.045  0.2756  0.5873  0.4912
  361MOL0     C48650   5.595   6.770   4.179  1.0824 -0.3388  0.2044
  361MOL0     N48651   5.411   6.487   4.808 -0.1759  0.3990  1.4416
  361MOL0     N48652   5.438   6.374   4.853  0.0957  0.1579  0.7562
  361MOL0     C48653   5.266   6.911   4.988 -0.0315 -0.0118  1.0017
  361MOL0     C48654   5.253   6.970   4.864 -0.4126  0.2102  0.8880
  361MOL0     C48655   5.199   7.214   4.513 -0.9330  0.2359  0.7972
  361MOL0     C48656   5.093   7.204   4.425  1.0140 -0.5399  0.7183
  361MOL0     C48657   5.095   7.263   4.297 -0.3255  0.4739  0.2317
  361MOL0     C48658   5.203   7.343   4.254 -0.7669  0.8982  0.5672
  361MOL0     O48659   5.197   7.395   4.131  0.2888 -0.2639  0.6673
  361MOL0     C48660   5.307   7.461   4.068 -0.8252 -1.3200 -0.4079
  361MOL0     C48661   5.248   7.524   3.940 -0.6234  0.0574 -0.6204
  361MOL0     C48662   5.143   7.624   3.987  0.3743 -0.3042 -0.4388
  361MOL0     C48663   5.034   7.630   3.876 -0.0644  0.2789  0.0244
  361MOL0     C48664   5.083   7.649   3.742 -0.2682 -0.3666  0.4330
  361MOL0     C48665   5.103   7.698   3.632 -0.9883  0.8152 -0.9479
  361MOL0     C48666   5.314   7.357   4.343  0.3222  0.5356 -0.4639
  361MOL0     C48667   5.318   7.274   4.461  0.3692  0.4872 -0.7493
  361MOL0     H48668   5.363   7.285   4.967 -0.5137  0.4141  0.4132
  361MOL0     H48669   5.332   7.160   5.195 -1.7039  0.0257  0.6372
  361MOL0     H48670   5.526   6.930   5.201 -2.2471 -0.2767 -2.0514
  361MOL0     H48671   5.457   6.988   5.349 -0.2022 -0.8956 -0.0998
  361MOL0     H48672   5.607   6.791   5.376 -0.1649 -0.2989  2.2739
  361MOL0     H48673   5.445   6.762   5.432  0.4915 -1.5873  0.6139
  361MOL0     H48674   5.382   6.671   5.217 -0.8898  1.9348  1.9544
  361MOL0     H48675   5.556   6.643   5.181 -0.0019  1.0524 -0.1939
  361MOL0     H48676   5.583   6.534   5.410  3.4411 -1.0914 -2.6985
  361MOL0     H48677   5.406   6.522   5.411 -0.3376 -1.1517 -0.6704
  361MOL0     H48678   5.510   6.301   5.350 -0.2222  0.7451  1.6038
  361MOL0     H48679   5.464   6.370   5.185  0.9438  2.4753 -0.7072
  361MOL0     H48680   5.693   6.483   5.194  0.8403  1.5129  2.6590
  361MOL0     H48681   5.738   6.371   5.308 -2.2801 -2.2781  1.9047
  361MOL0     H48682   5.805   6.321   5.070  0.9911  0.8966  1.6263
  361MOL0     H48683   5.739   6.179   5.150  2.4703 -0.6251 -2.0606
  361MOL0     H48684   5.514   6.201   5.025 -2.2202  2.1857  1.2961
  361MOL0     H48685   5.657   6.206   4.921 -0.2220 -1.0992  1.3406
  361MOL0     H48686   5.695   6.533   4.959  0.3684 -0.5372 -0.3881
  361MOL0     H48687   5.503   6.775   4.857  0.4842  3.0309 -2.0744
  361MOL0     H48688   5.661   6.739   4.800 -0.4447  1.0534  2.6636
  361MOL0     H48689   5.381   6.736   4.654  0.0935  0.1380  0.4647
  361MOL0     H48690   5.539   6.678   4.572  1.3234 -0.6154  2.9457
  361MOL0     H48691   5.635   6.898   4.622 -0.2438  1.1774 -2.5405
  361MOL0     H48692   5.483   6.962   4.687 -1.5801  0.5931 -2.3030
  361MOL0     H48693   5.494   7.038   4.460 -1.9766  0.5226  1.6755
  361MOL0     H48694   5.365   6.917   4.476 -0.2785  0.1227  1.4909
  361MOL0     H48695   5.407   7.039   4.248 -0.9062 -0.0881 -0.6819
  361MOL0     H48696   5.332   7.145   4.059  1.2943  3.3315 -2.3197
  361MOL0     H48697   5.424   7.145   3.926 -0.6143  3.2568  2.3599
  361MOL0     H48698   5.295   7.005   3.941  1.4287 -1.8245  0.3616
  361MOL0     H48699   5.771   6.631   3.639 -1.3219  3.0069  2.7698
  361MOL0     H48700   5.765   6.555   3.403 -0.2335  0.8001 -0.9240
  361MOL0     H48701   5.748   6.706   3.204 -3.3311  3.2193 -1.3024
  361MOL0     H48702   5.747   6.542   3.134 -1.1074  0.0953 -3.4822
  361MOL0     H48703   5.566   6.624   2.975 -0.1284 -0.5246  0.3641
  361MOL0     H48704   5.595   6.790   3.038 -0.2898 -1.1938  0.0607
  361MOL0     H48705   5.821   6.631   2.929 -1.7248 -0.5821  2.8620
  361MOL0     H48706   5.826   6.801   2.990 -0.9265  0.6667  1.1760
  361MOL0     H48707   5.647   6.692   2.766  0.9135 -1.2140  2.6102
  361MOL0     H48708   5.669   6.856   2.802  0.1608  0.7321 -0.3700
  361MOL0     H48709   5.897   6.678   2.703 -1.3042 -0.6505 -2.0409
  361MOL0     H48710   5.889   6.856   2.689  2.2777 -0.7942  1.0057
  361MOL0     H48711   5.659   6.776   2.562 -0.8082 -0.9102 -2.4853
  361MOL0     H48712   5.816   6.798   2.476 -0.0574 -2.5840 -1.6859
  361MOL0     H48713   5.706   6.538   2.583 -1.1130  2.0775 -0.1227
  361MOL0     H48714   5.877   6.556   2.522 -1.0168 -1.9307  0.2934
  361MOL0     H48715   5.780   6.459   2.353  0.8892  1.0586  0.2293
  361MOL0     H48716   5.766   6.626   2.305 -0.0238  2.4153  1.3615
  361MOL0     H48717   5.367   6.711   3.378  0.6547 -0.3208 -0.4341
  361MOL0     H48718   5.388   6.816   3.600  1.8026  2.0060  0.5227
  361MOL0     H48719   5.670   6.701   4.001 -1.8510 -1.0453  0.1986
  361MOL0     H48720   5.623   6.683   4.238 -0.3658  0.2233  1.8062
  361MOL0     H48721   5.239   6.805   4.986  0.5151 -0.1929 -2.4646
  361MOL0     H48722   5.230   6.913   4.774  2.3248  3.1568 -1.9486
  361MOL0     H48723   5.008   7.141   4.451 -0.8501  2.0221  1.2544
  361MOL0     H48724   5.012   7.248   4.228  1.2729  2.2555 -2.2561
  361MOL0     H48725   5.347   7.545   4.126 -2.3346 -0.8697  0.0206
  361MOL0     H48726   5.389   7.391   4.048  1.0728  0.7793 -0.5012
  361MOL0     H48727   5.199   7.450   3.875  0.6888 -0.7609 -0.7283
  361MOL0     H48728   5.325   7.570   3.877  0.7887 -1.3405  0.0091
  361MOL0     H48729   5.191   7.719   4.009  0.8866 -0.7274  0.3180
  361MOL0     H48730   5.092   7.589   4.077  0.5009 -4.8449 -1.8436
  361MOL0     H48731   4.962   7.710   3.895  0.5948  0.6528  1.0416
  361MOL0     H48732   4.986   7.532   3.882  4.1621 -2.3075 -2.9172
  361MOL0     H48733   5.106   7.747   3.537  0.5068  1.1550 -0.7487
  361MOL0     H48734   5.393   7.424   4.312  0.0497  1.3931  0.6414
  361MOL0     H48735   5.405   7.293   4.523 -0.7092  4.6424 -0.2061
  362MOL0     O48736   4.308   1.089   4.661 -0.9582 -0.1571 -0.5301
  362MOL0     C48737   4.295   0.986   4.596  0.5645  0.4901 -0.0068
  362MOL0     O48738   4.332   0.954   4.457  0.1259 -0.7791  0.4346
  362MOL0     C48739   4.396   1.064   4.392  0.9029 -0.1524 -0.9190
  362MOL0     C48740   4.527   1.100   4.429  0.4388 -0.3620  0.5531
  362MOL0     C48741   4.590   1.216   4.379  0.7541 -0.3061 -0.7049
  362MOL0     C48742   4.523   1.303   4.292  0.6052  0.1593  0.3113
  362MOL0     O48743   4.600   1.402   4.241  0.2015  0.7130  0.1749
  362MOL0     C48744   4.545   1.531   4.243  0.1635  0.8020  0.3642
  362MOL0     C48745   4.662   1.629   4.228  0.8505  0.7364 -0.1955
  362MOL0     C48746   4.755   1.599   4.349 -0.2076 -0.6099 -0.4655
  362MOL0     C48747   4.896   1.661   4.332 -0.2738 -1.0002 -0.1092
  362MOL0     C48748   4.998   1.579   4.407 -0.2801 -0.6559 -0.4338
  362MOL0     C48749   5.133   1.637   4.370 -0.2594  0.0503  0.2775
  362MOL0     C48750   5.248   1.581   4.457 -0.1631 -0.1158 -0.1906
  362MOL0     C48751   5.382   1.625   4.398  0.1531  0.0512 -0.2002
  362MOL0     N48752   5.493   1.546   4.433 -0.6685  0.6488  0.0841
  362MOL0     C48753   5.617   1.548   4.374 -0.3303 -0.0629  0.6116
  362MOL0     C48754   5.696   1.493   4.473  0.2633  0.5804 -0.4026
  362MOL0     C48755   5.847   1.473   4.485 -0.4979 -0.6357 -0.3431
  362MOL0     C48756   5.895   1.345   4.424  0.4380 -0.1212 -0.9258
  362MOL0     C48757   6.038   1.315   4.472 -0.4584  0.2514  0.3291
  362MOL0     C48758   6.150   1.392   4.405 -0.3760  0.0729  1.7370
  362MOL0     O48759   6.148   1.529   4.433  0.8838  1.0807 -0.3718
  362MOL0     C48760   6.237   1.618   4.380  0.8209  0.1608  0.0696
  362MOL0     C48761   6.231   1.758   4.413  0.8059 -0.4977 -0.0509
  362MOL0     C48762   6.325   1.857   4.372  0.1291 -0.1743 -0.4754
  362MOL0     C48763   6.321   1.997   4.423 -0.4291  0.4862  0.2393
  362MOL0     C48764   6.421   1.815   4.283  0.2383 -0.1298  0.6641
  362MOL0     C48765   6.487   1.923   4.217 -1.2181 -0.5662 -1.1462
  362MOL0     O48766   6.618   1.940   4.261 -0.5779  0.1453 -0.9735
  362MOL0     C48767   6.682   2.046   4.211  1.0602 -0.1443  0.1525
  362MOL0     C48768   6.777   2.031   4.111  0.4046  0.4572 -0.1965
  362MOL0     C48769   6.852   2.142   4.072  0.3438  0.3156  0.8524
  362MOL0     C48770   6.845   2.264   4.137 -0.1588 -0.0542 -0.5622
  362MOL0     O48771   6.925   2.371   4.104 -0.2060  0.5446  0.3099
  362MOL0     C48772   6.859   2.501   4.085 -0.3195 -0.2104  0.4518
  362MOL0     C48773   6.957   2.615   4.059  1.1450  0.1391  0.0457
  362MOL0     C48774   7.047   2.643   4.186  0.2261  0.1156 -0.7428
  362MOL0     C48775   6.979   2.739   4.273 -0.2455  0.2454 -0.0358
  362MOL0     C48776   7.039   2.756   4.408  0.7160 -0.0379 -0.8363
  362MOL0     C48777   6.990   2.876   4.484  0.1272 -0.1187  0.1243
  362MOL0     C48778   7.084   2.996   4.441 -0.2482  0.0467 -0.1510
  362MOL0     C48779   7.054   3.120   4.526 -0.9207  0.9644 -0.4806
  362MOL0    Cl48780   7.165   3.250   4.483  0.2243  0.4516  0.4806
  362MOL0     C48781   6.755   2.277   4.240  0.9521  1.2341 -0.6350
  362MOL0     C48782   6.675   2.167   4.276 -0.4337 -0.7460  0.7078
  362MOL0     O48783   6.434   1.979   4.121  0.1418 -0.3828 -0.3999
  362MOL0     C48784   6.432   1.680   4.248 -0.2171 -0.6527  0.0367
  362MOL0     C48785   6.344   1.579   4.300 -0.3975  0.2405  0.2384
  362MOL0     N48786   5.620   1.467   4.586  0.2010  0.3037  0.4415
  362MOL0     N48787   5.494   1.493   4.557 -0.5274  0.3107 -1.2714
  362MOL0     C48788   4.388   1.272   4.256  0.9558 -0.1896  0.7670
  362MOL0     C48789   4.331   1.151   4.303 -0.2973 -0.5185 -0.7398
  362MOL0     C48790   4.225   0.871   4.670 -0.1944 -0.1460  0.6648
  362MOL0     C48791   4.174   0.761   4.600  0.1608  0.5618 -0.6377
  362MOL0     C48792   4.095   0.659   4.668 -0.2080 -0.4338  0.4198
  362MOL0     C48793   4.095   0.661   4.813 -0.3894  0.3605 -0.3740
  362MOL0     O48794   4.062   0.560   4.895 -0.6307 -0.3375  1.0851
  362MOL0     C48795   3.925   0.523   4.880 -0.1382 -0.5953  0.4130
  362MOL0     C48796   3.886   0.419   4.977  0.8411 -0.1535  0.2755
  362MOL0     C48797   3.876   0.483   5.115 -0.6413 -0.5004 -0.4818
  362MOL0     C48798   3.895   0.374   5.224  0.1526  0.0717 -0.5196
  362MOL0     C48799   3.793   0.269   5.216  0.1431 -0.1301 -0.5506
  362MOL0     C48800   3.709   0.178   5.207 -0.5460  0.0596  1.8289
  362MOL0     C48801   4.152   0.763   4.882 -0.3065  0.0303  1.0258
  362MOL0     C48802   4.204   0.874   4.807  0.8241  0.5732 -0.9781
  362MOL0     H48803   4.560   1.013   4.486 -0.1010  0.5788  2.3942
  362MOL0     H48804   4.692   1.237   4.411  0.5829 -2.0391  1.2328
  362MOL0     H48805   4.470   1.540   4.163  2.3972 -0.0409 -1.9372
  362MOL0     H48806   4.499   1.549   4.341  0.8827  0.3497  0.7934
  362MOL0     H48807   4.716   1.598   4.138  0.1390  1.3670 -0.8618
  362MOL0     H48808   4.616   1.728   4.217 -1.5217 -0.2246  0.2648
  362MOL0     H48809   4.715   1.642   4.441  1.0602 -2.2999  0.9588
  362MOL0     H48810   4.770   1.494   4.373  2.1695 -0.2159  0.1228
  362MOL0     H48811   4.918   1.669   4.225 -0.0442 -0.8500 -0.0506
  362MOL0     H48812   4.893   1.762   4.371  1.7711 -1.2616  0.8992
  362MOL0     H48813   4.974   1.598   4.512  0.9311  2.1216 -0.5831
  362MOL0     H48814   5.005   1.472   4.384 -0.5279 -0.8984  0.5875
  362MOL0     H48815   5.151   1.624   4.263 -0.5519 -1.5456  0.3972
  362MOL0     H48816   5.126   1.745   4.386 -2.6923  0.4529 -2.6496
  362MOL0     H48817   5.257   1.611   4.562  3.3570  1.1990 -0.7580
  362MOL0     H48818   5.237   1.472   4.450 -1.8654  0.1444 -3.8003
  362MOL0     H48819   5.393   1.729   4.430 -1.3301  0.1446  0.0798
  362MOL0     H48820   5.375   1.636   4.289 -0.4080  2.4791  0.0196
  362MOL0     H48821   5.654   1.586   4.279 -0.3413  0.8798  0.9785
  362MOL0     H48822   5.906   1.556   4.445  1.1748 -1.7490 -0.2729
  362MOL0     H48823   5.868   1.464   4.592 -1.4584  1.2577  0.0348
  362MOL0     H48824   5.877   1.336   4.316 -0.3738 -3.8283 -0.6050
  362MOL0     H48825   5.827   1.268   4.462  1.6542  0.5707  3.0562
  362MOL0     H48826   6.052   1.212   4.437  0.4145  0.4474  0.0526
  362MOL0     H48827   6.041   1.316   4.581 -1.2929 -0.7059  0.3771
  362MOL0     H48828   6.138   1.390   4.297  4.6167 -1.7947  0.9198
  362MOL0     H48829   6.250   1.347   4.418  0.7863  1.6862 -0.8264
  362MOL0     H48830   6.153   1.786   4.482  2.3543 -1.6411  2.3005
  362MOL0     H48831   6.300   2.072   4.347 -0.1158  0.1933 -0.1401
  362MOL0     H48832   6.242   2.010   4.497 -2.4794  0.1160 -1.7818
  362MOL0     H48833   6.413   2.036   4.468 -2.0300  2.6231  1.8994
  362MOL0     H48834   6.788   1.938   4.057  1.6081 -0.1107  0.9537
  362MOL0     H48835   6.927   2.133   3.994  0.6419 -1.3773  1.2877
  362MOL0     H48836   6.797   2.494   3.995  1.5372  3.5538 -1.3597
  362MOL0     H48837   6.793   2.532   4.166 -0.7909 -1.2549  0.4838
  362MOL0     H48838   7.010   2.577   3.972 -0.4450  0.2796 -1.0096
  362MOL0     H48839   6.913   2.707   4.020 -0.5228 -1.0014 -0.8581
  362MOL0     H48840   7.133   2.699   4.149  1.0143 -0.2710  0.4310
  362MOL0     H48841   7.076   2.549   4.236 -2.6804 -0.6346 -0.2889
  362MOL0     H48842   6.973   2.836   4.224  2.1950 -0.3087 -1.5669
  362MOL0     H48843   6.872   2.714   4.271 -0.7495  2.2400  0.3297
  362MOL0     H48844   7.148   2.751   4.406  0.7280 -1.3367  0.9851
  362MOL0     H48845   7.014   2.674   4.476 -0.6895  0.6611 -0.4642
  362MOL0     H48846   6.882   2.890   4.472 -0.2765  0.0449  3.2373
  362MOL0     H48847   7.000   2.874   4.593  0.4327  1.4820  0.1547
  362MOL0     H48848   7.052   3.024   4.340 -1.1776 -2.1613 -0.5299
  362MOL0     H48849   7.191   2.975   4.453 -0.4310 -0.0376  1.4794
  362MOL0     H48850   7.052   3.111   4.635  1.1701  0.8898 -0.4096
  362MOL0     H48851   6.949   3.151   4.519 -1.1240  0.3326 -0.2763
  362MOL0     H48852   6.736   2.360   4.308 -6.2478 -0.0771 -0.3500
  362MOL0     H48853   6.606   2.167   4.361 -2.5713  0.6981 -0.9378
  362MOL0     H48854   6.509   1.649   4.178  0.0274 -0.3973  0.1914
  362MOL0     H48855   6.363   1.473   4.282 -1.0710 -0.2367  2.0973
  362MOL0     H48856   4.329   1.332   4.188  0.5419 -2.6551 -1.1676
  362MOL0     H48857   4.228   1.134   4.274  0.0163 -1.4522 -1.3485
  362MOL0     H48858   4.177   0.756   4.491 -1.5811  1.3042 -0.7477
  362MOL0     H48859   4.043   0.588   4.604  0.9283  0.8454 -2.0889
  362MOL0     H48860   3.868   0.616   4.892 -1.8955 -1.3063 -1.8844
  362MOL0     H48861   3.908   0.480   4.781 -1.0560 -1.2154  0.8261
  362MOL0     H48862   3.948   0.329   4.986 -0.9609 -1.2224  5.1699
  362MOL0     H48863   3.790   0.383   4.938  0.5760  0.2905  0.5161
  362MOL0     H48864   3.777   0.524   5.133 -1.8778 -3.9024  1.4594
  362MOL0     H48865   3.956   0.557   5.126 -1.7720  0.3882  2.5754
  362MOL0     H48866   3.901   0.426   5.320  1.8398 -0.2134 -0.4385
  362MOL0     H48867   3.987   0.320   5.198  0.1270 -0.6688  0.8677
  362MOL0     H48868   3.641   0.095   5.194 -0.3912  0.2645 -1.1079
  362MOL0     H48869   4.147   0.764   4.991 -3.4296 -0.5862  0.9837
  362MOL0     H48870   4.247   0.952   4.869  0.4251  3.5920 -4.1776
  363MOL0     O48871   7.226  11.320   6.820 -0.9476  0.7698  0.3910
  363MOL0     C48872   7.190  11.231   6.742  1.2197 -1.2085 -0.5629
  363MOL0     O48873   7.249  11.191   6.620 -0.0271 -0.4739 -0.3475
  363MOL0     C48874   7.384  11.202   6.600 -0.6042  0.0383 -0.3829
  363MOL0     C48875   7.476  11.214   6.701 -0.0694  0.9746 -0.2016
  363MOL0     C48876   7.617  11.208   6.680 -0.0509  0.7571  0.2686
  363MOL0     C48877   7.666  11.231   6.553 -0.3437  0.4836  0.4147
  363MOL0     O48878   7.808  11.229   6.530 -0.1960  0.2698  0.4842
  363MOL0     C48879   7.854  11.220   6.394 -0.6960  0.3864 -0.8604
  363MOL0     C48880   8.008  11.235   6.390  0.9824  0.5938 -0.5773
  363MOL0     C48881   8.050  11.229   6.240 -0.2453 -0.2725  0.4883
  363MOL0     C48882   8.027  11.100   6.166 -0.2249  0.5039  1.3105
  363MOL0     C48883   8.089  11.104   6.023  0.1504 -0.5229  0.5660
  363MOL0     C48884   8.013  11.005   5.936  0.3780 -0.0430  0.5243
  363MOL0     C48885   8.065  11.012   5.789  0.0014  0.2561 -0.5265
  363MOL0     C48886   7.973  10.917   5.713  0.3079  0.1078 -0.3413
  363MOL0     N48887   8.020  10.865   5.577 -0.2432  0.6186 -0.0873
  363MOL0     C48888   7.996  10.920   5.454  0.7760  0.5002  0.5058
  363MOL0     C48889   8.074  10.847   5.364  0.1254  0.2250 -0.9466
  363MOL0     C48890   8.083  10.869   5.221 -0.9835  0.3557  0.2029
  363MOL0     C48891   7.949  10.896   5.150 -0.4467 -0.3377 -0.3257
  363MOL0     C48892   7.983  10.917   5.000 -0.3535  0.6286 -0.0109
  363MOL0     C48893   7.868  10.931   4.900 -0.5128  0.4237  0.5664
  363MOL0     O48894   7.797  11.047   4.937  0.2892 -0.7674  0.1260
  363MOL0     C48895   7.699  11.096   4.858 -0.2390 -0.3363 -0.4037
  363MOL0     C48896   7.634  11.010   4.764  0.0469 -0.5308 -0.4517
  363MOL0     C48897   7.537  11.062   4.681 -0.0160  1.0299  0.1747
  363MOL0     C48898   7.475  10.963   4.588  0.9475  0.2095  0.2404
  363MOL0     C48899   7.492  11.192   4.693  0.5124  0.0652  0.2937
  363MOL0     C48900   7.388  11.256   4.606 -0.6312  1.0491  0.1054
  363MOL0     O48901   7.324  11.361   4.659 -0.1367  0.3444  0.3209
  363MOL0     C48902   7.253  11.441   4.569  1.1644  0.2266  0.0202
  363MOL0     C48903   7.310  11.498   4.455  0.8366 -0.4941  0.7044
  363MOL0     C48904   7.231  11.586   4.381 -0.7666 -0.0321  0.3496
  363MOL0     C48905   7.096  11.621   4.421 -0.6650  0.5438 -0.4221
  363MOL0     O48906   7.008  11.695   4.339  0.7262  0.0030  0.4736
  363MOL0     C48907   6.954  11.818   4.387  0.6799  1.0216  0.2838
  363MOL0     C48908   6.801  11.808   4.372  0.4359  0.0279 -0.0279
  363MOL0     C48909   6.742  11.944   4.382 -0.3293  0.7311  0.2207
  363MOL0     C48910   6.593  11.950   4.349  0.0856  0.0970 -0.0374
  363MOL0     C48911   6.558  11.928   4.200 -1.1190  0.3824  0.5407
  363MOL0     C48912   6.412  11.948   4.192  0.3788 -0.9614  0.8359
  363MOL0     C48913   6.330  11.832   4.256 -0.6693  1.0220  0.4784
  363MOL0     C48914   6.180  11.850   4.231  0.7615  0.8520 -0.1752
  363MOL0    Cl48915   6.123  11.994   4.334 -0.0290 -0.2725 -0.4479
  363MOL0     C48916   7.040  11.550   4.524 -0.3478  0.5046 -0.2233
  363MOL0     C48917   7.117  11.460   4.609 -0.6508 -0.3702 -0.3368
  363MOL0     O48918   7.356  11.195   4.502  0.3853 -0.1577  0.0814
  363MOL0     C48919   7.545  11.266   4.799 -0.4093 -0.4162  0.3601
  363MOL0     C48920   7.651  11.220   4.877  0.9544  0.3704  0.3155
  363MOL0     N48921   8.141  10.743   5.441 -0.8257  0.4390  0.0570
  363MOL0     N48922   8.108  10.761   5.563  0.0749  0.1157  0.0187
  363MOL0     C48923   7.565  11.239   6.455 -0.0979  0.8960  0.2064
  363MOL0     C48924   7.433  11.214   6.473 -0.8016  0.3909 -1.2030
  363MOL0     C48925   7.060  11.155   6.767  0.7918 -0.5685  0.0150
  363MOL0     C48926   7.013  11.110   6.895 -1.0542  0.7947 -0.4286
  363MOL0     C48927   6.901  11.028   6.904 -0.1332  0.5066  0.7083
  363MOL0     C48928   6.813  11.007   6.794  0.2914  0.7842  0.8217
  363MOL0     O48929   6.688  10.951   6.834 -0.4493 -0.4053 -0.0160
  363MOL0     C48930   6.585  10.910   6.739  0.4024  0.5205 -0.1978
  363MOL0     C48931   6.635  10.778   6.655  0.8199 -0.6819  0.2425
  363MOL0     C48932   6.538  10.657   6.652  0.6614  1.0221  0.2291
  363MOL0     C48933   6.599  10.524   6.594 -0.2561  0.1013 -0.0425
  363MOL0     C48934   6.607  10.537   6.448 -0.0822  0.5285  0.1121
  363MOL0     C48935   6.622  10.535   6.327  0.2419  0.9202  0.0543
  363MOL0     C48936   6.857  11.032   6.662  1.0135 -0.2785 -0.9319
  363MOL0     C48937   6.974  11.120   6.659 -0.2609  0.3019 -0.5073
  363MOL0     H48938   7.446  11.204   6.805 -2.1168  2.4756 -0.5836
  363MOL0     H48939   7.680  11.171   6.761  3.7663  3.0703 -1.3560
  363MOL0     H48940   7.830  11.128   6.342 -0.5826  1.5556 -3.1239
  363MOL0     H48941   7.812  11.307   6.343  1.7187 -0.2173 -4.1521
  363MOL0     H48942   8.029  11.323   6.453  1.2700  0.3995 -0.3950
  363MOL0     H48943   8.066  11.165   6.452 -0.0791  0.5917  0.4480
  363MOL0     H48944   7.991  11.300   6.182 -0.8318 -1.4761 -0.4467
  363MOL0     H48945   8.157  11.254   6.233 -0.5252  0.5335 -1.7869
  363MOL0     H48946   8.076  11.018   6.219  0.7225 -1.6383 -2.5211
  363MOL0     H48947   7.919  11.088   6.164 -0.0037 -2.3569 -1.8855
  363MOL0     H48948   8.083  11.203   5.978 -2.2811 -1.4395 -1.3529
  363MOL0     H48949   8.198  11.091   6.024  0.1993 -1.2340 -2.6260
  363MOL0     H48950   8.023  10.908   5.986  0.6632  0.9430  2.4897
  363MOL0     H48951   7.907  11.034   5.932  0.1802 -0.7425  0.5541
  363MOL0     H48952   8.082  11.106   5.735  0.9087 -1.6187 -3.8235
  363MOL0     H48953   8.163  10.965   5.802 -0.0053  0.8485  2.0252
  363MOL0     H48954   7.874  10.962   5.711  1.1772  2.1350  0.0074
  363MOL0     H48955   7.962  10.833   5.782  0.9883  0.7178  0.5365
  363MOL0     H48956   7.926  10.998   5.426  1.1346 -0.3149 -3.2452
  363MOL0     H48957   8.152  10.951   5.201  2.4932 -2.6350 -0.9835
  363MOL0     H48958   8.137  10.783   5.180 -0.3578  1.5309 -1.5639
  363MOL0     H48959   7.900  10.983   5.193 -1.8859 -0.5573 -1.4316
  363MOL0     H48960   7.880  10.811   5.158 -0.9692 -0.1304 -2.1099
  363MOL0     H48961   8.042  10.835   4.958 -1.8714 -0.5009 -0.0179
  363MOL0     H48962   8.034  11.014   4.993 -2.1365  1.6355  0.2319
  363MOL0     H48963   7.805  10.842   4.910 -0.9812  0.7251  0.3651
  363MOL0     H48964   7.897  10.941   4.795 -1.4691 -0.1491  0.2275
  363MOL0     H48965   7.667  10.908   4.749 -1.9678 -1.5319  1.3972
  363MOL0     H48966   7.495  11.003   4.488  0.2465  1.8992  0.7499
  363MOL0     H48967   7.513  10.861   4.598 -0.8290 -0.4533  0.5888
  363MOL0     H48968   7.369  10.948   4.609  0.3206 -0.0858 -2.7417
  363MOL0     H48969   7.404  11.472   4.409 -0.2608 -1.7244 -0.9795
  363MOL0     H48970   7.280  11.632   4.296 -1.6020  2.4976  1.1490
  363MOL0     H48971   6.979  11.830   4.493 -0.3655  2.4407  0.4020
  363MOL0     H48972   7.001  11.906   4.342  0.9390 -0.0411 -1.6443
  363MOL0     H48973   6.769  11.761   4.279 -0.1944 -0.0056  0.2023
  363MOL0     H48974   6.774  11.742   4.455 -2.7176  0.6451 -0.4693
  363MOL0     H48975   6.790  12.002   4.303  0.8206 -1.8592 -1.1438
  363MOL0     H48976   6.762  11.984   4.481 -4.3917  1.4859  0.9145
  363MOL0     H48977   6.554  11.874   4.417 -0.1317 -0.7179 -1.0445
  363MOL0     H48978   6.551  12.039   4.397 -3.8973 -3.5657  4.1194
  363MOL0     H48979   6.595  11.830   4.169  1.7151  1.0650  1.5008
  363MOL0     H48980   6.603  12.002   4.134 -0.8864  0.2223  0.5188
  363MOL0     H48981   6.386  12.047   4.230  0.7339 -1.2224  1.7635
  363MOL0     H48982   6.379  11.952   4.087  0.4207 -0.6718  0.8336
  363MOL0     H48983   6.353  11.800   4.358  0.9656 -4.8431 -1.3352
  363MOL0     H48984   6.360  11.739   4.207 -0.0927  0.5423  1.7002
  363MOL0     H48985   6.120  11.760   4.249  1.0851  0.8762  1.1782
  363MOL0     H48986   6.152  11.879   4.129 -0.3536 -0.7873 -0.3655
  363MOL0     H48987   6.941  11.585   4.551  0.1960  1.4150  0.6292
  363MOL0     H48988   7.071  11.410   4.693  0.8419  1.5449  1.7417
  363MOL0     H48989   7.519  11.371   4.802  0.5769 -0.1325 -0.4134
  363MOL0     H48990   7.687  11.283   4.958 -0.8456 -1.0338  2.3036
  363MOL0     H48991   7.585  11.266   6.352 -4.0373  2.9787 -0.2276
  363MOL0     H48992   7.366  11.223   6.388 -1.8102 -0.1493 -0.4794
  363MOL0     H48993   7.057  11.146   6.987 -0.6388  1.2408 -0.7963
  363MOL0     H48994   6.853  11.002   6.998 -2.2600  0.5635 -0.2819
  363MOL0     H48995   6.497  10.872   6.793 -0.2904  1.5758 -0.5321
  363MOL0     H48996   6.560  10.991   6.669  0.4317 -0.2335 -1.1070
  363MOL0     H48997   6.728  10.739   6.699  2.3072  0.2184 -1.9493
  363MOL0     H48998   6.650  10.826   6.558  1.9055  1.6984  1.5009
  363MOL0     H48999   6.442  10.686   6.608 -0.6937 -2.3382  0.6616
  363MOL0     H49000   6.511  10.621   6.751 -1.0259  0.1575 -0.5079
  363MOL0     H49001   6.525  10.447   6.618 -1.2725  1.4901  1.5593
  363MOL0     H49002   6.693  10.491   6.638 -0.4752 -2.2819 -1.1825
  363MOL0     H49003   6.636  10.524   6.222  2.0642 -1.0632  0.4379
  363MOL0     H49004   6.804  11.007   6.570  1.4273  2.6609 -2.0750
  363MOL0     H49005   7.005  11.166   6.566 -1.1510  2.1076  0.0517
  364MOL0     O49006   7.260   9.301   4.720 -0.3171 -0.0656  0.1811
  364MOL0     C49007   7.139   9.299   4.712  0.5435  0.2984 -0.0446
  364MOL0     O49008   7.064   9.323   4.595 -0.2066  0.0104  0.6429
  364MOL0     C49009   7.142   9.362   4.487  0.2208  0.2313 -0.1324
  364MOL0     C49010   7.168   9.274   4.378  1.1789  0.6149 -0.7424
  364MOL0     C49011   7.245   9.307   4.264  0.0488  0.3909  0.7825
  364MOL0     C49012   7.315   9.433   4.267  0.8436 -0.4036  0.4983
  364MOL0     O49013   7.399   9.477   4.168 -0.5072 -0.5548  0.4391
  364MOL0     C49014   7.414   9.404   4.045  0.2202  0.4233  0.6674
  364MOL0     C49015   7.476   9.497   3.945  0.2813  0.8631  0.1975
  364MOL0     C49016   7.394   9.608   3.897  0.7524 -0.1914  0.1420
  364MOL0     C49017   7.424   9.628   3.750  0.0162 -0.5993 -0.0787
  364MOL0     C49018   7.373   9.758   3.685  0.7568 -0.4481 -0.3284
  364MOL0     C49019   7.410   9.793   3.537  0.2850  0.1334  0.3951
  364MOL0     C49020   7.367   9.942   3.519 -0.4513 -0.5943  0.2521
  364MOL0     C49021   7.387  10.009   3.382  1.1853  0.4980  0.4496
  364MOL0     N49022   7.346  10.149   3.392 -0.6070 -0.7808  0.6902
  364MOL0     C49023   7.329  10.238   3.279 -1.2956  0.9227 -0.4115
  364MOL0     C49024   7.321  10.363   3.335  0.0721 -0.3242 -0.7461
  364MOL0     C49025   7.304  10.480   3.245  0.0721  0.8271 -0.8510
  364MOL0     C49026   7.357  10.606   3.316 -0.3633  0.3688  1.0630
  364MOL0     C49027   7.231  10.656   3.387  0.0426 -0.1072 -0.7089
  364MOL0     C49028   7.262  10.775   3.484  0.5822  0.1097 -0.2996
  364MOL0     O49029   7.144  10.821   3.540 -0.0445  0.0643  0.4171
  364MOL0     C49030   7.107  10.791   3.670  0.3689  1.1014  0.3968
  364MOL0     C49031   6.972  10.802   3.685 -0.5091  0.2953 -0.6970
  364MOL0     C49032   6.908  10.765   3.800  0.4524  0.0937  0.5057
  364MOL0     C49033   6.755  10.781   3.812 -0.4504 -0.1061  0.0664
  364MOL0     C49034   6.982  10.723   3.915 -0.0426 -0.5984 -0.2136
  364MOL0     C49035   6.927  10.692   4.052  0.3824 -0.4688 -0.0387
  364MOL0     O49036   6.811  10.747   4.097  0.0934 -0.0950 -0.2540
  364MOL0     C49037   6.749  10.698   4.212  0.6712 -0.6033  0.4964
  364MOL0     C49038   6.680  10.806   4.269  0.0139 -0.0621  0.5670
  364MOL0     C49039   6.603  10.789   4.379 -0.0752 -0.1592  1.0024
  364MOL0     C49040   6.584  10.662   4.436  0.1616 -0.2603  0.6821
  364MOL0     O49041   6.493  10.640   4.548 -0.3030  1.1069  0.0652
  364MOL0     C49042   6.398  10.732   4.585  0.7966 -0.0408  0.0087
  364MOL0     C49043   6.291  10.644   4.661  0.5509  0.0916 -0.1403
  364MOL0     C49044   6.342  10.587   4.797 -0.6522 -0.0013 -0.0489
  364MOL0     C49045   6.233  10.555   4.901  0.0940  0.2313 -0.5840
  364MOL0     C49046   6.135  10.446   4.858 -0.6039  0.0792 -0.3093
  364MOL0     C49047   6.074  10.390   4.992 -0.5251 -1.0572  0.1922
  364MOL0     C49048   5.973  10.279   4.969 -0.3513  0.3541  0.6288
  364MOL0     C49049   5.921  10.222   5.086 -0.5440  1.2445 -0.0772
  364MOL0    Cl49050   5.798  10.085   5.056  0.1941  0.1423  0.6773
  364MOL0     C49051   6.661  10.554   4.375 -0.2665  0.1415 -0.5544
  364MOL0     C49052   6.747  10.573   4.267 -0.5887  0.4346  0.1945
  364MOL0     O49053   7.001  10.617   4.112  0.2248 -0.1809 -0.5056
  364MOL0     C49054   7.124  10.709   3.891  0.4628 -0.4083 -1.0507
  364MOL0     C49055   7.178  10.734   3.770 -0.0187 -0.2699 -0.2546
  364MOL0     N49056   7.333  10.362   3.475 -0.1021  0.4832  0.1755
  364MOL0     N49057   7.353  10.238   3.508  0.5329 -0.2158  0.3608
  364MOL0     C49058   7.292   9.518   4.376  0.1587 -0.6534 -0.4834
  364MOL0     C49059   7.208   9.484   4.485 -0.4446  0.0974 -0.0417
  364MOL0     C49060   7.079   9.247   4.842 -0.1904 -0.0570 -0.0666
  364MOL0     C49061   7.156   9.218   4.954 -0.1437  0.4153  0.7545
  364MOL0     C49062   7.092   9.169   5.074  0.4004 -0.7366 -0.3168
  364MOL0     C49063   6.957   9.141   5.074  0.1893 -1.3323 -0.1629
  364MOL0     O49064   6.895   9.083   5.182  0.7398  0.0860  0.2035
  364MOL0     C49065   6.975   9.016   5.285 -1.0249 -0.0179  0.0466
  364MOL0     C49066   6.902   8.964   5.403  0.2870  0.2045  0.5474
  364MOL0     C49067   6.761   8.927   5.360 -0.2017  0.0934 -0.6087
  364MOL0     C49068   6.695   8.848   5.469  0.2677  0.4583 -0.2779
  364MOL0     C49069   6.570   8.792   5.423  0.2274 -0.7004  0.1696
  364MOL0     C49070   6.475   8.749   5.363  0.3362 -0.3515 -0.5902
  364MOL0     C49071   6.879   9.169   4.961  0.3213  0.3627  0.3956
  364MOL0     C49072   6.939   9.233   4.845  0.3880 -0.3389  0.2230
  364MOL0     H49073   7.122   9.177   4.390  0.7463  0.4974 -2.9713
  364MOL0     H49074   7.249   9.238   4.181 -5.8766  2.2367 -1.5943
  364MOL0     H49075   7.477   9.316   4.062  1.9909  1.6661  0.7317
  364MOL0     H49076   7.319   9.381   3.995 -0.1259  1.6037  0.7427
  364MOL0     H49077   7.561   9.535   4.001  0.4627 -1.8114  1.8915
  364MOL0     H49078   7.507   9.447   3.852 -0.9958 -1.0169  0.7208
  364MOL0     H49079   7.289   9.584   3.914  1.5150 -1.2690  4.8113
  364MOL0     H49080   7.421   9.701   3.949 -1.4700  2.1228 -2.5355
  364MOL0     H49081   7.533   9.634   3.743  0.1558 -3.5692 -2.8180
  364MOL0     H49082   7.397   9.544   3.686 -0.5291 -1.6200  1.4260
  364MOL0     H49083   7.268   9.725   3.686  1.0788 -1.8459  3.2236
  364MOL0     H49084   7.391   9.843   3.751 -0.0795  0.2887 -1.0168
  364MOL0     H49085   7.517   9.777   3.519 -0.2646 -0.4902 -2.9977
  364MOL0     H49086   7.351   9.726   3.472 -0.1968 -1.3085  2.2318
  364MOL0     H49087   7.260   9.955   3.542  0.2764  2.3504  2.5641
  364MOL0     H49088   7.428   9.998   3.591 -0.7129  0.4036 -0.2806
  364MOL0     H49089   7.322   9.953   3.314  0.2484  3.2271 -1.0795
  364MOL0     H49090   7.492   9.994   3.354  0.7807 -1.3406 -0.1795
  364MOL0     H49091   7.336  10.205   3.176 -1.6176 -2.2447  0.4778
  364MOL0     H49092   7.366  10.458   3.158  0.9254  1.6125 -0.4654
  364MOL0     H49093   7.201  10.489   3.210  0.7745  2.9658 -2.5539
  364MOL0     H49094   7.379  10.675   3.234 -0.6883 -1.7145 -0.8836
  364MOL0     H49095   7.446  10.595   3.379 -0.3327 -0.0609  0.9522
  364MOL0     H49096   7.174  10.577   3.437  1.1787  0.8373  2.2742
  364MOL0     H49097   7.168  10.706   3.313 -0.6786 -1.0408 -0.7446
  364MOL0     H49098   7.312  10.856   3.430 -0.7207  0.7271 -0.6108
  364MOL0     H49099   7.324  10.750   3.570 -0.8733 -0.1155  0.7117
  364MOL0     H49100   6.919  10.817   3.592 -0.3178 -1.6635 -1.1660
  364MOL0     H49101   6.715  10.694   3.865 -2.7028  1.9373  1.9185
  364MOL0     H49102   6.732  10.865   3.877 -2.1640 -1.0287  0.7258
  364MOL0     H49103   6.712  10.794   3.712 -0.2224  0.4925  0.0442
  364MOL0     H49104   6.685  10.908   4.232 -1.8632 -0.5222 -1.1599
  364MOL0     H49105   6.545  10.876   4.410  1.9785  0.9150  1.9786
  364MOL0     H49106   6.440  10.808   4.651 -2.2677  0.5039  1.5121
  364MOL0     H49107   6.352  10.782   4.499  0.3285 -1.3936 -0.5626
  364MOL0     H49108   6.211  10.718   4.674 -2.5737 -1.6815 -5.8419
  364MOL0     H49109   6.250  10.568   4.595 -0.1705  2.4684 -2.5995
  364MOL0     H49110   6.400  10.665   4.848 -0.2563 -0.3265  0.0083
  364MOL0     H49111   6.400  10.495   4.783  0.4291  0.7992 -1.0757
  364MOL0     H49112   6.283  10.524   4.994 -0.1364 -1.6214 -1.0425
  364MOL0     H49113   6.171  10.643   4.918  0.5201  1.1279 -3.2326
  364MOL0     H49114   6.191  10.377   4.794 -2.5699  1.6260 -4.0389
  364MOL0     H49115   6.050  10.475   4.795 -2.6456 -1.6293  1.5212
  364MOL0     H49116   6.149  10.353   5.063  3.0607 -1.9834 -3.6536
  364MOL0     H49117   6.015  10.473   5.032 -1.1592 -0.8330 -1.1421
  364MOL0     H49118   6.032  10.213   4.904 -2.8116  0.7882 -2.2880
  364MOL0     H49119   5.892  10.321   4.908  1.0742  1.1479 -0.8187
  364MOL0     H49120   5.867  10.293   5.149 -1.6439 -0.8856  1.5336
  364MOL0     H49121   6.007  10.187   5.144  0.4323  1.8115 -1.1370
  364MOL0     H49122   6.649  10.458   4.425 -0.8242  0.7753  0.5906
  364MOL0     H49123   6.799  10.485   4.231 -2.4819  0.6426 -3.5550
  364MOL0     H49124   7.188  10.665   3.966  0.0509 -0.5593 -0.7830
  364MOL0     H49125   7.285  10.724   3.762  0.4145  2.3287  1.1871
  364MOL0     H49126   7.337   9.616   4.380 -2.7135  0.7833 -0.6289
  364MOL0     H49127   7.189   9.551   4.569 -1.1099  0.0789 -0.1696
  364MOL0     H49128   7.263   9.237   4.957 -0.4952  2.5329  1.5661
  364MOL0     H49129   7.155   9.161   5.162 -2.9439 -0.2350  2.3381
  364MOL0     H49130   7.037   8.939   5.240 -0.0793  0.2341  0.8754
  364MOL0     H49131   7.044   9.092   5.323 -2.0136  1.9277 -1.7755
  364MOL0     H49132   6.899   9.036   5.485  0.0127  3.5739 -2.2066
  364MOL0     H49133   6.961   8.877   5.431  1.1560 -1.0734 -4.3327
  364MOL0     H49134   6.773   8.864   5.271 -1.5396 -0.5839 -0.3258
  364MOL0     H49135   6.707   9.020   5.343  1.1520  1.2079  0.8238
  364MOL0     H49136   6.679   8.922   5.549 -1.5826  2.2444 -2.1618
  364MOL0     H49137   6.756   8.770   5.514  0.2063  0.0811 -0.8455
  364MOL0     H49138   6.402   8.701   5.301  0.8873 -3.0958  0.7077
  364MOL0     H49139   6.774   9.142   4.964  0.6988 -1.3052 -0.3453
  364MOL0     H49140   6.881   9.258   4.756  1.8423  0.8471 -0.4187
  365MOL0     O49141   7.828   9.096   5.883 -0.0098  0.6165 -0.3516
  365MOL0     C49142   7.867   9.098   5.770  0.4104 -0.0622 -0.1728
  365MOL0     O49143   7.823   9.176   5.665  0.1140 -0.4042 -0.6629
  365MOL0     C49144   7.732   9.271   5.683 -0.6328 -0.5778  0.2792
  365MOL0     C49145   7.622   9.251   5.607  0.6578  0.5456 -1.0402
  365MOL0     C49146   7.507   9.330   5.620 -0.7720 -1.0238  0.0071
  365MOL0     C49147   7.509   9.445   5.700  0.4642 -0.6319  0.0181
  365MOL0     O49148   7.401   9.530   5.703 -0.0171 -0.3604 -0.2986
  365MOL0     C49149   7.419   9.667   5.676  0.5946 -0.2323  0.5658
  365MOL0     C49150   7.299   9.739   5.608 -0.3733  0.5803 -0.2597
  365MOL0     C49151   7.332   9.877   5.547 -0.4868  0.0048 -0.0354
  365MOL0     C49152   7.371   9.992   5.634 -0.4736  0.1722 -0.5114
  365MOL0     C49153   7.392  10.123   5.551 -0.7479 -0.3728  0.4910
  365MOL0     C49154   7.423  10.252   5.631  0.7492 -0.7659  0.7451
  365MOL0     C49155   7.430  10.376   5.536  0.0295  0.4347  0.2009
  365MOL0     C49156   7.380  10.514   5.574  0.2928  1.0488 -0.2268
  365MOL0     N49157   7.399  10.621   5.475  0.4818 -0.7340 -0.0364
  365MOL0     C49158   7.425  10.612   5.342 -0.5828 -0.2113 -0.6522
  365MOL0     C49159   7.461  10.741   5.300  0.7372  0.4219  0.3320
  365MOL0     C49160   7.474  10.786   5.157  0.5443  0.2978  0.2920
  365MOL0     C49161   7.364  10.895   5.129  0.3167 -0.9005 -0.0961
  365MOL0     C49162   7.402  10.998   5.029 -0.0881 -0.1440 -0.5068
  365MOL0     C49163   7.295  11.102   4.991 -0.0391 -0.8149  0.0096
  365MOL0     O49164   7.268  11.184   5.107 -0.0014  0.6027  0.2462
  365MOL0     C49165   7.191  11.300   5.088 -1.1344  0.0043  0.9505
  365MOL0     C49166   7.196  11.398   5.193 -1.1074 -0.4301  0.7971
  365MOL0     C49167   7.135  11.521   5.184  0.1334  0.5834 -0.2323
  365MOL0     C49168   7.143  11.625   5.293  1.0276  0.1160 -0.0471
  365MOL0     C49169   7.041  11.534   5.079 -0.8201 -0.6512 -0.3007
  365MOL0     C49170   6.946  11.648   5.071  0.3813 -0.7356 -0.0902
  365MOL0     O49171   6.901  11.682   4.948  0.7224  0.0778  0.9858
  365MOL0     C49172   6.776  11.729   4.932  0.4343  1.0565 -0.2550
  365MOL0     C49173   6.749  11.781   4.805 -0.8719 -0.1873  0.2493
  365MOL0     C49174   6.616  11.823   4.766  1.1432 -0.4751  0.7948
  365MOL0     C49175   6.510  11.812   4.859 -0.6495  0.5425  0.6307
  365MOL0     O49176   6.379  11.848   4.823  0.6298  0.6441 -0.0450
  365MOL0     C49177   6.302  11.899   4.928 -0.0617 -0.1648 -0.7054
  365MOL0     C49178   6.189  11.979   4.874 -0.3304  0.0429 -0.1518
  365MOL0     C49179   6.100  11.993   4.991  0.7465 -0.0509 -0.0398
  365MOL0     C49180   5.960  12.049   4.957  0.6794 -0.3001  0.4342
  365MOL0     C49181   5.878  12.068   5.086 -0.1197  0.7556 -0.3668
  365MOL0     C49182   5.750  12.141   5.060  0.4514 -0.0446  0.1764
  365MOL0     C49183   5.672  12.165   5.186  0.4064 -0.5630 -0.8526
  365MOL0     C49184   5.528  12.216   5.154  0.0894  0.0406 -0.6422
  365MOL0    Cl49185   5.416  12.067   5.156 -0.2278  0.0553 -0.6778
  365MOL0     C49186   6.542  11.746   4.984 -0.3245 -1.1221 -0.4980
  365MOL0     C49187   6.669  11.718   5.019  0.2501  0.7251 -0.1266
  365MOL0     O49188   6.918  11.710   5.172  0.1199  0.8440 -0.3232
  365MOL0     C49189   7.028  11.441   4.979 -1.4357  0.2081  0.2197
  365MOL0     C49190   7.110  11.326   4.979 -0.3692  0.2838  0.2132
  365MOL0     N49191   7.478  10.815   5.416 -0.0045 -0.5474 -0.2353
  365MOL0     N49192   7.427  10.748   5.512  0.1080  0.4808  1.0684
  365MOL0     C49193   7.617   9.465   5.785  0.3315  0.0609 -0.3847
  365MOL0     C49194   7.725   9.381   5.770 -1.8489  0.7917 -0.7276
  365MOL0     C49195   7.973   8.994   5.740 -1.1021  0.0195 -0.3238
  365MOL0     C49196   8.022   8.908   5.843  0.3877 -0.1520 -0.1860
  365MOL0     C49197   8.133   8.821   5.811  0.4294  0.1779  0.1801
  365MOL0     C49198   8.201   8.823   5.683 -1.1163  0.1604  0.2754
  365MOL0     O49199   8.322   8.767   5.637 -0.6051 -0.3046 -1.0317
  365MOL0     C49200   8.394   8.679   5.724 -0.5968 -0.6213  0.3552
  365MOL0     C49201   8.461   8.736   5.853 -0.1706 -0.6830 -0.2651
  365MOL0     C49202   8.511   8.634   5.954  0.7514  1.1359  0.1243
  365MOL0     C49203   8.610   8.538   5.903  0.4731 -0.5832 -0.6441
  365MOL0     C49204   8.734   8.600   5.849 -0.6343  0.3877 -0.5674
  365MOL0     C49205   8.836   8.668   5.831  0.3114  0.6454  0.0042
  365MOL0     C49206   8.134   8.903   5.589  0.1011  0.7543  0.3648
  365MOL0     C49207   8.026   8.986   5.611 -0.5661 -0.1441 -0.2822
  365MOL0     H49208   7.610   9.166   5.541  1.2843 -1.5992  1.4847
  365MOL0     H49209   7.418   9.301   5.564 -0.2487  0.2771 -1.5906
  365MOL0     H49210   7.444   9.716   5.770  1.1331 -0.8897  0.7638
  365MOL0     H49211   7.503   9.689   5.610 -0.3503  3.3657  0.3312
  365MOL0     H49212   7.276   9.667   5.529  1.7011 -0.8632  0.3556
  365MOL0     H49213   7.214   9.749   5.676 -1.5335 -0.2609 -1.5417
  365MOL0     H49214   7.409   9.878   5.469  0.2150  3.8294  0.4961
  365MOL0     H49215   7.242   9.915   5.497 -0.5653  0.2915  0.3163
  365MOL0     H49216   7.294  10.007   5.711  1.1657  0.7875  1.0740
  365MOL0     H49217   7.462   9.969   5.691 -1.5011 -0.5747  0.9112
  365MOL0     H49218   7.475  10.102   5.483  0.1207 -1.3869  1.8048
  365MOL0     H49219   7.304  10.151   5.493 -0.0313 -0.6933 -0.7919
  365MOL0     H49220   7.341  10.279   5.698 -1.8922  2.5808 -3.3165
  365MOL0     H49221   7.519  10.254   5.683  0.9996  3.5120  0.4510
  365MOL0     H49222   7.535  10.393   5.510 -0.3970 -0.0088 -1.9904
  365MOL0     H49223   7.375  10.364   5.442  0.6343 -0.6238 -0.0253
  365MOL0     H49224   7.431  10.542   5.667  1.7735  3.0290 -1.5469
  365MOL0     H49225   7.271  10.519   5.588  0.2233 -2.2995  1.4248
  365MOL0     H49226   7.430  10.531   5.270 -0.6793 -0.5290 -0.3038
  365MOL0     H49227   7.573  10.823   5.130 -0.1602  0.3560 -2.5160
  365MOL0     H49228   7.463  10.697   5.095  2.8198 -3.0321  4.2345
  365MOL0     H49229   7.337  10.948   5.221 -1.1103 -0.3575 -0.7892
  365MOL0     H49230   7.268  10.852   5.097  1.1777 -1.8035 -1.5745
  365MOL0     H49231   7.429  10.954   4.933 -1.7692  1.3762 -1.7271
  365MOL0     H49232   7.482  11.059   5.073 -0.9316 -1.1399  2.7527
  365MOL0     H49233   7.206  11.050   4.955 -0.0447  1.8856 -4.6468
  365MOL0     H49234   7.333  11.167   4.912  0.9615 -1.3123  0.0559
  365MOL0     H49235   7.258  11.367   5.276  2.1421 -0.8022 -1.5827
  365MOL0     H49236   7.052  11.637   5.353 -0.2099 -3.0548 -1.0662
  365MOL0     H49237   7.217  11.592   5.367  1.7764  0.6930 -0.5255
  365MOL0     H49238   7.177  11.717   5.246  0.7740  0.8094  1.0951
  365MOL0     H49239   6.834  11.778   4.738 -0.0099  0.0805  1.3090
  365MOL0     H49240   6.601  11.858   4.664  0.2773  0.2738  1.1600
  365MOL0     H49241   6.265  11.805   4.971 -0.7402  0.1688 -0.5627
  365MOL0     H49242   6.361  11.956   5.000 -1.7021  1.3153 -0.4715
  365MOL0     H49243   6.218  12.074   4.828  1.7336 -1.3421 -1.9504
  365MOL0     H49244   6.146  11.924   4.790 -0.7612 -1.5435  1.0617
  365MOL0     H49245   6.149  12.069   5.054 -0.0859  1.0666 -0.7061
  365MOL0     H49246   6.089  11.900   5.046  0.3862 -0.0668 -0.1354
  365MOL0     H49247   5.980  12.146   4.912 -0.2860 -0.3244 -0.0765
  365MOL0     H49248   5.918  11.973   4.891  4.1164 -0.9296 -1.1940
  365MOL0     H49249   5.941  12.136   5.144 -0.9110  1.9291 -0.8395
  365MOL0     H49250   5.856  11.981   5.148  0.9406  2.0869  2.0136
  365MOL0     H49251   5.772  12.233   5.005  1.0076 -0.4200 -0.2395
  365MOL0     H49252   5.685  12.080   4.996  1.0954 -1.3612  0.7416
  365MOL0     H49253   5.723  12.226   5.261 -1.2278 -0.5075  0.2673
  365MOL0     H49254   5.668  12.070   5.239  4.8060 -0.0265  0.8907
  365MOL0     H49255   5.529  12.269   5.058  0.8362 -0.3009 -0.8281
  365MOL0     H49256   5.491  12.281   5.234  1.0316  0.9346 -0.9067
  365MOL0     H49257   6.464  11.738   5.060  1.8544 -0.6463  1.9344
  365MOL0     H49258   6.683  11.682   5.120 -3.3435  2.9423  1.3464
  365MOL0     H49259   6.962  11.470   4.897 -1.7395  3.0975  1.3560
  365MOL0     H49260   7.116  11.252   4.900  0.9791 -0.4376  0.9566
  365MOL0     H49261   7.620   9.551   5.852 -1.1784  1.2750 -1.7992
  365MOL0     H49262   7.796   9.378   5.852 -3.3463 -0.1518  0.6042
  365MOL0     H49263   7.986   8.910   5.945 -2.1053 -0.8053 -0.9815
  365MOL0     H49264   8.163   8.747   5.884 -1.2158 -1.1082 -0.3746
  365MOL0     H49265   8.328   8.596   5.751 -0.3670 -1.6384 -1.9839
  365MOL0     H49266   8.473   8.625   5.671 -0.3564 -0.0399  0.1040
  365MOL0     H49267   8.391   8.793   5.914  0.9429 -0.1662  0.5568
  365MOL0     H49268   8.544   8.802   5.828 -0.2381  0.5206  2.4311
  365MOL0     H49269   8.435   8.566   5.994  0.6949  2.2007  1.9764
  365MOL0     H49270   8.556   8.690   6.037  1.0981 -1.4008  1.7613
  365MOL0     H49271   8.575   8.478   5.819  0.9203 -2.1498  0.2470
  365MOL0     H49272   8.634   8.471   5.986  1.0764  1.9104  1.3261
  365MOL0     H49273   8.914   8.739   5.810 -1.9650  2.7444 -1.8988
  365MOL0     H49274   8.177   8.911   5.490  0.5904  0.3027  0.5374
  365MOL0     H49275   7.986   9.046   5.530 -2.1376 -2.6342 -1.5142
  366MOL0     O49276   6.645   3.098   1.277 -0.3870  0.1459 -0.0774
  366MOL0     C49277   6.687   3.163   1.182 -0.0522 -0.2427 -0.5885
  366MOL0     O49278   6.659   3.139   1.046  0.0726  0.9164  0.2578
  366MOL0     C49279   6.563   3.042   1.009 -1.0561 -0.5600  0.2585
  366MOL0     C49280   6.444   3.081   0.962 -0.2102  0.3766 -0.4567
  366MOL0     C49281   6.356   2.990   0.910 -0.0446  0.7249 -0.0023
  366MOL0     C49282   6.374   2.850   0.935  0.3224  0.0844  0.7427
  366MOL0     O49283   6.272   2.766   0.889 -0.1043  0.3779  0.0520
  366MOL0     C49284   6.283   2.628   0.908  1.0141 -0.0822 -0.7573
  366MOL0     C49285   6.169   2.591   1.012  0.0195 -1.1285  0.5599
  366MOL0     C49286   6.133   2.434   1.022  0.5375 -0.4310  0.4849
  366MOL0     C49287   6.032   2.398   0.915  0.0500  0.0347 -0.3727
  366MOL0     C49288   6.006   2.245   0.917 -0.3972  0.2474  0.7629
  366MOL0     C49289   5.902   2.205   0.806  0.4786 -0.2184  0.2815
  366MOL0     C49290   5.755   2.226   0.859 -0.0028  0.9102  0.5993
  366MOL0     C49291   5.668   2.311   0.760 -0.1900  0.5855  0.1481
  366MOL0     N49292   5.735   2.437   0.700  0.3781 -0.8833 -0.2825
  366MOL0     C49293   5.703   2.561   0.751  0.0259  0.4346 -0.0160
  366MOL0     C49294   5.780   2.645   0.674 -0.5874  0.3926 -0.0481
  366MOL0     C49295   5.774   2.797   0.693  0.0373  0.3698 -0.0188
  366MOL0     C49296   5.861   2.833   0.814  0.3986 -0.1130 -0.0921
  366MOL0     C49297   5.858   2.984   0.854  0.1988  0.7272  0.0886
  366MOL0     C49298   5.931   3.078   0.768 -0.0892 -0.3297  0.8612
  366MOL0     O49299   5.930   3.214   0.822 -0.2637 -0.2431 -0.0114
  366MOL0     C49300   5.828   3.298   0.787 -0.3369  0.4222  0.0223
  366MOL0     C49301   5.831   3.424   0.845 -0.6999 -0.2864  0.8137
  366MOL0     C49302   5.729   3.508   0.832 -0.2591 -0.3808 -0.5144
  366MOL0     C49303   5.755   3.641   0.895 -0.2918  0.5151 -0.7388
  366MOL0     C49304   5.617   3.483   0.752 -0.4755  0.0365  0.6871
  366MOL0     C49305   5.509   3.582   0.728 -0.2143  0.7620 -0.6078
  366MOL0     O49306   5.477   3.665   0.832 -0.3286  0.0183 -0.0026
  366MOL0     C49307   5.357   3.735   0.826  0.4143  0.6583  0.3666
  366MOL0     C49308   5.245   3.677   0.902  0.1509 -0.9247  0.0037
  366MOL0     C49309   5.131   3.763   0.907  0.2201  0.8944  0.4799
  366MOL0     C49310   5.130   3.899   0.868 -0.6991 -0.8005  0.4480
  366MOL0     O49311   5.025   3.987   0.887  0.0036 -0.6646 -0.0444
  366MOL0     C49312   4.886   3.943   0.917  0.0959 -0.5137  0.4849
  366MOL0     C49313   4.797   4.043   0.860  0.3863 -0.2377  0.0794
  366MOL0     C49314   4.851   4.096   0.725  0.5795  0.5148 -0.3033
  366MOL0     C49315   4.735   4.155   0.636  0.1694 -0.3969 -0.2396
  366MOL0     C49316   4.705   4.299   0.670  0.3421 -0.4936 -0.7750
  366MOL0     C49317   4.656   4.381   0.556  0.2394 -0.9389 -0.1880
  366MOL0     C49318   4.737   4.368   0.427 -0.0364 -0.3548  0.2217
  366MOL0     C49319   4.697   4.463   0.316 -0.2293 -0.4372 -0.3181
  366MOL0    Cl49320   4.759   4.626   0.361  0.3269  0.2329  0.0439
  366MOL0     C49321   5.251   3.948   0.817  0.6687 -0.1013  0.1209
  366MOL0     C49322   5.360   3.866   0.793 -0.9991 -0.5396  0.4075
  366MOL0     O49323   5.437   3.555   0.634  0.3043 -0.6524  0.7670
  366MOL0     C49324   5.618   3.366   0.679 -0.5504  0.0355 -0.7060
  366MOL0     C49325   5.722   3.269   0.706 -0.1701 -0.2937 -0.3928
  366MOL0     N49326   5.858   2.567   0.588 -0.1107 -0.1870  1.0704
  366MOL0     N49327   5.823   2.447   0.596 -0.0875  0.2420 -0.4203
  366MOL0     C49328   6.496   2.808   0.994 -0.3328 -0.5628  0.4456
  366MOL0     C49329   6.597   2.903   1.022 -1.2840  0.0927 -0.3033
  366MOL0     C49330   6.793   3.273   1.218 -0.4732  0.3936  0.0519
  366MOL0     C49331   6.892   3.308   1.127  0.5869 -0.0958  0.2143
  366MOL0     C49332   6.965   3.421   1.150 -0.5734 -0.0182 -0.1090
  366MOL0     C49333   6.936   3.504   1.264 -0.7013 -0.5859 -0.0077
  366MOL0     O49334   6.993   3.629   1.306 -1.2228  0.2534  0.0751
  366MOL0     C49335   7.086   3.686   1.223 -0.2461 -0.4290  0.3223
  366MOL0     C49336   7.229   3.642   1.275  0.8970 -0.1802 -0.4298
  366MOL0     C49337   7.340   3.652   1.170  0.2104  0.3632 -0.0426
  366MOL0     C49338   7.480   3.616   1.229 -0.0848  0.8319  0.0101
  366MOL0     C49339   7.572   3.571   1.122 -0.0373 -0.1057  0.2931
  366MOL0     C49340   7.625   3.536   1.011 -0.9613 -0.1001 -0.4979
  366MOL0     C49341   6.840   3.465   1.361 -0.5115  0.1063  0.8574
  366MOL0     C49342   6.761   3.355   1.330 -0.6226  0.1085  0.4740
  366MOL0     H49343   6.429   3.187   0.944 -0.8744  0.5084  0.7906
  366MOL0     H49344   6.264   3.019   0.859  0.1561  0.4293 -0.5438
  366MOL0     H49345   6.263   2.573   0.815 -1.4647  1.3704 -1.1910
  366MOL0     H49346   6.378   2.602   0.954  0.7820  2.0325  1.0859
  366MOL0     H49347   6.194   2.637   1.108 -1.4699 -0.4896  0.6555
  366MOL0     H49348   6.086   2.650   0.972  0.3422 -1.1149 -0.1165
  366MOL0     H49349   6.215   2.366   0.998  0.1683 -0.1228 -1.8871
  366MOL0     H49350   6.074   2.416   1.113 -1.4949  1.9809 -0.2264
  366MOL0     H49351   5.943   2.460   0.932  0.3972  0.1040  1.2699
  366MOL0     H49352   6.071   2.426   0.816 -0.6297  1.6087 -0.2343
  366MOL0     H49353   6.103   2.194   0.906  1.0800  2.6717  1.7382
  366MOL0     H49354   5.971   2.208   1.013 -0.5079 -1.9861 -0.0708
  366MOL0     H49355   5.927   2.270   0.721  1.3315 -0.7770  0.0992
  366MOL0     H49356   5.931   2.107   0.767  2.7283  1.1797 -1.8464
  366MOL0     H49357   5.708   2.130   0.881 -1.3838  1.5438  0.5584
  366MOL0     H49358   5.751   2.280   0.954  0.0725  2.4037 -0.2108
  366MOL0     H49359   5.569   2.329   0.803 -0.4843 -1.5230  0.4973
  366MOL0     H49360   5.669   2.238   0.678  4.1673 -0.9015  1.2190
  366MOL0     H49361   5.636   2.590   0.832 -2.3716 -0.5470 -1.5253
  366MOL0     H49362   5.819   2.837   0.602  2.4319 -0.4453  0.7136
  366MOL0     H49363   5.675   2.843   0.694 -0.6319 -0.9804  1.3509
  366MOL0     H49364   5.969   2.814   0.810  0.8501  2.1283  0.1048
  366MOL0     H49365   5.810   2.783   0.897 -2.3587  3.6156  0.7048
  366MOL0     H49366   5.888   2.996   0.958 -1.6396  2.5656  0.4893
  366MOL0     H49367   5.751   3.009   0.851  0.0527  0.0941  0.0063
  366MOL0     H49368   5.888   3.071   0.668  0.7016  2.7123  0.1884
  366MOL0     H49369   6.038   3.059   0.759  0.4187  1.4851  2.2847
  366MOL0     H49370   5.924   3.457   0.889 -0.0382  0.5693 -1.0947
  366MOL0     H49371   5.692   3.721   0.853 -1.2524 -0.2226 -0.7559
  366MOL0     H49372   5.746   3.641   1.004 -0.6068 -2.0549 -0.6955
  366MOL0     H49373   5.857   3.674   0.875 -1.5196  4.4436 -1.4678
  366MOL0     H49374   5.243   3.577   0.943  1.1119 -1.6616 -1.6408
  366MOL0     H49375   5.046   3.724   0.962  0.1989  1.5398  0.9229
  366MOL0     H49376   4.864   3.846   0.872 -0.2741  0.9203 -2.7472
  366MOL0     H49377   4.868   3.931   1.024  0.0918 -0.5514  0.4799
  366MOL0     H49378   4.700   3.996   0.845 -0.5981  1.0550  1.9831
  366MOL0     H49379   4.783   4.118   0.938  1.9530 -2.1798  2.4051
  366MOL0     H49380   4.885   4.005   0.675 -0.3541 -0.0431  0.0504
  366MOL0     H49381   4.932   4.168   0.737 -1.3012  2.6892 -0.0419
  366MOL0     H49382   4.777   4.159   0.535 -0.4866  1.8915 -0.4772
  366MOL0     H49383   4.642   4.098   0.649 -0.9022  0.3210 -3.7852
  366MOL0     H49384   4.793   4.358   0.699 -0.8973  0.1216  2.0724
  366MOL0     H49385   4.644   4.311   0.760  0.4193  0.9247 -0.8927
  366MOL0     H49386   4.557   4.349   0.521  0.2932 -0.8752 -0.4016
  366MOL0     H49387   4.652   4.487   0.584  1.1029 -0.7445 -0.7525
  366MOL0     H49388   4.709   4.271   0.385  0.6566 -0.4426 -0.0377
  366MOL0     H49389   4.842   4.376   0.455  0.6825  0.6125 -2.4065
  366MOL0     H49390   4.589   4.471   0.328 -0.1808 -0.6947  0.3551
  366MOL0     H49391   4.731   4.431   0.217  6.3158  3.7056 -0.0476
  366MOL0     H49392   5.253   4.056   0.814  1.8189 -0.0972  0.5890
  366MOL0     H49393   5.453   3.912   0.761 -0.4243 -1.8509  0.0971
  366MOL0     H49394   5.535   3.332   0.619 -2.3071  0.0333  1.5739
  366MOL0     H49395   5.711   3.170   0.663 -2.1773  0.8714 -2.8022
  366MOL0     H49396   6.517   2.704   1.019 -1.4815 -0.9067  0.0386
  366MOL0     H49397   6.695   2.878   1.063 -1.1226 -1.5254 -1.5812
  366MOL0     H49398   6.906   3.258   1.032  0.0052 -0.6946  0.4270
  366MOL0     H49399   7.052   3.440   1.088  0.7671  1.3730  2.0317
  366MOL0     H49400   7.077   3.646   1.122  2.0431 -2.3970  0.7980
  366MOL0     H49401   7.087   3.796   1.220  1.6668 -0.2161  3.6893
  366MOL0     H49402   7.233   3.536   1.304  1.5974  0.8957  4.0983
  366MOL0     H49403   7.254   3.699   1.365 -2.9296  0.9724  0.0532
  366MOL0     H49404   7.339   3.756   1.136  1.3089  0.8949  1.4237
  366MOL0     H49405   7.321   3.593   1.081  2.4680  0.8541 -0.9351
  366MOL0     H49406   7.480   3.533   1.301  2.5586  0.5940 -0.1720
  366MOL0     H49407   7.524   3.704   1.275  1.4397 -0.1249  0.4459
  366MOL0     H49408   7.668   3.497   0.921 -2.6744  1.1048 -1.9254
  366MOL0     H49409   6.834   3.528   1.449  0.9190  1.8109 -0.2010
  366MOL0     H49410   6.678   3.327   1.394 -1.4612 -3.0472 -1.7297
  367MOL0     O49411   3.401   9.856   2.978 -0.0466 -0.3741 -0.0652
  367MOL0     C49412   3.390   9.757   2.904 -0.2950  0.1759  0.0061
  367MOL0     O49413   3.474   9.720   2.798  0.2576  0.2507  0.0363
  367MOL0     C49414   3.571   9.798   2.740 -0.5043  0.0735 -0.4705
  367MOL0     C49415   3.581   9.935   2.757 -0.0651  0.1205  0.9897
  367MOL0     C49416   3.672  10.005   2.677 -0.6223  0.5051 -0.0701
  367MOL0     C49417   3.753   9.940   2.585  0.8618 -0.3401 -0.5028
  367MOL0     O49418   3.823  10.016   2.506 -0.1372  0.6409  0.0024
  367MOL0     C49419   3.765  10.040   2.377  0.3432  1.1441 -0.1534
  367MOL0     C49420   3.885  10.055   2.281 -0.0547  0.9712 -0.0502
  367MOL0     C49421   3.861  10.036   2.127  0.1768  0.8122 -0.7495
  367MOL0     C49422   3.979  10.095   2.051  0.1407 -0.1486  0.5877
  367MOL0     C49423   3.979  10.052   1.895  0.1497  0.6988  0.0353
  367MOL0     C49424   4.070  10.134   1.814 -0.5310 -0.3820  0.1871
  367MOL0     C49425   4.080  10.091   1.672 -1.4807  0.2982  0.4147
  367MOL0     C49426   4.201  10.168   1.596 -0.1362 -0.0009 -0.7537
  367MOL0     N49427   4.331  10.107   1.613 -0.7888 -0.6925 -0.2210
  367MOL0     C49428   4.425  10.134   1.714  1.0929 -0.4994  0.5677
  367MOL0     C49429   4.542  10.088   1.656  0.0089 -0.7622  0.7335
  367MOL0     C49430   4.677  10.108   1.720 -0.0170  0.8638 -0.3202
  367MOL0     C49431   4.789  10.037   1.657 -0.0470 -0.9239 -0.1826
  367MOL0     C49432   4.925  10.073   1.697 -0.3703  1.0634  0.2727
  367MOL0     C49433   5.018  10.125   1.581 -0.4474 -0.1135 -0.5102
  367MOL0     O49434   5.150  10.179   1.629 -0.8862  0.8714 -0.2110
  367MOL0     C49435   5.223  10.122   1.739  0.6169  0.4658  0.0880
  367MOL0     C49436   5.306  10.007   1.709  0.3479 -0.1620  0.0976
  367MOL0     C49437   5.390   9.949   1.815  0.8806  0.0302  0.5586
  367MOL0     C49438   5.464   9.827   1.781  0.2825  0.3793  0.4097
  367MOL0     C49439   5.386  10.007   1.942  1.0968  0.0794 -0.1455
  367MOL0     C49440   5.468   9.971   2.061 -1.2971 -0.2837  0.9423
  367MOL0     O49441   5.416  10.004   2.178 -0.0115  0.1198 -0.4130
  367MOL0     C49442   5.504  10.034   2.289  0.9536  0.4851 -0.5192
  367MOL0     C49443   5.451  10.012   2.414 -0.1674 -0.3513 -0.1651
  367MOL0     C49444   5.526  10.058   2.526  0.5331  0.6695 -0.7684
  367MOL0     C49445   5.658  10.108   2.513 -0.3350 -0.5761  0.0138
  367MOL0     O49446   5.733  10.128   2.626 -0.5351 -0.1825 -0.4158
  367MOL0     C49447   5.776  10.006   2.684 -0.5708 -0.3674 -0.8960
  367MOL0     C49448   5.874  10.060   2.792 -0.1166  0.6053  0.0457
  367MOL0     C49449   5.791  10.115   2.914 -0.0058  0.7399  0.1702
  367MOL0     C49450   5.871  10.206   3.009 -0.1764 -0.2357 -0.3568
  367MOL0     C49451   5.780  10.246   3.129 -0.4490 -0.6711  0.7866
  367MOL0     C49452   5.844  10.331   3.246 -0.0119  0.4699 -0.0347
  367MOL0     C49453   5.743  10.407   3.337  0.1859 -0.7163  1.0808
  367MOL0     C49454   5.812  10.494   3.428 -0.3718 -0.3669 -0.9134
  367MOL0    Cl49455   5.923  10.415   3.553 -0.2119  0.0085 -0.2701
  367MOL0     C49456   5.710  10.122   2.389 -0.0883  0.0345 -0.5072
  367MOL0     C49457   5.631  10.095   2.275  0.8051 -0.1703  0.1500
  367MOL0     O49458   5.580   9.912   2.049  0.7827 -0.2448  0.1205
  367MOL0     C49459   5.315  10.124   1.962 -0.1728  0.6142 -0.0235
  367MOL0     C49460   5.233  10.174   1.858 -0.7921  0.1629  1.0839
  367MOL0     N49461   4.525  10.025   1.534  0.0106 -1.0845  0.0446
  367MOL0     N49462   4.392  10.035   1.517  0.0977 -0.2370  0.9171
  367MOL0     C49463   3.741   9.805   2.574  0.4379 -0.4881  0.3711
  367MOL0     C49464   3.644   9.735   2.639 -0.0641  0.2833 -0.8437
  367MOL0     C49465   3.281   9.658   2.936 -0.0645 -0.6567 -0.0581
  367MOL0     C49466   3.302   9.555   3.029  0.4901  0.2717 -0.1328
  367MOL0     C49467   3.186   9.480   3.076 -1.0524  0.4641  0.0312
  367MOL0     C49468   3.056   9.514   3.022 -0.6795 -0.4367 -0.5043
  367MOL0     O49469   2.948   9.446   3.068  0.2679  0.1520 -0.5080
  367MOL0     C49470   2.819   9.501   3.054 -0.4243  1.2919  0.9812
  367MOL0     C49471   2.720   9.446   3.162  0.4845  1.0038  0.0545
  367MOL0     C49472   2.758   9.487   3.312  0.1721  0.0820  1.0680
  367MOL0     C49473   2.670   9.419   3.422  0.7790  0.6986 -0.4889
  367MOL0     C49474   2.732   9.440   3.556  0.0144 -0.0865  0.2159
  367MOL0     C49475   2.763   9.474   3.674 -0.1648  0.5916  0.5720
  367MOL0     C49476   3.046   9.588   2.913  0.2455 -0.3947  0.6912
  367MOL0     C49477   3.160   9.661   2.869  0.7827  0.0319 -0.1550
  367MOL0     H49478   3.525  10.004   2.821 -0.2729  0.9777 -0.0943
  367MOL0     H49479   3.684  10.112   2.691  0.2376  0.3486  0.4533
  367MOL0     H49480   3.702   9.961   2.333 -0.6414  0.9898  1.4457
  367MOL0     H49481   3.704  10.131   2.376 -1.4119  0.0486  0.7178
  367MOL0     H49482   3.930  10.153   2.295  3.9156 -0.1451 -3.0849
  367MOL0     H49483   3.956   9.981   2.317 -0.0184  1.8216  1.6857
  367MOL0     H49484   3.829   9.934   2.102 -0.8572  0.7322  0.7711
  367MOL0     H49485   3.777  10.094   2.087  1.5514  1.6618 -2.5815
  367MOL0     H49486   3.976  10.203   2.062  3.1916  0.1748 -0.6951
  367MOL0     H49487   4.072  10.052   2.090  1.9827  3.3450  0.4343
  367MOL0     H49488   4.002   9.945   1.890  4.5828  1.4651 -0.4119
  367MOL0     H49489   3.879  10.068   1.856  0.7911 -0.9402 -2.4930
  367MOL0     H49490   4.064  10.243   1.824 -0.2217 -0.4607  1.4557
  367MOL0     H49491   4.170  10.118   1.855  1.4710  1.6555 -3.3660
  367MOL0     H49492   4.074   9.984   1.651 -3.4562  0.3954  0.2846
  367MOL0     H49493   3.994  10.134   1.618 -1.3572  0.8603  0.6681
  367MOL0     H49494   4.213  10.268   1.638  1.0538 -0.1212 -0.7866
  367MOL0     H49495   4.172  10.182   1.491 -1.7870  1.0319 -0.1963
  367MOL0     H49496   4.418  10.204   1.797 -1.4852  1.0790 -0.8357
  367MOL0     H49497   4.702  10.214   1.713  1.4843  0.5146 -0.4400
  367MOL0     H49498   4.665  10.094   1.827 -0.4699  4.1111  0.1611
  367MOL0     H49499   4.779  10.055   1.550 -2.3726  1.4230  0.3242
  367MOL0     H49500   4.775   9.930   1.676 -3.0035 -0.2035  2.5840
  367MOL0     H49501   4.965   9.978   1.733 -2.2603  0.1420  0.0367
  367MOL0     H49502   4.936  10.143   1.780  1.6405  2.7457 -1.3051
  367MOL0     H49503   4.971  10.209   1.528 -1.6900 -0.8493 -0.6310
  367MOL0     H49504   5.036  10.045   1.510  0.4235  0.9288 -1.5015
  367MOL0     H49505   5.304   9.970   1.607 -0.3531  0.8020 -0.2534
  367MOL0     H49506   5.418   9.748   1.842 -0.3675  0.3836 -0.0609
  367MOL0     H49507   5.441   9.804   1.676  1.5464  0.0305  0.1960
  367MOL0     H49508   5.572   9.833   1.796  0.5757 -0.6038 -1.0924
  367MOL0     H49509   5.354   9.966   2.429 -1.0400  1.3545 -0.3757
  367MOL0     H49510   5.497  10.048   2.631 -0.6636  0.6490 -1.0883
  367MOL0     H49511   5.692   9.957   2.734  0.4461 -2.0511 -0.7728
  367MOL0     H49512   5.822   9.933   2.618  1.2507  3.2233 -3.9418
  367MOL0     H49513   5.940   9.977   2.817  0.0039  0.3053 -1.1962
  367MOL0     H49514   5.937  10.145   2.764 -0.2374  0.5239 -0.4780
  367MOL0     H49515   5.754  10.026   2.965  2.2368 -0.3601 -0.0359
  367MOL0     H49516   5.710  10.173   2.868  0.0167 -0.4018 -1.3739
  367MOL0     H49517   5.965  10.152   3.025  1.2977  1.1786 -3.4172
  367MOL0     H49518   5.911  10.297   2.964 -4.0689 -0.1522 -4.2756
  367MOL0     H49519   5.731  10.153   3.157 -3.2392  0.1305 -1.0173
  367MOL0     H49520   5.702  10.306   3.081  2.3100  1.0581 -1.9407
  367MOL0     H49521   5.885  10.258   3.317 -0.4890  1.2946  1.1197
  367MOL0     H49522   5.923  10.395   3.205 -0.8155  0.1017 -2.2683
  367MOL0     H49523   5.683  10.340   3.399 -0.2776 -1.0397  0.2962
  367MOL0     H49524   5.675  10.472   3.281  2.0474 -1.2764 -2.0776
  367MOL0     H49525   5.728  10.542   3.480 -0.6950 -1.2897 -0.5465
  367MOL0     H49526   5.856  10.575   3.369 -0.9791 -0.1369 -1.0616
  367MOL0     H49527   5.812  10.159   2.384 -0.0803 -0.0205 -0.7577
  367MOL0     H49528   5.670  10.108   2.175 -2.2676 -2.0594 -1.4234
  367MOL0     H49529   5.312  10.182   2.054 -0.8108  1.1741 -0.3903
  367MOL0     H49530   5.156  10.249   1.876 -0.0253  0.9259  1.2545
  367MOL0     H49531   3.810   9.771   2.498  1.4839 -0.9909  1.4987
  367MOL0     H49532   3.627   9.633   2.605  3.5062 -0.0063 -2.1777
  367MOL0     H49533   3.393   9.549   3.087 -1.3131  3.3137  3.5155
  367MOL0     H49534   3.191   9.404   3.153 -2.6370 -1.4207 -1.5968
  367MOL0     H49535   2.832   9.610   3.064  2.7287  0.9682  1.3549
  367MOL0     H49536   2.780   9.474   2.956 -3.5019  1.2337  2.1326
  367MOL0     H49537   2.710   9.337   3.158 -3.2861  1.2440 -1.1696
  367MOL0     H49538   2.621   9.484   3.134 -1.4182 -1.6698  2.5736
  367MOL0     H49539   2.760   9.596   3.302  3.6678  0.0832  0.3020
  367MOL0     H49540   2.863   9.458   3.317  0.3023 -0.0036 -1.0461
  367MOL0     H49541   2.658   9.310   3.414 -0.5118  0.7154  0.7037
  367MOL0     H49542   2.570   9.464   3.429  1.0565  1.0606  3.1058
  367MOL0     H49543   2.785   9.523   3.766 -0.3226  1.6919  0.0416
  367MOL0     H49544   2.951   9.597   2.862  0.5598  1.3134  0.3435
  367MOL0     H49545   3.145   9.727   2.784  2.9924  1.8778  0.8032
  368MOL0     O49546  10.958   4.431   7.977  0.4107 -0.3893  0.8762
  368MOL0     C49547  10.988   4.438   8.097 -1.4098  0.5199  0.1510
  368MOL0     O49548  11.103   4.385   8.147  0.8630 -0.0705  0.1936
  368MOL0     C49549  11.200   4.323   8.060  0.6879 -0.1682 -0.1599
  368MOL0     C49550  11.165   4.222   7.966  0.2588  0.0873 -0.4393
  368MOL0     C49551  11.271   4.149   7.914  0.5892  0.2786 -0.0319
  368MOL0     C49552  11.402   4.166   7.946 -0.2794  0.0387  0.4209
  368MOL0     O49553  11.482   4.076   7.883  1.0003  1.0905  0.4383
  368MOL0     C49554  11.602   4.145   7.865 -0.9164  0.2455 -0.3434
  368MOL0     C49555  11.688   4.067   7.767 -0.0296 -0.3403 -0.3058
  368MOL0     C49556  11.756   3.946   7.819  0.2325  0.5998 -0.3275
  368MOL0     C49557  11.848   3.875   7.702  0.6400  0.7317 -0.1561
  368MOL0     C49558  11.945   3.785   7.783  0.0317 -0.0141  0.4410
  368MOL0     C49559  12.035   3.700   7.691  0.6946  0.0128  0.6240
  368MOL0     C49560  12.154   3.769   7.624 -0.5788 -0.3601 -0.4713
  368MOL0     C49561  12.228   3.660   7.552 -1.2814 -0.3400  0.7081
  368MOL0     N49562  12.153   3.592   7.440  0.2765 -0.4998 -0.2529
  368MOL0     C49563  12.082   3.477   7.449 -0.1804 -0.2845 -0.3393
  368MOL0     C49564  12.066   3.428   7.322  0.0775  0.8547 -0.1520
  368MOL0     C49565  11.975   3.323   7.278  0.6364  0.7671 -0.5152
  368MOL0     C49566  12.004   3.190   7.360  0.1240 -0.0355 -0.4005
  368MOL0     C49567  11.957   3.061   7.294  0.0904 -0.6221 -1.3123
  368MOL0     C49568  11.820   3.063   7.247  0.3455  0.2552  0.2244
  368MOL0     O49569  11.798   3.129   7.119 -1.4382 -0.5411  0.4259
  368MOL0     C49570  11.810   3.050   7.003  0.2996 -0.9831  0.9964
  368MOL0     C49571  11.842   2.915   6.994  0.5181  0.5882 -0.2939
  368MOL0     C49572  11.847   2.852   6.875  0.2719 -0.2637 -0.1082
  368MOL0     C49573  11.867   2.705   6.885 -0.0080 -0.0448  0.1968
  368MOL0     C49574  11.822   2.920   6.752  0.1420 -0.3356 -0.6113
  368MOL0     C49575  11.789   2.840   6.630  0.1389 -0.3150  0.7111
  368MOL0     O49576  11.861   2.871   6.517 -1.1941  0.2243  0.2848
  368MOL0     C49577  11.872   2.768   6.429 -0.1006 -0.1171 -0.2391
  368MOL0     C49578  11.808   2.771   6.304  0.8633  0.7773  0.1346
  368MOL0     C49579  11.834   2.679   6.207  0.8490 -0.1547  0.4826
  368MOL0     C49580  11.903   2.560   6.230  0.2949  0.1979 -0.3713
  368MOL0     O49581  11.921   2.476   6.128 -0.0442  0.4634  0.6271
  368MOL0     C49582  12.045   2.404   6.129  0.0923  1.0922  0.1845
  368MOL0     C49583  12.062   2.367   5.980 -0.2435 -0.3904  0.8903
  368MOL0     C49584  12.092   2.217   5.986 -0.1306  1.4684 -0.1883
  368MOL0     C49585  12.187   2.173   5.875  0.1901 -0.6159 -1.2403
  368MOL0     C49586  12.178   2.237   5.733  0.0698 -0.1886  0.2535
  368MOL0     C49587  12.046   2.247   5.660 -0.5472  0.3806  0.0150
  368MOL0     C49588  12.069   2.298   5.512  0.1837 -0.4229  0.3637
  368MOL0     C49589  12.078   2.445   5.491 -0.3369  0.7754 -0.4382
  368MOL0    Cl49590  12.139   2.463   5.325 -0.0540  0.2214 -0.4217
  368MOL0     C49591  11.960   2.549   6.363  0.1324  0.1722  0.4157
  368MOL0     C49592  11.947   2.650   6.463 -0.2136 -0.1576 -0.1613
  368MOL0     O49593  11.695   2.757   6.636 -1.0275  0.9887  0.6578
  368MOL0     C49594  11.803   3.059   6.755 -0.5480 -0.4011  0.1092
  368MOL0     C49595  11.804   3.115   6.882 -0.3448 -0.4317 -0.0655
  368MOL0     N49596  12.132   3.525   7.243 -0.3483  0.0829  0.7312
  368MOL0     N49597  12.176   3.624   7.312 -0.0156 -0.5457  0.0292
  368MOL0     C49598  11.437   4.287   8.022 -0.3277  1.0210 -0.8453
  368MOL0     C49599  11.337   4.353   8.084  1.0669  0.1113  0.6770
  368MOL0     C49600  10.883   4.495   8.189 -0.6479 -0.0128  1.1305
  368MOL0     C49601  10.752   4.500   8.140  0.0269 -0.6847  0.6784
  368MOL0     C49602  10.660   4.555   8.224  0.3398  0.9150 -1.1060
  368MOL0     C49603  10.694   4.601   8.351 -0.8166 -0.0698  0.8994
  368MOL0     O49604  10.606   4.660   8.441 -0.1839 -0.0313 -0.3380
  368MOL0     C49605  10.548   4.779   8.417 -0.1286  0.1529  0.1730
  368MOL0     C49606  10.487   4.853   8.545 -0.0134 -0.2195  1.0504
  368MOL0     C49607  10.594   4.886   8.648  0.7271  0.6101  0.7796
  368MOL0     C49608  10.690   5.001   8.623 -0.1150 -0.2151  0.0012
  368MOL0     C49609  10.636   5.130   8.666 -0.1056 -0.5113  0.1567
  368MOL0     C49610  10.586   5.235   8.703  0.9856  0.0548  0.2874
  368MOL0     C49611  10.822   4.580   8.395  0.8529 -0.3083 -0.5717
  368MOL0     C49612  10.925   4.532   8.318 -0.4958  0.1660 -0.0482
  368MOL0     H49613  11.065   4.186   7.944  0.3634  0.4602 -1.5712
  368MOL0     H49614  11.248   4.070   7.844  1.6106 -0.9565  0.9880
  368MOL0     H49615  11.585   4.246   7.828  0.4360  0.9059  0.7465
  368MOL0     H49616  11.657   4.138   7.959 -2.4093 -1.2127  0.4928
  368MOL0     H49617  11.616   4.054   7.686 -2.2596  4.4887  0.5999
  368MOL0     H49618  11.761   4.140   7.733  1.8550 -0.1883  3.4684
  368MOL0     H49619  11.840   3.969   7.886  0.9213 -1.7638 -0.2846
  368MOL0     H49620  11.687   3.872   7.860  1.1188  0.0680  0.2546
  368MOL0     H49621  11.794   3.820   7.624  0.3694 -0.6014  0.9520
  368MOL0     H49622  11.903   3.946   7.639  0.1318  0.8579 -0.4637
  368MOL0     H49623  12.006   3.836   7.857 -1.0212 -1.4177  2.3586
  368MOL0     H49624  11.872   3.710   7.815 -0.6962  0.1827 -0.6914
  368MOL0     H49625  12.070   3.616   7.751 -3.0148 -4.1079 -2.3487
  368MOL0     H49626  11.964   3.659   7.619  0.6029  0.8599  0.2239
  368MOL0     H49627  12.133   3.859   7.564  2.4845  0.4298 -0.5311
  368MOL0     H49628  12.221   3.807   7.702 -1.3559  1.2340 -0.5470
  368MOL0     H49629  12.262   3.582   7.621  0.4815 -1.0601 -0.8653
  368MOL0     H49630  12.316   3.703   7.503 -2.6064 -0.0877 -1.5590
  368MOL0     H49631  12.026   3.445   7.536 -0.2978  0.4720 -0.1288
  368MOL0     H49632  11.869   3.349   7.287  0.2317  0.1044 -2.6630
  368MOL0     H49633  11.988   3.315   7.169  1.1110  2.2752 -0.5965
  368MOL0     H49634  11.962   3.211   7.459  1.1641  2.1166 -0.3422
  368MOL0     H49635  12.111   3.171   7.372  0.6638  0.1195 -3.9644
  368MOL0     H49636  11.964   2.988   7.376  0.4414  0.6655 -0.1604
  368MOL0     H49637  12.030   3.026   7.220  1.8535  1.9430 -0.8911
  368MOL0     H49638  11.759   3.109   7.326 -1.3209 -3.2756  1.2206
  368MOL0     H49639  11.785   2.959   7.241 -2.3263  1.1041 -0.1468
  368MOL0     H49640  11.864   2.866   7.088 -0.0743  0.2296 -0.3362
  368MOL0     H49641  11.910   2.678   6.982  2.5149 -0.3800 -0.9287
  368MOL0     H49642  11.767   2.665   6.868 -0.7278  1.8019 -0.0741
  368MOL0     H49643  11.935   2.657   6.813 -0.9414 -0.7503 -0.2378
  368MOL0     H49644  11.745   2.857   6.281 -0.9459  0.5915  3.7129
  368MOL0     H49645  11.790   2.693   6.109 -2.1920  1.7546  1.9617
  368MOL0     H49646  12.126   2.468   6.165  0.0319  2.1911 -1.5325
  368MOL0     H49647  12.033   2.323   6.201 -2.5033  1.7500  0.5779
  368MOL0     H49648  11.977   2.397   5.919  1.1119 -0.1216 -0.9752
  368MOL0     H49649  12.151   2.417   5.941  0.2280 -0.2016  2.1671
  368MOL0     H49650  12.000   2.158   5.981  0.2823  0.9000 -1.6321
  368MOL0     H49651  12.148   2.192   6.077 -1.2209 -0.0986  0.1002
  368MOL0     H49652  12.283   2.210   5.912 -1.9093  3.0794  1.0663
  368MOL0     H49653  12.189   2.063   5.873  0.3372 -0.9384  3.9525
  368MOL0     H49654  12.250   2.183   5.670 -2.6404 -3.9218 -0.0043
  368MOL0     H49655  12.213   2.338   5.754 -0.3524 -0.6729  3.8511
  368MOL0     H49656  11.997   2.150   5.654 -1.2059  0.6987  0.1439
  368MOL0     H49657  11.991   2.325   5.714  1.5992  2.9624 -1.2723
  368MOL0     H49658  11.988   2.265   5.445 -2.3827  0.5005  2.8321
  368MOL0     H49659  12.164   2.266   5.468 -1.6127 -0.5337 -4.0681
  368MOL0     H49660  12.157   2.476   5.561 -0.8397 -0.9474  0.9797
  368MOL0     H49661  11.985   2.494   5.520  0.8603  3.5570 -0.9734
  368MOL0     H49662  12.006   2.459   6.403 -2.7589 -1.1702  0.9873
  368MOL0     H49663  12.004   2.634   6.554  1.5703 -0.3529 -1.2709
  368MOL0     H49664  11.779   3.111   6.663 -2.8564  0.7043  1.2376
  368MOL0     H49665  11.794   3.222   6.900  1.4914 -0.5963  2.4617
  368MOL0     H49666  11.539   4.313   8.046  0.5780 -4.6993  3.6570
  368MOL0     H49667  11.361   4.428   8.158  0.0612 -0.7515  1.9300
  368MOL0     H49668  10.721   4.468   8.041  1.3969 -2.7305  0.8607
  368MOL0     H49669  10.557   4.567   8.192  0.3857  6.6926 -0.2955
  368MOL0     H49670  10.612   4.851   8.365 -0.1745  0.1693  0.1390
  368MOL0     H49671  10.469   4.774   8.341  1.6897  0.0603 -1.8253
  368MOL0     H49672  10.417   4.786   8.596  0.7468 -2.4098 -0.6282
  368MOL0     H49673  10.431   4.939   8.507 -0.2752 -1.6145 -2.0582
  368MOL0     H49674  10.659   4.798   8.659  2.8813  1.7596 -1.8344
  368MOL0     H49675  10.557   4.896   8.751  0.1640 -1.2701  0.8003
  368MOL0     H49676  10.738   5.017   8.526  3.4204 -3.7360  0.8714
  368MOL0     H49677  10.779   4.978   8.683  1.1218 -0.2121 -1.7623
  368MOL0     H49678  10.537   5.323   8.740 -0.3372 -0.1128 -1.0071
  368MOL0     H49679  10.846   4.608   8.497  1.0151  0.1994 -0.7453
  368MOL0     H49680  11.023   4.527   8.365 -1.5773 -0.4167  2.2619
  369MOL0     O49681   9.835   1.017   0.185  0.6809  0.6466 -0.0782
  369MOL0     C49682   9.736   0.960   0.153  0.6696  0.0417  0.3268
  369MOL0     O49683   9.614   1.005   0.164 -0.3934 -0.3070  0.0945
  369MOL0     C49684   9.574   1.131   0.208  0.4443 -0.0407  0.4937
  369MOL0     C49685   9.445   1.158   0.197 -0.0617  0.4501 -0.6459
  369MOL0     C49686   9.386   1.278   0.224  0.0058 -0.1158  0.0913
  369MOL0     C49687   9.463   1.373   0.282  0.2764 -1.0605  0.0118
  369MOL0     O49688   9.409   1.487   0.332  0.2955  0.5004  0.8481
  369MOL0     C49689   9.387   1.489   0.468 -0.0629  0.1171  0.9193
  369MOL0     C49690   9.309   1.611   0.508  0.0081  0.4294 -0.1389
  369MOL0     C49691   9.388   1.743   0.473 -0.4886 -0.0282 -1.2049
  369MOL0     C49692   9.376   1.779   0.319  0.1006  0.3592  0.0502
  369MOL0     C49693   9.398   1.930   0.301 -0.0790  0.6675 -0.2053
  369MOL0     C49694   9.542   1.976   0.335  0.7142  0.2806 -0.0995
  369MOL0     C49695   9.569   2.115   0.267  0.6101 -1.3668  0.5206
  369MOL0     C49696   9.716   2.154   0.253  0.2520 -0.5365 -0.2054
  369MOL0     N49697   9.738   2.286   0.198  0.1405  0.4514  0.6844
  369MOL0     C49698   9.758   2.328   0.069 -0.0887  0.4113 -0.1989
  369MOL0     C49699   9.752   2.468   0.073  1.3027  0.5009  0.2246
  369MOL0     C49700   9.782   2.571  -0.033  1.0879 -0.1682  0.4753
  369MOL0     C49701   9.723   2.532  -0.166  0.4507  0.0540 -0.2356
  369MOL0     C49702   9.718   2.641  -0.272 -0.8764 -0.4246 -0.0888
  369MOL0     C49703   9.667   2.604  -0.418  0.0694  0.1776  0.0755
  369MOL0     O49704   9.673   2.726  -0.498 -0.9983 -0.2328  0.2004
  369MOL0     C49705   9.583   2.743  -0.601 -1.0218  0.2180  0.1327
  369MOL0     C49706   9.554   2.866  -0.657 -0.8444 -0.0221 -0.2097
  369MOL0     C49707   9.490   2.883  -0.791 -0.3299 -0.4609  0.0314
  369MOL0     C49708   9.477   3.015  -0.852 -0.6850 -0.4542 -0.6047
  369MOL0     C49709   9.440   2.763  -0.843  0.5537 -0.0445  0.7535
  369MOL0     C49710   9.366   2.752  -0.967 -0.0198 -1.8105  1.2831
  369MOL0     O49711   9.268   2.835  -0.996 -0.3479  0.2360  0.4873
  369MOL0     C49712   9.187   2.802  -1.096 -0.0580  0.6859  0.0862
  369MOL0     C49713   9.162   2.885  -1.201 -1.1879 -0.8920 -0.4452
  369MOL0     C49714   9.077   2.864  -1.301  0.5559 -0.2318  0.9531
  369MOL0     C49715   8.998   2.747  -1.310 -0.8109 -0.7784 -1.1820
  369MOL0     O49716   8.902   2.718  -1.396  0.2059  0.7731  0.5944
  369MOL0     C49717   8.885   2.806  -1.505 -0.1500  0.6013  0.0809
  369MOL0     C49718   8.769   2.757  -1.585  0.1275 -0.1436 -0.8311
  369MOL0     C49719   8.789   2.620  -1.642 -0.5858 -0.0560  0.7669
  369MOL0     C49720   8.726   2.600  -1.778  0.3782  0.6272  0.1187
  369MOL0     C49721   8.757   2.476  -1.873 -0.0441 -0.2097  0.3532
  369MOL0     C49722   8.901   2.465  -1.910  0.1735 -1.2505  0.9563
  369MOL0     C49723   8.924   2.322  -1.958 -0.8829  0.0764  0.2065
  369MOL0     C49724   8.911   2.218  -1.848  0.5228 -0.7609  0.4174
  369MOL0    Cl49725   9.023   2.255  -1.717 -0.2023  0.3718 -0.0681
  369MOL0     C49726   9.012   2.667  -1.194  0.0341 -0.2736 -0.8116
  369MOL0     C49727   9.107   2.691  -1.093  0.4725 -0.3495 -0.8994
  369MOL0     O49728   9.428   2.681  -1.042  0.0921 -0.3331  0.5141
  369MOL0     C49729   9.469   2.636  -0.784  0.3419 -1.3509  1.3384
  369MOL0     C49730   9.525   2.627  -0.660 -0.4639  0.1772 -0.3259
  369MOL0     N49731   9.724   2.498   0.204  0.1234  0.3760  0.1157
  369MOL0     N49732   9.721   2.394   0.278 -0.1686  0.2966 -0.2491
  369MOL0     C49733   9.599   1.349   0.317 -0.7294  0.4761  0.1651
  369MOL0     C49734   9.649   1.227   0.275 -0.3262  0.3046 -0.6579
  369MOL0     C49735   9.741   0.824   0.114  1.2670 -0.6080 -0.9833
  369MOL0     C49736   9.651   0.772   0.025  0.1571 -0.3115 -0.2016
  369MOL0     C49737   9.654   0.639  -0.016  0.8054  0.9360 -0.2350
  369MOL0     C49738   9.742   0.549   0.042 -1.3073 -1.2770 -0.1678
  369MOL0     O49739   9.732   0.419   0.015  0.2805 -1.1901  0.6446
  369MOL0     C49740   9.828   0.324   0.057  0.3379  0.4085  0.2140
  369MOL0     C49741   9.854   0.239  -0.061  0.0520 -0.2507 -0.4196
  369MOL0     C49742   9.986   0.153  -0.051  0.0408  0.7108  0.2414
  369MOL0     C49743  10.043   0.109  -0.191 -0.7212 -0.0724 -0.5666
  369MOL0     C49744   9.951   0.015  -0.248 -0.3391 -0.6229  0.0845
  369MOL0     C49745   9.870  -0.059  -0.291 -0.8043 -0.5184 -0.4217
  369MOL0     C49746   9.840   0.607   0.126 -0.2222 -0.7015 -0.7720
  369MOL0     C49747   9.844   0.745   0.163  0.1689  0.5472  0.4016
  369MOL0     H49748   9.397   1.070   0.155 -1.1125 -0.4124  2.1721
  369MOL0     H49749   9.283   1.303   0.204 -1.1116 -1.8633  2.9599
  369MOL0     H49750   9.320   1.409   0.499  1.3721 -1.1457  0.8488
  369MOL0     H49751   9.480   1.499   0.525  0.0628  3.7923  0.3619
  369MOL0     H49752   9.205   1.611   0.476  0.3001 -0.4410 -1.1462
  369MOL0     H49753   9.286   1.607   0.615 -2.8932  0.2368 -0.6932
  369MOL0     H49754   9.338   1.822   0.530  0.6149  0.6622 -1.1571
  369MOL0     H49755   9.491   1.728   0.507 -1.0970  0.7793  1.1947
  369MOL0     H49756   9.452   1.736   0.254 -0.8768 -0.9899 -0.2420
  369MOL0     H49757   9.275   1.751   0.287 -2.0161  0.7814  5.3516
  369MOL0     H49758   9.370   1.951   0.197 -1.0425 -0.5630 -0.2248
  369MOL0     H49759   9.316   1.982   0.352 -0.5633 -1.6984  1.6629
  369MOL0     H49760   9.552   1.982   0.444  1.1019  1.6159 -0.1969
  369MOL0     H49761   9.605   1.898   0.292 -2.9114 -2.3215 -1.1916
  369MOL0     H49762   9.537   2.111   0.162  1.6212 -2.1997  0.2301
  369MOL0     H49763   9.525   2.201   0.318  1.7862  0.9251 -2.0782
  369MOL0     H49764   9.766   2.069   0.206 -0.9292 -2.1632  1.3352
  369MOL0     H49765   9.766   2.147   0.350  2.7540 -0.7557 -1.4261
  369MOL0     H49766   9.767   2.265  -0.018  2.1507  0.3293  0.0364
  369MOL0     H49767   9.736   2.664  -0.000 -3.2654 -0.6603 -3.2522
  369MOL0     H49768   9.890   2.584  -0.045  1.4141 -2.0689  0.9719
  369MOL0     H49769   9.621   2.493  -0.156 -0.1176  1.2384 -1.1564
  369MOL0     H49770   9.774   2.439  -0.191 -2.1927 -2.7262  3.5460
  369MOL0     H49771   9.824   2.670  -0.279 -0.8229 -0.6067 -0.0217
  369MOL0     H49772   9.648   2.719  -0.240 -0.4750 -0.2967  0.4960
  369MOL0     H49773   9.564   2.569  -0.398  0.2830 -0.5973 -0.1337
  369MOL0     H49774   9.727   2.521  -0.456 -0.0146  0.1643 -0.0299
  369MOL0     H49775   9.595   2.958  -0.614  4.1045 -1.7103 -0.6539
  369MOL0     H49776   9.575   3.052  -0.884  0.6045 -0.8203  2.5055
  369MOL0     H49777   9.401   3.019  -0.930 -2.5057  1.3026  1.1290
  369MOL0     H49778   9.440   3.085  -0.776 -1.0779  1.8630 -2.7693
  369MOL0     H49779   9.215   2.980  -1.195 -1.6509 -0.5698 -1.1879
  369MOL0     H49780   9.083   2.940  -1.379  0.0843 -1.8699 -0.7548
  369MOL0     H49781   8.861   2.906  -1.469 -2.7924 -0.3532  1.2527
  369MOL0     H49782   8.981   2.808  -1.557 -0.4377  2.4352 -0.4486
  369MOL0     H49783   8.673   2.770  -1.534 -0.6781 -2.3428 -1.6570
  369MOL0     H49784   8.766   2.828  -1.667 -3.0061 -2.6281 -3.1141
  369MOL0     H49785   8.754   2.552  -1.564  3.9552 -2.1619  1.2851
  369MOL0     H49786   8.896   2.597  -1.646 -0.4979  0.5037 -2.2860
  369MOL0     H49787   8.617   2.600  -1.768  0.0188  3.6109 -2.0222
  369MOL0     H49788   8.741   2.693  -1.835  0.7360  0.6075  0.1858
  369MOL0     H49789   8.696   2.476  -1.964 -0.4412 -3.9990  0.4447
  369MOL0     H49790   8.721   2.390  -1.817  0.5914 -1.0313 -0.4719
  369MOL0     H49791   8.939   2.535  -1.985 -0.1056 -2.2321 -0.1281
  369MOL0     H49792   8.964   2.474  -1.821  0.0216 -2.9515  1.2757
  369MOL0     H49793   9.024   2.322  -2.004 -1.4823 -1.5498 -1.1755
  369MOL0     H49794   8.856   2.300  -2.041 -0.1806  0.8690 -0.6094
  369MOL0     H49795   8.948   2.122  -1.884  1.9799 -0.1413  0.1975
  369MOL0     H49796   8.807   2.205  -1.816 -1.0268  1.8350 -2.9811
  369MOL0     H49797   8.955   2.576  -1.188 -0.9761  0.0718 -3.6187
  369MOL0     H49798   9.134   2.612  -1.025  0.7418 -0.2812 -0.9241
  369MOL0     H49799   9.446   2.545  -0.837 -2.1781 -0.7131  1.2399
  369MOL0     H49800   9.545   2.527  -0.622  2.9316  1.9212  3.1820
  369MOL0     H49801   9.661   1.415   0.376 -1.4426  0.9974  0.3528
  369MOL0     H49802   9.752   1.210   0.305 -0.8510 -1.6636  0.1850
  369MOL0     H49803   9.563   0.831  -0.002 -1.2717 -1.3768  1.8800
  369MOL0     H49804   9.584   0.597  -0.087 -2.1518  0.6453  2.6115
  369MOL0     H49805   9.924   0.372   0.073 -0.3149  2.4054 -1.4849
  369MOL0     H49806   9.783   0.263   0.137  0.3118  2.3036  1.7045
  369MOL0     H49807   9.873   0.310  -0.141  2.4505  0.0384  0.3293
  369MOL0     H49808   9.760   0.186  -0.079 -1.5530  2.4598 -0.5813
  369MOL0     H49809   9.979   0.068   0.018 -2.4200  1.4426  0.9870
  369MOL0     H49810  10.067   0.216  -0.011  1.7002 -0.4475 -1.1547
  369MOL0     H49811  10.147   0.078  -0.182 -0.3019  1.3560 -0.1017
  369MOL0     H49812  10.045   0.198  -0.254  3.5152 -0.3030 -1.0380
  369MOL0     H49813   9.788  -0.119  -0.324  0.2488 -0.9379 -2.4788
  369MOL0     H49814   9.921   0.558   0.179  1.2171  2.4420  0.2076
  369MOL0     H49815   9.916   0.766   0.241 -1.6834 -0.5392  2.5251
  370MOL0     O49816  10.409   3.954   2.049  0.4550 -0.0935 -0.2256
  370MOL0     C49817  10.436   4.074   2.074  0.9526  0.2790  0.0933
  370MOL0     O49818  10.400   4.180   2.009 -0.4812  0.1841 -0.5461
  370MOL0     C49819  10.284   4.186   1.934 -0.3204  0.2312  0.7231
  370MOL0     C49820  10.176   4.097   1.924  0.6915  0.3147 -1.0470
  370MOL0     C49821  10.069   4.126   1.843  0.3162 -0.4928  0.6520
  370MOL0     C49822  10.069   4.236   1.755  0.4872  0.8913  0.3571
  370MOL0     O49823   9.955   4.256   1.688  1.1922  0.3816 -0.5384
  370MOL0     C49824   9.923   4.398   1.667 -0.2991  0.7171  0.4489
  370MOL0     C49825   9.772   4.417   1.706  0.1578 -0.6396  0.0530
  370MOL0     C49826   9.739   4.362   1.849 -0.2943 -0.6598 -0.2365
  370MOL0     C49827   9.685   4.222   1.841  0.4993  0.2127 -0.1894
  370MOL0     C49828   9.617   4.190   1.975 -0.3923 -0.8297 -0.2791
  370MOL0     C49829   9.705   4.185   2.103 -0.1929  0.1816  0.2709
  370MOL0     C49830   9.829   4.091   2.110 -0.2676  0.1677 -0.4761
  370MOL0     C49831   9.811   3.948   2.080  0.0256  0.5359 -0.1157
  370MOL0     N49832   9.705   3.881   2.149 -0.1504  0.6330  0.6071
  370MOL0     C49833   9.724   3.844   2.280  1.3102  1.5497 -0.4859
  370MOL0     C49834   9.606   3.816   2.336  0.0366  0.1081  1.3657
  370MOL0     C49835   9.577   3.769   2.467  0.8353 -0.6434  1.4119
  370MOL0     C49836   9.634   3.867   2.567 -0.5058  0.2123 -0.4065
  370MOL0     C49837   9.559   3.861   2.704 -0.3861  0.3162 -0.3417
  370MOL0     C49838   9.419   3.936   2.709 -0.6107 -0.3003  0.2664
  370MOL0     O49839   9.325   3.857   2.644 -0.6816 -0.0971 -0.0408
  370MOL0     C49840   9.268   3.755   2.722  0.7055 -1.3217 -0.1598
  370MOL0     C49841   9.201   3.793   2.838  0.3770 -0.5601  0.3897
  370MOL0     C49842   9.127   3.696   2.908 -0.4060  0.1474  0.4258
  370MOL0     C49843   9.045   3.745   3.021 -0.5122 -0.6612 -0.8015
  370MOL0     C49844   9.125   3.562   2.860  0.5084  0.1162 -0.2893
  370MOL0     C49845   9.052   3.447   2.908 -0.5710  0.2411 -0.3485
  370MOL0     O49846   9.070   3.310   2.869  0.1647 -0.1182 -0.3631
  370MOL0     C49847   8.986   3.212   2.914 -0.2052  0.2416 -0.5768
  370MOL0     C49848   9.046   3.094   2.980 -0.5787 -0.3108  0.0773
  370MOL0     C49849   8.961   2.993   3.028  0.8541 -1.1530 -1.1560
  370MOL0     C49850   8.816   3.010   3.010 -0.2811  0.5899 -0.3331
  370MOL0     O49851   8.742   2.896   3.043 -0.2599  0.1528 -1.0847
  370MOL0     C49852   8.623   2.926   3.130 -0.7310  0.3777  0.1216
  370MOL0     C49853   8.516   2.847   3.070 -0.2577  0.2465  0.3201
  370MOL0     C49854   8.539   2.692   3.043 -0.7461 -0.3006  0.7433
  370MOL0     C49855   8.420   2.609   3.024 -1.0027 -0.5360  0.0817
  370MOL0     C49856   8.337   2.588   3.144 -0.1248 -0.1767  0.0350
  370MOL0     C49857   8.286   2.435   3.140  0.0003  0.3897  0.9132
  370MOL0     C49858   8.173   2.408   3.043  0.3444 -0.5141  0.1859
  370MOL0     C49859   8.132   2.257   3.044 -0.4022 -0.8445  0.7077
  370MOL0    Cl49860   8.047   2.206   3.186 -0.1479 -0.3025  0.3417
  370MOL0     C49861   8.763   3.129   2.954  0.2199  0.4828 -0.8343
  370MOL0     C49862   8.852   3.225   2.898  0.4079 -0.4182 -0.5922
  370MOL0     O49863   8.965   3.480   2.987 -0.3453 -0.3933 -0.1196
  370MOL0     C49864   9.227   3.525   2.771  0.6084  0.4149 -0.3695
  370MOL0     C49865   9.298   3.620   2.692  0.7985 -0.3954  0.1508
  370MOL0     N49866   9.518   3.851   2.231  0.3506 -0.4251 -0.4182
  370MOL0     N49867   9.572   3.888   2.127  0.0173  0.2753  0.1763
  370MOL0     C49868  10.181   4.320   1.767 -0.4342  0.7163  0.1334
  370MOL0     C49869  10.286   4.293   1.846  0.0212 -0.0505 -0.0328
  370MOL0     C49870  10.530   4.098   2.191 -0.5182  0.2736 -0.4138
  370MOL0     C49871  10.566   4.000   2.284 -0.0415  0.3561  0.0980
  370MOL0     C49872  10.651   4.039   2.392  0.9938  0.2500  2.0396
  370MOL0     C49873  10.707   4.165   2.400 -0.0831  0.0246 -0.3281
  370MOL0     O49874  10.791   4.202   2.506 -0.2894  0.0542 -0.9532
  370MOL0     C49875  10.922   4.133   2.511 -0.3368 -0.4112 -0.0184
  370MOL0     C49876  10.993   4.128   2.378  0.1096 -1.4961  0.0516
  370MOL0     C49877  11.045   4.269   2.335  0.3477 -0.4021  0.1404
  370MOL0     C49878  11.022   4.279   2.186 -0.0644 -0.3456  0.5412
  370MOL0     C49879  11.115   4.374   2.122 -0.5107  0.1878  0.0300
  370MOL0     C49880  11.200   4.451   2.089  0.1013 -0.1583  0.5704
  370MOL0     C49881  10.670   4.266   2.311 -0.0922 -0.0220 -0.0097
  370MOL0     C49882  10.590   4.233   2.198  1.3820  0.6369  0.2484
  370MOL0     H49883  10.179   4.003   1.978  1.0239  1.3022  0.7468
  370MOL0     H49884   9.990   4.052   1.838 -1.4721  1.2832  1.0819
  370MOL0     H49885   9.980   4.461   1.737  2.8209 -0.5676 -0.7326
  370MOL0     H49886   9.959   4.421   1.566  1.2843  1.3507  1.1107
  370MOL0     H49887   9.753   4.524   1.709  1.0927 -0.4334 -0.7964
  370MOL0     H49888   9.707   4.374   1.629  2.6160 -3.1636 -0.8115
  370MOL0     H49889   9.830   4.358   1.909 -0.5036  1.8786  0.3445
  370MOL0     H49890   9.661   4.424   1.895 -0.1397  0.9990 -2.1132
  370MOL0     H49891   9.614   4.214   1.759  1.1764  0.8589 -0.8538
  370MOL0     H49892   9.777   4.163   1.831  1.0465  0.5414  2.2352
  370MOL0     H49893   9.542   4.267   1.998  0.8967 -0.1600  1.9612
  370MOL0     H49894   9.558   4.098   1.970 -2.6501  0.3288  2.3008
  370MOL0     H49895   9.747   4.285   2.113  1.4720 -0.5170  0.4651
  370MOL0     H49896   9.643   4.176   2.193 -1.0606 -0.9562 -0.4112
  370MOL0     H49897   9.907   4.124   2.042 -3.1868  1.3306 -3.5711
  370MOL0     H49898   9.863   4.100   2.214 -2.8444 -1.9775  0.6993
  370MOL0     H49899   9.905   3.898   2.103  0.8784  3.0388  2.4371
  370MOL0     H49900   9.792   3.929   1.974  0.7409 -5.7302  0.5408
  370MOL0     H49901   9.821   3.832   2.328  1.4690 -1.5962 -1.4127
  370MOL0     H49902   9.467   3.769   2.464  0.8082  0.2101 -2.4589
  370MOL0     H49903   9.612   3.666   2.477 -0.9634 -1.9615 -3.2027
  370MOL0     H49904   9.606   3.964   2.526  0.1913 -0.9912 -4.0890
  370MOL0     H49905   9.743   3.875   2.566 -0.5514  0.9188 -0.5350
  370MOL0     H49906   9.613   3.906   2.787 -1.0936  1.8291 -0.6630
  370MOL0     H49907   9.555   3.756   2.733  1.9622 -0.6058 -2.8872
  370MOL0     H49908   9.415   4.036   2.665  1.1903 -1.1789 -2.0862
  370MOL0     H49909   9.397   3.950   2.816  1.8622 -3.2951  1.3236
  370MOL0     H49910   9.201   3.898   2.865  1.9759  0.0654 -1.7273
  370MOL0     H49911   9.063   3.698   3.119  0.3131 -0.4963 -0.8677
  370MOL0     H49912   9.069   3.851   3.026  3.8835 -1.4482 -1.3708
  370MOL0     H49913   8.936   3.738   3.010 -1.0294 -1.2760  3.1261
  370MOL0     H49914   9.153   3.093   2.996 -0.4998 -1.3190 -0.4163
  370MOL0     H49915   8.993   2.904   3.082  3.3136  0.1648 -0.2964
  370MOL0     H49916   8.650   2.872   3.221  0.9517 -2.0265 -1.6595
  370MOL0     H49917   8.611   3.034   3.141  1.0002  0.5395  0.8422
  370MOL0     H49918   8.428   2.861   3.133 -1.0632  1.3859 -0.9866
  370MOL0     H49919   8.500   2.894   2.972  1.2628 -0.1765 -0.1672
  370MOL0     H49920   8.598   2.648   3.124  2.5985  0.1462 -1.2714
  370MOL0     H49921   8.597   2.681   2.951  0.4088  2.0151  1.1159
  370MOL0     H49922   8.358   2.662   2.952  1.0458  0.2515 -1.2069
  370MOL0     H49923   8.439   2.509   2.984  0.3055 -0.5853  0.7738
  370MOL0     H49924   8.261   2.667   3.147 -2.8249 -2.5352  4.1579
  370MOL0     H49925   8.394   2.601   3.236 -0.4031 -0.4206  0.2453
  370MOL0     H49926   8.363   2.358   3.129 -2.7145 -2.4570  0.6330
  370MOL0     H49927   8.248   2.418   3.241 -0.8309  0.3557  0.5998
  370MOL0     H49928   8.203   2.441   2.943 -2.5256 -0.2040 -0.6721
  370MOL0     H49929   8.086   2.471   3.067  0.0920 -0.4471 -0.8435
  370MOL0     H49930   8.226   2.202   3.034 -1.2192 -2.0350 -0.9018
  370MOL0     H49931   8.069   2.239   2.956  1.0264 -0.9261 -0.3480
  370MOL0     H49932   8.655   3.134   2.953  0.2524  1.6508 -0.0718
  370MOL0     H49933   8.801   3.317   2.868 -0.9934  0.7436  4.3922
  370MOL0     H49934   9.232   3.422   2.737 -0.5873 -0.0447  0.7800
  370MOL0     H49935   9.362   3.602   2.607 -0.9563  1.8026 -1.7694
  370MOL0     H49936  10.181   4.413   1.710 -1.1214  0.0557 -0.9755
  370MOL0     H49937  10.369   4.363   1.840 -1.8036  2.4978  2.2188
  370MOL0     H49938  10.534   3.898   2.267  0.4608  0.2438 -0.2035
  370MOL0     H49939  10.675   3.964   2.466 -2.0138 -3.5393 -0.4021
  370MOL0     H49940  10.989   4.195   2.572  0.3978 -0.4695 -0.7372
  370MOL0     H49941  10.909   4.038   2.563 -2.8249  1.0143  2.1794
  370MOL0     H49942  10.924   4.083   2.306 -1.2000 -3.2897  2.2910
  370MOL0     H49943  11.070   4.051   2.383 -1.9427 -3.5668  3.3720
  370MOL0     H49944  11.151   4.264   2.361  0.5399  0.4292 -0.4573
  370MOL0     H49945  10.999   4.349   2.394  1.4269 -0.3792  0.9693
  370MOL0     H49946  10.918   4.308   2.166  0.5403 -0.2048 -3.0495
  370MOL0     H49947  11.051   4.191   2.128  3.3692  0.2528  1.1213
  370MOL0     H49948  11.260   4.538   2.070 -0.6754  0.5876  1.4178
  370MOL0     H49949  10.715   4.365   2.311  1.0038 -0.5010 -0.6357
  370MOL0     H49950  10.561   4.312   2.130 -1.0565  1.4339  2.0996
  371MOL0     O49951   6.451   9.203   9.710 -0.7079 -0.1461  0.4216
  371MOL0     C49952   6.344   9.255   9.686  0.6425  0.9981  0.5240
  371MOL0     O49953   6.327   9.377   9.629 -0.0080  0.1583 -0.1232
  371MOL0     C49954   6.440   9.444   9.577 -0.2566 -0.4294 -0.5281
  371MOL0     C49955   6.512   9.544   9.653  0.2863 -0.4066 -0.4452
  371MOL0     C49956   6.635   9.606   9.609  1.1420  0.1654 -0.6527
  371MOL0     C49957   6.693   9.553   9.496  0.3534  0.8596  0.3620
  371MOL0     O49958   6.812   9.589   9.440  0.4334  0.0440 -0.4032
  371MOL0     C49959   6.896   9.683   9.513  0.5909 -0.4852 -0.4328
  371MOL0     C49960   6.963   9.621   9.634  0.3440 -0.3601 -0.4702
  371MOL0     C49961   7.071   9.522   9.578  0.0295  0.0142 -1.0285
  371MOL0     C49962   7.146   9.452   9.701  0.8246  0.4823  0.9728
  371MOL0     C49963   7.282   9.421   9.658 -0.3382 -0.2115  0.5937
  371MOL0     C49964   7.368   9.387   9.779 -0.8009 -0.4799  0.4541
  371MOL0     C49965   7.519   9.405   9.761  0.5836  0.2675 -0.6286
  371MOL0     C49966   7.588   9.379   9.899 -0.0088  0.1254  0.1079
  371MOL0     N49967   7.613   9.239   9.926  0.8310  1.0099 -1.4646
  371MOL0     C49968   7.544   9.122   9.883  0.4676 -1.1697  0.3465
  371MOL0     C49969   7.614   9.013   9.933  1.1244 -0.3469  0.4472
  371MOL0     C49970   7.577   8.864   9.914  0.5791 -0.6441 -0.7066
  371MOL0     C49971   7.457   8.839   9.816 -0.2944  0.2548 -1.3129
  371MOL0     C49972   7.443   8.684   9.804  0.5171  0.5509  1.2847
  371MOL0     C49973   7.336   8.669   9.694 -0.1299  0.8393 -0.3021
  371MOL0     O49974   7.301   8.529   9.674  0.7385  0.5130 -0.5281
  371MOL0     C49975   7.223   8.510   9.564 -0.4467  0.1914  0.4616
  371MOL0     C49976   7.277   8.501   9.430 -1.0799 -0.1618  0.1834
  371MOL0     C49977   7.196   8.492   9.322 -0.1187 -0.2147 -0.5010
  371MOL0     C49978   7.258   8.488   9.184  1.0227  1.0134  0.6262
  371MOL0     C49979   7.057   8.507   9.338  0.0817 -0.5216 -0.3540
  371MOL0     C49980   6.972   8.526   9.224  0.2047 -1.1750  1.5912
  371MOL0     O49981   6.951   8.413   9.155  0.8067  0.3254 -0.1566
  371MOL0     C49982   6.882   8.439   9.036 -0.8909  0.0441  0.0419
  371MOL0     C49983   6.738   8.443   9.018 -0.0675 -0.1256  0.3259
  371MOL0     C49984   6.692   8.445   8.892 -0.1413 -0.8784 -0.2847
  371MOL0     C49985   6.767   8.456   8.778 -0.3109  0.6902  0.0147
  371MOL0     O49986   6.711   8.466   8.649 -0.6984 -0.0195 -0.9413
  371MOL0     C49987   6.777   8.508   8.526 -0.7318 -0.5198 -0.2478
  371MOL0     C49988   6.784   8.655   8.524  0.1682 -0.7252 -0.8053
  371MOL0     C49989   6.801   8.708   8.390 -0.0428 -0.1130  0.0721
  371MOL0     C49990   6.830   8.860   8.395  0.0539  0.4198 -0.4115
  371MOL0     C49991   6.869   8.921   8.262 -0.4287  0.1547  0.0293
  371MOL0     C49992   6.896   9.067   8.294 -0.2373  0.0583  0.6616
  371MOL0     C49993   6.943   9.148   8.169  0.6012  0.3684 -0.2447
  371MOL0     C49994   6.976   9.290   8.211  0.0768 -0.0118 -0.0043
  371MOL0    Cl49995   6.923   9.419   8.092 -0.1976  0.2505  0.4284
  371MOL0     C49996   6.913   8.455   8.792  0.1459 -0.3043 -0.6307
  371MOL0     C49997   6.963   8.450   8.922 -0.4205 -1.3280  0.3303
  371MOL0     O49998   6.940   8.639   9.182  0.2658  0.3818 -0.0141
  371MOL0     C49999   7.007   8.517   9.472  0.9447  0.2316  0.2564
  371MOL0     C50000   7.089   8.522   9.579 -0.8411 -0.2048 -0.8157
  371MOL0     N50001   7.717   9.070  10.013  1.3565 -0.7203  1.0204
  371MOL0     N50002   7.714   9.199  10.015 -0.1439  0.5746 -1.4296
  371MOL0     C50003   6.628   9.442   9.430  0.4403  0.2765  0.3901
  371MOL0     C50004   6.497   9.399   9.463 -0.0375 -0.4743  0.4078
  371MOL0     C50005   6.227   9.187   9.724 -0.1549  0.1351  1.8239
  371MOL0     C50006   6.224   9.073   9.802 -1.2521 -0.3101 -1.1897
  371MOL0     C50007   6.112   9.006   9.842  0.0925 -1.5213  0.4096
  371MOL0     C50008   5.983   9.065   9.817 -0.3777  0.4980 -0.4472
  371MOL0     O50009   5.869   8.996   9.825  0.5337 -0.0601 -0.1120
  371MOL0     C50010   5.877   8.857   9.862  0.9333  0.8040 -0.5799
  371MOL0     C50011   5.938   8.757   9.766  0.4891 -0.0873  0.4577
  371MOL0     C50012   5.831   8.687   9.674 -0.4320 -0.2088  0.0987
  371MOL0     C50013   5.913   8.627   9.559  0.7087  0.4360 -0.2980
  371MOL0     C50014   5.960   8.724   9.472 -1.0948 -0.5307 -0.5960
  371MOL0     C50015   5.997   8.822   9.404 -0.0950  0.3327  0.3336
  371MOL0     C50016   5.986   9.183   9.746 -0.8895  0.4394  0.4062
  371MOL0     C50017   6.100   9.240   9.698 -0.5450  0.3381 -0.4249
  371MOL0     H50018   6.467   9.592   9.740  1.7391  1.3629 -0.6125
  371MOL0     H50019   6.677   9.691   9.661 -2.9429  1.5072  0.8527
  371MOL0     H50020   6.970   9.714   9.439  0.8772 -2.1294 -0.8607
  371MOL0     H50021   6.833   9.769   9.540  1.6142  0.8521 -2.0482
  371MOL0     H50022   7.006   9.702   9.694 -0.1657 -0.1162 -0.4230
  371MOL0     H50023   6.903   9.561   9.703  1.3288  1.4676  2.1367
  371MOL0     H50024   7.021   9.451   9.512  2.1464 -2.4529 -0.1328
  371MOL0     H50025   7.136   9.593   9.527 -0.5108  2.0955  1.0036
  371MOL0     H50026   7.146   9.523   9.784 -1.5438  2.5655 -0.6521
  371MOL0     H50027   7.099   9.356   9.727  0.0781  0.4184 -0.5219
  371MOL0     H50028   7.278   9.335   9.591 -4.9192  0.4064 -0.2364
  371MOL0     H50029   7.312   9.508   9.599 -1.8238 -1.7526 -2.6713
  371MOL0     H50030   7.342   9.466   9.850 -1.1391  1.9667 -2.1818
  371MOL0     H50031   7.347   9.289   9.823  2.8864 -2.7606 -2.2208
  371MOL0     H50032   7.552   9.341   9.678  2.0988  0.2949 -0.0755
  371MOL0     H50033   7.525   9.511   9.739 -2.6795  0.7506  0.3428
  371MOL0     H50034   7.534   9.411   9.989  1.6196 -3.3523  2.5516
  371MOL0     H50035   7.684   9.431   9.889  0.8073 -0.5745  3.1880
  371MOL0     H50036   7.456   9.115   9.820  1.9871  2.7791 -2.6057
  371MOL0     H50037   7.663   8.810   9.874  1.5820 -1.3551  2.1823
  371MOL0     H50038   7.550   8.814  10.008 -2.7069 -0.9292 -1.6556
  371MOL0     H50039   7.473   8.881   9.716  0.2407  1.4182 -0.7661
  371MOL0     H50040   7.368   8.883   9.864  0.5550  2.4344 -1.5991
  371MOL0     H50041   7.416   8.630   9.895 -0.2948 -2.1463 -0.4240
  371MOL0     H50042   7.536   8.638   9.771 -0.3061  0.1378 -0.6166
  371MOL0     H50043   7.369   8.700   9.594 -0.5901 -0.8942 -1.0281
  371MOL0     H50044   7.245   8.715   9.734  0.1422 -0.0834  1.4986
  371MOL0     H50045   7.385   8.497   9.435 -1.1145 -1.1675  0.3063
  371MOL0     H50046   7.356   8.445   9.210 -1.0822 -3.4410  2.1337
  371MOL0     H50047   7.203   8.414   9.126  0.1114  1.4694  0.8970
  371MOL0     H50048   7.270   8.589   9.142  2.1415  2.0062  3.1171
  371MOL0     H50049   6.660   8.450   9.093  0.7343  1.7287  1.0403
  371MOL0     H50050   6.584   8.458   8.885 -0.3187 -1.9716  0.2449
  371MOL0     H50051   6.880   8.471   8.522  0.3080  2.2567 -3.9569
  371MOL0     H50052   6.717   8.477   8.440 -0.4580  1.0596 -1.0299
  371MOL0     H50053   6.693   8.689   8.574 -0.1124  0.3056 -1.9807
  371MOL0     H50054   6.862   8.688   8.593 -0.8832 -0.0187  0.0889
  371MOL0     H50055   6.704   8.688   8.343  0.6906 -3.1024 -0.4088
  371MOL0     H50056   6.875   8.661   8.324 -1.0476  0.0231 -1.2052
  371MOL0     H50057   6.739   8.913   8.423 -0.5769  1.0125 -3.2919
  371MOL0     H50058   6.909   8.889   8.466  0.2725  2.2274 -1.3132
  371MOL0     H50059   6.814   8.898   8.171  0.9541 -3.7360 -0.0298
  371MOL0     H50060   6.955   8.859   8.233 -1.2036 -0.1255 -1.7742
  371MOL0     H50061   6.814   9.117   8.347 -3.9189 -2.6870 -1.8865
  371MOL0     H50062   6.988   9.074   8.352  0.6194 -0.9714 -0.5276
  371MOL0     H50063   6.869   9.148   8.089  0.3238  1.5168  0.0065
  371MOL0     H50064   7.040   9.107   8.137  1.5890  0.1842  2.6617
  371MOL0     H50065   7.079   9.297   8.246  0.0850  1.1146 -0.2410
  371MOL0     H50066   6.924   9.314   8.304 -0.5326  2.9679 -0.9983
  371MOL0     H50067   6.986   8.462   8.712 -1.4598  2.7833 -1.9750
  371MOL0     H50068   7.071   8.449   8.935 -0.5520  0.2822  1.8865
  371MOL0     H50069   6.900   8.535   9.481  0.6742 -1.2103  0.2641
  371MOL0     H50070   7.047   8.540   9.678 -0.7539 -3.0651 -0.1872
  371MOL0     H50071   6.668   9.397   9.340  0.0138 -2.2631  1.3910
  371MOL0     H50072   6.451   9.323   9.401 -1.8255  2.0650 -1.5924
  371MOL0     H50073   6.318   9.020   9.817 -0.8915  1.0856  2.7846
  371MOL0     H50074   6.125   8.913   9.896 -1.2058 -1.3873  1.0037
  371MOL0     H50075   5.925   8.847   9.960 -2.6746  1.0990  1.3711
  371MOL0     H50076   5.774   8.823   9.877  0.9641  0.7484 -0.4945
  371MOL0     H50077   5.993   8.678   9.817  0.8032 -0.2758 -0.1562
  371MOL0     H50078   6.005   8.805   9.694 -1.0735 -1.3825 -2.0205
  371MOL0     H50079   5.754   8.754   9.634  0.4290 -0.0877 -1.3946
  371MOL0     H50080   5.783   8.610   9.736  1.9194 -1.3089  0.6546
  371MOL0     H50081   5.841   8.563   9.508  1.3722  0.0266 -0.7394
  371MOL0     H50082   5.997   8.560   9.581  0.6733 -0.0745 -1.6395
  371MOL0     H50083   6.019   8.916   9.356 -0.6668 -0.2969 -1.2324
  371MOL0     H50084   5.893   9.223   9.706 -0.4201  1.3299  0.1613
  371MOL0     H50085   6.087   9.335   9.647 -0.6135  0.3749 -0.3399
  372MOL0     O50086  10.614   0.610   2.283 -0.6716  0.0428 -0.2523
  372MOL0     C50087  10.733   0.588   2.284  0.5104  0.7527  0.7085
  372MOL0     O50088  10.831   0.647   2.369  0.1967 -0.0537 -0.3526
  372MOL0     C50089  10.789   0.732   2.476 -0.3268 -0.2346 -1.0984
  372MOL0     C50090  10.667   0.783   2.520  0.6385 -1.4450 -0.0567
  372MOL0     C50091  10.661   0.846   2.643  0.2067 -1.0364 -0.1081
  372MOL0     C50092  10.766   0.866   2.725  0.2950  0.7212 -0.4773
  372MOL0     O50093  10.739   0.923   2.845  0.1976  0.2831 -0.7550
  372MOL0     C50094  10.830   0.913   2.959  0.6890 -0.2267  0.9015
  372MOL0     C50095  10.754   0.969   3.078  0.0593  0.0743 -0.5311
  372MOL0     C50096  10.835   1.027   3.182  0.0414  0.8030  1.2105
  372MOL0     C50097  10.758   1.059   3.307  0.0067  0.1818 -1.3954
  372MOL0     C50098  10.722   0.951   3.404  0.3339 -0.0559  0.4528
  372MOL0     C50099  10.661   1.023   3.523 -0.1587 -0.1504 -0.0464
  372MOL0     C50100  10.614   0.918   3.626  0.0440  0.0674 -0.4858
  372MOL0     C50101  10.538   0.977   3.748  0.0741  0.4000 -0.6868
  372MOL0     N50102  10.623   1.069   3.814  1.0601 -0.0447 -0.1035
  372MOL0     C50103  10.722   1.032   3.905 -0.4603 -0.3736  0.0856
  372MOL0     C50104  10.782   1.148   3.931  0.2980 -0.4294  0.2708
  372MOL0     C50105  10.887   1.183   4.028  0.5119  0.4887  0.5596
  372MOL0     C50106  10.965   1.064   4.075  0.1007 -0.7609  0.7034
  372MOL0     C50107  11.054   1.004   3.964 -0.1418  0.0839  0.2484
  372MOL0     C50108  11.143   0.890   4.015  0.6641 -0.2765 -0.0577
  372MOL0     O50109  11.195   0.826   3.890  0.7226  0.6191 -0.5844
  372MOL0     C50110  11.329   0.803   3.879  0.5375  0.4934  0.4824
  372MOL0     C50111  11.405   0.754   3.984 -0.5807 -0.2281  0.9079
  372MOL0     C50112  11.545   0.732   3.970  0.4959  0.5106 -0.1803
  372MOL0     C50113  11.627   0.681   4.087  0.2826  1.1868  1.0178
  372MOL0     C50114  11.607   0.758   3.839 -0.3726 -0.9006 -0.8502
  372MOL0     C50115  11.750   0.713   3.810 -0.3720 -0.9208  0.6311
  372MOL0     O50116  11.751   0.616   3.716 -1.3636 -0.2771  0.2793
  372MOL0     C50117  11.869   0.595   3.640  0.8551 -1.0466  0.3742
  372MOL0     C50118  11.891   0.468   3.591 -0.0257 -0.1295 -0.1424
  372MOL0     C50119  11.992   0.458   3.490 -0.2234  0.2264  0.1678
  372MOL0     C50120  12.066   0.571   3.448  0.1229  0.0065 -1.1182
  372MOL0     O50121  12.176   0.531   3.379 -0.4242 -0.0072  0.9297
  372MOL0     C50122  12.220   0.629   3.285 -0.0623  0.5455 -0.5935
  372MOL0     C50123  12.312   0.578   3.180 -0.6046 -0.1645  0.5199
  372MOL0     C50124  12.236   0.486   3.081 -0.8450 -0.4249 -1.3788
  372MOL0     C50125  12.222   0.344   3.122 -0.7024  0.0583  0.3743
  372MOL0     C50126  12.217   0.238   3.012  0.3565 -1.1399  0.0630
  372MOL0     C50127  12.266   0.105   3.045 -0.2019 -0.1319 -0.0094
  372MOL0     C50128  12.227   0.061   3.185  0.5390 -0.5447 -0.3920
  372MOL0     C50129  12.256  -0.092   3.201 -0.6983  0.4082  0.4220
  372MOL0    Cl50130  12.160  -0.194   3.102  0.2410  0.2299  0.3971
  372MOL0     C50131  12.032   0.700   3.488  0.3712 -0.1874 -1.0904
  372MOL0     C50132  11.926   0.714   3.579 -0.5613  0.3517  0.0770
  372MOL0     O50133  11.849   0.762   3.866 -0.2534  0.5065  0.4926
  372MOL0     C50134  11.527   0.818   3.743 -0.4206  0.4949  1.0945
  372MOL0     C50135  11.390   0.833   3.756 -0.8937 -1.0961  0.1604
  372MOL0     N50136  10.712   1.254   3.862 -0.6611 -0.6317  0.5093
  372MOL0     N50137  10.615   1.204   3.799  0.5459 -0.4812  0.1880
  372MOL0     C50138  10.895   0.834   2.673  0.4376 -0.0495  0.3563
  372MOL0     C50139  10.911   0.773   2.549  0.6918  0.3715 -0.1739
  372MOL0     C50140  10.783   0.485   2.180 -0.2728 -1.4385  0.1680
  372MOL0     C50141  10.915   0.439   2.194 -0.9353 -0.6299  0.0547
  372MOL0     C50142  10.961   0.344   2.102 -0.3604 -0.7087 -0.6652
  372MOL0     C50143  10.872   0.287   2.010  0.3517  0.5890 -0.2214
  372MOL0     O50144  10.925   0.212   1.905  0.2209 -0.2523  0.0145
  372MOL0     C50145  10.970   0.088   1.949 -0.4989  0.1381  0.9109
  372MOL0     C50146  11.077   0.038   1.852  0.1098  0.0540  0.4499
  372MOL0     C50147  11.202   0.125   1.843  0.6708  0.3846  0.2531
  372MOL0     C50148  11.301   0.076   1.741 -0.4365 -0.4737 -0.0397
  372MOL0     C50149  11.408  -0.002   1.813 -0.1824  0.2115 -0.5613
  372MOL0     C50150  11.488  -0.075   1.870 -0.6924 -0.8246 -0.4354
  372MOL0     C50151  10.749   0.339   1.983  0.3345  0.3224 -0.4214
  372MOL0     C50152  10.702   0.432   2.072 -0.1271 -0.5253  0.4742
  372MOL0     H50153  10.573   0.756   2.474 -0.0733  1.5711 -0.6013
  372MOL0     H50154  10.567   0.874   2.689  1.0099  2.9921 -0.5037
  372MOL0     H50155  10.859   0.809   2.976 -4.0348 -2.1052 -1.0157
  372MOL0     H50156  10.922   0.972   2.956  2.3098 -2.6671 -0.3986
  372MOL0     H50157  10.687   1.049   3.046 -2.2082 -2.6023 -3.0227
  372MOL0     H50158  10.690   0.887   3.113 -1.0553  0.3315 -1.9232
  372MOL0     H50159  10.912   0.952   3.203 -0.3445 -1.2553 -3.5253
  372MOL0     H50160  10.889   1.113   3.142 -0.2191  0.3162 -0.2346
  372MOL0     H50161  10.833   1.126   3.351  1.3277  1.1079 -4.7933
  372MOL0     H50162  10.679   1.131   3.285 -0.1143  0.2646 -0.7308
  372MOL0     H50163  10.657   0.885   3.345  0.2854 -0.2234  0.6915
  372MOL0     H50164  10.809   0.891   3.431  2.0773  1.6834 -1.0656
  372MOL0     H50165  10.733   1.091   3.569 -0.1601 -1.8291  2.6917
  372MOL0     H50166  10.564   1.069   3.501 -0.9271 -1.6459  0.0307
  372MOL0     H50167  10.546   0.845   3.583  0.6530  0.9806 -3.1863
  372MOL0     H50168  10.703   0.858   3.649  1.7238  1.3778 -3.0489
  372MOL0     H50169  10.520   0.893   3.816  0.4897 -0.6552 -1.8286
  372MOL0     H50170  10.443   1.028   3.729 -0.9332 -0.0533  2.4941
  372MOL0     H50171  10.755   0.934   3.936  1.6110  0.3092  0.1846
  372MOL0     H50172  10.939   1.267   3.981 -1.1752  0.2188 -1.9724
  372MOL0     H50173  10.836   1.223   4.116 -1.3095  4.5799 -2.0830
  372MOL0     H50174  10.904   0.986   4.122  0.0436 -1.4994 -0.5669
  372MOL0     H50175  11.034   1.097   4.153  0.6098  0.2418 -0.1478
  372MOL0     H50176  11.107   1.086   3.915 -2.0502  1.6106  0.6249
  372MOL0     H50177  10.988   0.961   3.889  0.4439  0.7752 -0.6949
  372MOL0     H50178  11.088   0.817   4.075 -0.2501  0.0117 -0.5381
  372MOL0     H50179  11.214   0.936   4.085 -0.3508  0.6622  0.3887
  372MOL0     H50180  11.361   0.729   4.080  0.4829  2.2662  2.1431
  372MOL0     H50181  11.669   0.756   4.155  2.0916  0.5077  0.7155
  372MOL0     H50182  11.577   0.604   4.147  2.5439  0.3759  1.9951
  372MOL0     H50183  11.715   0.636   4.039 -0.4663  1.0864 -0.2910
  372MOL0     H50184  11.846   0.381   3.639  1.7523 -0.4522  1.0260
  372MOL0     H50185  12.036   0.361   3.473 -1.0777 -0.2441  0.5601
  372MOL0     H50186  12.136   0.687   3.246 -1.8348  0.1584  2.3543
  372MOL0     H50187  12.282   0.688   3.353  1.6925 -3.7140  1.9020
  372MOL0     H50188  12.353   0.659   3.120  2.3080 -3.3897 -2.2248
  372MOL0     H50189  12.392   0.520   3.226  0.7514  1.1774 -0.0583
  372MOL0     H50190  12.286   0.477   2.984 -1.6748  1.1126 -1.9878
  372MOL0     H50191  12.139   0.533   3.060  0.1512  1.2468 -2.4900
  372MOL0     H50192  12.302   0.320   3.193 -3.1131 -0.2729  3.1468
  372MOL0     H50193  12.128   0.345   3.178 -1.0350  0.0385 -0.1741
  372MOL0     H50194  12.266   0.281   2.924 -3.1992  2.7822 -0.3284
  372MOL0     H50195  12.111   0.221   2.993 -0.1766  0.9227  0.9191
  372MOL0     H50196  12.223   0.031   2.976 -1.7544  1.5200 -0.8984
  372MOL0     H50197  12.374   0.116   3.036 -0.4581  1.7519 -1.1826
  372MOL0     H50198  12.121   0.084   3.201  0.6322  0.8330 -1.5172
  372MOL0     H50199  12.293   0.113   3.254  1.5155 -2.0031 -0.1670
  372MOL0     H50200  12.247  -0.120   3.307 -0.0530 -0.8313  0.1664
  372MOL0     H50201  12.357  -0.103   3.159 -0.5661  1.9087  0.2983
  372MOL0     H50202  12.086   0.791   3.465 -0.0590  0.7367  1.1990
  372MOL0     H50203  11.900   0.815   3.610  1.8228  0.8243  0.7177
  372MOL0     H50204  11.567   0.843   3.645 -2.8307 -0.2480 -0.1502
  372MOL0     H50205  11.332   0.862   3.669  0.2967 -0.8659 -0.5757
  372MOL0     H50206  10.979   0.880   2.725 -1.1832 -0.5802  3.6976
  372MOL0     H50207  11.002   0.754   2.493 -1.0663  1.2139 -3.6054
  372MOL0     H50208  10.985   0.470   2.271  0.9188 -1.6711 -1.1358
  372MOL0     H50209  11.059   0.298   2.108  0.1886  0.5625  0.3866
  372MOL0     H50210  11.010   0.084   2.051  1.7465  0.5722  0.1109
  372MOL0     H50211  10.891   0.013   1.937 -1.0803  0.8423  0.2343
  372MOL0     H50212  11.025   0.032   1.756 -0.9059 -0.2222  1.0025
  372MOL0     H50213  11.108  -0.063   1.879  0.0100  0.2224  1.2061
  372MOL0     H50214  11.252   0.128   1.940 -0.5548  0.7795  0.8913
  372MOL0     H50215  11.161   0.221   1.812  1.0506  0.7983  1.0033
  372MOL0     H50216  11.344   0.164   1.691 -1.6082  0.5263  0.6636
  372MOL0     H50217  11.267   0.008   1.663 -1.8016 -0.0765  0.1834
  372MOL0     H50218  11.568  -0.130   1.915  0.9767 -0.0089 -2.2853
  372MOL0     H50219  10.698   0.329   1.888 -0.3823  3.2116 -0.4350
  372MOL0     H50220  10.604   0.477   2.060 -2.1039 -4.4170  0.5255
  373MOL0     O50221  10.789   3.354   4.279  0.2335 -0.5094 -0.5657
  373MOL0     C50222  10.842   3.245   4.271 -0.3657  0.7445 -0.4287
  373MOL0     O50223  10.922   3.185   4.362  0.1413  0.2638 -0.7016
  373MOL0     C50224  10.940   3.232   4.491 -0.4464  0.2443  0.3802
  373MOL0     C50225  10.963   3.362   4.521 -0.9702 -0.5103 -0.9863
  373MOL0     C50226  10.993   3.402   4.655  0.5064  0.6765  0.4427
  373MOL0     C50227  10.995   3.311   4.763 -0.5258  0.4756  0.0746
  373MOL0     O50228  10.997   3.338   4.899  0.3691  0.0562 -0.0059
  373MOL0     C50229  11.068   3.454   4.949  0.5468  0.9603  0.3710
  373MOL0     C50230  10.983   3.575   4.936  0.4081 -0.6091 -0.0436
  373MOL0     C50231  11.073   3.686   4.896  0.3333 -0.9250  0.3442
  373MOL0     C50232  11.032   3.818   4.965  0.7318 -0.0778  0.3778
  373MOL0     C50233  11.129   3.925   4.924 -0.4863 -0.5932 -0.0968
  373MOL0     C50234  11.263   3.937   5.000 -0.4070 -0.0731 -1.3494
  373MOL0     C50235  11.268   3.958   5.154 -0.1453 -0.4015 -0.3445
  373MOL0     C50236  11.167   4.065   5.196 -0.9457  0.9273 -0.3570
  373MOL0     N50237  11.225   4.193   5.186  0.2160  0.2327  0.1276
  373MOL0     C50238  11.317   4.243   5.274 -0.5485  0.0834 -0.7907
  373MOL0     C50239  11.331   4.369   5.222 -0.1848  0.5328 -0.8021
  373MOL0     C50240  11.403   4.488   5.277 -0.0510  0.9371 -0.5685
  373MOL0     C50241  11.353   4.538   5.421  0.0294 -1.2257 -0.0145
  373MOL0     C50242  11.407   4.685   5.449  0.2068 -0.0549  0.3276
  373MOL0     C50243  11.419   4.705   5.596 -0.2211 -0.4857 -1.2038
  373MOL0     O50244  11.526   4.627   5.656  0.1069 -0.5930  0.0029
  373MOL0     C50245  11.513   4.628   5.791 -0.8746 -1.2861  0.3955
  373MOL0     C50246  11.565   4.723   5.882 -0.0525  0.3618 -0.2847
  373MOL0     C50247  11.559   4.697   6.021  0.4290  0.3953  0.0391
  373MOL0     C50248  11.616   4.789   6.117 -0.0570 -0.1814 -0.2836
  373MOL0     C50249  11.475   4.591   6.071 -0.2913 -0.0680 -0.0403
  373MOL0     C50250  11.437   4.556   6.216 -0.8023 -0.4849  0.5870
  373MOL0     O50251  11.387   4.429   6.244 -0.0369 -0.3616 -0.3259
  373MOL0     C50252  11.355   4.410   6.380 -0.4656  0.0918  0.5995
  373MOL0     C50253  11.466   4.389   6.457  0.4363 -0.1315 -0.6865
  373MOL0     C50254  11.450   4.378   6.593 -1.2363  0.1482  0.9647
  373MOL0     C50255  11.326   4.385   6.651 -0.8849 -0.5685 -0.9235
  373MOL0     O50256  11.314   4.358   6.790  0.0664  0.3771 -0.5759
  373MOL0     C50257  11.382   4.440   6.882  0.0427  0.3705  0.1413
  373MOL0     C50258  11.289   4.544   6.936 -0.3093  1.3032  1.0561
  373MOL0     C50259  11.193   4.491   7.048  0.8613 -0.3114 -0.2184
  373MOL0     C50260  11.055   4.447   6.999 -0.2917  0.2462  0.0510
  373MOL0     C50261  10.959   4.392   7.106  0.1274  0.2728 -0.4645
  373MOL0     C50262  10.929   4.489   7.218  0.3230  0.4114  0.2455
  373MOL0     C50263  10.802   4.443   7.291  0.5140 -0.5536 -0.9614
  373MOL0     C50264  10.761   4.544   7.410 -0.2713  0.7956  0.0439
  373MOL0    Cl50265  10.870   4.532   7.556 -0.2632  0.2285  0.3921
  373MOL0     C50266  11.205   4.399   6.573  0.6646 -0.2111 -0.2277
  373MOL0     C50267  11.230   4.406   6.433  0.0704 -0.6527 -0.1487
  373MOL0     O50268  11.452   4.638   6.303  0.0565  0.0885  0.3353
  373MOL0     C50269  11.433   4.497   5.978 -0.3350  0.6822  0.3903
  373MOL0     C50270  11.450   4.515   5.843  0.0511 -0.8907  0.1802
  373MOL0     N50271  11.263   4.389   5.107  0.3672  0.4398  0.2535
  373MOL0     N50272  11.196   4.282   5.086 -0.0445 -0.5423  0.1893
  373MOL0     C50273  10.973   3.177   4.731  0.1507  0.2797 -0.8237
  373MOL0     C50274  10.951   3.136   4.598  0.4311  0.5268 -0.8406
  373MOL0     C50275  10.822   3.174   4.141 -1.2102 -1.0893 -0.6825
  373MOL0     C50276  10.749   3.230   4.027 -0.7318  0.2005  0.0255
  373MOL0     C50277  10.747   3.166   3.906 -0.1925  1.0033  0.0498
  373MOL0     C50278  10.796   3.035   3.892 -0.1807  0.2381  0.5129
  373MOL0     O50279  10.780   2.961   3.776  0.5815 -0.4201 -0.4975
  373MOL0     C50280  10.664   2.993   3.689 -0.1163 -0.2235 -0.3139
  373MOL0     C50281  10.529   2.955   3.740 -0.4105 -1.0613  0.0213
  373MOL0     C50282  10.421   2.944   3.632 -0.9300  0.3455  0.2851
  373MOL0     C50283  10.362   3.081   3.596 -0.6542  0.3058 -0.2895
  373MOL0     C50284  10.245   3.073   3.509  0.4485 -1.3136 -0.5432
  373MOL0     C50285  10.149   3.089   3.434 -0.7615 -1.1651 -0.3993
  373MOL0     C50286  10.846   2.967   4.005 -0.8095  0.0627  0.6022
  373MOL0     C50287  10.882   3.040   4.127 -0.3522  0.1094  0.2814
  373MOL0     H50288  10.954   3.443   4.448 -0.3087  0.9428  0.4682
  373MOL0     H50289  11.018   3.507   4.672  1.0792  1.0045 -2.0569
  373MOL0     H50290  11.100   3.444   5.053  1.5482  1.6027  0.1378
  373MOL0     H50291  11.154   3.456   4.881 -1.3586 -0.4894 -2.2428
  373MOL0     H50292  10.897   3.563   4.869 -1.2430  1.9667  1.4729
  373MOL0     H50293  10.943   3.605   5.033  0.6319  0.7317 -0.3488
  373MOL0     H50294  11.175   3.659   4.925  0.1139 -0.5676  1.5161
  373MOL0     H50295  11.071   3.694   4.787  0.2567 -0.1332  0.3997
  373MOL0     H50296  10.934   3.856   4.935  0.6088 -0.9459 -0.3725
  373MOL0     H50297  11.035   3.804   5.073 -0.6404  1.1899  0.6219
  373MOL0     H50298  11.162   3.901   4.822  2.3516 -0.6354  0.7318
  373MOL0     H50299  11.084   4.024   4.928 -1.2459 -0.9582  2.9202
  373MOL0     H50300  11.332   3.854   4.985  0.2445 -0.3378  2.1483
  373MOL0     H50301  11.299   4.030   4.956 -2.1055  0.7475 -1.1071
  373MOL0     H50302  11.233   3.863   5.196 -3.3153  0.8582  0.1165
  373MOL0     H50303  11.370   3.976   5.191 -0.8048  3.0539  0.0902
  373MOL0     H50304  11.155   4.042   5.302  2.5518 -0.6065 -0.1260
  373MOL0     H50305  11.076   4.067   5.135  0.1550  1.1660 -2.0703
  373MOL0     H50306  11.366   4.198   5.360 -0.8357  0.6920 -0.3027
  373MOL0     H50307  11.511   4.470   5.280 -0.5387 -2.7029 -0.5334
  373MOL0     H50308  11.390   4.567   5.203 -1.0945  0.1211 -1.2920
  373MOL0     H50309  11.387   4.471   5.501  0.0209 -0.8194  0.3288
  373MOL0     H50310  11.244   4.545   5.418  0.0810  1.0792 -3.7570
  373MOL0     H50311  11.333   4.746   5.397 -3.3160 -4.2697 -0.2442
  373MOL0     H50312  11.503   4.701   5.399 -1.6622  0.8004 -3.3415
  373MOL0     H50313  11.325   4.683   5.647  1.6327 -0.4160  2.5690
  373MOL0     H50314  11.448   4.808   5.621  1.0099 -0.8667 -0.9955
  373MOL0     H50315  11.626   4.809   5.855  0.1133  0.4400  0.3333
  373MOL0     H50316  11.686   4.866   6.084  3.0607 -1.1002  3.4995
  373MOL0     H50317  11.547   4.865   6.156  1.4877 -0.6497  3.7711
  373MOL0     H50318  11.675   4.742   6.196  1.8101  1.7424 -0.4374
  373MOL0     H50319  11.559   4.397   6.404  1.0443 -1.6888  0.0818
  373MOL0     H50320  11.536   4.358   6.656  0.7933  0.2380 -1.6103
  373MOL0     H50321  11.413   4.385   6.971 -1.5434 -2.4117 -0.8876
  373MOL0     H50322  11.472   4.478   6.832 -0.9288  2.0177 -0.4270
  373MOL0     H50323  11.356   4.611   6.990 -0.1512  1.1006  1.1102
  373MOL0     H50324  11.237   4.605   6.861 -4.3043 -0.3746  2.1972
  373MOL0     H50325  11.192   4.573   7.121  2.3664  2.4145 -3.0157
  373MOL0     H50326  11.250   4.409   7.092  0.2989 -2.2010 -2.7983
  373MOL0     H50327  11.013   4.519   6.929  2.5189  0.4655 -1.5592
  373MOL0     H50328  11.073   4.363   6.931 -2.4118 -0.8031  0.6906
  373MOL0     H50329  11.000   4.301   7.153  0.3225  1.3160  1.5029
  373MOL0     H50330  10.871   4.364   7.048 -1.5160  1.5252  1.3182
  373MOL0     H50331  11.022   4.490   7.276  2.4750 -3.5747 -2.6421
  373MOL0     H50332  10.930   4.589   7.173 -0.1568  0.2208 -0.2097
  373MOL0     H50333  10.822   4.346   7.337 -0.2281 -2.3639 -4.1989
  373MOL0     H50334  10.713   4.440   7.228 -1.5223  2.2813  1.4454
  373MOL0     H50335  10.667   4.509   7.455  1.0167 -1.0269  1.4750
  373MOL0     H50336  10.756   4.647   7.375  1.1172  1.0418  0.5127
  373MOL0     H50337  11.110   4.383   6.624  0.2956  3.3421  0.4495
  373MOL0     H50338  11.150   4.391   6.361  0.9380  0.9653 -1.5128
  373MOL0     H50339  11.376   4.406   5.997  0.8409 -0.4685 -1.3161
  373MOL0     H50340  11.404   4.446   5.773  0.7717 -0.7416 -0.4624
  373MOL0     H50341  10.976   3.106   4.814  3.4852  0.3773 -0.7402
  373MOL0     H50342  10.955   3.029   4.579  3.3979  0.0138  1.8218
  373MOL0     H50343  10.718   3.334   4.032  0.2132  0.4326  1.4577
  373MOL0     H50344  10.699   3.211   3.819  0.2798  0.8106 -0.3177
  373MOL0     H50345  10.669   3.098   3.658  1.3480  0.2386  1.3165
  373MOL0     H50346  10.672   2.916   3.611 -1.9385 -0.1606 -0.6057
  373MOL0     H50347  10.502   3.034   3.811  0.7241 -0.9441  0.3533
  373MOL0     H50348  10.542   2.866   3.802 -1.4736 -0.3734  1.3023
  373MOL0     H50349  10.344   2.876   3.670  0.2442 -1.1631  0.0626
  373MOL0     H50350  10.461   2.895   3.542 -3.6591  2.4584 -2.2615
  373MOL0     H50351  10.430   3.151   3.546 -1.4852 -0.4500 -2.6030
  373MOL0     H50352  10.318   3.124   3.687 -1.4297 -3.5120  1.3221
  373MOL0     H50353  10.071   3.097   3.361  1.5951 -2.6484 -3.2771
  373MOL0     H50354  10.887   2.867   3.995 -1.6431 -0.6860  3.6778
  373MOL0     H50355  10.934   3.008   4.216 -3.7003  0.1523  2.3973
  374MOL0     O50356   8.245   0.677   1.960  1.0458 -0.7417 -0.0930
  374MOL0     C50357   8.212   0.680   1.839  0.5323 -0.0348 -0.7951
  374MOL0     O50358   8.244   0.584   1.745  0.3440 -0.1647 -0.7129
  374MOL0     C50359   8.325   0.480   1.780 -0.2740 -0.5599 -0.9682
  374MOL0     C50360   8.413   0.462   1.892  0.5430 -0.1358 -0.0270
  374MOL0     C50361   8.482   0.340   1.917  0.4297  0.0590 -0.0926
  374MOL0     C50362   8.460   0.225   1.834 -0.4383  0.8550  0.0090
  374MOL0     O50363   8.518   0.099   1.848  0.5995 -0.1767  0.0339
  374MOL0     C50364   8.620   0.072   1.941  0.5374 -0.6687  0.2857
  374MOL0     C50365   8.668  -0.074   1.940  0.5488  0.6621 -0.0113
  374MOL0     C50366   8.711  -0.132   2.077  0.3595 -0.4322  0.0830
  374MOL0     C50367   8.724  -0.278   2.069  0.6056  0.5481 -0.3398
  374MOL0     C50368   8.816  -0.344   2.183 -0.3316 -0.7801  0.6206
  374MOL0     C50369   8.760  -0.342   2.325  1.2044  0.2330 -0.4656
  374MOL0     C50370   8.838  -0.413   2.441 -0.7257  0.7058 -0.0635
  374MOL0     C50371   8.956  -0.331   2.495 -0.5224  0.4920  0.0098
  374MOL0     N50372   8.928  -0.259   2.620  0.0282 -1.2977 -0.5913
  374MOL0     C50373   8.919  -0.123   2.639 -0.1631  0.0379  0.5417
  374MOL0     C50374   8.930  -0.106   2.774  0.7471  0.3046  0.3596
  374MOL0     C50375   8.921   0.028   2.843 -0.7122  0.3180  0.1914
  374MOL0     C50376   9.058   0.057   2.908  0.2810  0.7705  0.0622
  374MOL0     C50377   9.045   0.206   2.958  0.6965 -0.4912  0.3478
  374MOL0     C50378   9.167   0.253   3.043  0.0242 -0.8463 -0.1811
  374MOL0     O50379   9.140   0.392   3.088 -0.0345  0.8057 -0.0824
  374MOL0     C50380   9.195   0.424   3.209  0.2236  0.5627 -0.7000
  374MOL0     C50381   9.112   0.449   3.321 -0.6597  0.1479 -0.4309
  374MOL0     C50382   9.162   0.474   3.447 -0.5659  0.0974  0.1676
  374MOL0     C50383   9.059   0.511   3.554 -0.4498  0.5468 -0.0232
  374MOL0     C50384   9.304   0.495   3.459  0.4374 -0.0402  0.2784
  374MOL0     C50385   9.369   0.573   3.572  0.7388  0.7646 -0.0582
  374MOL0     O50386   9.498   0.540   3.604 -0.1917  0.0014 -0.6984
  374MOL0     C50387   9.564   0.610   3.699 -0.7924 -0.2084  1.1854
  374MOL0     C50388   9.609   0.744   3.685 -0.7432  0.0100 -0.2841
  374MOL0     C50389   9.688   0.807   3.787  0.9601  0.2468  1.7559
  374MOL0     C50390   9.727   0.732   3.895 -0.5144  0.7454 -0.3098
  374MOL0     O50391   9.798   0.800   3.985 -0.5614 -0.2583  0.2925
  374MOL0     C50392   9.856   0.740   4.100 -0.1351 -0.6565  0.4773
  374MOL0     C50393   9.921   0.851   4.187  0.0690 -0.2102  0.3597
  374MOL0     C50394   9.980   0.778   4.304  0.8854  0.4360 -1.6977
  374MOL0     C50395  10.062   0.853   4.401 -0.2590 -0.1020  0.4320
  374MOL0     C50396  10.004   0.873   4.545 -0.1301  1.0628 -0.3323
  374MOL0     C50397   9.856   0.936   4.554 -0.6437  0.3469 -1.1761
  374MOL0     C50398   9.807   0.940   4.704 -0.3922 -0.3255  0.3490
  374MOL0     C50399   9.738   0.809   4.753 -0.4807  0.3934 -0.1993
  374MOL0    Cl50400   9.662   0.844   4.905 -0.0130 -0.3930 -0.1303
  374MOL0     C50401   9.677   0.599   3.905  0.2978 -0.1131 -0.4237
  374MOL0     C50402   9.607   0.529   3.803  0.5788  0.0978  1.1104
  374MOL0     O50403   9.308   0.669   3.618 -0.3513 -0.4082  0.8178
  374MOL0     C50404   9.383   0.453   3.350 -0.0698 -0.3621 -0.4087
  374MOL0     C50405   9.333   0.422   3.226 -0.9068 -0.7788  0.1166
  374MOL0     N50406   8.949  -0.232   2.841 -0.3126  0.2435  0.1814
  374MOL0     N50407   8.954  -0.314   2.739  0.0878 -0.9460  0.3158
  374MOL0     C50408   8.364   0.240   1.732 -0.1912  0.4520 -0.3897
  374MOL0     C50409   8.303   0.363   1.707  0.1044  1.0715  0.2689
  374MOL0     C50410   8.151   0.801   1.792  0.8429  0.2917  0.0785
  374MOL0     C50411   8.124   0.815   1.657  0.3826 -0.1589  0.4043
  374MOL0     C50412   8.059   0.932   1.605 -0.6188  0.6939 -0.3156
  374MOL0     C50413   8.043   1.042   1.688  0.4119  0.0571 -0.3454
  374MOL0     O50414   7.985   1.156   1.641  0.6227 -0.1450  0.3805
  374MOL0     C50415   8.024   1.286   1.711  1.1032  0.2052  0.3338
  374MOL0     C50416   7.964   1.394   1.618 -1.0719 -0.6261 -0.0956
  374MOL0     C50417   7.939   1.515   1.706  0.4384  0.0033  0.9378
  374MOL0     C50418   7.830   1.606   1.641 -0.2001  0.3246  1.0922
  374MOL0     C50419   7.790   1.734   1.710 -0.5258  0.9367 -1.2869
  374MOL0     C50420   7.754   1.832   1.771  0.1382  0.0679 -0.8408
  374MOL0     C50421   8.069   1.029   1.828 -0.5953  0.6112 -0.4560
  374MOL0     C50422   8.128   0.910   1.881  0.5518 -0.7149 -0.7089
  374MOL0     H50423   8.446   0.549   1.948  2.3485  0.7908 -2.3308
  374MOL0     H50424   8.560   0.336   1.992  0.4906  1.5764 -0.0337
  374MOL0     H50425   8.709   0.135   1.932 -1.1276  1.7277 -0.2970
  374MOL0     H50426   8.582   0.084   2.043 -3.7026 -1.6570 -1.0084
  374MOL0     H50427   8.580  -0.128   1.903  0.7168  0.8085 -0.6322
  374MOL0     H50428   8.751  -0.088   1.871  1.4188  3.3371  0.3988
  374MOL0     H50429   8.811  -0.092   2.092 -0.1320  0.7873  0.2300
  374MOL0     H50430   8.655  -0.102   2.167  1.6689 -1.3589  1.2578
  374MOL0     H50431   8.621  -0.316   2.074  1.1730 -0.9006  3.2779
  374MOL0     H50432   8.764  -0.305   1.971 -1.9760  2.0885 -1.9650
  374MOL0     H50433   8.836  -0.449   2.161 -0.1468 -1.0444  1.9659
  374MOL0     H50434   8.917  -0.304   2.172 -0.8468  0.2271 -0.8187
  374MOL0     H50435   8.771  -0.238   2.357  1.9600  0.3888 -1.1879
  374MOL0     H50436   8.656  -0.376   2.325  1.7033 -2.3932  5.1709
  374MOL0     H50437   8.764  -0.433   2.520 -2.0034 -2.8465 -1.9034
  374MOL0     H50438   8.874  -0.513   2.414 -0.8534  0.4300  0.7697
  374MOL0     H50439   8.996  -0.258   2.424 -0.9107  0.2537 -0.4537
  374MOL0     H50440   9.032  -0.407   2.516 -1.1020 -0.4785 -1.3175
  374MOL0     H50441   8.922  -0.052   2.557 -0.7930  1.5436  1.7804
  374MOL0     H50442   8.894   0.105   2.770  1.7348 -0.8265 -2.1066
  374MOL0     H50443   8.840   0.018   2.915 -1.0969  2.5191  0.1294
  374MOL0     H50444   9.135   0.047   2.831 -0.5068  0.8227 -0.7535
  374MOL0     H50445   9.063  -0.008   2.996  1.0602  1.8833  0.8718
  374MOL0     H50446   8.947   0.215   3.007  0.3280 -2.2458 -0.0108
  374MOL0     H50447   9.059   0.275   2.874  0.8882  2.6000  2.7110
  374MOL0     H50448   9.254   0.257   2.977  0.5676 -0.6673  0.5357
  374MOL0     H50449   9.194   0.192   3.129  0.4497  0.0690  0.3430
  374MOL0     H50450   9.004   0.455   3.321 -1.0659 -0.6982  5.5594
  374MOL0     H50451   8.995   0.423   3.564  2.6590 -1.9625 -0.4414
  374MOL0     H50452   9.096   0.542   3.652 -1.1498 -0.9020  0.7304
  374MOL0     H50453   8.989   0.585   3.514 -1.4414 -0.1357  0.4109
  374MOL0     H50454   9.579   0.815   3.609 -0.9589 -0.0564 -0.2611
  374MOL0     H50455   9.698   0.913   3.767 -0.0690 -0.1376 -1.5205
  374MOL0     H50456   9.784   0.687   4.164  1.7601 -1.7399  1.7998
  374MOL0     H50457   9.940   0.677   4.071  0.6303 -0.7378  2.6873
  374MOL0     H50458  10.014   0.892   4.147  1.6079 -3.3232  0.4625
  374MOL0     H50459   9.851   0.931   4.214  0.8947  0.0532  1.8296
  374MOL0     H50460  10.053   0.706   4.266  0.9739 -0.0117 -0.7177
  374MOL0     H50461   9.894   0.728   4.350 -1.3394  1.6723 -4.2783
  374MOL0     H50462  10.149   0.793   4.429 -1.2137 -1.7705 -0.0495
  374MOL0     H50463  10.096   0.948   4.358  2.7362 -0.4644  1.7310
  374MOL0     H50464  10.072   0.937   4.601 -0.1649  0.3915  0.5058
  374MOL0     H50465   9.991   0.772   4.586 -1.3121 -0.3363 -3.7841
  374MOL0     H50466   9.847   1.038   4.516  1.8399  1.3534  0.6044
  374MOL0     H50467   9.786   0.875   4.497 -2.1203  1.3408 -0.5031
  374MOL0     H50468   9.735   1.020   4.719  0.7387  0.7890 -0.0292
  374MOL0     H50469   9.885   0.960   4.779 -0.5157 -3.5949  1.5212
  374MOL0     H50470   9.807   0.725   4.758 -3.8143 -2.5253  1.3675
  374MOL0     H50471   9.659   0.783   4.682 -0.4491  0.7362 -0.3617
  374MOL0     H50472   9.699   0.534   3.989 -1.6328 -0.2264  0.0299
  374MOL0     H50473   9.575   0.426   3.803 -1.7341  0.7366 -1.0539
  374MOL0     H50474   9.490   0.442   3.364 -0.4886 -7.4018  1.0871
  374MOL0     H50475   9.413   0.412   3.153  1.9885  0.4911  2.8585
  374MOL0     H50476   8.319   0.149   1.693  0.2090  0.4606 -0.8762
  374MOL0     H50477   8.239   0.371   1.619  1.8176 -4.4956 -1.8952
  374MOL0     H50478   8.168   0.753   1.579  1.1145  2.0046 -0.9886
  374MOL0     H50479   8.034   0.938   1.500 -2.1982 -1.0188 -0.1007
  374MOL0     H50480   7.980   1.289   1.811 -0.3281 -1.0449 -0.2151
  374MOL0     H50481   8.130   1.311   1.722  0.7745  1.0944  1.6334
  374MOL0     H50482   7.881   1.361   1.556  0.8323  1.3474 -4.1009
  374MOL0     H50483   8.035   1.430   1.543 -0.6584  2.2126  1.4923
  374MOL0     H50484   8.027   1.571   1.739  1.6493 -0.1823 -1.7635
  374MOL0     H50485   7.891   1.473   1.795  0.7199 -2.6122 -0.0689
  374MOL0     H50486   7.733   1.566   1.613  0.4938 -1.1318  0.6928
  374MOL0     H50487   7.876   1.637   1.546  2.9245 -0.3249  2.2632
  374MOL0     H50488   7.715   1.913   1.830 -2.4974 -3.3155  2.5270
  374MOL0     H50489   8.046   1.095   1.910  2.1456 -2.0577  2.7587
  374MOL0     H50490   8.139   0.900   1.988  0.1048 -0.6696 -0.6553
  375MOL0     O50491   0.253  11.223   6.884 -0.0784 -0.5809  0.4464
  375MOL0     C50492   0.359  11.273   6.847  1.3271 -0.4044 -1.3038
  375MOL0     O50493   0.434  11.350   6.935 -0.5559  0.5668 -0.4328
  375MOL0     C50494   0.406  11.347   7.066 -0.8334 -0.2663 -0.0110
  375MOL0     C50495   0.294  11.399   7.130 -0.0116 -0.6708 -0.0640
  375MOL0     C50496   0.286  11.415   7.263  0.2846  0.3201  0.4806
  375MOL0     C50497   0.401  11.369   7.337  0.3615 -0.6510 -0.6599
  375MOL0     O50498   0.382  11.384   7.476 -0.1851 -0.0963 -0.7774
  375MOL0     C50499   0.394  11.260   7.540  0.7709 -0.0770 -0.3712
  375MOL0     C50500   0.338  11.264   7.680  0.2961  0.1626  0.3086
  375MOL0     C50501   0.219  11.351   7.694  0.0652 -0.0508 -0.0354
  375MOL0     C50502   0.147  11.327   7.825 -0.6297 -0.2953  0.6931
  375MOL0     C50503   0.026  11.423   7.825 -0.0140 -0.1245  0.6693
  375MOL0     C50504  -0.053  11.401   7.947 -0.2693 -0.8754  0.5504
  375MOL0     C50505  -0.195  11.444   7.924  0.9511 -0.1841  0.1465
  375MOL0     C50506  -0.272  11.329   7.848  1.1190 -0.1723 -0.1272
  375MOL0     N50507  -0.413  11.362   7.853  0.6522  0.1873  0.1867
  375MOL0     C50508  -0.480  11.476   7.811  0.5403  0.4492  0.0975
  375MOL0     C50509  -0.610  11.457   7.842  0.5745 -1.2477  0.7976
  375MOL0     C50510  -0.714  11.559   7.803 -0.6116  0.3696  0.3445
  375MOL0     C50511  -0.769  11.626   7.921  0.0830  0.1524  0.0166
  375MOL0     C50512  -0.915  11.677   7.896  0.8349 -0.9468  0.0960
  375MOL0     C50513  -0.927  11.780   7.776 -0.5932 -0.6852 -0.3464
  375MOL0     O50514  -0.827  11.887   7.794 -0.7014 -0.4555  0.0562
  375MOL0     C50515  -0.806  11.971   7.691 -0.0602 -0.5510 -1.3600
  375MOL0     C50516  -0.814  11.940   7.559  0.4843  0.9229  1.1708
  375MOL0     C50517  -0.765  12.028   7.459  0.8374  1.2373  0.6999
  375MOL0     C50518  -0.776  11.964   7.317 -0.0709  0.9908 -0.0338
  375MOL0     C50519  -0.714  12.149   7.486  0.6131  0.0096  0.0937
  375MOL0     C50520  -0.656  12.241   7.385 -0.4943 -0.0409 -0.2393
  375MOL0     O50521  -0.593  12.343   7.448 -1.3842 -0.9540  0.5870
  375MOL0     C50522  -0.537  12.444   7.374 -0.4850 -0.6710  0.1941
  375MOL0     C50523  -0.597  12.503   7.253  0.1434 -0.0673 -0.5389
  375MOL0     C50524  -0.545  12.618   7.187  0.8075  0.1648 -0.0451
  375MOL0     C50525  -0.444  12.685   7.242 -0.3269 -0.0208 -0.8539
  375MOL0     O50526  -0.404  12.807   7.206 -0.8999  0.0792  0.2565
  375MOL0     C50527  -0.366  12.825   7.068  0.1941 -0.2363  0.0129
  375MOL0     C50528  -0.318  12.976   7.057  0.8614  1.2976 -0.4909
  375MOL0     C50529  -0.251  12.998   6.922 -0.0547 -0.5321 -0.5713
  375MOL0     C50530  -0.356  13.047   6.821  0.3546  0.6681  0.5710
  375MOL0     C50531  -0.310  13.021   6.675 -0.2317  0.3951 -0.0461
  375MOL0     C50532  -0.178  13.100   6.649 -0.5722 -0.0154 -0.5753
  375MOL0     C50533  -0.158  13.137   6.501  0.4273 -0.1536 -0.8684
  375MOL0     C50534  -0.253  13.249   6.451 -0.1751 -0.4991  0.2951
  375MOL0    Cl50535  -0.214  13.298   6.290 -0.2811 -0.0357  0.5966
  375MOL0     C50536  -0.375  12.636   7.361 -0.1097 -0.0054  0.4671
  375MOL0     C50537  -0.419  12.510   7.420  0.9263  0.1393 -0.6248
  375MOL0     O50538  -0.665  12.223   7.260 -0.4546 -0.5291  0.4272
  375MOL0     C50539  -0.716  12.182   7.631  0.5840 -0.0884  0.8024
  375MOL0     C50540  -0.760  12.102   7.727 -0.4502  0.8690 -0.0045
  375MOL0     N50541  -0.629  11.332   7.898 -0.0745 -0.6238  0.5681
  375MOL0     N50542  -0.508  11.273   7.901  0.6293  0.1640  0.6958
  375MOL0     C50543   0.512  11.318   7.282 -1.0590  0.6237  0.4052
  375MOL0     C50544   0.522  11.314   7.137 -0.2206 -0.8512 -0.0891
  375MOL0     C50545   0.379  11.280   6.700  0.2777 -0.2354 -0.1364
  375MOL0     C50546   0.301  11.204   6.615  1.1113 -0.2606  0.3079
  375MOL0     C50547   0.316  11.225   6.480 -0.4621  0.5370  0.8647
  375MOL0     C50548   0.407  11.314   6.422  0.4913 -0.7413 -0.5373
  375MOL0     O50549   0.418  11.341   6.284 -0.0507  0.1874 -0.2036
  375MOL0     C50550   0.391  11.231   6.197  0.0296  0.3738 -0.6711
  375MOL0     C50551   0.423  11.288   6.066 -1.1353  0.2444  0.1117
  375MOL0     C50552   0.394  11.182   5.964 -0.2303 -0.5325  0.9277
  375MOL0     C50553   0.393  11.231   5.827 -0.0592  0.1549  0.6723
  375MOL0     C50554   0.409  11.118   5.729  0.4932  0.1805 -0.6075
  375MOL0     C50555   0.413  11.026   5.653  0.8546  0.0907 -0.0925
  375MOL0     C50556   0.481  11.387   6.514  0.0364 -0.8854 -0.0358
  375MOL0     C50557   0.477  11.370   6.646  0.4899  0.2666  0.2730
  375MOL0     H50558   0.214  11.446   7.075 -0.4130 -0.8267  0.3796
  375MOL0     H50559   0.200  11.471   7.299 -1.8068 -2.6251  0.4897
  375MOL0     H50560   0.346  11.183   7.479  0.5106 -0.1011 -0.1394
  375MOL0     H50561   0.502  11.248   7.556  0.4605 -0.6517  1.5054
  375MOL0     H50562   0.319  11.163   7.717  2.6759 -0.1831  0.7070
  375MOL0     H50563   0.410  11.308   7.749  0.6206 -0.8961  0.6601
  375MOL0     H50564   0.251  11.455   7.693  1.0800 -0.2669 -3.4336
  375MOL0     H50565   0.152  11.345   7.607  0.8917 -2.8393 -0.5847
  375MOL0     H50566   0.130  11.219   7.822  1.8930 -0.7269 -0.1596
  375MOL0     H50567   0.218  11.361   7.901 -1.3886  2.1647  0.3879
  375MOL0     H50568   0.052  11.529   7.818 -0.6991  0.1049  1.4082
  375MOL0     H50569  -0.035  11.401   7.737  2.1349 -0.6791 -0.7757
  375MOL0     H50570  -0.046  11.295   7.971 -0.2452 -0.7051  1.3506
  375MOL0     H50571  -0.013  11.453   8.035 -1.3415 -1.1797  1.2333
  375MOL0     H50572  -0.248  11.470   8.015 -1.1674  0.3912 -1.1805
  375MOL0     H50573  -0.196  11.538   7.867  1.5887  1.6514  2.9707
  375MOL0     H50574  -0.256  11.226   7.879  0.9635 -0.4537 -0.9567
  375MOL0     H50575  -0.245  11.330   7.742  2.7716 -1.2089  0.2512
  375MOL0     H50576  -0.430  11.561   7.764  0.1401  0.9438  0.5517
  375MOL0     H50577  -0.662  11.637   7.747 -0.5738  0.9429  1.1716
  375MOL0     H50578  -0.779  11.499   7.738  2.4181 -2.2020 -0.5898
  375MOL0     H50579  -0.706  11.710   7.954 -1.1179  0.8585  0.5798
  375MOL0     H50580  -0.769  11.566   8.013 -2.0261 -2.2756 -1.4532
  375MOL0     H50581  -0.950  11.726   7.987  0.2516  2.0264 -1.6084
  375MOL0     H50582  -0.982  11.594   7.869  0.2385  0.2980 -2.6290
  375MOL0     H50583  -1.018  11.841   7.781  1.9404  3.4157  0.9877
  375MOL0     H50584  -0.929  11.724   7.682  0.5441  0.7575 -1.2838
  375MOL0     H50585  -0.859  11.846   7.530 -1.7652  1.9486  1.1253
  375MOL0     H50586  -0.681  11.941   7.268 -0.7029 -1.9438 -0.0726
  375MOL0     H50587  -0.831  11.869   7.316  2.2674 -0.4664 -0.2937
  375MOL0     H50588  -0.822  12.046   7.263  1.3028  0.4325 -2.1644
  375MOL0     H50589  -0.689  12.459   7.215  0.3051 -1.4215  0.5454
  375MOL0     H50590  -0.585  12.670   7.101 -0.5964 -1.6985 -0.5893
  375MOL0     H50591  -0.280  12.764   7.040  0.2520 -0.4202  0.5820
  375MOL0     H50592  -0.457  12.811   7.009 -0.7650 -1.4209  1.6942
  375MOL0     H50593  -0.392  13.051   7.086 -0.3161 -1.3807  4.6934
  375MOL0     H50594  -0.233  12.990   7.125 -1.1369 -2.0618  3.1460
  375MOL0     H50595  -0.204  12.905   6.888  2.5743  0.0040  1.2789
  375MOL0     H50596  -0.172  13.073   6.929 -0.9334  0.2779  1.3256
  375MOL0     H50597  -0.446  12.985   6.834  0.8112 -0.3512 -0.7933
  375MOL0     H50598  -0.367  13.155   6.834  4.6088  0.9935  3.6806
  375MOL0     H50599  -0.388  13.046   6.603 -0.7782  0.0377  0.4134
  375MOL0     H50600  -0.305  12.912   6.663  1.0378  0.0265  2.9867
  375MOL0     H50601  -0.186  13.191   6.710  1.5036 -1.5027  2.1756
  375MOL0     H50602  -0.093  13.045   6.692  1.9097  2.1813 -2.3783
  375MOL0     H50603  -0.146  13.051   6.434 -1.9392 -0.9657 -0.3490
  375MOL0     H50604  -0.065  13.194   6.494  0.4245 -0.1878 -1.1823
  375MOL0     H50605  -0.268  13.337   6.515 -0.3886 -0.6798  0.4994
  375MOL0     H50606  -0.354  13.206   6.454  0.1557 -1.3448 -0.4118
  375MOL0     H50607  -0.302  12.696   7.413 -1.8228 -1.9444  5.7170
  375MOL0     H50608  -0.377  12.456   7.504  1.6518  1.2727 -0.2163
  375MOL0     H50609  -0.673  12.275   7.668  2.2298  0.0289 -1.2461
  375MOL0     H50610  -0.753  12.140   7.828  1.4319  3.0680 -0.8638
  375MOL0     H50611   0.598  11.289   7.342 -0.9236  2.3648  1.1309
  375MOL0     H50612   0.610  11.283   7.082  1.1852  1.9696  0.3900
  375MOL0     H50613   0.217  11.144   6.650 -0.7632  1.5296 -0.8938
  375MOL0     H50614   0.255  11.168   6.412 -0.5334 -0.9265  2.1115
  375MOL0     H50615   0.457  11.155   6.238  0.3774  0.5053 -0.9849
  375MOL0     H50616   0.287  11.199   6.190  1.1736 -3.9035 -0.5928
  375MOL0     H50617   0.529  11.314   6.066 -1.5830  2.2948 -1.1535
  375MOL0     H50618   0.370  11.378   6.031  1.6746  0.8314 -3.0751
  375MOL0     H50619   0.294  11.145   5.992  0.2006 -1.2427  1.5905
  375MOL0     H50620   0.466  11.100   5.968  2.6954  1.6528 -2.0170
  375MOL0     H50621   0.466  11.312   5.820  0.9186 -0.8110 -1.0527
  375MOL0     H50622   0.290  11.258   5.801  0.2420 -1.3385 -2.6370
  375MOL0     H50623   0.413  10.936   5.596  0.2955 -0.0060  0.0524
  375MOL0     H50624   0.546  11.463   6.472 -1.3440  1.2587  1.4591
  375MOL0     H50625   0.545  11.434   6.700  1.6301 -0.9159  0.3025
  376MOL0     O50626   3.531   7.247   0.662 -0.5188 -0.2111 -0.2159
  376MOL0     C50627   3.441   7.328   0.692 -1.0247  0.6126 -0.3188
  376MOL0     O50628   3.448   7.427   0.789  0.7929  0.4424 -0.4432
  376MOL0     C50629   3.562   7.420   0.862 -0.6411  0.3529 -0.0707
  376MOL0     C50630   3.584   7.325   0.965 -0.6593  0.4224  0.1225
  376MOL0     C50631   3.702   7.288   1.022 -0.2325 -1.3900 -0.6753
  376MOL0     C50632   3.811   7.368   1.004 -0.4436 -0.6236  1.3522
  376MOL0     O50633   3.931   7.330   1.070 -0.5741 -0.5783  0.3478
  376MOL0     C50634   3.967   7.419   1.173  0.2751  0.0080  0.1245
  376MOL0     C50635   3.961   7.337   1.300 -0.3643 -0.2749 -0.0144
  376MOL0     C50636   4.024   7.414   1.408 -0.8550 -0.5824  0.4065
  376MOL0     C50637   4.013   7.327   1.536 -0.4221 -0.5442 -0.1555
  376MOL0     C50638   4.103   7.378   1.653 -0.2613 -0.0930  1.1967
  376MOL0     C50639   4.117   7.534   1.686 -0.3236 -0.1743  0.3270
  376MOL0     C50640   4.249   7.584   1.763  0.0645  0.3659  0.5521
  376MOL0     C50641   4.260   7.738   1.766  0.2947  0.6391 -1.9424
  376MOL0     N50642   4.143   7.795   1.834  0.3429 -0.4024 -0.0791
  376MOL0     C50643   4.130   7.811   1.964  0.1986  0.1831  0.4039
  376MOL0     C50644   3.997   7.848   1.982  0.6748  0.3331  0.0606
  376MOL0     C50645   3.923   7.881   2.110  0.1547 -0.5650  1.0854
  376MOL0     C50646   3.837   8.010   2.100 -0.5037  0.1108  0.4391
  376MOL0     C50647   3.757   8.047   2.227 -0.3850 -0.7527 -1.8234
  376MOL0     C50648   3.844   8.107   2.338  0.3850  0.1149 -0.6558
  376MOL0     O50649   3.781   8.061   2.463  0.0715  0.6128 -0.1996
  376MOL0     C50650   3.862   7.973   2.531 -0.2111 -0.1081  0.1457
  376MOL0     C50651   3.823   7.838   2.548  0.3394 -0.5334  0.0649
  376MOL0     C50652   3.888   7.757   2.644  0.4862  0.0311 -0.7772
  376MOL0     C50653   3.827   7.624   2.662  0.8323  0.0592 -0.4725
  376MOL0     C50654   4.009   7.800   2.702  0.3767  0.5747 -0.3853
  376MOL0     C50655   4.092   7.726   2.795 -0.0888 -0.0331 -0.1355
  376MOL0     O50656   4.219   7.745   2.794 -0.1914  0.4197 -0.5991
  376MOL0     C50657   4.308   7.674   2.864 -0.8658  0.4882  0.4754
  376MOL0     C50658   4.395   7.736   2.956 -0.4057  0.9742 -0.5208
  376MOL0     C50659   4.485   7.654   3.023  0.3465  0.0423 -0.5953
  376MOL0     C50660   4.486   7.512   3.004 -0.1274 -0.6501  0.2900
  376MOL0     O50661   4.564   7.422   3.065 -0.3314 -0.1200 -0.4981
  376MOL0     C50662   4.659   7.466   3.171 -0.0578  0.3368 -0.3090
  376MOL0     C50663   4.776   7.358   3.179 -0.5579 -0.0382  0.4105
  376MOL0     C50664   4.890   7.410   3.266  0.3564  0.3664 -0.5967
  376MOL0     C50665   4.866   7.374   3.414  0.1306 -0.7249 -0.0289
  376MOL0     C50666   4.984   7.406   3.505 -0.0315  0.2227 -0.2450
  376MOL0     C50667   5.053   7.269   3.549  0.6778  0.0983 -0.4198
  376MOL0     C50668   5.189   7.290   3.617  0.0121 -0.5633  1.0119
  376MOL0     C50669   5.287   7.188   3.576  0.4934  0.4812  0.0918
  376MOL0    Cl50670   5.233   7.024   3.622  0.1600  0.0423  0.3157
  376MOL0     C50671   4.391   7.451   2.915  1.3517 -0.4106 -0.2877
  376MOL0     C50672   4.310   7.530   2.835  0.3424  0.1508  0.0967
  376MOL0     O50673   4.038   7.647   2.872 -0.2835  0.7910  0.3559
  376MOL0     C50674   4.055   7.929   2.678 -0.3304  0.7375 -1.7032
  376MOL0     C50675   3.986   8.015   2.594 -0.5437 -1.7740  0.0114
  376MOL0     N50676   3.941   7.842   1.861 -0.4691 -0.1479  0.9240
  376MOL0     N50677   4.028   7.820   1.771  0.4375 -0.2326  0.5322
  376MOL0     C50678   3.797   7.472   0.913  0.5463 -0.4889 -0.1147
  376MOL0     C50679   3.671   7.505   0.851 -0.1740  0.5476  0.2550
  376MOL0     C50680   3.337   7.349   0.599  0.7132  0.0640 -0.1271
  376MOL0     C50681   3.214   7.415   0.638 -0.0488 -0.3521 -0.8671
  376MOL0     C50682   3.109   7.459   0.566  0.1532 -0.9205  0.2512
  376MOL0     C50683   3.113   7.419   0.434  0.8153  0.9958  0.2113
  376MOL0     O50684   3.009   7.458   0.354 -0.4572  0.1593 -0.9434
  376MOL0     C50685   3.008   7.418   0.220  0.0927  0.6399  0.9223
  376MOL0     C50686   2.877   7.472   0.163 -0.5583  0.8876 -0.1466
  376MOL0     C50687   2.873   7.619   0.148  0.1638 -0.7683  0.0087
  376MOL0     C50688   2.744   7.680   0.082 -0.1736  0.4406 -0.3422
  376MOL0     C50689   2.723   7.622  -0.053 -0.7543  0.0963  1.6991
  376MOL0     C50690   2.710   7.585  -0.169 -1.0938  0.7049 -0.8067
  376MOL0     C50691   3.223   7.345   0.391 -0.2464  0.6171  0.1473
  376MOL0     C50692   3.335   7.316   0.467 -1.0828  0.3865 -1.1141
  376MOL0     H50693   3.499   7.259   0.978 -1.3664  1.2137 -0.3764
  376MOL0     H50694   3.708   7.202   1.089 -0.1531 -2.7139 -2.3171
  376MOL0     H50695   4.066   7.463   1.161  0.2545 -0.1021 -0.4998
  376MOL0     H50696   3.894   7.500   1.172  0.4285  0.2049 -2.4337
  376MOL0     H50697   3.854   7.327   1.319 -0.2545 -0.4445  0.5216
  376MOL0     H50698   4.003   7.237   1.292  0.7477  0.0175  1.7609
  376MOL0     H50699   4.129   7.423   1.377 -0.3473 -2.4598  1.4238
  376MOL0     H50700   3.985   7.515   1.419  1.0413 -0.0028  2.2564
  376MOL0     H50701   3.907   7.310   1.557  0.0141 -2.7996  0.4680
  376MOL0     H50702   4.056   7.233   1.500 -1.1987 -2.0044  2.5325
  376MOL0     H50703   4.068   7.322   1.740 -4.9270 -1.7734 -1.3469
  376MOL0     H50704   4.204   7.341   1.634 -0.6660  0.6213 -3.7904
  376MOL0     H50705   4.121   7.580   1.587  3.7163 -1.2567 -0.1999
  376MOL0     H50706   4.032   7.576   1.739  1.1148  2.1662  0.9198
  376MOL0     H50707   4.259   7.551   1.867  1.7758 -1.6240 -0.1851
  376MOL0     H50708   4.337   7.553   1.707 -0.6758 -3.0598  1.0999
  376MOL0     H50709   4.269   7.780   1.666  1.6907 -0.2913 -2.2388
  376MOL0     H50710   4.344   7.767   1.830  0.3853 -1.4756 -1.0182
  376MOL0     H50711   4.203   7.818   2.044 -1.0754  0.2032  1.6143
  376MOL0     H50712   3.857   7.796   2.127  0.0909 -0.4130  1.6059
  376MOL0     H50713   3.990   7.893   2.196 -0.9072  4.5678  1.5143
  376MOL0     H50714   3.765   8.000   2.017 -1.8964  0.2092  1.5982
  376MOL0     H50715   3.898   8.097   2.075  1.9759 -0.5956  3.4382
  376MOL0     H50716   3.712   7.957   2.270 -1.4147  0.7441  0.4526
  376MOL0     H50717   3.673   8.115   2.213 -1.4091 -1.5110  0.2268
  376MOL0     H50718   3.861   8.213   2.321  0.4880  0.0726 -0.8125
  376MOL0     H50719   3.946   8.067   2.337  0.8143  0.8299  2.5909
  376MOL0     H50720   3.741   7.806   2.485  2.4091 -0.0434 -3.1015
  376MOL0     H50721   3.765   7.601   2.575 -1.1302 -0.7801  1.0757
  376MOL0     H50722   3.908   7.551   2.671  0.3134 -0.3882  0.6615
  376MOL0     H50723   3.761   7.635   2.748  0.4896 -3.4690 -0.1394
  376MOL0     H50724   4.392   7.844   2.969  0.8028  1.1259 -1.3422
  376MOL0     H50725   4.558   7.702   3.089  1.5165 -3.0288  0.5173
  376MOL0     H50726   4.708   7.559   3.141 -1.3354  1.1285 -0.0218
  376MOL0     H50727   4.605   7.471   3.265  0.3461  0.5479 -0.0845
  376MOL0     H50728   4.726   7.274   3.227 -0.9924 -0.1280 -0.1912
  376MOL0     H50729   4.818   7.339   3.080 -0.3330 -0.2735  0.5520
  376MOL0     H50730   4.899   7.518   3.251 -0.0468  0.5026  0.0886
  376MOL0     H50731   4.990   7.371   3.244  1.0692  1.9322 -0.2659
  376MOL0     H50732   4.775   7.424   3.449 -1.2174 -3.3312  0.4145
  376MOL0     H50733   4.859   7.265   3.409  0.7494 -0.7224 -1.1761
  376MOL0     H50734   4.942   7.461   3.589 -1.0500  0.3941 -0.8381
  376MOL0     H50735   5.062   7.461   3.451  2.2221  0.4264  2.9567
  376MOL0     H50736   4.988   7.193   3.592 -0.3316  0.7441 -0.7714
  376MOL0     H50737   5.084   7.227   3.453 -1.9828 -4.2528  0.3646
  376MOL0     H50738   5.172   7.288   3.726 -2.1788 -1.0675  0.7099
  376MOL0     H50739   5.227   7.387   3.583 -2.8350  0.9210  1.6439
  376MOL0     H50740   5.390   7.202   3.609  0.6052 -0.4135  0.1700
  376MOL0     H50741   5.292   7.195   3.467 -0.7106  2.2445  0.1064
  376MOL0     H50742   4.395   7.343   2.903  2.6325 -0.6900  2.0157
  376MOL0     H50743   4.237   7.493   2.763 -0.5551  0.3119  0.8995
  376MOL0     H50744   4.153   7.960   2.715 -0.6443  0.4103 -0.5647
  376MOL0     H50745   4.025   8.117   2.592  0.3334 -2.0620  1.3242
  376MOL0     H50746   3.878   7.543   0.897  2.8198 -2.6017  1.3879
  376MOL0     H50747   3.669   7.576   0.769 -1.0581 -1.4791 -1.5759
  376MOL0     H50748   3.210   7.460   0.737 -1.8926  0.9494 -1.4727
  376MOL0     H50749   3.036   7.529   0.605  0.3088 -0.7087  0.1631
  376MOL0     H50750   3.088   7.465   0.161 -0.7523  1.4634  0.4107
  376MOL0     H50751   3.018   7.310   0.208  0.8916  0.8754 -0.8918
  376MOL0     H50752   2.797   7.452   0.235 -1.4233 -1.9636 -1.7593
  376MOL0     H50753   2.859   7.428   0.065 -0.1557  2.3389 -0.8924
  376MOL0     H50754   2.953   7.658   0.085  0.0526  0.5322  0.6335
  376MOL0     H50755   2.888   7.666   0.245 -0.0376  0.4231 -0.5137
  376MOL0     H50756   2.746   7.788   0.064 -0.9945  0.6630  0.8128
  376MOL0     H50757   2.662   7.650   0.148  1.6501 -1.9711  0.9896
  376MOL0     H50758   2.692   7.557  -0.271  1.3564 -0.8332 -0.9040
  376MOL0     H50759   3.233   7.311   0.289 -0.9190 -0.9053  0.5563
  376MOL0     H50760   3.423   7.267   0.427  0.3407  1.2538  0.8300
  377MOL0     O50761   4.988   6.816   7.870 -1.1290  1.0891  0.0812
  377MOL0     C50762   4.981   6.827   7.743  0.0213 -0.2603  0.1291
  377MOL0     O50763   5.073   6.899   7.665 -0.3693 -0.5151  0.2411
  377MOL0     C50764   5.191   6.950   7.720  0.1402  0.4376  0.0105
  377MOL0     C50765   5.273   6.878   7.806  0.0759 -0.1671  0.5958
  377MOL0     C50766   5.385   6.934   7.872 -0.7899  0.2812  1.0672
  377MOL0     C50767   5.419   7.071   7.848 -0.1937  0.7723 -0.0929
  377MOL0     O50768   5.527   7.147   7.908 -0.1328 -0.4133  0.3532
  377MOL0     C50769   5.554   7.126   8.039 -1.2317  0.3208 -0.5188
  377MOL0     C50770   5.620   7.258   8.088  0.5260  0.3945 -0.7443
  377MOL0     C50771   5.778   7.248   8.094  0.4036  0.3214 -1.0369
  377MOL0     C50772   5.850   7.384   8.123 -0.4736  1.2008 -0.6475
  377MOL0     C50773   6.001   7.365   8.116  0.0630 -0.0389  0.0874
  377MOL0     C50774   6.077   7.497   8.150  0.6171  1.2575  0.1501
  377MOL0     C50775   6.234   7.481   8.156 -0.9940 -0.0171  0.7035
  377MOL0     C50776   6.316   7.565   8.054  0.9772  0.7885  0.3519
  377MOL0     N50777   6.283   7.712   8.073 -0.2887 -0.3306  0.6613
  377MOL0     C50778   6.298   7.768   8.199 -0.2247  0.0503  0.8444
  377MOL0     C50779   6.236   7.888   8.190  0.5201  0.2100 -0.4898
  377MOL0     C50780   6.202   8.001   8.297 -0.7067 -1.1601  1.3406
  377MOL0     C50781   6.100   7.954   8.395 -0.9576  0.3628  0.0658
  377MOL0     C50782   6.045   8.077   8.472 -0.3297  0.0193 -0.4043
  377MOL0     C50783   5.926   8.034   8.560  0.5988  0.1330  0.0351
  377MOL0     O50784   5.958   7.943   8.670 -0.1746 -0.3134 -0.0046
  377MOL0     C50785   6.023   7.995   8.784  0.1148  0.8396  0.1359
  377MOL0     C50786   6.034   7.917   8.903  0.1744 -0.3189 -0.0090
  377MOL0     C50787   6.095   7.961   9.021 -0.5996 -1.2607  0.2208
  377MOL0     C50788   6.136   7.853   9.111  0.4434  0.6287 -0.0114
  377MOL0     C50789   6.150   8.103   9.026  0.3813  0.1348  0.5900
  377MOL0     C50790   6.235   8.153   9.127  0.3968 -0.5039  0.1654
  377MOL0     O50791   6.351   8.212   9.090 -0.7229 -0.2764 -0.4130
  377MOL0     C50792   6.439   8.264   9.192  0.3641  0.1423 -0.3206
  377MOL0     C50793   6.574   8.213   9.223 -0.7687 -0.0784 -0.6330
  377MOL0     C50794   6.651   8.275   9.326 -0.1941 -0.0976 -0.4338
  377MOL0     C50795   6.614   8.399   9.389 -0.4581 -0.7861  0.3970
  377MOL0     O50796   6.685   8.456   9.488  0.0580 -0.1665 -0.7687
  377MOL0     C50797   6.659   8.408   9.620 -0.3514 -0.1355  0.4792
  377MOL0     C50798   6.717   8.463   9.750  0.6390  0.4574  0.5499
  377MOL0     C50799   6.655   8.604   9.777  0.6689 -0.3097 -0.0911
  377MOL0     C50800   6.732   8.671   9.893 -0.5672  0.2094  0.6833
  377MOL0     C50801   6.741   8.827   9.895 -0.0138  0.4608  0.2593
  377MOL0     C50802   6.599   8.880   9.914  0.0563 -0.5529  0.7825
  377MOL0     C50803   6.589   9.020   9.987 -0.2001  0.0255 -0.1774
  377MOL0     C50804   6.489   9.049  10.103  0.1978  0.3457 -1.4571
  377MOL0    Cl50805   6.395   8.920  10.160  0.4429 -0.5011  0.4852
  377MOL0     C50806   6.499   8.455   9.345  0.0977 -0.6870  0.3576
  377MOL0     C50807   6.411   8.393   9.250 -0.2363  0.3306  0.6652
  377MOL0     O50808   6.196   8.145   9.242 -0.5767  0.1459  0.4652
  377MOL0     C50809   6.125   8.185   8.913 -0.3257  0.1981 -0.1700
  377MOL0     C50810   6.065   8.125   8.796 -0.7718 -1.5770  0.6961
  377MOL0     N50811   6.189   7.899   8.061  0.1497  0.5997 -0.6407
  377MOL0     N50812   6.218   7.791   7.992  0.0528  0.2290 -0.0096
  377MOL0     C50813   5.337   7.136   7.753  0.0509  0.7200  0.3083
  377MOL0     C50814   5.226   7.080   7.690 -0.6969  0.0731  0.4515
  377MOL0     C50815   4.865   6.763   7.672  0.8905  0.1596 -0.5041
  377MOL0     C50816   4.771   6.691   7.751 -0.4851 -0.6278 -0.1468
  377MOL0     C50817   4.649   6.642   7.699 -0.8622 -0.6839 -0.3849
  377MOL0     C50818   4.612   6.685   7.572 -0.1876  0.5086  0.2800
  377MOL0     O50819   4.487   6.656   7.522  0.2191  0.1463 -0.3175
  377MOL0     C50820   4.386   6.748   7.558  0.0169 -0.2706 -0.8111
  377MOL0     C50821   4.357   6.863   7.458 -1.0310 -0.5138  0.6999
  377MOL0     C50822   4.333   6.823   7.318  0.3833  0.4425  0.8514
  377MOL0     C50823   4.227   6.716   7.283  0.0092  0.2926 -0.7826
  377MOL0     C50824   4.099   6.782   7.287 -0.3325 -0.2402 -0.4466
  377MOL0     C50825   3.998   6.852   7.272  0.2009  0.5634 -0.4986
  377MOL0     C50826   4.704   6.751   7.486 -0.1933 -0.2371  0.5131
  377MOL0     C50827   4.831   6.789   7.532  0.7387  0.2428  0.7850
  377MOL0     H50828   5.259   6.772   7.825  2.5856 -1.2401 -2.5432
  377MOL0     H50829   5.446   6.869   7.935 -2.5773  0.1692  2.7747
  377MOL0     H50830   5.461   7.115   8.097  0.7015  0.8852  2.9367
  377MOL0     H50831   5.617   7.037   8.051 -3.3580 -1.0287  1.7754
  377MOL0     H50832   5.579   7.344   8.034  0.1389 -0.0810 -1.2256
  377MOL0     H50833   5.591   7.278   8.191  0.0799  1.1223 -0.9969
  377MOL0     H50834   5.819   7.178   8.168  2.0454  1.2648 -1.0095
  377MOL0     H50835   5.806   7.214   7.994  2.0485 -0.6306 -0.2955
  377MOL0     H50836   5.811   7.441   8.038 -0.1688 -1.8343 -3.0035
  377MOL0     H50837   5.826   7.438   8.215  2.3445 -0.1389  1.0032
  377MOL0     H50838   6.045   7.283   8.173  2.4657 -0.3378 -1.9921
  377MOL0     H50839   6.034   7.341   8.014 -3.3039  2.0666 -1.6660
  377MOL0     H50840   6.046   7.577   8.082 -1.0429 -0.0024 -0.6333
  377MOL0     H50841   6.041   7.528   8.248 -3.1888 -1.7496 -0.0401
  377MOL0     H50842   6.258   7.522   8.255 -0.0807  1.9041 -0.2544
  377MOL0     H50843   6.264   7.378   8.136  0.0499  0.6168 -1.2228
  377MOL0     H50844   6.305   7.530   7.951  2.1642  1.1854  0.0717
  377MOL0     H50845   6.424   7.554   8.071  0.8466 -0.5386  0.4555
  377MOL0     H50846   6.343   7.733   8.291  2.4619 -1.0608 -0.7791
  377MOL0     H50847   6.285   8.047   8.352 -3.2143  2.3467  2.5587
  377MOL0     H50848   6.168   8.091   8.244  2.7484 -0.4157  0.0973
  377MOL0     H50849   6.141   7.878   8.462 -0.0606  0.2448 -0.6049
  377MOL0     H50850   6.015   7.916   8.336  0.4313 -0.2524 -1.6294
  377MOL0     H50851   6.004   8.149   8.401 -0.7022  4.1415  3.4723
  377MOL0     H50852   6.127   8.120   8.531 -2.2037  2.7132  0.4089
  377MOL0     H50853   5.856   7.986   8.491  0.2684  3.9721 -2.6241
  377MOL0     H50854   5.877   8.128   8.588  0.1475 -0.0858 -0.0087
  377MOL0     H50855   6.001   7.813   8.903  0.6626 -0.5187  1.8945
  377MOL0     H50856   6.061   7.774   9.112  0.2105  0.8257  2.0233
  377MOL0     H50857   6.233   7.822   9.070  1.0998 -1.4380  2.8152
  377MOL0     H50858   6.156   7.897   9.209  2.3139 -2.2274  1.0126
  377MOL0     H50859   6.589   8.116   9.176 -3.5225 -0.4143 -0.9767
  377MOL0     H50860   6.752   8.242   9.344  0.8389  1.6326 -2.5429
  377MOL0     H50861   6.553   8.398   9.644 -0.0485  1.8653  3.1025
  377MOL0     H50862   6.700   8.307   9.625 -3.4840 -1.4456  3.1440
  377MOL0     H50863   6.701   8.397   9.836  0.3028 -1.0555 -0.6198
  377MOL0     H50864   6.822   8.485   9.729  0.5741 -0.4178 -0.8431
  377MOL0     H50865   6.548   8.598   9.800  0.0639  4.9247 -0.4743
  377MOL0     H50866   6.661   8.661   9.684  0.0934  1.1288  0.7324
  377MOL0     H50867   6.683   8.636   9.984 -2.8637 -1.3426 -1.0501
  377MOL0     H50868   6.833   8.630   9.900 -1.4613 -2.1225  0.6678
  377MOL0     H50869   6.795   8.858   9.804 -1.8484 -0.9817 -1.4172
  377MOL0     H50870   6.799   8.854   9.983 -0.7775 -0.4725  1.0710
  377MOL0     H50871   6.553   8.875   9.815 -2.2068 -4.3660  1.7818
  377MOL0     H50872   6.538   8.811   9.975 -1.5027 -0.8431 -1.0186
  377MOL0     H50873   6.581   9.102   9.914  0.9582  0.0205 -0.3258
  377MOL0     H50874   6.688   9.036  10.030 -0.7712 -0.0941  1.2331
  377MOL0     H50875   6.421   9.133  10.083 -1.8878  0.1024  3.1233
  377MOL0     H50876   6.545   9.069  10.195 -1.9787 -2.4138  0.6349
  377MOL0     H50877   6.476   8.550   9.393 -1.6023 -0.2947 -1.1330
  377MOL0     H50878   6.333   8.460   9.216  1.4541  1.7053 -0.6647
  377MOL0     H50879   6.159   8.288   8.920 -1.3084  0.5464 -0.4350
  377MOL0     H50880   6.058   8.198   8.716  0.1041  2.5741  4.0846
  377MOL0     H50881   5.371   7.237   7.731 -1.2208  0.8315 -1.3253
  377MOL0     H50882   5.162   7.130   7.618 -0.2189  0.0047 -0.0290
  377MOL0     H50883   4.799   6.668   7.853 -2.9262 -2.2036  0.2405
  377MOL0     H50884   4.583   6.589   7.767 -0.2477  2.0007  2.5451
  377MOL0     H50885   4.302   6.686   7.590 -1.1514  2.0373  0.9367
  377MOL0     H50886   4.415   6.800   7.651 -1.0534  2.5793 -1.9620
  377MOL0     H50887   4.443   6.930   7.460 -0.7957 -0.6361 -1.7963
  377MOL0     H50888   4.281   6.933   7.494 -2.4330 -0.6846 -1.7398
  377MOL0     H50889   4.428   6.786   7.280  0.4603 -1.3193  2.6317
  377MOL0     H50890   4.313   6.913   7.259  0.5245 -0.9657 -1.4721
  377MOL0     H50891   4.219   6.629   7.348  1.5040  3.1830  3.8037
  377MOL0     H50892   4.244   6.687   7.179  3.3768 -0.9764 -0.0210
  377MOL0     H50893   3.913   6.916   7.267  0.8159  1.8425  2.9037
  377MOL0     H50894   4.686   6.778   7.382 -2.6287 -2.0826  0.3635
  377MOL0     H50895   4.894   6.841   7.460  1.3325 -3.4712 -1.6291
  378MOL0     O50896   7.497   6.775   4.257 -0.4988 -0.2996  0.0839
  378MOL0     C50897   7.451   6.817   4.365 -0.1632  0.3258  0.1540
  378MOL0     O50898   7.526   6.866   4.461 -0.7819 -0.1923  0.5913
  378MOL0     C50899   7.665   6.861   4.448 -0.3024  0.1644  0.4726
  378MOL0     C50900   7.735   6.749   4.473  0.3520 -0.0639 -0.5642
  378MOL0     C50901   7.875   6.741   4.437  0.0246  0.4093 -1.2588
  378MOL0     C50902   7.950   6.855   4.401  0.1328  1.6781  0.1209
  378MOL0     O50903   8.082   6.855   4.365  0.2183  0.2729  0.4086
  378MOL0     C50904   8.177   6.776   4.443  0.8222 -0.9440  0.8387
  378MOL0     C50905   8.255   6.864   4.538 -0.2070  0.3574  0.3048
  378MOL0     C50906   8.342   6.955   4.462 -0.7161  0.3214 -0.4924
  378MOL0     C50907   8.471   6.885   4.406 -0.9509 -0.5559 -1.3957
  378MOL0     C50908   8.556   7.000   4.339 -0.2364  0.1419 -0.7254
  378MOL0     C50909   8.641   6.944   4.230  0.1687 -0.2010 -0.0212
  378MOL0     C50910   8.693   7.066   4.148  0.3827 -0.4625  0.4397
  378MOL0     C50911   8.793   7.026   4.039 -0.8289 -0.1383  0.4414
  378MOL0     N50912   8.826   7.124   3.930  0.6133 -0.0179 -0.4719
  378MOL0     C50913   8.841   7.265   3.952  0.8135  0.5931 -0.1107
  378MOL0     C50914   8.867   7.315   3.839 -0.5684 -0.8564 -0.0491
  378MOL0     C50915   8.895   7.463   3.809 -0.4194  0.7627 -0.7126
  378MOL0     C50916   9.005   7.508   3.905 -0.2632  1.1604 -0.4974
  378MOL0     C50917   9.033   7.647   3.868 -0.3737 -0.2266  0.1824
  378MOL0     C50918   9.127   7.718   3.960  0.1844 -0.6529 -0.4537
  378MOL0     O50919   9.240   7.638   4.012 -0.0906  0.1521 -0.0615
  378MOL0     C50920   9.353   7.701   4.059 -1.0341  0.5880  0.1458
  378MOL0     C50921   9.359   7.824   4.132  0.3080  0.5713 -0.0967
  378MOL0     C50922   9.484   7.870   4.178  0.0574 -0.1360 -0.2933
  378MOL0     C50923   9.498   7.996   4.261 -0.1628 -0.2489 -0.3750
  378MOL0     C50924   9.593   7.786   4.166 -0.1757  0.1898  0.2837
  378MOL0     C50925   9.724   7.832   4.212 -0.2247 -0.2391 -0.3203
  378MOL0     O50926   9.798   7.894   4.119  0.2967 -0.1065  0.0762
  378MOL0     C50927   9.935   7.909   4.138  0.4188 -0.3511 -0.5311
  378MOL0     C50928  10.017   7.828   4.221 -0.1193 -0.1320 -0.9323
  378MOL0     C50929  10.150   7.858   4.247  0.3345  0.4853 -0.1951
  378MOL0     C50930  10.207   7.965   4.185  1.2544 -1.2442  0.6307
  378MOL0     O50931  10.330   7.999   4.228  1.1498 -0.1688 -0.1297
  378MOL0     C50932  10.378   8.130   4.189  0.6828 -0.3962 -0.1630
  378MOL0     C50933  10.517   8.167   4.254  0.2638 -0.2882  0.3368
  378MOL0     C50934  10.636   8.091   4.193  0.1493 -0.1265 -0.4703
  378MOL0     C50935  10.641   7.949   4.245  0.0561 -0.6087 -0.7219
  378MOL0     C50936  10.784   7.917   4.293  0.4806 -0.6262 -0.4423
  378MOL0     C50937  10.798   7.777   4.332  0.7039 -0.6456 -0.4781
  378MOL0     C50938  10.946   7.740   4.320 -0.3640  0.0472  0.8268
  378MOL0     C50939  10.969   7.603   4.390  0.7491 -0.8687  0.4729
  378MOL0    Cl50940  11.110   7.514   4.335  0.6509 -0.1533 -0.0926
  378MOL0     C50941  10.131   8.049   4.096  0.3686 -0.3039 -0.2888
  378MOL0     C50942  10.001   8.015   4.061  1.0881  0.4930  0.4287
  378MOL0     O50943   9.750   7.820   4.335 -0.2493  0.5388 -1.2492
  378MOL0     C50944   9.589   7.662   4.103 -0.5085 -0.5377  0.0717
  378MOL0     C50945   9.467   7.620   4.051 -0.1106 -0.2178  0.3100
  378MOL0     N50946   8.851   7.218   3.741  0.2518  0.7228  0.8131
  378MOL0     N50947   8.827   7.105   3.793 -0.1899 -0.3714 -0.3900
  378MOL0     C50948   7.876   6.965   4.362  0.2271 -0.0355  0.8501
  378MOL0     C50949   7.739   6.966   4.384  0.3036  1.0704  0.5052
  378MOL0     C50950   7.306   6.817   4.387  1.2660  0.0159 -0.3885
  378MOL0     C50951   7.215   6.788   4.284  0.3227  0.0836  0.2042
  378MOL0     C50952   7.079   6.801   4.296  0.4285 -0.5870  0.3120
  378MOL0     C50953   7.026   6.861   4.404  0.3311  0.0571  0.0705
  378MOL0     O50954   6.890   6.884   4.405  0.0453 -0.6590 -0.4719
  378MOL0     C50955   6.796   6.794   4.339 -1.6692 -0.5274 -0.0240
  378MOL0     C50956   6.680   6.749   4.430  0.3336 -0.5776  0.3548
  378MOL0     C50957   6.590   6.642   4.360 -0.6206  0.1498  0.9890
  378MOL0     C50958   6.546   6.672   4.218 -0.1331  0.6541  0.2859
  378MOL0     C50959   6.428   6.594   4.185  0.3213  0.6788  0.1850
  378MOL0     C50960   6.333   6.519   4.159 -0.0034  0.6674  0.2108
  378MOL0     C50961   7.110   6.884   4.518  0.1471 -0.8804  0.2639
  378MOL0     C50962   7.245   6.857   4.507 -0.7856 -0.3493  1.1635
  378MOL0     H50963   7.678   6.665   4.512 -2.1983  1.7061 -0.2125
  378MOL0     H50964   7.913   6.642   4.463 -5.2042 -1.2631  1.3955
  378MOL0     H50965   8.126   6.697   4.499 -0.1350  1.5286  3.7520
  378MOL0     H50966   8.246   6.733   4.370  0.8240 -2.5450  1.7467
  378MOL0     H50967   8.188   6.920   4.604 -1.2727 -3.8349  3.1962
  378MOL0     H50968   8.300   6.796   4.611 -1.3523  1.7411  2.4288
  378MOL0     H50969   8.283   7.006   4.385 -0.0617  0.4880 -0.8917
  378MOL0     H50970   8.386   7.021   4.538  1.1243  0.5194 -1.6707
  378MOL0     H50971   8.525   6.831   4.484 -0.6373  2.6959  0.8276
  378MOL0     H50972   8.451   6.808   4.331 -0.1848 -1.9269 -0.2236
  378MOL0     H50973   8.493   7.079   4.295 -2.1011 -0.4081  0.7954
  378MOL0     H50974   8.619   7.049   4.414  0.6544 -0.9131 -0.7727
  378MOL0     H50975   8.723   6.884   4.271  0.7616 -1.4220 -2.7274
  378MOL0     H50976   8.577   6.875   4.173  1.1131 -1.1211  0.0013
  378MOL0     H50977   8.606   7.108   4.096  1.0178 -2.1925 -2.2593
  378MOL0     H50978   8.731   7.144   4.214  0.8786 -1.7379  1.6995
  378MOL0     H50979   8.730   6.951   3.990 -0.5660 -0.1966  0.1915
  378MOL0     H50980   8.886   6.994   4.086 -2.2175  0.1048  3.6170
  378MOL0     H50981   8.842   7.327   4.041 -0.5740  1.8578 -0.9378
  378MOL0     H50982   8.931   7.477   3.707  3.1812  0.3030  0.3687
  378MOL0     H50983   8.803   7.523   3.808  0.6110  2.4249  0.0924
  378MOL0     H50984   9.092   7.446   3.879  0.0360  1.2751  0.2177
  378MOL0     H50985   8.974   7.507   4.010  1.8475  1.3287  0.1807
  378MOL0     H50986   8.945   7.712   3.870 -0.0427  0.4373 -2.5893
  378MOL0     H50987   9.090   7.647   3.774 -0.9597 -3.7330 -0.2956
  378MOL0     H50988   9.064   7.748   4.044 -1.3385 -2.0822 -1.0125
  378MOL0     H50989   9.157   7.806   3.902 -0.5205  0.3807  0.7192
  378MOL0     H50990   9.267   7.882   4.130 -1.1790 -1.5914  0.8120
  378MOL0     H50991   9.407   8.057   4.267  0.8765  1.3499 -0.3387
  378MOL0     H50992   9.508   7.973   4.367  1.3566  2.1776  0.0928
  378MOL0     H50993   9.590   8.049   4.236 -0.1821 -0.0072  0.0656
  378MOL0     H50994   9.972   7.744   4.274 -0.9156  0.8875  0.0600
  378MOL0     H50995  10.209   7.797   4.315 -1.2017 -0.9192 -0.0533
  378MOL0     H50996  10.391   8.146   4.082  0.6372 -1.1481 -0.2861
  378MOL0     H50997  10.309   8.205   4.227 -1.2801 -0.0504 -4.0335
  378MOL0     H50998  10.546   8.272   4.244 -0.6725 -0.0363  0.1050
  378MOL0     H50999  10.512   8.147   4.362  4.2732  0.1938  0.7722
  378MOL0     H51000  10.727   8.143   4.225  2.1022 -3.7410  0.4229
  378MOL0     H51001  10.655   8.085   4.085  1.2276 -1.2289 -0.2484
  378MOL0     H51002  10.579   7.931   4.334  1.6697  0.2421  0.6261
  378MOL0     H51003  10.618   7.884   4.161 -1.3188 -0.1035 -0.7736
  378MOL0     H51004  10.812   7.978   4.380 -0.4696 -2.5105  1.2691
  378MOL0     H51005  10.845   7.955   4.210 -1.0442  1.0713 -0.8480
  378MOL0     H51006  10.762   7.767   4.435  0.1888 -0.6513 -0.6562
  378MOL0     H51007  10.730   7.715   4.275 -2.5230 -0.8059  3.1447
  378MOL0     H51008  11.018   7.815   4.353 -0.0232 -0.7566  1.9905
  378MOL0     H51009  10.971   7.720   4.216 -0.6553 -0.1493  0.7925
  378MOL0     H51010  10.877   7.546   4.375  0.0904  0.1387  0.6599
  378MOL0     H51011  10.987   7.618   4.496 -3.0246  0.4021  1.0522
  378MOL0     H51012  10.183   8.122   4.034 -0.4990 -1.2287 -2.1975
  378MOL0     H51013   9.940   8.073   3.992  3.2601  3.2396  0.6198
  378MOL0     H51014   9.682   7.605   4.099  1.5797  2.3814  2.5881
  378MOL0     H51015   9.463   7.532   3.987  1.1516 -0.6002  0.7179
  378MOL0     H51016   7.926   7.050   4.316 -1.5123  1.2782  1.2643
  378MOL0     H51017   7.689   7.049   4.336  0.8322  1.4488  0.5908
  378MOL0     H51018   7.251   6.754   4.187  0.2709 -0.6662  0.4367
  378MOL0     H51019   7.016   6.765   4.215 -1.5274 -0.7557  1.8372
  378MOL0     H51020   6.763   6.847   4.250  1.2662  1.6836  0.0597
  378MOL0     H51021   6.846   6.703   4.303  0.6559  0.7931 -0.3745
  378MOL0     H51022   6.608   6.829   4.445 -0.3173 -0.9696 -0.5948
  378MOL0     H51023   6.724   6.700   4.517  0.2942  0.6378  1.0824
  378MOL0     H51024   6.505   6.625   4.426 -1.1966  1.7214  0.6798
  378MOL0     H51025   6.659   6.557   4.369  1.5955  1.7250 -0.0148
  378MOL0     H51026   6.637   6.639   4.166 -1.0179 -0.7124 -0.4569
  378MOL0     H51027   6.544   6.780   4.203  0.2426  0.9347  1.9741
  378MOL0     H51028   6.252   6.452   4.137 -0.0114 -0.1584  2.5272
  378MOL0     H51029   7.069   6.924   4.610  2.5473  0.8121  0.7127
  378MOL0     H51030   7.303   6.877   4.596 -2.2298 -0.8860  2.2686
  379MOL0     O51031   8.559   4.430   4.933  0.6690 -0.5705 -0.2977
  379MOL0     C51032   8.518   4.341   4.860  0.5063 -0.2989 -0.2703
  379MOL0     O51033   8.531   4.214   4.893  0.3032  0.5827  0.6945
  379MOL0     C51034   8.618   4.177   4.996  0.3834  0.0998 -0.3967
  379MOL0     C51035   8.576   4.122   5.110  0.2894 -0.6992 -1.5701
  379MOL0     C51036   8.663   4.101   5.226 -0.8658  0.2285 -0.4855
  379MOL0     C51037   8.792   4.136   5.214 -0.1412  0.0268 -0.3824
  379MOL0     O51038   8.887   4.127   5.321 -0.6689 -0.3998  0.4555
  379MOL0     C51039   8.848   4.052   5.437 -0.2733 -0.9614 -0.8449
  379MOL0     C51040   8.970   4.049   5.531 -0.5529 -0.0907  0.9585
  379MOL0     C51041   8.928   3.965   5.652 -0.1290 -0.3062 -0.1521
  379MOL0     C51042   9.038   3.960   5.763  0.6315 -0.6202 -0.3481
  379MOL0     C51043   8.974   3.930   5.895  0.3200 -0.1128  0.8766
  379MOL0     C51044   9.101   3.899   5.984  0.6279  1.0939 -0.2647
  379MOL0     C51045   9.070   3.809   6.096 -0.4479  0.2275 -0.8105
  379MOL0     C51046   9.075   3.656   6.060  0.0829 -0.4659  0.4522
  379MOL0     N51047   9.078   3.572   6.180  0.2845  0.3934  0.8231
  379MOL0     C51048   9.187   3.568   6.264 -0.0086  0.2618  0.2225
  379MOL0     C51049   9.157   3.489   6.375 -0.2401  0.1344 -0.1244
  379MOL0     C51050   9.254   3.450   6.491 -0.3286 -0.5725  0.4985
  379MOL0     C51051   9.187   3.334   6.560  0.0788  0.1232  1.1116
  379MOL0     C51052   9.093   3.397   6.668  0.4762  0.3735 -0.4999
  379MOL0     C51053   9.144   3.440   6.802 -0.1961 -0.0835  0.4382
  379MOL0     O51054   9.031   3.476   6.880  0.1261  0.9898  0.3838
  379MOL0     C51055   9.063   3.541   7.001  0.8712 -0.3181  0.1214
  379MOL0     C51056   9.182   3.526   7.074  0.1230  0.1203  0.7219
  379MOL0     C51057   9.204   3.594   7.199  0.2621 -0.0038  1.3033
  379MOL0     C51058   9.328   3.553   7.276 -0.5035  0.8973 -0.5404
  379MOL0     C51059   9.105   3.687   7.244  0.1948 -0.2450 -0.5623
  379MOL0     C51060   9.126   3.774   7.367  0.6186 -0.1483 -0.3766
  379MOL0     O51061   9.243   3.790   7.418 -0.5837  1.0598 -0.4159
  379MOL0     C51062   9.270   3.872   7.529  0.5504 -0.8977  0.5526
  379MOL0     C51063   9.209   3.997   7.559 -0.7083  1.2162  1.3650
  379MOL0     C51064   9.244   4.065   7.675  0.6992  0.1076 -0.1707
  379MOL0     C51065   9.327   4.005   7.776  0.4340 -0.2281  0.6955
  379MOL0     O51066   9.371   4.060   7.895  0.2643 -0.8354 -0.3971
  379MOL0     C51067   9.345   4.198   7.914 -0.0045  0.6953  0.6316
  379MOL0     C51068   9.409   4.253   8.037  0.1757  0.0119 -0.2831
  379MOL0     C51069   9.559   4.262   8.027 -0.0610 -0.2548 -0.6001
  379MOL0     C51070   9.636   4.313   8.158 -0.0853 -0.2830  0.4001
  379MOL0     C51071   9.591   4.449   8.218  0.3281  0.3491 -0.0540
  379MOL0     C51072   9.653   4.573   8.130  0.1369 -0.6134 -0.0192
  379MOL0     C51073   9.635   4.730   8.177 -0.5165  1.2846  0.5952
  379MOL0     C51074   9.736   4.799   8.090  0.5452 -0.5452 -0.1394
  379MOL0    Cl51075   9.693   4.977   8.050  0.0914  0.8637  0.0203
  379MOL0     C51076   9.379   3.877   7.744 -0.5865 -0.1357 -0.1773
  379MOL0     C51077   9.350   3.808   7.624  1.1119  0.9846 -0.4654
  379MOL0     O51078   9.020   3.820   7.414  1.2006 -0.1820 -0.1564
  379MOL0     C51079   8.991   3.698   7.162  0.5133 -0.0152 -0.1175
  379MOL0     C51080   8.962   3.633   7.045 -0.1507  0.0171 -0.0491
  379MOL0     N51081   9.024   3.450   6.359 -0.3179 -0.4221  0.1340
  379MOL0     N51082   8.983   3.498   6.248  0.7409  0.6028  0.6391
  379MOL0     C51083   8.838   4.187   5.094  0.1831 -0.0943 -0.4461
  379MOL0     C51084   8.752   4.202   4.984  0.3058 -0.1196  0.0440
  379MOL0     C51085   8.462   4.376   4.732 -0.2446 -0.6237  0.0040
  379MOL0     C51086   8.400   4.500   4.719  1.5468 -0.2259 -0.9787
  379MOL0     C51087   8.346   4.541   4.602  1.0298  0.0253  0.0706
  379MOL0     C51088   8.350   4.461   4.485  0.6282 -0.6858  0.2299
  379MOL0     O51089   8.299   4.513   4.366 -0.5659  0.0924 -0.2585
  379MOL0     C51090   8.386   4.583   4.270  0.1064 -0.3736  0.0492
  379MOL0     C51091   8.497   4.494   4.226  0.2463  0.1207 -0.3422
  379MOL0     C51092   8.562   4.543   4.099 -0.3858 -0.8420  0.2170
  379MOL0     C51093   8.672   4.439   4.063  0.0874  0.0235 -0.2480
  379MOL0     C51094   8.619   4.315   4.003 -0.0032 -0.4047  0.3530
  379MOL0     C51095   8.539   4.226   3.975 -0.1217 -0.5611  0.2277
  379MOL0     C51096   8.407   4.334   4.501  0.2877  1.1095 -0.6784
  379MOL0     C51097   8.466   4.293   4.621 -0.0546 -0.1902 -0.2334
  379MOL0     H51098   8.468   4.111   5.105  0.0660  0.3655  0.1605
  379MOL0     H51099   8.620   4.089   5.325  3.9157  2.3419  2.1818
  379MOL0     H51100   8.765   4.108   5.483  1.5101  3.0716 -2.0836
  379MOL0     H51101   8.832   3.945   5.423  3.6309 -2.8574  5.2939
  379MOL0     H51102   9.051   3.988   5.490 -0.7735  0.1723  0.1164
  379MOL0     H51103   8.994   4.155   5.548 -0.8319  0.6722 -2.6575
  379MOL0     H51104   8.845   4.025   5.690  0.2031  1.8064 -2.4692
  379MOL0     H51105   8.901   3.860   5.641 -1.1258 -0.5175  3.1458
  379MOL0     H51106   9.104   3.883   5.723 -0.9079 -1.8524 -0.6147
  379MOL0     H51107   9.085   4.059   5.766 -0.3501 -0.1139 -1.2255
  379MOL0     H51108   8.915   4.016   5.928 -0.3852 -0.1560 -0.2089
  379MOL0     H51109   8.905   3.845   5.886  0.5135 -0.1625 -0.3674
  379MOL0     H51110   9.189   3.861   5.931 -0.0023 -1.0483  0.1323
  379MOL0     H51111   9.133   3.998   6.019  1.4120  0.3011  1.3451
  379MOL0     H51112   9.144   3.828   6.174 -0.9810 -1.1254  0.0605
  379MOL0     H51113   8.969   3.835   6.129 -0.2843  0.3463 -0.3934
  379MOL0     H51114   9.163   3.632   5.999 -1.1418 -5.2134  0.1339
  379MOL0     H51115   8.984   3.637   6.002 -1.5540 -1.6829  3.1898
  379MOL0     H51116   9.277   3.623   6.238 -0.5952 -0.1873 -3.2714
  379MOL0     H51117   9.355   3.429   6.454  0.1547  1.4134  0.5682
  379MOL0     H51118   9.256   3.534   6.560  3.6852 -0.5029  0.5357
  379MOL0     H51119   9.265   3.270   6.601 -0.0783 -0.7491  0.0925
  379MOL0     H51120   9.141   3.275   6.481  0.7462 -0.4556  1.1419
  379MOL0     H51121   9.031   3.309   6.687  0.9073 -0.2094 -1.7102
  379MOL0     H51122   9.027   3.477   6.632  0.7237 -0.1135 -2.0716
  379MOL0     H51123   9.208   3.526   6.781  2.2138 -1.9967 -0.5762
  379MOL0     H51124   9.193   3.358   6.856  3.0486  1.5745  0.3047
  379MOL0     H51125   9.265   3.466   7.036 -0.5874  0.7001 -1.9231
  379MOL0     H51126   9.387   3.471   7.234  2.8122  2.0506  1.4427
  379MOL0     H51127   9.408   3.629   7.275  0.0479  0.3149 -0.9996
  379MOL0     H51128   9.311   3.534   7.382  1.4971 -1.0688 -0.5012
  379MOL0     H51129   9.139   4.032   7.484 -1.6436 -0.3937  1.4437
  379MOL0     H51130   9.198   4.162   7.689  0.5000  0.4694 -2.8200
  379MOL0     H51131   9.379   4.259   7.831  1.5323 -1.2102 -0.2324
  379MOL0     H51132   9.238   4.220   7.922 -0.5289 -0.1849 -2.6668
  379MOL0     H51133   9.386   4.360   8.041  0.8353  0.3496 -3.2732
  379MOL0     H51134   9.371   4.205   8.128 -1.5992  0.0436 -0.9716
  379MOL0     H51135   9.583   4.320   7.937 -1.2601  1.8193  0.3338
  379MOL0     H51136   9.613   4.169   8.011  1.6262  0.8798 -1.9646
  379MOL0     H51137   9.619   4.236   8.235 -1.0489 -1.3957 -0.8757
  379MOL0     H51138   9.744   4.318   8.140 -0.1041  3.9091  0.5346
  379MOL0     H51139   9.634   4.457   8.319  1.6921 -0.2264 -0.5727
  379MOL0     H51140   9.482   4.462   8.224  0.2521 -0.0551 -0.5644
  379MOL0     H51141   9.760   4.553   8.122 -0.0534 -0.7495 -3.9129
  379MOL0     H51142   9.611   4.568   8.029 -0.6479 -0.7854  0.3080
  379MOL0     H51143   9.665   4.727   8.282  0.5317  0.0939  0.2845
  379MOL0     H51144   9.533   4.767   8.160 -0.0540  1.0899 -3.6447
  379MOL0     H51145   9.757   4.744   7.997 -0.3713 -2.6450  0.8438
  379MOL0     H51146   9.827   4.802   8.151  0.4649  0.1248 -0.0406
  379MOL0     H51147   9.424   3.822   7.826 -0.8591 -0.3648 -0.1799
  379MOL0     H51148   9.378   3.704   7.608 -0.5098  0.5014 -0.2970
  379MOL0     H51149   8.911   3.766   7.190  1.0037  1.3915 -1.9261
  379MOL0     H51150   8.876   3.646   6.980  0.6453  0.2063 -1.0931
  379MOL0     H51151   8.945   4.201   5.077  0.5398 -1.0335  0.8749
  379MOL0     H51152   8.799   4.250   4.899 -2.6080  3.1038 -0.0109
  379MOL0     H51153   8.410   4.579   4.793  3.6634  1.2833 -2.7424
  379MOL0     H51154   8.291   4.634   4.592  1.9534  0.3621 -3.2216
  379MOL0     H51155   8.326   4.615   4.184 -1.4238  1.0012  1.5719
  379MOL0     H51156   8.427   4.674   4.316 -3.4381  2.4246 -1.7945
  379MOL0     H51157   8.468   4.389   4.210  1.8114 -0.3055 -0.5120
  379MOL0     H51158   8.574   4.490   4.303 -0.0832 -0.7111 -0.0421
  379MOL0     H51159   8.611   4.640   4.110  1.3436 -1.7856  1.2336
  379MOL0     H51160   8.489   4.554   4.019  1.0891  1.7819 -0.8993
  379MOL0     H51161   8.739   4.414   4.146  3.1082  2.0720 -1.8720
  379MOL0     H51162   8.747   4.478   3.994  0.2642  2.6016  1.2578
  379MOL0     H51163   8.466   4.153   3.945 -1.6797  1.8487 -2.3961
  379MOL0     H51164   8.408   4.259   4.423 -1.3526  0.7362 -0.3792
  379MOL0     H51165   8.522   4.201   4.639  0.2602 -0.1083 -0.7861
  380MOL0     O51166   3.417   3.430   3.319  0.1027 -0.9374 -0.5117
  380MOL0     C51167   3.499   3.350   3.364 -0.2057 -0.2712 -0.4286
  380MOL0     O51168   3.478   3.231   3.424 -0.6564 -0.7284 -0.2235
  380MOL0     C51169   3.361   3.188   3.479  0.5377  1.4136 -0.0145
  380MOL0     C51170   3.249   3.184   3.396 -0.0534 -0.3858 -0.0655
  380MOL0     C51171   3.141   3.103   3.441  0.9762 -0.0114  0.0069
  380MOL0     C51172   3.141   3.025   3.557 -0.2784  0.5203 -0.0437
  380MOL0     O51173   3.035   2.937   3.584  0.1828 -0.2574 -0.2997
  380MOL0     C51174   3.056   2.836   3.683 -0.2915 -0.0343  0.3216
  380MOL0     C51175   2.935   2.744   3.704  0.3740 -0.1371 -0.0757
  380MOL0     C51176   2.980   2.612   3.764  0.4587  1.1752  0.0802
  380MOL0     C51177   2.857   2.522   3.797 -0.1682 -0.4634 -0.0659
  380MOL0     C51178   2.898   2.400   3.883 -0.0637  0.4733 -0.4611
  380MOL0     C51179   2.777   2.349   3.952  0.7183  0.2221  0.7905
  380MOL0     C51180   2.803   2.209   4.011  0.2851 -0.1028 -0.7282
  380MOL0     C51181   2.690   2.171   4.111 -0.0765 -0.9406  0.2621
  380MOL0     N51182   2.558   2.163   4.049 -0.0032 -0.3908  0.6753
  380MOL0     C51183   2.480   2.270   4.016  0.2136  0.1676 -0.1633
  380MOL0     C51184   2.374   2.212   3.956  0.3588 -0.0821 -0.3800
  380MOL0     C51185   2.251   2.268   3.906  1.5047 -0.2469  0.6078
  380MOL0     C51186   2.268   2.398   3.832 -0.3376  0.8283 -0.5761
  380MOL0     C51187   2.363   2.400   3.711  0.2380  0.7349 -0.1163
  380MOL0     C51188   2.343   2.306   3.601  0.2711  0.6050 -0.2700
  380MOL0     O51189   2.211   2.340   3.550 -0.1772 -0.1119 -1.2856
  380MOL0     C51190   2.160   2.269   3.439  0.0582  0.2150  0.3996
  380MOL0     C51191   2.211   2.148   3.391 -0.2775 -0.0694 -0.2475
  380MOL0     C51192   2.137   2.072   3.288  0.6602 -0.1496  0.0155
  380MOL0     C51193   2.203   1.943   3.240 -0.0231 -0.2403  0.0761
  380MOL0     C51194   2.019   2.134   3.228  1.0044  1.1992 -0.4072
  380MOL0     C51195   1.944   2.074   3.101  0.4943 -0.6691 -0.1722
  380MOL0     O51196   1.816   2.124   3.072  0.1840  0.0232  0.3433
  380MOL0     C51197   1.774   2.085   2.946  0.5325  0.5350  0.0846
  380MOL0     C51198   1.649   2.036   2.944 -0.6509  0.9305 -0.7146
  380MOL0     C51199   1.584   2.021   2.824 -0.4606  1.0853 -0.1712
  380MOL0     C51200   1.649   2.034   2.701 -0.9845 -0.0230  0.3604
  380MOL0     O51201   1.607   2.009   2.573  0.0813 -0.4744 -0.0638
  380MOL0     C51202   1.471   1.964   2.558 -0.1492  0.8494  0.3180
  380MOL0     C51203   1.428   1.978   2.408 -0.9124 -0.0671  0.2427
  380MOL0     C51204   1.311   1.892   2.380 -0.2453 -0.6597 -0.0961
  380MOL0     C51205   1.254   1.920   2.242  0.5129  0.4394 -0.4011
  380MOL0     C51206   1.121   1.840   2.222 -0.7316  0.5011 -0.3757
  380MOL0     C51207   1.043   1.864   2.091 -0.8876 -0.7320 -0.2625
  380MOL0     C51208   0.998   2.014   2.096 -0.2601  0.9744 -1.0115
  380MOL0     C51209   0.915   2.045   1.979  0.1084  0.3257  0.2748
  380MOL0    Cl51210   0.827   2.196   1.999  0.0811 -0.0108 -0.4664
  380MOL0     C51211   1.782   2.083   2.705  0.4905 -0.3407 -0.5474
  380MOL0     C51212   1.843   2.120   2.821  0.3552 -0.9939 -0.6376
  380MOL0     O51213   2.007   1.992   3.038 -0.5257  0.0462  0.0943
  380MOL0     C51214   1.983   2.252   3.272 -1.0299  0.0997 -0.1624
  380MOL0     C51215   2.040   2.312   3.385 -0.1648  0.1811 -0.3575
  380MOL0     N51216   2.396   2.077   3.947 -0.4946 -0.5299 -0.0155
  380MOL0     N51217   2.501   2.048   4.004 -0.2241 -0.0205  0.7904
  380MOL0     C51218   3.264   3.015   3.620 -0.4981  0.0772  0.6679
  380MOL0     C51219   3.372   3.106   3.592  0.7240  0.8158  0.1500
  380MOL0     C51220   3.642   3.394   3.369 -0.4096 -0.0273 -0.0925
  380MOL0     C51221   3.691   3.511   3.303  0.5086  1.5578 -0.6104
  380MOL0     C51222   3.826   3.537   3.308 -0.0892  0.2604 -0.7999
  380MOL0     C51223   3.920   3.445   3.363 -0.1146 -1.0425 -0.3523
  380MOL0     O51224   4.050   3.441   3.342  0.4467 -0.9558  0.0574
  380MOL0     C51225   4.106   3.555   3.276 -0.5021 -0.1074 -0.3639
  380MOL0     C51226   4.257   3.560   3.286 -0.2466  0.7019  0.2796
  380MOL0     C51227   4.323   3.681   3.209 -0.0170  0.6966  0.8517
  380MOL0     C51228   4.282   3.821   3.266 -0.1462 -0.5323 -0.4165
  380MOL0     C51229   4.168   3.894   3.210 -0.2503  0.6042 -0.1026
  380MOL0     C51230   4.076   3.951   3.166  0.1097 -0.1526  0.5008
  380MOL0     C51231   3.874   3.334   3.438  0.3658 -0.9910 -0.1130
  380MOL0     C51232   3.737   3.307   3.443 -0.0476 -1.4307  0.0477
  380MOL0     H51233   3.234   3.245   3.308 -3.5168  0.9002  1.2466
  380MOL0     H51234   3.051   3.093   3.382  0.6878 -3.4888  0.8137
  380MOL0     H51235   3.146   2.781   3.652 -1.5741 -2.1855  0.2007
  380MOL0     H51236   3.079   2.881   3.780 -2.3508 -0.6127  1.1288
  380MOL0     H51237   2.867   2.801   3.768  0.7261  2.7934 -2.1336
  380MOL0     H51238   2.891   2.717   3.608  1.2528 -2.5147  0.1082
  380MOL0     H51239   3.042   2.552   3.697 -2.0666 -1.7221  0.1393
  380MOL0     H51240   3.036   2.627   3.857  0.7278 -0.5804  0.2310
  380MOL0     H51241   2.779   2.573   3.854 -0.8277 -0.0156 -1.3252
  380MOL0     H51242   2.816   2.485   3.703  1.3341 -2.3126 -0.0621
  380MOL0     H51243   2.943   2.331   3.811 -0.8188 -0.8446  0.2803
  380MOL0     H51244   2.977   2.421   3.955  0.0296 -0.0104 -0.4190
  380MOL0     H51245   2.749   2.422   4.029 -0.6240 -0.4094  0.9401
  380MOL0     H51246   2.699   2.340   3.875  1.3868 -1.4152  0.2481
  380MOL0     H51247   2.803   2.132   3.933  0.2700 -0.9595  0.1133
  380MOL0     H51248   2.897   2.200   4.067  0.2773  0.5702 -0.5886
  380MOL0     H51249   2.695   2.250   4.186  0.8435 -1.4767  0.7883
  380MOL0     H51250   2.716   2.076   4.158  1.0800 -0.6816  0.1665
  380MOL0     H51251   2.496   2.372   4.050 -2.6746  0.2626  1.1893
  380MOL0     H51252   2.204   2.188   3.848 -0.1707  1.5432 -0.6039
  380MOL0     H51253   2.204   2.294   4.001 -0.5460 -0.5625 -0.2787
  380MOL0     H51254   2.300   2.478   3.899  1.0675 -1.0203  1.0896
  380MOL0     H51255   2.167   2.428   3.803  0.1973  3.2128 -0.1115
  380MOL0     H51256   2.460   2.368   3.751  0.7381  0.2980 -1.6356
  380MOL0     H51257   2.379   2.502   3.675  3.1936 -0.2604 -2.0426
  380MOL0     H51258   2.345   2.204   3.640  0.3759 -0.5111 -3.0324
  380MOL0     H51259   2.415   2.330   3.522  0.6967  1.0708  0.2434
  380MOL0     H51260   2.299   2.105   3.438 -0.0828  1.4073  0.8022
  380MOL0     H51261   2.234   1.945   3.135 -0.9114 -0.8012 -0.2004
  380MOL0     H51262   2.292   1.930   3.303  0.5280  3.1029  0.2224
  380MOL0     H51263   2.133   1.861   3.255 -1.1285  0.7246  0.3913
  380MOL0     H51264   1.592   2.027   3.036 -2.9170 -0.4248 -2.1494
  380MOL0     H51265   1.484   1.977   2.823 -0.0153 -0.6261  4.6554
  380MOL0     H51266   1.479   1.857   2.577  1.2528  1.1894  1.8511
  380MOL0     H51267   1.394   2.012   2.620 -1.1145  1.9543 -1.6483
  380MOL0     H51268   1.404   2.084   2.402 -0.0906  0.0769 -0.9599
  380MOL0     H51269   1.515   1.963   2.343  0.4172 -0.1363  1.9505
  380MOL0     H51270   1.231   1.911   2.452 -0.2436 -2.7308  0.5200
  380MOL0     H51271   1.328   1.784   2.385  0.9786 -0.5103 -0.5632
  380MOL0     H51272   1.241   2.028   2.233  0.2364  0.2462 -3.2321
  380MOL0     H51273   1.322   1.902   2.157  2.5724 -1.6923  1.5383
  380MOL0     H51274   1.050   1.870   2.300 -0.7183  0.7171 -0.4470
  380MOL0     H51275   1.143   1.733   2.225 -5.6859 -0.7242  0.9541
  380MOL0     H51276   1.111   1.852   2.006 -0.3903  0.9385 -0.1481
  380MOL0     H51277   0.951   1.806   2.085 -0.7356 -1.5107  3.1012
  380MOL0     H51278   1.087   2.077   2.085 -0.1863  1.0959  0.1538
  380MOL0     H51279   0.935   2.030   2.184  0.1330 -0.7357 -0.3677
  380MOL0     H51280   0.835   1.972   1.991  0.7627  0.0475  4.4700
  380MOL0     H51281   0.988   2.035   1.898 -1.5487 -0.4196 -1.1821
  380MOL0     H51282   1.832   2.103   2.611  0.9453 -0.7699 -0.4010
  380MOL0     H51283   1.939   2.172   2.821  0.1789 -0.6374  0.8098
  380MOL0     H51284   1.900   2.300   3.222 -0.0477  2.4978  0.3460
  380MOL0     H51285   1.987   2.394   3.432  0.3874  1.4839 -1.9057
  380MOL0     H51286   3.294   2.933   3.685 -1.3184  0.0440  1.0220
  380MOL0     H51287   3.474   3.097   3.629 -0.0045 -1.9513  1.8921
  380MOL0     H51288   3.620   3.572   3.247 -2.5126  0.6484  1.8945
  380MOL0     H51289   3.843   3.620   3.240 -0.6497  1.4892  0.5004
  380MOL0     H51290   4.089   3.551   3.168 -0.3781  0.4748 -0.4102
  380MOL0     H51291   4.062   3.647   3.315 -1.7891 -0.7154 -0.3246
  380MOL0     H51292   4.295   3.466   3.247  0.6987  0.4384  1.7441
  380MOL0     H51293   4.278   3.553   3.393  0.3606  1.0728  0.1889
  380MOL0     H51294   4.302   3.666   3.103 -2.4017 -2.1258  1.5960
  380MOL0     H51295   4.431   3.687   3.228 -0.3924  2.1856  2.9243
  380MOL0     H51296   4.371   3.879   3.236 -0.5696  1.0911  1.2503
  380MOL0     H51297   4.284   3.823   3.375 -2.2938  0.1775 -0.3416
  380MOL0     H51298   4.001   4.007   3.115 -0.7637 -0.8786  0.9719
  380MOL0     H51299   3.940   3.264   3.489  1.4247 -1.0046 -1.4635
  380MOL0     H51300   3.706   3.220   3.501 -0.3120  0.1082  2.3713
  381MOL0     O51301   9.193   8.098   3.261  0.2604 -0.2978 -0.3601
  381MOL0     C51302   9.270   8.021   3.198 -0.6000 -0.5344  1.1704
  381MOL0     O51303   9.353   8.059   3.100 -0.3691 -0.1380 -0.4307
  381MOL0     C51304   9.339   8.188   3.058  0.3063 -0.8775  0.5396
  381MOL0     C51305   9.229   8.234   2.979 -0.6700 -0.0830 -0.2839
  381MOL0     C51306   9.229   8.365   2.925  0.5883  0.5878  0.3390
  381MOL0     C51307   9.337   8.448   2.943 -0.1671  0.1020  0.3970
  381MOL0     O51308   9.336   8.564   2.883 -0.2663  0.1343  0.0669
  381MOL0     C51309   9.460   8.629   2.845 -0.5107 -0.6112  0.8593
  381MOL0     C51310   9.427   8.733   2.741  0.6175  0.4381  0.2113
  381MOL0     C51311   9.326   8.832   2.782  0.0558  0.0276 -0.9218
  381MOL0     C51312   9.318   8.955   2.687  0.6558  0.7394  0.4489
  381MOL0     C51313   9.211   9.054   2.728 -0.7889 -0.7014  0.1704
  381MOL0     C51314   9.233   9.177   2.633 -0.3363 -0.8762 -0.2185
  381MOL0     C51315   9.105   9.264   2.628 -0.9040 -0.5826  0.2269
  381MOL0     C51316   9.043   9.294   2.763  0.4632  0.5689  0.1522
  381MOL0     N51317   9.128   9.335   2.876  0.1917 -0.3485  0.8833
  381MOL0     C51318   9.222   9.436   2.873  0.7700  0.6356 -0.2705
  381MOL0     C51319   9.257   9.438   3.008 -0.6796  0.5284 -0.1919
  381MOL0     C51320   9.341   9.542   3.078 -0.6684  0.9607  0.1477
  381MOL0     C51321   9.266   9.656   3.145 -0.4036  0.7093  1.1993
  381MOL0     C51322   9.348   9.755   3.215 -1.3051 -0.5386 -0.5233
  381MOL0     C51323   9.393   9.724   3.358 -0.4730  0.3255 -0.4200
  381MOL0     O51324   9.444   9.848   3.428 -0.0291 -0.2540 -0.4186
  381MOL0     C51325   9.581   9.880   3.422 -0.3916  0.5348  0.3503
  381MOL0     C51326   9.665   9.828   3.322 -0.7779 -0.1845  0.8873
  381MOL0     C51327   9.795   9.890   3.309 -0.2464 -0.0172 -0.1916
  381MOL0     C51328   9.881   9.838   3.201  0.5048 -0.3183  0.5770
  381MOL0     C51329   9.841   9.985   3.411  0.4974 -0.5559 -0.6178
  381MOL0     C51330   9.977  10.034   3.406 -0.5164  0.8212  0.4136
  381MOL0     O51331   9.991  10.158   3.354  0.3443  0.0008  0.7267
  381MOL0     C51332  10.106  10.221   3.367  0.6889 -0.4117  0.1014
  381MOL0     C51333  10.209  10.210   3.273 -0.6164 -0.5529  0.4008
  381MOL0     C51334  10.318  10.289   3.298  0.1006  0.1450 -0.2937
  381MOL0     C51335  10.342  10.363   3.410 -0.6519 -0.1315 -0.2681
  381MOL0     O51336  10.457  10.436   3.423  0.6254  0.3805  0.1475
  381MOL0     C51337  10.531  10.427   3.548 -0.2077 -0.0164 -0.3399
  381MOL0     C51338  10.636  10.539   3.569  0.1592 -0.0961  0.0381
  381MOL0     C51339  10.725  10.524   3.687 -0.6805  0.1828 -1.4843
  381MOL0     C51340  10.646  10.553   3.818  0.9363  0.2646 -0.5255
  381MOL0     C51341  10.717  10.484   3.934  1.4433  0.3450  0.4514
  381MOL0     C51342  10.657  10.339   3.959 -1.5065 -0.4162  0.4266
  381MOL0     C51343  10.729  10.279   4.080  0.3669  0.5012  0.3808
  381MOL0     C51344  10.868  10.217   4.051 -0.1797  0.8842  1.0620
  381MOL0    Cl51345  10.927  10.118   4.188  0.2568  0.4079 -0.3702
  381MOL0     C51346  10.248  10.368   3.501 -0.0106 -0.3098  0.2930
  381MOL0     C51347  10.121  10.304   3.480  0.2828 -0.0895  0.8010
  381MOL0     O51348  10.076   9.965   3.441 -0.2822 -0.5307 -0.1727
  381MOL0     C51349   9.757  10.024   3.513 -0.1038  0.1878  0.1299
  381MOL0     C51350   9.629   9.968   3.523 -0.7025  0.5408 -0.0073
  381MOL0     N51351   9.189   9.335   3.082 -0.5429  0.4804 -0.3515
  381MOL0     N51352   9.116   9.270   2.996 -0.5046  0.3636  0.1560
  381MOL0     C51353   9.449   8.405   3.026 -0.6826  0.4371 -0.1752
  381MOL0     C51354   9.441   8.275   3.086 -0.2388  0.0994  0.1862
  381MOL0     C51355   9.290   7.880   3.238  0.6960  0.2528  0.4652
  381MOL0     C51356   9.207   7.823   3.337 -0.5030 -0.3281  0.1687
  381MOL0     C51357   9.213   7.693   3.363  0.3924  0.6760  0.4766
  381MOL0     C51358   9.313   7.613   3.307 -0.4957  1.2039  1.0295
  381MOL0     O51359   9.331   7.477   3.335  0.3105  0.8272  0.2833
  381MOL0     C51360   9.230   7.410   3.412 -0.9400  0.1318 -0.4642
  381MOL0     C51361   9.238   7.427   3.569  0.2693  0.6463  0.5505
  381MOL0     C51362   9.380   7.387   3.608 -1.3518  0.1257 -0.8554
  381MOL0     C51363   9.367   7.371   3.771  0.3471 -0.4206  0.6440
  381MOL0     C51364   9.505   7.364   3.823  0.2538  0.3710  0.4724
  381MOL0     C51365   9.615   7.350   3.873 -0.0309  0.1774  0.3690
  381MOL0     C51366   9.405   7.669   3.219 -0.7018 -0.0204 -0.3816
  381MOL0     C51367   9.392   7.802   3.186  0.0906  0.1819  0.0610
  381MOL0     H51368   9.144   8.167   2.963  0.4002 -0.7108 -4.7116
  381MOL0     H51369   9.138   8.394   2.873 -0.4529  2.2194  2.8930
  381MOL0     H51370   9.487   8.687   2.934 -1.1182 -0.0573  0.6847
  381MOL0     H51371   9.544   8.570   2.807 -0.2178  1.1695 -1.5390
  381MOL0     H51372   9.523   8.781   2.721  0.1164  2.4612  2.3282
  381MOL0     H51373   9.382   8.688   2.652  0.2972 -1.1049  1.1064
  381MOL0     H51374   9.228   8.783   2.786 -0.2617  0.7003  0.0834
  381MOL0     H51375   9.360   8.867   2.880  0.6347  2.0413 -1.7893
  381MOL0     H51376   9.418   8.994   2.670  0.6129 -0.0601 -1.9718
  381MOL0     H51377   9.278   8.921   2.591  0.1959 -3.1622  1.8144
  381MOL0     H51378   9.118   9.007   2.695 -1.0149 -0.3976  0.3826
  381MOL0     H51379   9.209   9.077   2.834  1.2769  0.6669 -0.0287
  381MOL0     H51380   9.313   9.241   2.671  1.3716 -3.1348  0.1718
  381MOL0     H51381   9.250   9.151   2.528  3.2361 -1.5399  0.4235
  381MOL0     H51382   9.118   9.352   2.564 -0.8449 -3.3110 -3.9014
  381MOL0     H51383   9.030   9.213   2.567 -0.5488 -0.1914 -0.5531
  381MOL0     H51384   8.982   9.205   2.782  1.1416 -0.1086 -0.7360
  381MOL0     H51385   8.980   9.383   2.751  1.6050  1.3827 -0.0319
  381MOL0     H51386   9.244   9.515   2.802  1.2885  1.4364  0.7413
  381MOL0     H51387   9.409   9.488   3.144  1.1168 -0.4902 -2.6877
  381MOL0     H51388   9.401   9.588   2.998  2.6124  0.7976  2.3062
  381MOL0     H51389   9.205   9.605   3.220  2.8861  0.5836  4.0813
  381MOL0     H51390   9.197   9.700   3.073 -0.7560  1.1958  1.8169
  381MOL0     H51391   9.288   9.845   3.231  3.1493  2.5807  0.8146
  381MOL0     H51392   9.432   9.800   3.160 -2.0844  2.2278  0.3676
  381MOL0     H51393   9.457   9.636   3.361  2.5420  2.3662  0.1494
  381MOL0     H51394   9.302   9.703   3.416  0.8722 -1.1691  1.2627
  381MOL0     H51395   9.637   9.746   3.256 -0.4492  1.1555 -0.9912
  381MOL0     H51396   9.850   9.862   3.099  2.7160  1.7172  0.3040
  381MOL0     H51397   9.986   9.866   3.207  1.0972 -2.2158 -0.2614
  381MOL0     H51398   9.871   9.729   3.208 -2.6382 -0.6779 -4.5984
  381MOL0     H51399  10.200  10.143   3.188  0.0554 -2.3141  1.6888
  381MOL0     H51400  10.399  10.274   3.227 -0.8629  0.7558 -1.5714
  381MOL0     H51401  10.462  10.429   3.633 -3.9662  3.0241 -3.0750
  381MOL0     H51402  10.593  10.337   3.550  0.9541  0.7742  0.9995
  381MOL0     H51403  10.693  10.534   3.476  0.0862 -1.8489  0.0570
  381MOL0     H51404  10.574  10.629   3.569 -1.1500 -0.9491 -1.1566
  381MOL0     H51405  10.818  10.582   3.677  2.0930 -3.3283  1.0900
  381MOL0     H51406  10.764  10.423   3.701 -2.9082 -0.5213  0.0854
  381MOL0     H51407  10.647  10.662   3.830  1.6751  0.2691 -0.5876
  381MOL0     H51408  10.540  10.527   3.805  0.2742  2.2001  0.6392
  381MOL0     H51409  10.724  10.546   4.024  1.1187  0.1375  0.6218
  381MOL0     H51410  10.822  10.471   3.906  1.9678  0.3318  2.2804
  381MOL0     H51411  10.549  10.337   3.978 -1.7874  0.8846 -0.8115
  381MOL0     H51412  10.672  10.290   3.862  0.5751  2.1369 -0.6946
  381MOL0     H51413  10.670  10.199   4.124 -2.1687  0.6462 -2.4717
  381MOL0     H51414  10.739  10.351   4.162 -3.8554 -2.8768  4.3231
  381MOL0     H51415  10.948  10.288   4.030  2.1581 -1.3331  1.9780
  381MOL0     H51416  10.849  10.137   3.979 -1.0869 -0.9778  3.2647
  381MOL0     H51417  10.258  10.430   3.590 -2.0602 -2.2931  2.0483
  381MOL0     H51418  10.041  10.330   3.548  0.7622  3.6608  0.1735
  381MOL0     H51419   9.777  10.110   3.576 -0.4687  0.5497 -0.2396
  381MOL0     H51420   9.571  10.011   3.604  1.8152  1.4942  1.4000
  381MOL0     H51421   9.542   8.461   3.030 -0.3033  0.1457 -3.0003
  381MOL0     H51422   9.521   8.242   3.152  0.6838  2.3168  0.2441
  381MOL0     H51423   9.126   7.882   3.378 -3.9620 -1.6547 -4.0314
  381MOL0     H51424   9.137   7.660   3.435 -2.9914 -0.8297 -3.3851
  381MOL0     H51425   9.134   7.446   3.373  0.7128  3.4879 -1.7811
  381MOL0     H51426   9.226   7.303   3.388  0.0153  0.1972 -0.9232
  381MOL0     H51427   9.164   7.367   3.622  0.4197 -0.9611 -0.9716
  381MOL0     H51428   9.216   7.529   3.603 -3.5455 -0.9369  3.5424
  381MOL0     H51429   9.449   7.466   3.574 -0.8884 -0.3775 -1.0943
  381MOL0     H51430   9.404   7.292   3.561  4.2278  1.2133 -0.9121
  381MOL0     H51431   9.302   7.285   3.790  2.3025 -1.9318  0.9026
  381MOL0     H51432   9.324   7.465   3.806 -0.2706  0.0814 -1.3533
  381MOL0     H51433   9.715   7.341   3.912 -0.7629  2.5834  3.1303
  381MOL0     H51434   9.485   7.609   3.177 -1.2928 -2.5182  1.8180
  381MOL0     H51435   9.472   7.844   3.126  2.4997 -2.4702  1.1372
  382MOL0     O51436   8.154   5.898   1.519  0.2476  0.4200  0.1653
  382MOL0     C51437   8.207   5.820   1.603  0.9182 -0.3615  0.1944
  382MOL0     O51438   8.294   5.866   1.706  0.4512 -0.0126  0.0026
  382MOL0     C51439   8.309   6.004   1.710  0.3424  0.1143 -0.6047
  382MOL0     C51440   8.256   6.080   1.821 -0.1127  0.8649 -0.6268
  382MOL0     C51441   8.298   6.214   1.843  0.6672  1.3488 -0.5573
  382MOL0     C51442   8.377   6.280   1.744  0.8119  0.0347 -0.2708
  382MOL0     O51443   8.400   6.411   1.763  0.2664  0.1619 -0.3970
  382MOL0     C51444   8.514   6.480   1.706  0.1331 -0.3449 -0.5090
  382MOL0     C51445   8.521   6.623   1.772  0.1711  0.0741 -0.8370
  382MOL0     C51446   8.441   6.720   1.686  0.3455  0.5860 -0.4781
  382MOL0     C51447   8.290   6.741   1.723 -0.6787  0.1134  0.0849
  382MOL0     C51448   8.250   6.753   1.870  0.3116  0.4032 -0.1375
  382MOL0     C51449   8.122   6.821   1.909 -0.2561 -0.4631  0.7822
  382MOL0     C51450   7.996   6.739   1.903  0.3568  0.6150 -0.1161
  382MOL0     C51451   7.878   6.807   1.957 -0.7829  0.4062  0.1578
  382MOL0     N51452   7.770   6.710   1.969 -0.3304 -0.0593 -0.2408
  382MOL0     C51453   7.698   6.632   1.877  0.4909  0.6271 -0.3836
  382MOL0     C51454   7.580   6.596   1.939 -0.9820 -0.1028  0.0250
  382MOL0     C51455   7.477   6.496   1.905  1.5533 -0.0015  1.8931
  382MOL0     C51456   7.468   6.381   1.997 -0.2835  0.9323  0.1155
  382MOL0     C51457   7.354   6.291   1.960 -0.1705 -0.4177  0.4876
  382MOL0     C51458   7.293   6.220   2.082 -0.0236  0.0531  0.0296
  382MOL0     O51459   7.385   6.163   2.176  0.0610  0.1999  0.3587
  382MOL0     C51460   7.355   6.055   2.243 -0.2995  0.2395  0.3344
  382MOL0     C51461   7.225   5.995   2.247 -0.4003  0.6361 -0.7605
  382MOL0     C51462   7.205   5.877   2.326 -0.1396  0.0771 -0.0649
  382MOL0     C51463   7.053   5.840   2.352 -0.3219  0.1688  0.7629
  382MOL0     C51464   7.316   5.815   2.394 -0.3961 -0.2317  0.5429
  382MOL0     C51465   7.310   5.687   2.464  0.3762  0.2195  0.2903
  382MOL0     O51466   7.247   5.584   2.397 -0.6617  0.3228 -0.5668
  382MOL0     C51467   7.299   5.457   2.418 -0.1413  0.4560 -0.2013
  382MOL0     C51468   7.215   5.359   2.380  0.1582 -0.1317  0.9078
  382MOL0     C51469   7.249   5.220   2.384  0.5045 -0.0493  0.3241
  382MOL0     C51470   7.378   5.180   2.428  0.3520 -0.2082  0.0318
  382MOL0     O51471   7.398   5.049   2.438 -0.7745 -0.4683  0.2484
  382MOL0     C51472   7.520   4.993   2.511 -0.6784 -0.2871 -0.5216
  382MOL0     C51473   7.531   4.839   2.507 -0.5501  0.4282  0.1701
  382MOL0     C51474   7.653   4.753   2.567  0.3317 -0.8041 -0.8433
  382MOL0     C51475   7.678   4.773   2.716  0.5303 -0.2005  0.2095
  382MOL0     C51476   7.554   4.763   2.803 -0.6497  1.2581 -0.3147
  382MOL0     C51477   7.481   4.621   2.778 -0.0750 -0.8134  0.0268
  382MOL0     C51478   7.374   4.604   2.887 -0.5893 -0.3819  0.4775
  382MOL0     C51479   7.265   4.512   2.839  0.0188 -0.1144  0.9548
  382MOL0    Cl51480   7.322   4.346   2.797 -0.2456  0.1233 -0.1200
  382MOL0     C51481   7.468   5.279   2.461  0.5472 -0.5289 -0.9404
  382MOL0     C51482   7.430   5.419   2.458  0.3031 -0.5362  0.0576
  382MOL0     O51483   7.360   5.679   2.574 -0.4849  0.0246 -0.2661
  382MOL0     C51484   7.437   5.877   2.377 -0.3350  0.2810 -0.5999
  382MOL0     C51485   7.454   5.999   2.313  0.3099 -0.6890 -0.9063
  382MOL0     N51486   7.582   6.664   2.062 -0.1388  0.0689 -0.3789
  382MOL0     N51487   7.699   6.718   2.080  0.0068 -0.6356 -0.3676
  382MOL0     C51488   8.419   6.212   1.633  0.0458  0.0680  0.6370
  382MOL0     C51489   8.380   6.079   1.614 -0.1631 -0.3294  0.4590
  382MOL0     C51490   8.201   5.675   1.581 -0.1079 -0.5731  1.1662
  382MOL0     C51491   8.102   5.621   1.493 -0.2315  0.3019  0.6419
  382MOL0     C51492   8.085   5.484   1.475 -0.6202  0.0317 -0.0764
  382MOL0     C51493   8.183   5.396   1.525  0.6500 -0.7958 -0.7930
  382MOL0     O51494   8.152   5.255   1.493 -0.1745 -0.3329  0.2308
  382MOL0     C51495   8.227   5.157   1.581  0.2588 -0.8026  0.8257
  382MOL0     C51496   8.364   5.131   1.526 -0.8443 -0.6573 -0.0246
  382MOL0     C51497   8.433   5.008   1.594  0.1278 -0.0971  0.3361
  382MOL0     C51498   8.582   5.040   1.618 -0.1921  0.5658 -0.3813
  382MOL0     C51499   8.605   5.155   1.710  0.4066 -0.2556 -0.0893
  382MOL0     C51500   8.612   5.262   1.769  0.0778  0.8173  0.2045
  382MOL0     C51501   8.289   5.443   1.607  0.3876  0.0055 -0.4527
  382MOL0     C51502   8.291   5.582   1.638 -0.6830  0.4137 -0.2107
  382MOL0     H51503   8.196   6.033   1.899  1.4658  1.0231  0.7405
  382MOL0     H51504   8.255   6.275   1.922  0.5717 -0.1615  0.5891
  382MOL0     H51505   8.605   6.425   1.731  1.2936  0.0883 -3.4496
  382MOL0     H51506   8.510   6.481   1.597  3.4262  2.2305 -0.7552
  382MOL0     H51507   8.495   6.621   1.878  1.6999  0.5162 -0.4209
  382MOL0     H51508   8.626   6.653   1.769  0.3959 -0.4133  1.1053
  382MOL0     H51509   8.483   6.819   1.707  0.3122  0.8741 -1.6703
  382MOL0     H51510   8.458   6.717   1.578  3.1395  1.0872 -0.1312
  382MOL0     H51511   8.260   6.830   1.667 -0.2089  0.2763  0.0884
  382MOL0     H51512   8.236   6.655   1.683  1.7448 -2.8281  2.7011
  382MOL0     H51513   8.257   6.655   1.918  0.7916  1.2678  1.6388
  382MOL0     H51514   8.327   6.816   1.914  0.7660 -0.4706  0.3567
  382MOL0     H51515   8.139   6.877   2.001  0.6999 -0.4602  0.6228
  382MOL0     H51516   8.105   6.895   1.830  0.1472  0.0331  1.1497
  382MOL0     H51517   7.975   6.710   1.799  1.8710  1.0682 -0.5694
  382MOL0     H51518   8.009   6.654   1.970 -1.4344  0.5858  0.2360
  382MOL0     H51519   7.844   6.887   1.890 -1.8846 -1.3513 -1.5090
  382MOL0     H51520   7.909   6.849   2.053  1.0082 -2.7206  1.0915
  382MOL0     H51521   7.741   6.606   1.781 -0.0616 -0.2702 -0.3995
  382MOL0     H51522   7.382   6.550   1.898  3.0293  3.0143  3.1774
  382MOL0     H51523   7.493   6.453   1.806  2.0364  1.8635  1.1066
  382MOL0     H51524   7.450   6.425   2.096  3.3328  2.9853  0.0444
  382MOL0     H51525   7.559   6.320   2.000 -1.2311 -0.5040  0.3180
  382MOL0     H51526   7.376   6.217   1.883  0.8115  1.4792 -1.1279
  382MOL0     H51527   7.272   6.347   1.914 -1.6213 -0.0161  3.2982
  382MOL0     H51528   7.232   6.141   2.038  2.4114 -1.9728  0.0411
  382MOL0     H51529   7.233   6.298   2.131 -0.3169  0.2255 -0.5924
  382MOL0     H51530   7.147   6.054   2.202  0.3089  1.4327 -0.9624
  382MOL0     H51531   6.988   5.924   2.376 -1.9279 -1.4420  2.3396
  382MOL0     H51532   7.008   5.798   2.262  0.7532  1.7230 -0.5669
  382MOL0     H51533   7.043   5.774   2.438 -2.8195  2.1338  2.1090
  382MOL0     H51534   7.116   5.385   2.344  1.6185  1.9900 -2.0649
  382MOL0     H51535   7.180   5.146   2.346 -0.5573  2.0612 -2.1335
  382MOL0     H51536   7.608   5.037   2.463  1.2255  2.2614  4.6441
  382MOL0     H51537   7.514   5.027   2.615  0.6171 -1.0121 -0.1782
  382MOL0     H51538   7.437   4.795   2.543  0.8300 -3.0757 -0.0678
  382MOL0     H51539   7.517   4.818   2.400 -0.4667  3.7213 -0.5928
  382MOL0     H51540   7.746   4.788   2.520 -0.6932  2.4733 -0.6827
  382MOL0     H51541   7.638   4.648   2.543 -1.1682 -1.3496  2.0714
  382MOL0     H51542   7.750   4.699   2.754 -1.6116 -2.6450 -0.1895
  382MOL0     H51543   7.709   4.876   2.734  1.0582 -0.6318  2.0556
  382MOL0     H51544   7.479   4.840   2.783 -1.7551  0.7265  1.4793
  382MOL0     H51545   7.569   4.778   2.910 -2.0986  0.2183  0.0843
  382MOL0     H51546   7.439   4.608   2.678 -2.0397 -1.0988  0.8342
  382MOL0     H51547   7.557   4.544   2.796  0.1288 -0.7795 -0.6798
  382MOL0     H51548   7.323   4.694   2.922  0.5424  0.0885  0.9703
  382MOL0     H51549   7.420   4.564   2.977  0.8575  3.5387  1.7048
  382MOL0     H51550   7.222   4.562   2.753  1.3030 -0.0876  0.2970
  382MOL0     H51551   7.193   4.494   2.919 -1.0957  0.4702  0.0947
  382MOL0     H51552   7.569   5.262   2.497  2.4800 -2.6753 -6.3430
  382MOL0     H51553   7.488   5.504   2.492 -0.1120  0.5404 -1.7618
  382MOL0     H51554   7.528   5.833   2.418  1.7024  1.0272 -3.9304
  382MOL0     H51555   7.557   6.035   2.306  0.0889 -0.3904 -4.2200
  382MOL0     H51556   8.473   6.259   1.551 -0.9503  0.9451  0.4576
  382MOL0     H51557   8.409   6.015   1.531 -1.4791 -1.3549  0.7585
  382MOL0     H51558   8.026   5.675   1.438  0.7989  0.8435 -0.2691
  382MOL0     H51559   8.008   5.442   1.410 -0.0717 -0.1554 -0.6110
  382MOL0     H51560   8.212   5.208   1.677 -5.4894  1.3140 -0.8180
  382MOL0     H51561   8.168   5.066   1.575 -2.3062  0.8395 -0.3623
  382MOL0     H51562   8.425   5.221   1.514 -0.6313 -1.0266 -2.2916
  382MOL0     H51563   8.343   5.107   1.421 -4.0045 -1.4017  0.6668
  382MOL0     H51564   8.435   4.926   1.522  3.3510 -0.2449  0.4647
  382MOL0     H51565   8.385   4.981   1.689 -0.0738  0.0528  0.2780
  382MOL0     H51566   8.633   5.059   1.522 -1.5777 -2.6208 -1.9042
  382MOL0     H51567   8.641   4.955   1.654 -0.8068 -0.3931 -1.5810
  382MOL0     H51568   8.614   5.362   1.808 -0.9995  0.3529  1.5158
  382MOL0     H51569   8.359   5.379   1.660  0.8215 -1.0824 -2.2440
  382MOL0     H51570   8.367   5.609   1.711 -0.3784  0.0719 -0.4001
  383MOL0     O51571   3.859  11.295   0.361  0.3992 -0.0604  0.7506
  383MOL0     C51572   3.972  11.271   0.412  0.5771 -0.3831 -0.1241
  383MOL0     O51573   3.998  11.227   0.536  0.2614  0.0185  0.5831
  383MOL0     C51574   3.902  11.231   0.631  0.1033 -0.9145  0.6662
  383MOL0     C51575   3.830  11.108   0.656  0.7566 -0.2115  0.3449
  383MOL0     C51576   3.721  11.110   0.745 -0.4163  0.4584  0.4972
  383MOL0     C51577   3.678  11.232   0.801  0.2370  0.1706  0.6650
  383MOL0     O51578   3.577  11.245   0.890  0.3231  0.0633 -0.0271
  383MOL0     C51579   3.519  11.125   0.946  0.2780 -0.7345  1.0844
  383MOL0     C51580   3.416  11.168   1.055 -0.2373  0.5908  0.1704
  383MOL0     C51581   3.288  11.241   0.993 -1.2277  0.2972 -0.6069
  383MOL0     C51582   3.184  11.292   1.087 -0.7668 -0.1532  0.2803
  383MOL0     C51583   3.077  11.182   1.121 -0.0101  0.1465  0.0832
  383MOL0     C51584   3.132  11.045   1.187  0.9441 -0.1886  0.9928
  383MOL0     C51585   3.019  10.944   1.229 -1.0788 -0.8705  0.5929
  383MOL0     C51586   2.941  10.878   1.109 -0.2588  0.1501  0.0226
  383MOL0     N51587   3.033  10.821   1.003  0.0105  0.3038 -0.7251
  383MOL0     C51588   3.068  10.886   0.886 -0.1007  0.5049 -0.0687
  383MOL0     C51589   3.152  10.800   0.819  0.6225  0.4441 -0.0384
  383MOL0     C51590   3.238  10.842   0.704 -0.5921 -0.0951 -0.5481
  383MOL0     C51591   3.276  10.720   0.615  0.2076  0.5554  0.0281
  383MOL0     C51592   3.149  10.688   0.532 -0.8834 -0.9019  0.1470
  383MOL0     C51593   3.145  10.569   0.445 -0.7777  0.1169  0.1085
  383MOL0     O51594   3.046  10.549   0.350  0.9221  0.0633 -0.1451
  383MOL0     C51595   2.920  10.551   0.408  0.5300 -0.2197 -0.6715
  383MOL0     C51596   2.882  10.453   0.500  1.6192  0.8403 -0.1356
  383MOL0     C51597   2.751  10.448   0.558 -0.2352  0.9146 -0.4972
  383MOL0     C51598   2.719  10.340   0.658 -0.1507 -0.3272 -0.0519
  383MOL0     C51599   2.663  10.547   0.510 -0.6879 -0.6153  0.5647
  383MOL0     C51600   2.521  10.548   0.547  0.0027 -0.3986  0.8091
  383MOL0     O51601   2.450  10.645   0.496  0.8748  0.7999  0.3657
  383MOL0     C51602   2.312  10.644   0.503  0.9089  0.4019  0.7084
  383MOL0     C51603   2.243  10.545   0.423  0.3424 -0.5273 -0.5221
  383MOL0     C51604   2.099  10.536   0.442 -0.7301  0.2377 -0.0172
  383MOL0     C51605   2.032  10.627   0.520 -0.4533  0.0231  0.2030
  383MOL0     O51606   1.893  10.642   0.539 -0.1340  0.4038  0.0781
  383MOL0     C51607   1.809  10.530   0.497  0.6132  0.0863 -0.3935
  383MOL0     C51608   1.661  10.542   0.529 -0.3967  0.6108 -0.6300
  383MOL0     C51609   1.635  10.558   0.682  0.3246 -0.4539 -0.6859
  383MOL0     C51610   1.485  10.581   0.722  0.9892 -0.6785 -0.1700
  383MOL0     C51611   1.429  10.543   0.866  0.0646  0.1821 -0.5633
  383MOL0     C51612   1.286  10.590   0.892  0.8985  0.9982 -0.6213
  383MOL0     C51613   1.227  10.544   1.032 -0.4830 -0.3785  1.5655
  383MOL0     C51614   1.108  10.631   1.064  0.3193 -0.9263  0.5884
  383MOL0    Cl51615   0.965  10.567   0.988 -0.4368  0.2367  0.3080
  383MOL0     C51616   2.108  10.732   0.577  1.3787  0.8298 -0.2663
  383MOL0     C51617   2.242  10.736   0.577 -0.0590  0.0984  0.3480
  383MOL0     O51618   2.481  10.460   0.617 -0.2469 -0.4759  0.4753
  383MOL0     C51619   2.704  10.653   0.418 -0.6906  0.7001  0.6938
  383MOL0     C51620   2.833  10.644   0.363  1.1601 -0.1641 -0.0067
  383MOL0     N51621   3.157  10.680   0.885 -0.0298  0.9664 -0.4149
  383MOL0     N51622   3.093  10.700   0.994  0.0383 -1.0844  0.2514
  383MOL0     C51623   3.734  11.358   0.761 -0.3447 -0.2766  0.0950
  383MOL0     C51624   3.850  11.353   0.680 -0.4768 -0.6130 -1.0047
  383MOL0     C51625   4.077  11.297   0.324  0.3917  0.4552  0.0110
  383MOL0     C51626   4.075  11.268   0.182 -0.2201 -0.0659 -0.3746
  383MOL0     C51627   4.197  11.297   0.111  0.4566  0.3129  0.2435
  383MOL0     C51628   4.309  11.345   0.171 -1.0077  0.6737 -0.4988
  383MOL0     O51629   4.415  11.355   0.087 -0.1440  0.0505  0.3868
  383MOL0     C51630   4.547  11.349   0.133  0.9432  0.1893 -0.1215
  383MOL0     C51631   4.586  11.221   0.202 -0.4476 -0.2330  0.1613
  383MOL0     C51632   4.592  11.099   0.117 -0.2443  0.0649 -0.4366
  383MOL0     C51633   4.591  10.981   0.211  0.5066  0.6358 -0.1795
  383MOL0     C51634   4.605  10.857   0.129 -0.4873 -0.4108  0.7060
  383MOL0     C51635   4.604  10.749   0.071 -0.1582 -0.8756  0.0476
  383MOL0     C51636   4.312  11.372   0.304 -1.4246  0.0810 -0.2809
  383MOL0     C51637   4.200  11.345   0.382  1.0038 -0.7595 -0.8271
  383MOL0     H51638   3.854  11.017   0.603 -2.1440 -0.5122 -0.5949
  383MOL0     H51639   3.663  11.023   0.775 -0.6421 -0.2678 -1.8723
  383MOL0     H51640   3.471  11.076   0.861 -1.5241 -0.5392  1.9274
  383MOL0     H51641   3.587  11.050   0.988  1.2063  0.2534  1.3961
  383MOL0     H51642   3.389  11.085   1.121 -2.2339  1.9670  1.1772
  383MOL0     H51643   3.471  11.237   1.120  0.6466 -0.1728  0.2387
  383MOL0     H51644   3.312  11.321   0.921 -3.2302  0.9593 -0.5927
  383MOL0     H51645   3.239  11.159   0.941 -1.9397 -2.2471  3.6675
  383MOL0     H51646   3.230  11.334   1.177  1.2551  0.1797 -0.8336
  383MOL0     H51647   3.139  11.380   1.040 -0.1473 -1.7291 -3.6705
  383MOL0     H51648   3.004  11.228   1.187  0.6696 -0.5951  1.4031
  383MOL0     H51649   3.035  11.154   1.024 -0.5508 -0.9000  0.6057
  383MOL0     H51650   3.200  10.991   1.122  2.7023  0.8786  1.8837
  383MOL0     H51651   3.183  11.078   1.278 -0.9678  3.6994  0.8266
  383MOL0     H51652   3.057  10.858   1.285  2.0725 -0.6399 -0.9818
  383MOL0     H51653   2.946  11.000   1.288 -0.4848  2.4433 -1.5217
  383MOL0     H51654   2.871  10.945   1.059  1.7023  3.5307  1.4343
  383MOL0     H51655   2.882  10.799   1.156 -0.2876 -0.0949 -0.4198
  383MOL0     H51656   3.058  10.993   0.868  2.5242  1.0854  1.2907
  383MOL0     H51657   3.194  10.925   0.648 -0.4149  0.4879  0.1573
  383MOL0     H51658   3.338  10.867   0.741 -0.7783 -1.5399  1.0277
  383MOL0     H51659   3.291  10.632   0.678  2.4614  0.8659 -0.0127
  383MOL0     H51660   3.365  10.742   0.555  1.4650 -0.3999  1.4666
  383MOL0     H51661   3.127  10.775   0.469 -2.3510 -2.0939 -1.0791
  383MOL0     H51662   3.059  10.674   0.593  1.3389 -2.6979  3.3380
  383MOL0     H51663   3.165  10.487   0.516 -2.9588 -0.5435  0.0296
  383MOL0     H51664   3.234  10.568   0.381 -1.0970  3.0075 -0.4998
  383MOL0     H51665   2.947  10.380   0.548  0.4195  0.5149  1.0354
  383MOL0     H51666   2.816  10.294   0.682  1.1516  2.1395 -0.3316
  383MOL0     H51667   2.677  10.369   0.755  0.1948  0.7027 -0.1982
  383MOL0     H51668   2.656  10.265   0.609  0.5475 -0.6681 -0.4394
  383MOL0     H51669   2.279  10.478   0.347 -0.5770 -0.4398 -1.0542
  383MOL0     H51670   2.043  10.452   0.402 -1.9132 -0.6164  3.0753
  383MOL0     H51671   1.800  10.518   0.388  2.2930 -0.0884 -0.5425
  383MOL0     H51672   1.848  10.436   0.537 -1.2564 -0.9674 -0.9151
  383MOL0     H51673   1.615  10.634   0.493 -1.2780  1.5095  2.4493
  383MOL0     H51674   1.601  10.455   0.500 -0.4501 -0.2407  1.7564
  383MOL0     H51675   1.686  10.649   0.713  2.1506 -1.9415  0.9421
  383MOL0     H51676   1.668  10.487   0.758 -2.0510  1.2566  2.1559
  383MOL0     H51677   1.452  10.683   0.700  2.3727 -0.2184 -0.1862
  383MOL0     H51678   1.418  10.520   0.660 -2.6885  0.9252  1.8767
  383MOL0     H51679   1.486  10.600   0.939 -1.4752 -1.5090  2.1166
  383MOL0     H51680   1.441  10.439   0.897 -2.8374  0.4899  2.1619
  383MOL0     H51681   1.269  10.697   0.877  2.4534  1.0787 -2.2175
  383MOL0     H51682   1.225  10.539   0.817  1.8837 -0.0629 -0.7358
  383MOL0     H51683   1.297  10.537   1.116  1.0003 -1.8816  0.2795
  383MOL0     H51684   1.189  10.444   1.012 -3.5533  1.3221 -2.9508
  383MOL0     H51685   1.114  10.736   1.033  0.1004 -1.2349 -0.5353
  383MOL0     H51686   1.093  10.627   1.172 -2.1643  3.8423  0.6780
  383MOL0     H51687   2.051  10.814   0.620  0.4193  1.0044 -1.7976
  383MOL0     H51688   2.305  10.804   0.635  0.8238 -0.0196 -0.4589
  383MOL0     H51689   2.633  10.717   0.366 -1.4895 -1.8299 -1.5638
  383MOL0     H51690   2.872  10.708   0.284  4.2470 -0.6634  0.9706
  383MOL0     H51691   3.702  11.452   0.804 -2.2949 -1.0273  0.3971
  383MOL0     H51692   3.872  11.445   0.626  1.8068 -0.7610 -0.4354
  383MOL0     H51693   3.980  11.244   0.134 -1.0217  1.0393  0.5995
  383MOL0     H51694   4.215  11.257   0.011  2.5238 -2.4013  1.5636
  383MOL0     H51695   4.607  11.345   0.042 -1.3072 -1.6194 -1.6226
  383MOL0     H51696   4.572  11.441   0.186  0.1352  0.7305 -0.6661
  383MOL0     H51697   4.504  11.199   0.271 -1.1723 -2.5568 -1.3243
  383MOL0     H51698   4.686  11.236   0.244 -0.3462 -0.8865  0.1618
  383MOL0     H51699   4.687  11.106   0.063 -0.0095 -2.9911 -0.6009
  383MOL0     H51700   4.506  11.094   0.050  0.6782  0.1499 -1.6767
  383MOL0     H51701   4.497  10.990   0.267  1.8874  1.0321  2.2215
  383MOL0     H51702   4.673  10.992   0.282  1.8455  2.0335 -1.8804
  383MOL0     H51703   4.578  10.659   0.019 -0.9266 -0.1807 -0.8089
  383MOL0     H51704   4.396  11.411   0.360 -1.1561  0.9873 -1.2982
  383MOL0     H51705   4.207  11.358   0.489  0.8772 -1.0603 -0.7828
  384MOL0     O51706   7.479   2.195   9.666  0.0294 -0.0159 -0.6979
  384MOL0     C51707   7.421   2.257   9.749  0.1746  0.2111 -0.0845
  384MOL0     O51708   7.370   2.214   9.865 -0.0767 -0.4664 -0.8594
  384MOL0     C51709   7.374   2.093   9.910 -0.1188  0.5283 -0.3349
  384MOL0     C51710   7.354   2.076  10.047 -0.1139 -0.1328  0.9248
  384MOL0     C51711   7.320   1.957  10.103  0.1828  0.8666  0.4290
  384MOL0     C51712   7.324   1.839  10.028  1.0297  0.0590  1.2357
  384MOL0     O51713   7.319   1.719  10.093  0.7935  0.7219  0.0267
  384MOL0     C51714   7.257   1.607  10.027  0.1440  0.3910 -0.4252
  384MOL0     C51715   7.269   1.488  10.127  0.6023 -0.3629  0.5128
  384MOL0     C51716   7.228   1.510  10.271 -0.5693  0.7801 -0.2505
  384MOL0     C51717   7.323   1.443  10.377 -0.4439  0.2025 -0.7745
  384MOL0     C51718   7.335   1.293  10.364  0.8573  0.2951 -0.1613
  384MOL0     C51719   7.479   1.261  10.339  0.5350 -0.3157 -0.2028
  384MOL0     C51720   7.501   1.114  10.299  0.9675 -0.5670  0.1231
  384MOL0     C51721   7.645   1.097  10.256 -0.2274  0.0118  0.4291
  384MOL0     N51722   7.742   1.140  10.357 -0.1675  0.2493 -0.1855
  384MOL0     C51723   7.793   1.056  10.451 -0.0574 -0.1844 -0.5837
  384MOL0     C51724   7.895   1.128  10.507 -0.0964 -0.6547  0.2272
  384MOL0     C51725   7.964   1.099  10.638 -0.5021  0.6983  0.2348
  384MOL0     C51726   8.089   0.999  10.614 -0.3549 -0.1229  1.2274
  384MOL0     C51727   8.048   0.859  10.557  0.9287 -0.3352  0.6516
  384MOL0     C51728   8.149   0.750  10.601 -0.4695 -0.2863 -0.1631
  384MOL0     O51729   8.152   0.741  10.750  0.3845  0.6071  1.0508
  384MOL0     C51730   8.159   0.609  10.804  0.0178 -0.0019  0.1190
  384MOL0     C51731   8.051   0.579  10.885 -0.6408  1.1882  0.3702
  384MOL0     C51732   8.047   0.449  10.944 -0.5819  0.0530 -0.4115
  384MOL0     C51733   7.916   0.410  11.002 -0.4057  0.8504 -0.0738
  384MOL0     C51734   8.148   0.352  10.913 -0.8036  0.1992  0.3997
  384MOL0     C51735   8.131   0.209  10.941  0.3098  0.3232 -0.7814
  384MOL0     O51736   7.999   0.159  10.990 -0.2249 -0.8814 -0.7286
  384MOL0     C51737   7.997   0.035  11.039  1.3219  0.7184 -0.5932
  384MOL0     C51738   8.071  -0.024  11.146  0.3352 -0.6753  0.0930
  384MOL0     C51739   8.041  -0.157  11.188  0.8058 -0.4694  0.0535
  384MOL0     C51740   7.942  -0.236  11.123  0.4579 -0.7678  0.0782
  384MOL0     O51741   7.915  -0.373  11.143 -0.7777  0.2772 -0.0182
  384MOL0     C51742   8.024  -0.464  11.153 -0.4462 -0.6016  0.5951
  384MOL0     C51743   7.973  -0.606  11.196  0.9043 -0.4940 -0.3329
  384MOL0     C51744   8.094  -0.701  11.191 -0.1477 -0.8339 -0.2723
  384MOL0     C51745   8.075  -0.852  11.216 -0.0772  0.5537 -0.0567
  384MOL0     C51746   8.212  -0.922  11.223  0.2248 -0.8130 -0.1595
  384MOL0     C51747   8.291  -0.902  11.358 -0.9831 -0.0497 -0.6093
  384MOL0     C51748   8.263  -1.010  11.470  1.0123 -0.9409  0.2681
  384MOL0     C51749   8.303  -0.975  11.612 -0.1080  0.9807  0.1750
  384MOL0    Cl51750   8.194  -0.851  11.685 -0.2129 -0.4066  0.2987
  384MOL0     C51751   7.869  -0.169  11.023  0.3971 -0.1617  0.0761
  384MOL0     C51752   7.894  -0.040  10.982  0.9733 -0.0353 -0.0695
  384MOL0     O51753   8.222   0.132  10.921  0.0376 -0.2742  0.0605
  384MOL0     C51754   8.258   0.402  10.840 -0.1611 -0.4093  1.1435
  384MOL0     C51755   8.258   0.518  10.776 -0.7464  0.5852  0.1791
  384MOL0     N51756   7.889   1.252  10.455 -1.1684 -0.4566  0.3762
  384MOL0     N51757   7.800   1.264  10.366  0.3318  0.0105  0.4203
  384MOL0     C51758   7.355   1.847   9.890  0.4543 -0.6138 -0.2179
  384MOL0     C51759   7.380   1.974   9.831 -0.1801 -0.0576  0.0672
  384MOL0     C51760   7.397   2.403   9.713  0.2969  0.3898  0.3247
  384MOL0     C51761   7.307   2.474   9.786 -0.3904  0.0591  0.3277
  384MOL0     C51762   7.275   2.612   9.752  0.2286 -0.0054  0.8702
  384MOL0     C51763   7.349   2.678   9.646 -0.2005 -0.6101 -1.1681
  384MOL0     O51764   7.327   2.809   9.616 -0.2863 -0.1461 -0.7063
  384MOL0     C51765   7.225   2.898   9.680 -0.4787  0.2021  0.9386
  384MOL0     C51766   7.138   2.970   9.569  0.3392 -0.0390  0.8981
  384MOL0     C51767   7.040   3.055   9.636  0.7973 -0.2722  0.3362
  384MOL0     C51768   6.963   3.163   9.563 -0.8537  0.2881  0.0201
  384MOL0     C51769   6.874   3.102   9.464  0.7002 -0.3142 -0.1154
  384MOL0     C51770   6.805   3.037   9.390 -0.8205  0.6583 -0.1348
  384MOL0     C51771   7.439   2.608   9.580 -0.8644 -0.0417 -0.1088
  384MOL0     C51772   7.467   2.468   9.614  0.8216  0.6738  0.7613
  384MOL0     H51773   7.337   2.165  10.107  0.9722 -1.1811  2.8712
  384MOL0     H51774   7.297   1.937  10.207  3.3049  0.3115  1.1014
  384MOL0     H51775   7.156   1.634   9.993 -0.5950  0.7776  1.8460
  384MOL0     H51776   7.316   1.580   9.939  2.1956 -0.5903  1.1598
  384MOL0     H51777   7.216   1.404  10.083  2.9338  0.4945 -4.7487
  384MOL0     H51778   7.376   1.466  10.127  0.9955  1.2275 -0.9794
  384MOL0     H51779   7.206   1.613  10.297  1.3777  1.4797 -1.1703
  384MOL0     H51780   7.128   1.467  10.283 -1.0964  1.9668 -0.2847
  384MOL0     H51781   7.424   1.486  10.373  0.0862 -0.9704 -0.3139
  384MOL0     H51782   7.282   1.468  10.475  1.5190  1.1618 -0.1382
  384MOL0     H51783   7.298   1.243  10.454 -1.8456  1.4848 -0.5085
  384MOL0     H51784   7.272   1.269  10.278 -1.4434  2.5964  0.7463
  384MOL0     H51785   7.512   1.319  10.252  1.5101  0.6119  0.7504
  384MOL0     H51786   7.538   1.287  10.427  0.2674 -0.5746  0.0554
  384MOL0     H51787   7.477   1.058  10.390  0.6102 -0.0997  0.3160
  384MOL0     H51788   7.440   1.079  10.216  2.8601  0.1275 -1.6366
  384MOL0     H51789   7.670   1.150  10.163 -3.0603 -1.8938 -1.6108
  384MOL0     H51790   7.667   0.995  10.226  0.2429 -0.1259  1.2191
  384MOL0     H51791   7.747   0.962  10.479  1.1661 -0.0000  2.4216
  384MOL0     H51792   8.017   1.186  10.677  3.0717 -1.2213  0.0789
  384MOL0     H51793   7.893   1.045  10.702 -1.9425 -0.1121 -1.9033
  384MOL0     H51794   8.139   0.999  10.711  0.5081 -0.5569  0.7848
  384MOL0     H51795   8.149   1.042  10.533 -2.4010  0.6173  0.0235
  384MOL0     H51796   8.060   0.853  10.448 -4.8666  1.9095 -0.4788
  384MOL0     H51797   7.946   0.828  10.580  0.7556 -2.4930 -2.4480
  384MOL0     H51798   8.246   0.762  10.552 -2.1654 -1.3241 -4.1296
  384MOL0     H51799   8.115   0.651  10.569  1.2152 -3.0935  5.4478
  384MOL0     H51800   7.970   0.651  10.897 -1.6028  0.2370 -0.2596
  384MOL0     H51801   7.867   0.507  11.016  0.1419  1.2050 -0.5559
  384MOL0     H51802   7.853   0.352  10.934 -2.9725  2.3024  0.9365
  384MOL0     H51803   7.918   0.355  11.096 -3.9416  6.0055  3.6058
  384MOL0     H51804   8.138   0.048  11.190 -0.6962  1.5603 -1.8137
  384MOL0     H51805   8.096  -0.192  11.275 -1.5223  3.5399  3.4821
  384MOL0     H51806   8.086  -0.468  11.063  0.7554  1.3745  1.2763
  384MOL0     H51807   8.089  -0.415  11.226  3.2514 -3.4370 -0.5230
  384MOL0     H51808   7.928  -0.605  11.296 -0.6670 -2.7912 -0.9446
  384MOL0     H51809   7.899  -0.645  11.125  0.3515  0.1860 -0.1499
  384MOL0     H51810   8.171  -0.672  11.263  0.5332 -0.3393 -1.1742
  384MOL0     H51811   8.157  -0.685  11.103  1.6743  1.2830  1.2899
  384MOL0     H51812   8.031  -0.866  11.315  1.3283  1.6766  0.7624
  384MOL0     H51813   7.996  -0.888  11.150 -0.6946 -1.2886  1.5784
  384MOL0     H51814   8.270  -0.880  11.140  1.5817 -1.3203  0.5026
  384MOL0     H51815   8.191  -1.029  11.227 -2.0439 -0.4386 -0.4129
  384MOL0     H51816   8.398  -0.907  11.335 -1.1367  0.7163 -1.5655
  384MOL0     H51817   8.265  -0.805  11.401 -3.5258 -1.0125  0.2040
  384MOL0     H51818   8.312  -1.101  11.435  0.8838 -0.4259 -1.3509
  384MOL0     H51819   8.155  -1.030  11.475  0.6887  0.9357  1.5293
  384MOL0     H51820   8.405  -0.935  11.615  1.2301 -2.0584 -0.3505
  384MOL0     H51821   8.303  -1.068  11.670 -0.0240 -0.0217 -1.3795
  384MOL0     H51822   7.782  -0.218  10.982 -0.6600  0.7735  1.1276
  384MOL0     H51823   7.830   0.003  10.905 -1.5322 -1.2242  1.2254
  384MOL0     H51824   8.347   0.341  10.838  2.9208  3.6994  1.0167
  384MOL0     H51825   8.346   0.545  10.719  1.0862  0.7144  2.8773
  384MOL0     H51826   7.353   1.760   9.826  3.2484 -1.6028  0.8846
  384MOL0     H51827   7.409   1.982   9.727  0.9016  0.1536  0.3772
  384MOL0     H51828   7.238   2.438   9.861 -2.7722  1.7134 -0.9327
  384MOL0     H51829   7.206   2.659   9.822  0.6057  0.6627  0.8020
  384MOL0     H51830   7.166   2.850   9.759 -2.4759  0.1267 -0.5276
  384MOL0     H51831   7.281   2.970   9.741 -0.7721  0.7128  0.6103
  384MOL0     H51832   7.086   2.905   9.498  0.9214  1.0707 -0.6031
  384MOL0     H51833   7.207   3.032   9.512 -0.9350  2.6698  2.1056
  384MOL0     H51834   7.097   3.110   9.711  0.3108  0.4624  0.1690
  384MOL0     H51835   6.963   2.997   9.688 -0.9405  1.5292 -0.1291
  384MOL0     H51836   7.029   3.232   9.508 -1.0206 -1.0859 -2.0162
  384MOL0     H51837   6.899   3.223   9.628 -0.2948  1.0532 -0.1077
  384MOL0     H51838   6.751   2.981   9.317 -1.3544  0.0771  0.6922
  384MOL0     H51839   7.494   2.636   9.491 -1.1928  1.1216  0.0355
  384MOL0     H51840   7.526   2.395   9.561  0.0577  1.4239 -1.2106
  385MOL0     O51841   0.309  10.073   6.967 -0.8344  0.2190  0.7354
  385MOL0     C51842   0.209  10.058   6.903 -0.6251 -0.3966  0.4521
  385MOL0     O51843   0.102   9.995   6.942  0.7819 -0.1580  0.1231
  385MOL0     C51844   0.086   9.957   7.070  0.4628 -0.6071 -0.0807
  385MOL0     C51845   0.116  10.039   7.180 -0.7832  0.6697 -0.1607
  385MOL0     C51846   0.075   9.986   7.305 -0.5880  0.3745  0.7088
  385MOL0     C51847   0.018   9.866   7.321  1.0646  0.3954 -0.2540
  385MOL0     O51848  -0.021   9.833   7.450  0.0648  0.5143 -0.2424
  385MOL0     C51849   0.053   9.718   7.498 -0.3497  0.9292  0.5031
  385MOL0     C51850   0.094   9.755   7.646  0.6451 -0.3900  0.0348
  385MOL0     C51851   0.146   9.637   7.723 -0.0220  0.4725  0.3949
  385MOL0     C51852   0.210   9.676   7.857 -0.9622 -0.5991  0.5445
  385MOL0     C51853   0.277   9.559   7.930  0.7556  0.7198 -0.7449
  385MOL0     C51854   0.174   9.449   7.992 -0.4296  0.3282  0.6529
  385MOL0     C51855   0.239   9.344   8.073 -0.7098 -0.0609 -0.2788
  385MOL0     C51856   0.120   9.249   8.131 -0.6484 -0.0735  0.2221
  385MOL0     N51857   0.183   9.125   8.180  0.5333 -0.3494  0.1802
  385MOL0     C51858   0.164   9.001   8.117 -0.4149  0.4327  1.1523
  385MOL0     C51859   0.213   8.917   8.201 -0.2889  0.0707 -0.0747
  385MOL0     C51860   0.222   8.767   8.181  0.5978 -0.2319 -0.6572
  385MOL0     C51861   0.283   8.717   8.045  0.5971  0.1462 -1.1721
  385MOL0     C51862   0.328   8.575   8.035  0.4140 -0.7370  0.3772
  385MOL0     C51863   0.394   8.555   7.899 -0.1274 -0.3594 -0.0714
  385MOL0     O51864   0.514   8.631   7.884 -0.2476  0.3232  0.3707
  385MOL0     C51865   0.615   8.573   7.804  0.3612 -0.7797 -0.5120
  385MOL0     C51866   0.742   8.616   7.833  1.1679 -0.3470  0.6804
  385MOL0     C51867   0.857   8.582   7.756 -0.0471  0.2342 -0.0497
  385MOL0     C51868   0.991   8.627   7.808 -0.4845 -0.7197  0.7726
  385MOL0     C51869   0.836   8.504   7.645 -0.4088  0.7365  0.0369
  385MOL0     C51870   0.942   8.453   7.566 -0.4870  0.6975  0.5346
  385MOL0     O51871   0.911   8.392   7.451 -0.2240 -0.4939 -0.2918
  385MOL0     C51872   1.017   8.369   7.365 -0.3180 -0.1463 -0.2702
  385MOL0     C51873   1.090   8.476   7.325 -0.1466  0.4136 -0.2073
  385MOL0     C51874   1.189   8.464   7.224  0.2365 -0.2522 -0.2687
  385MOL0     C51875   1.220   8.334   7.178 -0.3803  0.5162 -0.0950
  385MOL0     O51876   1.330   8.340   7.090 -0.3106 -0.7912  0.1805
  385MOL0     C51877   1.391   8.217   7.046  0.4458  0.0268  0.2295
  385MOL0     C51878   1.544   8.237   7.011 -0.3581 -0.6379  0.0737
  385MOL0     C51879   1.576   8.325   6.890  0.7529 -0.7013 -0.0194
  385MOL0     C51880   1.715   8.375   6.874 -0.2122 -0.1335  0.4061
  385MOL0     C51881   1.741   8.424   6.727 -0.3505 -0.5023  0.5307
  385MOL0     C51882   1.837   8.539   6.723 -0.8478 -0.1659  0.0412
  385MOL0     C51883   1.984   8.492   6.763  1.2521  1.1291 -0.4355
  385MOL0     C51884   2.076   8.603   6.819  0.8772  0.4002 -0.9728
  385MOL0    Cl51885   2.077   8.738   6.701 -0.0986 -0.3642 -0.1809
  385MOL0     C51886   1.144   8.226   7.224  0.4310  0.2148  0.5021
  385MOL0     C51887   1.047   8.236   7.324  0.5424 -0.3519  0.9590
  385MOL0     O51888   1.057   8.447   7.614 -0.2922  0.7955 -0.5656
  385MOL0     C51889   0.707   8.447   7.626  0.6516 -0.4129  0.2935
  385MOL0     C51890   0.599   8.490   7.699  0.0320  0.6033  0.0998
  385MOL0     N51891   0.262   8.986   8.313  0.2540  0.0118 -0.4870
  385MOL0     N51892   0.241   9.109   8.302  0.6406  0.1515 -0.4984
  385MOL0     C51893  -0.013   9.789   7.201 -0.0517 -0.3529  0.1793
  385MOL0     C51894   0.029   9.829   7.077 -0.0913  0.3125 -0.5768
  385MOL0     C51895   0.195  10.129   6.777 -1.1696 -0.8908 -0.4666
  385MOL0     C51896   0.298  10.176   6.695 -0.5684 -0.7284 -0.5471
  385MOL0     C51897   0.271  10.247   6.576 -1.1640 -0.2550 -0.4440
  385MOL0     C51898   0.138  10.261   6.532  0.1038 -0.1273 -0.0845
  385MOL0     O51899   0.094  10.296   6.401  0.1409 -0.5034 -0.2675
  385MOL0     C51900   0.188  10.291   6.291  0.1748  0.1163  0.4809
  385MOL0     C51901   0.109  10.291   6.155 -0.1471  0.3211  1.0770
  385MOL0     C51902   0.070  10.434   6.108  0.0854  0.5721 -0.3320
  385MOL0     C51903  -0.038  10.423   6.001 -1.1447 -0.2730 -0.4156
  385MOL0     C51904  -0.070  10.562   5.948 -0.4103  0.1179  0.0229
  385MOL0     C51905  -0.091  10.671   5.892 -1.0621 -0.3783 -0.2994
  385MOL0     C51906   0.029  10.224   6.616 -1.1236  0.7440  0.4714
  385MOL0     C51907   0.060  10.163   6.736  0.3182 -0.0006  0.5266
  385MOL0     H51908   0.146  10.143   7.167 -0.4717  0.3803 -2.0363
  385MOL0     H51909   0.077  10.036   7.402 -0.3117  0.7358  0.5185
  385MOL0     H51910  -0.014   9.631   7.504  0.8859  0.0285  2.8853
  385MOL0     H51911   0.146   9.693   7.446 -0.8690 -0.9933  0.4070
  385MOL0     H51912   0.164   9.839   7.655 -2.1681  2.0212  1.1576
  385MOL0     H51913   0.016   9.810   7.700 -0.0862  1.7324 -2.9180
  385MOL0     H51914   0.059   9.571   7.731  0.5259 -0.8696 -3.0636
  385MOL0     H51915   0.219   9.578   7.668  2.5696 -0.0809  4.0608
  385MOL0     H51916   0.280   9.758   7.842 -1.2152 -0.5065 -0.1525
  385MOL0     H51917   0.132   9.711   7.925 -1.0935 -1.9865  1.1629
  385MOL0     H51918   0.348   9.519   7.857  0.2002 -1.2448 -0.2711
  385MOL0     H51919   0.323   9.609   8.016 -0.5622  0.9965 -0.1618
  385MOL0     H51920   0.119   9.508   8.065  0.7308  0.9046  1.0927
  385MOL0     H51921   0.109   9.403   7.917 -0.4140 -0.3950  1.0773
  385MOL0     H51922   0.308   9.295   8.004  1.1790  0.1393  1.3795
  385MOL0     H51923   0.306   9.392   8.145 -0.2200  1.4507 -1.6780
  385MOL0     H51924   0.047   9.230   8.052 -0.3325  1.2467 -0.4202
  385MOL0     H51925   0.078   9.300   8.219  0.0565 -0.7812  0.9841
  385MOL0     H51926   0.130   8.979   8.016  1.4162 -0.4179  0.6675
  385MOL0     H51927   0.290   8.725   8.255 -1.0500 -2.2125 -0.1821
  385MOL0     H51928   0.118   8.732   8.189  1.1694 -1.5610  2.0423
  385MOL0     H51929   0.372   8.779   8.026 -0.9391  2.7488 -0.3752
  385MOL0     H51930   0.209   8.748   7.971 -0.1493 -1.1535 -0.9914
  385MOL0     H51931   0.235   8.517   8.036  0.3948 -0.7852 -1.6753
  385MOL0     H51932   0.391   8.538   8.117  1.6077  0.7721  0.1783
  385MOL0     H51933   0.325   8.587   7.821  1.0409  1.1029 -0.5716
  385MOL0     H51934   0.415   8.448   7.891  0.3143 -0.3511  0.8702
  385MOL0     H51935   0.758   8.670   7.926  1.0820  0.5069  0.2124
  385MOL0     H51936   1.052   8.552   7.861  1.9284  1.2377  0.9800
  385MOL0     H51937   1.047   8.660   7.720 -3.7797 -0.9988 -1.5931
  385MOL0     H51938   0.980   8.713   7.875 -0.4527 -1.1847  1.3855
  385MOL0     H51939   1.070   8.571   7.375  0.2665 -1.2258  3.3880
  385MOL0     H51940   1.247   8.542   7.176  0.9181 -1.0000 -0.6821
  385MOL0     H51941   1.400   8.146   7.129  1.6957  1.4665  1.3971
  385MOL0     H51942   1.328   8.168   6.971 -0.0274  0.5398  0.2831
  385MOL0     H51943   1.600   8.266   7.101 -0.0050 -3.0268  0.7111
  385MOL0     H51944   1.575   8.136   6.981 -0.6197 -1.6906  3.0755
  385MOL0     H51945   1.517   8.417   6.884  1.1277 -0.4605 -0.1249
  385MOL0     H51946   1.534   8.262   6.812 -2.5379 -0.4568  1.4147
  385MOL0     H51947   1.731   8.459   6.942  0.7545  0.0069  0.0294
  385MOL0     H51948   1.789   8.299   6.900 -0.0005 -0.9026 -2.1337
  385MOL0     H51949   1.647   8.463   6.687  0.4247  3.2359  1.9274
  385MOL0     H51950   1.788   8.344   6.668 -1.0001  0.9184 -2.0603
  385MOL0     H51951   1.853   8.585   6.626 -0.4343 -0.2038  0.0910
  385MOL0     H51952   1.802   8.622   6.785 -1.6793 -2.5606  3.0470
  385MOL0     H51953   2.026   8.449   6.672  1.7158  0.1856  0.2130
  385MOL0     H51954   1.979   8.413   6.838  0.8284 -0.4121 -2.0232
  385MOL0     H51955   2.177   8.562   6.832  1.5924  2.1441 -0.7608
  385MOL0     H51956   2.049   8.650   6.914  4.5878  4.8604 -1.7560
  385MOL0     H51957   1.177   8.129   7.189 -0.4579 -0.2773  1.0126
  385MOL0     H51958   1.010   8.142   7.363 -2.0528 -0.3553 -1.2678
  385MOL0     H51959   0.683   8.379   7.545  0.8376 -0.2359  0.0894
  385MOL0     H51960   0.498   8.459   7.674 -0.0074  1.5430 -1.0370
  385MOL0     H51961  -0.053   9.688   7.195 -1.9381  0.3774 -0.1827
  385MOL0     H51962   0.010   9.770   6.989  0.5797  1.5727 -1.6145
  385MOL0     H51963   0.395  10.148   6.735  1.0870  2.0461 -2.3508
  385MOL0     H51964   0.358  10.271   6.516  0.3326  0.9244  2.0304
  385MOL0     H51965   0.249  10.381   6.307 -1.6481  0.9907  3.1378
  385MOL0     H51966   0.258  10.207   6.291  0.7184  0.5203 -1.5242
  385MOL0     H51967   0.012  10.242   6.158 -1.1192  2.0042 -0.5546
  385MOL0     H51968   0.164  10.240   6.076  0.7053  1.9459  0.5737
  385MOL0     H51969   0.164  10.471   6.067 -0.0732  2.0449  0.5707
  385MOL0     H51970   0.033  10.495   6.190  0.9120  3.2506 -1.8459
  385MOL0     H51971  -0.126  10.383   6.052  0.2986  0.4617  2.9066
  385MOL0     H51972   0.002  10.363   5.918  1.0085  1.2775 -0.5778
  385MOL0     H51973  -0.098  10.773   5.858 -0.2244 -0.3175 -0.3011
  385MOL0     H51974  -0.075  10.229   6.587 -1.1633 -0.2998  0.3843
  385MOL0     H51975  -0.023  10.133   6.799  2.9327 -2.1326  3.2392
  386MOL0     O51976   9.102   2.464   6.577  0.5164  0.4337 -0.4412
  386MOL0     C51977   9.071   2.403   6.475 -0.7563  0.6497  0.1910
  386MOL0     O51978   8.946   2.349   6.438 -0.0259 -0.2342 -1.1442
  386MOL0     C51979   8.829   2.365   6.512 -0.6519 -0.4154 -0.2466
  386MOL0     C51980   8.799   2.479   6.589  0.3002  0.5603  0.4155
  386MOL0     C51981   8.676   2.490   6.659  0.2344 -0.6268  0.4843
  386MOL0     C51982   8.581   2.384   6.637  0.0993 -0.1440 -0.3916
  386MOL0     O51983   8.466   2.392   6.709 -0.0152  0.3448  0.5429
  386MOL0     C51984   8.422   2.265   6.752  0.6041 -0.0493  0.2638
  386MOL0     C51985   8.499   2.226   6.879 -1.3696 -0.8731  0.6035
  386MOL0     C51986   8.426   2.108   6.939 -0.6987 -0.8285 -0.9139
  386MOL0     C51987   8.475   2.092   7.086  0.1573 -0.3099 -0.0084
  386MOL0     C51988   8.426   1.957   7.139 -0.8768  1.0270  0.7256
  386MOL0     C51989   8.494   1.938   7.278 -0.5144  0.1612  0.7475
  386MOL0     C51990   8.506   1.785   7.327 -0.3750  0.0851  0.4127
  386MOL0     C51991   8.372   1.725   7.382  0.2075  0.1169  0.2723
  386MOL0     N51992   8.294   1.823   7.465 -0.2456  0.3719 -0.0030
  386MOL0     C51993   8.300   1.848   7.599  0.0902  1.1074 -0.1595
  386MOL0     C51994   8.187   1.910   7.632  0.0870  0.3341 -0.7956
  386MOL0     C51995   8.141   1.958   7.767  0.2433  0.3236  0.5431
  386MOL0     C51996   8.015   2.048   7.762  1.1884  0.4207 -0.4851
  386MOL0     C51997   7.972   2.098   7.899  0.8011  0.6250  0.4734
  386MOL0     C51998   7.852   2.190   7.906 -0.2049 -0.5992  0.1120
  386MOL0     O51999   7.740   2.125   7.858 -0.7227  0.8852 -0.1596
  386MOL0     C52000   7.615   2.169   7.892  0.1751 -0.5418 -0.2709
  386MOL0     C52001   7.520   2.071   7.900  0.1999  1.3099 -0.1690
  386MOL0     C52002   7.389   2.090   7.946  0.3217 -0.9323  0.0730
  386MOL0     C52003   7.308   1.968   7.949 -0.2729  1.0889  0.0406
  386MOL0     C52004   7.358   2.220   8.000 -0.8167  0.3106 -0.9224
  386MOL0     C52005   7.238   2.265   8.074 -0.2706 -0.0487 -0.4750
  386MOL0     O52006   7.237   2.391   8.132  0.3647  0.0056  0.8180
  386MOL0     C52007   7.141   2.440   8.215 -0.1449 -0.1589  0.2638
  386MOL0     C52008   7.139   2.583   8.217  0.0444  0.0432 -0.7412
  386MOL0     C52009   7.063   2.659   8.302  0.6970  0.4476  0.4964
  386MOL0     C52010   6.987   2.587   8.399 -1.5142 -0.2145 -0.1684
  386MOL0     O52011   6.910   2.654   8.488 -0.1947 -0.2983 -0.2122
  386MOL0     C52012   6.985   2.701   8.594  0.0813 -0.8828 -0.5631
  386MOL0     C52013   6.934   2.679   8.732 -0.3933 -0.4214  0.5071
  386MOL0     C52014   6.900   2.523   8.750 -0.0429 -0.7165 -0.6805
  386MOL0     C52015   6.897   2.491   8.899 -0.8483 -0.0719  0.4734
  386MOL0     C52016   6.894   2.341   8.922 -0.0817  0.0653 -0.1868
  386MOL0     C52017   6.858   2.312   9.068  0.6571  0.1167 -0.0494
  386MOL0     C52018   6.833   2.168   9.099 -0.1420  0.1470 -0.2234
  386MOL0     C52019   6.746   2.147   9.225  0.6842  0.8346 -1.2861
  386MOL0    Cl52020   6.738   1.973   9.288 -0.2243  0.0405 -0.0558
  386MOL0     C52021   6.977   2.445   8.392  0.5034  0.9099 -0.6902
  386MOL0     C52022   7.051   2.376   8.296  0.0412  0.3717 -0.3468
  386MOL0     O52023   7.150   2.187   8.075  0.3632  0.0443 -0.2821
  386MOL0     C52024   7.462   2.314   7.989  0.3307 -0.7133  0.6022
  386MOL0     C52025   7.583   2.291   7.933 -0.1110 -0.1520  0.0343
  386MOL0     N52026   8.121   1.936   7.503  0.1272 -0.4390 -0.7939
  386MOL0     N52027   8.190   1.880   7.409  0.2717  0.5459  0.3158
  386MOL0     C52028   8.604   2.284   6.547  0.7591  0.0544  0.1149
  386MOL0     C52029   8.729   2.271   6.495  0.0320 -0.8886  0.5071
  386MOL0     C52030   9.177   2.395   6.379  0.1885  0.2962  0.8840
  386MOL0     C52031   9.152   2.302   6.279  0.6270  0.8782 -0.4316
  386MOL0     C52032   9.246   2.289   6.182 -0.3490  0.1901  0.6388
  386MOL0     C52033   9.363   2.356   6.181  0.0586 -0.6997 -0.2142
  386MOL0     O52034   9.426   2.356   6.063  0.1966  1.2333 -0.0688
  386MOL0     C52035   9.398   2.456   5.963 -0.0169  0.5232 -0.9259
  386MOL0     C52036   9.300   2.427   5.853  0.2913  1.1951  1.0625
  386MOL0     C52037   9.275   2.555   5.762 -0.2346  0.1866  0.5656
  386MOL0     C52038   9.179   2.536   5.645  0.0503  0.2164 -0.1232
  386MOL0     C52039   9.221   2.440   5.545 -0.0834  0.0508 -0.4898
  386MOL0     C52040   9.245   2.345   5.468  0.6243  0.3882 -0.2683
  386MOL0     C52041   9.387   2.451   6.285 -0.3954 -0.0661 -0.6514
  386MOL0     C52042   9.293   2.467   6.390  0.8320 -0.1489 -0.3488
  386MOL0     H52043   8.874   2.556   6.602  1.3942 -0.6664  1.6531
  386MOL0     H52044   8.647   2.570   6.726  2.8888  0.5649  0.3358
  386MOL0     H52045   8.313   2.271   6.763  0.7024  1.9180  0.5474
  386MOL0     H52046   8.432   2.183   6.680 -0.5234 -0.5918  0.6946
  386MOL0     H52047   8.604   2.198   6.866 -0.0467  1.3992  4.5922
  386MOL0     H52048   8.508   2.318   6.937  1.9518 -0.1985 -0.7310
  386MOL0     H52049   8.322   2.137   6.957  0.2404  0.7493  3.1267
  386MOL0     H52050   8.446   2.018   6.880  2.4676 -0.7723 -0.1101
  386MOL0     H52051   8.583   2.108   7.096  0.6403 -0.5351 -3.4862
  386MOL0     H52052   8.424   2.164   7.150  0.2114 -3.6041  4.1670
  386MOL0     H52053   8.318   1.963   7.154 -0.9118 -0.6426  1.4121
  386MOL0     H52054   8.444   1.879   7.064 -1.6981  0.8182  0.7388
  386MOL0     H52055   8.597   1.969   7.263 -0.9717  1.1938 -0.4253
  386MOL0     H52056   8.447   1.996   7.358 -1.3035  2.3964 -1.2227
  386MOL0     H52057   8.537   1.730   7.238  1.0285  3.0131 -1.0498
  386MOL0     H52058   8.580   1.768   7.406  0.4251  0.8673 -0.1369
  386MOL0     H52059   8.381   1.628   7.431  0.1876  0.2617  0.5675
  386MOL0     H52060   8.314   1.708   7.291  0.5405 -0.5470  0.1824
  386MOL0     H52061   8.379   1.824   7.670  0.0436  1.9009  0.1694
  386MOL0     H52062   8.124   1.875   7.836  2.1850  1.1165  2.0499
  386MOL0     H52063   8.226   2.015   7.805  0.0039  0.7939  0.3725
  386MOL0     H52064   7.943   1.994   7.700  1.8649 -0.2716 -0.6848
  386MOL0     H52065   8.037   2.139   7.706  1.3329  1.8086  1.7233
  386MOL0     H52066   8.063   2.126   7.954  2.1115 -3.8632  0.9703
  386MOL0     H52067   7.942   2.007   7.952 -1.1095  0.6962 -0.4051
  386MOL0     H52068   7.877   2.275   7.841  3.7434 -1.1269  0.7119
  386MOL0     H52069   7.825   2.227   8.006  0.0103 -2.8781  1.0789
  386MOL0     H52070   7.539   1.967   7.877  0.1301  1.2947 -0.1601
  386MOL0     H52071   7.250   1.963   8.042 -1.0655 -0.1889 -0.4958
  386MOL0     H52072   7.228   1.968   7.875 -3.0109  2.8310  2.7564
  386MOL0     H52073   7.369   1.877   7.942 -0.0838  1.2995 -1.3349
  386MOL0     H52074   7.204   2.637   8.148 -0.1098 -1.4851 -2.1354
  386MOL0     H52075   7.064   2.767   8.317 -0.3114  0.2242  2.5258
  386MOL0     H52076   7.088   2.664   8.594  0.9605  1.3844 -0.0116
  386MOL0     H52077   6.983   2.809   8.575  0.5225 -1.1123 -2.1103
  386MOL0     H52078   7.004   2.715   8.808 -0.1670  1.5771 -0.5644
  386MOL0     H52079   6.841   2.734   8.744 -1.4416 -1.9985 -0.1366
  386MOL0     H52080   6.981   2.463   8.708 -0.8676 -1.6078 -1.0306
  386MOL0     H52081   6.812   2.504   8.689 -1.4782  1.6593  0.5233
  386MOL0     H52082   6.978   2.538   8.955  0.3306 -0.7195 -0.6180
  386MOL0     H52083   6.812   2.544   8.942 -1.1227  1.0874 -1.3540
  386MOL0     H52084   6.988   2.294   8.893 -0.3423  0.5257 -1.8695
  386MOL0     H52085   6.810   2.301   8.865  0.6315  0.5060 -1.6091
  386MOL0     H52086   6.942   2.343   9.131 -0.3852 -0.0900  1.5155
  386MOL0     H52087   6.762   2.362   9.090  0.2343 -0.5986 -0.2450
  386MOL0     H52088   6.927   2.116   9.119 -1.3846 -2.9695 -1.8303
  386MOL0     H52089   6.786   2.126   9.010 -1.3463 -0.2897  0.5871
  386MOL0     H52090   6.646   2.183   9.197 -1.4016 -3.6725 -0.5303
  386MOL0     H52091   6.785   2.205   9.309 -0.2090 -0.0127 -0.2430
  386MOL0     H52092   6.915   2.393   8.465  0.1309  0.1793 -1.5052
  386MOL0     H52093   7.034   2.269   8.290 -2.5010  0.8096 -3.9677
  386MOL0     H52094   7.436   2.418   8.006  0.2341 -0.5847 -0.3210
  386MOL0     H52095   7.658   2.368   7.915  0.2644 -1.1910 -3.4819
  386MOL0     H52096   8.537   2.211   6.502  0.7968 -0.5588  1.0190
  386MOL0     H52097   8.739   2.190   6.423 -1.8982  0.0407 -0.9110
  386MOL0     H52098   9.074   2.228   6.266  0.8249  0.7254 -0.7394
  386MOL0     H52099   9.233   2.222   6.098  1.0235  2.9011 -1.9295
  386MOL0     H52100   9.355   2.539   6.020  2.5386 -0.0595  2.1079
  386MOL0     H52101   9.494   2.493   5.924  1.0269  0.0790  1.1177
  386MOL0     H52102   9.202   2.389   5.884  0.0211  1.9091  1.0975
  386MOL0     H52103   9.355   2.353   5.794  1.8304  0.3752  3.3787
  386MOL0     H52104   9.368   2.596   5.721  1.1718 -2.3170  1.0742
  386MOL0     H52105   9.240   2.638   5.825 -0.3002  0.3203  0.3538
  386MOL0     H52106   9.170   2.636   5.601  0.4149  0.5095  0.4496
  386MOL0     H52107   9.083   2.502   5.686 -0.0505 -1.3078 -1.5240
  386MOL0     H52108   9.263   2.260   5.406 -1.3426  0.7960 -1.4677
  386MOL0     H52109   9.480   2.507   6.280 -0.2213 -0.2162  0.5570
  386MOL0     H52110   9.333   2.519   6.477  2.1780 -2.5521  0.5532
  387MOL0     O52111   4.749   1.611   7.389 -0.9573 -0.1691 -0.1668
  387MOL0     C52112   4.660   1.533   7.355  0.3659  0.5132  0.0712
  387MOL0     O52113   4.678   1.435   7.256 -0.0026  0.0038  0.2924
  387MOL0     C52114   4.800   1.433   7.191  1.2944  0.0240  0.6433
  387MOL0     C52115   4.846   1.306   7.177 -0.2275 -0.7211  0.0621
  387MOL0     C52116   4.969   1.277   7.110  0.4322 -0.2650  0.1026
  387MOL0     C52117   5.038   1.387   7.050  0.6097 -0.3071 -0.4673
  387MOL0     O52118   5.169   1.368   6.999  0.0759 -0.0569  0.0180
  387MOL0     C52119   5.177   1.357   6.864 -0.2713 -0.1420  0.5689
  387MOL0     C52120   5.321   1.300   6.830  0.3428 -0.2443 -0.4616
  387MOL0     C52121   5.436   1.389   6.874  0.6280 -0.3968 -0.0756
  387MOL0     C52122   5.571   1.330   6.818  0.3190 -0.5295 -0.6322
  387MOL0     C52123   5.689   1.403   6.880  0.6926 -0.1741  0.5921
  387MOL0     C52124   5.824   1.347   6.840  0.4779 -0.2610  0.2406
  387MOL0     C52125   5.931   1.461   6.870  0.1157  0.0099  0.4908
  387MOL0     C52126   6.074   1.422   6.834  0.1221  0.6323  0.1954
  387MOL0     N52127   6.081   1.356   6.704  0.8415 -0.2116  0.3071
  387MOL0     C52128   6.080   1.216   6.692  0.7871 -0.4423 -0.0593
  387MOL0     C52129   6.083   1.188   6.562 -0.6551 -0.1389 -0.9284
  387MOL0     C52130   6.065   1.046   6.503 -0.8201 -0.1750  0.2349
  387MOL0     C52131   5.943   1.040   6.412 -0.8487  0.5757 -0.1804
  387MOL0     C52132   5.821   1.009   6.493  1.1372 -0.1366  0.1641
  387MOL0     C52133   5.812   0.866   6.565 -0.8377 -0.2510 -0.1365
  387MOL0     O52134   5.885   0.877   6.693  0.2673  0.1284  0.1884
  387MOL0     C52135   5.939   0.769   6.745 -0.4308  0.6897 -0.4886
  387MOL0     C52136   6.019   0.783   6.855 -0.7121  0.2601 -0.2052
  387MOL0     C52137   6.071   0.677   6.928 -0.7628 -0.1724 -0.0422
  387MOL0     C52138   6.171   0.710   7.039 -0.0526 -0.6446 -0.4663
  387MOL0     C52139   6.047   0.546   6.887  0.8306 -0.1170  0.5668
  387MOL0     C52140   6.079   0.436   6.959 -0.7908  0.2195 -0.4879
  387MOL0     O52141   6.138   0.338   6.884 -0.6012 -0.2212 -0.1074
  387MOL0     C52142   6.188   0.231   6.954 -0.9677  0.0102  0.0189
  387MOL0     C52143   6.121   0.133   7.030  0.2521 -0.4548 -1.0808
  387MOL0     C52144   6.186   0.018   7.079 -0.4741  1.3098 -0.4400
  387MOL0     C52145   6.320  -0.001   7.072  0.5291 -0.6257 -0.2511
  387MOL0     O52146   6.389  -0.096   7.144  1.0113 -0.3343  0.6623
  387MOL0     C52147   6.323  -0.230   7.162 -0.2752 -0.0410 -1.1233
  387MOL0     C52148   6.419  -0.336   7.124 -0.4159 -0.2529  0.1693
  387MOL0     C52149   6.358  -0.481   7.133  0.2545 -0.3936 -0.2944
  387MOL0     C52150   6.446  -0.600   7.099 -0.4084  0.6226  0.8363
  387MOL0     C52151   6.503  -0.679   7.216 -0.1004  0.7878  0.9167
  387MOL0     C52152   6.627  -0.771   7.184  0.2090  0.0906  0.6452
  387MOL0     C52153   6.603  -0.878   7.076 -1.0821  0.1758 -1.1859
  387MOL0     C52154   6.701  -0.995   7.099  0.7125 -0.1639 -0.0563
  387MOL0    Cl52155   6.722  -1.124   6.986  0.1782 -0.2307 -0.5372
  387MOL0     C52156   6.400   0.103   7.007 -0.0727  0.8390  0.1122
  387MOL0     C52157   6.333   0.212   6.951  0.1241  0.4415  0.1307
  387MOL0     O52158   6.066   0.442   7.087 -0.5636  1.0162 -0.1675
  387MOL0     C52159   5.976   0.532   6.761  1.1015 -0.6379  0.7565
  387MOL0     C52160   5.930   0.642   6.691  0.6898  0.9733  0.3183
  387MOL0     N52161   6.080   1.314   6.496  0.3948  0.3971 -0.1182
  387MOL0     N52162   6.067   1.407   6.578  0.5621 -0.5668 -0.1916
  387MOL0     C52163   4.986   1.514   7.059  0.6815  0.2036 -0.9559
  387MOL0     C52164   4.864   1.540   7.128  0.0202 -0.0272 -0.1717
  387MOL0     C52165   4.518   1.548   7.396 -0.1688 -1.1780 -0.3593
  387MOL0     C52166   4.493   1.620   7.514 -0.6308  0.5859  1.2688
  387MOL0     C52167   4.365   1.636   7.555 -0.0106 -0.3160 -0.1051
  387MOL0     C52168   4.254   1.590   7.485 -0.5349  0.5685  0.8445
  387MOL0     O52169   4.134   1.629   7.539 -0.2980 -0.5030 -0.5639
  387MOL0     C52170   4.024   1.646   7.447  0.3413 -0.3004  0.5290
  387MOL0     C52171   3.905   1.704   7.525 -0.0459  0.3895 -0.3783
  387MOL0     C52172   3.774   1.735   7.446 -0.3628 -0.5232 -0.5795
  387MOL0     C52173   3.678   1.812   7.527 -0.4534  0.5973 -0.3219
  387MOL0     C52174   3.555   1.847   7.450 -0.6296  0.2262  1.1215
  387MOL0     C52175   3.467   1.896   7.376  1.1796 -0.1526 -0.8809
  387MOL0     C52176   4.285   1.525   7.364 -0.6929 -0.1248 -0.5017
  387MOL0     C52177   4.413   1.499   7.319 -0.3416  0.2964  0.0274
  387MOL0     H52178   4.799   1.218   7.220  0.3329 -0.6270  0.8947
  387MOL0     H52179   5.032   1.189   7.112  1.1291  0.2269  0.1984
  387MOL0     H52180   5.094   1.306   6.814  1.0057  0.5276 -2.4830
  387MOL0     H52181   5.179   1.459   6.824 -1.5134  0.4712  2.0012
  387MOL0     H52182   5.325   1.202   6.877  2.5437  0.2073  0.4263
  387MOL0     H52183   5.325   1.290   6.721  3.8330  3.0951 -0.8670
  387MOL0     H52184   5.434   1.493   6.839  1.6168 -1.2510 -2.9639
  387MOL0     H52185   5.444   1.390   6.983  0.3902  0.6115 -0.0570
  387MOL0     H52186   5.584   1.224   6.841  1.9542  0.2132  2.3969
  387MOL0     H52187   5.568   1.338   6.709 -1.8904  0.3378 -0.5794
  387MOL0     H52188   5.668   1.505   6.848  2.7573  0.5971  1.5646
  387MOL0     H52189   5.666   1.413   6.986 -2.5944  0.1836 -0.0289
  387MOL0     H52190   5.835   1.251   6.891  3.7350  1.0141  2.3319
  387MOL0     H52191   5.822   1.331   6.732  0.3560 -0.0338  0.2090
  387MOL0     H52192   5.905   1.555   6.820 -3.1747 -0.9588  0.1386
  387MOL0     H52193   5.937   1.482   6.977  2.5918 -1.1550  0.6707
  387MOL0     H52194   6.118   1.356   6.909  1.1302 -0.2487 -1.1212
  387MOL0     H52195   6.139   1.509   6.843 -0.3293  0.8111  1.9735
  387MOL0     H52196   6.053   1.140   6.765  0.2091  1.7654  2.1539
  387MOL0     H52197   6.147   1.017   6.437 -2.3662 -3.5504 -0.4413
  387MOL0     H52198   6.060   0.967   6.579 -1.6289 -1.7573 -1.3959
  387MOL0     H52199   5.956   0.954   6.345 -0.8484 -0.0062  0.5613
  387MOL0     H52200   5.928   1.129   6.350 -1.2504  1.3387  0.9825
  387MOL0     H52201   5.731   1.008   6.430  1.2881 -1.5260 -0.0770
  387MOL0     H52202   5.807   1.090   6.565  0.9755 -0.4749  0.5212
  387MOL0     H52203   5.849   0.787   6.499 -1.7776  0.7863 -2.0018
  387MOL0     H52204   5.708   0.842   6.591 -1.5791  0.3641 -2.3263
  387MOL0     H52205   6.048   0.882   6.888 -1.3619 -0.5820  3.2285
  387MOL0     H52206   6.232   0.795   7.008 -3.4544  2.2534  0.1286
  387MOL0     H52207   6.112   0.739   7.127 -3.1559  0.6840 -2.7859
  387MOL0     H52208   6.242   0.632   7.068 -0.7322 -1.6868 -1.5098
  387MOL0     H52209   6.017   0.157   7.049  0.2501 -0.9505 -0.4156
  387MOL0     H52210   6.125  -0.063   7.117  3.3129 -2.0998 -0.9866
  387MOL0     H52211   6.308  -0.240   7.270  2.1191  2.1313 -0.4795
  387MOL0     H52212   6.231  -0.239   7.103  1.5527  3.5444 -5.0585
  387MOL0     H52213   6.438  -0.312   7.019 -0.2848  0.0512  0.2640
  387MOL0     H52214   6.510  -0.316   7.180  1.4434  1.8739 -3.2537
  387MOL0     H52215   6.276  -0.480   7.060 -0.1426 -0.4576  0.1468
  387MOL0     H52216   6.306  -0.502   7.227  0.8206 -1.1151 -0.1370
  387MOL0     H52217   6.389  -0.664   7.032 -0.4828  2.2917 -0.7690
  387MOL0     H52218   6.526  -0.548   7.045 -1.5487  0.7880 -0.7273
  387MOL0     H52219   6.425  -0.733   7.272 -2.6953  3.1072 -0.2101
  387MOL0     H52220   6.532  -0.605   7.291  0.7686  3.1923 -1.6154
  387MOL0     H52221   6.707  -0.706   7.146 -1.6448  1.4679 -1.1319
  387MOL0     H52222   6.658  -0.824   7.274 -1.3396 -0.4157  0.9149
  387MOL0     H52223   6.628  -0.828   6.981 -0.2374  2.1342 -0.0030
  387MOL0     H52224   6.497  -0.907   7.074 -0.3864 -2.5632 -1.3730
  387MOL0     H52225   6.671  -1.053   7.187 -1.3347 -2.3630 -2.0719
  387MOL0     H52226   6.795  -0.941   7.115  0.0657  0.2848  2.8195
  387MOL0     H52227   6.508   0.089   7.012 -0.2206 -0.4212  0.1059
  387MOL0     H52228   6.392   0.288   6.901  0.3372 -1.5142 -2.8918
  387MOL0     H52229   5.947   0.430   6.737  1.3581 -1.2165  2.7540
  387MOL0     H52230   5.871   0.611   6.605  0.9485 -1.0190  0.8036
  387MOL0     H52231   5.039   1.597   7.013  3.2312 -0.9688 -0.3437
  387MOL0     H52232   4.827   1.642   7.136  1.1519  0.3786  0.0281
  387MOL0     H52233   4.585   1.664   7.550  1.8668 -0.0071 -3.5661
  387MOL0     H52234   4.361   1.690   7.649 -1.3560  0.5783 -0.6548
  387MOL0     H52235   4.058   1.710   7.365  0.5067 -0.1101  0.7447
  387MOL0     H52236   3.991   1.550   7.406  0.2564 -1.4657  3.1141
  387MOL0     H52237   3.922   1.790   7.591 -0.4897 -1.1277  1.8298
  387MOL0     H52238   3.891   1.624   7.598 -0.5853 -0.0465 -0.9500
  387MOL0     H52239   3.732   1.635   7.429 -0.1322 -1.0560  1.6124
  387MOL0     H52240   3.800   1.792   7.357 -0.4458 -3.4108 -2.5980
  387MOL0     H52241   3.718   1.909   7.560  0.1093  0.1608  0.2871
  387MOL0     H52242   3.647   1.750   7.612 -0.7109 -2.1481 -2.2912
  387MOL0     H52243   3.402   1.934   7.300 -0.0270 -0.0373  0.1680
  387MOL0     H52244   4.195   1.489   7.314 -2.0947 -1.6417  2.7921
  387MOL0     H52245   4.427   1.440   7.229 -2.1999  1.3098 -0.9950
  388MOL0     O52246   8.392   3.807   5.481  0.3214 -0.2095 -0.4515
  388MOL0     C52247   8.490   3.799   5.416 -1.2647 -0.2251 -0.4098
  388MOL0     O52248   8.612   3.780   5.478  0.4183 -0.3527 -0.5752
  388MOL0     C52249   8.615   3.766   5.620 -0.3764  0.0855  0.7840
  388MOL0     C52250   8.573   3.867   5.711  0.0988 -1.0368  0.5823
  388MOL0     C52251   8.562   3.838   5.850  0.1395 -0.2318 -0.6792
  388MOL0     C52252   8.600   3.720   5.895  0.8285  1.4307 -0.6964
  388MOL0     O52253   8.582   3.700   6.028 -0.2462 -0.8057 -0.2641
  388MOL0     C52254   8.639   3.588   6.093  0.4599  0.1817  0.7013
  388MOL0     C52255   8.566   3.589   6.222 -0.3294  0.0512 -0.0667
  388MOL0     C52256   8.406   3.596   6.231 -0.8672 -0.6640  0.0643
  388MOL0     C52257   8.360   3.594   6.369 -0.2929 -0.6222  0.0701
  388MOL0     C52258   8.204   3.565   6.382  0.9644  0.7376 -0.1783
  388MOL0     C52259   8.160   3.510   6.520 -0.1482  0.2712  0.5236
  388MOL0     C52260   8.013   3.537   6.540  0.8053 -0.1774  0.4132
  388MOL0     C52261   7.976   3.467   6.674 -0.6225  0.7464  0.5913
  388MOL0     N52262   7.885   3.355   6.671  0.7941 -0.0994  0.3142
  388MOL0     C52263   7.762   3.351   6.734  0.4734  1.0138  0.0906
  388MOL0     C52264   7.713   3.230   6.698  0.2131 -0.0068 -0.0889
  388MOL0     C52265   7.582   3.168   6.742 -0.4951 -0.2877 -0.5057
  388MOL0     C52266   7.584   3.116   6.886 -0.2612 -0.1505  0.0093
  388MOL0     C52267   7.442   3.100   6.944 -0.2644  1.1369 -0.9600
  388MOL0     C52268   7.447   3.062   7.094  0.4908 -1.0885 -0.7521
  388MOL0     O52269   7.472   3.186   7.171 -0.4556  1.0147 -0.1070
  388MOL0     C52270   7.467   3.189   7.306  0.4218 -0.6257  0.0192
  388MOL0     C52271   7.445   3.074   7.387 -0.8201 -0.0552 -0.0083
  388MOL0     C52272   7.417   3.092   7.516  0.1517  0.7800 -0.3647
  388MOL0     C52273   7.370   2.969   7.590  0.3701 -0.0396  0.5759
  388MOL0     C52274   7.436   3.220   7.586  0.6169 -0.3442 -0.4859
  388MOL0     C52275   7.396   3.239   7.730  0.1065 -0.6398  0.7091
  388MOL0     O52276   7.480   3.332   7.798 -0.7559 -0.5883 -0.8706
  388MOL0     C52277   7.459   3.376   7.934 -1.1526  0.5785 -0.2110
  388MOL0     C52278   7.339   3.376   8.003  0.6309 -1.0185  0.1366
  388MOL0     C52279   7.328   3.429   8.136  0.1411  1.0341 -0.1823
  388MOL0     C52280   7.440   3.456   8.218 -0.6173 -0.7812  0.1675
  388MOL0     O52281   7.430   3.502   8.353 -0.2939 -0.6184  0.0625
  388MOL0     C52282   7.539   3.486   8.440  1.0324 -0.3828 -0.4285
  388MOL0     C52283   7.520   3.541   8.573  0.7318  0.2286 -0.3344
  388MOL0     C52284   7.544   3.690   8.573  0.5174 -0.0038  0.0114
  388MOL0     C52285   7.467   3.760   8.692 -0.2112  0.8144  0.1501
  388MOL0     C52286   7.539   3.756   8.826 -0.3148 -0.0742  0.1435
  388MOL0     C52287   7.437   3.812   8.930  0.9306 -0.4732  0.2568
  388MOL0     C52288   7.496   3.822   9.068 -0.4979  0.5969  0.2369
  388MOL0     C52289   7.429   3.928   9.155  0.7914 -0.8501  0.6536
  388MOL0    Cl52290   7.533   3.959   9.296 -0.3763 -0.0998 -0.5024
  388MOL0     C52291   7.563   3.449   8.150 -0.0280  1.2540 -0.9151
  388MOL0     C52292   7.572   3.411   8.009  0.1127  0.0918  0.0695
  388MOL0     O52293   7.300   3.187   7.776 -0.1270  0.1121  0.2465
  388MOL0     C52294   7.483   3.330   7.511 -0.9525  0.0550  0.0226
  388MOL0     C52295   7.498   3.312   7.372  0.3980  0.0875  0.5280
  388MOL0     N52296   7.810   3.157   6.620 -0.1630 -0.1050  0.4129
  388MOL0     N52297   7.912   3.232   6.616  0.4912 -0.3380  0.6836
  388MOL0     C52298   8.646   3.618   5.805  0.3765 -0.1282  0.0639
  388MOL0     C52299   8.657   3.644   5.668 -0.9099  0.0415  0.0723
  388MOL0     C52300   8.486   3.785   5.270  0.0294  1.0203 -0.5418
  388MOL0     C52301   8.361   3.780   5.204 -0.3609  0.4050  0.5982
  388MOL0     C52302   8.355   3.767   5.056  0.5804 -0.2031 -0.0294
  388MOL0     C52303   8.478   3.765   4.984 -0.2835 -0.1196 -0.7196
  388MOL0     O52304   8.494   3.738   4.850  0.4363  0.5911 -0.7090
  388MOL0     C52305   8.371   3.750   4.767 -0.0301 -0.2643  0.1369
  388MOL0     C52306   8.411   3.735   4.622 -0.0973  0.3562  0.4329
  388MOL0     C52307   8.542   3.821   4.585  0.7277 -0.7291  0.6498
  388MOL0     C52308   8.598   3.820   4.436  0.4392 -0.5106 -0.6676
  388MOL0     C52309   8.556   3.936   4.356 -0.7589 -0.4961 -0.1210
  388MOL0     C52310   8.535   4.032   4.298  0.0568  0.3229  0.7859
  388MOL0     C52311   8.595   3.772   5.051  1.0076  0.4188 -0.2067
  388MOL0     C52312   8.605   3.780   5.189  0.2495  0.6783 -0.8735
  388MOL0     H52313   8.543   3.963   5.670  1.8578 -0.8725 -0.3916
  388MOL0     H52314   8.525   3.918   5.914 -0.9732 -1.7311  0.6256
  388MOL0     H52315   8.613   3.498   6.038  0.7676  1.4917 -1.7127
  388MOL0     H52316   8.747   3.597   6.104  0.8403 -2.7694  0.0691
  388MOL0     H52317   8.594   3.497   6.275 -1.4672 -0.7620 -0.8166
  388MOL0     H52318   8.603   3.683   6.264 -1.6844  0.9264 -0.7746
  388MOL0     H52319   8.380   3.693   6.188 -0.9878  0.7659  3.0771
  388MOL0     H52320   8.359   3.527   6.161  1.2097 -1.5344 -0.5431
  388MOL0     H52321   8.418   3.518   6.422  1.7409  1.3677  0.8184
  388MOL0     H52322   8.384   3.687   6.421 -2.0082  0.1791 -0.4801
  388MOL0     H52323   8.154   3.662   6.373 -1.5018 -0.2281  1.8975
  388MOL0     H52324   8.180   3.488   6.309  3.9879  0.4032 -0.9726
  388MOL0     H52325   8.183   3.404   6.529  0.2333  0.4452  1.7612
  388MOL0     H52326   8.220   3.552   6.601  3.2028 -0.5894 -1.3331
  388MOL0     H52327   8.008   3.645   6.556  1.2742 -0.5539  4.1172
  388MOL0     H52328   7.949   3.505   6.457 -1.6407  0.4093  1.9411
  388MOL0     H52329   7.934   3.550   6.731 -1.9607  1.7081 -1.7015
  388MOL0     H52330   8.067   3.434   6.726 -1.5089  0.8367  2.2633
  388MOL0     H52331   7.722   3.426   6.801  0.5684  0.6528  0.5586
  388MOL0     H52332   7.505   3.246   6.732  1.2951  1.6414  0.0661
  388MOL0     H52333   7.549   3.087   6.676 -2.0761  0.1726 -0.3325
  388MOL0     H52334   7.641   3.185   6.949 -1.9229  3.7361 -2.4187
  388MOL0     H52335   7.642   3.024   6.900 -0.7783 -0.2519  1.8593
  388MOL0     H52336   7.398   3.019   6.885 -1.8231  0.7452  0.6415
  388MOL0     H52337   7.368   3.176   6.915 -0.6332  1.1643  0.0009
  388MOL0     H52338   7.519   2.984   7.120 -1.8576 -2.8237  0.9842
  388MOL0     H52339   7.351   3.018   7.123 -0.3567  2.1535  1.9483
  388MOL0     H52340   7.445   2.973   7.346  0.4854 -0.0078 -0.1749
  388MOL0     H52341   7.265   2.979   7.620  0.0253  0.3486 -0.7227
  388MOL0     H52342   7.378   2.871   7.542  2.5043  0.0951  0.5611
  388MOL0     H52343   7.442   2.957   7.672  4.3014 -2.3341 -2.8256
  388MOL0     H52344   7.246   3.356   7.952  0.4600 -0.9782  0.4255
  388MOL0     H52345   7.231   3.444   8.183  1.6828  4.3588  2.3469
  388MOL0     H52346   7.561   3.379   8.451 -2.3006 -1.2414 -0.8229
  388MOL0     H52347   7.622   3.535   8.390  1.6021 -1.5862 -0.6962
  388MOL0     H52348   7.419   3.508   8.598  1.2076 -1.9376 -1.0664
  388MOL0     H52349   7.590   3.489   8.639 -1.5303 -0.5927  1.5628
  388MOL0     H52350   7.507   3.737   8.481  2.6096  2.0444  0.1353
  388MOL0     H52351   7.652   3.704   8.573  0.6185 -0.5565 -1.9263
  388MOL0     H52352   7.466   3.866   8.664  1.0512  0.7121 -0.3368
  388MOL0     H52353   7.365   3.720   8.694  1.5182 -4.5641 -2.1639
  388MOL0     H52354   7.625   3.823   8.814  0.8662 -1.7529 -1.3969
  388MOL0     H52355   7.578   3.656   8.846 -0.6668  0.2541  2.7679
  388MOL0     H52356   7.385   3.902   8.896 -2.5993 -2.6341 -0.6246
  388MOL0     H52357   7.358   3.737   8.931  0.5214 -0.0572 -0.2093
  388MOL0     H52358   7.603   3.842   9.055  0.0931 -2.1766  0.0359
  388MOL0     H52359   7.490   3.721   9.110 -1.8188  1.2270  1.6483
  388MOL0     H52360   7.330   3.888   9.180  0.4220 -0.9562 -0.8797
  388MOL0     H52361   7.427   4.026   9.107 -0.3799 -1.6571 -1.0359
  388MOL0     H52362   7.655   3.471   8.205  0.4276 -1.1847 -0.6185
  388MOL0     H52363   7.669   3.390   7.966  1.0394 -0.5169  2.3058
  388MOL0     H52364   7.497   3.428   7.556  4.5242  1.1963 -3.2733
  388MOL0     H52365   7.536   3.384   7.299 -2.9131  0.3083 -1.1603
  388MOL0     H52366   8.670   3.520   5.845  3.5131 -0.1251 -1.5401
  388MOL0     H52367   8.681   3.561   5.603 -1.2278  0.3924 -0.4982
  388MOL0     H52368   8.266   3.774   5.255  0.7501 -2.1864  2.5989
  388MOL0     H52369   8.262   3.769   5.000  1.5649 -0.9990 -1.7614
  388MOL0     H52370   8.298   3.677   4.802 -2.7484  2.0396 -0.3122
  388MOL0     H52371   8.329   3.848   4.791 -0.6978 -1.1769  3.0979
  388MOL0     H52372   8.333   3.771   4.554 -0.6547  0.3727  1.0773
  388MOL0     H52373   8.434   3.628   4.610  0.8118  0.6309 -0.4267
  388MOL0     H52374   8.626   3.798   4.652  1.0868 -2.0777 -0.2144
  388MOL0     H52375   8.508   3.924   4.598  0.0331 -0.7441 -0.8530
  388MOL0     H52376   8.567   3.727   4.386 -0.6831  0.0763 -1.1052
  388MOL0     H52377   8.706   3.814   4.447  0.2799  0.1771  1.9107
  388MOL0     H52378   8.518   4.124   4.245  1.1896 -1.1472 -2.3501
  388MOL0     H52379   8.689   3.765   4.997  1.0923 -2.3022  0.1796
  388MOL0     H52380   8.694   3.780   5.250 -0.1219 -1.3720 -0.2623
  389MOL0     O52381  10.325  11.177   6.099  0.2118  0.1585  0.5247
  389MOL0     C52382  10.334  11.230   5.990  0.6523  0.4117  0.2140
  389MOL0     O52383  10.269  11.188   5.876 -0.0116  0.8477  0.8528
  389MOL0     C52384  10.194  11.073   5.882  0.2463  0.3914 -1.1561
  389MOL0     C52385  10.204  10.977   5.787 -0.5161 -0.0430  0.1280
  389MOL0     C52386  10.106  10.880   5.773  1.0567 -0.4342  0.3910
  389MOL0     C52387  10.001  10.868   5.861 -1.0754  0.3799 -0.6455
  389MOL0     O52388   9.907  10.765   5.861  0.4876 -0.4732 -0.1231
  389MOL0     C52389   9.887  10.678   5.761 -0.0655  0.5202  0.3410
  389MOL0     C52390   9.984  10.561   5.759 -0.6593  0.2723 -0.5169
  389MOL0     C52391   9.968  10.486   5.897 -0.5428  0.9307  1.1650
  389MOL0     C52392  10.070  10.529   6.006 -0.7871 -0.3648  0.4605
  389MOL0     C52393  10.015  10.488   6.143 -0.1278  0.1658  0.6818
  389MOL0     C52394  10.123  10.505   6.248 -0.0563  0.2517  0.2515
  389MOL0     C52395  10.127  10.646   6.304  0.4332 -0.0949 -0.0370
  389MOL0     C52396  10.240  10.692   6.389  0.2866 -0.0003  0.0759
  389MOL0     N52397  10.266  10.603   6.499 -1.1244 -0.3846  0.8349
  389MOL0     C52398  10.208  10.613   6.622  0.2237  0.7625 -0.7224
  389MOL0     C52399  10.248  10.509   6.687 -0.1626 -0.0052 -0.4176
  389MOL0     C52400  10.212  10.460   6.837 -0.0070 -0.1303 -0.4266
  389MOL0     C52401  10.320  10.427   6.938  0.2665  0.0934  0.2641
  389MOL0     C52402  10.255  10.324   7.041  0.4917  0.3475  0.5423
  389MOL0     C52403  10.356  10.284   7.145  0.5881  0.3706 -0.2357
  389MOL0     O52404  10.359  10.387   7.243  0.8670 -0.0779 -0.9192
  389MOL0     C52405  10.410  10.373   7.370 -0.4400  0.5808 -0.4702
  389MOL0     C52406  10.431  10.255   7.448 -0.3353  0.3718  0.4027
  389MOL0     C52407  10.465  10.258   7.584  0.2957  0.3461 -0.8398
  389MOL0     C52408  10.478  10.133   7.661 -0.4580  0.1362 -0.4307
  389MOL0     C52409  10.508  10.382   7.636  0.2572  0.4212  0.2662
  389MOL0     C52410  10.571  10.394   7.765  0.6131 -0.4640  0.1530
  389MOL0     O52411  10.699  10.423   7.755  0.8707  0.4090 -0.0439
  389MOL0     C52412  10.783  10.417   7.864  0.8857 -0.3675 -0.0186
  389MOL0     C52413  10.760  10.358   7.989 -0.7132  0.3012 -0.4712
  389MOL0     C52414  10.857  10.383   8.090 -0.9962  0.3843 -0.3529
  389MOL0     C52415  10.975  10.457   8.074 -0.0990 -0.3894  0.2908
  389MOL0     O52416  11.080  10.470   8.162 -0.6019 -0.2130  0.0947
  389MOL0     C52417  11.037  10.478   8.301 -0.0124  0.1032 -0.1127
  389MOL0     C52418  11.155  10.488   8.396 -0.3303 -1.0748  0.1652
  389MOL0     C52419  11.234  10.620   8.387 -0.6596 -0.2360  0.0989
  389MOL0     C52420  11.363  10.615   8.479 -0.0813 -0.0663  0.0047
  389MOL0     C52421  11.411  10.760   8.505  0.9282  0.1342 -0.0886
  389MOL0     C52422  11.550  10.763   8.572 -0.5097 -0.5287  0.6011
  389MOL0     C52423  11.591  10.910   8.584  0.3397  0.0130  0.3617
  389MOL0     C52424  11.722  10.951   8.645 -0.2851  0.1970 -0.1031
  389MOL0    Cl52425  11.840  10.839   8.591 -0.0440 -0.1708 -0.0700
  389MOL0     C52426  10.991  10.527   7.951 -0.8709  0.1817 -0.7696
  389MOL0     C52427  10.900  10.500   7.848  1.5580 -0.4884  1.0513
  389MOL0     O52428  10.507  10.379   7.865 -0.5735  0.1131 -0.1551
  389MOL0     C52429  10.505  10.497   7.553 -0.1911 -0.9805  0.1112
  389MOL0     C52430  10.461  10.493   7.421 -0.2575  0.2446  0.0475
  389MOL0     N52431  10.327  10.433   6.611 -0.1473 -0.1568 -0.3699
  389MOL0     N52432  10.346  10.489   6.502  0.0680 -0.0204  0.9246
  389MOL0     C52433   9.986  10.964   5.964 -0.9273  0.1057 -0.1129
  389MOL0     C52434  10.079  11.068   5.971  0.1256  0.2113  0.2917
  389MOL0     C52435  10.405  11.359   5.987 -0.0540 -0.6696  1.0676
  389MOL0     C52436  10.440  11.408   5.862  0.2612  0.6961 -0.5039
  389MOL0     C52437  10.518  11.526   5.852  0.6395 -0.0082 -0.4699
  389MOL0     C52438  10.550  11.603   5.972 -0.2701 -0.3758  0.6396
  389MOL0     O52439  10.627  11.715   5.954  0.2806  0.1343 -0.6073
  389MOL0     C52440  10.760  11.692   5.924 -0.1493 -1.2758 -0.4730
  389MOL0     C52441  10.842  11.819   5.909 -0.1276 -1.1140  0.4767
  389MOL0     C52442  10.844  11.906   6.043 -0.1718  0.6013  0.3529
  389MOL0     C52443  10.804  12.053   6.010  0.0915 -0.2514  0.2639
  389MOL0     C52444  10.921  12.131   5.967 -0.4775 -0.5399 -0.2568
  389MOL0     C52445  11.028  12.179   5.934  0.1196  0.9307  0.8260
  389MOL0     C52446  10.514  11.548   6.099  0.6692 -0.0877 -0.1154
  389MOL0     C52447  10.434  11.433   6.102 -1.0998 -0.0510  0.8461
  389MOL0     H52448  10.287  10.983   5.716  1.0583  0.7849  1.9577
  389MOL0     H52449  10.113  10.819   5.684 -0.3674  1.5206 -1.1464
  389MOL0     H52450   9.788  10.636   5.775 -1.0746  1.6347 -2.5683
  389MOL0     H52451   9.879  10.741   5.672 -2.9106 -2.0260 -1.3705
  389MOL0     H52452   9.943  10.487   5.690  0.5018  1.3800 -2.4923
  389MOL0     H52453  10.084  10.597   5.733 -0.6883  0.0125 -1.0021
  389MOL0     H52454   9.872  10.509   5.943 -0.8506  1.1863  0.4061
  389MOL0     H52455   9.980  10.378   5.880  0.4630  1.2255 -0.2510
  389MOL0     H52456  10.164  10.476   5.988 -0.9249 -0.6791  0.6600
  389MOL0     H52457  10.073  10.638   6.006 -2.0964 -0.1938 -3.0386
  389MOL0     H52458   9.934  10.549   6.183 -0.3256 -0.7349  1.6812
  389MOL0     H52459   9.980  10.385   6.141 -0.7646  0.3380  1.9856
  389MOL0     H52460  10.103  10.437   6.331  3.3869 -1.1691  0.0495
  389MOL0     H52461  10.223  10.475   6.215  0.3392  0.8731  0.8701
  389MOL0     H52462  10.102  10.711   6.219  0.1823  0.2181  0.2724
  389MOL0     H52463  10.038  10.664   6.365  0.7962  3.9071 -0.4135
  389MOL0     H52464  10.217  10.793   6.425  1.2254  0.1210  0.3627
  389MOL0     H52465  10.332  10.703   6.331  0.1513  0.9272  0.0238
  389MOL0     H52466  10.131  10.680   6.660 -0.0687 -0.2066  0.4772
  389MOL0     H52467  10.138  10.528   6.881 -0.2200 -0.5137 -0.1846
  389MOL0     H52468  10.153  10.368   6.827 -3.5600  1.6528  2.0916
  389MOL0     H52469  10.362  10.517   6.982  1.3693 -1.5703  2.9000
  389MOL0     H52470  10.402  10.382   6.882  0.3405 -1.2431  1.3779
  389MOL0     H52471  10.234  10.229   6.991 -1.0568  1.7202 -1.6050
  389MOL0     H52472  10.166  10.367   7.087 -0.4364  1.4356 -2.0818
  389MOL0     H52473  10.454  10.305   7.099  0.5600  1.9528  0.3835
  389MOL0     H52474  10.350  10.180   7.178  3.5609 -0.4725 -1.9177
  389MOL0     H52475  10.393  10.166   7.398  0.8962  0.6050 -1.0083
  389MOL0     H52476  10.573  10.118   7.713  0.4679  0.8516 -1.8654
  389MOL0     H52477  10.391  10.129   7.727 -0.0980 -1.6067 -0.0050
  389MOL0     H52478  10.475  10.049   7.591  1.3882  1.8279 -2.6900
  389MOL0     H52479  10.682  10.285   8.010 -0.9394  0.2470 -1.4331
  389MOL0     H52480  10.854  10.332   8.186  1.4060  1.8214  0.5921
  389MOL0     H52481  10.980  10.570   8.316 -0.5394 -0.0261 -1.2069
  389MOL0     H52482  10.993  10.381   8.326  0.6825 -0.4556 -0.9992
  389MOL0     H52483  11.105  10.469   8.492  0.5744 -0.9790  0.6637
  389MOL0     H52484  11.228  10.409   8.374  0.5575  0.4743 -3.1326
  389MOL0     H52485  11.173  10.700   8.431  0.4351  0.0626  1.1350
  389MOL0     H52486  11.265  10.638   8.284  0.2852 -0.7351  0.2881
  389MOL0     H52487  11.351  10.556   8.570 -0.4079  0.5402  0.3626
  389MOL0     H52488  11.442  10.559   8.428 -0.8387 -0.8700 -0.3103
  389MOL0     H52489  11.341  10.805   8.576 -0.5374 -1.4781 -0.4769
  389MOL0     H52490  11.418  10.813   8.409  1.8159 -0.4597 -0.3666
  389MOL0     H52491  11.552  10.728   8.675  1.5172  1.3115  1.2763
  389MOL0     H52492  11.625  10.710   8.511 -1.1706  0.2785 -0.9786
  389MOL0     H52493  11.514  10.950   8.651 -0.0146  0.2732 -0.1875
  389MOL0     H52494  11.582  10.943   8.480  1.7415 -3.4255 -1.0013
  389MOL0     H52495  11.720  10.965   8.754 -2.2478 -0.4601 -0.0166
  389MOL0     H52496  11.748  11.052   8.611  0.3961 -0.9206 -3.2490
  389MOL0     H52497  11.081  10.588   7.946 -1.0033  0.7116  1.9084
  389MOL0     H52498  10.908  10.531   7.745 -2.1648 -1.5564  0.2771
  389MOL0     H52499  10.547  10.592   7.586  0.9756 -1.5900  0.4569
  389MOL0     H52500  10.463  10.584   7.361 -0.5330 -0.4002 -0.9805
  389MOL0     H52501   9.897  10.954   6.026 -0.3502 -0.9150  0.5677
  389MOL0     H52502  10.051  11.153   6.033 -0.2803  0.8320 -0.7179
  389MOL0     H52503  10.408  11.356   5.773 -2.2088  0.8420  0.2366
  389MOL0     H52504  10.543  11.567   5.755 -2.7715 -0.7631 -1.8219
  389MOL0     H52505  10.809  11.637   6.005 -2.9286  1.0866  3.1322
  389MOL0     H52506  10.766  11.640   5.828 -0.6580  0.1922 -1.3287
  389MOL0     H52507  10.806  11.881   5.827  0.3976  3.8391  3.5784
  389MOL0     H52508  10.950  11.810   5.895  0.2612  3.2397 -0.7703
  389MOL0     H52509  10.944  11.916   6.087  1.2726 -0.5691 -2.3693
  389MOL0     H52510  10.770  11.876   6.117  2.7530 -0.6795  2.9583
  389MOL0     H52511  10.762  12.103   6.098 -0.7360 -2.1810  1.0320
  389MOL0     H52512  10.734  12.066   5.927 -2.0005 -1.4199  1.7248
  389MOL0     H52513  11.115  12.239   5.917 -0.0150  0.4426 -2.0959
  389MOL0     H52514  10.529  11.588   6.199  1.3946  1.1176 -0.6745
  389MOL0     H52515  10.412  11.380   6.194 -0.8822  0.0254  0.9437
  390MOL0     O52516   5.321   5.044   5.206 -0.5038  0.1061 -0.2238
  390MOL0     C52517   5.267   4.936   5.175 -0.5813  0.3375  0.5110
  390MOL0     O52518   5.129   4.911   5.166  0.5622  0.0357  0.0603
  390MOL0     C52519   5.036   4.999   5.214 -0.6495 -0.6540 -0.6350
  390MOL0     C52520   4.921   5.010   5.139 -0.2424  1.2019 -0.3186
  390MOL0     C52521   4.809   5.074   5.193 -0.3476 -0.8062  0.0616
  390MOL0     C52522   4.801   5.111   5.323 -0.6600  0.8715 -0.6283
  390MOL0     O52523   4.678   5.152   5.372 -0.0226  0.1074 -0.2393
  390MOL0     C52524   4.675   5.275   5.454 -0.0948  0.1194 -0.5681
  390MOL0     C52525   4.679   5.400   5.368  0.3516  0.1773  0.4159
  390MOL0     C52526   4.596   5.386   5.237 -0.0917 -1.0504 -1.1594
  390MOL0     C52527   4.619   5.499   5.148  0.6603 -0.1161  0.5599
  390MOL0     C52528   4.540   5.483   5.012  0.0774  1.2031  0.0775
  390MOL0     C52529   4.578   5.595   4.922 -0.3092 -0.0576  0.3875
  390MOL0     C52530   4.708   5.574   4.842  0.2181  0.3790  0.2540
  390MOL0     C52531   4.748   5.701   4.769  1.0577  0.3139  0.4878
  390MOL0     N52532   4.858   5.672   4.680 -0.9034 -0.5769 -0.0145
  390MOL0     C52533   4.991   5.641   4.708  1.2739 -0.1007 -0.2617
  390MOL0     C52534   5.056   5.653   4.593 -0.5139 -0.3562  0.6006
  390MOL0     C52535   5.199   5.594   4.587 -0.0787 -0.3299 -1.2951
  390MOL0     C52536   5.303   5.710   4.624  0.6288  1.0185  0.1990
  390MOL0     C52537   5.453   5.677   4.606 -0.0664 -0.8647  0.6616
  390MOL0     C52538   5.496   5.564   4.696 -0.8927 -0.1881 -0.2534
  390MOL0     O52539   5.444   5.578   4.833 -0.0798 -0.6162 -0.5965
  390MOL0     C52540   5.505   5.495   4.925  1.1699  0.4046  0.5321
  390MOL0     C52541   5.555   5.542   5.051 -0.5535 -0.1443  0.0080
  390MOL0     C52542   5.622   5.450   5.136  0.2117  0.7802  0.2106
  390MOL0     C52543   5.694   5.507   5.259  0.4784  0.2190  0.0204
  390MOL0     C52544   5.641   5.317   5.094 -1.0298 -0.2475 -0.3212
  390MOL0     C52545   5.715   5.219   5.171  0.6232  0.3252 -0.1095
  390MOL0     O52546   5.728   5.103   5.111  0.5902 -0.0657 -0.9283
  390MOL0     C52547   5.836   5.025   5.149  0.3641 -0.1311  0.6739
  390MOL0     C52548   5.838   4.944   5.261  0.5814 -0.5584 -0.7497
  390MOL0     C52549   5.954   4.881   5.290 -0.0901 -0.1500 -0.0902
  390MOL0     C52550   6.061   4.871   5.195 -1.4237 -0.6206 -0.3223
  390MOL0     O52551   6.181   4.808   5.201 -0.0052  0.5249  0.1734
  390MOL0     C52552   6.191   4.712   5.309 -0.5185 -0.0879  0.2236
  390MOL0     C52553   6.290   4.595   5.289 -0.0828  0.1109  0.1871
  390MOL0     C52554   6.263   4.509   5.158  0.3220  0.8456 -1.0113
  390MOL0     C52555   6.383   4.404   5.137  0.5356  0.5362  0.4644
  390MOL0     C52556   6.406   4.383   4.992 -0.0167 -0.6342 -0.1461
  390MOL0     C52557   6.551   4.343   4.959  0.8470 -1.1042  0.3927
  390MOL0     C52558   6.580   4.318   4.805 -0.1606  0.0965  0.1073
  390MOL0     C52559   6.672   4.420   4.742  0.2266 -0.1845 -1.0651
  390MOL0    Cl52560   6.610   4.585   4.772 -0.1709 -0.1305  0.4946
  390MOL0     C52561   6.051   4.945   5.086  0.1630  0.8091  0.8644
  390MOL0     C52562   5.936   5.017   5.060  0.1511 -0.1987 -0.3774
  390MOL0     O52563   5.736   5.237   5.290 -0.4025  0.0500  0.0279
  390MOL0     C52564   5.577   5.274   4.971 -0.3816  0.3663  1.1187
  390MOL0     C52565   5.501   5.362   4.897  1.4564  1.0621 -0.2668
  390MOL0     N52566   4.972   5.700   4.488 -0.7478  1.3075 -0.2562
  390MOL0     N52567   4.856   5.697   4.544  0.6228 -0.0735  1.1806
  390MOL0     C52568   4.924   5.103   5.401  0.5037  0.3663 -0.4698
  390MOL0     C52569   5.045   5.055   5.346  0.2036  0.0050  0.4218
  390MOL0     C52570   5.368   4.830   5.139  0.3130 -0.5024  0.2409
  390MOL0     C52571   5.500   4.864   5.124 -0.2718  0.7055 -0.0813
  390MOL0     C52572   5.588   4.761   5.078 -0.1548 -0.3296  0.4518
  390MOL0     C52573   5.536   4.635   5.052 -0.5011  0.5173  0.2435
  390MOL0     O52574   5.620   4.530   5.020  0.0016  0.2772 -0.1472
  390MOL0     C52575   5.601   4.389   5.077  0.3665 -0.0695  0.3005
  390MOL0     C52576   5.718   4.305   5.024  0.3286 -0.1023  0.1585
  390MOL0     C52577   5.856   4.321   5.097 -0.0126  0.0239 -0.2695
  390MOL0     C52578   5.864   4.234   5.225  0.2039  0.7089  0.4382
  390MOL0     C52579   5.994   4.264   5.294 -1.0359 -0.8057 -0.2954
  390MOL0     C52580   6.094   4.279   5.353 -0.6153 -0.8910  0.2636
  390MOL0     C52581   5.395   4.609   5.065 -0.1119 -0.5760 -0.4144
  390MOL0     C52582   5.314   4.713   5.115  0.3212  1.3582  0.4371
  390MOL0     H52583   4.917   4.966   5.040 -0.4104  0.0513  0.1909
  390MOL0     H52584   4.716   5.062   5.139 -0.5718 -2.9370  0.8096
  390MOL0     H52585   4.587   5.273   5.518  0.3331  0.8653  0.0680
  390MOL0     H52586   4.762   5.282   5.520  0.4631 -0.4763 -1.2206
  390MOL0     H52587   4.651   5.495   5.415 -1.6183  0.6858 -1.6221
  390MOL0     H52588   4.785   5.415   5.348  0.5151  0.9485  1.7244
  390MOL0     H52589   4.627   5.293   5.189 -0.5916 -2.3586  0.9047
  390MOL0     H52590   4.490   5.378   5.262  0.1936  2.7367  2.5201
  390MOL0     H52591   4.578   5.588   5.198  0.3936  0.7279 -1.0751
  390MOL0     H52592   4.723   5.526   5.131  0.4017  1.5293  1.3852
  390MOL0     H52593   4.587   5.394   4.970  0.5633  0.8881  1.2583
  390MOL0     H52594   4.435   5.467   5.036  0.4144  0.8070  1.3896
  390MOL0     H52595   4.502   5.607   4.844 -1.0300 -0.4528  1.0190
  390MOL0     H52596   4.578   5.689   4.978 -1.3207  2.6345 -3.6801
  390MOL0     H52597   4.786   5.558   4.917 -0.7477  0.0773  1.2128
  390MOL0     H52598   4.700   5.500   4.762 -2.1154 -1.5036  2.0645
  390MOL0     H52599   4.773   5.781   4.838 -1.6142  2.3037 -0.6753
  390MOL0     H52600   4.670   5.737   4.701 -2.2047 -0.6328  3.4985
  390MOL0     H52601   5.027   5.594   4.799  0.7281 -4.1111 -1.9071
  390MOL0     H52602   5.206   5.516   4.663  0.0352 -1.1023 -2.0761
  390MOL0     H52603   5.232   5.538   4.499  0.2777 -0.8528 -0.8311
  390MOL0     H52604   5.283   5.734   4.729  1.2146 -2.0508  1.1158
  390MOL0     H52605   5.279   5.791   4.554 -0.3792 -0.7729 -1.6433
  390MOL0     H52606   5.519   5.758   4.638 -0.4517  0.1921 -1.1138
  390MOL0     H52607   5.481   5.650   4.504 -0.1455  1.5170 -0.0503
  390MOL0     H52608   5.604   5.554   4.707 -0.9472  0.5229  1.2108
  390MOL0     H52609   5.456   5.473   4.650  1.0376 -0.1475 -2.1553
  390MOL0     H52610   5.552   5.650   5.062  0.1586  0.4597 -4.2426
  390MOL0     H52611   5.698   5.615   5.245  1.7983 -0.0702 -2.3280
  390MOL0     H52612   5.631   5.492   5.347 -0.9277 -0.9196 -1.1220
  390MOL0     H52613   5.798   5.483   5.283 -0.1279  0.7705  3.7822
  390MOL0     H52614   5.755   4.938   5.330  1.0573 -0.3882 -0.1439
  390MOL0     H52615   5.949   4.821   5.381  0.9818 -0.1611 -0.0266
  390MOL0     H52616   6.228   4.756   5.402 -1.1253  0.7565  0.0769
  390MOL0     H52617   6.093   4.665   5.320 -2.2856  1.8579 -4.5126
  390MOL0     H52618   6.388   4.641   5.278  1.3168 -3.0020 -1.6674
  390MOL0     H52619   6.279   4.536   5.381 -4.1049 -1.2116 -0.9042
  390MOL0     H52620   6.252   4.567   5.066 -3.6374  0.7808 -0.7686
  390MOL0     H52621   6.173   4.447   5.157  1.8692 -1.8583  2.6762
  390MOL0     H52622   6.469   4.452   5.184  0.0921  0.9939  0.8174
  390MOL0     H52623   6.348   4.317   5.193 -0.9444  2.3131  2.4743
  390MOL0     H52624   6.371   4.466   4.930  1.1502 -1.4418 -1.9657
  390MOL0     H52625   6.353   4.293   4.959 -2.9971  0.5769  1.0192
  390MOL0     H52626   6.607   4.434   4.982 -3.1618  1.4973  0.8263
  390MOL0     H52627   6.582   4.251   5.009 -0.8450 -2.4491 -0.9371
  390MOL0     H52628   6.492   4.305   4.742 -0.6397 -2.6825  1.2123
  390MOL0     H52629   6.642   4.228   4.794  1.8383  1.3328  0.6261
  390MOL0     H52630   6.672   4.393   4.637  1.0791  0.3772 -1.2271
  390MOL0     H52631   6.773   4.409   4.784  0.5211  0.7055 -1.5136
  390MOL0     H52632   6.133   4.948   5.016 -1.3404  1.4812 -0.9611
  390MOL0     H52633   5.927   5.081   4.973 -3.3378  0.1191  0.1034
  390MOL0     H52634   5.589   5.177   4.924 -1.6818  1.1788 -0.9730
  390MOL0     H52635   5.450   5.322   4.810 -2.7890 -1.6286  3.0517
  390MOL0     H52636   4.918   5.122   5.507 -3.2013  1.8267 -0.7910
  390MOL0     H52637   5.137   5.032   5.400  1.5259 -0.2240 -1.7939
  390MOL0     H52638   5.544   4.959   5.151 -1.9375  1.3932  0.3196
  390MOL0     H52639   5.696   4.769   5.087  0.0372 -0.7090 -1.2938
  390MOL0     H52640   5.601   4.401   5.185 -0.9304  0.7225  0.2455
  390MOL0     H52641   5.503   4.342   5.060  0.7418 -0.6713 -0.2364
  390MOL0     H52642   5.737   4.328   4.919  0.1823  3.1536  0.7398
  390MOL0     H52643   5.693   4.198   5.029 -0.3998  0.0343 -0.4683
  390MOL0     H52644   5.867   4.426   5.127  0.4241 -0.6461  2.1084
  390MOL0     H52645   5.946   4.305   5.036 -0.3699 -0.5671 -0.6511
  390MOL0     H52646   5.848   4.127   5.205 -1.9130  1.5077 -3.1217
  390MOL0     H52647   5.776   4.263   5.283  1.6220  3.7984  1.2791
  390MOL0     H52648   6.192   4.291   5.393 -0.0400  1.7751 -1.6954
  390MOL0     H52649   5.345   4.513   5.052  0.6928 -1.1532  0.6394
  390MOL0     H52650   5.207   4.694   5.120  0.4534  0.5426  0.3280
  391MOL0     O52651   6.927   5.230   5.160 -0.0359  0.0368 -0.9694
  391MOL0     C52652   6.955   5.352   5.148 -0.5797  0.1387 -0.6159
  391MOL0     O52653   6.940   5.447   5.243 -0.4809  0.8747 -0.0866
  391MOL0     C52654   6.907   5.403   5.366  0.1646 -1.0818  0.1643
  391MOL0     C52655   6.995   5.439   5.466 -0.4162  1.2921 -0.4383
  391MOL0     C52656   6.966   5.401   5.597  0.0732  1.3261  0.5612
  391MOL0     C52657   6.837   5.339   5.621  0.4318  0.0373 -0.5586
  391MOL0     O52658   6.797   5.287   5.739 -0.3437 -0.1344 -0.8286
  391MOL0     C52659   6.898   5.235   5.823 -0.2563 -0.2887 -0.4278
  391MOL0     C52660   6.827   5.129   5.908  0.7334 -0.2784 -0.8365
  391MOL0     C52661   6.913   5.089   6.036 -0.6513  1.2424  0.9713
  391MOL0     C52662   6.824   4.999   6.126 -0.1145  0.5408 -0.3919
  391MOL0     C52663   6.892   4.976   6.257  0.1380  0.4446  0.7280
  391MOL0     C52664   7.033   4.914   6.247 -0.3311  0.0976 -0.1994
  391MOL0     C52665   7.070   4.895   6.401 -0.0887 -0.0011  0.7726
  391MOL0     C52666   7.082   5.026   6.488 -0.6811 -0.1180 -0.3925
  391MOL0     N52667   7.159   5.006   6.609 -0.0639  0.6575 -0.1515
  391MOL0     C52668   7.107   4.961   6.722  0.0722  1.1718 -0.9685
  391MOL0     C52669   7.210   4.964   6.810 -0.2805 -0.8765 -0.9837
  391MOL0     C52670   7.221   4.936   6.961  0.5471  1.6858  0.3853
  391MOL0     C52671   7.322   4.813   6.975  0.0697 -0.7853 -0.6600
  391MOL0     C52672   7.382   4.812   7.115 -0.0686 -0.7678 -0.0039
  391MOL0     C52673   7.477   4.939   7.133  0.0157 -0.5620  0.2948
  391MOL0     O52674   7.545   4.921   7.263  0.0189  0.4112 -0.2834
  391MOL0     C52675   7.630   5.012   7.299 -1.0336 -0.2552  0.3460
  391MOL0     C52676   7.657   5.127   7.222  0.5932 -0.1566 -0.5666
  391MOL0     C52677   7.751   5.225   7.264 -0.4423 -0.4124  0.4066
  391MOL0     C52678   7.764   5.349   7.179  0.0536 -0.1830 -1.4309
  391MOL0     C52679   7.834   5.208   7.379 -0.1548 -0.6914  0.0458
  391MOL0     C52680   7.942   5.310   7.432  0.1129  0.2939  0.3602
  391MOL0     O52681   7.966   5.422   7.375  0.2711 -0.4222 -0.2333
  391MOL0     C52682   8.056   5.505   7.415 -0.0228 -0.3621  0.1719
  391MOL0     C52683   8.184   5.479   7.476  0.0759  0.8170  0.7593
  391MOL0     C52684   8.276   5.580   7.507 -0.2040  0.7964 -0.6655
  391MOL0     C52685   8.241   5.709   7.490  0.2360  0.2437  0.2089
  391MOL0     O52686   8.328   5.816   7.519 -0.0033  0.7938  0.5644
  391MOL0     C52687   8.466   5.780   7.536 -0.0237  1.0008 -0.1426
  391MOL0     C52688   8.500   5.777   7.686 -0.8675  0.3268  0.2133
  391MOL0     C52689   8.542   5.917   7.739  0.3606  0.3055  0.6894
  391MOL0     C52690   8.538   5.918   7.891  0.0098  0.0408 -0.4261
  391MOL0     C52691   8.586   6.046   7.943 -0.0750 -0.6362 -0.9391
  391MOL0     C52692   8.573   6.058   8.101 -0.2582 -0.3181  0.6019
  391MOL0     C52693   8.620   6.196   8.150 -0.4321  0.7256  0.3199
  391MOL0     C52694   8.634   6.205   8.304  0.3808 -0.3269 -0.8794
  391MOL0    Cl52695   8.471   6.183   8.376 -0.4357 -0.4142 -0.4158
  391MOL0     C52696   8.111   5.744   7.432 -0.2715 -0.0414 -0.2242
  391MOL0     C52697   8.032   5.644   7.393 -0.8512  0.5065  0.2904
  391MOL0     O52698   8.004   5.266   7.525 -0.4003  0.2709  0.6899
  391MOL0     C52699   7.799   5.094   7.453 -0.2830  0.2013 -0.1727
  391MOL0     C52700   7.705   4.997   7.415 -0.0401 -0.3875  0.8014
  391MOL0     N52701   7.322   5.022   6.741 -0.4653 -0.7785  0.3137
  391MOL0     N52702   7.282   5.052   6.623 -0.1771  0.6318 -0.1429
  391MOL0     C52703   6.743   5.313   5.520  0.5485 -0.7724  0.1271
  391MOL0     C52704   6.776   5.349   5.390  0.2733  0.1617 -0.3226
  391MOL0     C52705   6.988   5.415   5.019  0.6946 -0.5018  0.7269
  391MOL0     C52706   7.066   5.528   5.010 -0.6212  1.4075  0.6988
  391MOL0     C52707   7.121   5.578   4.890 -0.4588  0.0466 -0.3280
  391MOL0     C52708   7.087   5.503   4.778  0.1148  1.5019 -0.6764
  391MOL0     O52709   7.136   5.535   4.656 -1.1890 -0.4573 -0.2822
  391MOL0     C52710   7.042   5.620   4.593  0.6863 -0.1069 -0.2978
  391MOL0     C52711   7.068   5.640   4.447  0.2801 -0.6664 -0.4753
  391MOL0     C52712   6.936   5.676   4.356  0.0083 -0.0338 -0.0293
  391MOL0     C52713   6.996   5.718   4.221 -0.9947  0.9730  0.5145
  391MOL0     C52714   6.890   5.787   4.139  0.5495  0.7766  0.4601
  391MOL0     C52715   6.783   5.823   4.099  0.1345  0.3294  0.3872
  391MOL0     C52716   7.019   5.387   4.781 -0.5597  0.5056  0.0955
  391MOL0     C52717   6.969   5.340   4.899  0.2825  0.0567 -0.4004
  391MOL0     H52718   7.094   5.480   5.451  0.1989 -0.6016 -1.9284
  391MOL0     H52719   7.034   5.418   5.680 -0.7018 -0.6278  1.6602
  391MOL0     H52720   6.978   5.189   5.764 -0.0405 -0.5554  0.0660
  391MOL0     H52721   6.933   5.314   5.890  0.1546 -3.6456  3.6893
  391MOL0     H52722   6.723   5.147   5.936  0.9206 -1.3986  0.7248
  391MOL0     H52723   6.811   5.035   5.855 -2.7264 -0.6045  0.5551
  391MOL0     H52724   7.005   5.041   6.001 -1.6287  0.3207 -0.4291
  391MOL0     H52725   6.924   5.183   6.092 -0.9089  1.6961  0.2677
  391MOL0     H52726   6.727   5.049   6.137  0.2744  1.5390 -1.3908
  391MOL0     H52727   6.801   4.900   6.084 -0.9128 -1.7630  4.6981
  391MOL0     H52728   6.898   5.075   6.303 -1.5095  0.8823  0.0431
  391MOL0     H52729   6.822   4.919   6.318 -1.0423  3.0833  1.9886
  391MOL0     H52730   7.022   4.820   6.193  3.5932  0.6485 -2.3427
  391MOL0     H52731   7.113   4.968   6.196 -0.9498 -1.0681 -2.5391
  391MOL0     H52732   7.009   4.824   6.458 -0.4824  1.3686  2.1314
  391MOL0     H52733   7.172   4.856   6.395  0.4725  1.4637  0.2966
  391MOL0     H52734   6.981   5.064   6.509 -0.3351  0.2477  0.6677
  391MOL0     H52735   7.132   5.104   6.431  1.6681 -1.4893 -0.3199
  391MOL0     H52736   7.006   4.921   6.733 -0.5187  2.4415 -1.5866
  391MOL0     H52737   7.242   5.029   7.015 -0.5577  0.3795  3.2396
  391MOL0     H52738   7.121   4.903   6.987  0.4744  1.0627 -0.6195
  391MOL0     H52739   7.400   4.813   6.898  1.0598 -2.3536  0.2916
  391MOL0     H52740   7.260   4.723   6.971  0.6597 -1.2187 -0.1794
  391MOL0     H52741   7.451   4.732   7.144  2.8027  1.3936 -0.4039
  391MOL0     H52742   7.300   4.825   7.185  0.5918 -0.7191  0.7733
  391MOL0     H52743   7.416   5.030   7.135  1.5329  0.4830  0.0607
  391MOL0     H52744   7.551   4.936   7.053 -0.4906 -0.6956 -0.1793
  391MOL0     H52745   7.591   5.159   7.143  0.0780  1.5562  0.4904
  391MOL0     H52746   7.710   5.333   7.085 -1.1163 -1.9810 -0.5289
  391MOL0     H52747   7.716   5.431   7.232  0.3701 -0.5565 -0.5524
  391MOL0     H52748   7.868   5.372   7.157  1.0375 -1.6943  1.2299
  391MOL0     H52749   8.221   5.377   7.485 -0.2289  0.8000  1.9317
  391MOL0     H52750   8.371   5.554   7.553 -0.8887 -0.3370  0.1720
  391MOL0     H52751   8.493   5.687   7.486 -0.4713  1.4094 -1.1703
  391MOL0     H52752   8.529   5.855   7.488 -1.0779  2.3325  0.4691
  391MOL0     H52753   8.412   5.736   7.736  0.0767  1.6502  3.2005
  391MOL0     H52754   8.570   5.697   7.711 -3.9922 -2.8060 -0.3507
  391MOL0     H52755   8.482   5.999   7.699  1.7121  1.0198  0.0339
  391MOL0     H52756   8.643   5.946   7.707 -0.7503  3.5184 -0.2279
  391MOL0     H52757   8.431   5.914   7.917 -0.3396  1.4734 -1.5156
  391MOL0     H52758   8.594   5.839   7.942  0.3360  0.8320  0.4767
  391MOL0     H52759   8.530   6.128   7.899  0.6768  0.2540 -0.2838
  391MOL0     H52760   8.694   6.056   7.928 -0.5739  3.5854 -3.3324
  391MOL0     H52761   8.472   6.031   8.132  1.0036 -3.9727  2.0456
  391MOL0     H52762   8.622   5.979   8.157 -2.4656 -0.3299  2.6883
  391MOL0     H52763   8.571   6.281   8.102  1.8470  2.2216  0.4791
  391MOL0     H52764   8.718   6.218   8.106 -0.8964  2.5832  0.1363
  391MOL0     H52765   8.672   6.306   8.323  0.2358 -0.4386  0.0469
  391MOL0     H52766   8.706   6.136   8.350 -0.5384  0.2159  1.5216
  391MOL0     H52767   8.061   5.840   7.435  1.6817  1.0085  1.5030
  391MOL0     H52768   7.933   5.661   7.351 -0.1279  0.1164 -1.7189
  391MOL0     H52769   7.859   5.082   7.543  2.8094  1.0326 -1.9648
  391MOL0     H52770   7.675   4.909   7.472 -0.9746 -0.8007 -0.2695
  391MOL0     H52771   6.642   5.281   5.543 -0.3065  1.6700  0.0709
  391MOL0     H52772   6.710   5.325   5.307 -0.3245 -0.4026  0.3109
  391MOL0     H52773   7.104   5.582   5.096  2.7770 -2.0145  1.6177
  391MOL0     H52774   7.194   5.658   4.891 -0.5372  0.1103  0.1083
  391MOL0     H52775   6.939   5.589   4.609  0.7408  0.8903  2.6621
  391MOL0     H52776   7.041   5.718   4.641  1.3057 -0.0140 -0.4616
  391MOL0     H52777   7.117   5.548   4.414  1.0449 -0.5950  0.4272
  391MOL0     H52778   7.142   5.720   4.435  0.0829 -0.4739 -0.4133
  391MOL0     H52779   6.875   5.754   4.400  0.5439 -0.3784  1.3845
  391MOL0     H52780   6.873   5.587   4.346 -0.7530  0.6547 -2.0228
  391MOL0     H52781   7.018   5.624   4.169 -1.7670  0.0270  1.8388
  391MOL0     H52782   7.081   5.787   4.229  0.4869 -0.5062 -1.4233
  391MOL0     H52783   6.689   5.839   4.051 -1.1949 -1.7240  2.1381
  391MOL0     H52784   6.998   5.331   4.691 -0.1320 -1.2117  1.0060
  391MOL0     H52785   6.914   5.246   4.899  0.0803  0.1603  0.3936
  392MOL0     O52786   8.734   2.955   3.482  0.3973 -0.6981 -0.3338
  392MOL0     C52787   8.776   2.921   3.596 -0.9800  0.0902  0.1332
  392MOL0     O52788   8.890   2.845   3.624 -0.0826  0.7393 -0.2874
  392MOL0     C52789   8.983   2.795   3.531  0.7844  0.1103 -0.0574
  392MOL0     C52790   9.111   2.782   3.579 -1.0700  0.9119  0.1501
  392MOL0     C52791   9.218   2.732   3.498  1.6600 -0.4420 -1.4780
  392MOL0     C52792   9.185   2.693   3.369 -0.5285 -0.4838  0.2818
  392MOL0     O52793   9.299   2.657   3.311 -0.6699 -0.2560 -0.5245
  392MOL0     C52794   9.308   2.579   3.191 -0.5573 -0.3122 -0.4889
  392MOL0     C52795   9.452   2.529   3.159  0.1223  0.3075 -0.5167
  392MOL0     C52796   9.494   2.428   3.267  0.0738  0.1788 -0.5396
  392MOL0     C52797   9.638   2.391   3.243  0.1880  0.6273 -0.0501
  392MOL0     C52798   9.712   2.308   3.347 -0.3264  0.0862 -0.8480
  392MOL0     C52799   9.854   2.304   3.313 -0.3767 -0.2403  0.2442
  392MOL0     C52800   9.932   2.256   3.436 -0.8665 -0.2550  0.5544
  392MOL0     C52801  10.046   2.168   3.400  0.4612  0.0344  0.2578
  392MOL0     N52802  10.150   2.228   3.327 -0.7924 -0.3210  0.2313
  392MOL0     C52803  10.266   2.275   3.377  0.2863 -0.7271  0.7636
  392MOL0     C52804  10.326   2.340   3.273 -0.2065  1.0171 -0.2167
  392MOL0     C52805  10.472   2.398   3.290 -0.0929 -0.3351 -0.0054
  392MOL0     C52806  10.520   2.469   3.162 -0.8233 -0.1662 -0.4210
  392MOL0     C52807  10.667   2.494   3.177  1.3273 -0.9609 -0.1262
  392MOL0     C52808  10.699   2.572   3.052  0.7024 -0.2152  1.4999
  392MOL0     O52809  10.838   2.608   3.038  0.2699  0.0846  0.4654
  392MOL0     C52810  10.883   2.707   2.951 -0.2453 -0.3253 -0.1217
  392MOL0     C52811  10.804   2.771   2.852 -0.7336  0.0685  0.1483
  392MOL0     C52812  10.857   2.868   2.759 -0.0428  0.1498  0.1768
  392MOL0     C52813  10.768   2.940   2.665  0.8142  0.0411  0.3857
  392MOL0     C52814  10.993   2.903   2.774 -0.0206  0.1764  0.0338
  392MOL0     C52815  11.064   3.018   2.694 -0.4587  0.2236 -0.0153
  392MOL0     O52816  11.175   2.984   2.629 -0.6843  0.5421 -1.1832
  392MOL0     C52817  11.165   3.009   2.493 -0.1226 -0.2417 -0.5315
  392MOL0     C52818  11.240   3.107   2.433  0.1468  0.0255  0.1638
  392MOL0     C52819  11.227   3.124   2.295 -0.1547  0.1020  0.7314
  392MOL0     C52820  11.132   3.043   2.220 -0.1535 -0.7170  0.3269
  392MOL0     O52821  11.099   3.074   2.080  0.3868  0.7324  0.5737
  392MOL0     C52822  11.010   2.989   1.996  0.1668  0.1502 -0.0600
  392MOL0     C52823  11.026   3.010   1.843  0.9818  1.0807  0.1357
  392MOL0     C52824  11.099   2.882   1.786  0.5516 -1.0876 -0.0555
  392MOL0     C52825  11.133   2.886   1.632 -0.4259  0.1327  0.5958
  392MOL0     C52826  11.194   2.747   1.594 -0.0186 -0.0755 -1.1005
  392MOL0     C52827  11.192   2.701   1.448 -0.0268  0.6388  0.4263
  392MOL0     C52828  11.224   2.807   1.346 -0.7374  0.3324  0.3156
  392MOL0     C52829  11.214   2.739   1.214 -0.1574 -1.4258  0.2857
  392MOL0    Cl52830  11.036   2.698   1.183  0.1380  0.1670 -0.0038
  392MOL0     C52831  11.069   2.938   2.286 -0.1201 -0.4120 -0.3399
  392MOL0     C52832  11.076   2.931   2.421  0.0166 -0.3254 -0.5434
  392MOL0     O52833  11.014   3.135   2.691  1.0520  0.1700  0.5144
  392MOL0     C52834  11.073   2.834   2.871 -0.4249  0.1159  0.0010
  392MOL0     C52835  11.017   2.743   2.955  0.3774 -0.4617 -1.0613
  392MOL0     N52836  10.243   2.328   3.159  0.3071 -0.5367  0.4340
  392MOL0     N52837  10.122   2.273   3.196  0.1475 -0.5475 -0.6042
  392MOL0     C52838   9.066   2.708   3.314  0.4229  0.1170  1.1819
  392MOL0     C52839   8.959   2.754   3.399  0.7527 -0.2815  0.3411
  392MOL0     C52840   8.717   2.997   3.707  0.1175 -0.5731 -0.5763
  392MOL0     C52841   8.614   3.091   3.689  0.0224  0.1312  0.2177
  392MOL0     C52842   8.562   3.159   3.808 -0.1997 -0.2967 -0.1939
  392MOL0     C52843   8.628   3.141   3.932 -0.1047  0.6514  0.2056
  392MOL0     O52844   8.585   3.192   4.052  0.4211  0.2346 -0.9104
  392MOL0     C52845   8.459   3.274   4.056 -0.5468 -0.7825  1.1767
  392MOL0     C52846   8.457   3.346   4.187 -0.0615 -0.3457 -0.1737
  392MOL0     C52847   8.328   3.436   4.194 -0.5480 -0.1447  0.9571
  392MOL0     C52848   8.297   3.469   4.342  0.2212  0.2722  0.3540
  392MOL0     C52849   8.172   3.544   4.340 -0.1626  0.4075  0.2705
  392MOL0     C52850   8.064   3.606   4.358  0.4946  0.4735  0.5573
  392MOL0     C52851   8.734   3.050   3.943 -0.1175 -0.7380  0.6442
  392MOL0     C52852   8.772   2.975   3.834  0.3921 -0.7373 -0.6488
  392MOL0     H52853   9.145   2.816   3.676  1.7843  1.1280 -0.8146
  392MOL0     H52854   9.319   2.742   3.536  1.0633  1.9247 -0.3104
  392MOL0     H52855   9.235   2.498   3.196 -1.5654  0.6134  3.0559
  392MOL0     H52856   9.280   2.647   3.111  1.5837  2.1633  0.7247
  392MOL0     H52857   9.451   2.483   3.060 -2.3056 -2.5582  0.6733
  392MOL0     H52858   9.527   2.605   3.137  0.5766 -0.6937 -2.7204
  392MOL0     H52859   9.493   2.470   3.368  2.6914  0.6923 -0.6575
  392MOL0     H52860   9.436   2.335   3.259  1.6415 -0.7160 -2.2463
  392MOL0     H52861   9.633   2.330   3.152  1.2410  0.2880  0.1103
  392MOL0     H52862   9.692   2.485   3.230  0.6735  1.2653  4.6847
  392MOL0     H52863   9.694   2.346   3.448  1.4853 -0.6481 -0.1913
  392MOL0     H52864   9.677   2.205   3.342 -0.0204 -0.4154  3.5758
  392MOL0     H52865   9.870   2.232   3.232 -3.6111 -0.5190 -0.2647
  392MOL0     H52866   9.907   2.399   3.296  4.0329 -2.3665  0.7931
  392MOL0     H52867   9.955   2.346   3.495 -2.7814  0.2301  0.6273
  392MOL0     H52868   9.861   2.192   3.488  0.5035 -1.6382  0.7975
  392MOL0     H52869  10.003   2.082   3.346  1.2189  0.5967 -1.2963
  392MOL0     H52870  10.090   2.121   3.489 -1.9537 -1.6789  0.6626
  392MOL0     H52871  10.306   2.274   3.478  2.0016  0.0778  0.1390
  392MOL0     H52872  10.459   2.473   3.369 -1.8644  2.3452 -2.5958
  392MOL0     H52873  10.537   2.312   3.310  1.7888  0.0499 -3.6895
  392MOL0     H52874  10.458   2.557   3.141 -0.4514 -0.3170 -2.3130
  392MOL0     H52875  10.512   2.394   3.083  0.4037  0.0605 -0.7847
  392MOL0     H52876  10.728   2.404   3.183  2.3744 -0.3055 -0.5914
  392MOL0     H52877  10.685   2.559   3.263  0.8626 -2.2500  0.9762
  392MOL0     H52878  10.642   2.664   3.050  0.7093 -0.2211  0.6254
  392MOL0     H52879  10.665   2.513   2.967 -2.1566  1.8618  1.0747
  392MOL0     H52880  10.699   2.747   2.837 -0.2787 -0.3144 -3.3087
  392MOL0     H52881  10.826   2.984   2.584  1.1247 -2.6051 -0.9161
  392MOL0     H52882  10.711   2.861   2.616  1.8933 -0.2361 -0.4426
  392MOL0     H52883  10.711   3.013   2.724 -1.4412 -1.2667 -0.0641
  392MOL0     H52884  11.318   3.157   2.490 -0.5767  1.6981 -0.2434
  392MOL0     H52885  11.282   3.199   2.240 -0.9269  0.8289  0.9375
  392MOL0     H52886  11.027   2.884   2.023  1.2905  0.4215  0.3510
  392MOL0     H52887  10.908   3.015   2.026  0.2400 -0.0236  0.3349
  392MOL0     H52888  10.924   3.001   1.805  1.1472  1.3497 -0.3842
  392MOL0     H52889  11.071   3.107   1.821  0.2528  1.7230  1.3433
  392MOL0     H52890  11.017   2.810   1.794 -1.3675  1.1429  1.9482
  392MOL0     H52891  11.181   2.860   1.855  0.0697  2.0249  1.7494
  392MOL0     H52892  11.039   2.897   1.577 -0.8065  0.0322  1.2181
  392MOL0     H52893  11.208   2.963   1.608  0.5298 -0.3560  1.9137
  392MOL0     H52894  11.144   2.674   1.657  0.2832 -0.6463 -1.5122
  392MOL0     H52895  11.300   2.753   1.620 -0.6737  1.9832  1.4659
  392MOL0     H52896  11.264   2.619   1.442 -2.7705 -2.0150  1.2891
  392MOL0     H52897  11.090   2.667   1.428  0.4636 -0.0783 -0.9691
  392MOL0     H52898  11.323   2.843   1.374  0.1410 -2.7531  1.5435
  392MOL0     H52899  11.149   2.887   1.352 -1.5225 -0.1040 -2.2147
  392MOL0     H52900  11.271   2.648   1.193  1.3033 -0.0566 -2.3042
  392MOL0     H52901  11.243   2.808   1.134 -3.5654 -0.8790 -0.6212
  392MOL0     H52902  11.010   2.861   2.238 -0.3843 -0.2419 -0.2917
  392MOL0     H52903  11.021   2.852   2.470  0.7787 -1.2677 -1.1811
  392MOL0     H52904  11.174   2.865   2.899 -1.3934 -0.7838  5.7429
  392MOL0     H52905  11.066   2.693   3.038 -1.8248  2.1988  2.1202
  392MOL0     H52906   9.038   2.685   3.211 -0.9745  0.9899  1.3432
  392MOL0     H52907   8.858   2.757   3.359 -0.2867 -2.2983  2.5254
  392MOL0     H52908   8.561   3.101   3.594  2.7785  2.0106 -1.2523
  392MOL0     H52909   8.481   3.229   3.792  0.6897  0.4432 -1.8042
  392MOL0     H52910   8.447   3.333   3.964  3.2558 -0.6404  0.6450
  392MOL0     H52911   8.373   3.206   4.066 -0.9085 -0.7029 -0.9174
  392MOL0     H52912   8.536   3.421   4.190  0.0421 -0.4786  0.5196
  392MOL0     H52913   8.466   3.276   4.271  1.8708  0.0457 -0.0040
  392MOL0     H52914   8.248   3.371   4.156 -0.9639  1.3344 -0.8442
  392MOL0     H52915   8.342   3.525   4.132  3.3192 -0.0839  1.6619
  392MOL0     H52916   8.374   3.536   4.380 -2.2661  3.3675  0.3803
  392MOL0     H52917   8.286   3.376   4.397  0.0525 -1.3780 -2.2880
  392MOL0     H52918   7.978   3.669   4.362  1.6330  2.0397  3.0955
  392MOL0     H52919   8.785   3.022   4.034  1.1996  2.2025  0.8900
  392MOL0     H52920   8.843   2.893   3.842  1.7362  0.2924 -1.3931
  393MOL0     O52921   3.752  10.612   9.793  0.0333 -0.2977 -0.5677
  393MOL0     C52922   3.717  10.510   9.733  0.2516 -0.0454  0.0985
  393MOL0     O52923   3.794  10.413   9.673 -0.4969  0.1606 -0.6159
  393MOL0     C52924   3.928  10.438   9.664  0.4369 -0.4565  0.4780
  393MOL0     C52925   3.976  10.507   9.555 -0.0512  0.9067 -0.2287
  393MOL0     C52926   4.102  10.540   9.534 -0.6338 -0.5420 -0.5490
  393MOL0     C52927   4.197  10.506   9.631  0.3774 -0.1484  0.3259
  393MOL0     O52928   4.337  10.514   9.611  0.5567  0.0579  0.5074
  393MOL0     C52929   4.387  10.546   9.481  0.8239  0.3188 -0.0945
  393MOL0     C52930   4.545  10.562   9.484  0.0724  0.5445  0.6735
  393MOL0     C52931   4.604  10.431   9.537 -0.3899  0.0587 -0.4324
  393MOL0     C52932   4.753  10.436   9.496 -0.3101  0.6116  0.0405
  393MOL0     C52933   4.831  10.321   9.551  0.3478 -0.4120  0.2018
  393MOL0     C52934   4.871  10.352   9.696 -0.8206  0.5559 -0.0596
  393MOL0     C52935   4.874  10.224   9.781  0.5007  0.6390  0.1583
  393MOL0     C52936   4.962  10.109   9.721 -0.3787 -0.8887 -0.2167
  393MOL0     N52937   5.108  10.131   9.726 -0.2131 -0.0882 -0.8145
  393MOL0     C52938   5.177  10.206   9.636 -0.2986 -0.4808  0.6810
  393MOL0     C52939   5.296  10.222   9.689 -1.1542 -0.1177  0.2715
  393MOL0     C52940   5.405  10.316   9.639  0.9188  0.9026 -0.8440
  393MOL0     C52941   5.468  10.253   9.513  0.4819 -0.5565 -0.1067
  393MOL0     C52942   5.461  10.360   9.401  0.3470 -0.5517 -0.0232
  393MOL0     C52943   5.329  10.367   9.333  0.5340 -0.6230  0.1798
  393MOL0     O52944   5.223  10.455   9.391 -0.2147 -0.4474 -0.0379
  393MOL0     C52945   5.111  10.482   9.318 -0.2403  0.5301  0.0633
  393MOL0     C52946   5.040  10.595   9.378 -0.4215  0.2736 -1.4485
  393MOL0     C52947   4.933  10.649   9.305 -0.2220  0.3532 -0.2713
  393MOL0     C52948   4.869  10.773   9.371 -0.4379 -0.3825  0.8280
  393MOL0     C52949   4.885  10.595   9.181 -0.1525  0.1060 -0.5699
  393MOL0     C52950   4.788  10.661   9.091 -0.0370  0.6506  0.4988
  393MOL0     O52951   4.767  10.602   8.965  0.0772 -0.7698 -1.3803
  393MOL0     C52952   4.662  10.649   8.882 -0.9812  0.4926 -0.6165
  393MOL0     C52953   4.551  10.564   8.858  0.9409  0.2292  0.1510
  393MOL0     C52954   4.435  10.619   8.799 -0.0046  0.1958  1.8212
  393MOL0     C52955   4.439  10.759   8.757 -0.5353 -0.3646 -0.7024
  393MOL0     O52956   4.342  10.826   8.707  0.7081 -0.2933  0.2955
  393MOL0     C52957   4.218  10.758   8.668  0.5280  0.0351 -0.1885
  393MOL0     C52958   4.111  10.742   8.771 -0.9793 -0.0684  0.2255
  393MOL0     C52959   4.073  10.891   8.807  0.5964 -0.4767 -0.4772
  393MOL0     C52960   3.983  10.943   8.701 -0.2791 -0.1409  0.3755
  393MOL0     C52961   3.891  11.053   8.756  0.3134  0.4269 -0.4280
  393MOL0     C52962   3.819  11.124   8.653 -0.8936 -0.2049 -0.0840
  393MOL0     C52963   3.738  11.248   8.702  0.2885  0.5986  0.5215
  393MOL0     C52964   3.680  11.341   8.592  0.5212  0.1509  0.8385
  393MOL0    Cl52965   3.571  11.236   8.488  0.1587 -0.7237  0.1235
  393MOL0     C52966   4.552  10.834   8.781 -1.1457  0.1926  0.7385
  393MOL0     C52967   4.662  10.782   8.842 -0.9391 -0.2249  0.4821
  393MOL0     O52968   4.720  10.753   9.139 -0.1072 -0.2000 -0.2992
  393MOL0     C52969   4.946  10.471   9.148  0.0296  0.9718 -0.5050
  393MOL0     C52970   5.062  10.415   9.211  0.2557  0.4761  0.3477
  393MOL0     N52971   5.312  10.141   9.802  0.4491  0.0866 -0.2705
  393MOL0     N52972   5.193  10.088   9.824  0.5002  0.5591  0.5277
  393MOL0     C52973   4.156  10.443   9.752  0.6862 -0.7946 -0.7225
  393MOL0     C52974   4.024  10.400   9.761 -0.1860  0.3200  0.0460
  393MOL0     C52975   3.569  10.476   9.732 -0.0485  0.8844  0.2380
  393MOL0     C52976   3.478  10.542   9.816 -0.5642  0.0296 -0.0098
  393MOL0     C52977   3.344  10.498   9.833  0.0198  1.4874 -0.2734
  393MOL0     C52978   3.310  10.384   9.762  0.3229 -0.2491 -0.3976
  393MOL0     O52979   3.168  10.355   9.770 -0.3217 -0.2485  0.2234
  393MOL0     C52980   3.103  10.309   9.648  0.2499 -0.3364 -0.4979
  393MOL0     C52981   2.957  10.292   9.692 -0.0171  1.0952  0.4939
  393MOL0     C52982   2.860  10.269   9.587  0.3347  1.0501 -0.2589
  393MOL0     C52983   2.728  10.207   9.646  0.1478 -0.7003 -0.1040
  393MOL0     C52984   2.655  10.192   9.521  0.5436  1.4495 -0.0812
  393MOL0     C52985   2.609  10.177   9.400 -0.9061  0.2469 -0.7465
  393MOL0     C52986   3.401  10.308   9.680 -0.0399 -0.4390 -0.1862
  393MOL0     C52987   3.530  10.367   9.661 -0.0174 -0.6510  0.0824
  393MOL0     H52988   3.896  10.540   9.490 -0.7442  0.3333  0.3196
  393MOL0     H52989   4.128  10.593   9.443 -0.2629 -2.3358 -1.5247
  393MOL0     H52990   4.358  10.466   9.412  0.9754  1.8765 -2.0703
  393MOL0     H52991   4.345  10.640   9.443 -1.6907 -0.9152 -0.5749
  393MOL0     H52992   4.581  10.570   9.381  3.0547 -0.4772  1.5169
  393MOL0     H52993   4.583  10.642   9.548  1.7345 -0.3863  0.9329
  393MOL0     H52994   4.587  10.421   9.644 -3.5849 -0.7573 -0.9021
  393MOL0     H52995   4.547  10.354   9.483  1.2540 -0.2712 -1.7726
  393MOL0     H52996   4.758  10.425   9.388 -0.3310 -1.9701  0.2567
  393MOL0     H52997   4.796  10.533   9.524  0.8675 -0.3122  1.5692
  393MOL0     H52998   4.764  10.235   9.557  1.3840 -1.3206 -0.7652
  393MOL0     H52999   4.907  10.281   9.483 -0.3777 -1.5451  0.0374
  393MOL0     H53000   4.969  10.398   9.708  0.1445 -1.7257  1.4768
  393MOL0     H53001   4.800  10.421   9.742 -1.0672 -0.0722  0.5320
  393MOL0     H53002   4.919  10.248   9.878  0.2128  0.8481  0.2434
  393MOL0     H53003   4.773  10.186   9.795 -0.1458  0.1486 -4.4583
  393MOL0     H53004   4.944  10.089   9.615 -1.8071 -0.2338 -0.1191
  393MOL0     H53005   4.939  10.014   9.769 -0.4064 -1.1328 -0.7019
  393MOL0     H53006   5.143  10.233   9.537  0.2517 -5.3448 -1.1396
  393MOL0     H53007   5.352  10.406   9.605  1.6468  1.1003 -1.4800
  393MOL0     H53008   5.478  10.337   9.718 -0.1489  1.3917  0.0347
  393MOL0     H53009   5.423  10.156   9.488 -2.2233  0.7469 -0.6695
  393MOL0     H53010   5.572  10.224   9.529  0.5326 -0.9051 -0.9925
  393MOL0     H53011   5.517  10.339   9.309  1.2171  1.9522 -0.1244
  393MOL0     H53012   5.517  10.446   9.438  1.5696 -0.2108 -2.4491
  393MOL0     H53013   5.285  10.268   9.319 -0.9807 -0.2323  1.8386
  393MOL0     H53014   5.346  10.400   9.230 -0.8425 -1.9001 -0.4853
  393MOL0     H53015   5.085  10.653   9.458  1.1390 -0.8589 -1.4665
  393MOL0     H53016   4.921  10.805   9.461  0.1402 -2.4640  1.2840
  393MOL0     H53017   4.877  10.846   9.290  0.2167  0.9515  2.0474
  393MOL0     H53018   4.762  10.759   9.387 -0.8510  1.9783  0.4422
  393MOL0     H53019   4.552  10.459   8.886  2.3591  0.0900 -0.3027
  393MOL0     H53020   4.339  10.569   8.793  1.1158 -1.9821  1.3168
  393MOL0     H53021   4.169  10.803   8.581 -0.4860  0.8023  0.7423
  393MOL0     H53022   4.248  10.659   8.635  0.1120 -0.7557  1.6720
  393MOL0     H53023   4.031  10.675   8.740  0.9042 -0.9404 -3.1967
  393MOL0     H53024   4.167  10.705   8.858  0.2062  2.1383  0.4824
  393MOL0     H53025   4.160  10.955   8.830  1.9175 -2.2654 -0.2798
  393MOL0     H53026   4.006  10.882   8.893 -0.2392 -1.5854 -1.2297
  393MOL0     H53027   4.048  10.989   8.625 -0.6983 -0.3392 -0.1084
  393MOL0     H53028   3.929  10.859   8.656 -0.1027 -0.5899  0.9827
  393MOL0     H53029   3.966  11.109   8.812  2.8457 -1.9781 -1.1814
  393MOL0     H53030   3.820  11.016   8.830 -0.2675  2.1355 -0.1020
  393MOL0     H53031   3.885  11.171   8.580 -1.7810  1.0955 -0.0864
  393MOL0     H53032   3.742  11.055   8.615  0.2533 -1.7266  0.2947
  393MOL0     H53033   3.801  11.310   8.766  2.8814  0.7066 -1.9383
  393MOL0     H53034   3.655  11.208   8.762 -3.8260  1.1765 -4.1554
  393MOL0     H53035   3.756  11.393   8.533 -0.9349  0.2969 -0.9844
  393MOL0     H53036   3.623  11.425   8.633 -0.4117  1.1415 -2.2515
  393MOL0     H53037   4.545  10.939   8.752  1.7421 -0.0114 -1.0621
  393MOL0     H53038   4.747  10.840   8.876 -1.9556  0.1316  2.5738
  393MOL0     H53039   4.911  10.423   9.057 -2.8095 -1.5812  1.6988
  393MOL0     H53040   5.098  10.322   9.168  1.2784  1.7138 -1.6058
  393MOL0     H53041   4.233  10.409   9.820 -1.1432  1.6140  2.8426
  393MOL0     H53042   3.983  10.373   9.858  2.6163 -0.1403  1.1810
  393MOL0     H53043   3.515  10.614   9.888 -2.2029 -0.0236  0.9372
  393MOL0     H53044   3.270  10.544   9.898 -0.2130 -1.8220  2.0128
  393MOL0     H53045   3.120  10.384   9.570 -0.4429  2.1548  1.6114
  393MOL0     H53046   3.146  10.216   9.608  0.5718  0.2339 -1.5279
  393MOL0     H53047   2.919  10.386   9.734 -0.0134  0.7437  1.3105
  393MOL0     H53048   2.946  10.216   9.771 -2.9425 -1.4247 -2.0614
  393MOL0     H53049   2.901  10.191   9.523  2.5242  1.9524 -0.0616
  393MOL0     H53050   2.840  10.364   9.536 -1.3835  1.2477  0.6923
  393MOL0     H53051   2.670  10.271   9.713 -1.3299  1.6469 -3.3097
  393MOL0     H53052   2.767  10.120   9.700  3.6731  0.3142 -0.7199
  393MOL0     H53053   2.555  10.157   9.310 -2.1065 -2.5110  0.4809
  393MOL0     H53054   3.364  10.219   9.629 -4.1920  1.1513 -0.3610
  393MOL0     H53055   3.596  10.296   9.613 -1.2751 -1.7369 -0.0868
  394MOL0     O53056   8.032   8.565   3.850  0.4522  0.8976 -0.8769
  394MOL0     C53057   7.999   8.676   3.878 -1.4689 -0.5810  0.8204
  394MOL0     O53058   7.889   8.715   3.945 -0.7985  0.1669 -0.1075
  394MOL0     C53059   7.779   8.630   3.960 -0.6609  0.0163  0.9800
  394MOL0     C53060   7.692   8.665   4.066 -0.3271 -0.1930  0.0929
  394MOL0     C53061   7.572   8.601   4.083 -0.9849  0.8768 -0.1581
  394MOL0     C53062   7.529   8.502   3.986 -0.2041  0.5589 -0.7638
  394MOL0     O53063   7.405   8.457   3.998 -0.1458 -0.1372  0.9402
  394MOL0     C53064   7.349   8.378   3.894  0.3729 -0.4585 -0.8040
  394MOL0     C53065   7.194   8.383   3.887 -0.1089  0.0172  0.3576
  394MOL0     C53066   7.153   8.525   3.859 -1.1732  0.4268 -0.0988
  394MOL0     C53067   7.004   8.542   3.831 -0.2595  0.0054 -0.8840
  394MOL0     C53068   6.972   8.688   3.809 -0.9798  0.3049 -0.3883
  394MOL0     C53069   6.834   8.711   3.762  0.0508 -0.5013  0.1737
  394MOL0     C53070   6.791   8.858   3.769 -0.7371  0.3028 -1.0325
  394MOL0     C53071   6.850   8.946   3.658  0.2768  0.5675 -0.1987
  394MOL0     N53072   6.761   8.949   3.538 -0.4176  0.3494 -0.1874
  394MOL0     C53073   6.780   9.006   3.415 -0.2888 -0.7217  1.9836
  394MOL0     C53074   6.671   8.972   3.345  0.5951  0.0188 -0.2242
  394MOL0     C53075   6.645   8.992   3.196 -0.0853 -0.7011 -0.3966
  394MOL0     C53076   6.616   9.141   3.169 -0.3830  0.1665  0.2338
  394MOL0     C53077   6.599   9.162   3.016  0.3578  0.4193  0.0149
  394MOL0     C53078   6.567   9.309   2.975 -1.1281  0.8717  0.5974
  394MOL0     O53079   6.639   9.406   3.059  0.2416 -1.0940 -0.3844
  394MOL0     C53080   6.592   9.534   3.073 -0.1449  0.0884 -0.5416
  394MOL0     C53081   6.607   9.625   2.971  1.0339 -0.4186  0.8116
  394MOL0     C53082   6.585   9.772   2.985  0.2912  0.2782 -0.0637
  394MOL0     C53083   6.589   9.855   2.861 -0.0615  1.1814 -0.3041
  394MOL0     C53084   6.545   9.815   3.117  1.0115  0.9307 -0.2590
  394MOL0     C53085   6.495   9.954   3.156 -0.8080 -0.8850  0.1888
  394MOL0     O53086   6.479   9.972   3.284  0.5394  0.3217  0.1429
  394MOL0     C53087   6.434  10.088   3.322 -0.2727 -0.1744 -0.2900
  394MOL0     C53088   6.514  10.184   3.389  0.4088  0.0286 -0.7478
  394MOL0     C53089   6.453  10.293   3.464 -0.6264  0.6106 -0.2100
  394MOL0     C53090   6.313  10.310   3.469 -0.0911  0.6833 -0.2113
  394MOL0     O53091   6.247  10.402   3.543  1.0045  0.1020  0.3700
  394MOL0     C53092   6.301  10.446   3.664  1.1179 -0.2812 -0.1396
  394MOL0     C53093   6.204  10.522   3.752 -0.3178  0.6907 -0.2517
  394MOL0     C53094   6.157  10.654   3.700 -0.3289  0.4500  0.0873
  394MOL0     C53095   6.059  10.736   3.796  0.0837  0.4303  0.2230
  394MOL0     C53096   5.923  10.663   3.801 -0.0404  0.3192 -0.4491
  394MOL0     C53097   5.839  10.727   3.908 -0.1143  1.3744 -0.6866
  394MOL0     C53098   5.732  10.623   3.947  0.1233 -0.5773 -0.5988
  394MOL0     C53099   5.607  10.625   3.870  0.2690 -0.2416  0.4088
  394MOL0    Cl53100   5.520  10.478   3.917 -0.1116  0.1743  0.2071
  394MOL0     C53101   6.238  10.212   3.404 -0.5854  0.1109  0.0816
  394MOL0     C53102   6.291  10.107   3.324 -0.5554 -1.1167  1.1712
  394MOL0     O53103   6.472  10.039   3.069 -0.1609 -0.3223 -0.3260
  394MOL0     C53104   6.541   9.717   3.217 -0.5317  0.9494 -0.8761
  394MOL0     C53105   6.569   9.584   3.201 -0.1098  0.1931  0.1965
  394MOL0     N53106   6.575   8.918   3.427 -0.9848  0.3537  0.7978
  394MOL0     N53107   6.634   8.890   3.534  0.2130 -0.4643 -0.4844
  394MOL0     C53108   7.616   8.464   3.883  0.2741 -0.3514  0.3816
  394MOL0     C53109   7.736   8.532   3.870 -0.3238  0.7234 -0.3191
  394MOL0     C53110   8.097   8.786   3.854 -0.6619  0.2614 -0.0846
  394MOL0     C53111   8.067   8.916   3.898 -0.0867 -0.7516  0.5059
  394MOL0     C53112   8.155   9.022   3.868  0.7970  0.3980 -0.6480
  394MOL0     C53113   8.265   8.995   3.811  0.5338  0.8467  0.5350
  394MOL0     O53114   8.363   9.092   3.782 -0.4370  0.4256  0.1595
  394MOL0     C53115   8.335   9.230   3.789 -0.0701  0.0268  0.1634
  394MOL0     C53116   8.364   9.276   3.939  0.0834  0.6188 -0.7005
  394MOL0     C53117   8.342   9.418   3.977 -0.2430  0.0834  0.5699
  394MOL0     C53118   8.199   9.464   3.968  0.2882 -0.2151  0.0774
  394MOL0     C53119   8.105   9.398   4.062 -0.3335  0.7028 -0.4524
  394MOL0     C53120   8.038   9.348   4.149 -0.2037 -0.4256  0.0320
  394MOL0     C53121   8.300   8.864   3.772 -0.2164  1.4339  0.2625
  394MOL0     C53122   8.221   8.754   3.785  0.3850 -0.0470  0.9117
  394MOL0     H53123   7.716   8.748   4.131  1.3832  0.6894 -1.5951
  394MOL0     H53124   7.500   8.631   4.159 -2.4553 -3.1186  0.2333
  394MOL0     H53125   7.390   8.406   3.797 -0.6134 -1.3864 -1.5109
  394MOL0     H53126   7.396   8.280   3.907  1.9268  0.5709  2.2752
  394MOL0     H53127   7.152   8.326   3.805  1.4096 -1.0413  0.2672
  394MOL0     H53128   7.143   8.359   3.981 -2.4091  2.9022  0.0044
  394MOL0     H53129   7.170   8.589   3.946 -0.0957  0.9403 -0.6699
  394MOL0     H53130   7.218   8.560   3.778 -0.8082  1.9456  0.8080
  394MOL0     H53131   6.974   8.490   3.739  0.7800  0.9795 -1.7920
  394MOL0     H53132   6.949   8.505   3.918  1.3964 -0.5280 -0.0242
  394MOL0     H53133   6.991   8.740   3.903  1.8090  0.0665 -0.7370
  394MOL0     H53134   7.041   8.729   3.734 -1.4506 -1.7704 -2.0639
  394MOL0     H53135   6.817   8.653   3.670 -1.8349  0.6852 -0.2715
  394MOL0     H53136   6.774   8.657   3.836 -1.9762  1.6834  0.2423
  394MOL0     H53137   6.682   8.861   3.775 -0.7115  0.2549 -0.5247
  394MOL0     H53138   6.829   8.901   3.862 -2.3505  2.0879 -1.1278
  394MOL0     H53139   6.950   8.925   3.618  0.2198 -1.4824  0.6491
  394MOL0     H53140   6.842   9.049   3.695 -1.0161  0.8340 -1.1627
  394MOL0     H53141   6.863   9.060   3.370 -1.8900  5.5181  5.3468
  394MOL0     H53142   6.725   8.954   3.132 -0.6360 -1.1934 -0.8029
  394MOL0     H53143   6.557   8.932   3.172 -0.6475 -0.4890  1.0218
  394MOL0     H53144   6.706   9.194   3.201  0.4345 -0.5572 -0.7930
  394MOL0     H53145   6.529   9.176   3.225  0.6608  0.5447  1.6650
  394MOL0     H53146   6.523   9.089   2.987 -1.4098  1.8650  0.8536
  394MOL0     H53147   6.694   9.135   2.968 -0.1608 -0.9177 -0.3106
  394MOL0     H53148   6.462   9.323   2.999 -1.0668 -1.5716  2.8397
  394MOL0     H53149   6.570   9.328   2.868 -0.5022  1.1755  0.6624
  394MOL0     H53150   6.626   9.590   2.870  1.1835  3.0323 -0.5012
  394MOL0     H53151   6.604   9.794   2.772  2.5662 -0.7051  1.2956
  394MOL0     H53152   6.490   9.898   2.844  0.1527  2.6769  1.7861
  394MOL0     H53153   6.672   9.924   2.880  1.7019 -1.6967  3.8693
  394MOL0     H53154   6.622  10.194   3.389  0.6247 -1.4296  1.6572
  394MOL0     H53155   6.514  10.367   3.516  0.3851  0.1026 -0.6370
  394MOL0     H53156   6.339  10.365   3.726  0.1439  2.1916  4.0596
  394MOL0     H53157   6.391  10.507   3.653 -0.0567  1.0680 -4.0716
  394MOL0     H53158   6.124  10.452   3.775  2.0362 -1.7214  1.2190
  394MOL0     H53159   6.269  10.536   3.839 -1.4642  1.0508  0.5725
  394MOL0     H53160   6.096  10.628   3.613  0.6891  1.6220 -1.0116
  394MOL0     H53161   6.240  10.717   3.666 -0.1879  0.5412  0.5913
  394MOL0     H53162   6.114  10.730   3.890  2.9906 -0.2005 -1.4098
  394MOL0     H53163   6.039  10.841   3.775  0.0881  0.2326 -0.8050
  394MOL0     H53164   5.944  10.561   3.836  1.1613  0.4049 -0.8761
  394MOL0     H53165   5.875  10.647   3.704  1.2775 -0.4176 -1.0115
  394MOL0     H53166   5.905  10.745   3.993  0.2978 -0.5121 -0.5767
  394MOL0     H53167   5.782  10.817   3.881 -2.1012  0.1975 -0.6101
  394MOL0     H53168   5.709  10.665   4.046  3.3027 -1.6029  0.6756
  394MOL0     H53169   5.780  10.528   3.970  1.1152  0.6936  3.4947
  394MOL0     H53170   5.628  10.618   3.763  3.5990 -0.1230  0.9598
  394MOL0     H53171   5.533  10.705   3.880  1.5328  1.0172  0.0112
  394MOL0     H53172   6.131  10.196   3.414 -0.4604 -0.9654 -0.1507
  394MOL0     H53173   6.224  10.054   3.257  2.1772 -3.3530 -0.0011
  394MOL0     H53174   6.520   9.750   3.319  2.1027  1.3415 -0.3717
  394MOL0     H53175   6.575   9.512   3.282 -0.2028  0.7988  0.7506
  394MOL0     H53176   7.589   8.390   3.808  0.3924 -0.0958  0.0852
  394MOL0     H53177   7.807   8.485   3.803  2.0940  1.9731  1.2076
  394MOL0     H53178   7.981   8.947   3.958  0.7732  1.7116  0.5893
  394MOL0     H53179   8.117   9.123   3.882  1.1234  0.5112 -0.5499
  394MOL0     H53180   8.393   9.296   3.723 -1.8610 -1.1967 -2.8206
  394MOL0     H53181   8.229   9.241   3.765  0.5147  1.1677 -2.3042
  394MOL0     H53182   8.468   9.251   3.964 -0.9326 -2.5722  0.8706
  394MOL0     H53183   8.316   9.215   4.016  3.5007  0.4324  1.5247
  394MOL0     H53184   8.408   9.482   3.919  0.6782 -0.3976  1.0687
  394MOL0     H53185   8.377   9.424   4.081  0.8888 -0.6703  0.2514
  394MOL0     H53186   8.147   9.463   3.871 -0.0479  0.6165  0.2363
  394MOL0     H53187   8.189   9.562   4.017 -1.8764 -1.5496  2.5358
  394MOL0     H53188   7.984   9.325   4.239 -1.8782  1.9914 -0.2599
  394MOL0     H53189   8.402   8.850   3.739 -0.0881  1.8426  0.4822
  394MOL0     H53190   8.250   8.658   3.743  0.4315 -0.0422  0.9324
  395MOL0     O53191  10.545  11.205   2.577 -0.5653  0.0065 -0.0614
  395MOL0     C53192  10.463  11.126   2.619  0.4687 -0.9303  0.1611
  395MOL0     O53193  10.360  11.076   2.549  0.3756  0.6039 -0.3628
  395MOL0     C53194  10.326  11.115   2.419  0.2016  0.1824  0.4357
  395MOL0     C53195  10.326  11.013   2.329 -0.7049  0.7000 -0.3082
  395MOL0     C53196  10.299  11.027   2.193  0.5519 -0.1974 -0.6290
  395MOL0     C53197  10.268  11.159   2.152  0.5463  0.1267 -0.2813
  395MOL0     O53198  10.257  11.182   2.025 -0.2496  0.0820  0.5931
  395MOL0     C53199  10.116  11.212   1.993  0.2477  0.1650  0.2326
  395MOL0     C53200  10.110  11.258   1.849  0.0573 -0.1961  0.8330
  395MOL0     C53201   9.958  11.269   1.807 -0.6344  0.5183 -0.4374
  395MOL0     C53202   9.937  11.230   1.654 -0.6176  0.8433  0.4400
  395MOL0     C53203   9.798  11.287   1.618  0.0783  0.6127 -0.0902
  395MOL0     C53204   9.763  11.273   1.462  0.5650  0.4384 -0.5775
  395MOL0     C53205   9.615  11.289   1.437 -0.2513 -0.2270 -0.0896
  395MOL0     C53206   9.579  11.266   1.293 -0.6983 -0.1475  0.0592
  395MOL0     N53207   9.567  11.114   1.259  0.0721 -0.2442 -0.6862
  395MOL0     C53208   9.494  11.026   1.331  0.3432  0.8480 -0.5266
  395MOL0     C53209   9.507  10.911   1.266  0.5449  1.7068  0.7612
  395MOL0     C53210   9.445  10.777   1.322 -1.3043  0.4564  1.0970
  395MOL0     C53211   9.537  10.683   1.408 -0.2781  0.0495  0.0511
  395MOL0     C53212   9.482  10.637   1.547 -0.6013  0.0447  0.3244
  395MOL0     C53213   9.512  10.724   1.667 -0.5902 -0.0973  0.4668
  395MOL0     O53214   9.438  10.845   1.633  0.2302 -0.0638 -1.0637
  395MOL0     C53215   9.458  10.942   1.728  0.8303 -0.4644 -0.4244
  395MOL0     C53216   9.544  10.932   1.836 -0.1976  0.0819 -0.5701
  395MOL0     C53217   9.562  11.038   1.930 -0.5433  0.0886  0.4351
  395MOL0     C53218   9.677  11.019   2.035 -1.0780  0.6283  0.6985
  395MOL0     C53219   9.508  11.168   1.891 -0.1434 -0.8942 -0.1238
  395MOL0     C53220   9.535  11.294   1.956  0.1528 -1.2004 -0.3393
  395MOL0     O53221   9.668  11.313   2.004 -0.1940  0.3822  0.5917
  395MOL0     C53222   9.692  11.423   2.087  0.4095  0.9265  0.3099
  395MOL0     C53223   9.698  11.410   2.228  0.0344  0.3562  0.2037
  395MOL0     C53224   9.736  11.515   2.298 -0.1628  0.4951  0.5148
  395MOL0     C53225   9.775  11.636   2.239  0.2180 -1.3838 -0.3496
  395MOL0     O53226   9.819  11.750   2.305 -0.3039 -0.5817 -0.5312
  395MOL0     C53227   9.768  11.777   2.429 -1.7249  0.4405 -1.3418
  395MOL0     C53228   9.841  11.898   2.497 -0.0010 -0.2595  0.2480
  395MOL0     C53229   9.763  11.943   2.625 -0.6539  0.5015  0.6843
  395MOL0     C53230   9.863  12.025   2.709  0.9728  0.6030 -0.3504
  395MOL0     C53231   9.901  12.156   2.647  0.6474  0.0296 -0.1619
  395MOL0     C53232   9.779  12.243   2.609  0.0906 -0.1842  0.8798
  395MOL0     C53233   9.811  12.393   2.597  0.6329 -0.2394 -0.2093
  395MOL0     C53234   9.699  12.491   2.559 -0.5687  0.1844 -0.3894
  395MOL0    Cl53235   9.613  12.435   2.407  0.0679 -0.5566 -0.5005
  395MOL0     C53236   9.753  11.652   2.100 -0.2494 -0.6715  0.6982
  395MOL0     C53237   9.727  11.542   2.024  0.2006  1.5741  0.1946
  395MOL0     O53238   9.442  11.379   1.966  0.3460 -0.3513 -0.2535
  395MOL0     C53239   9.422  11.178   1.791 -0.6427  0.2594 -0.2696
  395MOL0     C53240   9.403  11.067   1.709  0.3188  0.5167 -0.2531
  395MOL0     N53241   9.590  10.926   1.160 -0.0889 -0.7356  0.6679
  395MOL0     N53242   9.627  11.052   1.159  0.4735 -0.0579 -0.1881
  395MOL0     C53243  10.273  11.263   2.243 -0.5832  0.5788 -0.2578
  395MOL0     C53244  10.317  11.246   2.378  0.5227  0.4287  0.1532
  395MOL0     C53245  10.464  11.108   2.770  0.1806  0.6043 -0.7538
  395MOL0     C53246  10.351  11.067   2.835 -0.6368 -0.6140  0.4388
  395MOL0     C53247  10.351  11.040   2.978 -0.2594  0.2556  0.5917
  395MOL0     C53248  10.467  11.084   3.053 -0.1757  0.1640 -0.1063
  395MOL0     O53249  10.486  11.061   3.181 -0.1280 -0.7666 -0.5671
  395MOL0     C53250  10.387  10.988   3.255 -0.2527  0.3087 -0.1558
  395MOL0     C53251  10.396  10.833   3.226 -0.2702 -0.5358 -0.7107
  395MOL0     C53252  10.544  10.781   3.234  0.1877 -0.5490  0.2113
  395MOL0     C53253  10.549  10.637   3.182 -0.3908 -0.1950 -0.2486
  395MOL0     C53254  10.576  10.629   3.039 -0.8712  0.2939  0.0336
  395MOL0     C53255  10.598  10.616   2.921 -1.3606 -0.9300  0.1439
  395MOL0     C53256  10.577  11.136   2.990 -0.6152 -0.5241 -0.4750
  395MOL0     C53257  10.577  11.147   2.847  0.0564  0.2756 -0.0775
  395MOL0     H53258  10.365  10.915   2.356  1.5958  1.9774  1.3516
  395MOL0     H53259  10.310  10.942   2.127  1.6738 -0.7552  0.2461
  395MOL0     H53260  10.055  11.122   2.005 -0.5150  0.1635 -2.7828
  395MOL0     H53261  10.072  11.292   2.054  2.3476  0.2882  1.7064
  395MOL0     H53262  10.160  11.355   1.842  2.5649 -1.5072 -1.9379
  395MOL0     H53263  10.162  11.190   1.780  0.1856  1.6723 -0.9945
  395MOL0     H53264   9.907  11.194   1.868  2.7010 -2.1310 -0.6256
  395MOL0     H53265   9.915  11.367   1.829 -1.3576 -0.0612  0.8330
  395MOL0     H53266  10.013  11.281   1.594 -0.5429  1.2656  0.8979
  395MOL0     H53267   9.947  11.122   1.638  6.6665  0.6861  2.6797
  395MOL0     H53268   9.716  11.242   1.675 -0.8828  2.5411  0.1187
  395MOL0     H53269   9.804  11.393   1.644  0.5187  0.2869  1.2151
  395MOL0     H53270   9.813  11.352   1.406  0.7581 -1.2961 -3.0362
  395MOL0     H53271   9.799  11.180   1.418 -0.0139 -0.0134 -0.1192
  395MOL0     H53272   9.549  11.222   1.493 -1.4740 -0.8168 -2.1427
  395MOL0     H53273   9.599  11.394   1.466  2.2824  0.4396 -0.8144
  395MOL0     H53274   9.653  11.316   1.229 -0.8310 -1.2890 -1.0358
  395MOL0     H53275   9.482  11.317   1.290 -1.8661 -2.2614 -0.4148
  395MOL0     H53276   9.422  11.048   1.409  1.6222 -0.3496  1.0790
  395MOL0     H53277   9.362  10.804   1.387 -1.1127  0.9304  1.1512
  395MOL0     H53278   9.407  10.727   1.233  4.5291  1.6377 -2.6331
  395MOL0     H53279   9.637  10.724   1.419 -0.0708 -0.2053 -0.7654
  395MOL0     H53280   9.556  10.588   1.358  0.3914 -0.6671  1.6339
  395MOL0     H53281   9.540  10.546   1.566  1.7509  1.7447  1.7283
  395MOL0     H53282   9.373  10.622   1.550 -0.7267  0.9284  0.4556
  395MOL0     H53283   9.621  10.737   1.663 -0.7598  1.9466  1.0257
  395MOL0     H53284   9.475  10.686   1.763 -1.5677  2.5077  1.2350
  395MOL0     H53285   9.593  10.841   1.869  0.0722  0.1727 -0.7152
  395MOL0     H53286   9.676  10.914   2.066 -0.9439  0.5441  0.4251
  395MOL0     H53287   9.773  11.052   1.994 -1.1412  1.6177  1.3265
  395MOL0     H53288   9.662  11.081   2.124  2.8186  2.2163  0.4589
  395MOL0     H53289   9.680  11.313   2.274  1.3359  0.5190  1.1126
  395MOL0     H53290   9.749  11.508   2.405  1.1515  2.1214  0.5008
  395MOL0     H53291   9.665  11.808   2.408 -2.5412 -2.0833 -1.4953
  395MOL0     H53292   9.767  11.694   2.501  0.5886  0.6288 -1.0346
  395MOL0     H53293   9.942  11.864   2.523  0.3898  1.2691  0.7972
  395MOL0     H53294   9.849  11.978   2.423 -0.1256 -1.3558 -0.9820
  395MOL0     H53295   9.731  11.855   2.683 -2.6282 -0.6383 -1.9430
  395MOL0     H53296   9.674  11.998   2.592 -1.6613 -0.7293  1.2743
  395MOL0     H53297   9.808  12.046   2.802 -2.5626 -1.2750 -1.8214
  395MOL0     H53298   9.952  11.964   2.725  0.5734 -0.0183 -0.4541
  395MOL0     H53299   9.965  12.136   2.560  1.1892 -3.9656  0.9659
  395MOL0     H53300   9.958  12.209   2.724  0.4855 -3.3897  2.5426
  395MOL0     H53301   9.735  12.222   2.511  1.2119 -1.9535  0.7199
  395MOL0     H53302   9.701  12.236   2.686 -2.8600  5.2250 -0.9851
  395MOL0     H53303   9.885  12.400   2.517  3.1920 -1.2419  1.9012
  395MOL0     H53304   9.862  12.433   2.686 -1.1175  2.8483 -0.4505
  395MOL0     H53305   9.745  12.590   2.555  1.5149 -0.5906  1.9060
  395MOL0     H53306   9.621  12.482   2.636  0.3069 -2.2975  0.3009
  395MOL0     H53307   9.769  11.751   2.060  0.6859  0.0087  2.6721
  395MOL0     H53308   9.724  11.520   1.918  0.3479 -1.1060  0.6768
  395MOL0     H53309   9.387  11.267   1.740 -0.6496 -0.2453 -1.1695
  395MOL0     H53310   9.348  11.081   1.616  0.7931  1.1753 -0.4398
  395MOL0     H53311  10.264  11.358   2.191 -1.0253 -0.8253 -2.9338
  395MOL0     H53312  10.342  11.328   2.444  2.9387  0.7446 -1.0293
  395MOL0     H53313  10.258  11.039   2.787  1.5168 -3.2218 -2.5978
  395MOL0     H53314  10.268  10.997   3.032 -2.9770  3.4875 -0.6048
  395MOL0     H53315  10.422  11.012   3.356  0.6899 -2.4024  0.2589
  395MOL0     H53316  10.289  11.034   3.240 -1.4338 -0.5715  3.6379
  395MOL0     H53317  10.365  10.823   3.122  0.0867  0.3368 -0.9149
  395MOL0     H53318  10.326  10.772   3.283 -0.7503  0.2030 -0.4858
  395MOL0     H53319  10.576  10.782   3.338  0.0960  0.9068  0.2503
  395MOL0     H53320  10.618  10.843   3.181 -0.3426  0.2189  0.3518
  395MOL0     H53321  10.453  10.587   3.201 -0.8010 -0.0850 -1.8795
  395MOL0     H53322  10.629  10.582   3.232  0.2179  1.8263  1.1162
  395MOL0     H53323  10.610  10.622   2.815 -1.2315 -2.9684  0.0078
  395MOL0     H53324  10.663  11.161   3.051 -2.6308 -0.1209  2.3995
  395MOL0     H53325  10.664  11.182   2.792  0.3299 -0.7696 -0.3200
  396MOL0     O53326   9.981   6.326   0.082 -0.0840  0.8485 -0.4122
  396MOL0     C53327  10.048   6.234   0.043 -0.0712 -0.9300  0.5087
  396MOL0     O53328  10.056   6.112   0.104 -0.7818  0.4889 -0.5739
  396MOL0     C53329   9.974   6.087   0.214  0.4598  0.0206 -0.8269
  396MOL0     C53330  10.036   6.036   0.328  0.5723 -0.7349  0.8536
  396MOL0     C53331   9.959   6.004   0.437  0.8272  0.2005 -0.1118
  396MOL0     C53332   9.828   6.026   0.443 -0.0235  0.2187 -0.2490
  396MOL0     O53333   9.738   6.003   0.548  0.3073  0.1628  0.0754
  396MOL0     C53334   9.796   5.984   0.675  0.4899  0.1195  0.6131
  396MOL0     C53335   9.705   6.019   0.794 -0.1912 -0.2291  0.8718
  396MOL0     C53336   9.715   6.177   0.810  0.7189  0.5118 -0.2699
  396MOL0     C53337   9.603   6.227   0.898 -0.4856  0.0449 -0.2724
  396MOL0     C53338   9.595   6.372   0.955  0.9305  0.3179 -1.1930
  396MOL0     C53339   9.638   6.473   0.849 -0.0814  0.0919 -0.0370
  396MOL0     C53340   9.606   6.614   0.894 -0.4546 -0.1621  0.6201
  396MOL0     C53341   9.712   6.669   0.996  0.3508  1.0575 -0.2214
  396MOL0     N53342   9.702   6.815   1.007  1.2540 -0.1405 -0.8146
  396MOL0     C53343   9.655   6.883   1.113  0.4587 -0.1423 -0.1816
  396MOL0     C53344   9.679   7.012   1.089 -0.2604  0.1129 -0.6089
  396MOL0     C53345   9.686   7.125   1.179 -0.9899  0.4432 -0.2503
  396MOL0     C53346   9.566   7.126   1.274 -0.1970  0.2500  0.3351
  396MOL0     C53347   9.428   7.169   1.209  0.0981  0.1885  0.0515
  396MOL0     C53348   9.362   7.050   1.131  0.1216  0.0807  0.1180
  396MOL0     O53349   9.357   6.931   1.212 -0.4250 -0.1990 -0.1252
  396MOL0     C53350   9.316   6.812   1.161 -1.0891 -0.7729  0.6992
  396MOL0     C53351   9.253   6.784   1.047 -0.1420 -0.3216  0.0577
  396MOL0     C53352   9.216   6.652   1.006 -0.3482 -0.5835  0.4043
  396MOL0     C53353   9.147   6.638   0.878 -0.4303  0.1313 -0.8197
  396MOL0     C53354   9.244   6.547   1.095  0.1220  0.7705  0.2134
  396MOL0     C53355   9.192   6.404   1.088 -0.8994 -0.3250  0.2816
  396MOL0     O53356   9.247   6.308   1.174  0.3495  0.0854  0.4034
  396MOL0     C53357   9.233   6.172   1.144  0.1604 -0.2455 -0.6469
  396MOL0     C53358   9.181   6.081   1.239  0.0178 -0.2504  0.2998
  396MOL0     C53359   9.159   5.949   1.201 -1.0731  0.0332 -0.1294
  396MOL0     C53360   9.211   5.897   1.084  0.0422 -0.2830  0.4837
  396MOL0     O53361   9.207   5.756   1.060 -0.2204 -0.1908 -0.0512
  396MOL0     C53362   9.178   5.673   1.168  0.1944 -0.5032 -0.3833
  396MOL0     C53363   9.183   5.534   1.119 -0.6222  0.9649 -0.4314
  396MOL0     C53364   9.119   5.435   1.208 -0.3876  0.4126  0.1620
  396MOL0     C53365   9.124   5.296   1.134  0.4029 -0.8747  0.3878
  396MOL0     C53366   9.022   5.190   1.188 -0.6090 -0.3526 -0.1103
  396MOL0     C53367   8.888   5.204   1.125 -0.2726  0.5841  0.4154
  396MOL0     C53368   8.793   5.092   1.172 -0.6083 -0.5607 -1.1959
  396MOL0     C53369   8.665   5.095   1.092  0.0078 -0.5083 -1.0545
  396MOL0    Cl53370   8.569   5.236   1.106 -0.0172 -0.6327 -0.2794
  396MOL0     C53371   9.253   5.988   0.984  0.8479  0.7426 -0.1445
  396MOL0     C53372   9.268   6.123   1.016  0.9215 -0.0832 -0.4491
  396MOL0     O53373   9.093   6.383   1.023 -0.0329 -0.7323  0.6082
  396MOL0     C53374   9.315   6.577   1.208  1.2686  0.3580 -1.2711
  396MOL0     C53375   9.346   6.705   1.239 -0.2006  0.4403  0.7290
  396MOL0     N53376   9.715   7.022   0.959 -0.1740 -0.0015  0.5383
  396MOL0     N53377   9.729   6.904   0.912 -0.4835  0.5381  0.5615
  396MOL0     C53378   9.769   6.061   0.324 -0.6661  0.4884 -0.0148
  396MOL0     C53379   9.836   6.093   0.204 -0.2657  0.8764  0.2489
  396MOL0     C53380  10.118   6.246  -0.085 -0.3370  0.3747  0.0790
  396MOL0     C53381  10.213   6.148  -0.125 -0.0095 -0.4171 -0.2010
  396MOL0     C53382  10.283   6.165  -0.252  0.3007 -0.1321 -0.3982
  396MOL0     C53383  10.261   6.276  -0.338  0.2098 -0.0252  0.0731
  396MOL0     O53384  10.323   6.305  -0.461 -0.1088 -0.7285  0.2425
  396MOL0     C53385  10.443   6.235  -0.491  0.0836  0.4752  0.4208
  396MOL0     C53386  10.508   6.275  -0.619 -0.0340  0.0358 -0.5023
  396MOL0     C53387  10.524   6.429  -0.642 -0.2340 -1.0114 -0.8999
  396MOL0     C53388  10.620   6.445  -0.764 -0.9554  0.4325  0.4260
  396MOL0     C53389  10.760   6.382  -0.763 -0.3633 -0.6328  0.3670
  396MOL0     C53390  10.862   6.314  -0.754  0.2053  0.4698 -0.6458
  396MOL0     C53391  10.170   6.368  -0.295 -0.5685 -0.1666  0.1754
  396MOL0     C53392  10.099   6.358  -0.175  0.4044 -0.0227 -0.4406
  396MOL0     H53393  10.142   6.016   0.327 -0.0311 -5.2173 -2.4442
  396MOL0     H53394  10.004   5.970   0.530 -0.3139  0.0629  0.4056
  396MOL0     H53395   9.830   5.880   0.678  0.0471 -0.0202  0.8205
  396MOL0     H53396   9.888   6.044   0.672  1.7551 -1.7516 -2.0578
  396MOL0     H53397   9.601   5.991   0.774 -0.1584  1.3840 -2.0312
  396MOL0     H53398   9.742   5.956   0.876  0.1172  0.3951  1.2215
  396MOL0     H53399   9.808   6.204   0.861  0.7127 -0.6148  0.3683
  396MOL0     H53400   9.710   6.224   0.711 -3.2078 -3.3172 -2.2522
  396MOL0     H53401   9.510   6.219   0.841  1.2455  2.3294 -3.8473
  396MOL0     H53402   9.597   6.159   0.983  1.0657  1.8024  1.3673
  396MOL0     H53403   9.494   6.387   0.994  0.9529 -0.3174 -0.8870
  396MOL0     H53404   9.659   6.374   1.043 -2.0127  3.1635  1.1234
  396MOL0     H53405   9.738   6.456   0.809 -1.6939 -1.9399 -3.7832
  396MOL0     H53406   9.567   6.458   0.766  1.1898 -1.0574 -0.9714
  396MOL0     H53407   9.620   6.669   0.801 -2.2368  3.7020  2.3960
  396MOL0     H53408   9.500   6.628   0.917 -1.0875 -1.8772 -0.9907
  396MOL0     H53409   9.812   6.635   0.969  1.3498  2.0048  2.0424
  396MOL0     H53410   9.690   6.632   1.097  1.7326 -1.1950 -0.6645
  396MOL0     H53411   9.616   6.848   1.208  0.5146 -1.7585 -0.7347
  396MOL0     H53412   9.779   7.115   1.237 -0.5548 -1.6230 -1.2313
  396MOL0     H53413   9.689   7.218   1.122  1.7779 -0.2407 -1.4252
  396MOL0     H53414   9.583   7.211   1.341 -2.6751  0.7482  0.4236
  396MOL0     H53415   9.551   7.035   1.332  0.1877  0.8778  1.4527
  396MOL0     H53416   9.449   7.251   1.140  1.6310  0.3179  0.6269
  396MOL0     H53417   9.350   7.200   1.280  3.1366  1.9459  2.9314
  396MOL0     H53418   9.420   7.040   1.039  4.1520  1.4394  2.2300
  396MOL0     H53419   9.258   7.068   1.105  0.3680 -0.2952 -1.1912
  396MOL0     H53420   9.234   6.876   0.992 -1.9058 -0.5714  0.1849
  396MOL0     H53421   9.185   6.713   0.807 -0.7395  4.1614  2.8809
  396MOL0     H53422   9.158   6.540   0.830 -3.8734 -0.8567  0.1821
  396MOL0     H53423   9.040   6.658   0.885 -0.8111 -1.5421 -1.4797
  396MOL0     H53424   9.146   6.124   1.332  1.5425  0.4201  0.6007
  396MOL0     H53425   9.099   5.892   1.272 -1.3901  0.7877  0.2164
  396MOL0     H53426   9.264   5.691   1.234  0.2840 -2.8948  0.2721
  396MOL0     H53427   9.078   5.690   1.209 -0.4811 -1.7519 -1.4384
  396MOL0     H53428   9.127   5.539   1.025  1.4723 -1.1844 -1.9137
  396MOL0     H53429   9.285   5.505   1.093 -0.2389  1.8851 -0.0154
  396MOL0     H53430   9.015   5.466   1.224 -0.0535  0.6288  2.2145
  396MOL0     H53431   9.177   5.438   1.301  2.2431  0.3932 -1.3715
  396MOL0     H53432   9.092   5.305   1.030 -0.2819  0.0812  0.6729
  396MOL0     H53433   9.229   5.265   1.140  0.7486  0.2207  0.2154
  396MOL0     H53434   9.011   5.206   1.296 -3.8382  4.1016 -0.8382
  396MOL0     H53435   9.063   5.090   1.171  1.3465  0.8075 -2.8803
  396MOL0     H53436   8.843   5.302   1.144 -0.2040  0.5026  1.0245
  396MOL0     H53437   8.902   5.180   1.019  0.7834  0.5710  0.5460
  396MOL0     H53438   8.767   5.113   1.277  2.0159  1.0146 -0.7720
  396MOL0     H53439   8.842   4.994   1.170 -2.0459 -1.2910 -1.9957
  396MOL0     H53440   8.605   5.008   1.123  2.0864 -1.2223  1.2543
  396MOL0     H53441   8.683   5.070   0.987  1.9145 -0.7743 -0.6886
  396MOL0     H53442   9.284   5.962   0.883  0.9365  0.5711 -0.0749
  396MOL0     H53443   9.313   6.193   0.946 -2.8866  3.0360 -0.1170
  396MOL0     H53444   9.349   6.503   1.280 -0.5957  2.4735  2.0348
  396MOL0     H53445   9.397   6.720   1.334  0.9872 -1.9305  0.5447
  396MOL0     H53446   9.661   6.063   0.316 -0.8034 -0.2596  1.3661
  396MOL0     H53447   9.804   6.121   0.104  2.0707 -0.0923 -0.8618
  396MOL0     H53448  10.233   6.069  -0.054  1.2631  2.1743  2.5498
  396MOL0     H53449  10.352   6.088  -0.285 -2.6666 -2.3465 -1.8962
  396MOL0     H53450  10.515   6.249  -0.410  1.5601 -1.2208 -0.5551
  396MOL0     H53451  10.423   6.128  -0.499  0.1678  0.1910  3.1139
  396MOL0     H53452  10.462   6.228  -0.706  2.2579  0.3011 -1.9557
  396MOL0     H53453  10.608   6.234  -0.606 -0.3699 -1.5879 -2.5605
  396MOL0     H53454  10.567   6.470  -0.551  0.5057 -0.1162 -1.6365
  396MOL0     H53455  10.433   6.488  -0.657  1.5514  2.1249 -0.1238
  396MOL0     H53456  10.632   6.551  -0.788  1.5001 -0.1239 -1.2045
  396MOL0     H53457  10.568   6.407  -0.852 -0.7888  2.1662 -0.4673
  396MOL0     H53458  10.946   6.252  -0.728  0.0388  0.1777 -0.8002
  396MOL0     H53459  10.152   6.453  -0.360  0.3160 -0.3057 -0.2615
  396MOL0     H53460  10.046   6.450  -0.150  1.3502  0.7452 -1.1841
  397MOL0     O53461   5.932   6.919  10.044  0.0314  0.3730 -0.1750
  397MOL0     C53462   6.053   6.915  10.041 -0.0543 -0.7854 -0.1270
  397MOL0     O53463   6.126   6.795  10.070  0.0539  0.0162 -0.2616
  397MOL0     C53464   6.059   6.688  10.113 -1.0328 -0.1969  0.7550
  397MOL0     C53465   6.072   6.636  10.241  0.2756  0.6432  1.0864
  397MOL0     C53466   5.991   6.523  10.282  0.5091 -1.1222  0.3377
  397MOL0     C53467   5.903   6.460  10.189  0.0276  0.3905  0.4123
  397MOL0     O53468   5.835   6.352  10.231 -0.6775 -0.5327 -0.1877
  397MOL0     C53469   5.710   6.314  10.175  0.4456  0.6970 -0.1760
  397MOL0     C53470   5.622   6.220  10.265 -0.5697  0.1655 -0.3742
  397MOL0     C53471   5.498   6.160  10.186  0.6173  0.1547 -0.0589
  397MOL0     C53472   5.435   6.045  10.267  0.1208  0.3495  0.9657
  397MOL0     C53473   5.353   6.101  10.389 -1.0507 -0.6169  0.6616
  397MOL0     C53474   5.311   5.979  10.482  0.5822 -1.4688  0.5960
  397MOL0     C53475   5.225   6.040  10.594  0.1811  0.4157  0.2970
  397MOL0     C53476   5.162   5.931  10.679  0.3967  0.0357 -0.7909
  397MOL0     N53477   5.023   5.903  10.633 -0.7488  0.5216  0.9820
  397MOL0     C53478   4.922   5.988  10.636 -0.2066  0.6431  0.2007
  397MOL0     C53479   4.819   5.929  10.555  0.3030 -0.1069 -1.2269
  397MOL0     C53480   4.693   6.009  10.525 -0.0878  1.3428 -0.2269
  397MOL0     C53481   4.682   6.038  10.372  0.1365  0.0295  0.9118
  397MOL0     C53482   4.812   6.075  10.294  0.5253 -0.1111  0.4423
  397MOL0     C53483   4.857   6.223  10.323  0.2158  0.1721  0.4580
  397MOL0     O53484   4.973   6.258  10.244  0.6249 -0.2033  0.1213
  397MOL0     C53485   5.076   6.332  10.290  0.5806  0.0700 -0.2278
  397MOL0     C53486   5.167   6.388  10.192 -0.3175  0.1982 -1.0602
  397MOL0     C53487   5.264   6.489  10.228  1.0310 -0.0761 -0.0236
  397MOL0     C53488   5.374   6.528  10.134  0.3766 -0.1648  0.4444
  397MOL0     C53489   5.275   6.529  10.364  0.4039  0.5278 -0.2377
  397MOL0     C53490   5.366   6.631  10.413 -0.5562 -0.6526  0.0390
  397MOL0     O53491   5.407   6.727  10.328 -0.1646 -1.3047  0.4996
  397MOL0     C53492   5.511   6.817  10.347  0.3589  0.3720  0.4387
  397MOL0     C53493   5.642   6.766  10.343 -0.9007 -0.0206  0.7905
  397MOL0     C53494   5.748   6.855  10.328  0.5286  0.0236 -0.5670
  397MOL0     C53495   5.727   6.994  10.341  0.7430  0.7153  0.1729
  397MOL0     O53496   5.838   7.079  10.336  0.6068 -0.1837  0.2991
  397MOL0     C53497   5.955   7.053  10.405  0.2944  0.1957  0.1109
  397MOL0     C53498   6.047   7.169  10.383 -0.6601  0.5342  0.4668
  397MOL0     C53499   6.192   7.133  10.435  0.0494 -0.1774 -0.5270
  397MOL0     C53500   6.273   7.266  10.443 -0.4994  0.3497  0.2468
  397MOL0     C53501   6.399   7.266  10.540  0.0237 -0.3981 -0.4883
  397MOL0     C53502   6.495   7.162  10.497  0.3755  0.3479 -0.4853
  397MOL0     C53503   6.619   7.167  10.577  0.0839 -0.0793 -0.3619
  397MOL0     C53504   6.725   7.060  10.542 -0.6007 -0.0226  0.3415
  397MOL0    Cl53505   6.890   7.118  10.564  0.5066  0.0679 -0.1721
  397MOL0     C53506   5.594   7.034  10.355  0.0672 -0.2140  0.6397
  397MOL0     C53507   5.485   6.948  10.346 -0.0614  1.1599  0.1040
  397MOL0     O53508   5.416   6.616  10.528  0.7898  0.8286 -0.1268
  397MOL0     C53509   5.195   6.469  10.463 -0.0387  0.6111  1.2873
  397MOL0     C53510   5.089   6.380  10.426  0.1537  0.4757 -0.3534
  397MOL0     N53511   4.866   5.804  10.525  0.2552  0.4561 -0.7914
  397MOL0     N53512   4.984   5.791  10.571  0.8175 -0.2483 -1.3257
  397MOL0     C53513   5.890   6.508  10.069 -0.4640 -0.3725  0.4712
  397MOL0     C53514   5.974   6.619  10.021  0.0357 -0.7160  0.5164
  397MOL0     C53515   6.125   7.042  10.009  0.1994  0.1897 -0.8940
  397MOL0     C53516   6.264   7.057  10.040  0.3853  0.2136 -0.0754
  397MOL0     C53517   6.329   7.177  10.029 -0.4710  0.0193  0.4121
  397MOL0     C53518   6.254   7.285   9.980 -0.8200 -0.0780 -0.6510
  397MOL0     O53519   6.310   7.410   9.963 -0.0134 -0.3313  0.1416
  397MOL0     C53520   6.449   7.430   9.944  0.7952 -0.5326  0.1936
  397MOL0     C53521   6.475   7.573   9.918  0.3257 -0.6737  0.0311
  397MOL0     C53522   6.431   7.670  10.037 -0.4121  0.0187 -0.2228
  397MOL0     C53523   6.467   7.816   9.998  0.5692  0.1995 -0.1945
  397MOL0     C53524   6.415   7.901  10.105 -0.1078  0.3297 -0.2717
  397MOL0     C53525   6.368   7.983  10.178 -1.1793 -0.4055 -0.6558
  397MOL0     C53526   6.123   7.275   9.949  0.0279  0.2556  0.4447
  397MOL0     C53527   6.055   7.160   9.963  0.3107 -0.3932 -0.4131
  397MOL0     H53528   6.135   6.674  10.321 -4.3273  1.9515  4.5246
  397MOL0     H53529   5.996   6.484  10.383 -3.0464  0.2915  1.2060
  397MOL0     H53530   5.651   6.405  10.158  1.3663  0.9264 -2.5943
  397MOL0     H53531   5.719   6.273  10.074 -1.5898  0.4688 -0.3093
  397MOL0     H53532   5.686   6.135  10.289  0.6026  1.1824  0.2593
  397MOL0     H53533   5.595   6.274  10.357  1.5747  1.8555 -0.6557
  397MOL0     H53534   5.434   6.246  10.164  1.3266  0.8849  0.6306
  397MOL0     H53535   5.520   6.111  10.091  1.8414  1.2861 -0.3948
  397MOL0     H53536   5.366   5.988  10.204 -0.6100  2.2370  0.0008
  397MOL0     H53537   5.509   5.970  10.298 -0.7918  0.0716  2.6243
  397MOL0     H53538   5.415   6.172  10.444  0.3870 -0.9955 -0.3996
  397MOL0     H53539   5.269   6.157  10.349 -0.1386 -0.8256 -1.6717
  397MOL0     H53540   5.249   5.908  10.426  0.4133  1.2772 -3.0863
  397MOL0     H53541   5.403   5.940  10.525  1.2162  0.6760  1.3120
  397MOL0     H53542   5.289   6.104  10.656 -0.7220 -0.6771  2.4482
  397MOL0     H53543   5.145   6.097  10.546  0.3745  1.1081  0.7766
  397MOL0     H53544   5.159   5.975  10.779  2.0857 -3.5982  1.0807
  397MOL0     H53545   5.214   5.835  10.679  0.0620 -0.1746 -2.5418
  397MOL0     H53546   4.920   6.090  10.672  2.3231  1.7800 -2.4570
  397MOL0     H53547   4.611   5.949  10.566 -0.4735  1.8454 -0.2541
  397MOL0     H53548   4.697   6.093  10.594  2.1706 -1.2324  3.1548
  397MOL0     H53549   4.607   6.117  10.360  0.1825  0.0626  0.8283
  397MOL0     H53550   4.644   5.945  10.328  2.7831 -0.2607 -1.0663
  397MOL0     H53551   4.781   6.060  10.191 -0.5929 -4.5751  1.1967
  397MOL0     H53552   4.896   6.008  10.314  0.8322  0.0635 -0.2480
  397MOL0     H53553   4.888   6.221  10.428  2.5823 -2.3148 -0.1673
  397MOL0     H53554   4.770   6.288  10.310  0.5191  0.5601  0.3174
  397MOL0     H53555   5.179   6.352  10.091 -2.0715  1.2052 -1.6798
  397MOL0     H53556   5.361   6.633  10.104 -0.9147  0.1809  2.0392
  397MOL0     H53557   5.468   6.507  10.185 -0.2480 -1.9515  0.9417
  397MOL0     H53558   5.371   6.469  10.043  1.6716  1.1156 -0.4709
  397MOL0     H53559   5.679   6.665  10.329 -1.6452 -0.4131  1.5537
  397MOL0     H53560   5.845   6.808  10.314 -0.8244 -2.8469 -1.2561
  397MOL0     H53561   5.929   7.038  10.510  1.5304 -0.0437  0.3944
  397MOL0     H53562   6.001   6.965  10.361 -3.4532 -2.2744  0.6611
  397MOL0     H53563   6.041   7.182  10.274 -0.0142  0.0396  0.3702
  397MOL0     H53564   5.997   7.253  10.432 -0.2731 -0.0147  1.8514
  397MOL0     H53565   6.240   7.052  10.379  0.1250 -0.6036  0.1320
  397MOL0     H53566   6.198   7.099  10.539 -1.9936 -1.2472 -0.7143
  397MOL0     H53567   6.305   7.287  10.340 -0.9742 -0.3629 -0.0528
  397MOL0     H53568   6.207   7.349  10.469 -0.9769 -0.5698  2.1376
  397MOL0     H53569   6.354   7.246  10.638 -1.0186 -3.7780 -1.5416
  397MOL0     H53570   6.444   7.366  10.534  1.8871 -1.1131  0.7246
  397MOL0     H53571   6.445   7.065  10.513  0.3671  0.2623 -1.0238
  397MOL0     H53572   6.517   7.172  10.391  0.5477  3.0616 -0.2603
  397MOL0     H53573   6.597   7.164  10.684 -0.5132  2.0488 -0.3774
  397MOL0     H53574   6.658   7.267  10.557  1.3037  0.2111  2.7937
  397MOL0     H53575   6.718   7.010  10.445  0.9888 -0.1345  0.2573
  397MOL0     H53576   6.715   6.983  10.618  4.4574  1.3700  2.8982
  397MOL0     H53577   5.554   7.134  10.369 -4.4572 -1.7466  0.2528
  397MOL0     H53578   5.380   6.976  10.347  0.1538  1.9886 -0.1645
  397MOL0     H53579   5.198   6.498  10.568  1.3160  0.7385  1.2338
  397MOL0     H53580   5.015   6.366  10.504  1.5172  1.4516  1.1748
  397MOL0     H53581   5.819   6.471   9.996 -1.5342  0.3671  1.1145
  397MOL0     H53582   5.971   6.672   9.926 -1.8405 -1.2447  0.2394
  397MOL0     H53583   6.311   6.963  10.068 -1.7397 -0.9816 -0.2897
  397MOL0     H53584   6.431   7.185  10.066  0.7121 -2.3900 -1.9445
  397MOL0     H53585   6.512   7.402  10.029 -1.3088  0.4072  2.1569
  397MOL0     H53586   6.485   7.381   9.853 -0.4107 -0.3667 -0.3993
  397MOL0     H53587   6.430   7.604   9.823  0.4831 -0.6173 -0.0239
  397MOL0     H53588   6.582   7.592   9.906 -0.2660  1.7575 -2.4910
  397MOL0     H53589   6.499   7.650  10.121 -0.5728 -1.6053 -0.4644
  397MOL0     H53590   6.328   7.649  10.066  0.4212 -1.9200  1.5885
  397MOL0     H53591   6.428   7.836   9.898  1.1899 -3.1355 -1.2532
  397MOL0     H53592   6.576   7.828   9.992  0.6651 -0.8650 -1.1073
  397MOL0     H53593   6.336   8.060  10.246  1.3478  2.4388 -2.4239
  397MOL0     H53594   6.076   7.364   9.908 -1.8023 -1.3467 -1.1221
  397MOL0     H53595   5.948   7.172   9.949  0.5772  2.1504 -0.6016
  398MOL0     O53596  11.200   4.301  10.497  0.3574  0.0274 -0.0274
  398MOL0     C53597  11.127   4.207  10.524  0.8594 -0.1321 -0.2786
  398MOL0     O53598  11.153   4.074  10.500  0.3483 -1.0769  0.0582
  398MOL0     C53599  11.269   4.039  10.442 -0.3687 -0.1598  0.4819
  398MOL0     C53600  11.362   3.971  10.524  0.4328  0.1608 -0.4774
  398MOL0     C53601  11.476   3.921  10.483  0.1250 -0.7580  0.7116
  398MOL0     C53602  11.514   3.948  10.354  1.5180  0.8754  0.5520
  398MOL0     O53603  11.629   3.896  10.309  0.4197 -0.1569  0.1351
  398MOL0     C53604  11.667   3.881  10.176  0.6258  0.6659  0.4702
  398MOL0     C53605  11.797   3.806  10.155 -0.2814  0.2727 -0.3709
  398MOL0     C53606  11.916   3.881  10.214  0.0691  0.9063 -0.6485
  398MOL0     C53607  12.054   3.845  10.148 -0.6035  0.7273  0.0638
  398MOL0     C53608  12.158   3.926  10.222  0.0923 -0.2227  0.4385
  398MOL0     C53609  12.290   3.902  10.156 -0.7971 -1.0054  0.4572
  398MOL0     C53610  12.398   4.001  10.221  0.5716  0.5311  0.7506
  398MOL0     C53611  12.515   4.020  10.132  0.1672 -0.6442 -0.2743
  398MOL0     N53612  12.594   3.902  10.103 -0.2749  0.5920 -0.5736
  398MOL0     C53613  12.616   3.789  10.170 -0.6938 -0.5534  0.2580
  398MOL0     C53614  12.723   3.733  10.116 -0.0881  0.2606 -0.3536
  398MOL0     C53615  12.793   3.603  10.159 -0.6371  0.7521 -0.7278
  398MOL0     C53616  12.751   3.491  10.062  0.0221 -0.7225  0.3744
  398MOL0     C53617  12.834   3.367  10.067  0.2049 -0.6170  1.2692
  398MOL0     C53618  12.858   3.310  10.207  0.3668 -1.4858 -0.2885
  398MOL0     O53619  12.721   3.272  10.236  0.3189 -0.6749 -0.1048
  398MOL0     C53620  12.698   3.234  10.367  0.0422  0.5312 -0.5977
  398MOL0     C53621  12.701   3.336  10.462 -0.3754 -0.2313 -0.5166
  398MOL0     C53622  12.681   3.308  10.596  0.0289 -0.9190  0.3123
  398MOL0     C53623  12.671   3.427  10.692  0.4615  0.0954  0.1060
  398MOL0     C53624  12.676   3.176  10.638  0.2964 -0.0039 -0.1362
  398MOL0     C53625  12.658   3.135  10.778 -0.0419 -0.0120 -0.2000
  398MOL0     O53626  12.742   3.033  10.813  0.3426 -0.5754 -0.2741
  398MOL0     C53627  12.756   2.998  10.945 -0.4538  0.1082 -0.9491
  398MOL0     C53628  12.655   2.928  11.006  0.1022  0.8223 -0.4690
  398MOL0     C53629  12.686   2.884  11.135 -0.2022  0.2646  0.0870
  398MOL0     C53630  12.803   2.916  11.206 -1.1491  0.4994  0.7214
  398MOL0     O53631  12.824   2.865  11.327  0.4753  0.3107  0.1588
  398MOL0     C53632  12.950   2.883  11.399  1.0643 -1.1001  0.2029
  398MOL0     C53633  12.947   2.993  11.503  0.5676 -0.2490 -0.0984
  398MOL0     C53634  12.884   3.124  11.444 -0.4970  0.2160 -0.3618
  398MOL0     C53635  12.858   3.211  11.563  0.4922  0.4138  1.0365
  398MOL0     C53636  12.841   3.355  11.530 -0.1470 -0.3184  0.5455
  398MOL0     C53637  12.803   3.439  11.653  0.1347 -0.2045  0.9463
  398MOL0     C53638  12.760   3.579  11.599  1.5717 -0.5501 -0.4447
  398MOL0     C53639  12.875   3.678  11.581  0.2958  0.0494 -0.5712
  398MOL0    Cl53640  12.937   3.736  11.748  0.1666  0.3240  0.1090
  398MOL0     C53641  12.893   2.999  11.140 -0.8574 -0.3164  0.5722
  398MOL0     C53642  12.866   3.039  11.011  0.0611 -0.3496  0.0560
  398MOL0     O53643  12.586   3.192  10.855  0.0931  1.0444 -0.6240
  398MOL0     C53644  12.691   3.075  10.539  0.3218  0.6877  0.1129
  398MOL0     C53645  12.703   3.106  10.404 -0.6088  0.7203 -0.2755
  398MOL0     N53646  12.776   3.812  10.018 -0.3335 -0.1417  0.0891
  398MOL0     N53647  12.689   3.904  10.002  0.4010 -0.3814 -0.2756
  398MOL0     C53648  11.433   4.028  10.268 -0.5407  0.2237  0.3514
  398MOL0     C53649  11.307   4.072  10.306  0.2319  0.1418 -0.2098
  398MOL0     C53650  10.992   4.230  10.566 -0.6937  0.3767 -0.1434
  398MOL0     C53651  10.925   4.348  10.522 -0.4077 -0.7120  0.3851
  398MOL0     C53652  10.797   4.374  10.566 -0.1106 -0.0951 -1.5103
  398MOL0     C53653  10.732   4.290  10.652  0.5259 -0.5676 -0.7179
  398MOL0     O53654  10.601   4.324  10.675  0.3090  0.0992 -0.0225
  398MOL0     C53655  10.525   4.241  10.763 -1.0986 -0.1571  0.6204
  398MOL0     C53656  10.415   4.336  10.827  0.5570 -0.2537 -0.1828
  398MOL0     C53657  10.310   4.253  10.900  0.2784 -0.0772 -0.5343
  398MOL0     C53658  10.244   4.330  11.016 -0.2256  0.1341  0.0003
  398MOL0     C53659  10.149   4.436  10.959  0.3227  0.5205 -0.4386
  398MOL0     C53660  10.064   4.504  10.932  0.2463  0.3222  1.3481
  398MOL0     C53661  10.798   4.172  10.689 -0.0160  0.3419 -0.0416
  398MOL0     C53662  10.930   4.140  10.652  0.3191  0.3483  0.5345
  398MOL0     H53663  11.325   3.954  10.625  1.6837  2.3433  0.4100
  398MOL0     H53664  11.541   3.861  10.546  4.1269 -0.4687 -2.6531
  398MOL0     H53665  11.593   3.827  10.118  1.6073 -2.2814  1.7893
  398MOL0     H53666  11.688   3.980  10.132 -1.8266  0.0568 -2.3527
  398MOL0     H53667  11.785   3.706  10.196 -0.0012 -0.8603 -2.8807
  398MOL0     H53668  11.819   3.796  10.048  1.6582  4.7789 -0.6521
  398MOL0     H53669  11.906   3.990  10.214  3.6380  1.4266  2.8672
  398MOL0     H53670  11.909   3.847  10.318  0.3786 -4.1911 -2.0064
  398MOL0     H53671  12.071   3.737  10.156  0.8544  0.5747 -3.4461
  398MOL0     H53672  12.046   3.880  10.045  2.7733  0.0888 -0.5292
  398MOL0     H53673  12.129   4.031  10.218  0.4404 -0.1302  0.3538
  398MOL0     H53674  12.160   3.893  10.327  0.2881  0.6041  0.7010
  398MOL0     H53675  12.336   3.806  10.180  3.1005  1.0422  2.0683
  398MOL0     H53676  12.284   3.921  10.048  4.5980  3.4743  0.4422
  398MOL0     H53677  12.351   4.097  10.244 -2.8000 -0.6406 -0.6098
  398MOL0     H53678  12.432   3.958  10.315  0.7029  0.8888  0.8673
  398MOL0     H53679  12.581   4.094  10.176  0.2530 -1.5473  1.1938
  398MOL0     H53680  12.482   4.056  10.035  1.1254 -0.2317 -0.4510
  398MOL0     H53681  12.561   3.743  10.252  1.1796 -3.3365  0.0999
  398MOL0     H53682  12.894   3.638  10.139 -0.9814  1.8873 -0.5669
  398MOL0     H53683  12.782   3.585  10.267 -1.2461  1.2072 -0.7087
  398MOL0     H53684  12.749   3.530   9.960  3.9171 -2.9649 -0.7825
  398MOL0     H53685  12.648   3.461  10.084 -0.3672  0.6002  0.4626
  398MOL0     H53686  12.930   3.387  10.020 -1.1521  0.8212 -1.0957
  398MOL0     H53687  12.790   3.287  10.006  0.2158 -1.3256  2.1756
  398MOL0     H53688  12.900   3.386  10.273 -0.8439  2.0005 -3.1514
  398MOL0     H53689  12.919   3.220  10.206  2.4588 -0.1576  0.4693
  398MOL0     H53690  12.707   3.438  10.426 -2.2086  0.1859  0.2666
  398MOL0     H53691  12.735   3.507  10.653 -0.0880  0.5597  0.1385
  398MOL0     H53692  12.570   3.469  10.692  0.3910 -0.0647  0.6035
  398MOL0     H53693  12.701   3.399  10.793  1.5952 -0.3602 -0.3489
  398MOL0     H53694  12.554   2.911  10.972 -1.1146  4.2551  0.9443
  398MOL0     H53695  12.604   2.844  11.193 -1.2340  3.6084  1.1649
  398MOL0     H53696  12.963   2.794  11.462 -0.4167  0.0595  2.2795
  398MOL0     H53697  13.040   2.897  11.338 -0.3811 -1.8624 -2.2537
  398MOL0     H53698  12.897   2.974  11.598 -0.5739  1.4245 -0.3274
  398MOL0     H53699  13.054   3.008  11.524  0.8919  0.8228 -2.1994
  398MOL0     H53700  12.794   3.111  11.383  1.2438 -0.7560 -2.8575
  398MOL0     H53701  12.960   3.169  11.380  0.1727 -1.4501 -0.7786
  398MOL0     H53702  12.775   3.160  11.612  0.5190 -1.4620 -0.6988
  398MOL0     H53703  12.949   3.216  11.623  0.3249 -0.4163  1.3652
  398MOL0     H53704  12.760   3.360  11.457  1.4142 -0.7264 -1.3122
  398MOL0     H53705  12.933   3.388  11.481  0.1385 -3.2947 -1.1368
  398MOL0     H53706  12.722   3.404  11.718 -1.7722  1.1148 -0.5979
  398MOL0     H53707  12.891   3.461  11.714 -0.9859  1.1837  2.1521
  398MOL0     H53708  12.686   3.621  11.669  1.0568 -1.2946 -0.5277
  398MOL0     H53709  12.713   3.568  11.501 -1.4692  4.8233  0.0153
  398MOL0     H53710  12.839   3.769  11.532 -0.0550  3.3715  4.9833
  398MOL0     H53711  12.957   3.636  11.522  0.9643  1.2812 -0.5486
  398MOL0     H53712  12.980   3.034  11.195 -0.2628 -0.6751 -0.1055
  398MOL0     H53713  12.936   3.090  10.947 -0.5364 -0.1382 -0.4309
  398MOL0     H53714  12.703   2.974  10.579 -0.1174  1.9631  3.8425
  398MOL0     H53715  12.727   3.031  10.330 -0.7609 -1.3695  1.6592
  398MOL0     H53716  11.462   4.057  10.167 -0.0680 -1.3125  0.0078
  398MOL0     H53717  11.253   4.135  10.236 -1.8824  0.0839  1.2657
  398MOL0     H53718  10.965   4.420  10.452 -1.2762 -1.7968 -1.2869
  398MOL0     H53719  10.748   4.461  10.523 -1.3576  0.3851  0.7276
  398MOL0     H53720  10.476   4.159  10.709 -0.8401 -0.8839  1.4550
  398MOL0     H53721  10.579   4.208  10.852  0.5422 -0.3318 -0.3899
  398MOL0     H53722  10.368   4.401  10.753  1.0384  0.2326 -0.0647
  398MOL0     H53723  10.461   4.402  10.902 -1.1244  0.8727 -0.1026
  398MOL0     H53724  10.369   4.176  10.951  1.6447  3.5455  4.0188
  398MOL0     H53725  10.235   4.216  10.829 -0.8803  0.4202  0.4027
  398MOL0     H53726  10.313   4.399  11.066  0.0370 -0.0642 -0.0854
  398MOL0     H53727  10.182   4.273  11.085 -0.7120  0.2374 -0.3431
  398MOL0     H53728   9.977   4.563  10.911 -0.7030 -1.4857 -0.1119
  398MOL0     H53729  10.730   4.105  10.741  0.9291 -1.4467 -1.0097
  398MOL0     H53730  10.978   4.048  10.685 -1.3557 -3.0701 -5.1889
  399MOL0     O53731   4.161  10.720  11.022 -0.5568 -0.4347  0.5116
  399MOL0     C53732   4.079  10.786  11.084 -0.0839  0.0012  0.3872
  399MOL0     O53733   3.978  10.849  11.029  0.0429  0.4842  0.2403
  399MOL0     C53734   3.940  10.804  10.906  0.2314  0.3375 -0.0531
  399MOL0     C53735   3.951  10.880  10.795  0.2115  1.1531 -0.6195
  399MOL0     C53736   3.900  10.837  10.668 -0.5462  1.4933  1.1069
  399MOL0     C53737   3.836  10.709  10.655 -0.9698 -0.6276  0.0025
  399MOL0     O53738   3.786  10.658  10.543 -0.4599  0.2098 -0.1735
  399MOL0     C53739   3.704  10.743  10.461  1.2402  0.7101 -0.6746
  399MOL0     C53740   3.735  10.723  10.315 -0.3420 -1.2225 -0.5941
  399MOL0     C53741   3.864  10.776  10.255  0.5925 -0.0780 -1.0469
  399MOL0     C53742   3.887  10.741  10.109 -0.0370  0.1739 -0.2817
  399MOL0     C53743   4.025  10.787  10.055  0.7673 -0.0630  0.7924
  399MOL0     C53744   4.020  10.796   9.905 -0.2805  0.1295 -0.8060
  399MOL0     C53745   4.140  10.881   9.852  0.4864  0.4071 -0.8058
  399MOL0     C53746   4.107  10.880   9.700 -0.0514  0.2646  0.7238
  399MOL0     N53747   4.201  10.945   9.614  0.2944 -0.5526  0.5831
  399MOL0     C53748   4.173  11.016   9.501 -0.3386 -0.4382  0.6390
  399MOL0     C53749   4.295  11.031   9.443 -0.5676 -0.6774  0.2689
  399MOL0     C53750   4.318  11.121   9.326 -0.4672 -0.5557 -0.5437
  399MOL0     C53751   4.268  11.061   9.190  0.1029  0.1770  1.1415
  399MOL0     C53752   4.368  10.976   9.112  0.1686 -0.1587 -0.7684
  399MOL0     C53753   4.395  10.838   9.175  0.1596 -1.2599 -0.8638
  399MOL0     O53754   4.288  10.755   9.143  0.7082 -0.5108 -0.3516
  399MOL0     C53755   4.291  10.616   9.137  1.0090  0.1488  0.1193
  399MOL0     C53756   4.407  10.539   9.142  0.2361 -0.7015  0.4154
  399MOL0     C53757   4.412  10.403   9.139 -0.4705  0.0569 -0.1145
  399MOL0     C53758   4.559  10.343   9.138  0.3395  0.4049 -0.9502
  399MOL0     C53759   4.289  10.333   9.109  0.1505  0.8083  0.3436
  399MOL0     C53760   4.272  10.184   9.090 -0.4482 -1.0197 -0.2531
  399MOL0     O53761   4.146  10.143   9.078  0.4220  0.5876 -0.5660
  399MOL0     C53762   4.109  10.021   9.137 -0.6847 -0.5737  0.1858
  399MOL0     C53763   4.070  10.022   9.266  0.1465  0.1204 -0.7969
  399MOL0     C53764   4.020   9.908   9.323  0.6351  0.8335 -0.1726
  399MOL0     C53765   4.030   9.786   9.253  0.4395  0.3022 -0.9462
  399MOL0     O53766   3.991   9.656   9.296  0.8865 -0.0094  0.9259
  399MOL0     C53767   3.940   9.648   9.428  0.3968  0.2762  1.3279
  399MOL0     C53768   3.929   9.510   9.481 -0.2092  0.5855 -0.0598
  399MOL0     C53769   3.812   9.444   9.413 -0.7478  0.5840  0.6625
  399MOL0     C53770   3.823   9.296   9.429  0.0563 -0.0599 -0.5342
  399MOL0     C53771   3.731   9.208   9.339 -0.0541  1.0791  0.5143
  399MOL0     C53772   3.587   9.214   9.393  0.3171  0.8724 -0.4919
  399MOL0     C53773   3.492   9.126   9.298 -0.8032  0.0986  0.2607
  399MOL0     C53774   3.348   9.155   9.300 -0.0485 -0.7057 -0.0913
  399MOL0    Cl53775   3.283   9.181   9.463 -0.0953  0.6221  0.0323
  399MOL0     C53776   4.082   9.784   9.118 -0.0954 -0.6061  0.2677
  399MOL0     C53777   4.110   9.908   9.059 -0.8541 -0.0919  0.3032
  399MOL0     O53778   4.365  10.107   9.092 -0.2644  0.2883  0.0320
  399MOL0     C53779   4.163  10.408   9.100  0.3819 -0.5256 -0.3730
  399MOL0     C53780   4.167  10.549   9.120 -0.2840  0.3767  0.3475
  399MOL0     N53781   4.398  10.970   9.522 -0.9169  0.1156 -0.3326
  399MOL0     N53782   4.337  10.933   9.627 -0.6280  0.2236  1.4119
  399MOL0     C53783   3.840  10.623  10.767  0.2920  0.5391 -1.2018
  399MOL0     C53784   3.888  10.671  10.895  0.6002  0.7612 -0.0688
  399MOL0     C53785   4.107  10.798  11.230  0.2816  0.0562  0.1046
  399MOL0     C53786   4.164  10.692  11.314 -0.9408  0.2716  0.4648
  399MOL0     C53787   4.206  10.714  11.447  0.8385  0.9651  0.6349
  399MOL0     C53788   4.173  10.842  11.506  0.7157  0.1600  0.5840
  399MOL0     O53789   4.184  10.881  11.632  0.8392 -0.5781 -0.1646
  399MOL0     C53790   4.205  10.788  11.728 -0.4486 -0.3431 -0.7304
  399MOL0     C53791   4.178  10.838  11.874  0.6739  0.2181  0.8627
  399MOL0     C53792   4.209  10.733  11.985 -0.1992  0.5816  0.1418
  399MOL0     C53793   4.115  10.764  12.098  0.9622  1.0559 -0.0590
  399MOL0     C53794   3.973  10.730  12.066  0.9837  0.2111 -0.3698
  399MOL0     C53795   3.859  10.690  12.057  0.4268 -0.1155  0.0634
  399MOL0     C53796   4.115  10.939  11.425  0.2834  0.2030 -0.3844
  399MOL0     C53797   4.074  10.922  11.291 -0.6536 -0.1821 -1.0892
  399MOL0     H53798   4.001  10.974  10.816  0.7484  0.3147  2.3431
  399MOL0     H53799   3.910  10.897  10.578  3.2713 -0.8774 -0.3000
  399MOL0     H53800   3.600  10.710  10.466  0.9911  1.6257  0.8055
  399MOL0     H53801   3.712  10.848  10.492  1.3583  1.6998 -3.7428
  399MOL0     H53802   3.711  10.623  10.278 -0.8112 -1.3020 -0.0900
  399MOL0     H53803   3.672  10.795  10.261  1.6743  0.9527 -0.2121
  399MOL0     H53804   3.849  10.885  10.255  0.3954 -0.1046 -0.8970
  399MOL0     H53805   3.943  10.732  10.317 -1.3664 -1.8104  0.3609
  399MOL0     H53806   3.861  10.636  10.098 -0.2332  0.2038 -0.1117
  399MOL0     H53807   3.809  10.800  10.061 -0.3287  1.2771  1.4417
  399MOL0     H53808   4.042  10.889  10.091  1.7609  0.0297  0.0802
  399MOL0     H53809   4.096  10.707  10.078 -1.0758 -2.2029 -0.5355
  399MOL0     H53810   4.027  10.691   9.876 -0.7046 -0.9674  2.6191
  399MOL0     H53811   3.925  10.842   9.878  0.1910  1.9824  0.5231
  399MOL0     H53812   4.136  10.986   9.884 -0.2041  0.1706 -0.0850
  399MOL0     H53813   4.238  10.841   9.878 -0.6741 -1.7348  0.5770
  399MOL0     H53814   4.012  10.932   9.683 -0.5583 -1.1777 -1.2605
  399MOL0     H53815   4.088  10.777   9.671 -0.3316  0.9323 -1.6987
  399MOL0     H53816   4.082  11.052   9.454 -0.4215  1.1764  1.9505
  399MOL0     H53817   4.270  11.216   9.351  0.8183 -0.2909  1.1283
  399MOL0     H53818   4.424  11.152   9.326 -1.2870  2.7259  0.8242
  399MOL0     H53819   4.244  11.145   9.125  2.3264  0.2692  0.3296
  399MOL0     H53820   4.175  11.005   9.202 -0.3643  0.7646  0.4031
  399MOL0     H53821   4.463  11.031   9.112 -0.5346  1.0943  0.7403
  399MOL0     H53822   4.329  10.971   9.009  0.2576 -1.8635 -0.7602
  399MOL0     H53823   4.400  10.850   9.283 -2.0642 -2.0339 -0.6282
  399MOL0     H53824   4.490  10.791   9.146  0.1445 -3.1931  1.8199
  399MOL0     H53825   4.503  10.584   9.119  0.3761 -0.3545  1.5939
  399MOL0     H53826   4.560  10.257   9.206 -0.9470  0.8721 -0.2912
  399MOL0     H53827   4.580  10.310   9.036  0.8330 -0.0987 -0.6956
  399MOL0     H53828   4.643  10.406   9.168  1.1268 -1.5750  1.3798
  399MOL0     H53829   4.086  10.107   9.330 -0.7346  3.1225 -4.2412
  399MOL0     H53830   3.977   9.909   9.422 -1.5212 -1.9910 -0.9530
  399MOL0     H53831   4.010   9.700   9.493 -1.0210  1.8429  1.6842
  399MOL0     H53832   3.845   9.701   9.441 -1.1152 -1.7998 -0.4835
  399MOL0     H53833   4.019   9.453   9.455  0.3589  1.9760 -1.2559
  399MOL0     H53834   3.926   9.505   9.590  2.0596  1.3026  0.1032
  399MOL0     H53835   3.833   9.456   9.306  3.7919 -3.4162  0.7508
  399MOL0     H53836   3.711   9.478   9.440 -1.6892 -0.8210 -0.8779
  399MOL0     H53837   3.927   9.269   9.405  0.5047  0.5673  0.6470
  399MOL0     H53838   3.811   9.262   9.532 -2.2518 -3.0174 -1.6119
  399MOL0     H53839   3.773   9.107   9.349  0.6019  1.4002  1.0459
  399MOL0     H53840   3.737   9.248   9.238 -0.0987  1.2466  0.5777
  399MOL0     H53841   3.592   9.180   9.497  0.7031  3.1475  0.2957
  399MOL0     H53842   3.563   9.321   9.390  0.2849  0.8629 -2.7724
  399MOL0     H53843   3.506   9.025   9.336 -1.1605  0.4716  1.4442
  399MOL0     H53844   3.522   9.124   9.193 -3.3758  1.5851 -0.6102
  399MOL0     H53845   3.290   9.074   9.253 -0.0082 -0.9031  0.1948
  399MOL0     H53846   3.328   9.248   9.246 -2.0292  0.4258  2.3777
  399MOL0     H53847   4.061   9.693   9.062 -2.2604  0.9899 -1.7306
  399MOL0     H53848   4.136   9.916   8.954  0.9144 -0.4808  0.6776
  399MOL0     H53849   4.067  10.361   9.081  0.4383 -1.2119  0.8943
  399MOL0     H53850   4.077  10.610   9.123 -0.4199  0.1749  0.4069
  399MOL0     H53851   3.803  10.522  10.755  1.2511  0.2081 -1.4512
  399MOL0     H53852   3.889  10.606  10.982 -0.3629  0.3988 -0.3221
  399MOL0     H53853   4.191  10.596  11.272  0.1530  0.6336  0.3042
  399MOL0     H53854   4.264  10.641  11.502 -1.9388 -1.5792  0.4292
  399MOL0     H53855   4.135  10.705  11.718 -0.0192 -0.6076 -1.6801
  399MOL0     H53856   4.303  10.740  11.719 -0.5872 -1.1886  1.5089
  399MOL0     H53857   4.076  10.876  11.879  0.8014  0.5421  1.0960
  399MOL0     H53858   4.242  10.925  11.894 -1.8507  2.0897  1.2363
  399MOL0     H53859   4.315  10.752  12.004  0.6830 -2.0794 -1.5859
  399MOL0     H53860   4.199  10.633  11.942 -0.6602  1.0018 -0.7649
  399MOL0     H53861   4.117  10.868  12.129 -0.3870  0.3839  2.4871
  399MOL0     H53862   4.152  10.706  12.183  1.0699  0.2904 -0.6124
  399MOL0     H53863   3.765  10.643  12.074  1.3771 -1.9052  0.6894
  399MOL0     H53864   4.090  11.038  11.461 -0.7522  0.0326 -0.6051
  399MOL0     H53865   4.021  11.004  11.242 -0.9483 -0.2647 -0.9079
  400MOL0     O53866   8.089   7.039   3.302 -0.3848 -0.3386  0.0088
  400MOL0     C53867   8.125   7.133   3.372  0.2186 -0.7756  0.0907
  400MOL0     O53868   8.237   7.209   3.336  0.0409  0.2309 -0.7490
  400MOL0     C53869   8.321   7.153   3.247 -0.2531 -0.1871  0.1992
  400MOL0     C53870   8.324   7.189   3.113  0.7679  0.4340  0.3568
  400MOL0     C53871   8.425   7.128   3.036 -0.3657 -0.9351  0.0383
  400MOL0     C53872   8.514   7.031   3.079  0.2542 -0.0345 -0.0990
  400MOL0     O53873   8.601   6.976   2.986 -0.0380  0.1675 -0.0698
  400MOL0     C53874   8.743   6.999   3.015  0.8518 -0.1208  0.0741
  400MOL0     C53875   8.852   6.958   2.911  0.2667  0.0246 -0.7490
  400MOL0     C53876   8.922   6.832   2.945  0.1815  1.4998 -0.2587
  400MOL0     C53877   8.826   6.708   2.974 -0.3180 -0.5556  0.1477
  400MOL0     C53878   8.745   6.656   2.842 -0.9202  0.2861  0.1287
  400MOL0     C53879   8.840   6.629   2.721 -0.4366 -0.0315 -0.6044
  400MOL0     C53880   8.761   6.589   2.603  0.5918 -0.5337  0.0877
  400MOL0     C53881   8.727   6.440   2.599  0.4127  0.1992 -0.0891
  400MOL0     N53882   8.647   6.382   2.487  0.2476  0.3929  0.6262
  400MOL0     C53883   8.695   6.291   2.384 -0.3838 -0.5742 -0.5910
  400MOL0     C53884   8.584   6.294   2.301  0.3228 -0.5736  0.1415
  400MOL0     C53885   8.576   6.212   2.171  0.7037  0.5071  0.6771
  400MOL0     C53886   8.633   6.283   2.050  0.0690  0.0127  0.2733
  400MOL0     C53887   8.776   6.341   2.078  0.8929  0.4628 -0.6632
  400MOL0     C53888   8.830   6.399   1.951  0.2490  0.2227 -0.4079
  400MOL0     O53889   8.948   6.469   1.993 -0.3117 -1.0410 -0.6239
  400MOL0     C53890   9.064   6.460   1.914  0.5886 -0.4426  0.5517
  400MOL0     C53891   9.057   6.453   1.771  0.8721  1.3412  1.1097
  400MOL0     C53892   9.176   6.438   1.693 -0.0858 -0.1824 -0.3925
  400MOL0     C53893   9.155   6.388   1.554 -0.1955  0.5123  0.0838
  400MOL0     C53894   9.298   6.446   1.756 -0.0169 -0.3325  0.0620
  400MOL0     C53895   9.440   6.430   1.693 -0.4951  0.4154  0.7063
  400MOL0     O53896   9.453   6.417   1.548 -0.7771 -0.1681 -0.1443
  400MOL0     C53897   9.575   6.443   1.491 -0.2546 -0.4311  0.5525
  400MOL0     C53898   9.649   6.558   1.504  0.0217 -0.3935  1.0465
  400MOL0     C53899   9.764   6.576   1.427  0.4542  0.2255 -0.1263
  400MOL0     C53900   9.805   6.470   1.342 -0.6171  0.4515  0.9070
  400MOL0     O53901   9.922   6.484   1.285  0.2241  0.4207  0.1643
  400MOL0     C53902   9.971   6.388   1.175  0.7821 -0.2217 -0.8250
  400MOL0     C53903  10.108   6.450   1.118  0.4910  0.2029 -0.6618
  400MOL0     C53904  10.148   6.376   0.999  0.3221 -0.5515  0.5290
  400MOL0     C53905  10.284   6.424   0.955  0.0661  0.1014  1.7752
  400MOL0     C53906  10.329   6.357   0.819  0.7168 -0.3931  0.5083
  400MOL0     C53907  10.477   6.342   0.788  0.2403  0.2755  0.7517
  400MOL0     C53908  10.561   6.468   0.818  0.0762 -0.0951  0.3778
  400MOL0     C53909  10.712   6.444   0.828 -0.6984  0.2308  0.2510
  400MOL0    Cl53910  10.785   6.339   0.707  0.0631 -0.0788 -0.2186
  400MOL0     C53911   9.739   6.351   1.340  0.6963 -0.5400  0.1404
  400MOL0     C53912   9.623   6.331   1.414 -0.2355  0.0618 -0.2950
  400MOL0     O53913   9.538   6.432   1.771  0.6073  0.2931 -0.4339
  400MOL0     C53914   9.301   6.478   1.891  0.4689 -0.3798 -0.4718
  400MOL0     C53915   9.187   6.467   1.965  0.6445 -0.8054  0.0222
  400MOL0     N53916   8.484   6.384   2.337  0.1898  0.1598 -0.1901
  400MOL0     N53917   8.514   6.413   2.452 -0.0077  0.4506  0.1933
  400MOL0     C53918   8.499   6.985   3.208 -1.2607 -0.2578 -0.8435
  400MOL0     C53919   8.409   7.048   3.297 -0.2160  0.0342 -0.5362
  400MOL0     C53920   8.046   7.159   3.508 -0.0966 -0.0610  0.5715
  400MOL0     C53921   7.921   7.098   3.516 -0.2223  0.3789  1.1162
  400MOL0     C53922   7.836   7.110   3.627  0.2090  0.3845  0.0225
  400MOL0     C53923   7.878   7.190   3.738 -0.2511 -0.3032  0.5501
  400MOL0     O53924   7.801   7.227   3.848  1.0920 -0.6884 -0.3655
  400MOL0     C53925   7.655   7.185   3.849 -0.4826  0.0826  0.1341
  400MOL0     C53926   7.647   7.083   3.966 -0.3114 -0.1090  0.1413
  400MOL0     C53927   7.497   7.061   3.999  0.7619  0.3995 -0.6675
  400MOL0     C53928   7.428   7.183   4.075  0.4076 -0.1865 -0.1073
  400MOL0     C53929   7.407   7.166   4.217 -0.8798 -0.2209  1.0843
  400MOL0     C53930   7.367   7.146   4.338 -0.3692 -0.6407 -0.2770
  400MOL0     C53931   7.998   7.256   3.722 -0.3833 -0.6226  1.0090
  400MOL0     C53932   8.079   7.239   3.611 -0.2658 -0.2665 -0.3902
  400MOL0     H53933   8.246   7.253   3.072  0.8813 -0.8427 -2.0427
  400MOL0     H53934   8.439   7.161   2.934 -0.2689 -0.0645  0.3201
  400MOL0     H53935   8.745   7.107   3.035 -1.4711  0.1935 -1.0770
  400MOL0     H53936   8.765   6.950   3.110  2.3960  1.7028  0.7267
  400MOL0     H53937   8.807   6.935   2.814  0.0619 -3.0939 -0.0272
  400MOL0     H53938   8.921   7.043   2.911 -4.4188  4.4923  2.6280
  400MOL0     H53939   8.996   6.805   2.869  0.5949 -1.1645  0.9587
  400MOL0     H53940   8.976   6.844   3.039 -0.0408  0.1174  0.0635
  400MOL0     H53941   8.887   6.624   3.008 -1.0064 -1.3193 -0.4618
  400MOL0     H53942   8.756   6.743   3.050  1.8098  2.4419  0.9192
  400MOL0     H53943   8.685   6.565   2.858 -1.2821  0.3781 -0.6221
  400MOL0     H53944   8.669   6.734   2.832  0.9140  2.0055 -1.2208
  400MOL0     H53945   8.886   6.725   2.695  1.0451 -0.6885 -0.5089
  400MOL0     H53946   8.912   6.553   2.751  0.3625  0.3201 -1.5591
  400MOL0     H53947   8.668   6.645   2.608 -0.3452 -2.0999  0.8436
  400MOL0     H53948   8.807   6.611   2.506 -2.0202  1.7206 -0.7525
  400MOL0     H53949   8.677   6.415   2.693  0.0877 -1.7321 -0.7283
  400MOL0     H53950   8.819   6.382   2.610 -0.0527 -0.3504  1.1337
  400MOL0     H53951   8.791   6.244   2.368  1.0211  2.7975 -2.9739
  400MOL0     H53952   8.616   6.111   2.183 -1.9487 -1.0892 -2.4120
  400MOL0     H53953   8.468   6.192   2.163  0.9921 -0.5978 -0.7040
  400MOL0     H53954   8.566   6.365   2.021 -0.0878  0.5246  1.9530
  400MOL0     H53955   8.630   6.218   1.963 -0.9940 -1.9579  1.7238
  400MOL0     H53956   8.835   6.255   2.111  0.7805  0.4698 -0.4436
  400MOL0     H53957   8.777   6.431   2.140 -1.8729 -1.0194  1.7847
  400MOL0     H53958   8.760   6.472   1.907 -0.8730 -0.7550 -0.2847
  400MOL0     H53959   8.855   6.317   1.883  0.8322 -0.4980  0.6545
  400MOL0     H53960   8.962   6.444   1.720  0.0542 -1.4324  2.8872
  400MOL0     H53961   9.181   6.282   1.557  2.5271  1.0545  3.9185
  400MOL0     H53962   9.048   6.388   1.531 -0.3174 -0.2904  0.6090
  400MOL0     H53963   9.216   6.449   1.487  0.3013  3.1434  2.7130
  400MOL0     H53964   9.612   6.631   1.574 -1.6834  0.0362 -0.2512
  400MOL0     H53965   9.828   6.662   1.441 -0.8737  0.8901  2.3918
  400MOL0     H53966   9.992   6.291   1.221  2.4663  0.8780  0.8540
  400MOL0     H53967   9.897   6.365   1.098  0.7157  2.2418 -1.5984
  400MOL0     H53968  10.080   6.550   1.084 -1.9885 -0.6420 -1.3431
  400MOL0     H53969  10.191   6.465   1.187  0.8835  2.5026 -1.5524
  400MOL0     H53970  10.082   6.387   0.912  3.9550 -3.3361 -2.9980
  400MOL0     H53971  10.154   6.274   1.038  0.7341 -1.8754 -2.6644
  400MOL0     H53972  10.279   6.531   0.934  1.2588 -0.6420 -3.9039
  400MOL0     H53973  10.357   6.399   1.032  0.0239 -0.6100  1.5852
  400MOL0     H53974  10.289   6.420   0.740 -2.1930  1.2295  3.0551
  400MOL0     H53975  10.279   6.260   0.823 -1.5253  0.6804 -0.2345
  400MOL0     H53976  10.526   6.257   0.838  3.2809  0.1555 -2.0499
  400MOL0     H53977  10.486   6.319   0.682  0.9814  2.8688  0.1793
  400MOL0     H53978  10.541   6.503   0.920 -0.1847 -1.2226  0.7279
  400MOL0     H53979  10.535   6.531   0.733  3.3402 -2.3818 -2.6182
  400MOL0     H53980  10.730   6.384   0.918  0.1478 -0.2191 -0.1990
  400MOL0     H53981  10.756   6.544   0.826 -3.3944  1.5414 -3.5571
  400MOL0     H53982   9.754   6.280   1.260  0.6990  0.5043 -0.8126
  400MOL0     H53983   9.587   6.229   1.412  0.2072 -0.1292  0.9441
  400MOL0     H53984   9.399   6.496   1.936  0.7741 -1.7377 -0.5412
  400MOL0     H53985   9.197   6.479   2.073 -0.1367  0.5878 -0.0312
  400MOL0     H53986   8.559   6.909   3.256  0.3450 -1.5747 -4.5377
  400MOL0     H53987   8.398   7.017   3.400  0.5508 -1.9595 -1.0154
  400MOL0     H53988   7.902   7.027   3.437  1.1037 -0.8723  1.8879
  400MOL0     H53989   7.740   7.060   3.618  0.8287 -0.8610  0.1623
  400MOL0     H53990   7.585   7.270   3.851  0.9323  1.2852  0.7997
  400MOL0     H53991   7.616   7.133   3.761 -2.6330 -0.9925  1.6163
  400MOL0     H53992   7.709   7.104   4.053  2.0658 -2.6019 -0.7717
  400MOL0     H53993   7.685   6.996   3.910  1.8571  2.1473 -2.2046
  400MOL0     H53994   7.491   6.970   4.059 -0.9048 -0.2333 -1.7208
  400MOL0     H53995   7.436   7.042   3.910  0.6965  0.1721 -0.5737
  400MOL0     H53996   7.333   7.208   4.028 -0.2079 -0.9301  0.6896
  400MOL0     H53997   7.493   7.270   4.061 -1.3907  0.9382 -2.0101
  400MOL0     H53998   7.333   7.131   4.438 -1.7440  2.9319 -0.0688
  400MOL0     H53999   8.019   7.330   3.798  0.2395  1.0320 -0.6913
  400MOL0     H54000   8.173   7.291   3.605  1.0042 -2.2767  0.7791
  401MOL0     O54001   0.735   6.524   8.517  0.6688  0.2899 -0.2214
  401MOL0     C54002   0.637   6.454   8.541  0.8551 -0.2817 -0.7233
  401MOL0     O54003   0.565   6.452   8.658 -0.1419 -0.1367 -0.0233
  401MOL0     C54004   0.601   6.527   8.768  0.1913 -0.2167  0.1376
  401MOL0     C54005   0.644   6.657   8.760  1.2122 -0.3435  0.7202
  401MOL0     C54006   0.663   6.724   8.873  0.2384 -0.0647 -0.1048
  401MOL0     C54007   0.639   6.673   8.997  0.6510  0.1396  0.5789
  401MOL0     O54008   0.664   6.739   9.113  0.1033  0.4228 -0.2644
  401MOL0     C54009   0.685   6.880   9.123 -0.6595  0.7950  0.7635
  401MOL0     C54010   0.789   6.906   9.232  0.0296 -0.5388 -0.6602
  401MOL0     C54011   0.744   6.857   9.374  0.3753 -0.0681  0.7175
  401MOL0     C54012   0.822   6.920   9.490 -0.8522 -0.2257  0.5252
  401MOL0     C54013   0.790   6.859   9.629 -0.6440 -0.9178  0.7743
  401MOL0     C54014   0.870   6.736   9.671 -0.1598 -0.2780 -1.1361
  401MOL0     C54015   0.841   6.690   9.815  0.3952  0.4989  0.2281
  401MOL0     C54016   0.707   6.614   9.839 -0.5199  1.0890  0.1766
  401MOL0     N54017   0.675   6.556   9.965  0.3555  0.0185 -0.5797
  401MOL0     C54018   0.648   6.641  10.068  0.3860  0.0707  0.7362
  401MOL0     C54019   0.615   6.556  10.175  0.2977  1.3530 -0.2412
  401MOL0     C54020   0.562   6.582  10.313  0.8401  0.0590 -0.7265
  401MOL0     C54021   0.629   6.707  10.373 -0.8726 -0.3030  0.6876
  401MOL0     C54022   0.616   6.702  10.533 -1.0127  0.3697 -0.1830
  401MOL0     C54023   0.705   6.804  10.588 -0.0588 -0.3673 -0.3950
  401MOL0     O54024   0.693   6.804  10.732  0.1240  0.0837  0.0855
  401MOL0     C54025   0.761   6.713  10.806 -0.6628 -0.7101  0.0282
  401MOL0     C54026   0.727   6.672  10.928  0.7153 -0.7416  0.1604
  401MOL0     C54027   0.795   6.585  11.005  0.8977 -0.2411 -0.1164
  401MOL0     C54028   0.738   6.544  11.136 -0.2544  1.3425 -0.7152
  401MOL0     C54029   0.924   6.537  10.969 -0.7494  0.1416 -0.1443
  401MOL0     C54030   1.024   6.469  11.062  0.7179  1.0100  1.0167
  401MOL0     O54031   0.976   6.421  11.178  0.0026 -0.2975 -0.9560
  401MOL0     C54032   1.067   6.344  11.249 -0.4234 -0.5851 -0.0859
  401MOL0     C54033   1.165   6.404  11.328  0.1612 -0.6082 -0.4630
  401MOL0     C54034   1.241   6.321  11.411  0.5206 -1.9752  0.5607
  401MOL0     C54035   1.223   6.183  11.418 -0.7821 -0.6690 -0.6477
  401MOL0     O54036   1.296   6.108  11.501  0.5258  0.1543  0.1337
  401MOL0     C54037   1.433   6.127  11.511 -0.2957  0.3101  0.6709
  401MOL0     C54038   1.502   5.994  11.507  0.6593  0.5146 -0.1811
  401MOL0     C54039   1.623   5.965  11.596  0.4722  0.0471 -0.1108
  401MOL0     C54040   1.627   6.054  11.719 -0.2528  0.3929 -0.2266
  401MOL0     C54041   1.745   6.005  11.812 -0.4978  0.2943 -0.2491
  401MOL0     C54042   1.723   6.065  11.943  0.4761 -0.4433 -0.8012
  401MOL0     C54043   1.764   6.211  11.958  0.0691  0.0230 -0.8865
  401MOL0     C54044   1.919   6.238  11.927  0.1056  0.3269 -0.4577
  401MOL0    Cl54045   2.031   6.146  12.029  0.3124  0.1171 -0.0632
  401MOL0     C54046   1.127   6.128  11.337  0.3585  0.3451 -0.4943
  401MOL0     C54047   1.045   6.209  11.256  0.1974  0.1293 -0.1427
  401MOL0     O54048   1.137   6.453  11.016 -0.2234  0.2912 -0.0766
  401MOL0     C54049   0.971   6.582  10.848  0.0478 -0.2956 -0.2352
  401MOL0     C54050   0.889   6.669  10.767  0.3588  0.6208  0.2007
  401MOL0     N54051   0.625   6.427  10.133  0.0057 -0.0503  0.4678
  401MOL0     N54052   0.661   6.424  10.009  0.0865 -0.1111 -0.9857
  401MOL0     C54053   0.589   6.542   9.009  0.2928 -0.3527 -0.0384
  401MOL0     C54054   0.574   6.466   8.894 -0.1296 -0.0302  0.2547
  401MOL0     C54055   0.585   6.362   8.437  0.3517 -0.0537  0.7851
  401MOL0     C54056   0.487   6.266   8.468  0.8319 -0.2842  0.2757
  401MOL0     C54057   0.440   6.183   8.365  0.9029  0.5678 -0.2877
  401MOL0     C54058   0.486   6.193   8.233 -0.7873 -0.9251 -0.5913
  401MOL0     O54059   0.435   6.099   8.143 -0.4147  0.4122 -0.7831
  401MOL0     C54060   0.491   6.062   8.014 -0.3702 -0.2299  0.2357
  401MOL0     C54061   0.610   5.972   8.025 -0.3150  0.0875  0.0645
  401MOL0     C54062   0.712   5.969   7.906 -0.5553  1.2285  1.0261
  401MOL0     C54063   0.854   5.927   7.967  0.8162  0.3090  0.2488
  401MOL0     C54064   0.944   5.913   7.856  0.4906 -0.2888  0.7457
  401MOL0     C54065   1.019   5.898   7.755 -0.2401 -0.9595 -0.1857
  401MOL0     C54066   0.591   6.283   8.206 -0.2926 -0.4380 -0.3691
  401MOL0     C54067   0.635   6.370   8.304 -0.4658 -1.0822 -0.3897
  401MOL0     H54068   0.645   6.701   8.661 -1.0077 -0.7022  0.4958
  401MOL0     H54069   0.703   6.822   8.851  2.6664 -1.0563 -0.3960
  401MOL0     H54070   0.728   6.931   9.036  3.9875 -1.4212  1.4715
  401MOL0     H54071   0.590   6.930   9.146  0.4428  4.2992 -1.4795
  401MOL0     H54072   0.883   6.859   9.202 -0.6327  0.0276 -4.0176
  401MOL0     H54073   0.823   7.010   9.234  2.7454 -1.3596 -0.6241
  401MOL0     H54074   0.641   6.879   9.402  1.4481  2.2685  3.3706
  401MOL0     H54075   0.751   6.748   9.381  1.0107  0.0616  2.5553
  401MOL0     H54076   0.926   6.896   9.470 -2.0007 -3.5858 -2.5674
  401MOL0     H54077   0.793   7.025   9.504  2.4090  0.7452  0.7216
  401MOL0     H54078   0.810   6.940   9.699 -1.0753 -0.4184  0.3354
  401MOL0     H54079   0.683   6.842   9.643 -1.0565  2.3655  2.6343
  401MOL0     H54080   0.854   6.658   9.596  0.5507  0.3068 -1.9237
  401MOL0     H54081   0.976   6.757   9.655  0.3203 -1.2097  0.5326
  401MOL0     H54082   0.926   6.628   9.845  0.3591 -0.9120 -2.2566
  401MOL0     H54083   0.839   6.780   9.875  2.2999 -2.6382  5.6911
  401MOL0     H54084   0.701   6.526   9.775 -1.3480  0.5201  1.0012
  401MOL0     H54085   0.628   6.688   9.819 -2.2093 -1.2476 -2.5212
  401MOL0     H54086   0.653   6.750  10.065 -0.6092  0.2129  2.7483
  401MOL0     H54087   0.453   6.590  10.312  0.4230 -3.7944 -1.3286
  401MOL0     H54088   0.589   6.500  10.380 -0.1635  1.2907  1.2668
  401MOL0     H54089   0.596   6.805  10.338 -0.7759 -0.7521 -0.7451
  401MOL0     H54090   0.737   6.702  10.355 -0.7209 -1.8913  1.8289
  401MOL0     H54091   0.661   6.617  10.585  1.4743  2.5065  1.4325
  401MOL0     H54092   0.517   6.716  10.577  0.1439  1.4297  2.2654
  401MOL0     H54093   0.680   6.907  10.559 -3.1497 -1.2482 -1.2329
  401MOL0     H54094   0.810   6.795  10.559  0.6694 -0.1037  1.9240
  401MOL0     H54095   0.632   6.707  10.967  1.5700  0.1877  1.4789
  401MOL0     H54096   0.633   6.573  11.146 -1.0349 -0.9092 -1.8504
  401MOL0     H54097   0.740   6.435  11.140  1.3112  1.1271 -3.8941
  401MOL0     H54098   0.801   6.580  11.218  2.3031 -0.6061 -1.6576
  401MOL0     H54099   1.189   6.510  11.327 -1.2044 -0.2800  0.0106
  401MOL0     H54100   1.314   6.364  11.480 -1.9735  3.9087  0.1268
  401MOL0     H54101   1.488   6.202  11.454  0.7387 -0.0149  1.2069
  401MOL0     H54102   1.425   6.163  11.614 -2.4422  3.1333 -0.3273
  401MOL0     H54103   1.428   5.919  11.534  1.5971 -0.8685 -1.3279
  401MOL0     H54104   1.525   5.966  11.404  0.0898 -2.9258  0.5236
  401MOL0     H54105   1.717   5.981  11.543 -0.9701  1.6189 -2.3630
  401MOL0     H54106   1.612   5.861  11.629  3.3016 -0.6842 -1.2267
  401MOL0     H54107   1.652   6.155  11.686  0.3184  0.2927 -0.1173
  401MOL0     H54108   1.535   6.057  11.777  1.4724  2.0279  2.6557
  401MOL0     H54109   1.845   6.017  11.771 -1.2835  0.1877 -2.3343
  401MOL0     H54110   1.729   5.898  11.829 -0.6121  0.2572 -0.5797
  401MOL0     H54111   1.620   6.069  11.980 -0.1296  1.3004 -2.4862
  401MOL0     H54112   1.777   6.007  12.018 -1.2278 -1.0115  0.0472
  401MOL0     H54113   1.735   6.253  12.055  2.0142  0.4771 -0.4637
  401MOL0     H54114   1.699   6.269  11.892 -0.3631 -1.6533 -2.0206
  401MOL0     H54115   1.946   6.343  11.937  0.6907  0.2068 -0.6993
  401MOL0     H54116   1.934   6.217  11.820 -0.2960  0.8080 -0.6117
  401MOL0     H54117   1.110   6.021  11.326  1.5428  0.2832 -2.0067
  401MOL0     H54118   0.967   6.163  11.197 -0.3460 -1.5980  1.8094
  401MOL0     H54119   1.068   6.555  10.808  0.0900 -0.2652 -0.1524
  401MOL0     H54120   0.934   6.705  10.674  0.5779  1.5106  0.6393
  401MOL0     H54121   0.582   6.506   9.111  0.8135  3.2688  1.4259
  401MOL0     H54122   0.531   6.366   8.893  2.1481 -1.2907 -4.7820
  401MOL0     H54123   0.446   6.252   8.568  0.7898 -5.3235 -0.1906
  401MOL0     H54124   0.361   6.112   8.386 -0.3227  1.4817 -1.6136
  401MOL0     H54125   0.408   6.021   7.956 -0.4778  1.7644 -1.0900
  401MOL0     H54126   0.520   6.148   7.953  3.4425 -2.5884 -1.7292
  401MOL0     H54127   0.573   5.869   8.037  1.6473 -0.5588  0.9772
  401MOL0     H54128   0.666   6.012   8.110 -0.5591  0.4316  0.0627
  401MOL0     H54129   0.721   6.072   7.869 -1.0378  1.2581  0.9845
  401MOL0     H54130   0.690   5.906   7.819 -1.1838  1.5608  0.9411
  401MOL0     H54131   0.848   5.832   8.021  0.7153 -0.3691 -0.9145
  401MOL0     H54132   0.900   5.997   8.037 -2.1607  1.9613  0.7019
  401MOL0     H54133   1.075   5.876   7.667  2.1568  5.3716 -0.7442
  401MOL0     H54134   0.631   6.262   8.107 -0.1453 -1.1620 -0.1593
  401MOL0     H54135   0.714   6.441   8.279 -3.4499  2.7066  0.1492
  402MOL0     O54136   5.532   6.330   4.210  0.1077 -0.2218  0.1575
  402MOL0     C54137   5.451   6.384   4.279  0.4158 -0.2165  0.6147
  402MOL0     O54138   5.411   6.340   4.397 -0.0998  0.4934 -0.3177
  402MOL0     C54139   5.494   6.254   4.471  0.4853 -0.4051 -0.1668
  402MOL0     C54140   5.573   6.313   4.573 -0.2941  0.5941  0.4167
  402MOL0     C54141   5.661   6.231   4.640 -0.3098 -0.0931  0.1568
  402MOL0     C54142   5.672   6.097   4.614 -0.3898  0.2112  0.7494
  402MOL0     O54143   5.781   6.039   4.682  0.1486 -0.1128 -0.2480
  402MOL0     C54144   5.787   5.898   4.689  0.0137 -0.0457  0.3095
  402MOL0     C54145   5.895   5.852   4.791 -0.9369 -0.3674  0.2100
  402MOL0     C54146   5.897   5.690   4.800  0.3149 -0.1505  1.4819
  402MOL0     C54147   6.024   5.637   4.858 -0.2045 -0.7598 -0.2331
  402MOL0     C54148   6.019   5.478   4.873  0.2971 -0.8081  0.3273
  402MOL0     C54149   5.999   5.439   5.015 -0.0089 -0.2042  0.2177
  402MOL0     C54150   6.130   5.413   5.092 -0.4206  0.1851  0.3993
  402MOL0     C54151   6.117   5.400   5.246  0.1530  0.4593  0.7045
  402MOL0     N54152   6.226   5.326   5.299  0.1449  0.5524  0.9498
  402MOL0     C54153   6.225   5.188   5.318 -0.6452  0.4952  0.0218
  402MOL0     C54154   6.312   5.170   5.420  0.0305  0.4886  0.1364
  402MOL0     C54155   6.320   5.044   5.501 -0.5535 -0.0292 -0.1627
  402MOL0     C54156   6.443   5.037   5.600 -1.0523  0.7586 -0.1324
  402MOL0     C54157   6.447   4.916   5.683 -0.2867  0.1408  0.5879
  402MOL0     C54158   6.446   4.777   5.619 -0.3979 -0.7846 -0.0750
  402MOL0     O54159   6.537   4.685   5.675 -0.2941  0.2542 -0.8536
  402MOL0     C54160   6.549   4.569   5.602 -0.4686 -0.6872 -0.2066
  402MOL0     C54161   6.632   4.559   5.484  0.4103 -0.3077 -1.4723
  402MOL0     C54162   6.652   4.432   5.426  0.7023 -1.0614  0.4196
  402MOL0     C54163   6.737   4.428   5.304 -0.5891  1.0686  0.3840
  402MOL0     C54164   6.609   4.319   5.487  0.1801 -0.1447  0.4121
  402MOL0     C54165   6.628   4.186   5.425  0.0093  0.3202 -0.0857
  402MOL0     O54166   6.523   4.139   5.366 -1.1872  0.3328 -0.1521
  402MOL0     C54167   6.514   4.008   5.331  0.1502  0.0745 -0.8027
  402MOL0     C54168   6.547   3.904   5.420  1.0097 -0.7881  0.4704
  402MOL0     C54169   6.542   3.773   5.383 -0.0376  0.8444  0.1025
  402MOL0     C54170   6.497   3.735   5.257  0.6764  0.0359  0.0761
  402MOL0     O54171   6.489   3.608   5.209 -0.4088  0.2995  0.4061
  402MOL0     C54172   6.432   3.499   5.285  0.2538 -0.5707  0.2466
  402MOL0     C54173   6.531   3.389   5.285 -0.2125  0.3598  0.4060
  402MOL0     C54174   6.492   3.285   5.395 -0.1025 -0.2414  0.6304
  402MOL0     C54175   6.611   3.191   5.412 -0.0870 -0.1133  0.4226
  402MOL0     C54176   6.609   3.116   5.545 -0.0939  0.7653 -0.2217
  402MOL0     C54177   6.712   3.005   5.575 -0.1055  0.3188 -0.8894
  402MOL0     C54178   6.852   3.055   5.600 -0.0442  0.2748  0.8437
  402MOL0     C54179   6.867   3.132   5.734  0.2383  0.5496  0.2447
  402MOL0    Cl54180   6.835   3.012   5.858  0.4021  0.1433 -0.3323
  402MOL0     C54181   6.459   3.837   5.174  0.3878 -0.9779  0.2730
  402MOL0     C54182   6.454   3.974   5.212  0.0201 -0.3248 -0.0399
  402MOL0     O54183   6.734   4.131   5.444  0.8830  0.7138  0.4717
  402MOL0     C54184   6.541   4.324   5.610 -0.8007 -0.0035  0.6466
  402MOL0     C54185   6.516   4.450   5.668 -0.5908  0.0202  0.4992
  402MOL0     N54186   6.370   5.298   5.451 -0.4707  0.5857 -0.4533
  402MOL0     N54187   6.313   5.389   5.379  0.7616  0.1330 -0.1028
  402MOL0     C54188   5.595   6.042   4.517 -0.1882  0.6701 -1.1382
  402MOL0     C54189   5.505   6.115   4.447 -0.1985  0.2914 -0.4091
  402MOL0     C54190   5.357   6.491   4.223  0.4216  0.0282  0.4211
  402MOL0     C54191   5.308   6.587   4.312 -0.1353 -0.8484 -0.5144
  402MOL0     C54192   5.222   6.690   4.272  0.7807  0.2430 -0.8805
  402MOL0     C54193   5.171   6.695   4.143 -0.6206 -0.3108  1.8164
  402MOL0     O54194   5.080   6.774   4.098 -0.3547 -0.0844  0.0430
  402MOL0     C54195   5.055   6.901   4.156 -0.2256 -0.2135  0.0993
  402MOL0     C54196   4.934   6.967   4.080 -0.2298  0.7876  0.6403
  402MOL0     C54197   4.976   7.061   3.963 -0.0696 -0.5431  0.7427
  402MOL0     C54198   4.854   7.135   3.928  1.1457 -0.2014 -1.5200
  402MOL0     C54199   4.839   7.251   4.014 -0.2287  0.5878  0.4829
  402MOL0     C54200   4.804   7.349   4.070  0.2436 -0.1266  0.1323
  402MOL0     C54201   5.224   6.606   4.055  0.5328 -0.0326  0.4913
  402MOL0     C54202   5.310   6.502   4.090 -1.0396  0.8998 -0.8268
  402MOL0     H54203   5.574   6.420   4.590  2.0567  0.3617  2.1064
  402MOL0     H54204   5.721   6.280   4.716 -0.7510 -1.1123  1.2013
  402MOL0     H54205   5.688   5.865   4.723  0.3348  0.3675  1.7404
  402MOL0     H54206   5.815   5.871   4.587 -2.1390  0.0211 -0.3295
  402MOL0     H54207   5.991   5.894   4.761 -1.9335  0.7296 -1.6366
  402MOL0     H54208   5.888   5.885   4.895  0.9846 -0.3005  0.3505
  402MOL0     H54209   5.807   5.661   4.854 -0.1143  4.0872  3.3890
  402MOL0     H54210   5.888   5.648   4.699 -0.9641 -1.4657  2.0990
  402MOL0     H54211   6.110   5.661   4.795  1.5022 -0.4083  2.0704
  402MOL0     H54212   6.038   5.691   4.952 -1.4822 -3.1353  1.4358
  402MOL0     H54213   5.927   5.446   4.823 -0.3365  2.6745 -0.9749
  402MOL0     H54214   6.105   5.432   4.824  0.1723 -0.4851 -0.1966
  402MOL0     H54215   5.933   5.510   5.065  1.3403 -1.2297  3.8271
  402MOL0     H54216   5.949   5.341   5.011 -0.8874  0.2676 -1.9438
  402MOL0     H54217   6.166   5.319   5.049 -1.0720  0.3059 -0.4342
  402MOL0     H54218   6.211   5.481   5.067  0.2945 -0.2943  1.3273
  402MOL0     H54219   6.025   5.342   5.253  1.7280 -2.1959  0.7572
  402MOL0     H54220   6.107   5.499   5.291 -1.2029  0.3939  0.5835
  402MOL0     H54221   6.160   5.107   5.286 -0.8442  0.6313  0.0787
  402MOL0     H54222   6.226   5.023   5.553 -0.1929  0.1941  0.5902
  402MOL0     H54223   6.334   4.952   5.443 -0.8873 -1.3227  1.7196
  402MOL0     H54224   6.452   5.128   5.659  0.4600  0.0759  0.7556
  402MOL0     H54225   6.532   5.036   5.537 -0.9007 -2.7097 -0.0544
  402MOL0     H54226   6.359   4.918   5.747 -0.4923 -1.4714  0.4060
  402MOL0     H54227   6.532   4.919   5.751 -0.0342 -0.2482  0.2946
  402MOL0     H54228   6.487   4.785   5.518  0.6491  0.7870  0.4276
  402MOL0     H54229   6.344   4.738   5.624 -0.3132 -0.9287  0.9025
  402MOL0     H54230   6.681   4.650   5.451 -2.0818  2.0748  0.8121
  402MOL0     H54231   6.680   4.371   5.230 -0.1373  0.9404  0.1259
  402MOL0     H54232   6.737   4.526   5.255  0.4484  0.9476  0.1119
  402MOL0     H54233   6.840   4.395   5.324 -0.4489  0.3735 -1.2790
  402MOL0     H54234   6.594   3.936   5.513  1.0688  1.9007 -0.3972
  402MOL0     H54235   6.574   3.693   5.448 -0.4602 -0.7332 -1.5611
  402MOL0     H54236   6.429   3.517   5.393  1.8133 -0.7374  0.3497
  402MOL0     H54237   6.331   3.471   5.254  0.3238 -0.7794  0.2031
  402MOL0     H54238   6.548   3.334   5.192  1.9393 -2.8574  2.4835
  402MOL0     H54239   6.629   3.425   5.317  1.5776 -2.7245 -1.1506
  402MOL0     H54240   6.405   3.228   5.362 -0.0771  0.3184 -0.4472
  402MOL0     H54241   6.469   3.336   5.489 -2.0132 -2.7937  1.6535
  402MOL0     H54242   6.620   3.122   5.327  2.1183  1.1180 -0.4392
  402MOL0     H54243   6.703   3.251   5.413  0.1085 -0.2883  3.9072
  402MOL0     H54244   6.508   3.083   5.573  0.9472 -2.1710  0.3802
  402MOL0     H54245   6.622   3.204   5.608  1.0204  1.7237 -1.7220
  402MOL0     H54246   6.675   2.941   5.656  1.6206 -2.0451 -1.8817
  402MOL0     H54247   6.722   2.945   5.484 -0.1232 -0.4170 -0.4116
  402MOL0     H54248   6.884   3.119   5.517  2.7330 -1.4541  0.4734
  402MOL0     H54249   6.914   2.968   5.581  1.4157  1.2280  1.1067
  402MOL0     H54250   6.800   3.216   5.755  0.7594  0.6281  1.6904
  402MOL0     H54251   6.968   3.173   5.742  0.9953 -1.1682  0.0100
  402MOL0     H54252   6.416   3.805   5.080 -0.8141 -0.0559  0.4861
  402MOL0     H54253   6.410   4.034   5.133  0.2949  1.8791  1.4099
  402MOL0     H54254   6.518   4.232   5.662  1.3505 -0.9598  0.0058
  402MOL0     H54255   6.468   4.455   5.765  2.3768  0.5958  2.0489
  402MOL0     H54256   5.601   5.939   4.483  2.3843 -0.0611  1.1910
  402MOL0     H54257   5.456   6.078   4.358  2.2013  1.7707 -2.5164
  402MOL0     H54258   5.342   6.585   4.415  0.6070 -3.6579 -0.7256
  402MOL0     H54259   5.196   6.775   4.335 -1.2774  0.1803 -1.5712
  402MOL0     H54260   5.042   6.895   4.265  2.4382 -3.4954  0.4098
  402MOL0     H54261   5.138   6.970   4.140 -0.3859 -0.0568 -0.0655
  402MOL0     H54262   4.868   7.011   4.156 -0.6462 -1.2946  1.5665
  402MOL0     H54263   4.876   6.881   4.046  1.8246 -1.2017  1.8282
  402MOL0     H54264   5.014   7.006   3.876  1.0473  1.9582 -0.4577
  402MOL0     H54265   5.055   7.132   3.990 -0.5635 -0.0005  0.7560
  402MOL0     H54266   4.766   7.074   3.950  0.9881  1.4690  4.0304
  402MOL0     H54267   4.866   7.159   3.822 -0.5872 -0.5105 -1.8175
  402MOL0     H54268   4.772   7.426   4.137  0.5271 -0.5024  0.7052
  402MOL0     H54269   5.187   6.594   3.953  0.6733 -3.8721  0.7583
  402MOL0     H54270   5.338   6.435   4.009  3.0001  3.7414 -2.0730
  403MOL0     O54271   8.538   1.170   4.591 -0.0667  0.3538  0.1554
  403MOL0     C54272   8.453   1.108   4.526 -0.1020 -0.5034  0.8821
  403MOL0     O54273   8.429   0.979   4.542 -0.1075 -0.7408 -0.7629
  403MOL0     C54274   8.515   0.895   4.610  0.8275 -1.3073  1.6792
  403MOL0     C54275   8.462   0.781   4.620  0.1505  0.5011  0.1522
  403MOL0     C54276   8.539   0.677   4.679  0.6736  0.4753  0.8637
  403MOL0     C54277   8.659   0.701   4.734  0.1398 -0.4165 -0.8653
  403MOL0     O54278   8.728   0.595   4.798 -0.0791 -1.0944  0.5907
  403MOL0     C54279   8.669   0.552   4.928  0.7302  0.1946 -0.8824
  403MOL0     C54280   8.793   0.494   4.985  0.8452  0.0447 -0.0611
  403MOL0     C54281   8.776   0.443   5.134 -0.5494 -0.1403  0.3134
  403MOL0     C54282   8.916   0.444   5.197  0.5573 -0.1488 -0.6117
  403MOL0     C54283   8.922   0.387   5.335  0.2187  0.4161 -0.1767
  403MOL0     C54284   9.064   0.410   5.385  0.0331 -0.5033 -0.1575
  403MOL0     C54285   9.078   0.328   5.506  0.0117  0.9176  0.7208
  403MOL0     C54286   9.203   0.378   5.587 -0.6722  0.5892  0.3447
  403MOL0     N54287   9.232   0.280   5.690 -0.1737  0.0008 -0.1848
  403MOL0     C54288   9.320   0.173   5.683  0.0334 -0.9347  0.1044
  403MOL0     C54289   9.307   0.102   5.789 -1.3555  0.7227 -0.0187
  403MOL0     C54290   9.403   0.008   5.854  0.3597 -0.9627  0.4091
  403MOL0     C54291   9.353  -0.087   5.966 -0.5978  0.9395  0.2385
  403MOL0     C54292   9.448  -0.204   5.999  0.0457  0.0147  0.1895
  403MOL0     C54293   9.415  -0.285   6.124  0.8068  0.2534 -0.6080
  403MOL0     O54294   9.316  -0.382   6.084 -0.1468  0.3028 -0.1522
  403MOL0     C54295   9.298  -0.488   6.162 -0.2804  0.5762  0.5503
  403MOL0     C54296   9.211  -0.591   6.124 -0.6503 -0.6655 -0.4852
  403MOL0     C54297   9.187  -0.712   6.191 -0.2477 -0.0943  0.2994
  403MOL0     C54298   9.085  -0.793   6.133 -0.0686  0.0039 -0.4902
  403MOL0     C54299   9.252  -0.736   6.319 -1.5294 -1.6407  0.2960
  403MOL0     C54300   9.236  -0.856   6.398  0.4032  0.0541 -0.2742
  403MOL0     O54301   9.338  -0.883   6.490 -1.5503  0.5551  0.8734
  403MOL0     C54302   9.329  -0.996   6.565 -0.0985 -0.0948  0.0060
  403MOL0     C54303   9.296  -0.983   6.697  0.3900  0.4605 -0.2890
  403MOL0     C54304   9.285  -1.089   6.787  0.1424 -0.9484  0.0979
  403MOL0     C54305   9.308  -1.214   6.736 -0.7667  0.0435  0.2386
  403MOL0     O54306   9.301  -1.333   6.807  0.1127 -0.1508 -0.1511
  403MOL0     C54307   9.205  -1.341   6.913  0.3072 -0.3451 -1.4814
  403MOL0     C54308   9.269  -1.323   7.047  0.8487 -0.3380  0.6659
  403MOL0     C54309   9.388  -1.414   7.089 -0.7412  0.3440 -0.1337
  403MOL0     C54310   9.429  -1.383   7.239  0.8333 -0.1486  0.2768
  403MOL0     C54311   9.566  -1.450   7.284 -0.0142  0.2877  0.3155
  403MOL0     C54312   9.547  -1.590   7.320  0.0138 -0.8161 -0.0876
  403MOL0     C54313   9.667  -1.663   7.378 -0.5591  0.9098 -1.0667
  403MOL0     C54314   9.630  -1.786   7.464  0.3958  0.0618 -0.3759
  403MOL0    Cl54315   9.780  -1.844   7.540 -0.3278  0.3387  0.3743
  403MOL0     C54316   9.342  -1.232   6.598 -0.5660  1.1562 -0.9812
  403MOL0     C54317   9.344  -1.124   6.510  0.3679 -0.7950  0.4667
  403MOL0     O54318   9.125  -0.916   6.389 -0.3401  0.3493 -0.2551
  403MOL0     C54319   9.350  -0.639   6.349  0.7117 -0.2463  1.1530
  403MOL0     C54320   9.364  -0.517   6.285  0.1382 -0.2701 -0.0169
  403MOL0     N54321   9.202   0.157   5.856 -0.2993 -0.8468 -0.8007
  403MOL0     N54322   9.151   0.263   5.794  0.4461  0.4065 -0.2033
  403MOL0     C54323   8.704   0.827   4.743 -0.0183  0.0899  0.0151
  403MOL0     C54324   8.634   0.929   4.681 -1.1132  0.1723 -0.3941
  403MOL0     C54325   8.377   1.175   4.419 -1.3553  0.8838 -0.3434
  403MOL0     C54326   8.273   1.108   4.352 -0.5372  0.1937  0.4538
  403MOL0     C54327   8.212   1.167   4.240 -0.3405  0.1071  1.3250
  403MOL0     C54328   8.232   1.300   4.202 -0.2397 -0.2093 -0.6159
  403MOL0     O54329   8.158   1.364   4.108 -0.2087 -0.5403  0.2162
  403MOL0     C54330   8.025   1.384   4.157  0.1948 -0.2089  0.4434
  403MOL0     C54331   8.001   1.519   4.235 -0.8368  0.6395 -0.1300
  403MOL0     C54332   7.868   1.514   4.308 -0.0027 -0.2015 -0.0992
  403MOL0     C54333   7.777   1.639   4.274 -0.1383  0.1198 -0.0802
  403MOL0     C54334   7.644   1.630   4.335  0.0189  0.3857  0.1498
  403MOL0     C54335   7.551   1.606   4.412 -0.2122  0.0046  0.4858
  403MOL0     C54336   8.325   1.376   4.281 -0.1316  0.5878 -0.2280
  403MOL0     C54337   8.395   1.307   4.390  0.3150 -0.1187  0.7033
  403MOL0     H54338   8.369   0.745   4.577  0.5319 -0.4053  0.0740
  403MOL0     H54339   8.490   0.580   4.679 -1.7463  1.6160 -0.1367
  403MOL0     H54340   8.630   0.632   4.992  0.7382 -3.0616  3.6717
  403MOL0     H54341   8.586   0.482   4.919  1.0604 -0.2748 -0.3460
  403MOL0     H54342   8.836   0.414   4.924 -0.2341 -1.5772  1.2320
  403MOL0     H54343   8.851   0.587   4.987 -2.2844  2.2111 -1.3931
  403MOL0     H54344   8.709   0.503   5.197  1.1195  1.2388  0.8368
  403MOL0     H54345   8.744   0.339   5.127 -0.3205 -0.3039  1.5949
  403MOL0     H54346   8.982   0.381   5.137  1.3621 -0.6650  0.7857
  403MOL0     H54347   8.951   0.548   5.194 -0.0082  0.0677 -0.0742
  403MOL0     H54348   8.853   0.432   5.406 -1.6865  0.6824 -2.0950
  403MOL0     H54349   8.900   0.280   5.346 -0.2257  0.6106  0.9839
  403MOL0     H54350   9.136   0.388   5.306  0.5064 -0.0704  0.1528
  403MOL0     H54351   9.089   0.513   5.410  2.8145 -1.3849  1.0880
  403MOL0     H54352   8.986   0.304   5.560  0.8193  1.1997  2.2825
  403MOL0     H54353   9.106   0.230   5.465  1.2996  1.9965 -1.1796
  403MOL0     H54354   9.184   0.479   5.626 -1.8060  0.3394  0.4752
  403MOL0     H54355   9.281   0.375   5.511 -0.5940 -1.9023  0.4462
  403MOL0     H54356   9.395   0.151   5.607  3.3263  1.2048  2.4707
  403MOL0     H54357   9.457  -0.050   5.778 -1.9806 -1.0084 -1.3288
  403MOL0     H54358   9.485   0.061   5.904  0.4719  1.2003 -1.8934
  403MOL0     H54359   9.262  -0.141   5.939  0.2042 -0.9970  1.1571
  403MOL0     H54360   9.332  -0.025   6.054  1.8223  0.1273  1.4766
  403MOL0     H54361   9.548  -0.159   5.998  0.1048 -0.1139 -0.9698
  403MOL0     H54362   9.440  -0.276   5.917 -2.0574  0.4198 -0.0182
  403MOL0     H54363   9.374  -0.208   6.192 -0.8709  0.7214 -2.0638
  403MOL0     H54364   9.508  -0.327   6.163  1.0907  0.9605 -0.5118
  403MOL0     H54365   9.167  -0.558   6.030 -0.8504  1.5552  0.3323
  403MOL0     H54366   8.995  -0.805   6.194 -0.4548 -0.0412 -1.0584
  403MOL0     H54367   9.039  -0.757   6.040 -1.0774  0.8753  0.3115
  403MOL0     H54368   9.118  -0.891   6.099  0.0489  0.0888 -0.6201
  403MOL0     H54369   9.287  -0.882   6.737 -0.3011 -0.1261  1.1063
  403MOL0     H54370   9.250  -1.061   6.886 -2.4779  1.3445 -1.3423
  403MOL0     H54371   9.114  -1.281   6.899 -0.9404 -1.6994  0.3430
  403MOL0     H54372   9.155  -1.438   6.919  0.7212 -0.5360 -1.0924
  403MOL0     H54373   9.299  -1.218   7.053 -0.5411  0.3723 -2.7572
  403MOL0     H54374   9.185  -1.328   7.117 -0.2461  3.4701 -0.1814
  403MOL0     H54375   9.477  -1.392   7.031  0.3916 -0.3704  1.2555
  403MOL0     H54376   9.358  -1.519   7.091 -0.5454  0.2746  1.7610
  403MOL0     H54377   9.447  -1.275   7.232  0.0075  0.1621  2.2053
  403MOL0     H54378   9.348  -1.399   7.311 -0.5030  1.7777 -0.7079
  403MOL0     H54379   9.597  -1.391   7.370 -2.4589 -3.3651  4.1082
  403MOL0     H54380   9.640  -1.441   7.204  0.8475 -0.2922  1.0334
  403MOL0     H54381   9.468  -1.596   7.394  0.6689 -1.1644  0.5982
  403MOL0     H54382   9.518  -1.648   7.231 -0.3958 -0.6332 -0.0734
  403MOL0     H54383   9.717  -1.595   7.448  2.7304 -2.7202  0.4367
  403MOL0     H54384   9.737  -1.690   7.300  0.2584  1.3425 -0.4971
  403MOL0     H54385   9.583  -1.874   7.420 -2.1077  1.1917 -0.1292
  403MOL0     H54386   9.561  -1.746   7.539  0.3550 -0.0450 -0.3574
  403MOL0     H54387   9.378  -1.327   6.560 -2.2081 -0.3733  1.0370
  403MOL0     H54388   9.385  -1.135   6.410 -2.7705  0.2018 -1.0456
  403MOL0     H54389   9.404  -0.656   6.442 -0.5536 -2.8050  1.5005
  403MOL0     H54390   9.425  -0.436   6.326 -1.9875  0.3619  2.1763
  403MOL0     H54391   8.799   0.847   4.790 -0.4138  2.0549  0.0446
  403MOL0     H54392   8.677   1.028   4.674 -2.0458  0.9729  3.2604
  403MOL0     H54393   8.245   1.010   4.389 -0.4063  0.5266  1.4739
  403MOL0     H54394   8.149   1.112   4.171 -1.0764  2.4456  0.0250
  403MOL0     H54395   7.962   1.390   4.068 -2.2514  1.8138  2.1459
  403MOL0     H54396   7.996   1.296   4.215  2.6483 -2.8036 -1.9946
  403MOL0     H54397   8.002   1.590   4.152  0.1714 -0.6642 -1.2960
  403MOL0     H54398   8.076   1.529   4.314 -1.2118 -0.5485  0.3988
  403MOL0     H54399   7.885   1.513   4.416 -3.3023 -0.9866  0.5166
  403MOL0     H54400   7.811   1.429   4.270 -1.3458  1.8963 -3.2429
  403MOL0     H54401   7.764   1.654   4.167 -1.1573  0.7377  0.1242
  403MOL0     H54402   7.835   1.724   4.311  2.3752 -1.3821 -0.3201
  403MOL0     H54403   7.473   1.574   4.478 -0.0642 -0.7859  0.2795
  403MOL0     H54404   8.347   1.479   4.255 -1.2432  0.5900 -1.2374
  403MOL0     H54405   8.462   1.366   4.452  0.5382  0.7955 -0.3775
  404MOL0     O54406   8.952  10.233   9.124 -0.1406  0.5186 -0.1694
  404MOL0     C54407   8.936  10.293   9.017  0.3023  0.4661  0.0813
  404MOL0     O54408   9.022  10.294   8.912  0.3804 -0.3242  0.2152
  404MOL0     C54409   9.145  10.241   8.905 -0.7791  0.9718  0.1282
  404MOL0     C54410   9.217  10.263   8.782 -1.0173  0.4658  0.2072
  404MOL0     C54411   9.346  10.219   8.774 -0.8308  0.3243 -0.5864
  404MOL0     C54412   9.418  10.141   8.867 -0.4549 -0.3522  0.0503
  404MOL0     O54413   9.546  10.105   8.839  0.2376  0.8824 -0.1171
  404MOL0     C54414   9.593   9.978   8.880 -0.6960 -0.0691  0.6586
  404MOL0     C54415   9.508   9.865   8.829 -0.2887  0.3047 -0.1679
  404MOL0     C54416   9.564   9.738   8.888  0.4790 -0.2797  0.6832
  404MOL0     C54417   9.536   9.707   9.043  0.5761 -0.0771 -0.6405
  404MOL0     C54418   9.603   9.576   9.085  0.2316 -0.5889  0.4433
  404MOL0     C54419   9.554   9.449   9.018 -0.2735  0.0906  0.5565
  404MOL0     C54420   9.621   9.326   9.073  0.1364 -0.0190 -0.4723
  404MOL0     C54421   9.542   9.291   9.202  0.1942  0.0673 -0.3901
  404MOL0     N54422   9.418   9.210   9.182 -0.5175 -0.2319 -0.1750
  404MOL0     C54423   9.410   9.069   9.172  0.0948 -0.5131  0.1603
  404MOL0     C54424   9.278   9.039   9.152 -0.1602 -0.1039 -1.1487
  404MOL0     C54425   9.215   8.897   9.117  0.0753 -1.0446 -0.5473
  404MOL0     C54426   9.261   8.770   9.198 -0.2375 -0.5846 -0.0424
  404MOL0     C54427   9.223   8.635   9.129  1.0170  0.8325  0.5687
  404MOL0     C54428   9.145   8.648   9.000  0.1450 -0.3777 -0.0554
  404MOL0     O54429   9.081   8.519   8.975 -0.1167 -0.1862 -0.7486
  404MOL0     C54430   9.003   8.515   8.868  0.2417  0.2203  0.4860
  404MOL0     C54431   8.981   8.619   8.775 -0.2396 -0.3239 -0.3028
  404MOL0     C54432   8.885   8.603   8.681 -0.6030  0.5272  1.0866
  404MOL0     C54433   8.877   8.717   8.589 -0.2731 -0.1330 -0.1939
  404MOL0     C54434   8.801   8.481   8.666 -0.7842  0.3685  0.2693
  404MOL0     C54435   8.711   8.452   8.548 -0.3129 -0.4725 -1.4798
  404MOL0     O54436   8.596   8.392   8.581  0.4257  1.1826 -0.1164
  404MOL0     C54437   8.495   8.354   8.494  0.6892 -0.5122  0.3020
  404MOL0     C54438   8.402   8.268   8.550 -0.2651 -0.2973 -0.2576
  404MOL0     C54439   8.289   8.237   8.475  0.1997  0.4988  0.4467
  404MOL0     C54440   8.259   8.289   8.348 -0.0924  0.9437 -0.2222
  404MOL0     O54441   8.146   8.236   8.290  0.6405 -0.2222 -0.2917
  404MOL0     C54442   8.129   8.243   8.148 -0.2748  0.1490  0.3757
  404MOL0     C54443   8.041   8.130   8.088  0.5715 -0.2095 -0.0164
  404MOL0     C54444   8.001   8.178   7.943  0.3727  0.4924 -0.4102
  404MOL0     C54445   8.113   8.178   7.852 -0.1499 -0.1472  0.0652
  404MOL0     C54446   8.080   8.220   7.711 -0.2445 -0.2535  0.1161
  404MOL0     C54447   7.996   8.347   7.693 -0.1852 -0.4701 -0.2864
  404MOL0     C54448   8.004   8.407   7.547 -0.0373  0.6491 -0.1458
  404MOL0     C54449   7.995   8.558   7.531  0.7626 -0.2528  0.3245
  404MOL0    Cl54450   8.040   8.598   7.363  0.1568 -0.2133 -0.0579
  404MOL0     C54451   8.353   8.378   8.295 -0.1873 -0.2007 -0.1199
  404MOL0     C54452   8.474   8.406   8.359 -0.9257  0.3474 -1.0845
  404MOL0     O54453   8.750   8.482   8.439  0.7008  0.1567 -0.0350
  404MOL0     C54454   8.808   8.383   8.765  1.1796 -0.7705 -0.2869
  404MOL0     C54455   8.918   8.400   8.859 -0.6492  0.4183  0.7090
  404MOL0     N54456   9.209   9.160   9.157  0.1122 -0.1328  0.2998
  404MOL0     N54457   9.293   9.262   9.177 -0.1912 -0.6230 -0.2849
  404MOL0     C54458   9.352  10.128   8.989 -0.0028 -0.6718 -0.0191
  404MOL0     C54459   9.218  10.188   9.015 -0.2573  0.0975 -0.8999
  404MOL0     C54460   8.819  10.385   9.018 -0.3996 -0.7957  1.2841
  404MOL0     C54461   8.737  10.398   9.135  0.4184  0.1364  0.3561
  404MOL0     C54462   8.624  10.486   9.126  0.3648  0.4225 -0.2237
  404MOL0     C54463   8.607  10.564   9.017 -0.4746 -0.1627  0.8006
  404MOL0     O54464   8.497  10.637   9.013  0.2286 -0.2641 -0.4268
  404MOL0     C54465   8.503  10.779   8.961  0.2933 -0.2117 -0.3769
  404MOL0     C54466   8.380  10.869   9.007  0.5166  0.1517 -0.4949
  404MOL0     C54467   8.410  10.901   9.156  0.0835  0.7657  0.4110
  404MOL0     C54468   8.297  10.968   9.229  0.2133  0.3675 -1.1307
  404MOL0     C54469   8.256  11.098   9.169  0.4431  0.7970 -0.4365
  404MOL0     C54470   8.223  11.207   9.119 -0.2893  1.1344 -0.3065
  404MOL0     C54471   8.683  10.545   8.900 -0.9159 -0.2636 -0.3842
  404MOL0     C54472   8.791  10.463   8.901 -0.5329  0.4114  0.8791
  404MOL0     H54473   9.179  10.320   8.698  0.8658 -0.4653 -1.3525
  404MOL0     H54474   9.404  10.241   8.684 -1.4167 -0.5517 -1.1909
  404MOL0     H54475   9.697   9.962   8.852 -0.3285 -0.6735  2.2537
  404MOL0     H54476   9.580   9.970   8.989 -2.8747  1.1306  0.5369
  404MOL0     H54477   9.402   9.879   8.852 -0.6510 -1.3502 -0.6607
  404MOL0     H54478   9.523   9.867   8.721 -3.6946  0.9039 -0.7542
  404MOL0     H54479   9.514   9.661   8.829  1.2024  1.1743 -2.0605
  404MOL0     H54480   9.671   9.732   8.863  0.7753  2.2741  1.0035
  404MOL0     H54481   9.568   9.789   9.109  1.1015 -0.3042 -0.6106
  404MOL0     H54482   9.428   9.694   9.048  0.6628 -0.2614  1.5966
  404MOL0     H54483   9.709   9.587   9.059  0.3084  2.1793  1.6353
  404MOL0     H54484   9.598   9.566   9.194 -2.7981  1.2992  0.5782
  404MOL0     H54485   9.446   9.437   9.030 -0.2003 -1.4147 -0.1193
  404MOL0     H54486   9.584   9.458   8.914  0.9413  0.4671  0.9202
  404MOL0     H54487   9.616   9.241   9.005 -0.0423 -3.0353  2.9574
  404MOL0     H54488   9.727   9.343   9.097  0.7184 -3.0517 -0.4706
  404MOL0     H54489   9.519   9.379   9.262 -2.5424 -2.3481  2.4655
  404MOL0     H54490   9.614   9.234   9.261  0.0589 -0.6202 -0.8829
  404MOL0     H54491   9.490   8.997   9.171  0.3849 -0.3454  2.8448
  404MOL0     H54492   9.106   8.904   9.110 -0.0206 -2.2622 -0.4386
  404MOL0     H54493   9.248   8.892   9.013 -1.6023 -1.0908 -1.1155
  404MOL0     H54494   9.225   8.772   9.301 -1.1843  0.1233 -0.3687
  404MOL0     H54495   9.369   8.783   9.209 -0.2918  1.3638 -1.3896
  404MOL0     H54496   9.162   8.584   9.204  1.0103 -1.9237 -1.1662
  404MOL0     H54497   9.305   8.564   9.115  0.5642  0.7537 -2.2895
  404MOL0     H54498   9.212   8.660   8.914  0.6690 -1.2624  0.2230
  404MOL0     H54499   9.061   8.718   9.002 -2.2823 -3.0215  3.4306
  404MOL0     H54500   9.047   8.706   8.773 -2.0866  1.3256  2.6542
  404MOL0     H54501   8.890   8.808   8.648  0.7144  1.1271 -2.2451
  404MOL0     H54502   8.956   8.708   8.513  1.4395  1.4730  1.2772
  404MOL0     H54503   8.781   8.731   8.540 -0.7253  0.0030  0.7017
  404MOL0     H54504   8.430   8.222   8.644  2.4193 -0.0023 -0.8268
  404MOL0     H54505   8.226   8.154   8.504 -0.3449  1.4208  2.0045
  404MOL0     H54506   8.091   8.343   8.129 -1.6023 -0.6354 -1.3229
  404MOL0     H54507   8.228   8.231   8.103 -0.5993 -1.5492  0.0361
  404MOL0     H54508   8.087   8.031   8.078 -0.2762 -0.3821 -3.8852
  404MOL0     H54509   7.943   8.124   8.136 -0.6311  3.7962 -1.5762
  404MOL0     H54510   7.954   8.276   7.956 -0.4762 -0.1088  1.4261
  404MOL0     H54511   7.919   8.110   7.918 -0.9852  1.8409  0.1921
  404MOL0     H54512   8.191   8.252   7.873  1.2575 -1.5421 -0.0876
  404MOL0     H54513   8.166   8.083   7.858  1.0064  0.4126 -0.7792
  404MOL0     H54514   8.023   8.136   7.671 -2.6447  0.5280  1.6266
  404MOL0     H54515   8.170   8.226   7.650 -0.4633 -0.8058 -0.2705
  404MOL0     H54516   7.890   8.341   7.719 -0.5982  1.8717 -1.2001
  404MOL0     H54517   8.040   8.427   7.752  0.9043  0.8330 -2.7557
  404MOL0     H54518   7.929   8.369   7.476  1.9073 -2.0746 -0.9018
  404MOL0     H54519   8.104   8.383   7.512  0.5307 -0.1459  1.8889
  404MOL0     H54520   8.067   8.599   7.603  2.1179  0.0457 -1.1455
  404MOL0     H54521   7.898   8.602   7.558  1.9748  1.6802  1.8440
  404MOL0     H54522   8.342   8.420   8.196 -0.8352 -0.9934 -0.3955
  404MOL0     H54523   8.543   8.482   8.324 -0.1583  0.1158 -0.1184
  404MOL0     H54524   8.739   8.300   8.761 -0.0948  0.1666  1.1756
  404MOL0     H54525   8.912   8.322   8.934 -0.9147 -2.0994 -1.7595
  404MOL0     H54526   9.413  10.085   9.068  0.7686  0.4576  0.0162
  404MOL0     H54527   9.183  10.191   9.117 -0.5426  0.6668 -1.0117
  404MOL0     H54528   8.755  10.340   9.225  0.2036 -0.0074  0.3067
  404MOL0     H54529   8.557  10.487   9.211  1.4902  0.0274  0.6910
  404MOL0     H54530   8.596  10.820   9.003  0.0952 -1.0883  0.9821
  404MOL0     H54531   8.511  10.760   8.854 -1.6582  0.6371 -0.7207
  404MOL0     H54532   8.283  10.820   8.995  0.5325 -0.4862  1.6569
  404MOL0     H54533   8.381  10.966   8.957  0.7146  0.5592  0.2873
  404MOL0     H54534   8.505  10.953   9.144  0.7206 -0.6563 -1.0600
  404MOL0     H54535   8.429  10.799   9.191  2.6780  0.3941 -1.7766
  404MOL0     H54536   8.332  10.981   9.332  0.8762 -2.0985 -0.9755
  404MOL0     H54537   8.203  10.912   9.234 -0.4765  1.5712  2.7519
  404MOL0     H54538   8.204  11.310   9.094 -0.0840  0.9579 -1.2257
  404MOL0     H54539   8.681  10.605   8.809  2.7448  0.8780  0.1230
  404MOL0     H54540   8.856  10.436   8.818 -0.5912 -2.0329  1.5567
  405MOL0     O54541   1.247  11.376  10.093  0.5796  0.1035 -0.8268
  405MOL0     C54542   1.227  11.455  10.189  0.0656 -0.3758  0.8615
  405MOL0     O54543   1.317  11.560  10.220  0.2177  0.0640  0.2322
  405MOL0     C54544   1.434  11.579  10.143  0.5525  0.8262  0.0422
  405MOL0     C54545   1.432  11.629  10.011  0.1972 -0.3060 -0.5422
  405MOL0     C54546   1.554  11.672   9.950  0.5480 -0.1746  0.0694
  405MOL0     C54547   1.681  11.664  10.016 -0.2707  0.2213 -0.2625
  405MOL0     O54548   1.807  11.700   9.971 -0.8321  0.5909  0.3456
  405MOL0     C54549   1.827  11.784   9.854  0.4295  0.3648  0.0141
  405MOL0     C54550   1.977  11.790   9.817  0.8244 -0.3761 -0.3072
  405MOL0     C54551   2.046  11.668   9.758 -0.8803  0.1617 -0.1291
  405MOL0     C54552   1.960  11.606   9.642  0.0308  0.0641  0.0467
  405MOL0     C54553   2.029  11.474   9.599 -0.1059 -0.2461 -0.1342
  405MOL0     C54554   2.145  11.490   9.500 -0.2389  0.3434  0.5411
  405MOL0     C54555   2.233  11.362   9.512  0.9995 -0.1629 -0.6387
  405MOL0     C54556   2.161  11.235   9.462  0.2403 -0.1765  0.3655
  405MOL0     N54557   2.129  11.243   9.317  0.4973 -0.8997 -0.7312
  405MOL0     C54558   1.998  11.241   9.265  0.1093 -0.5764  0.2087
  405MOL0     C54559   2.020  11.210   9.139  0.3650  0.4928 -0.1164
  405MOL0     C54560   1.920  11.182   9.024 -0.3564  0.2688 -0.2627
  405MOL0     C54561   1.820  11.074   9.063  0.0233 -0.1000 -0.2177
  405MOL0     C54562   1.706  11.061   8.960 -0.4319 -1.1591  1.4903
  405MOL0     C54563   1.630  11.191   8.936 -0.0647 -0.0022 -0.6508
  405MOL0     O54564   1.499  11.175   8.875  0.1229  0.2477  0.3164
  405MOL0     C54565   1.387  11.114   8.943  0.5827  0.2331 -0.0260
  405MOL0     C54566   1.290  11.057   8.861 -0.2088  0.6002  1.1756
  405MOL0     C54567   1.163  11.020   8.904  0.2296  0.3893  0.2299
  405MOL0     C54568   1.064  10.958   8.801 -0.6053 -0.2595  0.7554
  405MOL0     C54569   1.142  11.023   9.045  0.1805  0.7960  1.3804
  405MOL0     C54570   1.024  10.964   9.118 -0.0219 -0.6569  0.3325
  405MOL0     O54571   1.031  10.945   9.254 -0.3148 -0.1339  0.2647
  405MOL0     C54572   0.933  10.880   9.331 -0.7859  0.2686  0.2274
  405MOL0     C54573   0.981  10.840   9.454  0.5610  0.9141 -0.4001
  405MOL0     C54574   0.896  10.770   9.535 -0.0307  0.4668 -0.6426
  405MOL0     C54575   0.755  10.760   9.515 -0.0071 -0.2534 -0.4406
  405MOL0     O54576   0.689  10.689   9.616 -0.6621  0.3195 -0.0452
  405MOL0     C54577   0.570  10.615   9.579 -0.4131  0.4902  0.1417
  405MOL0     C54578   0.574  10.479   9.639  0.2232  0.6465 -0.9910
  405MOL0     C54579   0.513  10.492   9.779  0.2230 -0.1647 -0.1639
  405MOL0     C54580   0.507  10.362   9.848 -0.0406 -0.3403 -0.1368
  405MOL0     C54581   0.460  10.375   9.988 -0.2381  0.1761  0.8205
  405MOL0     C54582   0.544  10.464  10.070 -0.9962  0.7383  0.1857
  405MOL0     C54583   0.529  10.446  10.220 -0.0710  0.5339  0.2846
  405MOL0     C54584   0.401  10.511  10.274  1.1155  0.1268  0.0435
  405MOL0    Cl54585   0.409  10.685  10.232 -0.0050 -0.1831  0.2418
  405MOL0     C54586   0.700  10.820   9.403  0.2624  0.2809  0.8348
  405MOL0     C54587   0.792  10.877   9.306 -1.1376  0.3811 -0.4165
  405MOL0     O54588   0.923  10.939   9.055  0.7969  0.4392  0.2615
  405MOL0     C54589   1.241  11.065   9.127  0.1175  0.7924  0.1097
  405MOL0     C54590   1.369  11.106   9.087  0.8842 -0.3897 -0.0730
  405MOL0     N54591   2.152  11.193   9.113 -0.1863  0.4176  0.8811
  405MOL0     N54592   2.217  11.231   9.217 -0.2322 -0.0160 -0.0959
  405MOL0     C54593   1.680  11.600  10.138 -0.1198  0.0065 -0.4492
  405MOL0     C54594   1.555  11.565  10.200  0.3894  0.0474  0.4609
  405MOL0     C54595   1.099  11.440  10.262 -0.0151 -0.2943  0.5048
  405MOL0     C54596   1.059  11.526  10.358 -0.7749 -0.2237 -0.3365
  405MOL0     C54597   0.948  11.517  10.432 -0.2565 -0.6491 -0.1390
  405MOL0     C54598   0.856  11.414  10.408  0.0370 -0.1261 -0.3428
  405MOL0     O54599   0.746  11.388  10.483  0.9428 -0.1778  0.0376
  405MOL0     C54600   0.765  11.277  10.576 -0.1221 -0.1019 -0.1460
  405MOL0     C54601   0.656  11.271  10.679  0.0650  1.1076  0.1186
  405MOL0     C54602   0.639  11.124  10.745 -1.1118  0.3252  0.2858
  405MOL0     C54603   0.521  11.131  10.841 -1.0440  0.0398  0.2192
  405MOL0     C54604   0.542  11.008  10.928 -0.5401 -0.7086  0.2794
  405MOL0     C54605   0.574  10.906  10.991  0.6581  0.1945  0.1779
  405MOL0     C54606   0.883  11.330  10.303  0.4365  0.1345 -0.4991
  405MOL0     C54607   1.004  11.340  10.234 -0.1783  0.1621 -0.3320
  405MOL0     H54608   1.335  11.636   9.963 -0.1651  1.3877  0.3785
  405MOL0     H54609   1.538  11.720   9.853  0.2488 -0.6450 -0.1177
  405MOL0     H54610   1.767  11.740   9.773 -4.2759  2.1849  2.1230
  405MOL0     H54611   1.787  11.886   9.867 -0.4955  0.2875 -1.8670
  405MOL0     H54612   1.987  11.869   9.741  2.5698 -0.8955 -0.6587
  405MOL0     H54613   2.026  11.836   9.902 -2.7905  1.6209  0.9278
  405MOL0     H54614   2.141  11.697   9.713  0.0301 -1.1141  0.8884
  405MOL0     H54615   2.068  11.585   9.827  4.9597  1.5582  0.2400
  405MOL0     H54616   1.864  11.583   9.690  0.1021  1.8313  1.1557
  405MOL0     H54617   1.946  11.680   9.563 -1.3245  0.3077  0.4791
  405MOL0     H54618   2.056  11.416   9.688  0.3737 -0.6045 -0.5101
  405MOL0     H54619   1.945  11.423   9.551 -0.8125 -1.4956  2.2731
  405MOL0     H54620   2.106  11.502   9.399 -0.1040 -0.0818  0.4334
  405MOL0     H54621   2.200  11.579   9.530  0.2664  0.6134 -1.0701
  405MOL0     H54622   2.329  11.376   9.461 -0.0388  1.5457 -2.2364
  405MOL0     H54623   2.272  11.357   9.615 -0.1074  3.4091  0.0967
  405MOL0     H54624   2.075  11.219   9.528  0.1874  2.8169  1.2024
  405MOL0     H54625   2.228  11.151   9.478  0.6432  0.2148  0.7650
  405MOL0     H54626   1.902  11.251   9.315  0.1587  0.3663  0.1313
  405MOL0     H54627   1.880  11.281   9.001  1.0572  1.0093  0.3392
  405MOL0     H54628   1.979  11.137   8.944  0.0551 -1.2119  0.8219
  405MOL0     H54629   1.759  11.107   9.147 -1.1572  1.0708 -1.4602
  405MOL0     H54630   1.880  10.988   9.094 -1.7228 -1.0312  0.7571
  405MOL0     H54631   1.636  10.989   9.004  1.1354 -1.8162  3.0842
  405MOL0     H54632   1.735  11.014   8.866 -2.8038 -0.7805  0.5004
  405MOL0     H54633   1.692  11.255   8.872  1.6590  0.9800  1.8401
  405MOL0     H54634   1.633  11.251   9.028 -0.2787 -1.4777  0.3535
  405MOL0     H54635   1.318  11.064   8.756  2.6293  2.4327  1.9492
  405MOL0     H54636   1.109  10.973   8.703 -3.2198  1.8619 -0.2480
  405MOL0     H54637   1.051  10.855   8.835  2.6193  0.2536  4.3848
  405MOL0     H54638   0.975  11.022   8.808 -1.1387 -1.0460  1.4034
  405MOL0     H54639   1.088  10.843   9.472  0.5015 -1.9609  0.9448
  405MOL0     H54640   0.952  10.723   9.615 -0.8783  1.1916  0.3939
  405MOL0     H54641   0.479  10.668   9.606 -0.6628  2.7502 -4.1978
  405MOL0     H54642   0.571  10.603   9.470 -0.5889 -1.1191  0.3032
  405MOL0     H54643   0.500  10.421   9.581 -2.5014  0.7409  2.0793
  405MOL0     H54644   0.675  10.439   9.642 -0.7353 -1.9458  1.7484
  405MOL0     H54645   0.412  10.533   9.770  1.3028  2.3782 -1.7076
  405MOL0     H54646   0.576  10.565   9.830  1.6721  1.1785 -3.5801
  405MOL0     H54647   0.435  10.293   9.801  0.9881 -0.6813 -1.2525
  405MOL0     H54648   0.603  10.312   9.854 -0.5689 -1.2481  1.6494
  405MOL0     H54649   0.465  10.276  10.035 -4.1735 -1.0545 -0.9378
  405MOL0     H54650   0.357  10.413   9.989 -0.4542 -0.3888  0.7759
  405MOL0     H54651   0.646  10.432  10.047 -1.2776 -0.4335  0.5255
  405MOL0     H54652   0.540  10.569  10.038  0.7902  0.9620  0.5532
  405MOL0     H54653   0.605  10.510  10.265  2.0346  0.2510 -2.5820
  405MOL0     H54654   0.541  10.341  10.249  2.4528  1.2491  2.1859
  405MOL0     H54655   0.401  10.490  10.381  2.0251 -0.6331 -0.0898
  405MOL0     H54656   0.314  10.461  10.229  0.0347  0.4763  1.6766
  405MOL0     H54657   0.595  10.834   9.382 -0.9665 -4.0578  2.9319
  405MOL0     H54658   0.746  10.926   9.220  0.4876  0.8184 -1.0846
  405MOL0     H54659   1.238  11.078   9.235 -1.3120  1.7210 -0.0195
  405MOL0     H54660   1.438  11.152   9.157  3.1044  1.7893 -3.4476
  405MOL0     H54661   1.774  11.575  10.188  0.4720  2.8934  0.0764
  405MOL0     H54662   1.563  11.534  10.304  0.9645 -0.5875  0.2305
  405MOL0     H54663   1.131  11.597  10.397 -0.8759 -0.9763  1.2812
  405MOL0     H54664   0.942  11.585  10.517  2.0482  2.6865 -2.3697
  405MOL0     H54665   0.753  11.187  10.515  0.8292 -0.7417  0.5854
  405MOL0     H54666   0.866  11.275  10.619 -0.0002 -0.2495 -0.4329
  405MOL0     H54667   0.565  11.307  10.631  0.3425  1.7738  0.0846
  405MOL0     H54668   0.692  11.333  10.762  2.6236 -2.7023  2.2136
  405MOL0     H54669   0.732  11.095  10.793 -0.4518 -2.6382 -2.4499
  405MOL0     H54670   0.611  11.057  10.663  0.0654 -0.5560  0.5878
  405MOL0     H54671   0.423  11.124  10.792 -1.8203  0.6295  1.6333
  405MOL0     H54672   0.522  11.230  10.887  0.2686  0.0082  0.3004
  405MOL0     H54673   0.603  10.820  11.046  0.4687 -0.0134 -0.0445
  405MOL0     H54674   0.811  11.253  10.276 -0.1419 -0.1536  1.6788
  405MOL0     H54675   1.018  11.272  10.151 -0.0445  0.9569 -0.9824
  406MOL0     O54676  10.779   9.155   8.108 -0.3832  0.8882  0.6218
  406MOL0     C54677  10.795   9.196   8.219 -0.5540 -0.4624 -0.3353
  406MOL0     O54678  10.776   9.331   8.257  0.1834  0.4276 -0.1201
  406MOL0     C54679  10.718   9.428   8.169  0.8121  0.2447  0.0633
  406MOL0     C54680  10.721   9.430   8.028  0.4240  0.0725  0.6527
  406MOL0     C54681  10.659   9.529   7.948 -1.0153  0.8151 -0.6260
  406MOL0     C54682  10.613   9.638   8.014 -0.2116  0.5661 -0.6154
  406MOL0     O54683  10.551   9.740   7.931  0.5819  0.1875 -0.6285
  406MOL0     C54684  10.524   9.862   8.002  0.9087  0.4165  0.5318
  406MOL0     C54685  10.370   9.869   8.035 -0.0229  0.1785  0.1262
  406MOL0     C54686  10.341  10.013   8.080  0.6614  0.7192  0.6107
  406MOL0     C54687  10.199  10.048   8.044 -0.0899 -0.2345  0.1857
  406MOL0     C54688  10.147  10.175   8.118  0.3862 -0.2113 -1.1040
  406MOL0     C54689  10.212  10.296   8.077  0.3317 -0.5695 -0.9563
  406MOL0     C54690  10.342  10.337   8.163  0.9178  0.1257 -0.8517
  406MOL0     C54691  10.375  10.490   8.158 -0.0270 -0.1563  0.9930
  406MOL0     N54692  10.292  10.564   8.257 -0.1809 -0.4645  0.0479
  406MOL0     C54693  10.207  10.504   8.345 -0.4439 -0.0508  0.6936
  406MOL0     C54694  10.182  10.611   8.424 -0.7879  0.6956  0.3864
  406MOL0     C54695  10.102  10.583   8.545  0.3367 -0.2227 -0.0679
  406MOL0     C54696  10.170  10.630   8.675  0.2101 -0.2830  0.1656
  406MOL0     C54697  10.075  10.606   8.800 -0.0951  0.0521  0.1403
  406MOL0     C54698  10.116  10.471   8.863  0.0887 -0.0839 -0.9984
  406MOL0     O54699  10.020  10.394   8.928  0.2378  0.0839  0.6772
  406MOL0     C54700   9.948  10.440   9.035 -0.5105  1.4424  0.3509
  406MOL0     C54701   9.846  10.348   9.071 -0.6258  0.0876 -0.8761
  406MOL0     C54702   9.775  10.371   9.190  0.1128 -0.0301 -0.4304
  406MOL0     C54703   9.661  10.274   9.228 -0.1240  0.4592  0.3930
  406MOL0     C54704   9.804  10.494   9.268 -0.5225  0.4457  0.5785
  406MOL0     C54705   9.727  10.533   9.389  0.6528 -0.2204 -0.2928
  406MOL0     O54706   9.780  10.621   9.468  0.6665 -0.4547 -0.0150
  406MOL0     C54707   9.713  10.694   9.558  0.4479 -0.4887 -0.1981
  406MOL0     C54708   9.768  10.723   9.682 -0.6405 -0.7760  0.3062
  406MOL0     C54709   9.706  10.829   9.755  0.5169  0.3424 -0.5319
  406MOL0     C54710   9.597  10.896   9.704  0.3722  0.3728  1.0905
  406MOL0     O54711   9.539  10.985   9.795 -0.0446  0.3627 -1.0753
  406MOL0     C54712   9.401  11.008   9.800 -0.1111  0.1108 -0.5296
  406MOL0     C54713   9.351  10.929   9.914 -0.6872 -0.5595  0.1051
  406MOL0     C54714   9.374  10.988  10.048  0.1081 -0.3087 -0.1556
  406MOL0     C54715   9.355  10.878  10.152 -0.3613  0.5056  0.3225
  406MOL0     C54716   9.355  10.930  10.290 -0.0072  0.2389 -0.6066
  406MOL0     C54717   9.351  10.834  10.401  0.0065 -0.0841  0.0412
  406MOL0     C54718   9.404  10.892  10.542 -0.6241 -0.4864 -0.4541
  406MOL0     C54719   9.549  10.939  10.540 -0.3379  1.0723  1.0167
  406MOL0    Cl54720   9.594  10.959  10.706 -0.5616  0.5601 -0.0446
  406MOL0     C54721   9.537  10.859   9.578 -0.5358 -0.3173 -0.4532
  406MOL0     C54722   9.597  10.757   9.516  0.0595 -0.0079  0.4754
  406MOL0     O54723   9.607  10.491   9.407 -0.7571 -0.7366 -0.5176
  406MOL0     C54724   9.910  10.579   9.233 -0.0514  0.2943 -0.2833
  406MOL0     C54725   9.979  10.550   9.116  0.2511 -0.4009  0.8451
  406MOL0     N54726  10.243  10.726   8.386  0.5675 -0.2672 -0.4213
  406MOL0     N54727  10.302  10.701   8.276 -0.0836  0.1777 -0.2965
  406MOL0     C54728  10.606   9.637   8.159 -0.0291  0.3273  0.4724
  406MOL0     C54729  10.646   9.531   8.229 -0.1695 -0.5273  0.1622
  406MOL0     C54730  10.821   9.094   8.319 -0.1428 -0.1213  0.7922
  406MOL0     C54731  10.803   8.955   8.278  1.0168 -0.5698 -0.8487
  406MOL0     C54732  10.800   8.867   8.386  0.1860  0.4708 -0.3666
  406MOL0     C54733  10.826   8.896   8.526  0.8624 -0.7254  0.4400
  406MOL0     O54734  10.849   8.807   8.622 -0.4047 -0.2898 -0.1985
  406MOL0     C54735  10.821   8.666   8.587  0.0139 -0.3641  0.9147
  406MOL0     C54736  10.863   8.567   8.705  0.3839 -0.7947  0.5302
  406MOL0     C54737  10.725   8.493   8.744  0.0396  0.1772  1.0468
  406MOL0     C54738  10.738   8.410   8.866 -0.8958  0.3221  1.0538
  406MOL0     C54739  10.628   8.307   8.876 -0.1205  0.7599 -0.1098
  406MOL0     C54740  10.537   8.225   8.897 -0.9406 -1.1846  0.3850
  406MOL0     C54741  10.849   9.030   8.553  0.3487  0.1031  0.6252
  406MOL0     C54742  10.857   9.127   8.452  0.5290  0.1460  0.1483
  406MOL0     H54743  10.782   9.359   7.973  1.4764  1.5670 -0.1835
  406MOL0     H54744  10.673   9.525   7.840  3.6131 -0.0750 -0.2224
  406MOL0     H54745  10.570   9.874   8.101  2.1007  0.4177 -0.0038
  406MOL0     H54746  10.557   9.941   7.934 -0.2370  0.8912  0.4972
  406MOL0     H54747  10.301   9.829   7.960 -0.0928  0.7360 -0.1061
  406MOL0     H54748  10.360   9.794   8.114 -0.8831 -0.0918 -0.2294
  406MOL0     H54749  10.352  10.013   8.188  3.0811 -0.3101  0.4238
  406MOL0     H54750  10.419  10.083   8.048  2.2831 -0.6822  1.3262
  406MOL0     H54751  10.210  10.075   7.939  0.7785 -1.0720  0.0526
  406MOL0     H54752  10.126   9.969   8.059  0.7526 -0.6628  2.4037
  406MOL0     H54753  10.041  10.187   8.095  0.0938 -2.4605 -1.2316
  406MOL0     H54754  10.167  10.168   8.225 -2.1241 -0.6285 -0.6132
  406MOL0     H54755  10.253  10.300   7.976  3.7942  1.6314  0.3692
  406MOL0     H54756  10.147  10.382   8.093  0.8590  0.2745 -3.0682
  406MOL0     H54757  10.342  10.302   8.266  1.5968 -0.0883 -0.9224
  406MOL0     H54758  10.427  10.281   8.124 -0.0209  1.0580 -4.7559
  406MOL0     H54759  10.358  10.523   8.055  2.7650 -1.6157 -0.0364
  406MOL0     H54760  10.481  10.512   8.174  0.0678 -0.0632  0.2435
  406MOL0     H54761  10.170  10.402   8.353 -0.4168 -0.3070 -1.6492
  406MOL0     H54762  10.010  10.638   8.525  0.5549  0.5116  0.8708
  406MOL0     H54763  10.087  10.475   8.545  2.1030 -0.5782 -3.0043
  406MOL0     H54764  10.200  10.735   8.668  0.2716 -0.2269  1.1749
  406MOL0     H54765  10.264  10.574   8.665 -1.4434 -2.9318 -2.2040
  406MOL0     H54766   9.970  10.607   8.769  0.7546 -2.6909 -3.4491
  406MOL0     H54767  10.095  10.689   8.869 -0.8009 -1.1993  1.8928
  406MOL0     H54768  10.190  10.500   8.938 -0.1608  0.7676 -1.0750
  406MOL0     H54769  10.171  10.405   8.795  1.0498 -1.3384  0.9005
  406MOL0     H54770   9.829  10.261   9.008  3.4733  0.2147 -2.4850
  406MOL0     H54771   9.560  10.313   9.213 -0.7948 -0.7888  1.4799
  406MOL0     H54772   9.662  10.188   9.161 -2.9087  0.0823  0.6874
  406MOL0     H54773   9.657  10.239   9.332 -0.0435 -0.4662  0.0938
  406MOL0     H54774   9.867  10.684   9.703  0.3255 -0.3081 -2.8056
  406MOL0     H54775   9.742  10.858   9.853  1.5428  1.3487 -1.1896
  406MOL0     H54776   9.375  11.107   9.837 -1.5466 -1.6503  3.9083
  406MOL0     H54777   9.337  10.999   9.711 -2.4400  5.1097  0.3237
  406MOL0     H54778   9.242  10.926   9.902 -0.6283 -1.8129 -0.2202
  406MOL0     H54779   9.385  10.826   9.908  1.1586 -0.1397  2.2158
  406MOL0     H54780   9.299  11.066  10.064 -0.5657 -0.0874 -3.6570
  406MOL0     H54781   9.475  11.030  10.045  0.5169 -1.2467 -3.4300
  406MOL0     H54782   9.261  10.826  10.134  0.7913 -0.9952 -1.9206
  406MOL0     H54783   9.432  10.803  10.131  0.9147  1.6246  0.8246
  406MOL0     H54784   9.272  10.999  10.306 -1.7235 -1.7731 -0.4500
  406MOL0     H54785   9.444  10.993  10.304  0.9630 -1.4147  1.1705
  406MOL0     H54786   9.252  10.800  10.433 -0.6745  2.3762  0.7737
  406MOL0     H54787   9.416  10.749  10.378  0.6798 -0.7840  3.8447
  406MOL0     H54788   9.408  10.803  10.606 -1.6982 -1.2367 -1.3872
  406MOL0     H54789   9.333  10.967  10.577 -0.6509 -1.5086  1.8713
  406MOL0     H54790   9.556  11.029  10.479 -2.6210  0.4409 -0.3114
  406MOL0     H54791   9.615  10.860  10.501  0.9196  2.1219  0.9304
  406MOL0     H54792   9.456  10.902   9.520 -0.1137  1.7762  0.4203
  406MOL0     H54793   9.551  10.732   9.421 -2.4496 -2.3448  2.1279
  406MOL0     H54794   9.927  10.663   9.298  0.4631  0.3534 -0.4913
  406MOL0     H54795  10.055  10.616   9.076 -0.3761 -0.3649 -0.3186
  406MOL0     H54796  10.581   9.726   8.216  0.8451  1.8553 -1.4091
  406MOL0     H54797  10.633   9.523   8.336 -4.3582  1.8556  0.0011
  406MOL0     H54798  10.770   8.925   8.179 -4.6624  0.4933  0.4029
  406MOL0     H54799  10.777   8.763   8.362 -0.5093  0.5274  0.0438
  406MOL0     H54800  10.719   8.654   8.552  0.4346 -0.5212 -0.2881
  406MOL0     H54801  10.883   8.631   8.505 -0.2898 -3.2859  1.8099
  406MOL0     H54802  10.907   8.621   8.790  2.1230 -0.2456 -0.6719
  406MOL0     H54803  10.933   8.490   8.671 -0.7574 -1.9139  0.6574
  406MOL0     H54804  10.700   8.428   8.661 -1.0754 -0.4385  1.8426
  406MOL0     H54805  10.654   8.574   8.763 -1.4157 -0.7705 -0.0913
  406MOL0     H54806  10.743   8.478   8.952 -1.8253  0.5391  0.9447
  406MOL0     H54807  10.833   8.356   8.860  0.8964  3.1407  1.9093
  406MOL0     H54808  10.454   8.159   8.901 -2.1760  0.3725  2.1035
  406MOL0     H54809  10.874   9.048   8.657  2.9257 -1.7829  0.4468
  406MOL0     H54810  10.887   9.227   8.482 -1.3757  0.1201  2.3955
  407MOL0     O54811   4.088   1.105   0.331 -0.5114  0.0816  0.2255
  407MOL0     C54812   4.112   1.123   0.209 -0.8213 -1.0942 -0.2954
  407MOL0     O54813   4.149   1.023   0.119 -0.0458  1.1439 -1.3985
  407MOL0     C54814   4.064   0.917   0.116  0.6387  0.0359  0.4087
  407MOL0     C54815   3.924   0.922   0.117  0.4131  1.0818  0.2193
  407MOL0     C54816   3.852   0.803   0.103 -0.4219 -0.2607  0.0855
  407MOL0     C54817   3.917   0.675   0.083 -0.0570 -0.0230  0.3886
  407MOL0     O54818   3.843   0.559   0.096  0.3487 -0.4636 -0.3182
  407MOL0     C54819   3.738   0.555  -0.005  0.6938 -0.4285 -0.6215
  407MOL0     C54820   3.692   0.404  -0.023 -0.5834  0.3418  0.2027
  407MOL0     C54821   3.816   0.319  -0.062 -0.8195  0.9145  0.1108
  407MOL0     C54822   3.762   0.174  -0.071 -0.4594  0.1358  0.9723
  407MOL0     C54823   3.862   0.082  -0.146  0.3113 -0.5286 -0.6877
  407MOL0     C54824   3.999   0.062  -0.096  0.0318 -0.1112 -0.5595
  407MOL0     C54825   4.080  -0.005  -0.212  0.3718 -0.5623 -0.2955
  407MOL0     C54826   4.049  -0.151  -0.213  0.2151  0.0772 -0.0003
  407MOL0     N54827   3.997  -0.179  -0.352 -0.6438 -0.1063  0.3472
  407MOL0     C54828   3.870  -0.148  -0.409 -0.4234 -0.0911 -1.1821
  407MOL0     C54829   3.849  -0.221  -0.518  0.0052  0.1755  1.1105
  407MOL0     C54830   3.723  -0.222  -0.602  0.7395  0.4715  0.2368
  407MOL0     C54831   3.743  -0.281  -0.748  0.2395 -0.5300  0.1987
  407MOL0     C54832   3.842  -0.209  -0.832 -0.1285  0.4469 -0.1046
  407MOL0     C54833   3.814  -0.061  -0.866 -0.1442 -0.0725 -0.1563
  407MOL0     O54834   3.701  -0.043  -0.956  0.5952  0.2516  0.0064
  407MOL0     C54835   3.679   0.081  -1.009  0.6749  0.3503 -0.2679
  407MOL0     C54836   3.562   0.097  -1.082  0.1931 -0.3803  0.3116
  407MOL0     C54837   3.534   0.204  -1.156 -0.6440 -0.4029  1.5612
  407MOL0     C54838   3.391   0.206  -1.201 -0.0709 -0.3625 -0.1420
  407MOL0     C54839   3.629   0.307  -1.169 -0.3172 -0.1101  0.2883
  407MOL0     C54840   3.605   0.434  -1.235 -1.7253  0.0689  0.1086
  407MOL0     O54841   3.683   0.534  -1.195 -0.1770 -0.9652 -0.1909
  407MOL0     C54842   3.683   0.669  -1.229 -0.3258 -0.8496  0.0439
  407MOL0     C54843   3.801   0.744  -1.212 -0.5102 -0.7604 -0.1191
  407MOL0     C54844   3.811   0.874  -1.257 -1.1114  0.8458 -0.5100
  407MOL0     C54845   3.705   0.940  -1.303 -0.0971 -0.1226 -0.3523
  407MOL0     O54846   3.726   1.074  -1.331 -0.0267  0.1539 -0.5204
  407MOL0     C54847   3.672   1.164  -1.233 -1.0027 -0.9496 -0.4879
  407MOL0     C54848   3.560   1.243  -1.301  0.3839 -0.6770  0.1901
  407MOL0     C54849   3.603   1.345  -1.411 -0.4885  0.2353  0.7548
  407MOL0     C54850   3.483   1.389  -1.498  0.4851 -0.7543  0.0387
  407MOL0     C54851   3.507   1.481  -1.612  0.2648 -0.4124  0.2830
  407MOL0     C54852   3.378   1.526  -1.680 -0.8199  0.2020 -0.7817
  407MOL0     C54853   3.393   1.637  -1.780  0.6409 -0.4046 -0.7188
  407MOL0     C54854   3.457   1.591  -1.912  0.3735 -0.3242 -0.5942
  407MOL0    Cl54855   3.456   1.737  -2.012 -0.7502  0.4275 -0.0031
  407MOL0     C54856   3.585   0.872  -1.317  0.2496  1.3280 -0.2131
  407MOL0     C54857   3.575   0.737  -1.287 -0.2293  0.5150  0.3292
  407MOL0     O54858   3.539   0.435  -1.335 -0.5351  0.5225  0.2874
  407MOL0     C54859   3.751   0.288  -1.105 -0.0368 -0.3212 -1.0393
  407MOL0     C54860   3.779   0.181  -1.025  0.0475  0.0355  0.3451
  407MOL0     N54861   3.963  -0.303  -0.534  0.5166  0.4544 -0.8369
  407MOL0     N54862   4.042  -0.282  -0.433 -0.0993 -0.2041 -0.0991
  407MOL0     C54863   4.058   0.678   0.097 -0.4081 -0.1589 -0.2167
  407MOL0     C54864   4.130   0.797   0.106 -0.0274 -0.1402  0.6956
  407MOL0     C54865   4.083   1.263   0.151 -1.5820 -0.9027 -1.2871
  407MOL0     C54866   4.044   1.373   0.230 -0.0188 -0.4993 -0.0685
  407MOL0     C54867   4.024   1.503   0.189  0.0285 -0.8275  1.0316
  407MOL0     C54868   4.043   1.537   0.053 -0.3317  0.4098  0.4675
  407MOL0     O54869   4.043   1.657  -0.005 -0.3230 -0.2743  0.3545
  407MOL0     C54870   3.987   1.765   0.071 -0.2275  0.5790  0.2471
  407MOL0     C54871   3.958   1.876  -0.021  0.8097 -0.0888 -0.1519
  407MOL0     C54872   4.074   1.937  -0.100 -0.0937 -0.0618  0.9086
  407MOL0     C54873   4.113   1.875  -0.234  0.9593 -0.5871 -0.3854
  407MOL0     C54874   4.228   1.957  -0.272  0.3010 -0.8512 -0.0445
  407MOL0     C54875   4.321   2.024  -0.318 -0.4720 -0.1410 -0.2816
  407MOL0     C54876   4.071   1.431  -0.035 -0.7394  0.7009  0.6545
  407MOL0     C54877   4.104   1.297   0.013 -0.1873 -0.5441  0.8864
  407MOL0     H54878   3.865   1.012   0.132 -3.1279 -0.8299 -0.9491
  407MOL0     H54879   3.745   0.810   0.120 -0.0389 -0.9364  3.3157
  407MOL0     H54880   3.655   0.622   0.019  1.3699 -0.0751  0.8411
  407MOL0     H54881   3.780   0.583  -0.101 -1.4440  2.1314 -0.9147
  407MOL0     H54882   3.646   0.365   0.068 -2.0824  0.2614 -0.5535
  407MOL0     H54883   3.623   0.401  -0.108  3.2128 -0.3026 -3.1620
  407MOL0     H54884   3.861   0.358  -0.154  3.7705 -0.6124  1.4514
  407MOL0     H54885   3.896   0.326   0.013 -0.2319  1.6465 -0.5622
  407MOL0     H54886   3.725   0.130   0.022 -1.9714 -2.2233 -0.6232
  407MOL0     H54887   3.670   0.172  -0.131  0.2717 -2.2405 -0.2286
  407MOL0     H54888   3.811  -0.015  -0.144  0.9189 -0.8560 -0.7889
  407MOL0     H54889   3.858   0.105  -0.253 -2.3476 -0.8547 -0.7373
  407MOL0     H54890   4.035   0.163  -0.073 -3.0248  0.4791  2.7387
  407MOL0     H54891   4.015  -0.003  -0.010  3.9625 -0.8847 -1.7123
  407MOL0     H54892   4.080   0.052  -0.305 -1.7023  2.2145  1.2683
  407MOL0     H54893   4.187  -0.009  -0.188  0.9918 -0.2193 -2.7288
  407MOL0     H54894   3.964  -0.186  -0.154  1.6198  1.3481  2.9446
  407MOL0     H54895   4.141  -0.206  -0.194 -0.5844 -1.7345 -1.0744
  407MOL0     H54896   3.799  -0.076  -0.369 -0.2117  1.0471 -2.7414
  407MOL0     H54897   3.650  -0.277  -0.542  2.1717 -2.4959 -0.5496
  407MOL0     H54898   3.673  -0.125  -0.612 -0.0244  0.0981  0.3909
  407MOL0     H54899   3.642  -0.270  -0.789 -0.1236  0.7950  1.3401
  407MOL0     H54900   3.765  -0.387  -0.735 -0.0339 -0.5923  0.1627
  407MOL0     H54901   3.854  -0.263  -0.926  2.4162 -0.8008  0.8481
  407MOL0     H54902   3.937  -0.202  -0.779  0.5521  1.7583 -1.4406
  407MOL0     H54903   3.904  -0.027  -0.918  0.8433 -1.7453  0.3709
  407MOL0     H54904   3.815   0.008  -0.781 -0.3093 -1.2821  0.8585
  407MOL0     H54905   3.479   0.028  -1.087  0.2930 -0.4772 -0.0721
  407MOL0     H54906   3.387   0.174  -1.306  1.6395  0.7284 -0.5755
  407MOL0     H54907   3.322   0.144  -1.143  0.6471  1.5321  2.9304
  407MOL0     H54908   3.351   0.308  -1.198  1.3679  0.2660 -1.3183
  407MOL0     H54909   3.895   0.701  -1.179  0.5320  1.5674  0.1517
  407MOL0     H54910   3.907   0.921  -1.239 -1.6519  1.3181  1.3261
  407MOL0     H54911   3.632   1.118  -1.142  0.8104  1.3041  1.5926
  407MOL0     H54912   3.754   1.230  -1.202 -2.0597  0.7836 -1.2359
  407MOL0     H54913   3.487   1.180  -1.352 -0.2308  1.4522 -1.7249
  407MOL0     H54914   3.516   1.308  -1.226  2.1440  2.2962 -1.1339
  407MOL0     H54915   3.678   1.296  -1.473 -1.3197  2.9267 -2.7387
  407MOL0     H54916   3.649   1.436  -1.371 -0.4769 -0.2400  1.8643
  407MOL0     H54917   3.428   1.300  -1.532  0.5645 -0.2207 -1.6020
  407MOL0     H54918   3.421   1.450  -1.432  1.1640  2.3849 -1.9882
  407MOL0     H54919   3.559   1.424  -1.689 -0.6282 -1.7232  0.6027
  407MOL0     H54920   3.567   1.568  -1.584  0.2913 -0.3185 -0.0566
  407MOL0     H54921   3.335   1.441  -1.734  0.5530 -0.1381 -1.3717
  407MOL0     H54922   3.312   1.558  -1.598  0.1640  4.0872 -1.2922
  407MOL0     H54923   3.439   1.724  -1.733 -0.9069 -0.6288  1.3524
  407MOL0     H54924   3.287   1.652  -1.805  1.0423  3.8723 -0.6114
  407MOL0     H54925   3.411   1.510  -1.969 -1.4214  0.9923 -1.1158
  407MOL0     H54926   3.553   1.558  -1.874  1.2546  3.1040  0.5664
  407MOL0     H54927   3.503   0.918  -1.370  0.9442 -0.7039 -3.2977
  407MOL0     H54928   3.488   0.674  -1.304 -0.9312  1.9667 -1.9604
  407MOL0     H54929   3.828   0.357  -1.137 -0.3464  1.0481  0.9729
  407MOL0     H54930   3.878   0.181  -0.979  0.4002  1.5925 -0.3409
  407MOL0     H54931   4.116   0.587   0.103 -2.0810 -1.3102 -0.8033
  407MOL0     H54932   4.237   0.779   0.098 -0.1288 -0.1552 -0.9765
  407MOL0     H54933   4.031   1.362   0.337 -0.4991 -2.7066 -0.3055
  407MOL0     H54934   4.007   1.584   0.259  0.2297  1.3512 -1.2625
  407MOL0     H54935   3.892   1.724   0.108 -1.4181  1.3530 -1.7987
  407MOL0     H54936   4.066   1.785   0.144  1.5143  1.4810 -1.8043
  407MOL0     H54937   3.923   1.956   0.045  0.2401  0.8024 -1.4743
  407MOL0     H54938   3.878   1.849  -0.091  0.5526 -1.7534  0.7389
  407MOL0     H54939   4.162   1.956  -0.038 -0.8345  1.2019  1.6157
  407MOL0     H54940   4.033   2.035  -0.127 -0.0285 -0.5691 -1.2116
  407MOL0     H54941   4.034   1.875  -0.310  2.1994 -2.3451 -1.7595
  407MOL0     H54942   4.149   1.773  -0.217 -0.6240 -0.6790  3.2580
  407MOL0     H54943   4.404   2.077  -0.360  0.0557 -2.4089 -2.3951
  407MOL0     H54944   4.083   1.457  -0.139 -4.2897 -1.8397 -0.5781
  407MOL0     H54945   4.121   1.217  -0.058 -1.1894  1.1707 -1.4377
  408MOL0     O54946   8.280  10.316   3.089  0.1684  0.4181 -0.2540
  408MOL0     C54947   8.303  10.251   2.986 -0.4824 -0.2708 -0.2933
  408MOL0     O54948   8.270  10.125   2.956  0.5361  0.6361  0.1244
  408MOL0     C54949   8.199  10.046   3.047 -0.0377  0.3667  0.8861
  408MOL0     C54950   8.061  10.058   3.059  0.7689  0.4182  0.7814
  408MOL0     C54951   7.992   9.959   3.128  0.5484 -0.1187  0.5084
  408MOL0     C54952   8.057   9.854   3.203 -1.2081  0.6341  0.5544
  408MOL0     O54953   7.976   9.761   3.262 -0.4083 -0.1434 -0.4833
  408MOL0     C54954   8.027   9.629   3.292 -0.0502 -0.3666 -0.3363
  408MOL0     C54955   7.932   9.525   3.352  0.5779 -0.3159  0.6648
  408MOL0     C54956   7.908   9.539   3.505  0.9834 -0.3705 -1.3087
  408MOL0     C54957   7.789   9.447   3.550  0.5598 -0.1974 -0.2298
  408MOL0     C54958   7.827   9.298   3.553 -0.4081 -0.3740  0.7490
  408MOL0     C54959   7.697   9.224   3.612  0.7948 -0.6583  0.3583
  408MOL0     C54960   7.711   9.069   3.602  0.2334 -0.5889 -1.0046
  408MOL0     C54961   7.809   9.015   3.702  0.2708 -0.9360 -0.4394
  408MOL0     N54962   7.761   9.039   3.839  0.4812 -0.4608  0.4539
  408MOL0     C54963   7.796   9.145   3.923  0.0746  0.2991 -0.0996
  408MOL0     C54964   7.712   9.131   4.027  0.7489  0.3066  0.5817
  408MOL0     C54965   7.725   9.201   4.161  0.2691 -0.3468 -0.0237
  408MOL0     C54966   7.644   9.143   4.279 -0.3450 -0.3475 -0.6117
  408MOL0     C54967   7.663   9.237   4.394 -0.7444 -0.4508 -0.3587
  408MOL0     C54968   7.605   9.167   4.518  0.4205  0.1262  0.0540
  408MOL0     O54969   7.684   9.208   4.627  0.2196  0.0873 -0.4841
  408MOL0     C54970   7.641   9.181   4.758 -0.0377  0.4348  0.3513
  408MOL0     C54971   7.738   9.201   4.853  0.8389  1.0128 -0.3930
  408MOL0     C54972   7.705   9.173   4.987  1.2505 -0.4180 -0.4221
  408MOL0     C54973   7.805   9.213   5.093 -0.0765  0.2044 -0.2678
  408MOL0     C54974   7.579   9.110   5.024 -0.4974 -0.5521 -0.3336
  408MOL0     C54975   7.534   9.076   5.158 -0.7642 -0.8505 -0.6961
  408MOL0     O54976   7.397   9.055   5.170 -0.0584 -0.5712 -1.8803
  408MOL0     C54977   7.354   8.970   5.269 -0.1301 -0.5430 -0.8122
  408MOL0     C54978   7.307   8.845   5.235 -0.0138  0.0259  0.5154
  408MOL0     C54979   7.264   8.754   5.337  0.6695  0.2618 -0.2296
  408MOL0     C54980   7.278   8.788   5.476  0.6563  0.3139 -0.1053
  408MOL0     O54981   7.243   8.694   5.568  0.1949  0.7832 -0.2360
  408MOL0     C54982   7.282   8.714   5.701 -0.3812  0.6050 -0.1710
  408MOL0     C54983   7.246   8.586   5.776 -0.6620 -0.8133 -1.1228
  408MOL0     C54984   7.088   8.562   5.793 -0.1883 -0.0181  0.2135
  408MOL0     C54985   7.011   8.641   5.908 -0.3117 -0.0418  0.3578
  408MOL0     C54986   7.018   8.563   6.039 -0.2993 -0.1926  0.4314
  408MOL0     C54987   6.937   8.605   6.164  0.4764 -0.4365 -0.7570
  408MOL0     C54988   7.006   8.550   6.286  1.1373  0.3254 -0.1366
  408MOL0     C54989   6.918   8.578   6.410  0.1991 -0.9451 -0.7977
  408MOL0    Cl54990   6.855   8.754   6.413 -0.6532  0.6993 -0.1674
  408MOL0     C54991   7.316   8.918   5.500 -0.3449  0.1737 -1.2208
  408MOL0     C54992   7.368   9.007   5.405  1.1180 -0.2499  0.5125
  408MOL0     O54993   7.613   9.061   5.246  0.2802 -0.6403 -0.5219
  408MOL0     C54994   7.492   9.090   4.923 -0.1720 -0.3970  1.1541
  408MOL0     C54995   7.519   9.117   4.793 -0.1167  0.6639  0.0740
  408MOL0     N54996   7.639   9.008   4.015  0.0117  0.4609 -0.3008
  408MOL0     N54997   7.659   8.967   3.900 -0.6632 -0.1120 -0.2768
  408MOL0     C54998   8.202   9.852   3.196  1.0008 -0.9571 -0.5852
  408MOL0     C54999   8.262   9.939   3.110  0.1406  1.5467  0.4065
  408MOL0     C55000   8.387  10.309   2.877  0.3732  0.6513 -0.2313
  408MOL0     C55001   8.441  10.437   2.897  0.0154  0.3975  0.0411
  408MOL0     C55002   8.518  10.492   2.792  0.7626  0.1464  0.2035
  408MOL0     C55003   8.539  10.417   2.672 -0.1112 -0.7258 -0.2844
  408MOL0     O55004   8.622  10.479   2.574  0.7290  0.0832  0.0327
  408MOL0     C55005   8.685  10.403   2.473 -0.8904  0.2287  0.3312
  408MOL0     C55006   8.779  10.483   2.382  0.7396 -0.2034 -0.4720
  408MOL0     C55007   8.697  10.574   2.277 -0.6102  0.4092 -0.7441
  408MOL0     C55008   8.762  10.712   2.261  0.6012 -0.6255  0.1350
  408MOL0     C55009   8.679  10.800   2.182 -0.8145  0.1739  0.2306
  408MOL0     C55010   8.595  10.881   2.133 -0.0743 -0.2790  0.2105
  408MOL0     C55011   8.470  10.301   2.655 -0.2548  0.1835  1.2803
  408MOL0     C55012   8.397  10.248   2.756 -0.0630 -0.8874 -0.0330
  408MOL0     H55013   8.005  10.138   3.010  1.7265  2.9047  3.4769
  408MOL0     H55014   7.884   9.955   3.126  0.3670  2.6451  0.6784
  408MOL0     H55015   8.041   9.572   3.200 -1.8803  2.2023 -2.3407
  408MOL0     H55016   8.118   9.627   3.352  2.2072  0.3226 -3.4985
  408MOL0     H55017   7.834   9.527   3.304 -0.4131 -3.5603  2.2659
  408MOL0     H55018   7.985   9.430   3.340  2.2453  0.7135 -0.5566
  408MOL0     H55019   7.998   9.503   3.555  1.0623  0.7997 -0.5941
  408MOL0     H55020   7.885   9.640   3.540  1.3505 -1.1862  1.5706
  408MOL0     H55021   7.747   9.474   3.647 -0.3191  1.0762 -0.9396
  408MOL0     H55022   7.699   9.466   3.490 -1.4394 -2.6588  1.7557
  408MOL0     H55023   7.857   9.260   3.455  1.6933  4.8947 -1.0286
  408MOL0     H55024   7.915   9.282   3.616  1.3681  1.2199 -1.1910
  408MOL0     H55025   7.696   9.258   3.716  3.3116 -0.8215  0.5086
  408MOL0     H55026   7.604   9.256   3.563  0.9346  0.1973  0.6279
  408MOL0     H55027   7.614   9.025   3.625  1.2522 -3.1776 -1.3119
  408MOL0     H55028   7.740   9.046   3.499  0.7173 -2.8948 -0.4007
  408MOL0     H55029   7.911   9.053   3.692  0.1737 -0.7145 -0.5955
  408MOL0     H55030   7.801   8.908   3.679 -2.4628 -0.6812 -0.9968
  408MOL0     H55031   7.862   9.225   3.891 -0.7807  1.0430 -0.0225
  408MOL0     H55032   7.831   9.190   4.183  0.7755  0.0434 -2.0392
  408MOL0     H55033   7.687   9.303   4.146 -1.6350 -1.4964 -4.9311
  408MOL0     H55034   7.681   9.045   4.310  1.5758  1.4554  3.5624
  408MOL0     H55035   7.540   9.126   4.247 -0.0914  0.3948 -1.9142
  408MOL0     H55036   7.609   9.331   4.376 -0.5497  0.2348  2.2136
  408MOL0     H55037   7.767   9.267   4.410 -0.3759 -1.0349 -1.5396
  408MOL0     H55038   7.612   9.058   4.514  1.9685  0.2074  0.1014
  408MOL0     H55039   7.502   9.197   4.539  1.1990  2.4614  0.8350
  408MOL0     H55040   7.837   9.239   4.830  1.5964 -0.6953 -0.1215
  408MOL0     H55041   7.888   9.272   5.056 -1.7561  2.7661 -0.1748
  408MOL0     H55042   7.757   9.269   5.174 -0.2230 -3.0804  2.1291
  408MOL0     H55043   7.843   9.120   5.136 -0.6674 -0.6039 -1.4161
  408MOL0     H55044   7.305   8.827   5.128  2.7449  0.8850  0.2337
  408MOL0     H55045   7.242   8.650   5.312  0.5490  0.0503  0.7229
  408MOL0     H55046   7.385   8.751   5.715 -0.5264  1.0000 -0.1225
  408MOL0     H55047   7.218   8.794   5.741  1.1122  2.3138 -1.0519
  408MOL0     H55048   7.289   8.501   5.722 -0.4584 -1.1404 -0.4568
  408MOL0     H55049   7.292   8.584   5.875 -0.7451 -1.3607 -1.0896
  408MOL0     H55050   7.065   8.456   5.806 -0.8692  0.3138  2.0731
  408MOL0     H55051   7.047   8.587   5.695  1.9135  1.5378 -0.3543
  408MOL0     H55052   7.039   8.746   5.921 -3.5920  0.8472  1.1932
  408MOL0     H55053   6.908   8.640   5.871  0.4456 -2.4365 -1.9889
  408MOL0     H55054   7.126   8.551   6.052  0.4875 -1.0110 -4.7671
  408MOL0     H55055   6.977   8.463   6.020 -1.5393 -0.0110  1.9288
  408MOL0     H55056   6.931   8.714   6.171 -1.0123  0.1238 -6.1092
  408MOL0     H55057   6.834   8.569   6.165 -0.2661  1.2177  3.5902
  408MOL0     H55058   7.102   8.597   6.306  0.7465  0.2425  2.1416
  408MOL0     H55059   7.018   8.442   6.296 -0.1613  0.3312  2.0181
  408MOL0     H55060   6.981   8.564   6.499 -2.7105  1.8180  1.9855
  408MOL0     H55061   6.833   8.511   6.425 -0.3723 -0.1636 -0.4620
  408MOL0     H55062   7.319   8.973   5.594  1.1179  1.5089 -2.0266
  408MOL0     H55063   7.399   9.105   5.439 -1.2057  1.4441 -1.8728
  408MOL0     H55064   7.402   9.034   4.945 -0.7006  0.3059  0.8174
  408MOL0     H55065   7.437   9.094   4.726 -0.0964  0.0522  0.2490
  408MOL0     H55066   8.253   9.769   3.245  1.5505 -0.0013  0.5042
  408MOL0     H55067   8.370   9.924   3.107 -0.2638 -2.2462 -0.3690
  408MOL0     H55068   8.437  10.507   2.981  2.0015 -0.3592  0.8205
  408MOL0     H55069   8.558  10.591   2.809 -0.9447  1.0124 -0.6381
  408MOL0     H55070   8.748  10.325   2.519 -1.9850 -1.1894 -0.4808
  408MOL0     H55071   8.616  10.346   2.410  1.2693 -2.1060 -0.1408
  408MOL0     H55072   8.846  10.417   2.326 -2.3156 -0.5571 -4.1575
  408MOL0     H55073   8.843  10.541   2.449 -0.4094 -0.6883  1.1013
  408MOL0     H55074   8.593  10.577   2.310  0.0341 -0.6218  1.5277
  408MOL0     H55075   8.702  10.521   2.181 -1.3849 -0.1760 -0.4748
  408MOL0     H55076   8.862  10.708   2.215  0.5420  1.8655 -0.3603
  408MOL0     H55077   8.779  10.750   2.362 -0.5505 -0.3006  0.2112
  408MOL0     H55078   8.536  10.965   2.102 -0.0110 -0.0818  0.6192
  408MOL0     H55079   8.486  10.244   2.564 -2.1881  0.7024  0.5732
  408MOL0     H55080   8.366  10.144   2.747  0.4147 -0.9132 -1.8247
  409MOL0     O55081  10.680   9.065   5.511 -0.5157  0.2081 -0.6555
  409MOL0     C55082  10.739   9.026   5.413 -0.2958 -0.1642  0.3188
  409MOL0     O55083  10.878   9.022   5.397 -0.3039  0.4142 -0.4271
  409MOL0     C55084  10.957   9.106   5.470  0.2154 -0.4106 -0.2751
  409MOL0     C55085  11.004   9.069   5.594 -0.3536 -0.0364 -0.5882
  409MOL0     C55086  11.085   9.159   5.665 -0.5612 -0.1152  0.2020
  409MOL0     C55087  11.126   9.281   5.606  1.1539 -0.0712 -0.2931
  409MOL0     O55088  11.224   9.362   5.653  0.4780  0.2017 -0.0966
  409MOL0     C55089  11.358   9.309   5.653 -0.1257 -0.2824 -0.0227
  409MOL0     C55090  11.474   9.403   5.676 -0.4225 -0.8791 -0.3137
  409MOL0     C55091  11.488   9.512   5.571 -0.6254 -0.2833 -0.5976
  409MOL0     C55092  11.633   9.564   5.558 -1.2918  0.1203  0.0958
  409MOL0     C55093  11.634   9.678   5.446 -0.1845  0.1008  0.1914
  409MOL0     C55094  11.774   9.699   5.381 -0.5398 -1.0174 -0.1758
  409MOL0     C55095  11.880   9.747   5.480 -0.7220 -0.2783  0.0579
  409MOL0     C55096  12.021   9.777   5.430 -0.4752 -0.3673  0.0328
  409MOL0     N55097  12.062   9.916   5.446 -0.3433  0.7494 -0.5035
  409MOL0     C55098  12.114   9.996   5.346  0.6933  0.5669 -0.7482
  409MOL0     C55099  12.147  10.112   5.406  0.2192 -0.1632  0.3974
  409MOL0     C55100  12.205  10.228   5.328 -0.8041 -0.7221 -0.6877
  409MOL0     C55101  12.366  10.217   5.338  0.1653  0.4415  0.5271
  409MOL0     C55102  12.437  10.331   5.256  0.3256  0.1739  0.0472
  409MOL0     C55103  12.480  10.285   5.116  0.7273 -0.3922 -0.8254
  409MOL0     O55104  12.357  10.275   5.042 -1.1842  0.0300  0.3303
  409MOL0     C55105  12.326  10.162   4.972 -0.8286  0.2261  0.6763
  409MOL0     C55106  12.196  10.126   4.967 -0.0009 -0.2344  0.4268
  409MOL0     C55107  12.143  10.018   4.895  0.3652 -0.1618  1.0047
  409MOL0     C55108  11.990   9.997   4.892  0.3212 -0.1524  0.1443
  409MOL0     C55109  12.237   9.943   4.828  0.8717  1.0969  0.8141
  409MOL0     C55110  12.197   9.832   4.734  0.9135  0.7003 -0.3665
  409MOL0     O55111  12.155   9.717   4.799  0.0281 -0.3250 -0.0678
  409MOL0     C55112  12.105   9.614   4.721  0.9762 -0.4460  1.3259
  409MOL0     C55113  12.130   9.488   4.768 -0.5590  0.1550  0.4115
  409MOL0     C55114  12.083   9.378   4.692  0.8844 -0.0407  0.2117
  409MOL0     C55115  11.989   9.388   4.588 -0.6760 -0.2970 -0.5002
  409MOL0     O55116  11.927   9.282   4.510  0.4660 -0.0500  0.7139
  409MOL0     C55117  11.961   9.148   4.552 -0.1085 -0.1743 -0.3172
  409MOL0     C55118  11.918   9.042   4.440  0.2914 -0.6541 -0.4072
  409MOL0     C55119  11.971   9.088   4.303  0.5618 -0.0347 -0.2332
  409MOL0     C55120  11.948   8.977   4.199  0.1311 -0.2669 -0.3946
  409MOL0     C55121  12.020   9.006   4.067 -0.3654  0.9498 -0.2975
  409MOL0     C55122  11.967   8.907   3.967  0.0883 -0.5296 -0.6450
  409MOL0     C55123  12.047   8.923   3.839 -0.3048 -0.5995 -0.0827
  409MOL0     C55124  11.980   8.838   3.729  0.3744  0.7552 -0.5423
  409MOL0    Cl55125  12.024   8.869   3.569 -0.1673 -0.2839  0.0210
  409MOL0     C55126  11.962   9.514   4.538 -0.3964 -0.1511 -0.5225
  409MOL0     C55127  12.009   9.625   4.614  0.1773 -0.5960 -0.0985
  409MOL0     O55128  12.214   9.843   4.614  0.4665  0.3948  0.2238
  409MOL0     C55129  12.374   9.961   4.844 -0.2804 -1.0350  0.0354
  409MOL0     C55130  12.422  10.071   4.917  0.1419 -0.4550  0.3831
  409MOL0     N55131  12.129  10.099   5.540 -0.0661  0.8660  0.5093
  409MOL0     N55132  12.086   9.982   5.564  0.1429  0.3524 -0.1477
  409MOL0     C55133  11.070   9.322   5.489 -0.4081 -0.0288 -0.2334
  409MOL0     C55134  10.980   9.234   5.423  0.8388 -0.8466  0.5116
  409MOL0     C55135  10.652   8.957   5.317 -0.3563 -0.9550 -1.3386
  409MOL0     C55136  10.704   8.913   5.196 -0.4783  0.4521 -0.6126
  409MOL0     C55137  10.617   8.861   5.102 -0.4948 -0.1360  0.1544
  409MOL0     C55138  10.476   8.856   5.117 -0.1841  0.5849  0.6167
  409MOL0     O55139  10.404   8.813   5.009 -0.2251 -0.3629  0.2753
  409MOL0     C55140  10.259   8.809   5.006 -0.5354 -1.4288  0.4938
  409MOL0     C55141  10.210   8.922   4.921  0.1795  0.6261  0.3384
  409MOL0     C55142  10.294   9.057   4.935 -0.3886  0.3194 -0.2085
  409MOL0     C55143  10.225   9.164   4.855  0.6189 -0.0755 -0.4695
  409MOL0     C55144  10.292   9.295   4.854 -0.4097 -0.5795 -0.4460
  409MOL0     C55145  10.341   9.409   4.881  1.3482  0.4054  0.6731
  409MOL0     C55146  10.431   8.902   5.246 -1.2161 -1.1629  1.1810
  409MOL0     C55147  10.520   8.963   5.337  0.1624  0.2952 -0.1472
  409MOL0     H55148  10.972   8.978   5.644 -1.7592  1.0989  0.6767
  409MOL0     H55149  11.125   9.131   5.762  2.0497  2.8970  0.1564
  409MOL0     H55150  11.359   9.238   5.736  0.7571  1.3138  1.4190
  409MOL0     H55151  11.368   9.244   5.566  3.1233  0.4944 -0.3490
  409MOL0     H55152  11.459   9.441   5.778  0.6568 -2.4500  0.4766
  409MOL0     H55153  11.564   9.341   5.669 -0.2327 -0.6126 -0.2594
  409MOL0     H55154  11.464   9.473   5.472 -1.8727  0.5266 -0.6414
  409MOL0     H55155  11.421   9.597   5.590 -0.1270  0.1916 -0.9352
  409MOL0     H55156  11.668   9.598   5.656  1.1992 -0.5967 -0.4716
  409MOL0     H55157  11.696   9.486   5.515  0.4186  1.8464 -0.6810
  409MOL0     H55158  11.568   9.648   5.364  0.3784 -0.0253 -0.2279
  409MOL0     H55159  11.595   9.774   5.482 -3.2628 -0.7515 -0.6030
  409MOL0     H55160  11.810   9.607   5.334  0.4019 -0.2018 -1.0946
  409MOL0     H55161  11.766   9.775   5.303  2.1623  0.8803  1.2540
  409MOL0     H55162  11.836   9.835   5.526  2.1309  1.0388  0.4959
  409MOL0     H55163  11.893   9.675   5.561  0.1999 -0.5573 -0.3185
  409MOL0     H55164  12.021   9.752   5.323 -2.4065  2.2981 -0.7055
  409MOL0     H55165  12.091   9.719   5.491  0.4189  0.4271 -0.2342
  409MOL0     H55166  12.115   9.966   5.242 -1.9584 -3.2971  0.1326
  409MOL0     H55167  12.176  10.236   5.223 -0.4064 -1.1916 -0.8354
  409MOL0     H55168  12.171  10.324   5.367 -3.0209 -0.9662 -1.8792
  409MOL0     H55169  12.376  10.115   5.299 -1.4597 -0.4769  2.3480
  409MOL0     H55170  12.389  10.213   5.445 -0.0731  0.1163  0.5684
  409MOL0     H55171  12.530  10.354   5.308  0.0192  1.3308  0.1069
  409MOL0     H55172  12.366  10.414   5.256 -0.3599 -0.3678  1.9544
  409MOL0     H55173  12.532  10.190   5.128  0.5792 -0.3393  0.4120
  409MOL0     H55174  12.547  10.353   5.064  0.2620 -0.9337 -2.1680
  409MOL0     H55175  12.131  10.197   5.017 -2.3824 -0.6728 -1.8249
  409MOL0     H55176  11.955  10.024   4.793  0.0060  2.4517  0.8844
  409MOL0     H55177  11.958   9.895   4.913  2.7828 -0.8571  0.8346
  409MOL0     H55178  11.940  10.070   4.957  3.2061  0.5757  1.7783
  409MOL0     H55179  12.206   9.474   4.843 -1.1620 -1.1751  0.8057
  409MOL0     H55180  12.102   9.277   4.728 -1.2920 -0.0898  1.4032
  409MOL0     H55181  12.070   9.147   4.567  0.4287 -0.3192 -3.4866
  409MOL0     H55182  11.904   9.128   4.643 -0.8803  4.4522  0.4816
  409MOL0     H55183  11.974   8.952   4.466  1.6783  0.4312  0.4958
  409MOL0     H55184  11.808   9.037   4.437  0.1447  1.5253 -0.7112
  409MOL0     H55185  12.079   9.105   4.301  0.1103  3.5970 -0.4034
  409MOL0     H55186  11.920   9.178   4.267 -0.8903 -1.2458 -1.3458
  409MOL0     H55187  11.972   8.875   4.231 -2.7404 -1.7142 -2.3645
  409MOL0     H55188  11.842   8.974   4.171  0.5710  0.6501 -2.3514
  409MOL0     H55189  12.128   9.011   4.078 -0.1879  2.5732 -2.2329
  409MOL0     H55190  11.986   9.098   4.018 -3.6300 -1.1642 -2.4432
  409MOL0     H55191  11.985   8.805   4.003  0.9379  0.0471  0.6411
  409MOL0     H55192  11.859   8.913   3.952 -0.0686  1.6230  0.8974
  409MOL0     H55193  12.149   8.885   3.853 -0.0517 -0.1124 -0.5641
  409MOL0     H55194  12.055   9.026   3.805 -1.8357  0.8860  3.6084
  409MOL0     H55195  11.873   8.858   3.732  0.4125  0.9852  2.7288
  409MOL0     H55196  11.982   8.730   3.747 -4.3174  0.6055  0.3769
  409MOL0     H55197  11.895   9.530   4.455 -0.2570 -4.7489 -1.8037
  409MOL0     H55198  11.982   9.728   4.593 -0.1380 -0.3472  1.4601
  409MOL0     H55199  12.432   9.888   4.788  0.0972 -0.4252 -0.3828
  409MOL0     H55200  12.528  10.093   4.918  0.5860 -2.4152  1.3369
  409MOL0     H55201  11.100   9.421   5.457 -3.8302  0.9340 -0.8207
  409MOL0     H55202  10.927   9.260   5.331 -1.6013 -2.0872  1.4756
  409MOL0     H55203  10.810   8.925   5.177 -0.3041  1.8946  0.9655
  409MOL0     H55204  10.668   8.834   5.010 -1.3330 -1.5531  0.0788
  409MOL0     H55205  10.219   8.714   4.970 -0.0052 -1.1876 -0.7567
  409MOL0     H55206  10.219   8.820   5.108 -1.1571  1.0655  0.0399
  409MOL0     H55207  10.106   8.933   4.952  0.1321  1.1800 -0.0039
  409MOL0     H55208  10.206   8.900   4.814 -1.1633  3.6658 -0.3378
  409MOL0     H55209  10.386   9.025   4.886  0.0501  1.7180 -0.3421
  409MOL0     H55210  10.322   9.087   5.037  3.6440 -1.3883 -0.6335
  409MOL0     H55211  10.126   9.168   4.902  0.8331 -0.8045  0.0629
  409MOL0     H55212  10.211   9.125   4.754 -3.2971  0.9018 -0.4753
  409MOL0     H55213  10.380   9.506   4.904 -2.7217  2.4816 -0.2609
  409MOL0     H55214  10.324   8.896   5.265 -1.1995  1.6918  2.7861
  409MOL0     H55215  10.467   9.016   5.415 -2.2694 -1.8050 -0.2695
  410MOL0     O55216   1.305   5.757   5.828  0.4592  0.0895  0.2154
  410MOL0     C55217   1.271   5.857   5.772 -0.2387  0.2126  0.4729
  410MOL0     O55218   1.276   5.870   5.635 -0.6726 -0.0766 -0.3766
  410MOL0     C55219   1.346   5.787   5.553 -0.3059 -0.3905 -0.4305
  410MOL0     C55220   1.398   5.657   5.570  0.5105 -0.7559 -0.5370
  410MOL0     C55221   1.450   5.589   5.468 -0.5888 -0.7930 -0.2706
  410MOL0     C55222   1.462   5.645   5.341  0.0273  0.2020  0.5442
  410MOL0     O55223   1.501   5.572   5.238  0.3110  0.2914 -0.7839
  410MOL0     C55224   1.640   5.553   5.223 -0.1279 -0.0417  0.1504
  410MOL0     C55225   1.694   5.413   5.198 -0.4242 -2.0412  0.0521
  410MOL0     C55226   1.689   5.330   5.319  0.2230 -0.3489  0.1898
  410MOL0     C55227   1.714   5.185   5.295  0.9493 -0.3790 -0.4994
  410MOL0     C55228   1.686   5.102   5.423 -0.1760  0.1829  0.3248
  410MOL0     C55229   1.748   4.958   5.412 -0.7005  0.2044 -0.0884
  410MOL0     C55230   1.715   4.877   5.533 -0.7959 -0.3000 -0.1504
  410MOL0     C55231   1.579   4.812   5.534 -0.2893  1.0687 -0.4366
  410MOL0     N55232   1.468   4.896   5.568 -0.3628 -0.5327  0.4540
  410MOL0     C55233   1.377   4.956   5.476 -0.5213 -0.7716  0.0623
  410MOL0     C55234   1.300   5.047   5.538 -0.7935 -0.1697  0.5028
  410MOL0     C55235   1.191   5.137   5.496  0.6355  0.1703  0.7576
  410MOL0     C55236   1.243   5.270   5.450 -0.0780 -0.4824 -0.9403
  410MOL0     C55237   1.314   5.278   5.310 -0.1023 -0.6489 -0.4088
  410MOL0     C55238   1.222   5.251   5.188  0.4906 -0.8375  0.6512
  410MOL0     O55239   1.283   5.236   5.059  0.5434  0.1756  0.3303
  410MOL0     C55240   1.327   5.343   4.981 -0.2384  0.5440  0.1560
  410MOL0     C55241   1.388   5.318   4.854 -0.5991  0.1552 -0.7806
  410MOL0     C55242   1.418   5.413   4.758 -0.2093  0.1297  0.9788
  410MOL0     C55243   1.473   5.367   4.618 -0.0528 -0.4825 -0.0053
  410MOL0     C55244   1.392   5.546   4.791  0.8165  0.2073  1.0940
  410MOL0     C55245   1.438   5.662   4.708 -0.6243  0.3245  0.7116
  410MOL0     O55246   1.377   5.790   4.719 -0.2955  0.3441  0.4338
  410MOL0     C55247   1.422   5.898   4.644 -0.7837  0.4092 -0.2478
  410MOL0     C55248   1.447   6.012   4.713 -0.5855 -0.0497  0.2612
  410MOL0     C55249   1.491   6.132   4.647 -0.0909 -0.6825  0.1670
  410MOL0     C55250   1.513   6.137   4.516  0.2759  1.1567 -0.0162
  410MOL0     O55251   1.539   6.257   4.455 -1.0596  0.1491 -0.1757
  410MOL0     C55252   1.429   6.334   4.418 -0.2149 -0.4536 -0.8023
  410MOL0     C55253   1.473   6.458   4.364  0.3163 -0.7664 -0.4641
  410MOL0     C55254   1.367   6.571   4.368  0.3175 -1.2051  0.0908
  410MOL0     C55255   1.432   6.705   4.356  0.0724 -0.5158 -0.5802
  410MOL0     C55256   1.337   6.813   4.307 -0.1719 -0.8692 -0.6778
  410MOL0     C55257   1.239   6.879   4.405 -0.8166  0.3209  0.5525
  410MOL0     C55258   1.148   6.979   4.342 -0.5973  1.1022  0.9415
  410MOL0     C55259   1.047   7.052   4.430 -0.0083 -0.5309 -0.3780
  410MOL0    Cl55260   0.946   6.941   4.522  0.4992  0.0403 -0.6975
  410MOL0     C55261   1.491   6.017   4.441  0.6272  0.2519 -0.4764
  410MOL0     C55262   1.444   5.907   4.510 -0.1665 -1.3413  0.5741
  410MOL0     O55263   1.524   5.645   4.625 -0.3229 -0.2330  0.0227
  410MOL0     C55264   1.343   5.575   4.919  0.0634 -0.3958 -0.1660
  410MOL0     C55265   1.309   5.481   5.007  0.0338 -0.0093  0.7613
  410MOL0     N55266   1.338   5.030   5.673  0.5276  0.2292 -0.3056
  410MOL0     N55267   1.433   4.943   5.686  0.6980  0.1104 -0.3021
  410MOL0     C55268   1.426   5.783   5.322  0.1534 -0.7854  0.2079
  410MOL0     C55269   1.359   5.847   5.429 -0.1230 -0.9703 -1.1963
  410MOL0     C55270   1.230   5.979   5.847  0.0970  0.6043  0.3913
  410MOL0     C55271   1.247   6.104   5.789 -0.0738  0.4284 -0.5419
  410MOL0     C55272   1.208   6.220   5.859  0.5189 -0.1766 -0.7301
  410MOL0     C55273   1.156   6.210   5.989 -0.7070  0.2919  0.9127
  410MOL0     O55274   1.112   6.310   6.064 -0.3685 -0.0040 -0.3296
  410MOL0     C55275   1.128   6.444   6.016  0.3709  0.1099  0.2448
  410MOL0     C55276   1.080   6.548   6.112 -1.6726  0.0532 -0.4600
  410MOL0     C55277   0.946   6.511   6.169  0.7864  0.3275 -0.0183
  410MOL0     C55278   0.884   6.629   6.255 -0.3152  0.0067  0.7838
  410MOL0     C55279   0.747   6.609   6.315 -0.1496  1.2265  0.2291
  410MOL0     C55280   0.643   6.589   6.377 -1.2222 -0.2083  0.0607
  410MOL0     C55281   1.146   6.083   6.047  0.4116 -0.4770 -0.1186
  410MOL0     C55282   1.184   5.967   5.977  0.2490  0.3366  0.8652
  410MOL0     H55283   1.392   5.615   5.670 -1.0221  4.2479  1.8131
  410MOL0     H55284   1.502   5.494   5.473  3.8397  1.2295 -2.2789
  410MOL0     H55285   1.655   5.598   5.124  2.6963 -2.9095 -0.8885
  410MOL0     H55286   1.692   5.596   5.309 -0.4076 -2.4947  1.6211
  410MOL0     H55287   1.639   5.366   5.115  1.8361 -1.5732 -1.8178
  410MOL0     H55288   1.796   5.419   5.160 -0.6668  2.1484 -0.4477
  410MOL0     H55289   1.758   5.357   5.400  3.0099 -3.1000 -1.0195
  410MOL0     H55290   1.591   5.332   5.366  1.3771  0.4239  2.7669
  410MOL0     H55291   1.637   5.145   5.229 -1.6661 -0.1096  2.1975
  410MOL0     H55292   1.820   5.167   5.273  1.5073 -1.2137  2.3912
  410MOL0     H55293   1.727   5.155   5.510  0.6052  1.9105 -1.0285
  410MOL0     H55294   1.580   5.089   5.443 -0.0796  1.1259  1.5465
  410MOL0     H55295   1.716   4.919   5.315 -0.8896  1.8594 -0.7386
  410MOL0     H55296   1.856   4.974   5.396 -0.7679 -0.5548 -1.4240
  410MOL0     H55297   1.778   4.790   5.553 -1.2842 -0.6788 -0.2062
  410MOL0     H55298   1.721   4.942   5.620 -1.7597  0.9863 -1.0025
  410MOL0     H55299   1.584   4.731   5.609 -1.1779  1.1240 -0.3028
  410MOL0     H55300   1.549   4.765   5.440 -0.2662  2.1054 -0.9667
  410MOL0     H55301   1.372   4.937   5.369 -0.6115 -1.1268  0.1260
  410MOL0     H55302   1.131   5.089   5.418 -2.7236 -0.3789  3.4383
  410MOL0     H55303   1.129   5.150   5.585  0.0959  0.0075  0.4109
  410MOL0     H55304   1.334   5.286   5.509 -0.7509 -1.3553  0.3937
  410MOL0     H55305   1.183   5.360   5.467  0.7822 -0.1719  0.6609
  410MOL0     H55306   1.395   5.205   5.311 -0.2297 -0.7910 -0.4101
  410MOL0     H55307   1.356   5.377   5.290  1.2130 -1.0046  0.4718
  410MOL0     H55308   1.154   5.336   5.196  0.3134 -1.0072  1.0309
  410MOL0     H55309   1.159   5.162   5.198 -1.3524 -0.2753 -3.8614
  410MOL0     H55310   1.418   5.215   4.836  3.5280  0.7951  1.3374
  410MOL0     H55311   1.497   5.261   4.631  0.2399 -0.4835 -0.5568
  410MOL0     H55312   1.399   5.382   4.539  1.4559 -0.6358 -1.5074
  410MOL0     H55313   1.568   5.411   4.589  1.3632  1.7756  6.3538
  410MOL0     H55314   1.431   6.018   4.820  1.3890 -0.8228  0.6538
  410MOL0     H55315   1.514   6.228   4.692  0.7628  1.6813 -4.6681
  410MOL0     H55316   1.362   6.277   4.352 -2.2103  0.0164  0.6923
  410MOL0     H55317   1.366   6.339   4.507  0.9060 -1.8928  0.1129
  410MOL0     H55318   1.567   6.487   4.412 -0.3871 -0.2385  0.6320
  410MOL0     H55319   1.496   6.444   4.258  1.6652  2.2809 -0.6937
  410MOL0     H55320   1.315   6.575   4.464 -2.8838  0.5574 -1.5470
  410MOL0     H55321   1.292   6.542   4.294  0.9041  1.7982 -1.8978
  410MOL0     H55322   1.480   6.728   4.452 -0.0238 -2.1213 -0.1109
  410MOL0     H55323   1.512   6.703   4.281  1.2658  2.2755  0.4753
  410MOL0     H55324   1.272   6.765   4.234 -6.2213 -0.4782  3.7322
  410MOL0     H55325   1.395   6.892   4.259 -1.8542  0.6495 -0.3108
  410MOL0     H55326   1.181   6.801   4.455  1.0751 -1.1307  0.5855
  410MOL0     H55327   1.294   6.924   4.488 -2.9702  2.8097  0.7824
  410MOL0     H55328   1.095   6.936   4.256  2.5689 -1.3845  0.0637
  410MOL0     H55329   1.208   7.053   4.289  0.3797 -1.3444 -1.6331
  410MOL0     H55330   0.988   7.107   4.356  1.2243 -0.0148 -1.0102
  410MOL0     H55331   1.097   7.126   4.493 -2.0975 -0.0466  0.8206
  410MOL0     H55332   1.507   6.021   4.334  1.8611 -2.9327 -0.5032
  410MOL0     H55333   1.418   5.817   4.454  0.0720 -0.9169 -0.2345
  410MOL0     H55334   1.339   5.680   4.947  0.9171 -0.0024 -1.4720
  410MOL0     H55335   1.289   5.513   5.109  0.1696  3.1851 -0.1274
  410MOL0     H55336   1.443   5.824   5.223  0.8790 -2.0807 -0.2399
  410MOL0     H55337   1.312   5.944   5.418  1.4935 -0.0552 -0.2994
  410MOL0     H55338   1.287   6.115   5.689 -1.5459  3.2495 -0.9543
  410MOL0     H55339   1.207   6.317   5.809 -3.6084  0.1434 -0.3284
  410MOL0     H55340   1.232   6.475   6.002  0.0085  1.4891  0.4492
  410MOL0     H55341   1.090   6.454   5.914  1.2505 -0.0813 -0.1156
  410MOL0     H55342   1.081   6.647   6.064 -1.3579  0.1995 -0.1495
  410MOL0     H55343   1.150   6.552   6.196 -2.4724 -1.8900  0.3536
  410MOL0     H55344   0.952   6.425   6.236  0.9286  1.8696  2.0213
  410MOL0     H55345   0.864   6.480   6.104 -3.6798  2.0916  4.1536
  410MOL0     H55346   0.871   6.718   6.192 -1.2465  0.2010  1.2218
  410MOL0     H55347   0.951   6.671   6.330 -0.4979  1.8656 -0.0415
  410MOL0     H55348   0.568   6.545   6.439 -0.7029  0.5805  1.2976
  410MOL0     H55349   1.094   6.063   6.140 -0.7421 -2.4522 -1.1160
  410MOL0     H55350   1.171   5.871   6.026 -1.0526 -1.2665 -2.3609
  411MOL0     O55351   9.575   2.591   2.812 -1.0158 -0.4069  0.2180
  411MOL0     C55352   9.666   2.527   2.761 -0.2496  0.4396  0.0513
  411MOL0     O55353   9.792   2.513   2.809  0.2905  0.2566 -0.9900
  411MOL0     C55354   9.840   2.570   2.925  0.2534  0.5064  0.2632
  411MOL0     C55355   9.770   2.673   2.996  0.4684  0.4710 -0.4744
  411MOL0     C55356   9.825   2.734   3.113  0.0096  0.9843  0.0259
  411MOL0     C55357   9.953   2.694   3.150 -0.1998 -1.0957 -0.1349
  411MOL0     O55358  10.017   2.747   3.257  0.5050 -0.1853  0.3754
  411MOL0     C55359  10.022   2.642   3.360 -0.3867  0.1539  0.3327
  411MOL0     C55360  10.078   2.715   3.490 -0.1486  0.0442  0.2598
  411MOL0     C55361  10.085   2.641   3.617  0.3553 -0.1247 -0.4845
  411MOL0     C55362   9.957   2.680   3.704 -0.2167  0.7419 -0.3396
  411MOL0     C55363   9.835   2.589   3.661 -0.0834  0.4613  0.3055
  411MOL0     C55364   9.733   2.576   3.778  0.4259 -0.2050  0.5939
  411MOL0     C55365   9.665   2.709   3.810 -0.2243 -0.1029  0.3835
  411MOL0     C55366   9.570   2.767   3.700 -0.0220 -0.5439 -0.1036
  411MOL0     N55367   9.501   2.872   3.773 -0.0536 -0.4688  0.1884
  411MOL0     C55368   9.557   2.990   3.780 -0.3906 -1.5493 -0.5973
  411MOL0     C55369   9.448   3.076   3.805  0.2113  0.6697  0.5615
  411MOL0     C55370   9.451   3.227   3.834 -0.8294  0.1433 -0.8253
  411MOL0     C55371   9.367   3.303   3.741  0.6217  0.7809 -0.3259
  411MOL0     C55372   9.370   3.447   3.797  0.3551 -0.1611 -0.2220
  411MOL0     C55373   9.301   3.547   3.700  0.2755 -0.5357 -0.6574
  411MOL0     O55374   9.411   3.579   3.625  0.5702 -0.2891 -0.1821
  411MOL0     C55375   9.406   3.685   3.538  0.4220 -0.1142  0.4789
  411MOL0     C55376   9.291   3.757   3.504 -0.3449 -0.8405 -1.1249
  411MOL0     C55377   9.304   3.860   3.409 -0.0796 -0.1877 -0.5929
  411MOL0     C55378   9.172   3.933   3.363 -0.1224  0.4393  0.3687
  411MOL0     C55379   9.433   3.897   3.360 -0.6286  0.5119 -0.4101
  411MOL0     C55380   9.462   3.993   3.245 -0.8308  0.5062 -0.0639
  411MOL0     O55381   9.577   4.053   3.249  0.0036 -0.3539 -0.1888
  411MOL0     C55382   9.617   4.105   3.122  0.3497  0.0580 -0.7714
  411MOL0     C55383   9.555   4.225   3.081 -0.5391 -0.7054  0.5925
  411MOL0     C55384   9.597   4.275   2.958 -0.3936  0.8010 -0.5748
  411MOL0     C55385   9.695   4.200   2.880 -0.2995 -0.3512  0.0750
  411MOL0     O55386   9.715   4.244   2.746  0.5964 -0.3657 -0.0488
  411MOL0     C55387   9.814   4.167   2.670  0.3178  0.3155 -0.6336
  411MOL0     C55388   9.806   4.211   2.523  0.6305  0.0605  0.3922
  411MOL0     C55389   9.860   4.352   2.518 -0.2546 -0.6644  0.3498
  411MOL0     C55390   9.895   4.392   2.375 -1.0496  0.3838 -0.0996
  411MOL0     C55391   9.940   4.534   2.358 -0.8835 -0.5797 -0.7275
  411MOL0     C55392   9.959   4.569   2.212  0.1922 -0.3616 -1.0837
  411MOL0     C55393  10.096   4.569   2.146  0.0125  0.4772  0.8453
  411MOL0     C55394  10.188   4.459   2.203  0.9681  0.2340 -0.5546
  411MOL0    Cl55395  10.348   4.500   2.130 -0.5805 -0.1624 -0.4223
  411MOL0     C55396   9.749   4.081   2.935  0.2283 -0.2729  0.7868
  411MOL0     C55397   9.712   4.034   3.057 -1.0393 -0.4019 -0.2090
  411MOL0     O55398   9.388   3.991   3.149 -0.2176  0.1595  0.2427
  411MOL0     C55399   9.546   3.823   3.403  0.1019  0.4971  0.2045
  411MOL0     C55400   9.529   3.716   3.490  0.0281 -0.7864  0.3491
  411MOL0     N55401   9.329   3.000   3.808 -0.0914 -0.2285  0.7192
  411MOL0     N55402   9.369   2.875   3.792  0.0872 -0.0260  0.3772
  411MOL0     C55403  10.027   2.602   3.071 -0.0956  0.4842  0.8931
  411MOL0     C55404   9.973   2.539   2.960  0.1964 -0.7600 -0.3311
  411MOL0     C55405   9.646   2.439   2.646  0.3654  0.4045 -0.4517
  411MOL0     C55406   9.515   2.395   2.609 -0.2829 -0.2347  0.3385
  411MOL0     C55407   9.495   2.302   2.514  0.4286  0.2593  0.7776
  411MOL0     C55408   9.600   2.257   2.436 -2.1295 -1.0438 -0.7562
  411MOL0     O55409   9.576   2.174   2.334 -0.4085  0.0325  0.7043
  411MOL0     C55410   9.589   2.239   2.203  1.1147  0.5374 -0.3784
  411MOL0     C55411   9.518   2.146   2.105  0.2398  0.0959  0.4063
  411MOL0     C55412   9.523   2.179   1.956  0.0195  0.8604  0.2887
  411MOL0     C55413   9.442   2.302   1.931 -0.3782 -0.5909  0.4687
  411MOL0     C55414   9.535   2.412   1.911 -0.4114 -0.7874  0.0358
  411MOL0     C55415   9.589   2.519   1.895 -0.3536 -0.3611 -0.5081
  411MOL0     C55416   9.731   2.305   2.464 -0.6756 -1.0559 -0.1804
  411MOL0     C55417   9.750   2.382   2.577  0.6560 -0.3251 -0.5455
  411MOL0     H55418   9.670   2.705   2.969  0.3629 -1.3483 -2.5907
  411MOL0     H55419   9.779   2.807   3.178 -3.0265 -0.0311 -0.8464
  411MOL0     H55420   9.922   2.601   3.377 -0.3723  0.0229  0.1154
  411MOL0     H55421  10.088   2.561   3.328 -0.0707  1.4644 -2.7176
  411MOL0     H55422  10.179   2.747   3.461 -0.0256  0.6378  1.3215
  411MOL0     H55423  10.031   2.812   3.503  0.4637  0.7963 -2.4006
  411MOL0     H55424  10.112   2.536   3.602  2.3415  0.7466 -4.3029
  411MOL0     H55425  10.164   2.688   3.677  0.0607 -1.4718  1.0388
  411MOL0     H55426   9.989   2.674   3.809  0.9582 -1.2825 -0.7570
  411MOL0     H55427   9.930   2.786   3.700 -0.2568  0.8469  1.5475
  411MOL0     H55428   9.793   2.637   3.572 -2.1283 -0.7683  0.5437
  411MOL0     H55429   9.863   2.487   3.632  0.7593  0.4574  1.0615
  411MOL0     H55430   9.647   2.513   3.751 -1.2851  1.4514  1.9318
  411MOL0     H55431   9.783   2.536   3.867  1.2919 -0.0039  0.2064
  411MOL0     H55432   9.617   2.690   3.906  2.7486 -1.2651  1.7733
  411MOL0     H55433   9.741   2.783   3.835  1.3681 -2.2082  2.1994
  411MOL0     H55434   9.501   2.696   3.655 -0.1390  0.7749 -2.1322
  411MOL0     H55435   9.630   2.801   3.615 -1.4395 -0.8316 -1.2545
  411MOL0     H55436   9.660   3.018   3.800 -1.1306  0.2199  1.0509
  411MOL0     H55437   9.412   3.232   3.936  3.0009  1.2706  0.7816
  411MOL0     H55438   9.553   3.266   3.838 -0.2860 -1.1235 -1.5350
  411MOL0     H55439   9.265   3.267   3.752  0.4239  1.6833  0.9337
  411MOL0     H55440   9.405   3.302   3.638  4.4331  0.1292  0.9393
  411MOL0     H55441   9.473   3.467   3.829  0.5714 -4.0671  2.1354
  411MOL0     H55442   9.298   3.447   3.879 -0.9277  1.5371 -1.2767
  411MOL0     H55443   9.235   3.625   3.740 -2.1303 -4.2125  3.4082
  411MOL0     H55444   9.222   3.491   3.649 -1.2789  0.1438  0.8906
  411MOL0     H55445   9.195   3.734   3.549  0.1821 -0.1140  0.4478
  411MOL0     H55446   9.196   4.027   3.313  0.8325 -0.3186 -0.6534
  411MOL0     H55447   9.128   3.865   3.290  1.6139 -1.5102  1.0316
  411MOL0     H55448   9.114   3.947   3.455  0.3500 -0.8771  0.8884
  411MOL0     H55449   9.491   4.279   3.149 -1.6348 -0.2629 -0.7403
  411MOL0     H55450   9.550   4.364   2.917 -0.0708  0.9644 -0.5875
  411MOL0     H55451   9.914   4.188   2.709 -0.6234  2.3471  0.9239
  411MOL0     H55452   9.784   4.062   2.678  0.6549  0.1822 -1.0695
  411MOL0     H55453   9.862   4.146   2.455 -1.1439 -2.6457  1.3352
  411MOL0     H55454   9.703   4.189   2.494  1.2464 -2.4656 -0.1548
  411MOL0     H55455   9.950   4.361   2.581 -0.6571 -0.1266  0.8683
  411MOL0     H55456   9.790   4.426   2.559  1.2041  0.2222  1.3621
  411MOL0     H55457   9.959   4.314   2.331 -0.9131  0.9049 -0.8429
  411MOL0     H55458   9.797   4.385   2.329 -0.5975  1.0587 -1.1955
  411MOL0     H55459  10.022   4.571   2.420 -1.9258  0.7383 -0.1012
  411MOL0     H55460   9.855   4.593   2.390 -0.2972 -0.3114  0.3940
  411MOL0     H55461   9.881   4.511   2.161  0.7588 -1.8471 -0.3185
  411MOL0     H55462   9.913   4.667   2.199 -1.7726 -1.2072 -0.8021
  411MOL0     H55463  10.140   4.669   2.158  0.1272  1.0065 -2.8414
  411MOL0     H55464  10.079   4.542   2.042 -2.1524  0.6944  1.1033
  411MOL0     H55465  10.146   4.364   2.167 -0.4481  1.1388 -1.4113
  411MOL0     H55466  10.195   4.477   2.310  0.3068 -0.7065 -0.3427
  411MOL0     H55467   9.825   4.029   2.878 -1.9378  0.2465 -2.9118
  411MOL0     H55468   9.761   3.952   3.108 -0.9297  0.8453  1.7894
  411MOL0     H55469   9.640   3.846   3.353  0.4537 -0.0753  0.5879
  411MOL0     H55470   9.624   3.671   3.518  1.1045  1.1700  0.0344
  411MOL0     H55471  10.127   2.581   3.107 -0.8013 -2.2768  1.4289
  411MOL0     H55472  10.027   2.470   2.897  0.5248 -1.0234  0.2307
  411MOL0     H55473   9.438   2.448   2.665 -0.7274  0.9739 -1.3455
  411MOL0     H55474   9.396   2.279   2.477  1.0627  1.0885 -1.6228
  411MOL0     H55475   9.556   2.343   2.200  1.6699  0.7845  1.0322
  411MOL0     H55476   9.698   2.243   2.192  1.3161  0.5354  1.2436
  411MOL0     H55477   9.413   2.132   2.135  0.4235  2.8563  2.8469
  411MOL0     H55478   9.567   2.049   2.116  0.5016  0.1445 -0.3050
  411MOL0     H55479   9.484   2.098   1.894  2.5284 -0.5776  0.4481
  411MOL0     H55480   9.624   2.178   1.913  0.4399 -1.4805  1.1893
  411MOL0     H55481   9.377   2.317   2.017 -1.7047 -0.1304 -0.5777
  411MOL0     H55482   9.373   2.290   1.846  0.9901 -3.4353 -0.3521
  411MOL0     H55483   9.628   2.617   1.874 -2.2210  0.2232 -1.5268
  411MOL0     H55484   9.799   2.265   2.390  0.3716 -3.0754  1.7550
  411MOL0     H55485   9.854   2.412   2.594  1.1053 -1.4050 -1.2938
  412MOL0     O55486   8.080   1.458  10.934 -0.4161 -0.3911  0.3987
  412MOL0     C55487   8.104   1.563  10.869  0.3246  0.5557 -0.2743
  412MOL0     O55488   8.199   1.656  10.905  0.3893 -0.3277  0.5469
  412MOL0     C55489   8.255   1.665  11.030 -0.8235 -0.8025 -0.2259
  412MOL0     C55490   8.281   1.564  11.120  0.1398  0.2453 -0.2729
  412MOL0     C55491   8.316   1.590  11.253 -0.5120  0.5061 -0.2261
  412MOL0     C55492   8.331   1.718  11.297  0.3765 -0.6905 -0.4621
  412MOL0     O55493   8.363   1.741  11.430 -0.1453  0.4696  1.2765
  412MOL0     C55494   8.499   1.695  11.470 -0.0589 -0.3038  0.2854
  412MOL0     C55495   8.603   1.801  11.419  0.3480  0.2362  0.2607
  412MOL0     C55496   8.572   1.939  11.475 -0.0047  0.3078  0.0916
  412MOL0     C55497   8.679   2.041  11.439 -0.5062 -0.1005 -0.8184
  412MOL0     C55498   8.634   2.172  11.504  0.0425  0.5484  0.0705
  412MOL0     C55499   8.742   2.276  11.519 -1.0264  0.3117 -0.6865
  412MOL0     C55500   8.706   2.395  11.606 -0.8624  1.2835 -0.0084
  412MOL0     C55501   8.831   2.481  11.632  0.4220  0.4616  0.1255
  412MOL0     N55502   8.875   2.557  11.509  0.6774  0.6043 -0.2351
  412MOL0     C55503   8.805   2.585  11.396  0.0679 -0.3667  0.0844
  412MOL0     C55504   8.902   2.634  11.315  0.0266 -0.0765 -0.3339
  412MOL0     C55505   8.888   2.680  11.169 -0.0656  0.2333 -1.0174
  412MOL0     C55506   8.854   2.554  11.089 -0.0642 -0.6888  0.2502
  412MOL0     C55507   8.839   2.600  10.943 -0.3428 -0.1618 -0.2932
  412MOL0     C55508   8.768   2.493  10.849  0.1112 -0.0458 -0.0251
  412MOL0     O55509   8.799   2.519  10.714  0.6862 -0.4049  0.2465
  412MOL0     C55510   8.739   2.444  10.622  0.8826  0.7051 -0.3528
  412MOL0     C55511   8.703   2.526  10.518  0.0256 -0.7077  0.3919
  412MOL0     C55512   8.630   2.484  10.413  0.1676  0.1422  0.2144
  412MOL0     C55513   8.593   2.582  10.305 -0.2092 -0.2864  0.3165
  412MOL0     C55514   8.590   2.344  10.415 -0.3950 -0.5571 -0.3430
  412MOL0     C55515   8.510   2.279  10.299 -0.4263 -0.5348  0.1355
  412MOL0     O55516   8.547   2.282  10.164 -0.5861  0.2538  0.4790
  412MOL0     C55517   8.470   2.240  10.055 -0.4978 -0.6090  0.0004
  412MOL0     C55518   8.335   2.219  10.052  0.3864  0.0220  0.2884
  412MOL0     C55519   8.262   2.178   9.942 -0.5366  0.0733  0.3301
  412MOL0     C55520   8.327   2.135   9.826 -0.7695 -0.2454 -0.9911
  412MOL0     O55521   8.265   2.072   9.723  0.1294  0.1659  0.0154
  412MOL0     C55522   8.134   2.016   9.745 -0.2196  0.4915 -0.6905
  412MOL0     C55523   8.084   1.959   9.613  0.4670  0.0475  0.6958
  412MOL0     C55524   8.005   2.071   9.530  0.0759 -0.0906  0.3455
  412MOL0     C55525   8.097   2.188   9.500  0.4224 -0.1885  0.2402
  412MOL0     C55526   8.040   2.307   9.442  0.0667 -0.9115  0.4766
  412MOL0     C55527   7.953   2.290   9.315 -0.1192 -0.0343 -0.2877
  412MOL0     C55528   8.043   2.272   9.197  0.1974  0.4910  0.4731
  412MOL0     C55529   7.956   2.252   9.074 -0.7865 -0.4989 -0.3163
  412MOL0    Cl55530   7.861   2.393   9.013 -0.0792 -0.2287  0.2705
  412MOL0     C55531   8.459   2.165   9.824 -0.8596 -0.4445 -0.6562
  412MOL0     C55532   8.536   2.222   9.933 -0.3862  0.5164 -0.3708
  412MOL0     O55533   8.416   2.219  10.345  0.4988 -0.0195  0.1952
  412MOL0     C55534   8.623   2.268  10.524 -0.1420  0.0259 -1.2006
  412MOL0     C55535   8.693   2.315  10.634 -0.6064  0.1367 -1.2747
  412MOL0     N55536   9.023   2.612  11.376  0.5856 -0.9623  0.5243
  412MOL0     N55537   9.008   2.564  11.495  1.0637 -0.5355 -0.4440
  412MOL0     C55538   8.313   1.828  11.207  0.4151 -0.5832 -0.5984
  412MOL0     C55539   8.270   1.796  11.080  0.0079 -0.7969  0.1758
  412MOL0     C55540   8.031   1.583  10.740 -0.1139 -0.4206  0.3360
  412MOL0     C55541   7.916   1.503  10.706  1.3681  0.8827  0.3892
  412MOL0     C55542   7.846   1.532  10.585 -0.2676  0.0764 -0.2262
  412MOL0     C55543   7.881   1.649  10.511  0.8564 -0.0554  0.7290
  412MOL0     O55544   7.796   1.686  10.407 -0.1625 -0.4208 -0.2334
  412MOL0     C55545   7.698   1.602  10.351  0.2898 -0.5549 -1.0849
  412MOL0     C55546   7.656   1.661  10.209  0.4524  0.0786  0.1502
  412MOL0     C55547   7.762   1.628  10.107  0.2766  1.0593 -1.0897
  412MOL0     C55548   7.727   1.649   9.965  0.1915  0.1239  0.4033
  412MOL0     C55549   7.718   1.791   9.943  0.4269 -1.1218 -1.1293
  412MOL0     C55550   7.711   1.911   9.930 -0.3334  0.5955  0.0294
  412MOL0     C55551   7.999   1.715  10.536  0.2765  0.1782 -0.1097
  412MOL0     C55552   8.073   1.693  10.651  0.2050 -0.5465 -1.4687
  412MOL0     H55553   8.252   1.463  11.094  2.8361 -0.2540 -1.6439
  412MOL0     H55554   8.337   1.502  11.314 -0.1221 -0.0391 -1.1136
  412MOL0     H55555   8.495   1.689  11.579 -1.7480  1.9070  0.4053
  412MOL0     H55556   8.502   1.591  11.434 -1.2407 -1.7745  4.0103
  412MOL0     H55557   8.701   1.763  11.451  2.1073  3.5219 -0.7429
  412MOL0     H55558   8.597   1.806  11.310 -1.1327  2.4347  0.3929
  412MOL0     H55559   8.472   1.965  11.439  0.3335 -1.3165 -2.3052
  412MOL0     H55560   8.587   1.948  11.583 -0.1099  2.6885 -0.0424
  412MOL0     H55561   8.783   2.015  11.463  1.5185  3.6643 -4.1889
  412MOL0     H55562   8.684   2.069  11.334 -0.0391  0.8798 -0.5511
  412MOL0     H55563   8.554   2.212  11.442  2.0105  1.7771 -1.7846
  412MOL0     H55564   8.588   2.150  11.601 -0.5637  1.5580  0.0240
  412MOL0     H55565   8.827   2.220  11.561 -1.7144  0.0546  0.3981
  412MOL0     H55566   8.770   2.308  11.419 -0.5071 -2.7569 -1.6459
  412MOL0     H55567   8.625   2.456  11.564 -1.2986  0.3876 -0.4813
  412MOL0     H55568   8.674   2.347  11.699  1.3545  1.3474  0.8557
  412MOL0     H55569   8.917   2.417  11.653  0.9004  0.7073 -0.9994
  412MOL0     H55570   8.810   2.550  11.714 -1.8129 -1.1320  0.9727
  412MOL0     H55571   8.709   2.546  11.365  1.3092 -2.2834 -1.6016
  412MOL0     H55572   8.816   2.763  11.166 -1.0405 -0.2518  3.1159
  412MOL0     H55573   8.984   2.724  11.141  0.2463  2.6549  3.0523
  412MOL0     H55574   8.772   2.497  11.133 -1.7717  1.5287  0.1136
  412MOL0     H55575   8.942   2.490  11.087  0.5493  0.0683  1.5826
  412MOL0     H55576   8.928   2.649  10.901 -1.0799  0.3059 -1.3286
  412MOL0     H55577   8.763   2.679  10.949 -0.9948 -0.7879 -0.2356
  412MOL0     H55578   8.661   2.509  10.865  0.5281  3.2393  0.0813
  412MOL0     H55579   8.805   2.394  10.879 -0.0005  0.2564  1.1623
  412MOL0     H55580   8.723   2.632  10.532  0.1983 -0.9709  2.5283
  412MOL0     H55581   8.642   2.561  10.210 -0.5117 -2.3339  0.5721
  412MOL0     H55582   8.485   2.583  10.287  0.1389  4.5361 -3.5257
  412MOL0     H55583   8.622   2.685  10.329 -0.4828  0.0420 -0.7190
  412MOL0     H55584   8.280   2.225  10.146 -0.1438 -0.1816  0.0012
  412MOL0     H55585   8.154   2.168   9.954 -0.4213 -3.2086 -0.4163
  412MOL0     H55586   8.137   1.937   9.820 -2.1242  0.4835 -0.5606
  412MOL0     H55587   8.074   2.092   9.795 -0.5888 -1.3128  1.7863
  412MOL0     H55588   8.164   1.934   9.543  0.0304 -0.5271  0.3894
  412MOL0     H55589   8.011   1.880   9.633  1.0580 -0.2874  1.6009
  412MOL0     H55590   7.914   2.108   9.578 -0.8626 -0.2772 -1.1853
  412MOL0     H55591   7.979   2.016   9.438  0.8950 -0.8539  0.5597
  412MOL0     H55592   8.141   2.224   9.593  2.4507  1.1794 -1.1666
  412MOL0     H55593   8.184   2.163   9.438  2.0459  3.7666  0.6102
  412MOL0     H55594   8.116   2.384   9.426 -0.4618 -0.0776  1.7615
  412MOL0     H55595   7.968   2.357   9.508  0.4178  1.7712 -1.0107
  412MOL0     H55596   7.895   2.199   9.333  1.0584 -0.3617  2.2093
  412MOL0     H55597   7.886   2.376   9.307 -0.1606 -0.1053 -0.7443
  412MOL0     H55598   8.113   2.191   9.218 -0.5362 -0.5222 -0.8469
  412MOL0     H55599   8.108   2.357   9.176  0.5515  0.5956  1.8741
  412MOL0     H55600   7.895   2.161   9.074 -0.6220 -0.6319  1.3856
  412MOL0     H55601   8.029   2.236   8.994 -0.9785 -2.6759 -0.1037
  412MOL0     H55602   8.518   2.126   9.741  0.3502 -0.1516  0.0313
  412MOL0     H55603   8.644   2.229   9.925 -0.2579  0.0621  0.8338
  412MOL0     H55604   8.590   2.164  10.522  3.5871 -1.3407 -3.0825
  412MOL0     H55605   8.703   2.260  10.728 -0.8325  0.7539 -0.8796
  412MOL0     H55606   8.329   1.930  11.240 -0.5438 -0.1388 -1.4403
  412MOL0     H55607   8.248   1.881  11.015 -3.2869 -0.3144  1.7229
  412MOL0     H55608   7.872   1.429  10.772 -0.7403  0.5633 -1.2760
  412MOL0     H55609   7.756   1.482  10.552 -0.7918  2.9771 -3.9571
  412MOL0     H55610   7.742   1.502  10.343  1.4838 -0.0290 -1.1828
  412MOL0     H55611   7.607   1.604  10.412  0.7767 -2.8043 -0.1878
  412MOL0     H55612   7.622   1.765  10.210  1.7073  0.5535  3.0429
  412MOL0     H55613   7.563   1.609  10.184  0.6658 -2.1134  3.3098
  412MOL0     H55614   7.782   1.521  10.117 -4.0463  0.2252  0.7602
  412MOL0     H55615   7.845   1.691  10.140 -0.4152  2.1623 -1.3669
  412MOL0     H55616   7.633   1.603   9.932 -0.4528  2.8360 -1.9686
  412MOL0     H55617   7.797   1.606   9.892  3.9136  1.1504  3.1087
  412MOL0     H55618   7.711   2.018   9.921  1.0837  0.5198 -1.3423
  412MOL0     H55619   8.030   1.799  10.475  2.8800 -0.8631 -0.3617
  412MOL0     H55620   8.159   1.749  10.686 -0.0455 -0.6906 -0.5902
  413MOL0     O55621   6.778   9.156   0.734 -0.8787 -0.2989 -0.0104
  413MOL0     C55622   6.686   9.215   0.676  0.0503 -0.1006 -0.3587
  413MOL0     O55623   6.663   9.354   0.681  0.8145 -0.0412 -0.3037
  413MOL0     C55624   6.712   9.428   0.786  0.4299  0.9242  0.1532
  413MOL0     C55625   6.652   9.434   0.911  0.0403 -0.2829 -0.3290
  413MOL0     C55626   6.717   9.507   1.011 -0.4080 -0.4973  0.0706
  413MOL0     C55627   6.824   9.583   0.983 -0.5804  0.0986 -0.6566
  413MOL0     O55628   6.886   9.648   1.088 -0.3622 -0.5729 -0.1488
  413MOL0     C55629   6.997   9.735   1.068  0.3818 -0.6309 -0.3706
  413MOL0     C55630   6.998   9.814   1.199 -0.2904  0.7538 -0.1630
  413MOL0     C55631   6.872   9.891   1.223  0.0173  0.5180  0.1464
  413MOL0     C55632   6.881   9.963   1.359 -0.4778 -0.1198 -0.6458
  413MOL0     C55633   6.743  10.014   1.380  0.4772  0.7212  0.0063
  413MOL0     C55634   6.750  10.165   1.352 -1.2268  0.2291  0.2786
  413MOL0     C55635   6.683  10.218   1.236 -0.9287  0.1816  0.8805
  413MOL0     C55636   6.686  10.377   1.243 -0.8425 -0.2527  0.1944
  413MOL0     N55637   6.656  10.434   1.104 -0.4378  0.4655 -1.1005
  413MOL0     C55638   6.529  10.453   1.063  0.1652 -0.4361 -0.4772
  413MOL0     C55639   6.538  10.526   0.955  0.0325 -0.2813 -0.3116
  413MOL0     C55640   6.433  10.597   0.866 -1.0586 -0.5909  0.2899
  413MOL0     C55641   6.332  10.488   0.804 -0.1531 -0.1196 -0.5440
  413MOL0     C55642   6.387  10.372   0.716  0.5207  0.0676 -0.2647
  413MOL0     C55643   6.279  10.272   0.685  0.1971  0.0196  0.6166
  413MOL0     O55644   6.172  10.340   0.613  0.4175  0.0674  0.2840
  413MOL0     C55645   6.043  10.292   0.614  0.3609  0.5486 -0.1277
  413MOL0     C55646   5.939  10.375   0.569  1.9733  0.7124  0.1410
  413MOL0     C55647   5.814  10.332   0.551  0.3415  0.2208 -1.2032
  413MOL0     C55648   5.713  10.429   0.508  0.3688  0.2807 -1.0162
  413MOL0     C55649   5.779  10.200   0.584 -0.1749 -0.1331 -0.8003
  413MOL0     C55650   5.648  10.141   0.592 -0.1201  0.1651  0.6961
  413MOL0     O55651   5.647  10.003   0.617 -0.6503 -0.4941 -0.2522
  413MOL0     C55652   5.527   9.939   0.605  0.0831 -0.6647 -0.0995
  413MOL0     C55653   5.422   9.963   0.693 -0.4566 -0.0365  0.1074
  413MOL0     C55654   5.305   9.881   0.688  0.2174 -0.0657  0.8544
  413MOL0     C55655   5.285   9.800   0.577  0.2040  0.3959  0.5952
  413MOL0     O55656   5.169   9.744   0.543  0.7375  0.1124 -0.3223
  413MOL0     C55657   5.051   9.825   0.560 -0.3975 -0.1389  0.4632
  413MOL0     C55658   4.934   9.758   0.482 -0.2948 -0.5734  0.3621
  413MOL0     C55659   4.969   9.706   0.332  0.7317 -0.2231  0.2636
  413MOL0     C55660   4.834   9.689   0.258 -0.2098 -1.7300 -0.5107
  413MOL0     C55661   4.848   9.642   0.109 -0.3265  0.5822 -0.0658
  413MOL0     C55662   4.713   9.651   0.039 -0.7733  0.7169  0.7525
  413MOL0     C55663   4.693   9.589  -0.104 -0.7420 -0.0511 -0.8996
  413MOL0     C55664   4.551   9.579  -0.155 -0.4652  0.4271 -0.3129
  413MOL0    Cl55665   4.477   9.745  -0.130  0.0013 -0.7938 -0.1214
  413MOL0     C55666   5.388   9.772   0.487 -0.3204 -0.6834  0.3461
  413MOL0     C55667   5.510   9.848   0.502 -0.1701  0.6403  0.3833
  413MOL0     O55668   5.543  10.204   0.575  0.7703 -0.4994  0.4104
  413MOL0     C55669   5.883  10.121   0.638 -0.9339  1.0935  0.3937
  413MOL0     C55670   6.012  10.161   0.656  0.4075 -0.5931 -0.3518
  413MOL0     N55671   6.673  10.550   0.935  0.1122  0.0165  0.3134
  413MOL0     N55672   6.737  10.506   1.032 -0.1511  0.4406 -0.3494
  413MOL0     C55673   6.882   9.579   0.856 -0.0236  0.1049 -0.4245
  413MOL0     C55674   6.825   9.497   0.760  0.0207  0.1810 -0.0084
  413MOL0     C55675   6.570   9.139   0.609  0.2147  0.0647  0.4513
  413MOL0     C55676   6.481   9.210   0.524  0.5004  0.5157  0.4296
  413MOL0     C55677   6.399   9.135   0.443  0.9321 -0.1715 -0.4844
  413MOL0     C55678   6.397   8.989   0.436 -0.5517 -0.6580 -0.5643
  413MOL0     O55679   6.304   8.922   0.369  0.0383  1.4108 -0.3675
  413MOL0     C55680   6.184   8.896   0.446  0.2908 -0.5227  1.1345
  413MOL0     C55681   6.084   8.809   0.371  0.4545  0.3356 -0.5225
  413MOL0     C55682   6.077   8.830   0.217  0.7002 -0.6174 -0.2155
  413MOL0     C55683   6.032   8.977   0.186 -0.9145  0.0601  0.6951
  413MOL0     C55684   6.044   8.999   0.041  0.3945  1.3575 -0.4959
  413MOL0     C55685   6.061   9.029  -0.067 -0.1619  0.0923  1.0005
  413MOL0     C55686   6.491   8.922   0.522  0.5632 -0.5163 -0.4084
  413MOL0     C55687   6.576   9.000   0.603  0.7907 -0.2571 -1.4671
  413MOL0     H55688   6.557   9.387   0.932 -1.2481  2.2602 -0.0990
  413MOL0     H55689   6.674   9.495   1.110 -1.0630 -0.6808 -0.2332
  413MOL0     H55690   7.089   9.683   1.040  0.7528  0.4842 -1.2652
  413MOL0     H55691   6.973   9.805   0.987 -0.9794 -2.2881 -1.4821
  413MOL0     H55692   7.018   9.755   1.289  0.2564  2.4233  0.8674
  413MOL0     H55693   7.074   9.892   1.198  0.5872 -0.0721  0.2983
  413MOL0     H55694   6.868   9.965   1.142  2.4377  0.3886 -0.1688
  413MOL0     H55695   6.784   9.826   1.221 -1.1845  2.1058 -0.5829
  413MOL0     H55696   6.896   9.888   1.437 -1.4541  0.3001 -0.0300
  413MOL0     H55697   6.964  10.034   1.362  0.4796 -1.2319  0.1533
  413MOL0     H55698   6.661   9.960   1.331 -1.8252  1.8072  2.3884
  413MOL0     H55699   6.731   9.997   1.487 -1.2117  1.8898  0.0491
  413MOL0     H55700   6.720  10.204   1.450 -0.0636  2.1836 -0.0865
  413MOL0     H55701   6.851  10.202   1.330 -0.8689 -1.8249 -1.8790
  413MOL0     H55702   6.720  10.186   1.138 -0.8007  4.5597 -0.7193
  413MOL0     H55703   6.587  10.167   1.248  0.2725 -1.9104  2.4393
  413MOL0     H55704   6.783  10.414   1.276 -1.1507  0.8262 -0.0814
  413MOL0     H55705   6.607  10.415   1.309 -1.6957 -0.4239 -0.6986
  413MOL0     H55706   6.436  10.417   1.105  0.4907 -0.1127  0.5447
  413MOL0     H55707   6.371  10.655   0.935 -0.6103 -0.8005  0.8829
  413MOL0     H55708   6.479  10.656   0.786  2.2625 -1.5241  1.3496
  413MOL0     H55709   6.264  10.546   0.741 -1.2164 -2.9694 -2.2154
  413MOL0     H55710   6.264  10.454   0.883  0.1055  3.5082  1.4808
  413MOL0     H55711   6.458  10.316   0.779 -1.2782 -2.1544 -0.0845
  413MOL0     H55712   6.435  10.397   0.621  3.6992 -1.9859  0.6209
  413MOL0     H55713   6.237  10.243   0.782 -0.8694 -0.3462  0.0639
  413MOL0     H55714   6.317  10.184   0.632 -2.8765 -1.8377  1.2746
  413MOL0     H55715   5.965  10.480   0.558  0.7324  0.9996 -0.1920
  413MOL0     H55716   5.763  10.512   0.458 -1.8497  2.4539  0.1887
  413MOL0     H55717   5.659  10.382   0.425 -4.2103  1.5484  0.9333
  413MOL0     H55718   5.642  10.446   0.589  0.8272  1.3916 -0.8379
  413MOL0     H55719   5.434  10.023   0.783 -1.1380 -2.4916  1.9362
  413MOL0     H55720   5.222   9.898   0.755  0.2045  1.8762  0.4133
  413MOL0     H55721   5.017   9.824   0.663 -0.4638 -2.3569  0.4858
  413MOL0     H55722   5.069   9.930   0.539  1.3346 -0.3591  0.6881
  413MOL0     H55723   4.900   9.674   0.544  1.3392 -0.4374  1.5016
  413MOL0     H55724   4.854   9.831   0.494  1.0632  1.3013 -1.3702
  413MOL0     H55725   5.027   9.614   0.328 -2.2805 -2.2497 -0.0744
  413MOL0     H55726   5.016   9.787   0.275 -3.9149  1.0864 -2.2249
  413MOL0     H55727   4.777   9.617   0.316 -0.2057 -2.3031 -1.2042
  413MOL0     H55728   4.783   9.786   0.255  0.0585 -1.6069 -1.3017
  413MOL0     H55729   4.850   9.533   0.116 -3.1454  0.4811  0.5339
  413MOL0     H55730   4.932   9.688   0.058  1.2824 -2.5945 -0.5480
  413MOL0     H55731   4.640   9.600   0.103 -3.1619 -3.8213 -4.6520
  413MOL0     H55732   4.684   9.756   0.043 -3.3216  0.0810  1.1558
  413MOL0     H55733   4.750   9.496  -0.108  0.0669  0.4743 -2.6414
  413MOL0     H55734   4.738   9.657  -0.178  0.1427  3.1971  2.2997
  413MOL0     H55735   4.489   9.515  -0.091  3.2632 -2.0954  1.1273
  413MOL0     H55736   4.539   9.553  -0.261 -0.0478 -3.2729  0.4013
  413MOL0     H55737   5.382   9.698   0.409  0.8893 -1.5361  1.0305
  413MOL0     H55738   5.590   9.833   0.430 -1.3570  2.4428 -1.4388
  413MOL0     H55739   5.867  10.020   0.674  0.3480  0.6369 -0.2671
  413MOL0     H55740   6.088  10.109   0.713  1.8272  2.0363  0.3439
  413MOL0     H55741   6.969   9.637   0.826 -1.6175  1.2451 -3.3352
  413MOL0     H55742   6.863   9.493   0.659 -0.5742 -0.8369 -0.2077
  413MOL0     H55743   6.484   9.317   0.506  2.7654  0.2001 -1.6668
  413MOL0     H55744   6.321   9.184   0.386  1.0240 -2.2264 -2.5333
  413MOL0     H55745   6.213   8.851   0.541 -0.7093  0.8194  2.1056
  413MOL0     H55746   6.135   8.992   0.464 -0.0515 -1.0279  3.1880
  413MOL0     H55747   5.981   8.812   0.408 -0.1165  1.9775 -2.1206
  413MOL0     H55748   6.122   8.707   0.388  1.6842  0.8842  0.1367
  413MOL0     H55749   5.995   8.764   0.187  1.7569 -1.9084 -0.3570
  413MOL0     H55750   6.163   8.803   0.156 -0.1079  1.2282 -2.2887
  413MOL0     H55751   6.096   9.048   0.240  1.9781  0.0131 -2.4029
  413MOL0     H55752   5.930   8.995   0.222 -0.6047  0.0678  1.6044
  413MOL0     H55753   6.052   9.063  -0.168 -2.7936  0.0120  1.1194
  413MOL0     H55754   6.497   8.815   0.539 -1.2157 -0.9100 -1.9349
  413MOL0     H55755   6.649   8.944   0.662 -0.6195  2.2678  3.1922
  414MOL0     O55756   8.322   1.114   0.393  0.0857 -0.5308  0.5788
  414MOL0     C55757   8.402   1.188   0.449 -0.0197 -0.2815 -0.2566
  414MOL0     O55758   8.491   1.159   0.546  0.0034  0.0997 -0.5539
  414MOL0     C55759   8.517   1.039   0.606 -0.3918  0.8072 -0.8309
  414MOL0     C55760   8.611   1.032   0.711  0.2895  0.1383 -0.4614
  414MOL0     C55761   8.629   0.917   0.792  0.3920 -0.6268  0.3769
  414MOL0     C55762   8.569   0.796   0.753 -0.1414  0.3703 -0.9385
  414MOL0     O55763   8.608   0.685   0.831 -0.3784  0.5772  0.9324
  414MOL0     C55764   8.546   0.548   0.806  0.8323  0.0207 -0.0231
  414MOL0     C55765   8.416   0.520   0.894 -0.1966  0.0975  0.5772
  414MOL0     C55766   8.378   0.376   0.891 -0.0373  0.4232 -0.0992
  414MOL0     C55767   8.430   0.310   1.014  1.7197  0.0080 -0.0794
  414MOL0     C55768   8.364   0.178   1.040  0.8542  0.4395 -0.0285
  414MOL0     C55769   8.389   0.122   1.181  0.8300 -0.2241 -0.5148
  414MOL0     C55770   8.318  -0.005   1.204 -0.4566 -0.0498 -0.0871
  414MOL0     C55771   8.394  -0.116   1.282 -0.3456  0.7337  0.2164
  414MOL0     N55772   8.311  -0.220   1.324 -0.1446 -0.1282 -0.1831
  414MOL0     C55773   8.219  -0.289   1.254  0.0613  0.2911  0.0292
  414MOL0     C55774   8.147  -0.360   1.338  0.6441  0.1164  0.0560
  414MOL0     C55775   8.018  -0.431   1.292  0.2671 -0.7286 -0.1505
  414MOL0     C55776   7.905  -0.333   1.255 -0.4528  0.4520  0.0274
  414MOL0     C55777   7.776  -0.419   1.214  0.9352 -0.6563 -0.1570
  414MOL0     C55778   7.750  -0.546   1.291 -0.0928  0.5229  0.0194
  414MOL0     O55779   7.629  -0.605   1.241  0.1177  0.2445  0.2424
  414MOL0     C55780   7.571  -0.701   1.322  0.6214 -0.3148  0.8157
  414MOL0     C55781   7.521  -0.818   1.259 -0.9461 -0.2020 -0.1366
  414MOL0     C55782   7.461  -0.916   1.332  0.4593  0.9125  0.3155
  414MOL0     C55783   7.412  -1.042   1.257  0.4331 -0.4038 -0.9216
  414MOL0     C55784   7.437  -0.894   1.476 -0.0306 -0.4282  0.6059
  414MOL0     C55785   7.351  -0.994   1.542  0.0258 -0.2698  0.8065
  414MOL0     O55786   7.232  -0.940   1.582 -0.2730  0.2045  0.4923
  414MOL0     C55787   7.136  -1.030   1.622  1.1451  0.1849  0.4562
  414MOL0     C55788   7.141  -1.118   1.728 -0.2110  0.1499 -0.0636
  414MOL0     C55789   7.029  -1.191   1.776  0.5315 -0.0285 -0.2601
  414MOL0     C55790   6.904  -1.181   1.706 -0.3072 -0.1557  0.8459
  414MOL0     O55791   6.789  -1.250   1.725 -0.2362  0.2024  0.6831
  414MOL0     C55792   6.798  -1.383   1.774  0.8701 -0.4775  0.7972
  414MOL0     C55793   6.664  -1.439   1.821 -0.3842 -0.7343  0.1012
  414MOL0     C55794   6.670  -1.476   1.965  0.5103 -0.1219  0.4635
  414MOL0     C55795   6.654  -1.352   2.067 -0.2275  0.2015 -0.4038
  414MOL0     C55796   6.655  -1.381   2.220  0.4096 -0.2819 -0.3085
  414MOL0     C55797   6.556  -1.485   2.263 -0.9896  0.4144  0.8132
  414MOL0     C55798   6.552  -1.488   2.414 -0.0721 -0.2001 -0.0965
  414MOL0     C55799   6.480  -1.608   2.478 -0.4706 -0.3228 -0.3476
  414MOL0    Cl55800   6.314  -1.620   2.428  0.2078  0.1893 -0.2060
  414MOL0     C55801   6.911  -1.107   1.587  0.1287  0.3099 -0.2370
  414MOL0     C55802   7.013  -1.017   1.554  0.3251  0.4945 -0.1210
  414MOL0     O55803   7.382  -1.111   1.561  0.3134  0.6872 -0.0506
  414MOL0     C55804   7.491  -0.790   1.546  0.2069  0.0714 -0.0747
  414MOL0     C55805   7.561  -0.692   1.467 -0.2221  0.4836 -0.6117
  414MOL0     N55806   8.197  -0.344   1.465  0.4041 -0.1514 -0.4303
  414MOL0     N55807   8.300  -0.263   1.454  0.3651 -0.6585 -0.0535
  414MOL0     C55808   8.481   0.803   0.645  0.0056  0.1842 -0.9050
  414MOL0     C55809   8.451   0.920   0.576  0.1504  0.0861 -0.0419
  414MOL0     C55810   8.397   1.334   0.404  0.0965  0.5704  0.1279
  414MOL0     C55811   8.460   1.436   0.479 -0.3635  0.7875  0.0378
  414MOL0     C55812   8.469   1.565   0.438  0.3420 -0.5198 -0.2988
  414MOL0     C55813   8.410   1.611   0.321 -0.3087  0.4744  0.9309
  414MOL0     O55814   8.409   1.748   0.300  0.3362 -0.3162  0.5803
  414MOL0     C55815   8.286   1.812   0.327  0.3095  0.0563 -0.3421
  414MOL0     C55816   8.270   1.848   0.473 -0.0868 -0.3840  0.0224
  414MOL0     C55817   8.338   1.978   0.498  0.5471 -0.2385  0.6557
  414MOL0     C55818   8.490   2.000   0.458 -0.2107 -0.0317 -0.3206
  414MOL0     C55819   8.583   1.959   0.572  0.4466 -0.0782  0.0521
  414MOL0     C55820   8.644   1.927   0.665 -0.4810 -0.2142  0.1480
  414MOL0     C55821   8.348   1.512   0.238  0.1780 -0.3232 -0.4975
  414MOL0     C55822   8.340   1.377   0.281  0.2873 -0.7817  0.4515
  414MOL0     H55823   8.677   1.117   0.729  1.9494 -1.8092  3.9520
  414MOL0     H55824   8.690   0.903   0.881  2.1444 -1.5327 -0.9127
  414MOL0     H55825   8.513   0.538   0.702 -0.9648  1.2820  0.3805
  414MOL0     H55826   8.618   0.467   0.822 -0.8648 -1.9644 -1.7351
  414MOL0     H55827   8.438   0.561   0.993 -3.4320  1.0630  1.0184
  414MOL0     H55828   8.333   0.576   0.851 -0.9720 -0.6168  1.1143
  414MOL0     H55829   8.271   0.379   0.872 -0.0341  1.0659 -0.0614
  414MOL0     H55830   8.410   0.314   0.807 -0.8056  1.6117 -1.3095
  414MOL0     H55831   8.540   0.308   1.014  1.9671  2.1372 -4.3235
  414MOL0     H55832   8.385   0.376   1.089  0.8861 -1.3660  0.6608
  414MOL0     H55833   8.256   0.189   1.035  0.5819 -1.3368  1.2188
  414MOL0     H55834   8.397   0.110   0.960  3.1183  0.2990  0.9455
  414MOL0     H55835   8.497   0.107   1.187  1.1102  0.5987 -2.6873
  414MOL0     H55836   8.360   0.190   1.263 -0.0355 -2.0720  0.7819
  414MOL0     H55837   8.221   0.022   1.247 -2.6011 -1.4818 -3.6089
  414MOL0     H55838   8.281  -0.042   1.108 -2.5727  1.1337  0.2034
  414MOL0     H55839   8.440  -0.061   1.365  2.0786 -0.6364 -0.1025
  414MOL0     H55840   8.473  -0.158   1.218 -0.0138  0.6249  0.6955
  414MOL0     H55841   8.202  -0.284   1.147 -4.0624 -2.4430  0.3491
  414MOL0     H55842   8.039  -0.494   1.205  0.1597  2.1835 -2.4143
  414MOL0     H55843   7.989  -0.492   1.378  0.5529 -0.0787  0.4223
  414MOL0     H55844   7.935  -0.272   1.170  1.3521  1.6705  1.4553
  414MOL0     H55845   7.878  -0.277   1.345 -0.5586 -0.7970  0.8007
  414MOL0     H55846   7.786  -0.454   1.111  1.2006  2.4232 -1.2693
  414MOL0     H55847   7.684  -0.360   1.219  0.0560 -2.0374  0.5481
  414MOL0     H55848   7.754  -0.525   1.398 -0.0461 -0.2462  0.1777
  414MOL0     H55849   7.837  -0.612   1.277 -0.1125  0.6322 -0.6400
  414MOL0     H55850   7.533  -0.825   1.152  2.5426 -2.4308  0.2477
  414MOL0     H55851   7.481  -1.125   1.278 -0.3748 -0.8136  0.2354
  414MOL0     H55852   7.308  -1.056   1.289 -0.0028  2.3604 -0.9072
  414MOL0     H55853   7.410  -1.021   1.150 -3.9009  3.0710 -0.4489
  414MOL0     H55854   7.221  -1.145   1.796  0.1306 -1.4908 -1.0855
  414MOL0     H55855   7.039  -1.259   1.860  2.1498 -2.1715 -2.0638
  414MOL0     H55856   6.816  -1.446   1.686  2.5857 -0.2005  0.9241
  414MOL0     H55857   6.883  -1.410   1.837  4.0469  2.3215 -1.8922
  414MOL0     H55858   6.591  -1.359   1.807 -0.2055 -1.0434 -3.6452
  414MOL0     H55859   6.631  -1.528   1.768  1.3108 -2.0205  1.0948
  414MOL0     H55860   6.753  -1.542   1.991  0.9274 -0.9506 -2.5612
  414MOL0     H55861   6.575  -1.528   1.978  0.2450  0.3360  0.4086
  414MOL0     H55862   6.745  -1.293   2.052  2.6369 -3.5145  0.7428
  414MOL0     H55863   6.563  -1.297   2.043  0.3971  0.1362 -3.3772
  414MOL0     H55864   6.623  -1.295   2.280  0.2998 -1.2383  1.0498
  414MOL0     H55865   6.757  -1.401   2.256 -0.5432 -2.8261  1.2405
  414MOL0     H55866   6.455  -1.462   2.227 -0.6900  0.9045  0.2730
  414MOL0     H55867   6.582  -1.585   2.229  0.4071  0.6509  1.1340
  414MOL0     H55868   6.503  -1.396   2.447  0.4049  0.7533 -1.9178
  414MOL0     H55869   6.650  -1.487   2.464 -0.3373 -0.5993  0.4460
  414MOL0     H55870   6.478  -1.604   2.588  2.6333  1.3220 -0.2544
  414MOL0     H55871   6.533  -1.699   2.450  1.2980  1.3571 -2.7919
  414MOL0     H55872   6.824  -1.097   1.523  0.0608 -2.3869 -0.7026
  414MOL0     H55873   6.995  -0.960   1.464 -1.1051 -2.2177 -1.6720
  414MOL0     H55874   7.460  -0.784   1.650 -4.5105 -0.1981 -1.2226
  414MOL0     H55875   7.584  -0.603   1.525  1.0176  0.4431 -1.0200
  414MOL0     H55876   8.443   0.707   0.610  0.9862 -1.4758  2.1796
  414MOL0     H55877   8.379   0.921   0.494  0.9977  0.4673 -0.7860
  414MOL0     H55878   8.517   1.409   0.567  0.1858  1.3661 -0.1341
  414MOL0     H55879   8.510   1.644   0.500 -0.7019  0.3132 -0.6442
  414MOL0     H55880   8.284   1.901   0.264  1.7513 -0.3470 -1.0013
  414MOL0     H55881   8.201   1.750   0.297 -1.3426  1.4944  1.1774
  414MOL0     H55882   8.305   1.770   0.542  1.9646  1.4930  1.2305
  414MOL0     H55883   8.165   1.862   0.497  0.1335  0.1201  0.7016
  414MOL0     H55884   8.322   2.003   0.603 -0.8317 -4.0690  1.5293
  414MOL0     H55885   8.278   2.054   0.446  3.7369  0.1116 -2.8948
  414MOL0     H55886   8.509   2.106   0.440  3.0114 -0.3725  0.3925
  414MOL0     H55887   8.505   1.945   0.365 -3.5715 -1.6935 -0.0489
  414MOL0     H55888   8.682   1.895   0.760  0.0113 -0.6603 -0.1973
  414MOL0     H55889   8.289   1.548   0.155  0.3770 -1.3345 -1.0971
  414MOL0     H55890   8.299   1.313   0.204 -4.4832  1.3726  0.8675
  415MOL0     O55891   5.058   9.946   6.763 -0.0763  0.1141  0.3509
  415MOL0     C55892   5.003   9.905   6.664  0.0650  0.9996 -0.3804
  415MOL0     O55893   4.987   9.771   6.636  0.2976 -0.4743  0.4993
  415MOL0     C55894   5.015   9.672   6.731  0.8272  0.2989  0.2033
  415MOL0     C55895   5.143   9.670   6.796 -0.6327  0.8931 -0.3863
  415MOL0     C55896   5.168   9.572   6.898  0.7944 -0.0178 -0.2313
  415MOL0     C55897   5.069   9.491   6.947  0.6388  0.4469  0.1364
  415MOL0     O55898   5.116   9.401   7.041  0.3819 -0.2221  0.0969
  415MOL0     C55899   5.025   9.311   7.111  0.1406  0.2217 -1.1643
  415MOL0     C55900   5.095   9.200   7.202  0.6927 -0.4964  1.5835
  415MOL0     C55901   5.127   9.246   7.341  0.0453 -0.2546 -0.1182
  415MOL0     C55902   5.242   9.352   7.343  0.2584  0.4923  0.3113
  415MOL0     C55903   5.382   9.280   7.347  0.1551 -0.1916  1.1576
  415MOL0     C55904   5.425   9.209   7.476  0.4950 -0.4569  0.2598
  415MOL0     C55905   5.579   9.174   7.478  0.6603 -0.1623  0.2801
  415MOL0     C55906   5.621   9.125   7.618  0.8517 -0.4599 -0.1922
  415MOL0     N55907   5.607   8.978   7.647 -0.2961  0.7441  0.4054
  415MOL0     C55908   5.716   8.894   7.683 -0.4972  0.0522 -0.5795
  415MOL0     C55909   5.658   8.765   7.674 -0.3785 -0.8478 -0.4651
  415MOL0     C55910   5.721   8.640   7.718 -0.3393  0.2391 -0.2371
  415MOL0     C55911   5.815   8.578   7.615  1.5725  0.1531 -0.0351
  415MOL0     C55912   5.754   8.571   7.473  0.1783 -0.2357  1.2725
  415MOL0     C55913   5.623   8.501   7.452 -0.2571 -0.0874 -0.1250
  415MOL0     O55914   5.604   8.471   7.316 -0.0573 -0.9403  0.4407
  415MOL0     C55915   5.567   8.564   7.217 -0.6421  0.3742 -0.2671
  415MOL0     C55916   5.552   8.697   7.234  2.0828 -0.2554  0.3223
  415MOL0     C55917   5.523   8.795   7.136  0.8609  0.7764 -0.5799
  415MOL0     C55918   5.490   8.931   7.188 -0.1478  0.3031 -0.4941
  415MOL0     C55919   5.515   8.753   7.002  0.7194  0.6041 -0.5400
  415MOL0     C55920   5.495   8.850   6.889  0.3704  0.3052 -0.4594
  415MOL0     O55921   5.572   8.955   6.892 -0.2941 -0.3722  0.1551
  415MOL0     C55922   5.517   9.066   6.817 -0.8089  0.3689  0.3034
  415MOL0     C55923   5.395   9.119   6.850 -0.8267 -0.1601 -0.0874
  415MOL0     C55924   5.331   9.210   6.778 -0.4792 -0.1515  0.0525
  415MOL0     C55925   5.382   9.244   6.653  0.3191 -0.5549  0.1273
  415MOL0     O55926   5.321   9.330   6.566 -0.0825  0.7947 -0.3679
  415MOL0     C55927   5.181   9.373   6.584 -0.3652  0.3664  0.7497
  415MOL0     C55928   5.151   9.451   6.456  0.7302 -0.2384  0.6425
  415MOL0     C55929   5.003   9.465   6.427 -0.4653  0.4375 -0.6935
  415MOL0     C55930   5.002   9.577   6.313 -0.3862 -0.3212 -0.3490
  415MOL0     C55931   4.856   9.577   6.250 -0.8428 -0.1601  0.2358
  415MOL0     C55932   4.831   9.469   6.151 -0.9300  0.1962 -0.7833
  415MOL0     C55933   4.744   9.495   6.027 -0.4787  0.6268 -0.0465
  415MOL0     C55934   4.603   9.514   6.078  0.3171  0.0101 -0.6456
  415MOL0    Cl55935   4.572   9.669   6.171 -0.0063 -0.3500 -0.1813
  415MOL0     C55936   5.506   9.208   6.623 -0.0200  0.1367 -0.1127
  415MOL0     C55937   5.583   9.120   6.702 -0.2342  0.2832  0.0883
  415MOL0     O55938   5.404   8.824   6.811 -0.1698 -0.7446  0.7408
  415MOL0     C55939   5.519   8.611   6.981 -0.4606 -0.8230  1.1955
  415MOL0     C55940   5.549   8.523   7.084 -0.3786 -0.0198  1.0733
  415MOL0     N55941   5.530   8.784   7.636  0.1253  0.3193  0.4903
  415MOL0     N55942   5.493   8.906   7.625  0.1349 -1.0518 -0.1525
  415MOL0     C55943   4.946   9.498   6.884  0.8625  0.2390 -0.9274
  415MOL0     C55944   4.915   9.582   6.775 -0.6789 -0.5932 -0.3089
  415MOL0     C55945   4.966   9.997   6.556 -1.3450 -0.8657  0.3039
  415MOL0     C55946   5.014  10.132   6.558 -1.2189 -0.0970  0.6659
  415MOL0     C55947   4.980  10.226   6.456 -0.2942  0.3051 -0.1974
  415MOL0     C55948   4.893  10.190   6.351  1.5023 -0.4351 -0.8955
  415MOL0     O55949   4.874  10.281   6.250  0.1593  0.0508  0.4091
  415MOL0     C55950   4.833  10.414   6.278  0.1012 -0.5590  0.2845
  415MOL0     C55951   4.715  10.460   6.190 -0.6097  1.5807  0.6050
  415MOL0     C55952   4.595  10.363   6.196 -0.5174 -1.4544 -0.3805
  415MOL0     C55953   4.507  10.397   6.073  1.2445  0.9855  0.9991
  415MOL0     C55954   4.397  10.303   6.064 -0.3421  0.2549 -1.0114
  415MOL0     C55955   4.314  10.211   6.077  0.0418  0.0804  0.2740
  415MOL0     C55956   4.845  10.060   6.342  0.6301  0.3548 -0.0043
  415MOL0     C55957   4.889   9.965   6.440 -0.1451  0.0332  0.4890
  415MOL0     H55958   5.218   9.737   6.754 -2.3829  4.0202  1.0702
  415MOL0     H55959   5.267   9.555   6.939 -0.2409 -1.7729  1.7693
  415MOL0     H55960   4.953   9.365   7.173  0.7702  0.5663 -0.7104
  415MOL0     H55961   4.962   9.251   7.046 -1.0532  0.6675 -0.4451
  415MOL0     H55962   5.015   9.126   7.212 -2.9804  2.9548  0.3664
  415MOL0     H55963   5.180   9.153   7.151  0.0604  0.6782 -0.6896
  415MOL0     H55964   5.042   9.295   7.391  0.7346 -0.1051  0.9567
  415MOL0     H55965   5.151   9.162   7.408  3.1875  0.7460  0.2146
  415MOL0     H55966   5.236   9.414   7.253  3.2146 -0.8860 -0.9885
  415MOL0     H55967   5.243   9.413   7.433  1.3501  1.1638 -0.1308
  415MOL0     H55968   5.391   9.209   7.265 -0.0121  1.8138 -0.6955
  415MOL0     H55969   5.460   9.355   7.326  0.5734 -1.4842 -2.5694
  415MOL0     H55970   5.402   9.271   7.563  0.5533 -0.0112 -0.0435
  415MOL0     H55971   5.372   9.114   7.489  2.3144 -1.8715 -1.8499
  415MOL0     H55972   5.609   9.084   7.422 -0.9199 -0.5256 -0.0574
  415MOL0     H55973   5.647   9.249   7.438  0.6459 -1.8277 -3.2803
  415MOL0     H55974   5.573   9.184   7.697  0.3482 -2.8490  1.3990
  415MOL0     H55975   5.724   9.160   7.635 -0.2541  1.8902  2.5068
  415MOL0     H55976   5.818   8.922   7.707 -1.5714  2.9050  1.2357
  415MOL0     H55977   5.781   8.647   7.809 -1.1610  3.1290  0.1881
  415MOL0     H55978   5.644   8.568   7.748  0.9003 -1.0160 -0.0159
  415MOL0     H55979   5.847   8.477   7.641  0.1663 -0.6994 -1.3908
  415MOL0     H55980   5.909   8.633   7.618  2.7050 -1.7340  2.5079
  415MOL0     H55981   5.824   8.517   7.409  0.8602 -2.5761  3.7747
  415MOL0     H55982   5.744   8.670   7.429  0.3492 -1.1765 -1.0142
  415MOL0     H55983   5.553   8.575   7.492  2.2977  1.0773  2.5533
  415MOL0     H55984   5.621   8.413   7.518  1.4062 -1.1397 -1.3855
  415MOL0     H55985   5.562   8.733   7.336  0.8934 -1.0574  0.7393
  415MOL0     H55986   5.577   8.998   7.186 -0.2813  0.4936 -0.0643
  415MOL0     H55987   5.408   8.974   7.129 -0.7786 -2.3265 -1.6528
  415MOL0     H55988   5.460   8.935   7.293  4.6959 -1.6859  1.2181
  415MOL0     H55989   5.349   9.085   6.942  1.6293 -0.2411  1.2151
  415MOL0     H55990   5.225   9.224   6.801 -0.5865 -1.1138  0.1981
  415MOL0     H55991   5.109   9.293   6.603 -0.0565 -1.0849 -3.2235
  415MOL0     H55992   5.173   9.438   6.672 -2.7658 -0.6504  1.3687
  415MOL0     H55993   5.197   9.549   6.470  2.8262 -1.3743  2.2733
  415MOL0     H55994   5.203   9.398   6.376 -1.1688 -1.1498 -0.0476
  415MOL0     H55995   4.946   9.500   6.513 -2.0144 -2.0746 -0.6037
  415MOL0     H55996   4.965   9.366   6.400 -0.0694 -0.5914  2.2200
  415MOL0     H55997   5.025   9.674   6.358 -0.9525 -0.6373  0.6540
  415MOL0     H55998   5.077   9.558   6.236  0.2055  1.9125 -0.3941
  415MOL0     H55999   4.843   9.670   6.195  4.7378  0.5335 -0.4467
  415MOL0     H56000   4.778   9.574   6.326  0.5037  2.3151  1.8512
  415MOL0     H56001   4.931   9.442   6.115 -0.0769  2.8797 -0.6590
  415MOL0     H56002   4.795   9.379   6.202 -1.2636 -1.6814 -4.0667
  415MOL0     H56003   4.761   9.411   5.959  0.2419  0.4365  0.3465
  415MOL0     H56004   4.777   9.582   5.970  1.9884 -1.5181 -2.1918
  415MOL0     H56005   4.565   9.434   6.142 -0.8731  1.9504  1.2167
  415MOL0     H56006   4.543   9.520   5.986  0.0072 -0.5820 -0.4852
  415MOL0     H56007   5.543   9.246   6.528 -0.2731 -1.7016 -0.9802
  415MOL0     H56008   5.684   9.087   6.683 -0.4508  0.9916 -2.6052
  415MOL0     H56009   5.509   8.589   6.875 -2.4042  0.6114  1.0126
  415MOL0     H56010   5.563   8.419   7.056 -2.4255 -0.2347  0.7103
  415MOL0     H56011   4.867   9.433   6.920  1.6326 -0.9955 -1.3797
  415MOL0     H56012   4.823   9.591   6.718  0.5944  0.9614 -2.2723
  415MOL0     H56013   5.087  10.165   6.632 -0.7511  0.5413 -0.0508
  415MOL0     H56014   5.044  10.309   6.428 -1.0780  0.6544 -0.9883
  415MOL0     H56015   4.794  10.419   6.380 -0.0796 -0.3048  0.2047
  415MOL0     H56016   4.908  10.494   6.268 -0.1087 -0.4349 -0.3177
  415MOL0     H56017   4.757  10.459   6.089  3.1915  0.2740  2.0620
  415MOL0     H56018   4.678  10.561   6.209  0.4864  1.6319  2.7686
  415MOL0     H56019   4.530  10.369   6.284 -1.9576  2.3094 -1.4941
  415MOL0     H56020   4.633  10.261   6.181  2.0416 -0.5284 -0.6492
  415MOL0     H56021   4.565  10.379   5.981 -1.1995 -0.5878 -0.3564
  415MOL0     H56022   4.476  10.501   6.075  2.3648  1.3228  2.9481
  415MOL0     H56023   4.235  10.138   6.086 -0.7372  1.1204  2.6546
  415MOL0     H56024   4.782  10.032   6.258  2.6198  3.2790 -2.7143
  415MOL0     H56025   4.849   9.865   6.422  1.2625 -1.3391  4.0196
  416MOL0     O56026   6.613   9.406   6.710  0.5934  0.1530 -0.4155
  416MOL0     C56027   6.569   9.295   6.748  0.3810  0.1999 -0.4049
  416MOL0     O56028   6.551   9.183   6.680 -0.5265 -0.3959  1.2447
  416MOL0     C56029   6.588   9.190   6.546  0.0526 -1.0545 -0.1157
  416MOL0     C56030   6.566   9.292   6.443 -0.6903  0.1505 -0.1377
  416MOL0     C56031   6.610   9.276   6.313 -0.2175  0.4840  0.6939
  416MOL0     C56032   6.683   9.170   6.276 -0.3357 -0.1677  0.3976
  416MOL0     O56033   6.730   9.166   6.149 -0.8572 -0.9224 -0.5456
  416MOL0     C56034   6.839   9.074   6.122 -0.1758 -0.8741  0.4725
  416MOL0     C56035   6.891   9.083   5.983 -0.0042 -0.0953 -0.7231
  416MOL0     C56036   7.016   9.174   5.963 -0.2932  0.4356 -0.2967
  416MOL0     C56037   7.054   9.190   5.820 -0.1965  0.3045 -0.3475
  416MOL0     C56038   7.188   9.276   5.801  0.3368  1.0015 -1.0178
  416MOL0     C56039   7.319   9.237   5.892 -0.2205  0.2791  0.4463
  416MOL0     C56040   7.358   9.096   5.850  0.0652  0.2889 -0.3394
  416MOL0     C56041   7.493   9.061   5.913  1.0087 -0.9205  0.4009
  416MOL0     N56042   7.538   8.941   5.871  0.3732  0.1000 -0.0198
  416MOL0     C56043   7.622   8.915   5.761  1.3586 -0.7318 -0.6557
  416MOL0     C56044   7.649   8.782   5.769  0.3560 -0.1324  0.0702
  416MOL0     C56045   7.728   8.709   5.667  0.5311  0.6376 -0.4118
  416MOL0     C56046   7.723   8.782   5.536 -1.0851 -0.4499 -0.3754
  416MOL0     C56047   7.823   8.730   5.434  0.1519 -0.0944 -0.7222
  416MOL0     C56048   7.786   8.587   5.402  0.5734  1.2235  1.1224
  416MOL0     O56049   7.812   8.494   5.504 -0.1344 -0.4026  0.5018
  416MOL0     C56050   7.941   8.453   5.541  0.1060  0.0427  0.5978
  416MOL0     C56051   8.058   8.482   5.457 -0.2335  0.6266 -0.0930
  416MOL0     C56052   8.179   8.426   5.506  0.1177  0.1181  0.7910
  416MOL0     C56053   8.292   8.428   5.397  1.0624  0.5066 -0.6233
  416MOL0     C56054   8.187   8.359   5.633  0.0255  0.5641  1.0367
  416MOL0     C56055   8.313   8.311   5.688 -0.3527  0.8677 -0.2105
  416MOL0     O56056   8.313   8.198   5.758  0.4931  0.0611 -0.1305
  416MOL0     C56057   8.427   8.154   5.830  0.2022 -0.6783 -0.0752
  416MOL0     C56058   8.460   8.229   5.946  0.3433  1.2852 -0.3283
  416MOL0     C56059   8.564   8.188   6.034 -0.3195  0.0072 -0.4661
  416MOL0     C56060   8.641   8.073   6.009  1.0020 -0.0708  0.5489
  416MOL0     O56061   8.744   8.034   6.095 -0.0940 -0.5755  0.9026
  416MOL0     C56062   8.752   8.085   6.226  0.6308 -0.2906 -0.9112
  416MOL0     C56063   8.855   8.006   6.315  0.0401 -0.7420  0.0164
  416MOL0     C56064   8.891   8.070   6.450 -0.0976 -0.1273 -0.1366
  416MOL0     C56065   8.777   8.048   6.554 -0.1147  0.1228 -0.0962
  416MOL0     C56066   8.702   8.177   6.591 -0.5276 -0.1390  1.2822
  416MOL0     C56067   8.617   8.146   6.715 -0.3462 -0.6848 -0.5105
  416MOL0     C56068   8.684   8.104   6.842 -0.3118 -0.3356 -0.3280
  416MOL0     C56069   8.799   8.201   6.893  0.5785 -0.1399 -0.6212
  416MOL0    Cl56070   8.847   8.123   7.051 -0.1515  0.3872  0.6220
  416MOL0     C56071   8.615   8.004   5.886 -0.1362 -0.4641 -1.2545
  416MOL0     C56072   8.511   8.049   5.796  0.0601  0.4629 -0.3225
  416MOL0     O56073   8.414   8.365   5.660 -0.9993 -0.3736  0.1341
  416MOL0     C56074   8.068   8.332   5.705  0.0437 -0.8235 -0.2820
  416MOL0     C56075   7.952   8.391   5.661  0.1505  0.3599  0.0129
  416MOL0     N56076   7.592   8.727   5.883  0.7634  0.6562 -0.2416
  416MOL0     N56077   7.522   8.821   5.934  0.0162  0.5696 -0.2711
  416MOL0     C56078   6.678   9.064   6.359  0.0485 -0.2510 -0.6732
  416MOL0     C56079   6.635   9.077   6.494 -0.7245  0.3581  0.1293
  416MOL0     C56080   6.525   9.282   6.890  0.6468 -0.2604 -0.1866
  416MOL0     C56081   6.489   9.391   6.965  0.2197 -0.3370 -0.0833
  416MOL0     C56082   6.448   9.376   7.103  0.6391 -0.0025  0.1457
  416MOL0     C56083   6.426   9.252   7.158 -0.3646  0.1898  0.5092
  416MOL0     O56084   6.367   9.231   7.278 -0.6070 -0.2981  0.3217
  416MOL0     C56085   6.454   9.187   7.379 -0.4384  0.4640  0.2391
  416MOL0     C56086   6.500   9.313   7.461 -0.9759  0.1501  0.1604
  416MOL0     C56087   6.587   9.259   7.572 -0.1166  0.2142 -0.6122
  416MOL0     C56088   6.640   9.376   7.663 -0.6922  0.7478  0.1076
  416MOL0     C56089   6.758   9.333   7.744  0.2364  0.4334 -0.1230
  416MOL0     C56090   6.853   9.311   7.811 -0.5100  0.2120  0.7326
  416MOL0     C56091   6.470   9.143   7.082  0.7487  0.6803  0.3312
  416MOL0     C56092   6.508   9.152   6.946 -0.0396 -0.1997 -0.3580
  416MOL0     H56093   6.510   9.376   6.483 -2.1022 -0.4079 -0.8688
  416MOL0     H56094   6.587   9.355   6.242  0.5437 -0.0927 -0.2226
  416MOL0     H56095   6.922   9.105   6.187 -0.4455 -0.4861  0.6376
  416MOL0     H56096   6.805   8.973   6.148 -0.0712 -1.3664 -1.1976
  416MOL0     H56097   6.922   8.980   5.965 -1.0017 -1.5189  4.0848
  416MOL0     H56098   6.815   9.114   5.910  0.2949  2.8010  0.0465
  416MOL0     H56099   7.020   9.272   6.011  3.2215  0.5565 -0.5857
  416MOL0     H56100   7.096   9.120   6.014 -2.0601 -0.6053  1.5073
  416MOL0     H56101   7.064   9.093   5.772 -2.6338  0.3215 -1.0153
  416MOL0     H56102   6.973   9.249   5.778  0.4448  3.0756  1.9304
  416MOL0     H56103   7.219   9.290   5.697  0.3653  0.8859 -1.0250
  416MOL0     H56104   7.144   9.366   5.845 -1.3149 -1.9157  4.0020
  416MOL0     H56105   7.390   9.318   5.870 -0.3862  1.3481  3.4176
  416MOL0     H56106   7.300   9.235   5.999  1.1268  0.7277  0.7106
  416MOL0     H56107   7.276   9.025   5.865 -1.9606  2.6724  0.7670
  416MOL0     H56108   7.376   9.105   5.743 -0.6742  2.1574 -0.3569
  416MOL0     H56109   7.471   9.056   6.020  0.3543 -2.8074  0.2179
  416MOL0     H56110   7.568   9.139   5.897  0.6187 -0.6985 -0.4555
  416MOL0     H56111   7.642   8.983   5.679 -3.0394  1.2988 -0.3311
  416MOL0     H56112   7.832   8.699   5.700  0.0815  1.5582  1.4650
  416MOL0     H56113   7.690   8.607   5.652 -1.7953  1.5002 -0.7814
  416MOL0     H56114   7.754   8.887   5.544  0.1921 -0.6940 -1.8223
  416MOL0     H56115   7.619   8.789   5.500 -1.2030  2.0057  0.2164
  416MOL0     H56116   7.921   8.738   5.483 -0.2278  0.0984  0.0140
  416MOL0     H56117   7.811   8.797   5.348 -1.2871 -0.2476 -0.6662
  416MOL0     H56118   7.833   8.547   5.312 -2.2936  1.6830 -0.7062
  416MOL0     H56119   7.683   8.577   5.367  1.0529 -0.4347  0.0848
  416MOL0     H56120   8.040   8.529   5.361 -3.0943 -0.7930 -0.3443
  416MOL0     H56121   8.244   8.409   5.301 -1.7768 -0.8522  0.9324
  416MOL0     H56122   8.335   8.529   5.396  1.2376  0.4288 -0.9854
  416MOL0     H56123   8.369   8.352   5.414 -0.9639 -1.2445  1.2142
  416MOL0     H56124   8.385   8.302   5.976 -1.9361 -1.3331  0.8436
  416MOL0     H56125   8.580   8.239   6.128 -1.8923 -2.2164  1.1427
  416MOL0     H56126   8.777   8.191   6.219  2.6542 -0.6347  0.3051
  416MOL0     H56127   8.664   8.077   6.291  1.5639  0.5563  0.5298
  416MOL0     H56128   8.843   7.897   6.319  2.1024 -1.1224 -2.1347
  416MOL0     H56129   8.951   8.020   6.265 -0.2998 -0.5184 -0.5858
  416MOL0     H56130   8.925   8.172   6.433  1.7024 -0.3300  1.8210
  416MOL0     H56131   8.980   8.021   6.491 -0.1401  2.2159  3.1421
  416MOL0     H56132   8.699   7.985   6.509  0.4857 -1.0098  0.4174
  416MOL0     H56133   8.832   7.995   6.632  1.0151 -0.9665 -1.5683
  416MOL0     H56134   8.640   8.207   6.507  5.3295  2.5147 -2.7615
  416MOL0     H56135   8.772   8.256   6.618  0.8829 -1.1332  0.6563
  416MOL0     H56136   8.559   8.237   6.731  2.3600  1.1889 -0.6606
  416MOL0     H56137   8.557   8.059   6.688 -0.1950 -0.8823 -0.2106
  416MOL0     H56138   8.722   8.002   6.828  1.3324  0.3034 -0.8043
  416MOL0     H56139   8.612   8.111   6.924  0.5160 -2.2724  0.6430
  416MOL0     H56140   8.774   8.307   6.905  0.8567 -0.1983  0.6450
  416MOL0     H56141   8.882   8.195   6.822 -0.0450  0.2969 -1.4121
  416MOL0     H56142   8.676   7.923   5.848 -0.5717 -1.9704  0.9998
  416MOL0     H56143   8.497   7.999   5.701  0.6104  1.4992 -0.9657
  416MOL0     H56144   8.072   8.289   5.805 -2.5757 -0.9389 -0.1655
  416MOL0     H56145   7.872   8.377   5.732 -1.2813 -1.3977 -1.8225
  416MOL0     H56146   6.714   8.966   6.331  3.2624  0.7366 -0.4235
  416MOL0     H56147   6.639   8.997   6.568  0.4517 -2.2289 -2.5585
  416MOL0     H56148   6.480   9.485   6.912  1.8146 -0.5153 -0.7240
  416MOL0     H56149   6.431   9.466   7.161 -0.5245  0.6797 -1.2048
  416MOL0     H56150   6.404   9.122   7.452  1.0041 -1.6006 -0.5059
  416MOL0     H56151   6.544   9.133   7.348 -1.4901 -0.2074 -1.8152
  416MOL0     H56152   6.407   9.354   7.499 -2.3268 -2.6036  0.0790
  416MOL0     H56153   6.562   9.386   7.407 -0.2900  1.0207  2.0570
  416MOL0     H56154   6.671   9.209   7.522  0.1911  0.2700 -0.1650
  416MOL0     H56155   6.537   9.186   7.637 -0.6333 -0.3694 -1.6462
  416MOL0     H56156   6.562   9.407   7.734 -1.4693  1.9209 -1.2194
  416MOL0     H56157   6.679   9.454   7.598  3.2661 -2.9306 -2.4990
  416MOL0     H56158   6.931   9.274   7.874 -0.2797  0.4006  0.5557
  416MOL0     H56159   6.467   9.040   7.114  2.4750  1.2162  2.4940
  416MOL0     H56160   6.543   9.071   6.884  2.0352  0.5078 -0.1821
  417MOL0     O56161  10.542   8.147   3.576  0.1190  0.0186  0.5615
  417MOL0     C56162  10.581   8.128   3.692 -0.2763  0.2552  0.7923
  417MOL0     O56163  10.538   8.191   3.806  0.1818  0.1624  1.2759
  417MOL0     C56164  10.452   8.302   3.806 -0.6846  0.2117 -0.0616
  417MOL0     C56165  10.316   8.304   3.820 -0.1861 -0.5841 -0.6972
  417MOL0     C56166  10.235   8.426   3.824 -0.9394 -0.1835 -0.2623
  417MOL0     C56167  10.303   8.541   3.819 -1.0025  0.0692 -0.6791
  417MOL0     O56168  10.261   8.668   3.831  0.9631 -0.4361  0.6718
  417MOL0     C56169  10.116   8.693   3.826 -0.4271 -0.5515 -0.6164
  417MOL0     C56170  10.068   8.840   3.774 -0.8969  1.9668  0.3006
  417MOL0     C56171  10.003   8.847   3.624  0.0890  0.4307 -0.3606
  417MOL0     C56172   9.965   8.993   3.586  0.3692 -0.2639 -0.7741
  417MOL0     C56173   9.963   9.022   3.441 -0.2105 -0.0992 -0.5626
  417MOL0     C56174   9.916   9.174   3.420 -0.5318 -0.8914 -0.1529
  417MOL0     C56175   9.950   9.214   3.284 -0.2844  0.4500 -0.4855
  417MOL0     C56176   9.893   9.352   3.243 -1.0183 -0.8011 -0.0860
  417MOL0     N56177   9.904   9.394   3.096  0.4500  0.9279 -0.5736
  417MOL0     C56178   9.989   9.489   3.049 -0.3470  0.4199  1.4865
  417MOL0     C56179   9.945   9.514   2.923 -0.9561 -0.2095 -0.3956
  417MOL0     C56180  10.024   9.592   2.820  0.4238 -0.2227  0.0259
  417MOL0     C56181  10.002   9.745   2.811  0.1236 -0.5065  0.1147
  417MOL0     C56182  10.108   9.812   2.712 -0.2583 -0.3790  0.8957
  417MOL0     C56183  10.085   9.772   2.571  0.2929 -0.0366  0.5764
  417MOL0     O56184   9.954   9.817   2.524 -0.4712 -0.7253 -0.4584
  417MOL0     C56185   9.932   9.841   2.390  0.5252  0.0141  0.6789
  417MOL0     C56186  10.014   9.808   2.280 -0.3678  0.0988 -0.6896
  417MOL0     C56187   9.987   9.834   2.152  0.4143 -0.2083 -0.3933
  417MOL0     C56188  10.095   9.817   2.044  0.9163 -0.3421 -0.4636
  417MOL0     C56189   9.854   9.881   2.122 -0.6125 -0.0152  0.3027
  417MOL0     C56190   9.813   9.890   1.981 -0.2586  0.4714  1.0317
  417MOL0     O56191   9.869   9.805   1.888 -0.6547  0.0565 -0.2876
  417MOL0     C56192   9.780   9.768   1.796  0.1282 -0.9131  0.3054
  417MOL0     C56193   9.774   9.821   1.666  0.0420 -0.4933  0.4285
  417MOL0     C56194   9.675   9.771   1.573 -0.4629  0.2891  0.0386
  417MOL0     C56195   9.586   9.675   1.610 -0.6543  0.0930  0.8616
  417MOL0     O56196   9.485   9.643   1.522 -0.2772 -0.3704  0.3742
  417MOL0     C56197   9.374   9.561   1.550  0.1345  0.2297 -0.4049
  417MOL0     C56198   9.283   9.545   1.425 -0.2968 -1.1781 -0.1142
  417MOL0     C56199   9.173   9.443   1.440  0.4642  0.5579  0.1140
  417MOL0     C56200   9.232   9.288   1.424 -0.5846  0.4014 -0.3874
  417MOL0     C56201   9.278   9.257   1.274  0.7852 -0.1177 -0.8316
  417MOL0     C56202   9.360   9.140   1.254 -0.0850  0.3484 -0.0127
  417MOL0     C56203   9.316   9.012   1.320 -0.0606  0.1542  0.0463
  417MOL0     C56204   9.359   8.867   1.276 -0.1346 -1.2931  0.1211
  417MOL0    Cl56205   9.281   8.742   1.381 -0.1950  0.3345  0.0182
  417MOL0     C56206   9.595   9.622   1.737  0.6040 -0.2758  0.6220
  417MOL0     C56207   9.691   9.670   1.829 -0.7585 -0.8169  0.2380
  417MOL0     O56208   9.722   9.962   1.960 -0.0564  0.5630  0.0623
  417MOL0     C56209   9.773   9.914   2.230 -0.4367  0.0658 -0.7294
  417MOL0     C56210   9.808   9.894   2.365 -0.1461 -1.1334 -0.8156
  417MOL0     N56211   9.837   9.441   2.889  0.4231 -0.7284 -0.0914
  417MOL0     N56212   9.814   9.364   2.997 -0.2175  0.4034  0.8130
  417MOL0     C56213  10.446   8.539   3.804 -1.1572 -0.2445  0.4566
  417MOL0     C56214  10.520   8.422   3.790  0.3887  0.3765 -0.4019
  417MOL0     C56215  10.663   8.011   3.711 -0.4516 -0.0717  0.6862
  417MOL0     C56216  10.734   8.009   3.827 -0.1736  0.0935 -0.2493
  417MOL0     C56217  10.823   7.909   3.862 -0.4064  0.3841  0.0928
  417MOL0     C56218  10.832   7.799   3.774  0.1458 -0.3541 -0.0468
  417MOL0     O56219  10.916   7.693   3.805  0.1071  0.1997  0.5930
  417MOL0     C56220  10.927   7.662   3.939  0.6109  1.1595  1.1488
  417MOL0     C56221  10.983   7.518   3.961 -0.7743 -0.9122 -0.7871
  417MOL0     C56222  10.872   7.414   3.966  0.3263  0.0146 -0.1417
  417MOL0     C56223  10.954   7.282   3.980  0.2628  1.4398 -0.1221
  417MOL0     C56224  10.873   7.160   3.960  0.4407 -0.1813  0.4643
  417MOL0     C56225  10.796   7.069   3.954 -0.8167  0.2864  0.8463
  417MOL0     C56226  10.757   7.806   3.656  0.1957  0.1166  0.2404
  417MOL0     C56227  10.673   7.907   3.617 -0.6544 -0.1493  0.1378
  417MOL0     H56228  10.258   8.213   3.819 -1.5241  0.2135 -2.3246
  417MOL0     H56229  10.129   8.426   3.848 -0.7010  3.5103  1.4623
  417MOL0     H56230  10.072   8.621   3.757 -1.3121 -1.0724  0.4686
  417MOL0     H56231  10.082   8.684   3.929  0.3259 -0.4782 -0.3555
  417MOL0     H56232   9.990   8.871   3.844 -1.7305  0.7460 -0.0699
  417MOL0     H56233  10.145   8.915   3.795 -1.1554  2.1960  0.4431
  417MOL0     H56234  10.074   8.808   3.551  0.0546  0.0932 -0.2174
  417MOL0     H56235   9.915   8.783   3.613 -1.6760  3.0359 -2.3964
  417MOL0     H56236   9.880   9.029   3.644  1.4366  0.7371  0.1942
  417MOL0     H56237  10.045   9.058   3.622 -0.5719  0.3478  0.2614
  417MOL0     H56238  10.065   9.015   3.404 -0.2988  0.2695 -0.8909
  417MOL0     H56239   9.905   8.949   3.384 -1.3310  1.7270 -1.8978
  417MOL0     H56240   9.808   9.184   3.411 -0.5314 -1.8324 -1.5139
  417MOL0     H56241   9.959   9.236   3.500 -1.8633 -1.0096  0.6734
  417MOL0     H56242  10.059   9.207   3.274 -0.2873  2.1279 -2.2099
  417MOL0     H56243   9.900   9.133   3.230 -0.3165 -0.5468  0.9757
  417MOL0     H56244   9.937   9.429   3.307 -0.0534 -0.3412 -1.2597
  417MOL0     H56245   9.786   9.352   3.267 -0.9548  2.0664  0.4465
  417MOL0     H56246  10.076   9.527   3.103  1.0628 -0.4430 -0.1100
  417MOL0     H56247  10.132   9.580   2.834  1.0460 -0.6359 -3.8938
  417MOL0     H56248  10.012   9.528   2.732  4.0240 -4.9153  2.5137
  417MOL0     H56249  10.021   9.798   2.905  3.3352  0.4644 -0.9307
  417MOL0     H56250   9.901   9.775   2.783  0.1060 -1.5156 -0.9735
  417MOL0     H56251  10.205   9.776   2.749 -0.5960  1.3558  3.7528
  417MOL0     H56252  10.111   9.921   2.714  2.6681 -0.3388 -0.1364
  417MOL0     H56253  10.079   9.663   2.572  0.2765 -0.0426  2.0575
  417MOL0     H56254  10.174   9.803   2.516  0.8753 -0.4599  1.2547
  417MOL0     H56255  10.113   9.773   2.310 -0.2301  1.6913  0.9072
  417MOL0     H56256  10.087   9.900   1.974 -3.0406  0.2221  0.4090
  417MOL0     H56257  10.200   9.819   2.075 -0.1916 -0.8649  4.1129
  417MOL0     H56258  10.068   9.723   1.994 -4.0004  0.7393 -0.3421
  417MOL0     H56259   9.850   9.885   1.620  0.6056 -1.2955  0.2177
  417MOL0     H56260   9.676   9.812   1.473 -0.4052 -0.5127 -0.2926
  417MOL0     H56261   9.402   9.457   1.570 -3.2124 -0.6280  0.4636
  417MOL0     H56262   9.319   9.607   1.632  1.0503  2.6066 -1.0384
  417MOL0     H56263   9.231   9.636   1.394  1.6938 -0.1590 -0.6286
  417MOL0     H56264   9.348   9.525   1.339 -1.8647 -0.4287 -1.5549
  417MOL0     H56265   9.107   9.466   1.356  2.1634 -1.8903 -2.0475
  417MOL0     H56266   9.121   9.461   1.534 -0.2629 -0.3220 -0.1081
  417MOL0     H56267   9.316   9.295   1.494 -2.4963  1.2990  1.9728
  417MOL0     H56268   9.167   9.209   1.462  1.4809 -0.3901  1.8030
  417MOL0     H56269   9.321   9.341   1.218  1.4529  0.0581 -0.0786
  417MOL0     H56270   9.182   9.247   1.222  0.8089  0.5595 -1.0175
  417MOL0     H56271   9.353   9.118   1.147 -3.3626  0.0765  0.1603
  417MOL0     H56272   9.461   9.163   1.290  0.2758  1.0736 -1.3924
  417MOL0     H56273   9.209   9.015   1.343  0.1706  2.8175  1.1065
  417MOL0     H56274   9.364   9.010   1.418 -1.2972  1.8982  0.7242
  417MOL0     H56275   9.468   8.871   1.268 -0.1307 -1.4636  0.0854
  417MOL0     H56276   9.320   8.838   1.178  1.7110 -2.6153 -0.2913
  417MOL0     H56277   9.536   9.540   1.777  2.7423 -1.2592  1.9238
  417MOL0     H56278   9.691   9.622   1.926  2.1648  1.5620  1.5617
  417MOL0     H56279   9.667   9.936   2.218 -0.6662  1.1347  2.3361
  417MOL0     H56280   9.751   9.926   2.452 -1.7793 -5.9016  0.1915
  417MOL0     H56281  10.487   8.639   3.805  1.2693 -1.1884  1.2784
  417MOL0     H56282  10.629   8.426   3.787  0.6124 -2.7592  0.2180
  417MOL0     H56283  10.742   8.096   3.891 -1.0715 -1.4916  2.1692
  417MOL0     H56284  10.877   7.917   3.956 -2.3944 -0.5475  1.3689
  417MOL0     H56285  10.986   7.738   3.991  2.2996  1.0832 -0.5593
  417MOL0     H56286  10.827   7.654   3.983  0.1939  1.8300  0.3414
  417MOL0     H56287  11.044   7.533   4.050  1.3589 -2.6747 -1.8400
  417MOL0     H56288  11.052   7.492   3.880 -0.9763  0.3269 -1.3732
  417MOL0     H56289  10.812   7.403   3.875 -2.9264 -1.4669  1.9543
  417MOL0     H56290  10.800   7.436   4.046  1.8079 -0.4590  1.3851
  417MOL0     H56291  11.007   7.277   4.076  0.9635  1.6535 -0.4924
  417MOL0     H56292  11.038   7.277   3.910  0.7487 -1.3803  0.5244
  417MOL0     H56293  10.714   7.001   3.963 -2.0960  1.7049  0.4014
  417MOL0     H56294  10.778   7.730   3.582  0.9881 -0.2987  0.8692
  417MOL0     H56295  10.611   7.889   3.530  1.2999 -0.6513 -1.2283
  418MOL0     O56296   3.698   3.787   2.196 -0.7061  0.3328  0.3660
  418MOL0     C56297   3.627   3.880   2.232  0.4431 -0.8805  0.5520
  418MOL0     O56298   3.577   3.989   2.158  0.4236  0.3573  0.4622
  418MOL0     C56299   3.626   4.015   2.037  0.6113  0.2904  0.0215
  418MOL0     C56300   3.675   3.917   1.947  0.8964  0.0062 -0.2118
  418MOL0     C56301   3.739   3.947   1.833 -0.1142 -0.0056 -0.0811
  418MOL0     C56302   3.742   4.081   1.787  0.0971  0.0836 -0.2476
  418MOL0     O56303   3.795   4.127   1.676  0.9087 -0.1052  0.2148
  418MOL0     C56304   3.860   4.027   1.588 -0.9141 -0.6168 -0.0806
  418MOL0     C56305   3.935   4.095   1.470 -0.3124 -0.2317  0.7798
  418MOL0     C56306   3.852   4.178   1.360 -0.1984  0.3730 -0.8161
  418MOL0     C56307   3.951   4.221   1.245 -0.7740 -0.0413  0.6669
  418MOL0     C56308   3.875   4.315   1.152 -0.2529  0.0153 -0.4362
  418MOL0     C56309   3.936   4.320   1.018 -0.5636 -0.1807 -0.3495
  418MOL0     C56310   3.906   4.434   0.918  0.2108 -1.6591 -0.1435
  418MOL0     C56311   3.758   4.456   0.904  0.0141  0.3513 -0.8622
  418MOL0     N56312   3.731   4.552   0.799 -0.4831 -0.0899  0.1356
  418MOL0     C56313   3.748   4.531   0.663 -0.0004 -0.2017  0.2755
  418MOL0     C56314   3.701   4.638   0.603  0.4382  0.1267  0.0046
  418MOL0     C56315   3.706   4.651   0.451  0.7782 -0.9031 -0.2227
  418MOL0     C56316   3.696   4.800   0.417  0.3175 -0.5702 -0.5454
  418MOL0     C56317   3.715   4.843   0.268  0.0375 -0.1500 -0.2968
  418MOL0     C56318   3.584   4.838   0.187  0.9810  0.2770  0.2459
  418MOL0     O56319   3.601   4.859   0.044  0.1103  0.2137 -0.1817
  418MOL0     C56320   3.601   4.752  -0.050 -0.1862  0.3492 -0.4022
  418MOL0     C56321   3.700   4.750  -0.150 -0.5811  0.4657 -0.4526
  418MOL0     C56322   3.705   4.664  -0.256  0.8424 -0.2163  0.0489
  418MOL0     C56323   3.781   4.703  -0.380  0.0540 -0.3623  0.4346
  418MOL0     C56324   3.627   4.551  -0.250 -0.2764  0.1685 -0.4076
  418MOL0     C56325   3.636   4.445  -0.346 -0.3185  1.1343 -0.8080
  418MOL0     O56326   3.523   4.359  -0.359  0.2734 -0.8776  0.3812
  418MOL0     C56327   3.534   4.245  -0.434  0.2025 -0.5155 -0.0812
  418MOL0     C56328   3.603   4.132  -0.394  0.4586 -0.3921 -0.2207
  418MOL0     C56329   3.607   4.016  -0.470  0.4821 -0.3939 -0.6900
  418MOL0     C56330   3.536   4.011  -0.588 -0.2928  0.0182  0.0705
  418MOL0     O56331   3.541   3.901  -0.675 -0.1217 -0.3899 -0.8102
  418MOL0     C56332   3.467   3.911  -0.801 -0.4060  0.1865 -0.2073
  418MOL0     C56333   3.486   3.778  -0.873  0.7439  0.1377  0.1560
  418MOL0     C56334   3.419   3.766  -1.005  0.0496  0.3389  0.1114
  418MOL0     C56335   3.431   3.626  -1.062 -0.5701  0.6897  0.2939
  418MOL0     C56336   3.374   3.613  -1.207  0.5640 -0.4848  0.1010
  418MOL0     C56337   3.385   3.472  -1.262  0.1586  0.1871 -0.5674
  418MOL0     C56338   3.351   3.466  -1.408  0.2753  0.7296  0.6535
  418MOL0     C56339   3.205   3.486  -1.453  0.7680 -0.2554  0.1991
  418MOL0    Cl56340   3.133   3.652  -1.426  0.4773  0.0835 -0.0706
  418MOL0     C56341   3.473   4.129  -0.634 -0.2449  0.2554  0.2068
  418MOL0     C56342   3.474   4.249  -0.558  0.3736 -0.1512  0.7880
  418MOL0     O56343   3.745   4.416  -0.397 -0.3425  0.6785 -0.1792
  418MOL0     C56344   3.525   4.546  -0.150 -0.1138  0.0968  0.2395
  418MOL0     C56345   3.513   4.646  -0.052  0.2018  0.7635  0.0898
  418MOL0     N56346   3.657   4.729   0.700  0.1661  0.3078 -0.1350
  418MOL0     N56347   3.675   4.672   0.816 -0.1963  0.3760  0.3062
  418MOL0     C56348   3.678   4.180   1.867  0.2071 -0.2980  0.3158
  418MOL0     C56349   3.625   4.149   1.985  0.5849 -0.0085 -0.7011
  418MOL0     C56350   3.591   3.877   2.377 -0.1305  1.0028 -0.8002
  418MOL0     C56351   3.667   3.823   2.474 -0.1989 -0.5261 -1.2052
  418MOL0     C56352   3.623   3.823   2.611  0.2729  1.3052  0.1873
  418MOL0     C56353   3.494   3.862   2.649 -0.7196  0.6293  0.8460
  418MOL0     O56354   3.465   3.847   2.784  0.1866  0.0943 -0.4596
  418MOL0     C56355   3.340   3.889   2.831 -0.3493  0.1349 -0.1539
  418MOL0     C56356   3.325   3.850   2.976 -0.0160 -0.3752  0.6025
  418MOL0     C56357   3.243   3.950   3.055 -0.3076 -0.1421  0.1731
  418MOL0     C56358   3.107   3.971   3.004  1.0852  0.9899  0.8334
  418MOL0     C56359   3.039   3.841   3.001  0.2670 -0.3471  0.0076
  418MOL0     C56360   2.978   3.740   3.008 -0.5417 -0.6635 -0.8065
  418MOL0     C56361   3.415   3.917   2.555  0.8770 -0.8857 -0.0680
  418MOL0     C56362   3.462   3.926   2.424  0.3283  0.7046  0.4598
  418MOL0     H56363   3.647   3.812   1.958  0.9292 -0.2748 -2.4637
  418MOL0     H56364   3.794   3.861   1.794  3.0257  1.2681  1.1413
  418MOL0     H56365   3.928   3.972   1.653 -1.0776  2.5547  3.1110
  418MOL0     H56366   3.786   3.954   1.555  1.7858 -5.0363  2.6215
  418MOL0     H56367   4.016   4.161   1.503 -2.3738  2.4697  0.7906
  418MOL0     H56368   3.976   4.007   1.420 -1.6919  0.7909 -2.3818
  418MOL0     H56369   3.771   4.118   1.319 -1.1506  0.9533  0.1752
  418MOL0     H56370   3.799   4.249   1.423 -3.9296 -2.1348 -0.7946
  418MOL0     H56371   4.041   4.274   1.277 -0.3015 -0.2011 -0.3563
  418MOL0     H56372   3.974   4.133   1.185 -4.3580  0.0069 -1.0555
  418MOL0     H56373   3.770   4.286   1.147 -0.2392 -0.1902  0.3409
  418MOL0     H56374   3.873   4.415   1.194 -1.7795 -0.8250  1.6540
  418MOL0     H56375   4.042   4.336   1.038 -0.5092  0.3777 -1.0147
  418MOL0     H56376   3.924   4.226   0.963  4.2786  1.1050 -4.4631
  418MOL0     H56377   3.941   4.532   0.949 -1.9330 -1.4480  1.9316
  418MOL0     H56378   3.921   4.405   0.813  0.7575  1.1508 -0.9110
  418MOL0     H56379   3.709   4.490   0.995 -2.9970 -0.2740 -2.1418
  418MOL0     H56380   3.724   4.356   0.875  1.9813 -0.1053 -1.7598
  418MOL0     H56381   3.787   4.443   0.613  0.5988 -1.2836  2.5402
  418MOL0     H56382   3.790   4.599   0.405  1.6607 -0.3696  0.7293
  418MOL0     H56383   3.610   4.614   0.415 -0.7700  3.4932 -1.2138
  418MOL0     H56384   3.763   4.862   0.477 -2.1359  1.0037  0.7547
  418MOL0     H56385   3.597   4.840   0.440  1.3401  1.8434  0.0071
  418MOL0     H56386   3.783   4.768   0.226  2.7696  3.0395 -2.0396
  418MOL0     H56387   3.753   4.946   0.265  2.5530 -1.0029  0.2833
  418MOL0     H56388   3.510   4.913   0.218  1.5065  2.0192 -2.4539
  418MOL0     H56389   3.545   4.738   0.207  0.4459  0.5800  0.8132
  418MOL0     H56390   3.774   4.829  -0.159 -0.3395  0.2613 -0.2695
  418MOL0     H56391   3.872   4.643  -0.395 -0.2977 -0.7576 -0.1196
  418MOL0     H56392   3.711   4.699  -0.464  1.8342  0.8304 -1.1964
  418MOL0     H56393   3.811   4.808  -0.383 -2.5824  0.4423  0.1520
  418MOL0     H56394   3.670   4.147  -0.309  1.4518  3.4532 -1.4832
  418MOL0     H56395   3.669   3.934  -0.434 -1.3188 -0.4217  2.7915
  418MOL0     H56396   3.362   3.921  -0.772 -0.2228  2.6116 -0.2374
  418MOL0     H56397   3.494   3.993  -0.867  2.6755 -2.5516 -2.7497
  418MOL0     H56398   3.594   3.764  -0.877  1.0001  2.0472 -1.0416
  418MOL0     H56399   3.455   3.697  -0.807 -0.1958  1.4297  1.3686
  418MOL0     H56400   3.445   3.839  -1.082  0.0741 -1.7830 -2.0427
  418MOL0     H56401   3.315   3.786  -0.977  0.3346  1.4243  0.4282
  418MOL0     H56402   3.535   3.593  -1.071 -1.5483 -3.2061  1.4099
  418MOL0     H56403   3.370   3.560  -1.000  2.0685 -0.9330  1.3211
  418MOL0     H56404   3.438   3.676  -1.270 -0.1576 -0.3236 -0.4783
  418MOL0     H56405   3.277   3.662  -1.216  0.5211 -0.1124  2.2008
  418MOL0     H56406   3.484   3.431  -1.242 -0.4972 -0.3672  1.9708
  418MOL0     H56407   3.311   3.413  -1.207 -0.9412  0.2993 -1.8830
  418MOL0     H56408   3.389   3.369  -1.440  0.4585  0.7773  0.7180
  418MOL0     H56409   3.408   3.536  -1.470  1.2641 -0.4032  0.2341
  418MOL0     H56410   3.139   3.415  -1.404 -0.8756 -0.7284 -2.4773
  418MOL0     H56411   3.197   3.467  -1.560 -1.6133 -1.0481  0.4745
  418MOL0     H56412   3.413   4.130  -0.725  0.9328  3.2518 -0.6418
  418MOL0     H56413   3.432   4.339  -0.599 -1.5184 -0.9185  0.9461
  418MOL0     H56414   3.447   4.471  -0.157  0.1394 -0.0218 -2.3597
  418MOL0     H56415   3.455   4.637   0.039 -0.4049 -0.0233 -0.3643
  418MOL0     H56416   3.689   4.284   1.841 -0.4821 -0.6504 -1.5848
  418MOL0     H56417   3.575   4.232   2.035  0.4768 -0.6927  0.3433
  418MOL0     H56418   3.755   3.767   2.443  0.7904  0.7249 -0.7344
  418MOL0     H56419   3.681   3.765   2.683 -2.1124  0.5432  1.6011
  418MOL0     H56420   3.342   3.997   2.812  2.0303 -0.0344 -1.3189
  418MOL0     H56421   3.265   3.833   2.775 -1.0747 -0.8017  1.6667
  418MOL0     H56422   3.422   3.857   3.026 -0.1473  3.3067  0.6780
  418MOL0     H56423   3.296   3.746   2.991 -0.5354 -0.0944  1.6597
  418MOL0     H56424   3.300   4.044   3.056  0.3423 -0.5213 -0.2425
  418MOL0     H56425   3.234   3.915   3.158 -0.6862 -1.2861 -0.2253
  418MOL0     H56426   3.100   4.008   2.902 -0.2423 -0.6081  0.2953
  418MOL0     H56427   3.045   4.034   3.069 -0.5936 -0.0612  0.3118
  418MOL0     H56428   2.931   3.647   3.034  1.1793 -1.5703 -0.8355
  418MOL0     H56429   3.312   3.946   2.573  1.0257 -0.5971  0.3304
  418MOL0     H56430   3.394   3.960   2.346  3.1971  2.7872 -1.3301
  419MOL0     O56431   8.146   3.982   7.610 -0.2252 -0.3127  0.3142
  419MOL0     C56432   8.252   4.041   7.637  0.2557  0.3967  0.4302
  419MOL0     O56433   8.339   4.091   7.548  0.1631  0.0728  0.9404
  419MOL0     C56434   8.301   4.092   7.416  0.0684 -0.9259  1.6506
  419MOL0     C56435   8.265   3.974   7.352 -0.8511 -0.1104 -1.1709
  419MOL0     C56436   8.214   3.975   7.223  0.0100 -0.5704  0.1734
  419MOL0     C56437   8.185   4.095   7.154 -0.0547 -0.0697 -0.2724
  419MOL0     O56438   8.143   4.103   7.022  0.0891  0.0511 -0.1824
  419MOL0     C56439   8.039   4.021   6.981  0.4743  0.2484  0.0853
  419MOL0     C56440   8.066   4.002   6.829  0.8678 -0.5199 -0.1834
  419MOL0     C56441   7.938   3.945   6.762 -0.3330 -0.1556  0.9679
  419MOL0     C56442   7.945   3.928   6.606 -0.3617 -0.7512 -0.0781
  419MOL0     C56443   7.804   3.883   6.543  0.9824 -1.2865  0.5492
  419MOL0     C56444   7.832   3.825   6.400 -0.2067  0.5916  0.4219
  419MOL0     C56445   7.719   3.743   6.334  0.3692 -0.5549 -0.2907
  419MOL0     C56446   7.767   3.644   6.227  0.8578  0.3088  1.1208
  419MOL0     N56447   7.852   3.704   6.118  0.0474  0.3301 -0.8749
  419MOL0     C56448   7.963   3.658   6.052 -2.1280 -0.1371 -0.6040
  419MOL0     C56449   7.999   3.748   5.953 -0.0243  0.6984  0.1123
  419MOL0     C56450   8.129   3.742   5.876  1.0681  1.1323  0.2012
  419MOL0     C56451   8.160   3.597   5.829  1.0510 -0.4671  0.0914
  419MOL0     C56452   8.265   3.577   5.724 -0.3967 -0.5840  0.5153
  419MOL0     C56453   8.328   3.432   5.730  0.2789  0.2953 -0.4557
  419MOL0     O56454   8.236   3.345   5.659 -0.1575 -0.8826 -0.2581
  419MOL0     C56455   8.290   3.296   5.542  0.7769  0.7484 -1.3186
  419MOL0     C56456   8.346   3.375   5.443  0.4805  0.4960 -0.7028
  419MOL0     C56457   8.430   3.328   5.342  0.0424  1.4836  0.2025
  419MOL0     C56458   8.474   3.434   5.249  0.4512  0.0496 -0.7433
  419MOL0     C56459   8.431   3.187   5.320 -0.2811  0.3323  0.3767
  419MOL0     C56460   8.496   3.124   5.206 -0.2696 -0.5276  1.5511
  419MOL0     O56461   8.509   2.986   5.211 -0.3489 -0.0251  0.5716
  419MOL0     C56462   8.575   2.920   5.109 -0.0237  0.2459  0.0358
  419MOL0     C56463   8.535   2.938   4.974 -0.3553 -0.1710 -1.1033
  419MOL0     C56464   8.599   2.857   4.873  0.3137  0.2607 -0.6716
  419MOL0     C56465   8.679   2.744   4.916  0.0321  0.1450  0.6229
  419MOL0     O56466   8.739   2.652   4.829  0.1141 -0.1494  0.6954
  419MOL0     C56467   8.878   2.685   4.802  0.2298  0.1545  0.4665
  419MOL0     C56468   8.960   2.560   4.756  0.3187 -0.5795  0.0029
  419MOL0     C56469   8.922   2.513   4.618 -0.0837  0.6921 -0.2524
  419MOL0     C56470   9.049   2.431   4.562 -0.0411 -0.2311  0.0781
  419MOL0     C56471   9.029   2.387   4.414  0.3771 -0.0711 -0.3072
  419MOL0     C56472   8.939   2.257   4.407  0.0090 -0.3945 -0.2417
  419MOL0     C56473   9.029   2.136   4.440  0.2690 -0.3273  0.4640
  419MOL0     C56474   9.135   2.105   4.332  0.0758 -0.1305 -0.8036
  419MOL0    Cl56475   9.077   2.112   4.167  0.0057 -0.1565 -0.2421
  419MOL0     C56476   8.705   2.724   5.051  0.1356  0.1865  0.0833
  419MOL0     C56477   8.657   2.812   5.145  0.7557  0.8039 -0.7839
  419MOL0     O56478   8.545   3.195   5.113 -0.5721  0.0976 -0.0454
  419MOL0     C56479   8.358   3.104   5.410  0.2826 -0.0126  0.6060
  419MOL0     C56480   8.290   3.155   5.518  0.2821 -1.1858 -0.2475
  419MOL0     N56481   7.906   3.848   5.960 -0.2979  0.3608 -0.3292
  419MOL0     N56482   7.816   3.826   6.056  0.1935  0.6886  0.2125
  419MOL0     C56483   8.209   4.222   7.220 -0.2994 -0.5802  0.0927
  419MOL0     C56484   8.270   4.219   7.344  0.6533  0.0387 -0.5607
  419MOL0     C56485   8.278   4.073   7.785  0.0267  0.4121  0.0932
  419MOL0     C56486   8.172   4.077   7.876 -0.1360 -0.3852 -0.0261
  419MOL0     C56487   8.195   4.108   8.018  0.0892 -0.7623  0.5804
  419MOL0     C56488   8.316   4.154   8.058 -0.0385 -0.2161  0.6710
  419MOL0     O56489   8.332   4.203   8.184 -1.1769 -0.3155  0.2012
  419MOL0     C56490   8.396   4.118   8.272 -0.7427 -0.8739 -0.1792
  419MOL0     C56491   8.525   4.204   8.331  0.8750  1.2107  0.2443
  419MOL0     C56492   8.499   4.335   8.393 -0.4367 -0.1686 -0.1364
  419MOL0     C56493   8.368   4.349   8.470  0.0538  0.7686  0.5847
  419MOL0     C56494   8.351   4.251   8.588 -0.5615  0.0619 -0.7064
  419MOL0     C56495   8.339   4.162   8.674 -0.9976  0.6512  0.3608
  419MOL0     C56496   8.423   4.162   7.960  0.3885  0.3234 -0.0992
  419MOL0     C56497   8.402   4.129   7.830  0.2709  0.6097 -0.2021
  419MOL0     H56498   8.259   3.883   7.411  0.4562  1.0050  0.7946
  419MOL0     H56499   8.187   3.880   7.177  1.2061 -1.5103  1.3474
  419MOL0     H56500   8.043   3.926   7.036  2.4935 -0.0950 -0.5321
  419MOL0     H56501   7.940   4.063   6.997  1.9492  2.9067  3.5992
  419MOL0     H56502   8.086   4.102   6.790 -0.5182 -1.6113 -4.1806
  419MOL0     H56503   8.155   3.939   6.824  0.4722 -1.1817  0.7067
  419MOL0     H56504   7.913   3.852   6.812 -2.3597  0.9673  2.1325
  419MOL0     H56505   7.850   4.006   6.785  0.1153  0.4101  1.2167
  419MOL0     H56506   7.979   4.025   6.571 -2.3821 -0.5616 -1.7195
  419MOL0     H56507   8.022   3.854   6.582 -1.3727 -1.9304  0.2056
  419MOL0     H56508   7.757   3.807   6.606  0.4917 -1.2075  0.2767
  419MOL0     H56509   7.740   3.971   6.551  1.8857 -0.7208  2.1046
  419MOL0     H56510   7.849   3.907   6.329 -1.6685 -0.3634 -1.1036
  419MOL0     H56511   7.919   3.760   6.398 -0.9594 -0.4350 -1.0853
  419MOL0     H56512   7.665   3.684   6.409 -1.2237  0.4562 -0.6067
  419MOL0     H56513   7.649   3.809   6.283  0.3322 -0.8234 -0.5870
  419MOL0     H56514   7.678   3.599   6.182  0.9043  1.1053  0.2070
  419MOL0     H56515   7.818   3.565   6.283  1.8906  0.1129 -0.0547
  419MOL0     H56516   8.025   3.573   6.077 -1.1295  0.5883 -0.5412
  419MOL0     H56517   8.137   3.808   5.789 -3.6566 -1.3291 -2.4889
  419MOL0     H56518   8.207   3.768   5.948  0.9929  1.0007  0.3305
  419MOL0     H56519   8.069   3.566   5.777  1.8335 -3.2533  0.2102
  419MOL0     H56520   8.182   3.522   5.906 -0.5003 -1.4511 -0.3861
  419MOL0     H56521   8.339   3.657   5.735 -1.5591  0.4428  1.1578
  419MOL0     H56522   8.225   3.608   5.628 -0.3850  3.0126  1.5120
  419MOL0     H56523   8.341   3.387   5.829  3.7571 -2.5022 -1.9879
  419MOL0     H56524   8.427   3.421   5.685 -0.0046  1.0057 -1.2938
  419MOL0     H56525   8.335   3.481   5.461  3.0224  0.5959  0.8506
  419MOL0     H56526   8.574   3.425   5.206  1.1005 -0.0034  0.7376
  419MOL0     H56527   8.396   3.432   5.172 -1.2971  0.0500  0.9393
  419MOL0     H56528   8.458   3.529   5.300 -0.9705 -1.0192  0.9259
  419MOL0     H56529   8.476   3.023   4.939  0.4128  0.3962 -1.0370
  419MOL0     H56530   8.576   2.866   4.767  0.4422  1.7018 -0.5911
  419MOL0     H56531   8.874   2.742   4.708  0.6575  1.9196  1.4626
  419MOL0     H56532   8.927   2.747   4.878 -0.9419  0.9420  0.6050
  419MOL0     H56533   9.064   2.596   4.754 -0.3593  1.6388  1.4847
  419MOL0     H56534   8.939   2.478   4.825 -5.6266  0.7439  0.3260
  419MOL0     H56535   8.898   2.595   4.550 -3.4030  0.1128  0.0639
  419MOL0     H56536   8.837   2.446   4.635  1.7849 -1.1243  2.9053
  419MOL0     H56537   9.126   2.508   4.564 -0.9209  0.6612  2.3248
  419MOL0     H56538   9.072   2.351   4.633  0.2985  1.1453  1.5663
  419MOL0     H56539   9.123   2.370   4.360  0.4315 -0.4840 -0.0913
  419MOL0     H56540   8.982   2.473   4.366  0.9002 -0.1068 -0.9067
  419MOL0     H56541   8.853   2.267   4.474 -0.9017  0.3887 -1.4728
  419MOL0     H56542   8.895   2.255   4.307 -2.7632  0.5605  0.8634
  419MOL0     H56543   8.962   2.050   4.449 -0.4237  0.3782  6.4929
  419MOL0     H56544   9.078   2.137   4.538  0.1369 -1.1832  0.5448
  419MOL0     H56545   9.194   2.013   4.347 -0.2162 -0.1796  0.1430
  419MOL0     H56546   9.216   2.178   4.344  0.6035 -0.4218 -2.4105
  419MOL0     H56547   8.766   2.639   5.079 -2.3864 -2.1404 -1.0571
  419MOL0     H56548   8.685   2.787   5.247  0.3752 -0.2630 -0.9340
  419MOL0     H56549   8.354   2.997   5.394  1.3722  0.2735 -2.0305
  419MOL0     H56550   8.231   3.095   5.586  1.2966  0.3710  2.1327
  419MOL0     H56551   8.188   4.314   7.166  3.0236  0.0210 -0.3522
  419MOL0     H56552   8.289   4.306   7.406  0.7128 -0.0736 -0.4199
  419MOL0     H56553   8.077   4.031   7.850  0.4171 -1.5404 -0.0434
  419MOL0     H56554   8.116   4.089   8.091  0.3106  1.9312  1.6231
  419MOL0     H56555   8.327   4.089   8.352 -3.5274  4.1276 -0.3459
  419MOL0     H56556   8.436   4.027   8.227  1.8258  0.4255 -0.7499
  419MOL0     H56557   8.601   4.217   8.253  0.0481  0.4779 -0.7112
  419MOL0     H56558   8.566   4.151   8.417 -2.1085 -0.4531  0.7892
  419MOL0     H56559   8.504   4.416   8.320  6.9599  0.2946  0.1559
  419MOL0     H56560   8.586   4.351   8.457 -0.2350 -1.8543  0.0493
  419MOL0     H56561   8.285   4.324   8.403  0.0695 -0.0540  0.8560
  419MOL0     H56562   8.362   4.454   8.499  1.0225  0.2171  3.0541
  419MOL0     H56563   8.310   4.095   8.752  0.7132 -0.2870  0.2271
  419MOL0     H56564   8.518   4.212   7.976  0.5059  0.9632 -2.4467
  419MOL0     H56565   8.480   4.122   7.755  0.5869 -0.0914  0.1794
  420MOL0     O56566   1.816   1.166   1.289  0.6741 -0.3545 -0.2750
  420MOL0     C56567   1.923   1.219   1.293 -1.0843 -0.6028  0.3553
  420MOL0     O56568   1.967   1.318   1.378  0.3709 -0.7281 -0.5456
  420MOL0     C56569   1.880   1.375   1.470 -0.0319  0.9297 -0.4909
  420MOL0     C56570   1.926   1.505   1.506 -0.1295 -0.1292  0.0552
  420MOL0     C56571   1.846   1.589   1.587  0.2161  0.2373  1.2313
  420MOL0     C56572   1.731   1.539   1.637 -0.4986 -0.7062 -0.3774
  420MOL0     O56573   1.653   1.613   1.722 -0.1288 -0.2073 -0.2651
  420MOL0     C56574   1.711   1.716   1.814  0.2067 -0.7821 -0.5131
  420MOL0     C56575   1.593   1.803   1.852  0.4812  0.2930 -0.3409
  420MOL0     C56576   1.638   1.923   1.938 -0.2002 -0.5833 -0.0315
  420MOL0     C56577   1.659   1.881   2.082 -0.0925 -1.5028  0.2789
  420MOL0     C56578   1.725   1.995   2.153  0.4060 -0.1617 -0.2442
  420MOL0     C56579   1.877   2.006   2.120 -0.4500 -0.5781  1.2294
  420MOL0     C56580   1.932   2.126   2.200 -0.0007  1.2260  0.0336
  420MOL0     C56581   2.085   2.124   2.225  1.3631 -0.9071 -0.1820
  420MOL0     N56582   2.159   2.147   2.099 -0.9895 -0.3808 -0.8445
  420MOL0     C56583   2.265   2.067   2.063  0.4429  0.4508 -0.3873
  420MOL0     C56584   2.345   2.145   1.990  0.2082  0.0488 -0.0127
  420MOL0     C56585   2.491   2.114   1.944 -0.3857  0.0088 -0.4836
  420MOL0     C56586   2.524   2.178   1.806 -0.7663  0.3592  0.9498
  420MOL0     C56587   2.660   2.132   1.743 -0.8950 -0.4082  0.0460
  420MOL0     C56588   2.795   2.173   1.811 -1.5077  1.0125 -0.3235
  420MOL0     O56589   2.915   2.132   1.738 -0.6829 -1.0813 -0.1283
  420MOL0     C56590   2.924   2.001   1.705  0.1306  1.3363 -0.3378
  420MOL0     C56591   2.972   1.947   1.584 -0.6004 -0.9302  0.1536
  420MOL0     C56592   2.987   1.813   1.553  0.3794 -1.0252  0.2326
  420MOL0     C56593   3.060   1.773   1.418  0.7719 -0.4355 -0.3323
  420MOL0     C56594   2.938   1.725   1.647 -0.0533 -0.1549 -0.5789
  420MOL0     C56595   2.947   1.579   1.634 -0.3236  0.5009  0.6061
  420MOL0     O56596   2.941   1.495   1.750 -0.8114 -0.5626  0.0166
  420MOL0     C56597   2.908   1.361   1.736 -0.3490  0.0621  0.4713
  420MOL0     C56598   2.821   1.293   1.649 -0.7136  0.1105 -0.0094
  420MOL0     C56599   2.806   1.153   1.663 -0.5491  0.7021 -0.5038
  420MOL0     C56600   2.891   1.068   1.739 -0.1580 -0.2971 -0.4277
  420MOL0     O56601   2.895   0.931   1.736 -0.5640 -0.5677 -0.2556
  420MOL0     C56602   2.999   0.864   1.659 -0.2764 -0.1018  0.0030
  420MOL0     C56603   3.014   0.899   1.504 -0.1531 -0.9522  0.5624
  420MOL0     C56604   3.133   0.817   1.437 -0.8338  0.1989 -0.3984
  420MOL0     C56605   3.154   0.871   1.296 -0.5572 -0.5668  0.2199
  420MOL0     C56606   3.272   0.803   1.221  0.0979  0.8749 -0.4234
  420MOL0     C56607   3.271   0.862   1.079  0.6702 -0.0935 -1.0205
  420MOL0     C56608   3.332   0.998   1.074  0.6099 -0.6110  0.8308
  420MOL0     C56609   3.469   1.020   1.130  0.0116  0.5548 -0.4342
  420MOL0    Cl56610   3.519   1.182   1.108 -0.6939 -0.2933 -0.1993
  420MOL0     C56611   2.979   1.140   1.822 -0.9303  0.2616 -0.2537
  420MOL0     C56612   2.978   1.282   1.831  0.0705  0.5905 -0.4483
  420MOL0     O56613   2.911   1.538   1.524  0.0588 -0.2294  0.9869
  420MOL0     C56614   2.891   1.771   1.769  0.1076 -0.4606 -0.0240
  420MOL0     C56615   2.897   1.907   1.799 -0.6235 -0.0293 -0.3397
  420MOL0     N56616   2.283   2.263   1.969  0.3440 -0.3729  0.5582
  420MOL0     N56617   2.186   2.269   2.055  0.0802  0.5191 -0.3868
  420MOL0     C56618   1.688   1.407   1.623  0.0658  0.6099 -0.4927
  420MOL0     C56619   1.763   1.328   1.532  0.1567 -0.2341 -0.2148
  420MOL0     C56620   2.028   1.176   1.193  0.8274  0.2009  0.0858
  420MOL0     C56621   2.151   1.249   1.171  0.0180  0.3075  0.4947
  420MOL0     C56622   2.246   1.195   1.090 -0.1697 -0.4739  0.5448
  420MOL0     C56623   2.228   1.069   1.032  0.7609  0.3318 -0.0526
  420MOL0     O56624   2.315   1.006   0.948  0.0743 -0.6093  0.1585
  420MOL0     C56625   2.434   1.074   0.921 -0.9622  0.7928 -0.1030
  420MOL0     C56626   2.518   1.002   0.816 -1.6343 -0.4780 -0.9282
  420MOL0     C56627   2.646   1.088   0.760 -0.2470  0.1182  0.8052
  420MOL0     C56628   2.722   1.009   0.653  0.0931 -0.1060  0.2024
  420MOL0     C56629   2.771   1.087   0.535  0.2093  0.3266 -0.2419
  420MOL0     C56630   2.831   1.132   0.440 -0.5996  0.8035 -0.1185
  420MOL0     C56631   2.099   1.008   1.045  0.6347  0.9124 -0.0062
  420MOL0     C56632   2.005   1.057   1.133  0.6085  0.7407  0.1521
  420MOL0     H56633   2.020   1.546   1.472  0.4543 -2.1440 -0.9499
  420MOL0     H56634   1.877   1.691   1.603 -1.5938  0.6321  2.4962
  420MOL0     H56635   1.759   1.682   1.906 -0.3098  0.4724  0.2456
  420MOL0     H56636   1.795   1.769   1.768 -0.1038 -1.3340 -1.7421
  420MOL0     H56637   1.549   1.835   1.757 -1.2210  0.4020  0.4375
  420MOL0     H56638   1.509   1.759   1.906 -1.0559  2.5814 -0.6788
  420MOL0     H56639   1.724   1.977   1.896  0.2231 -0.9790  0.3145
  420MOL0     H56640   1.556   1.995   1.946 -0.4008 -0.7844 -0.2242
  420MOL0     H56641   1.556   1.871   2.118 -1.3800  1.8085 -2.0291
  420MOL0     H56642   1.710   1.785   2.096 -0.1767 -1.7197 -0.8169
  420MOL0     H56643   1.682   2.090   2.121  2.4018  0.9301  0.1392
  420MOL0     H56644   1.712   1.991   2.262 -1.8106  0.8530 -0.4266
  420MOL0     H56645   1.926   1.917   2.160  1.1810 -0.1998  0.1530
  420MOL0     H56646   1.899   2.016   2.014  2.5569 -0.4784  1.7805
  420MOL0     H56647   1.896   2.214   2.146 -0.1108 -0.1882 -2.2948
  420MOL0     H56648   1.888   2.121   2.300  0.9077  5.4874  0.8377
  420MOL0     H56649   2.122   2.030   2.265 -0.1298 -2.1048 -1.5207
  420MOL0     H56650   2.099   2.208   2.294 -2.7552  1.6491 -2.0750
  420MOL0     H56651   2.286   1.968   2.100 -2.1704 -0.9847 -2.4003
  420MOL0     H56652   2.559   2.151   2.021 -1.4507  0.8131  0.0959
  420MOL0     H56653   2.504   2.005   1.935  0.8587 -0.0986  1.8698
  420MOL0     H56654   2.544   2.285   1.810  2.5625 -0.1329  0.4428
  420MOL0     H56655   2.441   2.148   1.740 -1.8537  1.4071  1.7920
  420MOL0     H56656   2.658   2.178   1.644  1.0749  1.1526  0.6614
  420MOL0     H56657   2.660   2.023   1.728 -3.5644 -0.1998 -2.1812
  420MOL0     H56658   2.788   2.132   1.913 -2.1861  4.1170  0.9876
  420MOL0     H56659   2.801   2.281   1.827 -0.7942  0.8156  0.8868
  420MOL0     H56660   3.008   2.029   1.522 -1.2260  0.1836  1.2349
  420MOL0     H56661   3.075   1.860   1.353  0.7436  2.2297  2.9738
  420MOL0     H56662   3.161   1.750   1.454  0.5912  2.9991  3.0934
  420MOL0     H56663   3.021   1.689   1.359 -3.4113  0.4785  0.8123
  420MOL0     H56664   2.771   1.350   1.571  1.7282 -0.1025 -1.8550
  420MOL0     H56665   2.741   1.096   1.599 -1.4450  0.3782  0.6539
  420MOL0     H56666   3.097   0.876   1.707  0.4253  0.9367 -1.5740
  420MOL0     H56667   2.970   0.759   1.668  0.0025 -0.1755  0.0516
  420MOL0     H56668   2.912   0.885   1.467 -1.6232  1.9130  3.1212
  420MOL0     H56669   3.033   1.004   1.481  1.3525 -1.8317 -2.7968
  420MOL0     H56670   3.093   0.715   1.432 -0.0754 -0.1455  0.2969
  420MOL0     H56671   3.229   0.809   1.488 -2.1216  1.3947  2.4504
  420MOL0     H56672   3.070   0.838   1.234 -0.6045 -1.1877  0.6024
  420MOL0     H56673   3.157   0.980   1.290  0.6752 -0.5800  0.2617
  420MOL0     H56674   3.256   0.695   1.218  1.1964  0.7173 -2.0551
  420MOL0     H56675   3.368   0.805   1.273 -0.2928 -1.6107  0.5320
  420MOL0     H56676   3.326   0.794   1.013  1.0208 -2.1601  1.2083
  420MOL0     H56677   3.174   0.878   1.032  1.7898  2.4226 -2.6867
  420MOL0     H56678   3.278   1.078   1.125 -1.7345  0.8424 -3.3645
  420MOL0     H56679   3.332   1.031   0.969 -5.5178  1.6366  1.1387
  420MOL0     H56680   3.550   0.953   1.100  0.9581  1.4871 -0.0387
  420MOL0     H56681   3.457   1.003   1.237 -0.9705  1.2702 -0.4234
  420MOL0     H56682   3.046   1.096   1.894  1.5756  2.8987 -0.7845
  420MOL0     H56683   3.044   1.340   1.894  0.5225 -0.6335  0.2455
  420MOL0     H56684   2.872   1.697   1.846  2.2996 -4.2045 -2.7097
  420MOL0     H56685   2.874   1.939   1.900  1.5367  0.4878  0.0310
  420MOL0     H56686   1.598   1.383   1.678  0.3063 -1.0706 -0.7696
  420MOL0     H56687   1.727   1.227   1.518  0.4009 -0.2651 -0.6260
  420MOL0     H56688   2.167   1.341   1.226 -2.0803  0.2168  1.3417
  420MOL0     H56689   2.341   1.249   1.088  0.7910 -2.1071 -0.7888
  420MOL0     H56690   2.395   1.173   0.892  1.1755  1.2872 -1.4319
  420MOL0     H56691   2.496   1.088   1.009 -1.4495  0.0747  0.3684
  420MOL0     H56692   2.455   0.976   0.731 -2.5070 -2.5423  0.2938
  420MOL0     H56693   2.557   0.910   0.860 -0.1112  0.0152 -1.1623
  420MOL0     H56694   2.705   1.113   0.849  0.6104  0.1931  0.2306
  420MOL0     H56695   2.603   1.181   0.723 -3.0547 -0.1601  3.0658
  420MOL0     H56696   2.642   0.947   0.611 -0.6570  1.1202 -0.2312
  420MOL0     H56697   2.799   0.943   0.694 -0.2790  0.6136  2.1530
  420MOL0     H56698   2.871   1.171   0.349 -1.3674  0.3094 -0.6740
  420MOL0     H56699   2.086   0.913   0.994  0.3029  0.7683  0.3391
  420MOL0     H56700   1.909   1.010   1.148  1.2173 -0.4320  0.4983
  421MOL0     O56701   3.780   9.992   4.552 -1.0314  0.4458  0.1670
  421MOL0     C56702   3.803  10.004   4.673  0.4766  0.8949  1.1494
  421MOL0     O56703   3.905  10.066   4.723 -0.1564 -0.3477 -0.0805
  421MOL0     C56704   4.002  10.140   4.655  0.0834 -0.5953  0.2644
  421MOL0     C56705   4.048  10.108   4.528 -0.6498  0.0867 -0.1287
  421MOL0     C56706   4.133  10.197   4.458 -0.0997 -0.6535 -0.1251
  421MOL0     C56707   4.196  10.302   4.516  0.5788 -0.8343 -0.1928
  421MOL0     O56708   4.290  10.385   4.457  0.5569 -0.4318 -0.4497
  421MOL0     C56709   4.263  10.531   4.461 -0.1120 -0.0207 -0.5427
  421MOL0     C56710   4.341  10.618   4.355  0.2224 -0.4666  0.1555
  421MOL0     C56711   4.283  10.614   4.214 -0.1582  0.3418  0.1318
  421MOL0     C56712   4.373  10.711   4.125  0.4374 -0.2758  0.6966
  421MOL0     C56713   4.355  10.692   3.979  0.3047 -0.5683  0.0047
  421MOL0     C56714   4.473  10.746   3.910 -0.4594 -0.2409 -0.1594
  421MOL0     C56715   4.455  10.762   3.758 -0.5033  0.2537  0.5591
  421MOL0     C56716   4.396  10.894   3.723 -0.2887 -0.8337  0.2207
  421MOL0     N56717   4.501  10.993   3.712  0.7328  0.0382 -0.2668
  421MOL0     C56718   4.555  11.034   3.590 -0.0363  0.5012  0.1683
  421MOL0     C56719   4.628  11.138   3.628  0.4788 -0.9312  0.1604
  421MOL0     C56720   4.708  11.219   3.531 -0.5528 -0.3052  0.2844
  421MOL0     C56721   4.869  11.201   3.559 -1.2200  1.1243 -0.2822
  421MOL0     C56722   4.935  11.302   3.471 -0.1318  0.0468  0.5351
  421MOL0     C56723   5.082  11.279   3.461  0.1641 -0.0636  0.0418
  421MOL0     O56724   5.149  11.319   3.576  0.4119 -0.4020  0.4993
  421MOL0     C56725   5.282  11.294   3.585 -0.8515  0.7342 -0.4138
  421MOL0     C56726   5.365  11.391   3.522 -0.3647  0.6935 -0.7164
  421MOL0     C56727   5.510  11.388   3.543 -0.0982 -0.5100  0.7124
  421MOL0     C56728   5.599  11.490   3.482 -0.4475 -0.3352 -0.1685
  421MOL0     C56729   5.565  11.283   3.625 -0.1771  0.5176 -1.2000
  421MOL0     C56730   5.706  11.280   3.686  0.4588  0.2628  0.4607
  421MOL0     O56731   5.758  11.159   3.724  0.3421  0.1875  0.1217
  421MOL0     C56732   5.898  11.165   3.738 -0.6959 -0.4385 -1.2138
  421MOL0     C56733   5.957  11.108   3.861  0.5734 -0.0254 -0.3013
  421MOL0     C56734   6.095  11.123   3.879 -0.4811  0.5845 -0.1878
  421MOL0     C56735   6.182  11.176   3.779  0.2088  0.1311 -0.5873
  421MOL0     O56736   6.307  11.209   3.798 -0.8728 -0.3202  0.5557
  421MOL0     C56737   6.351  11.299   3.904  0.0645 -0.0791  0.1983
  421MOL0     C56738   6.392  11.228   4.029 -0.0381  0.5397  0.0517
  421MOL0     C56739   6.470  11.313   4.127 -0.0642  0.6020  1.2437
  421MOL0     C56740   6.398  11.418   4.217 -0.0864 -0.9332 -0.2459
  421MOL0     C56741   6.475  11.466   4.336 -0.7128  0.2128 -0.6519
  421MOL0     C56742   6.444  11.389   4.470 -0.0445  0.0231  0.3370
  421MOL0     C56743   6.559  11.422   4.570 -0.4161  0.1930 -0.8825
  421MOL0     C56744   6.527  11.362   4.712  0.5574 -0.1447  0.2750
  421MOL0    Cl56745   6.537  11.193   4.698 -0.1321  0.0847 -0.1023
  421MOL0     C56746   6.129  11.207   3.654 -0.1908  0.1948 -0.9718
  421MOL0     C56747   5.985  11.200   3.637 -0.3754 -0.6485 -0.0602
  421MOL0     O56748   5.757  11.390   3.703  0.2646  0.0112  0.0718
  421MOL0     C56749   5.487  11.177   3.672 -0.2986  0.1664  0.4076
  421MOL0     C56750   5.342  11.186   3.654  0.0607  0.5893  0.9802
  421MOL0     N56751   4.625  11.162   3.762 -0.1899  0.3894 -0.0289
  421MOL0     N56752   4.545  11.075   3.812 -0.4042  0.0238 -0.0128
  421MOL0     C56753   4.149  10.327   4.646 -0.8887  0.1094 -0.3859
  421MOL0     C56754   4.055  10.250   4.716 -0.4817 -0.4973  0.4758
  421MOL0     C56755   3.710   9.923   4.761 -0.2999  0.2245  0.1858
  421MOL0     C56756   3.566   9.933   4.735 -0.1279  0.4667 -0.2463
  421MOL0     C56757   3.487   9.859   4.821  0.6006  0.2463  0.1894
  421MOL0     C56758   3.532   9.790   4.933 -0.4183 -0.6796  1.1585
  421MOL0     O56759   3.439   9.718   5.003  0.0754  0.4824 -0.6591
  421MOL0     C56760   3.485   9.636   5.112  0.1933  0.3727 -0.2980
  421MOL0     C56761   3.551   9.494   5.095  0.3512 -0.9538  0.6526
  421MOL0     C56762   3.652   9.456   5.204 -0.9424  0.2676  0.2413
  421MOL0     C56763   3.612   9.338   5.290  0.6930  0.1162 -0.4183
  421MOL0     C56764   3.522   9.386   5.399  0.2987 -0.3768 -0.0181
  421MOL0     C56765   3.438   9.431   5.474  0.1725 -0.0712 -0.4082
  421MOL0     C56766   3.664   9.805   4.964 -0.0995 -0.1689 -0.4682
  421MOL0     C56767   3.752   9.866   4.878  0.1322  0.0910 -1.3728
  421MOL0     H56768   4.008  10.020   4.480 -0.4592 -1.0204  1.6358
  421MOL0     H56769   4.165  10.190   4.355  0.5373 -1.4128  0.1177
  421MOL0     H56770   4.154  10.536   4.452 -0.2300 -0.6441  0.4359
  421MOL0     H56771   4.291  10.564   4.561  0.8947  1.6238 -1.3188
  421MOL0     H56772   4.337  10.725   4.376 -1.8555  0.1320 -2.6609
  421MOL0     H56773   4.446  10.589   4.358  0.4008  0.0798 -0.5800
  421MOL0     H56774   4.276  10.518   4.163 -1.0474  2.0928 -3.3469
  421MOL0     H56775   4.182  10.655   4.204 -0.3175 -0.1251 -0.1909
  421MOL0     H56776   4.347  10.812   4.158  0.9818 -0.2441  1.0491
  421MOL0     H56777   4.477  10.692   4.150  0.7586 -0.4958 -0.7324
  421MOL0     H56778   4.351  10.584   3.964 -2.6323 -1.0402  3.0161
  421MOL0     H56779   4.258  10.725   3.940  0.0771 -2.4125 -1.1306
  421MOL0     H56780   4.492  10.846   3.949  0.2761  0.0282 -1.1534
  421MOL0     H56781   4.560  10.681   3.923 -0.4224 -0.4214 -1.2144
  421MOL0     H56782   4.556  10.756   3.717 -0.7689  1.4994 -0.3604
  421MOL0     H56783   4.396  10.680   3.716 -1.1563  1.4391 -0.9532
  421MOL0     H56784   4.320  10.920   3.797  2.4055 -0.1646  2.9366
  421MOL0     H56785   4.342  10.885   3.628 -1.0546 -0.6940  0.6320
  421MOL0     H56786   4.533  10.995   3.491 -2.5513 -3.6206  2.0989
  421MOL0     H56787   4.679  11.190   3.430  1.9108 -3.2412  0.2675
  421MOL0     H56788   4.676  11.323   3.523 -0.4734 -0.3965 -1.8085
  421MOL0     H56789   4.899  11.103   3.521  1.0380  2.5669 -2.6147
  421MOL0     H56790   4.899  11.201   3.664  2.0533 -4.8370 -0.7611
  421MOL0     H56791   4.913  11.401   3.511 -3.5490  0.0669 -1.0102
  421MOL0     H56792   4.893  11.297   3.371 -0.7234  2.0407  0.6544
  421MOL0     H56793   5.119  11.331   3.372  3.2875  0.7435  1.6638
  421MOL0     H56794   5.094  11.171   3.451 -1.2495 -0.1180 -1.4583
  421MOL0     H56795   5.324  11.455   3.444  1.5696  0.2473 -2.1879
  421MOL0     H56796   5.699  11.451   3.460 -0.3156 -0.3525  0.4513
  421MOL0     H56797   5.557  11.522   3.386 -0.0057 -0.3220 -0.3553
  421MOL0     H56798   5.606  11.579   3.544  1.1041 -0.5034 -0.0838
  421MOL0     H56799   5.905  11.056   3.941 -1.1823 -2.3400 -2.7269
  421MOL0     H56800   6.152  11.093   3.967  1.5752 -0.1311 -1.6753
  421MOL0     H56801   6.444  11.348   3.876  1.2910 -0.9234  2.5224
  421MOL0     H56802   6.269  11.368   3.929 -0.3344 -1.3389  2.7343
  421MOL0     H56803   6.300  11.196   4.079 -0.7722  0.1632 -1.4801
  421MOL0     H56804   6.450  11.142   3.993  1.2876  1.8263 -1.0064
  421MOL0     H56805   6.549  11.354   4.063  0.4220 -3.7771 -1.3224
  421MOL0     H56806   6.511  11.235   4.192 -0.5949 -1.2329 -0.5481
  421MOL0     H56807   6.377  11.505   4.154 -0.7414 -1.4598 -0.7613
  421MOL0     H56808   6.312  11.367   4.259 -0.3588  0.6745  1.2718
  421MOL0     H56809   6.444  11.570   4.348 -4.6423 -0.9071  0.2917
  421MOL0     H56810   6.580  11.458   4.307 -0.7969 -0.6808 -0.7267
  421MOL0     H56811   6.345  11.416   4.509 -0.4113  2.3010 -1.9260
  421MOL0     H56812   6.431  11.284   4.440 -0.3412  0.3515 -0.7141
  421MOL0     H56813   6.568  11.530   4.582 -2.2193  0.2271  0.4674
  421MOL0     H56814   6.655  11.385   4.532 -1.7228 -1.7736 -2.5376
  421MOL0     H56815   6.426  11.397   4.736  0.3797  0.3667 -1.1234
  421MOL0     H56816   6.589  11.394   4.796 -1.9238  1.6522  1.5409
  421MOL0     H56817   6.188  11.236   3.568 -0.3906  0.6926 -0.9446
  421MOL0     H56818   5.960  11.220   3.533 -2.0628 -0.8784  0.2766
  421MOL0     H56819   5.522  11.088   3.723  3.1296  0.4828 -1.1171
  421MOL0     H56820   5.265  11.120   3.692  0.0791  1.6028  2.8819
  421MOL0     H56821   4.187  10.408   4.707  0.1876  1.5233 -2.7952
  421MOL0     H56822   4.028  10.279   4.817  2.4496 -2.2267  1.9191
  421MOL0     H56823   3.535   9.983   4.644 -0.2785  1.3719  0.2911
  421MOL0     H56824   3.380   9.846   4.811  0.5948 -0.4594  1.0946
  421MOL0     H56825   3.545   9.703   5.174 -2.9731  2.1573  1.0760
  421MOL0     H56826   3.399   9.613   5.175  0.2309 -1.5460 -0.8824
  421MOL0     H56827   3.598   9.495   4.997 -1.8686 -2.2621 -0.5106
  421MOL0     H56828   3.478   9.414   5.083  1.7920 -1.9647 -2.1034
  421MOL0     H56829   3.676   9.532   5.279  1.9527 -1.8830  1.6659
  421MOL0     H56830   3.741   9.422   5.151 -0.8108  1.3540 -0.2603
  421MOL0     H56831   3.704   9.303   5.338  0.3050 -0.4812 -0.0977
  421MOL0     H56832   3.556   9.267   5.230 -0.2052 -0.2983  0.8660
  421MOL0     H56833   3.357   9.466   5.534 -0.1795  4.8828 -3.2935
  421MOL0     H56834   3.716   9.769   5.053  0.6922 -0.4869 -1.0460
  421MOL0     H56835   3.852   9.861   4.919 -0.7025 -2.4984  0.5746
  422MOL0     O56836  10.141   2.208   8.503 -0.4225  0.0469  0.2622
  422MOL0     C56837  10.177   2.162   8.395  0.1851 -1.1324  0.2851
  422MOL0     O56838  10.237   2.037   8.366  0.3486  0.1103 -0.2130
  422MOL0     C56839  10.275   1.967   8.474 -0.1597  1.1570  0.1760
  422MOL0     C56840  10.214   1.943   8.592 -0.1321 -0.6012 -0.7936
  422MOL0     C56841  10.258   1.842   8.682  0.1460 -1.2662  1.2063
  422MOL0     C56842  10.381   1.783   8.663 -0.2653  0.4980  0.0798
  422MOL0     O56843  10.422   1.681   8.746  0.7580  0.1254  0.0351
  422MOL0     C56844  10.562   1.699   8.792 -0.0892 -0.0369  0.3657
  422MOL0     C56845  10.556   1.690   8.943 -0.1202 -0.3833 -0.5491
  422MOL0     C56846  10.485   1.581   9.015 -0.3115  0.0295 -0.5105
  422MOL0     C56847  10.352   1.617   9.072  0.4823  0.3135 -0.8068
  422MOL0     C56848  10.281   1.510   9.155  0.0259  0.5922 -0.0452
  422MOL0     C56849  10.132   1.551   9.174 -0.6155  0.5814 -0.5157
  422MOL0     C56850  10.070   1.508   9.309  0.2196 -0.7629  0.2785
  422MOL0     C56851   9.932   1.570   9.344 -0.2887  0.2432  1.2854
  422MOL0     N56852   9.929   1.704   9.389 -0.5787  0.1100  0.3571
  422MOL0     C56853   9.912   1.752   9.515 -1.0085  0.2285 -0.9602
  422MOL0     C56854   9.886   1.887   9.497  0.8601 -0.1671 -0.8645
  422MOL0     C56855   9.871   1.991   9.605  0.5073  0.0275  1.1818
  422MOL0     C56856   9.786   2.114   9.556 -0.4253 -0.0510 -1.4267
  422MOL0     C56857   9.645   2.088   9.506 -0.3878  0.7585  0.0717
  422MOL0     C56858   9.615   2.134   9.357  0.3932  0.7171 -1.2813
  422MOL0     O56859   9.621   2.273   9.340  0.0950  0.2650 -0.3519
  422MOL0     C56860   9.564   2.326   9.227 -0.2280  0.6656  0.2494
  422MOL0     C56861   9.546   2.247   9.117  0.6849 -0.0831  0.2637
  422MOL0     C56862   9.476   2.299   9.002 -0.5663 -0.1028 -0.1063
  422MOL0     C56863   9.459   2.195   8.892 -0.1614 -0.1979 -0.5159
  422MOL0     C56864   9.449   2.439   8.998  0.7626  0.4322 -0.7566
  422MOL0     C56865   9.375   2.500   8.884 -0.6092  0.5652  0.3148
  422MOL0     O56866   9.284   2.600   8.908 -0.1012 -0.8331 -0.5251
  422MOL0     C56867   9.234   2.672   8.796 -0.2402 -0.1052 -0.2660
  422MOL0     C56868   9.271   2.806   8.777 -0.0431 -0.3878  0.4123
  422MOL0     C56869   9.222   2.874   8.664  0.4161 -0.1576  0.3359
  422MOL0     C56870   9.132   2.816   8.577 -0.8793  0.0213  0.0912
  422MOL0     O56871   9.089   2.876   8.462 -0.2373 -0.3649  0.3354
  422MOL0     C56872   9.163   2.985   8.412  0.1128 -0.9492  0.3474
  422MOL0     C56873   9.099   3.023   8.273 -0.0758 -0.1504  0.2059
  422MOL0     C56874   9.182   3.145   8.226  0.0133  1.3181 -0.3901
  422MOL0     C56875   9.134   3.179   8.076 -0.1462 -0.1409  1.1203
  422MOL0     C56876   9.220   3.281   8.011 -0.2581  0.0535  0.0846
  422MOL0     C56877   9.225   3.252   7.857 -0.4152  0.6109  1.3660
  422MOL0     C56878   9.340   3.332   7.804 -0.7451  1.4211  0.5586
  422MOL0     C56879   9.411   3.267   7.687  0.3577  0.3496  1.4562
  422MOL0    Cl56880   9.306   3.205   7.546 -0.1740 -0.0833  0.2135
  422MOL0     C56881   9.089   2.690   8.597 -0.0739  0.7987  0.8214
  422MOL0     C56882   9.143   2.616   8.705 -0.6503  0.7084 -0.9379
  422MOL0     O56883   9.394   2.451   8.766 -0.6551  1.5498 -0.2759
  422MOL0     C56884   9.462   2.514   9.118  0.1678  0.5621 -0.1904
  422MOL0     C56885   9.524   2.458   9.225  1.0184  1.2833  0.2181
  422MOL0     N56886   9.897   1.916   9.363 -0.2870 -0.6009 -0.4270
  422MOL0     N56887   9.915   1.805   9.303 -0.1905 -0.2477  0.6589
  422MOL0     C56888  10.451   1.803   8.546  0.5368  0.0345 -0.7015
  422MOL0     C56889  10.400   1.900   8.454 -0.2837 -0.3929 -0.3760
  422MOL0     C56890  10.138   2.262   8.280  0.0948  1.5693  0.2769
  422MOL0     C56891  10.158   2.236   8.146 -0.6554  0.3929  0.0219
  422MOL0     C56892  10.132   2.315   8.035  0.4178 -0.4987  0.2901
  422MOL0     C56893  10.059   2.438   8.064  0.5595 -0.7896 -0.7762
  422MOL0     O56894  10.002   2.513   7.967  0.2041  0.1804 -0.0105
  422MOL0     C56895  10.085   2.544   7.861  0.5468 -0.1425 -0.0617
  422MOL0     C56896  10.048   2.686   7.806  0.1833 -0.0560 -0.2275
  422MOL0     C56897  10.124   2.812   7.854  0.2063 -0.1907 -0.1742
  422MOL0     C56898  10.042   2.941   7.872  0.0203 -0.4554  0.8067
  422MOL0     C56899  10.122   3.041   7.945 -0.4177  0.0527  0.1516
  422MOL0     C56900  10.177   3.124   8.013 -0.1313 -0.2633 -0.3530
  422MOL0     C56901  10.029   2.472   8.196 -0.7159 -0.0782 -0.0424
  422MOL0     C56902  10.070   2.384   8.303 -0.7362  0.0192  0.3252
  422MOL0     H56903  10.115   1.985   8.609  0.9871  1.7728  0.3634
  422MOL0     H56904  10.199   1.818   8.769  3.1671  0.5018  3.9758
  422MOL0     H56905  10.633   1.625   8.753 -0.3267  0.2183 -0.5978
  422MOL0     H56906  10.601   1.799   8.772  0.8098 -0.6640 -1.2051
  422MOL0     H56907  10.660   1.668   8.966  0.2773 -4.5781 -4.8848
  422MOL0     H56908  10.537   1.784   8.997 -1.3299  0.4187 -2.2864
  422MOL0     H56909  10.474   1.494   8.950 -2.4099 -0.6740  0.7052
  422MOL0     H56910  10.547   1.540   9.096 -3.8863 -1.9839  1.4522
  422MOL0     H56911  10.371   1.702   9.137  2.1924 -0.7072  0.0927
  422MOL0     H56912  10.289   1.629   8.983  0.0238  0.8996 -0.4053
  422MOL0     H56913  10.292   1.415   9.102 -1.0669  1.0351 -1.1219
  422MOL0     H56914  10.316   1.501   9.259 -1.1976  1.7349  0.5102
  422MOL0     H56915  10.120   1.659   9.167 -1.0529  0.5388 -0.4849
  422MOL0     H56916  10.057   1.521   9.099  0.2222  1.5338 -1.7628
  422MOL0     H56917  10.052   1.400   9.301 -1.9601 -0.3296 -1.8497
  422MOL0     H56918  10.140   1.520   9.392 -0.3377 -1.1666  0.8159
  422MOL0     H56919   9.900   1.493   9.415  3.0650 -1.6375  0.9786
  422MOL0     H56920   9.870   1.566   9.254 -0.7827  2.9369  1.4335
  422MOL0     H56921   9.934   1.712   9.614 -0.2481  1.0482 -0.7802
  422MOL0     H56922   9.843   1.953   9.705  3.3115  3.1621  3.3559
  422MOL0     H56923   9.970   2.036   9.614  0.2314  0.8400  0.2808
  422MOL0     H56924   9.842   2.163   9.476  0.9807 -1.3394 -1.2778
  422MOL0     H56925   9.776   2.182   9.641 -1.4203  0.2354 -1.7634
  422MOL0     H56926   9.576   2.154   9.558  1.2613  3.0902 -0.5248
  422MOL0     H56927   9.632   1.979   9.513  0.8507  0.7197  3.5224
  422MOL0     H56928   9.513   2.108   9.326  0.1731  2.1659 -1.8829
  422MOL0     H56929   9.688   2.082   9.295  1.0726  0.1734 -0.0486
  422MOL0     H56930   9.581   2.145   9.111  0.4195 -0.1618  0.0279
  422MOL0     H56931   9.482   2.095   8.930 -0.9256 -1.3561 -2.8493
  422MOL0     H56932   9.355   2.200   8.859  0.0151  0.5931 -0.9748
  422MOL0     H56933   9.525   2.218   8.808  2.9219 -1.1992  1.4668
  422MOL0     H56934   9.327   2.856   8.855 -2.0169  0.1698  1.5540
  422MOL0     H56935   9.269   2.972   8.655 -0.7526  0.5265  1.3822
  422MOL0     H56936   9.152   3.068   8.483  1.5768 -1.2579  0.9609
  422MOL0     H56937   9.269   2.961   8.406  0.5028  0.8347 -3.7283
  422MOL0     H56938   9.112   2.943   8.199 -0.7184  0.4831 -0.6141
  422MOL0     H56939   8.993   3.047   8.285  0.1908  1.1129  0.2439
  422MOL0     H56940   9.289   3.126   8.225 -0.0344  0.8609  0.8572
  422MOL0     H56941   9.167   3.230   8.294 -1.2605  1.4620 -0.8229
  422MOL0     H56942   9.132   3.087   8.018 -2.3063  1.2953 -1.2712
  422MOL0     H56943   9.031   3.212   8.068  0.5917  1.8370 -1.8305
  422MOL0     H56944   9.320   3.271   8.053 -0.0052  2.3721  0.1370
  422MOL0     H56945   9.194   3.386   8.024  0.2225  0.4158 -1.5780
  422MOL0     H56946   9.226   3.145   7.831 -2.2988  1.0957 -1.0080
  422MOL0     H56947   9.132   3.281   7.808  0.9412  0.6616 -1.4009
  422MOL0     H56948   9.412   3.356   7.883 -0.6405  0.0029  0.9091
  422MOL0     H56949   9.300   3.426   7.766 -1.0295  0.2487 -2.2665
  422MOL0     H56950   9.485   3.192   7.716  1.5110  2.3567  4.1836
  422MOL0     H56951   9.464   3.347   7.634 -0.1836  0.7676  1.5344
  422MOL0     H56952   9.025   2.629   8.534  1.3748 -0.6677  0.7098
  422MOL0     H56953   9.102   2.517   8.717 -2.3136  1.4198 -0.4869
  422MOL0     H56954   9.426   2.616   9.109 -2.6242 -0.3398 -0.2316
  422MOL0     H56955   9.526   2.529   9.307 -0.3011  0.8728  0.6170
  422MOL0     H56956  10.550   1.760   8.538  1.5080  1.6330  1.7709
  422MOL0     H56957  10.463   1.911   8.366  0.2667 -0.3963  0.0121
  422MOL0     H56958  10.198   2.138   8.120 -0.0549  0.0919  1.9036
  422MOL0     H56959  10.153   2.266   7.940 -1.2315 -3.2979  1.2367
  422MOL0     H56960  10.191   2.560   7.881  0.9298  0.9012 -2.5796
  422MOL0     H56961  10.081   2.465   7.785  1.4777 -2.4680  2.1394
  422MOL0     H56962   9.941   2.698   7.824  0.0473 -2.2482  0.7724
  422MOL0     H56963  10.061   2.677   7.698 -0.2439 -0.1519 -0.2728
  422MOL0     H56964  10.202   2.822   7.778  1.0007 -5.1100 -0.3906
  422MOL0     H56965  10.165   2.798   7.955 -1.9599  0.9299  0.9175
  422MOL0     H56966   9.949   2.929   7.928 -1.1134 -1.1702 -1.1670
  422MOL0     H56967  10.027   2.999   7.781 -3.1304 -0.9764  0.9083
  422MOL0     H56968  10.218   3.195   8.082 -0.4512 -2.0500  1.8146
  422MOL0     H56969   9.985   2.567   8.225  0.7068 -0.0002  2.1026
  422MOL0     H56970  10.045   2.425   8.401  0.2793 -1.9843  1.4854
  423MOL0     O56971   9.875   2.960   1.727 -0.3503  0.1504 -0.5113
  423MOL0     C56972   9.823   2.887   1.647 -0.1144  0.2720  0.4029
  423MOL0     O56973   9.769   2.927   1.530  0.0575  0.6658 -0.3713
  423MOL0     C56974   9.759   3.062   1.492  0.5447 -0.2234 -0.5904
  423MOL0     C56975   9.683   3.150   1.573  0.4264  0.9637 -0.6547
  423MOL0     C56976   9.663   3.279   1.538 -0.4233 -0.5049 -0.6311
  423MOL0     C56977   9.723   3.317   1.418  0.3033 -0.5454  0.9701
  423MOL0     O56978   9.675   3.440   1.373  0.0191  0.2601  0.0830
  423MOL0     C56979   9.704   3.483   1.240  0.0723  0.5905  0.3645
  423MOL0     C56980   9.604   3.601   1.211  0.9778  0.5276 -0.2569
  423MOL0     C56981   9.584   3.632   1.064 -0.5338 -0.1226  1.0332
  423MOL0     C56982   9.499   3.753   1.027  1.0579  0.1157  0.0193
  423MOL0     C56983   9.363   3.734   1.092 -0.6074  0.6424 -0.0579
  423MOL0     C56984   9.268   3.845   1.059  0.7975  0.3847 -0.5433
  423MOL0     C56985   9.131   3.816   1.125  0.3065  0.2010 -0.4368
  423MOL0     C56986   9.022   3.924   1.104  0.9234  0.1424 -1.5695
  423MOL0     N56987   9.040   4.049   1.178 -0.2125 -0.2496  0.2478
  423MOL0     C56988   9.111   4.147   1.114  0.2276 -0.9165 -0.2323
  423MOL0     C56989   9.087   4.252   1.197 -0.4605 -0.2190 -0.0499
  423MOL0     C56990   9.172   4.372   1.186  0.0445 -0.4044 -0.2408
  423MOL0     C56991   9.102   4.480   1.088 -0.0066 -0.0401 -0.6474
  423MOL0     C56992   9.180   4.608   1.106 -0.7323  0.3508  0.0801
  423MOL0     C56993   9.114   4.708   1.010 -0.4479 -0.3845 -0.2457
  423MOL0     O56994   8.969   4.719   1.012 -0.4012 -0.2957 -0.4087
  423MOL0     C56995   8.908   4.797   0.917  0.9318 -0.0205 -0.3010
  423MOL0     C56996   8.963   4.904   0.841 -0.5310  0.5709 -0.2023
  423MOL0     C56997   8.881   4.984   0.759 -1.0435  0.4544 -0.2198
  423MOL0     C56998   8.960   5.088   0.679 -0.5334 -1.0159  1.2446
  423MOL0     C56999   8.741   4.960   0.755  0.7254  0.8722  0.2202
  423MOL0     C57000   8.643   5.050   0.685  1.1445  0.1869  0.2563
  423MOL0     O57001   8.523   5.000   0.635  1.8008 -0.9209 -0.7197
  423MOL0     C57002   8.409   5.084   0.627  0.2974  0.1565  0.8072
  423MOL0     C57003   8.310   5.043   0.536 -0.6878  0.3666  1.0517
  423MOL0     C57004   8.180   5.094   0.524  0.0393  0.2261  0.2767
  423MOL0     C57005   8.157   5.213   0.600  0.4251  0.5469 -0.0465
  423MOL0     O57006   8.023   5.251   0.604  0.4603 -0.1920  0.9180
  423MOL0     C57007   8.003   5.387   0.622  0.3278 -0.5301  0.8259
  423MOL0     C57008   8.026   5.455   0.491 -0.4722  0.8924  0.4171
  423MOL0     C57009   7.952   5.586   0.495  0.9341  0.1418  0.5858
  423MOL0     C57010   7.801   5.578   0.457  0.5211 -0.2445  0.2202
  423MOL0     C57011   7.725   5.709   0.480 -0.4881 -0.2844  0.0859
  423MOL0     C57012   7.700   5.740   0.625 -0.5849 -0.8268 -0.6570
  423MOL0     C57013   7.622   5.863   0.653 -1.1643  0.8280  0.3960
  423MOL0     C57014   7.624   5.888   0.806 -0.4625 -0.6761  0.5649
  423MOL0    Cl57015   7.537   6.046   0.828 -0.5397  0.3280  0.2450
  423MOL0     C57016   8.257   5.273   0.684 -0.0178 -1.0008  0.6836
  423MOL0     C57017   8.383   5.201   0.698  0.2716  0.2443 -0.2233
  423MOL0     O57018   8.667   5.170   0.683  0.4029 -0.0675 -0.3570
  423MOL0     C57019   8.692   4.849   0.827  0.9786 -0.2921  0.4414
  423MOL0     C57020   8.770   4.774   0.904 -0.3749 -0.9155 -0.1444
  423MOL0     N57021   9.025   4.212   1.308 -0.2422 -0.0276  0.4581
  423MOL0     N57022   9.003   4.090   1.300  0.8644  1.1294 -0.2834
  423MOL0     C57023   9.776   3.228   1.327  0.2424  0.3000  0.6728
  423MOL0     C57024   9.801   3.102   1.372  0.3610  0.7719 -0.2041
  423MOL0     C57025   9.845   2.736   1.658 -0.4409  0.4055 -0.2462
  423MOL0     C57026   9.761   2.647   1.603 -0.0246 -0.2080 -0.1073
  423MOL0     C57027   9.770   2.514   1.615  0.3948  0.1748 -0.5085
  423MOL0     C57028   9.891   2.465   1.665 -0.4321  0.1306 -0.5543
  423MOL0     O57029   9.895   2.326   1.682 -0.0991  0.1283 -0.1714
  423MOL0     C57030  10.020   2.247   1.702 -0.2301 -0.4907 -0.1268
  423MOL0     C57031  10.100   2.248   1.571 -1.0998  0.9079  0.4038
  423MOL0     C57032  10.248   2.207   1.589  0.1593 -0.2396  0.4495
  423MOL0     C57033  10.333   2.325   1.645 -1.3326  0.1546  0.2040
  423MOL0     C57034  10.436   2.265   1.736  0.1447  0.5217 -0.5935
  423MOL0     C57035  10.529   2.216   1.803  0.0346  0.2303 -0.4023
  423MOL0     C57036   9.998   2.547   1.703  0.5704  0.9246 -0.8485
  423MOL0     C57037   9.967   2.688   1.704  0.3208 -0.2476 -0.6176
  423MOL0     H57038   9.635   3.110   1.661  0.8625 -0.8399 -1.1915
  423MOL0     H57039   9.616   3.353   1.602  0.7795  0.4462 -0.7986
  423MOL0     H57040   9.810   3.509   1.229  0.0474 -0.1132 -2.6933
  423MOL0     H57041   9.692   3.405   1.164 -0.9109  0.4350  0.6660
  423MOL0     H57042   9.510   3.565   1.253  1.1816 -0.0730 -0.3162
  423MOL0     H57043   9.638   3.688   1.267 -2.3664 -0.4276  3.7419
  423MOL0     H57044   9.684   3.641   1.020 -0.1091 -0.9317  1.7988
  423MOL0     H57045   9.525   3.547   1.028 -2.9669  2.7133 -2.3029
  423MOL0     H57046   9.536   3.849   1.064 -0.3320 -0.7586  4.3397
  423MOL0     H57047   9.505   3.760   0.918  0.2101  1.0629  0.0119
  423MOL0     H57048   9.327   3.640   1.048 -1.7406  0.5495  1.0138
  423MOL0     H57049   9.373   3.718   1.200 -1.8417  1.5057  0.2051
  423MOL0     H57050   9.303   3.935   1.110  4.7933 -1.5249  0.5392
  423MOL0     H57051   9.268   3.851   0.950 -1.5834 -3.8505 -1.0126
  423MOL0     H57052   9.080   3.733   1.075 -2.4892  2.8225 -2.2822
  423MOL0     H57053   9.137   3.796   1.233  2.3324 -0.8017 -0.6948
  423MOL0     H57054   8.928   3.886   1.146  2.0597 -0.0047  1.0496
  423MOL0     H57055   9.014   3.941   0.996 -0.8306  0.3223 -1.4405
  423MOL0     H57056   9.180   4.152   1.030  3.7148  1.8913  2.4790
  423MOL0     H57057   9.187   4.414   1.286 -0.2330  3.2972 -1.5987
  423MOL0     H57058   9.272   4.357   1.145 -0.6729  1.7712 -3.1227
  423MOL0     H57059   8.996   4.486   1.115  0.1724 -0.3859  0.1508
  423MOL0     H57060   9.110   4.430   0.991 -0.5173 -1.3490 -0.0502
  423MOL0     H57061   9.284   4.583   1.082  0.3394 -0.3028  4.5748
  423MOL0     H57062   9.176   4.645   1.209  3.3598  3.5492 -0.6372
  423MOL0     H57063   9.155   4.701   0.908 -3.4378  2.3288 -1.8158
  423MOL0     H57064   9.127   4.812   1.043 -0.0465 -1.1465  2.1860
  423MOL0     H57065   9.067   4.931   0.849 -0.4436 -0.3267  2.9373
  423MOL0     H57066   8.987   5.176   0.738 -0.2314  0.1824 -0.5938
  423MOL0     H57067   9.061   5.058   0.652 -0.0293  1.8814 -0.6036
  423MOL0     H57068   8.920   5.117   0.581  1.1674  4.1196  1.7860
  423MOL0     H57069   8.333   4.950   0.486  1.5654 -1.5446  5.1114
  423MOL0     H57070   8.097   5.052   0.469 -0.0571  1.4239 -0.5250
  423MOL0     H57071   7.896   5.392   0.644  0.3871 -2.5828  1.7732
  423MOL0     H57072   8.048   5.449   0.700 -0.1067  1.4417 -0.3916
  423MOL0     H57073   8.131   5.478   0.476  0.3141 -2.4999 -0.0819
  423MOL0     H57074   7.998   5.397   0.403 -0.1486 -1.4955  1.7919
  423MOL0     H57075   8.004   5.649   0.422  1.7939 -0.6947  0.4650
  423MOL0     H57076   7.960   5.636   0.592 -1.3166 -1.9490  1.9484
  423MOL0     H57077   7.791   5.554   0.351 -3.5392 -0.2644  0.4540
  423MOL0     H57078   7.744   5.508   0.519 -1.2605  2.2799  1.6352
  423MOL0     H57079   7.632   5.714   0.422 -2.0993 -1.6184  2.3821
  423MOL0     H57080   7.798   5.788   0.461 -0.5163 -0.4372 -0.6923
  423MOL0     H57081   7.654   5.650   0.667  0.3526 -1.0785 -0.1303
  423MOL0     H57082   7.795   5.747   0.679 -1.4704  0.6107  0.8002
  423MOL0     H57083   7.523   5.849   0.610 -0.2025 -2.2892 -1.1023
  423MOL0     H57084   7.663   5.941   0.588  0.3200 -1.0773 -1.0915
  423MOL0     H57085   7.727   5.896   0.841 -1.0945 -1.4821  2.7916
  423MOL0     H57086   7.575   5.805   0.858 -0.8241 -1.3151 -0.7674
  423MOL0     H57087   8.226   5.353   0.752 -2.1856 -1.9696  0.9120
  423MOL0     H57088   8.453   5.238   0.773 -0.1309  0.6011 -0.0215
  423MOL0     H57089   8.584   4.844   0.815  1.1733  1.4767 -3.3999
  423MOL0     H57090   8.719   4.695   0.958 -1.1371 -2.1520 -2.5500
  423MOL0     H57091   9.797   3.246   1.222  1.5174  0.1731  0.8864
  423MOL0     H57092   9.862   3.044   1.304 -3.1931 -0.7905 -2.3669
  423MOL0     H57093   9.674   2.683   1.548 -1.0137 -2.4282 -0.1050
  423MOL0     H57094   9.695   2.446   1.575 -1.0789 -0.3651  2.8709
  423MOL0     H57095  10.078   2.298   1.779  0.1790 -1.0381 -0.0617
  423MOL0     H57096   9.985   2.146   1.728 -1.5081  0.4700  2.2055
  423MOL0     H57097  10.102   2.348   1.528  0.7696  0.0987 -1.5561
  423MOL0     H57098  10.057   2.184   1.494 -1.3785 -2.2790  2.9710
  423MOL0     H57099  10.265   2.170   1.487 -3.0826  0.1712 -0.3597
  423MOL0     H57100  10.253   2.114   1.646 -0.5831  0.2474  1.3349
  423MOL0     H57101  10.279   2.389   1.715 -0.4118 -2.5684  3.7124
  423MOL0     H57102  10.378   2.394   1.573  3.4432  0.1597  2.7663
  423MOL0     H57103  10.597   2.166   1.869  1.3482 -0.5199 -2.2292
  423MOL0     H57104  10.099   2.515   1.729  0.8910  2.9780  0.7773
  423MOL0     H57105  10.047   2.755   1.734  0.9344 -1.3991  0.4257
  424MOL0     O57106  10.095   0.455   6.906 -0.6834  0.6278  0.4857
  424MOL0     C57107  10.033   0.365   6.847  0.0632 -0.5823  0.3691
  424MOL0     O57108   9.937   0.289   6.893 -0.4426 -0.3484  0.3001
  424MOL0     C57109   9.916   0.300   7.029 -0.2004 -0.3798  0.0044
  424MOL0     C57110   9.815   0.368   7.080  0.0687  0.0124 -0.0262
  424MOL0     C57111   9.806   0.383   7.215 -0.0920 -0.1167 -0.0362
  424MOL0     C57112   9.890   0.316   7.311 -0.3837 -0.5189  1.1236
  424MOL0     O57113   9.882   0.342   7.446  0.2526  0.3085 -0.2669
  424MOL0     C57114   9.975   0.310   7.540  0.1267  0.4497 -0.8441
  424MOL0     C57115   9.964   0.375   7.683 -0.9142  0.5274 -0.3547
  424MOL0     C57116  10.040   0.284   7.785 -0.2595 -1.2689 -0.3814
  424MOL0     C57117  10.182   0.352   7.795  0.2558 -0.1313 -0.7395
  424MOL0     C57118  10.186   0.458   7.910 -0.0425 -0.2984 -0.5968
  424MOL0     C57119  10.303   0.548   7.890  0.2675 -0.2871 -0.6469
  424MOL0     C57120  10.314   0.648   8.010 -0.0259 -0.1695  0.3255
  424MOL0     C57121  10.434   0.745   7.995 -0.1519  0.6687 -0.7586
  424MOL0     N57122  10.447   0.822   8.116 -0.0751 -0.8336  0.2952
  424MOL0     C57123  10.557   0.824   8.195 -0.4562 -0.0110  0.0431
  424MOL0     C57124  10.528   0.916   8.288  0.4254  0.0024  0.1329
  424MOL0     C57125  10.621   0.982   8.393 -0.3853 -0.0856 -0.8133
  424MOL0     C57126  10.716   1.073   8.328  0.3167  1.0398  0.4437
  424MOL0     C57127  10.850   1.010   8.331 -0.9586  0.0998  0.1465
  424MOL0     C57128  10.945   1.105   8.265 -0.9067  0.3197 -0.0277
  424MOL0     O57129  11.074   1.045   8.254  0.1557 -0.2095  0.4600
  424MOL0     C57130  11.170   1.130   8.221  0.3730 -0.7892 -0.9779
  424MOL0     C57131  11.199   1.240   8.296  0.3720 -0.8010  0.8682
  424MOL0     C57132  11.295   1.342   8.263  1.0816 -0.0539  0.7679
  424MOL0     C57133  11.302   1.464   8.348 -0.3447 -0.8694  0.5820
  424MOL0     C57134  11.373   1.325   8.138  0.1686  0.9912 -0.2150
  424MOL0     C57135  11.476   1.421   8.090 -0.1554 -0.6807 -0.4901
  424MOL0     O57136  11.509   1.412   7.967 -0.4771  0.2658  0.1453
  424MOL0     C57137  11.600   1.500   7.912 -0.2024  0.6083  0.6865
  424MOL0     C57138  11.559   1.630   7.867  0.9731 -0.8949  0.0142
  424MOL0     C57139  11.646   1.718   7.809  0.4707 -0.3917 -0.5437
  424MOL0     C57140  11.776   1.670   7.783 -0.6231 -0.6866  1.3692
  424MOL0     O57141  11.871   1.764   7.742 -0.0739 -0.1593  0.3061
  424MOL0     C57142  11.946   1.824   7.850  0.3862 -0.2488 -0.2221
  424MOL0     C57143  12.088   1.857   7.810 -0.2234  0.5410  0.5389
  424MOL0     C57144  12.166   1.729   7.790  0.2192 -0.4285  0.7584
  424MOL0     C57145  12.164   1.683   7.646  0.8717 -0.7970  0.9620
  424MOL0     C57146  12.246   1.561   7.606 -0.2820 -0.4495  0.3775
  424MOL0     C57147  12.217   1.442   7.687  0.2954 -0.2418 -0.7776
  424MOL0     C57148  12.280   1.317   7.628  0.7051  0.2703  0.3310
  424MOL0     C57149  12.230   1.192   7.705 -0.7783 -0.2951 -0.9117
  424MOL0    Cl57150  12.267   1.046   7.617 -0.1038 -0.1974  0.2576
  424MOL0     C57151  11.817   1.536   7.804  0.1681 -0.6613 -1.1184
  424MOL0     C57152  11.726   1.452   7.875  0.9311  0.5027 -0.3221
  424MOL0     O57153  11.521   1.505   8.170 -0.0611 -0.6082 -0.0494
  424MOL0     C57154  11.345   1.207   8.071  0.0904  0.2059  0.3786
  424MOL0     C57155  11.240   1.119   8.107 -0.4230 -0.2716  0.2761
  424MOL0     N57156  10.401   0.956   8.263 -0.3350  0.3964  0.1177
  424MOL0     N57157  10.352   0.906   8.153 -0.4692 -0.7929  0.2283
  424MOL0     C57158   9.985   0.234   7.260 -0.1484 -0.9043 -0.4661
  424MOL0     C57159  10.001   0.234   7.117  0.2959  0.1410 -0.8750
  424MOL0     C57160  10.070   0.336   6.699  0.0213 -0.9009  0.3365
  424MOL0     C57161   9.997   0.260   6.612 -0.0909  0.7188 -0.1856
  424MOL0     C57162  10.038   0.252   6.473 -0.2501  0.1560 -0.7413
  424MOL0     C57163  10.154   0.315   6.421 -0.9894  0.1002 -0.6613
  424MOL0     O57164  10.179   0.320   6.283  0.7280  0.2983 -0.3235
  424MOL0     C57165  10.253   0.415   6.228 -0.0343 -0.1228 -0.2600
  424MOL0     C57166  10.283   0.370   6.078 -0.0458  0.8826 -0.0145
  424MOL0     C57167  10.401   0.453   6.013  0.3158  0.2220 -0.1058
  424MOL0     C57168  10.395   0.442   5.866 -0.3996 -0.0613  0.3484
  424MOL0     C57169  10.477   0.545   5.798  0.2844  0.1970  0.0393
  424MOL0     C57170  10.544   0.622   5.741 -0.6824  0.3119 -0.5263
  424MOL0     C57171  10.229   0.382   6.514  0.2452 -0.2765  0.0525
  424MOL0     C57172  10.189   0.397   6.650 -0.4569 -1.0993  0.8006
  424MOL0     H57173   9.750   0.417   7.009  2.5240  0.7384 -1.9384
  424MOL0     H57174   9.729   0.446   7.258 -1.2042 -0.8161 -0.9443
  424MOL0     H57175   9.975   0.201   7.549  1.7931  0.5114  0.3120
  424MOL0     H57176  10.068   0.350   7.500 -1.6647  1.6584 -4.2431
  424MOL0     H57177  10.001   0.477   7.672 -2.7072  1.0365 -2.8252
  424MOL0     H57178   9.857   0.373   7.706 -1.3026  0.9477 -1.9533
  424MOL0     H57179  10.002   0.280   7.887 -2.8615 -0.3934 -1.2250
  424MOL0     H57180  10.051   0.184   7.741  1.2422 -1.1714 -0.2769
  424MOL0     H57181  10.250   0.272   7.827  0.7338  0.3924 -0.4319
  424MOL0     H57182  10.222   0.393   7.702  1.4164  0.6977  0.1024
  424MOL0     H57183  10.099   0.525   7.910  1.6285  2.0257 -0.0667
  424MOL0     H57184  10.186   0.410   8.008 -3.6868  1.3685  0.3815
  424MOL0     H57185  10.393   0.485   7.886 -0.1655 -0.9015 -0.8519
  424MOL0     H57186  10.286   0.599   7.795  2.0728 -1.8955 -1.9278
  424MOL0     H57187  10.222   0.707   8.017  0.0286  0.0394 -0.5756
  424MOL0     H57188  10.334   0.589   8.100  2.5967 -2.3008 -1.5049
  424MOL0     H57189  10.414   0.810   7.909 -0.8654  0.2245 -0.9398
  424MOL0     H57190  10.520   0.681   7.975 -0.3653  0.4680 -1.0398
  424MOL0     H57191  10.650   0.769   8.190  1.0433  1.1251  6.2490
  424MOL0     H57192  10.570   1.052   8.460  1.2132  0.6795 -0.3698
  424MOL0     H57193  10.664   0.896   8.446 -3.2171 -0.2925  1.3740
  424MOL0     H57194  10.717   1.155   8.401 -0.3492  1.4138  0.0356
  424MOL0     H57195  10.682   1.111   8.231 -0.4366 -0.3529  0.1400
  424MOL0     H57196  10.856   0.914   8.278  0.1310 -0.1749  0.7402
  424MOL0     H57197  10.889   0.999   8.432 -0.2074  0.7931 -0.0605
  424MOL0     H57198  10.946   1.188   8.336 -0.8653 -0.3644  0.7907
  424MOL0     H57199  10.910   1.125   8.163 -3.5725  1.8573  1.0928
  424MOL0     H57200  11.132   1.261   8.379 -2.4820 -1.7017 -1.0598
  424MOL0     H57201  11.405   1.496   8.364 -0.5867  0.2112  0.0571
  424MOL0     H57202  11.256   1.548   8.296  1.2893 -2.4895 -3.9511
  424MOL0     H57203  11.251   1.446   8.444  2.1807 -0.4574  2.0995
  424MOL0     H57204  11.461   1.675   7.879  0.9657  0.2129 -3.3465
  424MOL0     H57205  11.613   1.817   7.779  3.1715  0.4258 -1.1522
  424MOL0     H57206  11.886   1.916   7.857 -1.4012 -1.1862 -2.0733
  424MOL0     H57207  11.944   1.772   7.946 -0.6592  2.7634  1.5295
  424MOL0     H57208  12.077   1.923   7.723 -2.8441 -1.4312 -0.7690
  424MOL0     H57209  12.142   1.910   7.889 -0.5366 -4.1496  4.3155
  424MOL0     H57210  12.119   1.654   7.854  1.8440 -0.4931  1.9365
  424MOL0     H57211  12.269   1.732   7.827 -0.1128 -1.3122  1.7914
  424MOL0     H57212  12.064   1.649   7.619  0.1821  0.2867  2.0654
  424MOL0     H57213  12.195   1.773   7.592 -3.4157  1.2634  1.5248
  424MOL0     H57214  12.351   1.591   7.615 -0.9828  2.2986  0.4490
  424MOL0     H57215  12.231   1.537   7.500  0.3551  1.7000 -0.2602
  424MOL0     H57216  12.259   1.458   7.786  0.9711  2.5467 -1.4378
  424MOL0     H57217  12.110   1.418   7.693  0.1831  0.1788 -1.0584
  424MOL0     H57218  12.388   1.303   7.638  0.5173 -2.0065 -0.1416
  424MOL0     H57219  12.261   1.303   7.521  0.7356  0.4955  0.2972
  424MOL0     H57220  12.121   1.199   7.718 -0.5518  2.0163  0.3075
  424MOL0     H57221  12.274   1.188   7.805 -0.4450 -1.2722 -1.0892
  424MOL0     H57222  11.918   1.507   7.779  0.8684  0.9961 -0.3730
  424MOL0     H57223  11.763   1.356   7.909  1.0993  1.1316  1.3386
  424MOL0     H57224  11.402   1.172   7.986 -1.3547 -2.9960  0.6004
  424MOL0     H57225  11.217   1.025   8.059 -0.7372 -0.6890  1.2219
  424MOL0     H57226  10.044   0.171   7.326  0.8179  1.4383  1.0724
  424MOL0     H57227  10.078   0.163   7.087 -0.3246 -1.5664  1.3064
  424MOL0     H57228   9.912   0.202   6.645  1.9829 -3.5137 -1.4676
  424MOL0     H57229   9.973   0.197   6.406 -1.8373 -0.7461  1.4270
  424MOL0     H57230  10.200   0.510   6.227  0.6675  0.3187 -2.9129
  424MOL0     H57231  10.351   0.423   6.278 -0.7524  2.0424  0.9049
  424MOL0     H57232  10.189   0.390   6.025 -0.6512  3.1463  1.7559
  424MOL0     H57233  10.315   0.265   6.075 -1.0859  0.5566 -0.1042
  424MOL0     H57234  10.494   0.402   6.041 -1.1499 -1.2592  2.3941
  424MOL0     H57235  10.393   0.552   6.059  0.5511 -0.0677  0.5669
  424MOL0     H57236  10.294   0.450   5.823 -0.6017 -1.1415  0.5944
  424MOL0     H57237  10.432   0.343   5.836  1.6364  0.9319 -0.6239
  424MOL0     H57238  10.596   0.692   5.679 -2.5898  0.6852 -1.8210
  424MOL0     H57239  10.320   0.433   6.483  1.1496 -0.1666  2.6757
  424MOL0     H57240  10.254   0.458   6.711  1.5368 -1.9085 -0.4050
  425MOL0     O57241   9.190   1.785   8.306 -0.2718 -0.2290 -0.6803
  425MOL0     C57242   9.145   1.835   8.204  0.9223 -0.3091  0.5563
  425MOL0     O57243   9.019   1.806   8.157  0.6428  0.2152  0.4750
  425MOL0     C57244   8.936   1.703   8.219 -0.0798  0.3008  0.5019
  425MOL0     C57245   8.939   1.663   8.357 -0.0526 -0.9005 -0.2814
  425MOL0     C57246   8.849   1.571   8.415 -1.1863  0.0694 -0.7012
  425MOL0     C57247   8.742   1.532   8.331  0.4521  0.0945  0.1754
  425MOL0     O57248   8.635   1.455   8.376  0.8637 -0.7427  0.0027
  425MOL0     C57249   8.636   1.407   8.508  0.6315  0.8773 -0.0429
  425MOL0     C57250   8.544   1.287   8.520 -0.9084 -1.2619  0.2456
  425MOL0     C57251   8.592   1.172   8.437  0.7047 -0.4407  0.1737
  425MOL0     C57252   8.511   1.046   8.456  0.8256 -0.1386 -0.1374
  425MOL0     C57253   8.583   0.932   8.389 -0.1525  0.5417 -0.5858
  425MOL0     C57254   8.538   0.794   8.433  0.1831  0.3435  0.5827
  425MOL0     C57255   8.601   0.675   8.364 -0.3285  0.7920 -0.8261
  425MOL0     C57256   8.521   0.549   8.364  0.0004 -0.4837  0.3446
  425MOL0     N57257   8.421   0.537   8.252  0.2911 -0.0761  0.4516
  425MOL0     C57258   8.441   0.503   8.116  1.2993  0.5024 -0.6967
  425MOL0     C57259   8.314   0.527   8.070 -0.1963  0.2742  0.2702
  425MOL0     C57260   8.287   0.506   7.922 -0.7036 -0.0641 -0.1189
  425MOL0     C57261   8.344   0.609   7.826  1.4222  0.2206  0.6923
  425MOL0     C57262   8.259   0.736   7.844 -0.0730 -0.1155  0.2707
  425MOL0     C57263   8.314   0.851   7.771  0.3941 -1.5203  0.7279
  425MOL0     O57264   8.438   0.886   7.836 -1.2912  0.2444  0.4374
  425MOL0     C57265   8.509   0.995   7.808 -0.2562 -0.3626  0.3333
  425MOL0     C57266   8.618   1.021   7.886 -0.4550  0.5392  0.7866
  425MOL0     C57267   8.689   1.143   7.880 -0.9708  0.1980 -0.5803
  425MOL0     C57268   8.814   1.159   7.970  0.4114  0.2233  0.7302
  425MOL0     C57269   8.652   1.238   7.777  0.6764  0.1029  0.4510
  425MOL0     C57270   8.699   1.377   7.768 -0.2052 -0.3861  1.7409
  425MOL0     O57271   8.665   1.447   7.653  0.2983  0.6848  0.2529
  425MOL0     C57272   8.713   1.575   7.629  0.0475  0.7820  0.4759
  425MOL0     C57273   8.776   1.584   7.508  0.8038  1.3229 -0.6107
  425MOL0     C57274   8.821   1.714   7.478 -0.9548  0.3274 -0.2411
  425MOL0     C57275   8.821   1.831   7.555  0.6368  0.7693  0.0296
  425MOL0     O57276   8.882   1.943   7.508 -0.1377  0.3208  0.6753
  425MOL0     C57277   8.865   2.074   7.560  1.1300  0.1746 -0.0171
  425MOL0     C57278   8.759   2.150   7.486  0.3930  0.5594  0.0273
  425MOL0     C57279   8.787   2.169   7.337 -1.0728 -0.0981  0.1960
  425MOL0     C57280   8.915   2.245   7.305 -0.0301 -0.7618 -0.8256
  425MOL0     C57281   8.940   2.267   7.150  0.0289  0.7411 -1.2605
  425MOL0     C57282   8.841   2.347   7.079 -0.1264  0.2519 -0.3774
  425MOL0     C57283   8.862   2.386   6.933 -0.1441  0.9167  0.0716
  425MOL0     C57284   8.997   2.446   6.910  0.2448 -0.6466  0.8387
  425MOL0    Cl57285   9.022   2.593   7.009 -0.6983  0.5851 -0.6019
  425MOL0     C57286   8.761   1.810   7.683 -0.0772 -0.5056  0.5522
  425MOL0     C57287   8.694   1.684   7.712 -0.2358 -0.6645 -0.5037
  425MOL0     O57288   8.755   1.421   7.865 -0.4934 -0.0273  0.2917
  425MOL0     C57289   8.550   1.198   7.686 -0.7745 -0.3711  0.4111
  425MOL0     C57290   8.477   1.082   7.703 -0.8118  0.3236  0.4665
  425MOL0     N57291   8.220   0.558   8.171  0.0331 -0.2412  0.0410
  425MOL0     N57292   8.295   0.571   8.272  0.0026 -0.3740 -0.1110
  425MOL0     C57293   8.725   1.569   8.201 -0.2691  0.1155  0.5387
  425MOL0     C57294   8.822   1.661   8.139 -0.4890 -0.4181 -0.2418
  425MOL0     C57295   9.216   1.950   8.132 -0.1702 -0.3515  0.6029
  425MOL0     C57296   9.176   1.982   7.996 -0.0267  0.3275 -0.8036
  425MOL0     C57297   9.241   2.084   7.926  0.2714  0.4891  0.4033
  425MOL0     C57298   9.340   2.150   7.986 -1.2819 -1.3052 -0.5029
  425MOL0     O57299   9.402   2.255   7.913 -0.1320  0.8604 -0.2718
  425MOL0     C57300   9.492   2.340   7.987  0.8077  0.1929 -0.9712
  425MOL0     C57301   9.517   2.481   7.917  0.5166 -0.4878 -0.8504
  425MOL0     C57302   9.577   2.459   7.776 -1.1129  0.2470 -0.1734
  425MOL0     C57303   9.661   2.588   7.728  0.7653  0.3676  1.5650
  425MOL0     C57304   9.568   2.706   7.700  0.2959  0.5144 -0.1335
  425MOL0     C57305   9.509   2.800   7.670  0.8686 -0.1368  0.8258
  425MOL0     C57306   9.380   2.120   8.112 -0.6343  0.7199 -0.6682
  425MOL0     C57307   9.320   2.019   8.188 -0.5342 -0.4431 -0.2949
  425MOL0     H57308   9.004   1.726   8.416 -1.8930  0.7616  0.0882
  425MOL0     H57309   8.852   1.550   8.521 -0.5282  0.1035 -0.7095
  425MOL0     H57310   8.736   1.372   8.535  0.1843 -1.0947 -0.7591
  425MOL0     H57311   8.598   1.480   8.580 -0.5824  0.7898 -0.5692
  425MOL0     H57312   8.519   1.260   8.623  0.6919 -2.3626  0.3762
  425MOL0     H57313   8.449   1.321   8.479 -0.4705  0.2660  0.4473
  425MOL0     H57314   8.586   1.200   8.331  2.4969 -0.0668  0.1359
  425MOL0     H57315   8.698   1.158   8.462  0.2863 -0.2329  2.2617
  425MOL0     H57316   8.501   1.009   8.558  2.8419 -3.0961 -0.8633
  425MOL0     H57317   8.411   1.060   8.415  0.7896 -0.6825 -0.2467
  425MOL0     H57318   8.580   0.939   8.280  1.5248 -0.8245 -0.7649
  425MOL0     H57319   8.692   0.940   8.402 -0.4530  3.9834  0.7404
  425MOL0     H57320   8.568   0.789   8.539  2.9547 -0.5999 -0.1651
  425MOL0     H57321   8.430   0.785   8.423 -0.0667  1.3489  1.9677
  425MOL0     H57322   8.609   0.715   8.263 -0.8086 -0.4202 -1.3720
  425MOL0     H57323   8.704   0.658   8.396 -0.1993 -2.5203 -2.5436
  425MOL0     H57324   8.483   0.553   8.467  4.1639 -1.6096  2.1179
  425MOL0     H57325   8.591   0.466   8.355  1.8039  1.1653 -1.7558
  425MOL0     H57326   8.515   0.455   8.054  1.1332 -0.4721 -0.1633
  425MOL0     H57327   8.317   0.405   7.893  4.9903  2.1718 -3.7920
  425MOL0     H57328   8.179   0.497   7.907 -0.3212 -1.7786 -2.5326
  425MOL0     H57329   8.324   0.583   7.722 -0.2875  0.6753  0.8838
  425MOL0     H57330   8.450   0.623   7.848  2.0313 -3.1076  0.3752
  425MOL0     H57331   8.237   0.772   7.945 -2.2222  0.7226 -0.4484
  425MOL0     H57332   8.158   0.710   7.813 -0.6697  1.3567  0.8605
  425MOL0     H57333   8.251   0.940   7.774  0.6104 -1.3903  2.7456
  425MOL0     H57334   8.325   0.821   7.666 -0.2351 -1.9400  0.7762
  425MOL0     H57335   8.638   0.941   7.958 -4.7097 -2.0006 -0.5199
  425MOL0     H57336   8.843   1.067   8.021  1.1811  0.8227  1.3956
  425MOL0     H57337   8.904   1.184   7.913  1.0052 -0.8135  1.1971
  425MOL0     H57338   8.782   1.236   8.041 -3.3470 -1.8187  1.5173
  425MOL0     H57339   8.793   1.499   7.442  1.3442  1.4971 -0.7017
  425MOL0     H57340   8.880   1.717   7.387 -1.2430 -2.0909 -0.5741
  425MOL0     H57341   8.832   2.060   7.663 -1.5726  2.1791 -0.5256
  425MOL0     H57342   8.962   2.124   7.566  0.5909  1.1952  0.4390
  425MOL0     H57343   8.667   2.090   7.493  0.0858  0.8881 -1.0349
  425MOL0     H57344   8.754   2.245   7.540  2.4396  0.4429  0.4978
  425MOL0     H57345   8.711   2.225   7.282 -2.9694 -1.2891  1.4789
  425MOL0     H57346   8.794   2.069   7.293 -2.1901  0.2454 -0.8170
  425MOL0     H57347   8.912   2.347   7.345  2.5401 -0.3343 -1.5891
  425MOL0     H57348   9.003   2.191   7.340 -1.0399 -0.5992  2.2878
  425MOL0     H57349   8.952   2.172   7.097  1.6492  0.8203 -1.0743
  425MOL0     H57350   9.037   2.318   7.152 -0.7710  2.4989  2.9381
  425MOL0     H57351   8.749   2.288   7.076  0.8197 -1.3188  0.4569
  425MOL0     H57352   8.815   2.438   7.134  1.2709  0.6476 -0.3324
  425MOL0     H57353   8.788   2.462   6.903 -1.4763 -0.0268  0.8528
  425MOL0     H57354   8.840   2.303   6.865  2.1266 -0.4327  0.8961
  425MOL0     H57355   8.995   2.485   6.808 -0.0454 -2.0644  0.2742
  425MOL0     H57356   9.078   2.373   6.910 -0.5069 -1.5483 -1.2362
  425MOL0     H57357   8.777   1.877   7.767  1.2584 -1.5471  1.1631
  425MOL0     H57358   8.644   1.662   7.806  0.9746  1.4474  0.7310
  425MOL0     H57359   8.536   1.257   7.597  1.8193 -0.5635 -0.2094
  425MOL0     H57360   8.393   1.070   7.636  2.3058  0.4888 -3.8211
  425MOL0     H57361   8.638   1.547   8.140  1.0854  1.1292 -1.9164
  425MOL0     H57362   8.809   1.701   8.039  1.1030  0.1447 -0.2426
  425MOL0     H57363   9.098   1.939   7.933  0.9067 -2.4062 -0.2398
  425MOL0     H57364   9.199   2.120   7.833  0.3486  1.4390  0.7241
  425MOL0     H57365   9.446   2.366   8.082 -0.4667  1.8509 -1.9830
  425MOL0     H57366   9.584   2.285   8.010  1.2667  0.4366 -2.1360
  425MOL0     H57367   9.590   2.540   7.973  2.3632 -2.1538 -1.3732
  425MOL0     H57368   9.428   2.543   7.903  0.8803 -0.2262 -2.2237
  425MOL0     H57369   9.494   2.432   7.709 -2.1004  2.3924  0.0748
  425MOL0     H57370   9.648   2.377   7.781  0.0340  0.9640 -2.8080
  425MOL0     H57371   9.716   2.569   7.635 -1.5825  1.0204 -0.0521
  425MOL0     H57372   9.730   2.624   7.804  2.6512  2.1004 -0.7994
  425MOL0     H57373   9.444   2.885   7.668  0.6269 -0.3238  0.6439
  425MOL0     H57374   9.461   2.171   8.163  2.0551 -3.3484 -0.4385
  425MOL0     H57375   9.357   1.996   8.287 -1.4485 -2.0270 -0.2846
  426MOL0     O57376   5.720   1.811   9.916 -0.5965 -0.1803 -0.3308
  426MOL0     C57377   5.655   1.795   9.809  0.4622 -0.2429 -0.1466
  426MOL0     O57378   5.544   1.722   9.794  0.3068  0.2044 -0.0436
  426MOL0     C57379   5.502   1.627   9.886  0.3965 -0.7954 -0.0842
  426MOL0     C57380   5.459   1.508   9.840  0.6030  0.1735 -0.7218
  426MOL0     C57381   5.424   1.407   9.935  0.3284  0.7401 -0.7290
  426MOL0     C57382   5.421   1.432  10.081 -0.2373  1.5180 -0.1800
  426MOL0     O57383   5.377   1.351  10.180 -0.1390  0.3398 -0.3077
  426MOL0     C57384   5.268   1.267  10.149 -0.2108 -0.3476 -0.4761
  426MOL0     C57385   5.338   1.126  10.125 -0.3413  0.8763 -0.4051
  426MOL0     C57386   5.222   1.020  10.093  0.3191 -0.0749 -0.0730
  426MOL0     C57387   5.263   0.894  10.010 -0.5466 -0.2325 -0.3737
  426MOL0     C57388   5.148   0.785  10.010 -1.3630 -0.0370 -1.2377
  426MOL0     C57389   5.095   0.754  10.150  0.1190  0.5237  0.0394
  426MOL0     C57390   4.987   0.633  10.147 -0.6232 -0.3457 -0.0355
  426MOL0     C57391   4.885   0.645  10.032  0.0034  0.1265 -0.0312
  426MOL0     N57392   4.825   0.781  10.027  0.0727 -0.4540 -0.0829
  426MOL0     C57393   4.756   0.835  10.135  0.8644  0.7876 -0.2689
  426MOL0     C57394   4.705   0.952  10.085  0.5980 -0.2606  0.1751
  426MOL0     C57395   4.621   1.053  10.158 -0.3995  0.3296  0.4364
  426MOL0     C57396   4.708   1.172  10.197 -1.0844 -0.0605  0.1982
  426MOL0     C57397   4.632   1.293  10.248 -0.4522  0.2212 -0.4734
  426MOL0     C57398   4.664   1.419  10.175 -0.0466  0.3997 -0.3452
  426MOL0     O57399   4.645   1.538  10.252  0.0005 -0.1738  0.0244
  426MOL0     C57400   4.690   1.651  10.191 -0.2920 -1.1441 -0.8154
  426MOL0     C57401   4.729   1.756  10.282  0.4479  0.6887  0.1183
  426MOL0     C57402   4.771   1.882  10.230  0.2100  0.8233 -0.7197
  426MOL0     C57403   4.816   1.983  10.334  0.3820 -0.5104 -0.9482
  426MOL0     C57404   4.768   1.896  10.092  0.3910 -0.0753  1.0682
  426MOL0     C57405   4.797   2.030  10.028  0.6199  0.2853 -1.0487
  426MOL0     O57406   4.697   2.076   9.939 -0.1699  0.3816  0.0613
  426MOL0     C57407   4.720   2.194   9.876 -0.7387  1.0468  0.7972
  426MOL0     C57408   4.841   2.218   9.802 -1.0976  1.0437  0.2175
  426MOL0     C57409   4.860   2.335   9.735 -0.5892 -1.0142 -0.2676
  426MOL0     C57410   4.760   2.437   9.730 -0.3513  0.5514 -0.3794
  426MOL0     O57411   4.790   2.545   9.660  0.2654  0.2572  0.4205
  426MOL0     C57412   4.729   2.669   9.697 -0.6727 -0.7134  0.1044
  426MOL0     C57413   4.809   2.783   9.627  0.0565  0.5048  0.0278
  426MOL0     C57414   4.937   2.830   9.694  0.0083 -0.5931 -0.4803
  426MOL0     C57415   5.004   2.949   9.598 -0.5589  0.0742  0.0468
  426MOL0     C57416   5.133   2.998   9.656  0.5128 -0.5362  0.3451
  426MOL0     C57417   5.188   3.132   9.588  0.1589  0.5215  0.4508
  426MOL0     C57418   5.102   3.250   9.591 -0.4208 -0.8026  0.6065
  426MOL0     C57419   5.175   3.369   9.521 -0.2757 -0.4302 -0.2085
  426MOL0    Cl57420   5.090   3.519   9.575  0.3055 -0.3014  0.2084
  426MOL0     C57421   4.655   2.410   9.805 -0.6392 -0.4615 -0.6752
  426MOL0     C57422   4.623   2.295   9.880 -0.0472  0.6393 -0.1430
  426MOL0     O57423   4.891   2.098  10.069 -0.5450  1.6590  0.8438
  426MOL0     C57424   4.719   1.801  10.003 -0.1475 -0.5181  0.2157
  426MOL0     C57425   4.689   1.674  10.050 -0.0535 -0.3084 -0.2011
  426MOL0     N57426   4.755   0.967   9.958  0.1258  0.4593  0.0013
  426MOL0     N57427   4.817   0.858   9.921  0.5274 -0.2782  0.2183
  426MOL0     C57428   5.474   1.550  10.127  0.3903  0.5674  0.1499
  426MOL0     C57429   5.506   1.645  10.031 -0.9366  0.2363  0.5829
  426MOL0     C57430   5.708   1.862   9.688  0.0695  0.2240 -0.0713
  426MOL0     C57431   5.797   1.970   9.695 -0.7402 -0.4405  0.7216
  426MOL0     C57432   5.855   2.021   9.578  0.1232 -0.3947  0.4705
  426MOL0     C57433   5.834   1.955   9.459 -0.0107 -0.4821  0.3821
  426MOL0     O57434   5.885   1.995   9.332  0.8820  0.5579 -0.5046
  426MOL0     C57435   5.998   2.090   9.328  0.2125  0.6483  0.7470
  426MOL0     C57436   5.999   2.136   9.177 -0.3705 -0.2641 -0.7610
  426MOL0     C57437   6.016   2.017   9.080 -0.3296  0.3817 -0.1636
  426MOL0     C57438   6.049   2.070   8.940 -0.7991  0.1043  0.0953
  426MOL0     C57439   6.035   1.970   8.830  0.7518 -0.6370 -0.8431
  426MOL0     C57440   6.000   1.902   8.738  0.2148  0.0897  0.2389
  426MOL0     C57441   5.741   1.860   9.452  0.3932 -0.4020 -0.2599
  426MOL0     C57442   5.667   1.817   9.568  0.7681 -0.2396 -0.9553
  426MOL0     H57443   5.455   1.481   9.735  2.3704 -1.3036 -0.4649
  426MOL0     H57444   5.404   1.306   9.903  3.5958  0.4546 -2.3677
  426MOL0     H57445   5.196   1.265  10.231 -2.6816 -0.2440 -2.5169
  426MOL0     H57446   5.204   1.302  10.067 -0.6808  0.1716  0.1038
  426MOL0     H57447   5.396   1.130  10.033 -0.9165 -2.6228 -1.0632
  426MOL0     H57448   5.411   1.104  10.203  0.6157  5.5106  0.2874
  426MOL0     H57449   5.192   0.981  10.190 -0.8432 -2.4592 -1.2829
  426MOL0     H57450   5.131   1.071  10.058 -0.2086 -1.5124 -0.9189
  426MOL0     H57451   5.270   0.930   9.907 -0.9118 -0.4331 -0.4729
  426MOL0     H57452   5.359   0.861  10.050 -1.6591 -2.7714  0.4435
  426MOL0     H57453   5.069   0.827   9.948 -1.9725  3.2800  1.4941
  426MOL0     H57454   5.180   0.687   9.972 -0.8688 -0.4590  0.2049
  426MOL0     H57455   5.175   0.729  10.219 -1.5096 -1.3392  1.3654
  426MOL0     H57456   5.041   0.840  10.190  2.4656  2.0695  0.0985
  426MOL0     H57457   5.037   0.539  10.121 -2.8354 -1.3765 -0.8437
  426MOL0     H57458   4.933   0.629  10.242  1.3941  1.9361  1.3006
  426MOL0     H57459   4.801   0.576  10.040  0.0624 -0.1174 -1.3817
  426MOL0     H57460   4.938   0.629   9.938 -0.5821  2.7356 -0.8830
  426MOL0     H57461   4.741   0.797  10.235  1.1346 -3.1324 -1.5284
  426MOL0     H57462   4.530   1.080  10.104  0.8488 -0.1035 -2.0163
  426MOL0     H57463   4.582   1.009  10.251  0.8307 -0.3288  0.6684
  426MOL0     H57464   4.748   1.210  10.103 -1.3972  2.4419  1.0048
  426MOL0     H57465   4.794   1.137  10.255 -1.7053  3.4343  3.6572
  426MOL0     H57466   4.664   1.317  10.350  1.7948  2.1164 -1.5252
  426MOL0     H57467   4.524   1.276  10.250 -0.1038 -2.4674  1.8697
  426MOL0     H57468   4.601   1.420  10.085 -1.3433  0.3445  0.5270
  426MOL0     H57469   4.770   1.418  10.149  0.3684  2.0414  1.1285
  426MOL0     H57470   4.728   1.742  10.390  5.2482  1.3507  0.4400
  426MOL0     H57471   4.924   1.987  10.317  0.2102 -2.3066 -2.8890
  426MOL0     H57472   4.771   2.081  10.316 -1.0756 -1.1414 -0.9035
  426MOL0     H57473   4.788   1.951  10.435 -3.0282  3.5822 -0.3174
  426MOL0     H57474   4.924   2.149   9.808 -1.4397  0.6166  0.1132
  426MOL0     H57475   4.953   2.350   9.681 -0.8957  0.2778 -0.4596
  426MOL0     H57476   4.631   2.686   9.650  0.2430  5.2492 -0.4280
  426MOL0     H57477   4.731   2.689   9.805  0.7991  0.0092 -0.0376
  426MOL0     H57478   4.835   2.751   9.526  0.7876  1.3753 -0.0729
  426MOL0     H57479   4.750   2.875   9.617  0.3120  0.4310 -3.2591
  426MOL0     H57480   5.004   2.745   9.711 -1.2090 -1.4929 -0.0948
  426MOL0     H57481   4.912   2.873   9.791 -2.9904 -1.1825 -0.9156
  426MOL0     H57482   5.028   2.912   9.497  0.3502 -0.6950  0.5276
  426MOL0     H57483   4.933   3.030   9.584 -0.6340  0.0509  0.2908
  426MOL0     H57484   5.200   2.913   9.641  1.1268  0.0630 -0.3933
  426MOL0     H57485   5.116   3.015   9.763  1.6415 -0.4802  0.5355
  426MOL0     H57486   5.284   3.152   9.636  0.4461  1.2312 -0.3862
  426MOL0     H57487   5.219   3.102   9.487  3.2947  0.4689  1.3251
  426MOL0     H57488   5.091   3.277   9.697 -0.1325 -4.2140  1.6322
  426MOL0     H57489   5.007   3.239   9.539 -0.3072  0.0214  0.2144
  426MOL0     H57490   5.177   3.347   9.414  2.3026 -2.4672  0.1432
  426MOL0     H57491   5.281   3.384   9.544 -0.3628 -1.4207  0.9929
  426MOL0     H57492   4.580   2.488   9.807 -0.0336  0.1224 -0.2933
  426MOL0     H57493   4.535   2.289   9.944 -0.0113  4.2057  0.4537
  426MOL0     H57494   4.708   1.814   9.896 -0.6562 -2.1242  0.0478
  426MOL0     H57495   4.660   1.609   9.967 -0.1843 -0.7292  0.1707
  426MOL0     H57496   5.481   1.578  10.231 -0.0145 -0.3509  0.4286
  426MOL0     H57497   5.541   1.741  10.068  0.7809  0.3660 -1.1998
  426MOL0     H57498   5.816   2.010   9.794 -1.8680 -0.8834  1.1284
  426MOL0     H57499   5.921   2.107   9.574 -1.2300  0.6467 -0.3627
  426MOL0     H57500   5.975   2.177   9.389 -1.3413  0.1154  0.9477
  426MOL0     H57501   6.091   2.047   9.369 -0.1126  0.5730  1.4130
  426MOL0     H57502   6.076   2.213   9.173 -0.3582 -0.3133 -1.6281
  426MOL0     H57503   5.902   2.185   9.169  0.3580  1.7419  1.6193
  426MOL0     H57504   5.926   1.956   9.069  1.3911 -2.2836 -0.2417
  426MOL0     H57505   6.108   1.966   9.110  1.1343  3.9305  1.9710
  426MOL0     H57506   6.149   2.115   8.942  0.2994 -2.0917  3.9388
  426MOL0     H57507   5.972   2.141   8.909 -0.8567  0.0689  0.1577
  426MOL0     H57508   5.946   1.840   8.668  4.7673  0.3093 -3.9728
  426MOL0     H57509   5.714   1.806   9.362  2.3263 -0.4819 -0.8370
  426MOL0     H57510   5.589   1.744   9.550  2.4080 -1.7103 -2.4631
  427MOL0     O57511   0.931   9.771   9.024 -0.0680 -0.3652  0.0305
  427MOL0     C57512   0.943   9.846   8.931  0.1426 -0.6811  0.3723
  427MOL0     O57513   0.860   9.942   8.907  0.0541 -1.1114  0.3209
  427MOL0     C57514   0.769   9.988   9.003  0.3268  1.1364  0.2392
  427MOL0     C57515   0.661   9.908   9.048 -0.5284 -0.2884  0.3626
  427MOL0     C57516   0.564   9.971   9.137 -0.6044  0.0452 -0.4319
  427MOL0     C57517   0.565  10.108   9.165 -0.4427  0.7537  0.6887
  427MOL0     O57518   0.447  10.147   9.220 -0.0601  0.0726 -0.0394
  427MOL0     C57519   0.440  10.290   9.236  0.9960  0.9794  0.0560
  427MOL0     C57520   0.307  10.328   9.301 -0.1005 -1.0939 -0.7410
  427MOL0     C57521   0.276  10.483   9.339  0.5164  0.3107 -0.0913
  427MOL0     C57522   0.190  10.484   9.465 -1.1020 -0.2163 -0.0102
  427MOL0     C57523   0.143  10.622   9.518 -0.0929 -0.0781  0.5545
  427MOL0     C57524   0.030  10.679   9.425 -0.8140  0.1835  0.2806
  427MOL0     C57525   0.008  10.826   9.453 -0.7366 -0.3320  0.7258
  427MOL0     C57526  -0.094  10.842   9.565 -0.1108  0.0689  0.3385
  427MOL0     N57527  -0.141  10.980   9.588 -0.4316  0.0124 -0.2627
  427MOL0     C57528  -0.064  11.089   9.631  0.5637 -1.0106  0.9269
  427MOL0     C57529  -0.155  11.177   9.677 -0.1260  0.2478  0.7299
  427MOL0     C57530  -0.121  11.303   9.736  0.2724  0.5285 -0.6142
  427MOL0     C57531  -0.192  11.417   9.670 -0.1989 -0.4765  0.7004
  427MOL0     C57532  -0.099  11.469   9.556 -0.4636 -0.1378 -0.2207
  427MOL0     C57533  -0.179  11.552   9.460 -0.4698  0.3227 -1.2015
  427MOL0     O57534  -0.200  11.686   9.504 -0.2565 -0.2651 -0.2797
  427MOL0     C57535  -0.289  11.773   9.442 -0.7444  1.4245  0.1707
  427MOL0     C57536  -0.342  11.885   9.506 -0.4654 -0.9663 -0.5871
  427MOL0     C57537  -0.448  11.966   9.455 -0.1872 -0.1963  0.0936
  427MOL0     C57538  -0.499  12.075   9.549  0.3502 -0.4164 -1.0612
  427MOL0     C57539  -0.513  11.933   9.331  0.4576 -0.5378  0.9914
  427MOL0     C57540  -0.640  11.987   9.269 -0.6903  0.4094  0.7620
  427MOL0     O57541  -0.712  12.080   9.330 -0.2270  0.8663 -0.3294
  427MOL0     C57542  -0.848  12.088   9.297 -0.8187 -0.0127 -0.4493
  427MOL0     C57543  -0.938  11.988   9.338 -0.2730 -0.5154  0.9937
  427MOL0     C57544  -1.069  12.001   9.305  0.2088  0.0720  1.0434
  427MOL0     C57545  -1.124  12.115   9.241 -0.1187 -0.5274  0.9395
  427MOL0     O57546  -1.255  12.132   9.201 -1.1933 -0.2546 -0.4325
  427MOL0     C57547  -1.363  12.042   9.211  0.5203 -0.1656 -0.7736
  427MOL0     C57548  -1.497  12.119   9.235 -0.0413  0.1736  0.2719
  427MOL0     C57549  -1.508  12.207   9.354  0.4231 -0.6838 -0.2313
  427MOL0     C57550  -1.638  12.290   9.354  0.2818  0.2246 -1.2309
  427MOL0     C57551  -1.653  12.421   9.427  0.3605  0.4365 -0.0977
  427MOL0     C57552  -1.770  12.516   9.380 -0.4422  0.0232  0.1966
  427MOL0     C57553  -1.811  12.629   9.480 -0.0801  0.6807 -0.6718
  427MOL0     C57554  -1.724  12.762   9.455  0.0430  0.3930 -0.6934
  427MOL0    Cl57555  -1.754  12.865   9.600 -0.0955  0.3138 -0.1242
  427MOL0     C57556  -1.035  12.216   9.209  0.0706  0.8178 -0.0781
  427MOL0     C57557  -0.901  12.204   9.241 -0.3054 -0.1575 -0.4485
  427MOL0     O57558  -0.682  11.934   9.164 -0.6560 -0.1500  0.1250
  427MOL0     C57559  -0.459  11.819   9.272 -0.8826  0.3300  1.0633
  427MOL0     C57560  -0.357  11.740   9.322  0.6316  0.1134  0.3364
  427MOL0     N57561  -0.277  11.130   9.648  0.6036 -0.0793 -0.4395
  427MOL0     N57562  -0.269  11.012   9.608 -0.5601  0.4907 -0.1244
  427MOL0     C57563   0.672  10.187   9.110  0.1741 -0.6498 -0.1095
  427MOL0     C57564   0.766  10.121   9.029 -0.0847  0.4264 -1.2592
  427MOL0     C57565   1.052   9.825   8.831 -0.0638  0.9541  0.1856
  427MOL0     C57566   1.145   9.724   8.865  0.9375  0.4866 -0.4615
  427MOL0     C57567   1.256   9.707   8.794 -0.1162  0.5948 -0.8506
  427MOL0     C57568   1.287   9.802   8.696 -0.0061  0.9674  1.0211
  427MOL0     O57569   1.406   9.771   8.632 -0.3219  0.0484  0.0100
  427MOL0     C57570   1.450   9.850   8.520  0.5793  0.3774 -0.2331
  427MOL0     C57571   1.597   9.838   8.499  0.2423  0.1831 -0.0530
  427MOL0     C57572   1.642   9.705   8.443 -0.8813 -0.3747 -0.2046
  427MOL0     C57573   1.633   9.690   8.286  0.2500  0.3182  0.4934
  427MOL0     C57574   1.716   9.780   8.201  1.6115  0.0091  0.4903
  427MOL0     C57575   1.783   9.859   8.153 -0.7248 -0.6775 -0.4669
  427MOL0     C57576   1.197   9.900   8.652 -0.3371  0.0409 -0.1432
  427MOL0     C57577   1.077   9.910   8.718 -0.5162 -0.2172  0.0335
  427MOL0     H57578   0.643   9.804   9.023  1.6440 -0.8474  0.9913
  427MOL0     H57579   0.478   9.910   9.163 -0.6142 -1.3384 -3.2819
  427MOL0     H57580   0.529  10.317   9.293  2.1667 -3.4705  0.7320
  427MOL0     H57581   0.443  10.340   9.139  2.4610 -3.0781 -2.2710
  427MOL0     H57582   0.217  10.282   9.261  0.4020 -2.1021 -0.7318
  427MOL0     H57583   0.317  10.275   9.396 -2.8358  0.1458  0.3608
  427MOL0     H57584   0.362  10.549   9.355 -0.1912  1.5379 -1.0970
  427MOL0     H57585   0.216  10.528   9.259  1.5057  0.0436 -1.0197
  427MOL0     H57586   0.098  10.424   9.460 -0.9618 -0.5514  1.0598
  427MOL0     H57587   0.256  10.435   9.538 -2.7665 -3.6323 -0.5684
  427MOL0     H57588   0.119  10.617   9.625  5.0335 -2.5460  1.9034
  427MOL0     H57589   0.231  10.688   9.514  1.2662 -1.5862  2.9751
  427MOL0     H57590   0.061  10.674   9.320 -0.1888 -0.4267  0.4901
  427MOL0     H57591  -0.061  10.618   9.418  1.0910 -2.7500 -0.7051
  427MOL0     H57592   0.101  10.876   9.483 -2.2112  2.4029  0.9745
  427MOL0     H57593  -0.042  10.867   9.365 -1.5337 -1.8548  0.4234
  427MOL0     H57594  -0.054  10.788   9.651  0.2269 -0.2798 -0.0329
  427MOL0     H57595  -0.183  10.786   9.533 -2.1661  4.2763 -2.3289
  427MOL0     H57596   0.044  11.089   9.633  0.5557 -1.3765  1.9153
  427MOL0     H57597  -0.136  11.303   9.845  2.6159  0.8305 -0.2177
  427MOL0     H57598  -0.013  11.314   9.722  0.2665 -0.3868 -1.4996
  427MOL0     H57599  -0.217  11.503   9.733  1.1238  1.6182 -1.4751
  427MOL0     H57600  -0.292  11.388   9.635 -2.0587  0.8194  4.4289
  427MOL0     H57601  -0.040  11.388   9.512 -0.3892 -0.0854 -0.2172
  427MOL0     H57602  -0.029  11.537   9.605 -0.5760  1.5547 -2.2703
  427MOL0     H57603  -0.276  11.503   9.452  0.4129 -1.6622 -0.4304
  427MOL0     H57604  -0.142  11.546   9.357 -0.8436  2.8818 -1.5473
  427MOL0     H57605  -0.297  11.910   9.601 -2.3725  1.8909 -0.3187
  427MOL0     H57606  -0.563  12.033   9.627 -0.5599  0.3871 -1.3646
  427MOL0     H57607  -0.407  12.105   9.600  0.6114 -2.4989 -0.1857
  427MOL0     H57608  -0.551  12.162   9.508  1.8147  1.3420  0.5965
  427MOL0     H57609  -0.883  11.904   9.379  0.5012  0.1445  1.3173
  427MOL0     H57610  -1.133  11.915   9.323  0.8008 -0.5038  0.4851
  427MOL0     H57611  -1.363  11.991   9.115  0.6350  2.7898 -2.4615
  427MOL0     H57612  -1.344  11.963   9.285  1.0636  0.8357  0.1864
  427MOL0     H57613  -1.524  12.165   9.140 -0.5611  0.8510  0.7354
  427MOL0     H57614  -1.577  12.046   9.252  0.0825  0.3311  1.6752
  427MOL0     H57615  -1.421  12.272   9.362 -0.5545  0.5322  0.9494
  427MOL0     H57616  -1.511  12.142   9.442 -2.7851 -1.7940 -1.0094
  427MOL0     H57617  -1.663  12.310   9.249 -0.3530 -0.1655 -1.1595
  427MOL0     H57618  -1.714  12.220   9.390 -0.6965  2.4687  1.4720
  427MOL0     H57619  -1.558  12.474   9.412  1.1517 -0.5104  1.3173
  427MOL0     H57620  -1.671  12.409   9.534  0.4296 -1.2283 -0.2453
  427MOL0     H57621  -1.750  12.567   9.285 -2.7920  0.5211 -0.0976
  427MOL0     H57622  -1.858  12.452   9.378 -0.1702 -0.5748  3.0644
  427MOL0     H57623  -1.801  12.592   9.582  3.6636 -0.8069 -1.4067
  427MOL0     H57624  -1.916  12.658   9.470 -0.5185 -0.2645  0.8608
  427MOL0     H57625  -1.745  12.819   9.364  0.5960 -0.2016 -1.2009
  427MOL0     H57626  -1.619  12.735   9.448 -0.1029 -0.2947 -0.3883
  427MOL0     H57627  -1.061  12.308   9.156  2.6117  1.8836  0.4019
  427MOL0     H57628  -0.833  12.284   9.212 -0.0367 -0.8233 -1.7550
  427MOL0     H57629  -0.497  11.795   9.173  1.4158  4.0502 -0.9256
  427MOL0     H57630  -0.325  11.656   9.261 -1.4177  0.0045 -0.6867
  427MOL0     H57631   0.676  10.290   9.143 -4.7989 -0.6104  1.1274
  427MOL0     H57632   0.852  10.178   8.995  0.3980  3.1142  3.6140
  427MOL0     H57633   1.128   9.653   8.945  0.7042  1.4749  0.3836
  427MOL0     H57634   1.322   9.622   8.805 -1.8105 -0.7084 -0.2260
  427MOL0     H57635   1.391   9.838   8.428  0.5948  0.2350 -0.2243
  427MOL0     H57636   1.436   9.956   8.542  2.3347  0.6930 -0.4903
  427MOL0     H57637   1.648   9.840   8.596  0.5928 -1.3509 -0.1867
  427MOL0     H57638   1.643   9.914   8.435 -0.1110 -1.3249 -2.2120
  427MOL0     H57639   1.589   9.624   8.494 -0.7058 -1.3945 -1.5820
  427MOL0     H57640   1.748   9.701   8.469 -1.0258  3.7108  1.7585
  427MOL0     H57641   1.530   9.720   8.265  0.6325  0.4402 -1.3557
  427MOL0     H57642   1.644   9.582   8.272 -0.8338 -0.4133  4.0714
  427MOL0     H57643   1.841   9.941   8.115 -0.4332  0.3830  2.0592
  427MOL0     H57644   1.211   9.964   8.565 -0.5220  2.0957  1.2483
  427MOL0     H57645   1.007   9.988   8.690 -0.7660  0.6163  2.7092
  428MOL0     O57646   1.298   7.090   0.132 -0.9233 -0.3937 -0.0330
  428MOL0     C57647   1.334   7.209   0.120 -0.1929 -0.6185  0.1118
  428MOL0     O57648   1.447   7.256   0.069 -0.7485 -0.5004 -0.0605
  428MOL0     C57649   1.538   7.171   0.009 -0.0785  0.0156  0.4141
  428MOL0     C57650   1.568   7.042   0.031  0.4003 -0.7630 -0.1253
  428MOL0     C57651   1.670   6.967  -0.038 -0.7471 -0.3177 -0.4561
  428MOL0     C57652   1.757   7.042  -0.113  0.7559  0.5413 -0.7763
  428MOL0     O57653   1.863   6.992  -0.171 -0.6206  0.2470  0.3270
  428MOL0     C57654   1.863   6.903  -0.284 -0.3496 -0.2376 -0.4067
  428MOL0     C57655   1.878   6.760  -0.221 -0.0449 -0.5409 -0.7681
  428MOL0     C57656   1.936   6.645  -0.314  0.4591 -0.8419  0.2982
  428MOL0     C57657   2.085   6.652  -0.366  0.1682  0.2914 -0.3098
  428MOL0     C57658   2.117   6.548  -0.472 -0.5883  0.6738 -0.1283
  428MOL0     C57659   2.265   6.485  -0.452  0.9498  0.4279 -0.4899
  428MOL0     C57660   2.370   6.599  -0.424 -1.0178  0.6877 -0.3410
  428MOL0     C57661   2.381   6.699  -0.543 -0.1468 -0.5929  0.7249
  428MOL0     N57662   2.451   6.828  -0.506 -0.3940 -0.1260  1.1405
  428MOL0     C57663   2.394   6.934  -0.441  0.9021  0.3172 -0.0390
  428MOL0     C57664   2.502   7.025  -0.427 -0.2274  0.1393  0.5566
  428MOL0     C57665   2.496   7.162  -0.365  0.3934 -0.0140  0.4626
  428MOL0     C57666   2.504   7.155  -0.212 -0.6270  0.9736 -1.0527
  428MOL0     C57667   2.492   7.301  -0.159  0.8886 -0.0874  1.3887
  428MOL0     C57668   2.495   7.292  -0.008  0.1464 -0.1643 -0.1418
  428MOL0     O57669   2.631   7.292   0.046 -0.4592  0.3522 -0.5515
  428MOL0     C57670   2.668   7.173   0.105  0.1466 -0.8028  1.3516
  428MOL0     C57671   2.582   7.084   0.175 -0.7689 -0.1688  0.0652
  428MOL0     C57672   2.630   6.965   0.232  0.5172 -0.3585 -0.4787
  428MOL0     C57673   2.524   6.883   0.314  0.0747 -0.2968  0.3866
  428MOL0     C57674   2.765   6.925   0.218  0.2886 -0.0038  0.2662
  428MOL0     C57675   2.833   6.818   0.288 -0.4158  0.7318  0.1397
  428MOL0     O57676   2.955   6.840   0.334 -0.1145  0.3072 -0.9023
  428MOL0     C57677   3.015   6.734   0.406 -0.2136  0.6087  0.6929
  428MOL0     C57678   3.078   6.759   0.528  0.8155 -0.7219 -0.7964
  428MOL0     C57679   3.139   6.662   0.602 -0.8678  0.1509 -0.0357
  428MOL0     C57680   3.163   6.531   0.547  0.6836  0.2342 -0.1092
  428MOL0     O57681   3.241   6.435   0.606  0.0321  0.7211 -0.1111
  428MOL0     C57682   3.278   6.461   0.747  0.1215 -0.4291 -0.4468
  428MOL0     C57683   3.348   6.353   0.803 -0.8714  0.1043 -0.2928
  428MOL0     C57684   3.413   6.374   0.946 -0.8789 -0.4439  0.7516
  428MOL0     C57685   3.304   6.384   1.050 -0.0395  0.3227  0.2642
  428MOL0     C57686   3.354   6.383   1.190  0.2636  0.1174 -0.0800
  428MOL0     C57687   3.243   6.393   1.300 -0.3849  0.6680 -0.5149
  428MOL0     C57688   3.168   6.519   1.294 -0.3857 -0.9724 -0.6460
  428MOL0     C57689   3.069   6.554   1.419 -0.8899 -0.0430 -0.6898
  428MOL0    Cl57690   2.935   6.449   1.384 -0.0398  0.5582 -0.0253
  428MOL0     C57691   3.105   6.511   0.418 -0.5595  0.9464  0.3094
  428MOL0     C57692   3.039   6.606   0.338  0.5752 -0.7090 -0.0987
  428MOL0     O57693   2.778   6.708   0.275 -0.1797  0.3270 -1.0859
  428MOL0     C57694   2.845   7.007   0.139 -0.4744  0.2145 -0.2174
  428MOL0     C57695   2.794   7.122   0.084  0.5754  0.7292  0.6624
  428MOL0     N57696   2.615   6.966  -0.483  0.3731 -0.4563  0.2096
  428MOL0     N57697   2.587   6.851  -0.527 -1.2343 -0.0394  0.2635
  428MOL0     C57698   1.740   7.177  -0.117  0.4708 -0.3205  1.0591
  428MOL0     C57699   1.631   7.250  -0.062  0.6611 -0.3219 -0.2297
  428MOL0     C57700   1.269   7.313   0.203 -1.2502 -0.1502 -1.2700
  428MOL0     C57701   1.289   7.454   0.182 -0.2939  0.4140 -1.2147
  428MOL0     C57702   1.222   7.554   0.254  0.0361  0.4920  0.0545
  428MOL0     C57703   1.131   7.519   0.357 -0.7391  0.6068  0.3686
  428MOL0     O57704   1.076   7.618   0.422 -0.0540 -0.3948 -0.2810
  428MOL0     C57705   0.979   7.583   0.531  0.9742 -0.0673 -0.1583
  428MOL0     C57706   0.925   7.704   0.611  0.3964 -0.4363 -0.5568
  428MOL0     C57707   1.025   7.798   0.675  0.1851  0.6525  0.1526
  428MOL0     C57708   1.118   7.733   0.776 -0.3133  0.1827 -0.8327
  428MOL0     C57709   1.055   7.647   0.887  0.0667 -0.0580 -0.2478
  428MOL0     C57710   0.998   7.600   0.983 -0.7113 -0.4253 -1.5308
  428MOL0     C57711   1.127   7.383   0.388 -0.3038 -0.0485  0.8153
  428MOL0     C57712   1.195   7.286   0.318  0.6389 -0.0948  0.8078
  428MOL0     H57713   1.512   6.979   0.099 -2.3770 -0.8918 -2.3505
  428MOL0     H57714   1.683   6.860  -0.029 -2.4418 -0.7222 -2.2155
  428MOL0     H57715   1.767   6.896  -0.336 -1.6249 -1.2616  1.9376
  428MOL0     H57716   1.940   6.937  -0.354 -0.3715  0.3480 -0.1508
  428MOL0     H57717   1.947   6.764  -0.136 -0.1888 -0.3485 -0.6582
  428MOL0     H57718   1.782   6.722  -0.186 -0.5215 -0.4433 -1.9347
  428MOL0     H57719   1.917   6.553  -0.259 -0.2486 -0.3837  0.8347
  428MOL0     H57720   1.874   6.634  -0.403  0.4652 -1.1768  0.3346
  428MOL0     H57721   2.095   6.751  -0.411 -0.2064  0.7039  0.5009
  428MOL0     H57722   2.142   6.636  -0.274 -0.4451  1.5797  0.3179
  428MOL0     H57723   2.043   6.470  -0.451 -0.1924  0.2838 -0.1508
  428MOL0     H57724   2.110   6.583  -0.575  2.5334 -1.6642 -1.3080
  428MOL0     H57725   2.275   6.419  -0.365  2.2748 -1.2715 -1.8600
  428MOL0     H57726   2.292   6.416  -0.532  2.9618  1.1156 -0.4599
  428MOL0     H57727   2.337   6.649  -0.332 -2.1762  2.7075 -1.7730
  428MOL0     H57728   2.470   6.557  -0.414 -1.2622 -0.9269 -3.5264
  428MOL0     H57729   2.284   6.729  -0.583 -0.5892 -0.5519  1.8116
  428MOL0     H57730   2.435   6.638  -0.616 -0.5142 -3.0478  2.3569
  428MOL0     H57731   2.290   6.956  -0.416  0.5527  2.4025 -2.8373
  428MOL0     H57732   2.576   7.228  -0.399 -0.4156  0.3421 -0.8083
  428MOL0     H57733   2.408   7.209  -0.409  1.7726  2.1626 -0.1296
  428MOL0     H57734   2.598   7.113  -0.177 -0.9952 -0.1518 -1.3617
  428MOL0     H57735   2.424   7.093  -0.170 -0.6644  0.0411 -2.4159
  428MOL0     H57736   2.399   7.348  -0.194  2.3335  5.1352  3.5358
  428MOL0     H57737   2.582   7.353  -0.193 -0.9121  3.2259  1.2579
  428MOL0     H57738   2.436   7.204   0.018 -1.0976  0.1342 -1.7867
  428MOL0     H57739   2.450   7.381   0.037 -0.4248  1.1282 -3.0299
  428MOL0     H57740   2.485   7.122   0.205 -0.2182  0.6448  0.8947
  428MOL0     H57741   2.544   6.775   0.322 -0.2584 -0.2328  2.6037
  428MOL0     H57742   2.524   6.918   0.417  1.6963  2.2408 -0.3859
  428MOL0     H57743   2.424   6.904   0.277  0.1811  4.0886  1.9996
  428MOL0     H57744   3.068   6.857   0.574 -1.0363 -1.6971  1.0204
  428MOL0     H57745   3.179   6.687   0.700 -0.1392 -0.1326 -0.2544
  428MOL0     H57746   3.345   6.548   0.755  1.0423 -1.2142  0.7631
  428MOL0     H57747   3.191   6.482   0.810  0.8052  1.4005 -0.0323
  428MOL0     H57748   3.282   6.266   0.811  0.0691 -0.4499  3.1928
  428MOL0     H57749   3.434   6.310   0.750 -2.2725 -1.8048 -1.1463
  428MOL0     H57750   3.492   6.450   0.948  0.3446 -1.6711  0.5443
  428MOL0     H57751   3.463   6.278   0.958  2.3242  0.4731 -3.1136
  428MOL0     H57752   3.262   6.484   1.035  1.8867  1.0262 -0.9062
  428MOL0     H57753   3.227   6.307   1.035  0.3195  0.3692 -2.4141
  428MOL0     H57754   3.426   6.465   1.199  3.7336 -2.6231 -0.4473
  428MOL0     H57755   3.412   6.292   1.210  0.9535  0.6520  0.3909
  428MOL0     H57756   3.179   6.305   1.286  1.5735 -0.4990 -2.8565
  428MOL0     H57757   3.285   6.395   1.401 -2.5129  1.5276  0.4294
  428MOL0     H57758   3.125   6.546   1.197  1.6602  3.9448 -0.4912
  428MOL0     H57759   3.242   6.599   1.305 -1.7296  0.2012  0.3091
  428MOL0     H57760   3.034   6.657   1.424  4.2515  2.0178 -1.4684
  428MOL0     H57761   3.122   6.523   1.510  5.3417  1.4208 -3.3206
  428MOL0     H57762   3.124   6.413   0.374  1.3884  0.4577  2.0363
  428MOL0     H57763   3.011   6.605   0.234 -2.6971  2.7765  0.5560
  428MOL0     H57764   2.943   6.973   0.106 -1.8990 -0.9859 -3.6634
  428MOL0     H57765   2.860   7.182   0.021 -0.0525  1.5634  0.7873
  428MOL0     H57766   1.811   7.237  -0.172  4.3322 -2.8082  2.8592
  428MOL0     H57767   1.603   7.354  -0.074 -1.2352 -1.1016 -4.9309
  428MOL0     H57768   1.355   7.483   0.101  0.1074  1.5229 -0.5090
  428MOL0     H57769   1.231   7.655   0.216 -4.2360  0.0772 -2.7971
  428MOL0     H57770   0.892   7.529   0.490  1.4021  0.6999 -2.1887
  428MOL0     H57771   1.037   7.521   0.600 -1.2169 -0.0157  1.8826
  428MOL0     H57772   0.859   7.686   0.696 -1.1724  0.6128 -1.5145
  428MOL0     H57773   0.865   7.757   0.536  1.1883 -1.4587 -1.9789
  428MOL0     H57774   0.972   7.883   0.719 -3.1369 -0.8738 -0.5662
  428MOL0     H57775   1.098   7.813   0.594 -0.1800 -1.2716 -0.5648
  428MOL0     H57776   1.180   7.806   0.828 -3.0838  0.9128  1.7847
  428MOL0     H57777   1.172   7.655   0.722 -2.2840 -1.2971 -0.7709
  428MOL0     H57778   0.945   7.540   1.055 -0.2380 -0.0479 -0.8540
  428MOL0     H57779   1.067   7.352   0.473 -3.6312  1.3529 -0.8319
  428MOL0     H57780   1.197   7.188   0.362 -1.9483 -0.2784  0.6388
  429MOL0     O57781   9.506   3.317   6.852 -0.3085 -0.4690 -0.3384
  429MOL0     C57782   9.472   3.204   6.819  0.0959 -0.8459 -0.0856
  429MOL0     O57783   9.483   3.138   6.699  1.2354  0.2864  1.1249
  429MOL0     C57784   9.522   3.189   6.578 -1.1058 -0.6317  0.4287
  429MOL0     C57785   9.626   3.285   6.567  0.3197 -0.8741 -0.1508
  429MOL0     C57786   9.676   3.334   6.447  0.5404  0.4802  0.8919
  429MOL0     C57787   9.608   3.298   6.330  0.2845 -0.0488 -0.1529
  429MOL0     O57788   9.659   3.367   6.222  0.3266 -0.2912 -0.0486
  429MOL0     C57789   9.609   3.337   6.097 -0.0347 -0.7825  0.2511
  429MOL0     C57790   9.694   3.409   5.993  0.3261 -0.0348 -0.1302
  429MOL0     C57791   9.658   3.362   5.845 -1.2185 -0.3128  0.1842
  429MOL0     C57792   9.785   3.363   5.764 -0.2241 -0.8825  0.9874
  429MOL0     C57793   9.744   3.310   5.626 -0.0129  0.0721 -0.7903
  429MOL0     C57794   9.838   3.347   5.508  0.0810 -0.0760  0.0516
  429MOL0     C57795   9.981   3.307   5.527  0.5134 -0.3438  0.4515
  429MOL0     C57796  10.012   3.160   5.506 -0.5051  0.0379 -0.0673
  429MOL0     N57797  10.153   3.147   5.500 -0.0973  0.5055  0.0620
  429MOL0     C57798  10.246   3.123   5.599 -1.0163 -0.1764 -0.2814
  429MOL0     C57799  10.370   3.127   5.534  1.1122  0.0641 -0.2758
  429MOL0     C57800  10.494   3.116   5.607  0.2748 -0.7586  0.5523
  429MOL0     C57801  10.536   2.966   5.628  0.2894 -0.3720  0.2557
  429MOL0     C57802  10.668   2.923   5.697 -0.2637 -0.8619 -0.7028
  429MOL0     C57803  10.678   2.944   5.847  0.5053  0.5323 -0.4944
  429MOL0     O57804  10.775   2.862   5.907 -0.1700 -0.3014  0.0312
  429MOL0     C57805  10.793   2.861   6.047 -0.9142 -0.0963 -0.1485
  429MOL0     C57806  10.897   2.774   6.098 -0.4050  0.0264  0.4257
  429MOL0     C57807  10.919   2.758   6.241  0.8352  0.7675 -0.0970
  429MOL0     C57808  11.010   2.652   6.292 -0.3461 -0.3910 -0.2854
  429MOL0     C57809  10.855   2.832   6.334 -0.5578  0.2219 -0.0060
  429MOL0     C57810  10.871   2.819   6.485 -0.1160  0.4436  0.6732
  429MOL0     O57811  10.843   2.927   6.564  0.8172 -0.8742  0.4277
  429MOL0     C57812  10.864   2.912   6.698 -0.3302 -0.2888 -0.0323
  429MOL0     C57813  10.760   2.885   6.781  0.6198  0.4578  0.5831
  429MOL0     C57814  10.775   2.876   6.918  0.5557  0.3565 -0.0700
  429MOL0     C57815  10.895   2.895   6.978 -0.4850  0.2389 -1.1504
  429MOL0     O57816  10.907   2.885   7.118 -0.1580 -0.0640  0.0460
  429MOL0     C57817  11.029   2.814   7.160 -0.2628 -0.0988 -1.1232
  429MOL0     C57818  10.989   2.695   7.246  0.0007 -0.3001 -0.0497
  429MOL0     C57819  10.990   2.739   7.392  0.7703 -0.8028 -1.3582
  429MOL0     C57820  10.967   2.606   7.472  0.8581 -0.8385 -0.1638
  429MOL0     C57821  10.982   2.630   7.628 -0.0108  0.4648  1.1419
  429MOL0     C57822  11.124   2.668   7.689  0.1515  0.0940  1.1315
  429MOL0     C57823  11.110   2.720   7.836  0.2893 -0.2613  0.6844
  429MOL0     C57824  11.114   2.599   7.933 -0.6372 -0.3191  0.3698
  429MOL0    Cl57825  11.048   2.654   8.096  0.0065  0.0349 -0.1621
  429MOL0     C57826  11.013   2.916   6.896  0.4439 -0.2194  0.1274
  429MOL0     C57827  10.991   2.925   6.753 -1.0650 -0.1528 -0.2922
  429MOL0     O57828  10.913   2.711   6.532  0.1323 -0.0212 -0.0308
  429MOL0     C57829  10.775   2.941   6.285  0.0449 -0.5059  0.0138
  429MOL0     C57830  10.739   2.949   6.142  2.0664  0.4706 -0.8525
  429MOL0     N57831  10.345   3.147   5.400 -0.1947  0.4706 -0.7345
  429MOL0     N57832  10.219   3.164   5.385 -0.0691  0.2519  0.0452
  429MOL0     C57833   9.491   3.217   6.344  0.2180 -0.7229  0.3103
  429MOL0     C57834   9.451   3.159   6.462 -0.3912 -1.1585 -0.1773
  429MOL0     C57835   9.376   3.134   6.917  1.2508 -0.2493 -0.7007
  429MOL0     C57836   9.364   3.186   7.050  1.0027  0.7541 -0.1381
  429MOL0     C57837   9.290   3.130   7.152 -0.3872  0.5589  0.4093
  429MOL0     C57838   9.223   3.018   7.121  0.5608 -0.1914  0.3232
  429MOL0     O57839   9.130   2.968   7.214  0.4406 -0.1624 -0.0212
  429MOL0     C57840   9.182   2.903   7.332 -0.0690  0.5173 -0.5950
  429MOL0     C57841   9.084   2.836   7.422 -0.6862  0.5347  0.0488
  429MOL0     C57842   9.006   2.714   7.367  1.5016  0.5288 -0.4979
  429MOL0     C57843   8.891   2.744   7.272  0.3695 -0.1296  0.8480
  429MOL0     C57844   8.776   2.811   7.332  0.0277  0.4032 -0.1758
  429MOL0     C57845   8.675   2.867   7.385 -0.7270 -0.0819  0.2073
  429MOL0     C57846   9.231   2.961   6.994 -0.8067  0.7785 -0.2113
  429MOL0     C57847   9.305   3.018   6.890 -0.0227  0.9636  0.0823
  429MOL0     H57848   9.684   3.324   6.650 -0.3646  1.2629 -0.6236
  429MOL0     H57849   9.767   3.394   6.451  0.0011  1.2500  1.9884
  429MOL0     H57850   9.609   3.230   6.076 -1.8696 -0.2593 -3.1395
  429MOL0     H57851   9.503   3.362   6.089  0.6276  2.6394  0.3861
  429MOL0     H57852   9.668   3.514   6.009 -0.6710 -0.2820 -0.0405
  429MOL0     H57853   9.798   3.393   6.022  0.3020  2.1063  1.3817
  429MOL0     H57854   9.620   3.261   5.863  1.2432 -1.1551  1.1973
  429MOL0     H57855   9.576   3.427   5.814 -0.1840  2.1864  2.2354
  429MOL0     H57856   9.822   3.465   5.755 -2.6094  0.0034  0.4592
  429MOL0     H57857   9.868   3.308   5.808  1.0824 -2.6597 -3.2224
  429MOL0     H57858   9.737   3.200   5.622 -1.1054  0.1557 -4.1960
  429MOL0     H57859   9.650   3.357   5.597 -0.5359 -0.6500 -0.3158
  429MOL0     H57860   9.794   3.309   5.415  0.9024  1.5377 -1.0535
  429MOL0     H57861   9.838   3.455   5.487 -0.3827 -0.2379 -0.8465
  429MOL0     H57862  10.037   3.356   5.446 -1.0102 -2.6234 -2.1205
  429MOL0     H57863  10.012   3.347   5.625  0.6897  2.8737 -0.7840
  429MOL0     H57864   9.977   3.134   5.406 -0.5669  4.2433 -1.3367
  429MOL0     H57865   9.972   3.088   5.578  4.7342 -0.7551  2.5184
  429MOL0     H57866  10.232   3.115   5.707  0.4968  2.7133  0.2045
  429MOL0     H57867  10.568   3.164   5.541 -3.1883  0.3220 -2.9525
  429MOL0     H57868  10.494   3.175   5.699  1.2799 -1.2555  0.8887
  429MOL0     H57869  10.528   2.917   5.530 -1.8034 -1.6215  0.9809
  429MOL0     H57870  10.459   2.915   5.686 -1.3840  2.5782  0.8697
  429MOL0     H57871  10.756   2.969   5.653  0.7311 -1.5143  0.5102
  429MOL0     H57872  10.679   2.816   5.675 -0.6061 -1.0271 -0.1021
  429MOL0     H57873  10.578   2.926   5.888  0.1403 -0.5766 -1.7728
  429MOL0     H57874  10.705   3.045   5.876 -0.7040 -0.1187  3.4906
  429MOL0     H57875  10.939   2.703   6.028  0.5861 -0.9785  1.9609
  429MOL0     H57876  11.074   2.617   6.210 -1.0835 -0.4697 -0.8436
  429MOL0     H57877  11.081   2.690   6.366  0.5720 -0.4774 -1.1018
  429MOL0     H57878  10.961   2.561   6.328 -2.5110  1.4353  1.7127
  429MOL0     H57879  10.661   2.869   6.739  0.0970  3.1709  0.5929
  429MOL0     H57880  10.685   2.869   6.978 -0.5844  2.5346 -1.4214
  429MOL0     H57881  11.083   2.782   7.071  0.8716 -0.3749 -0.3564
  429MOL0     H57882  11.098   2.876   7.217 -0.0927 -0.8415 -0.5023
  429MOL0     H57883  10.890   2.668   7.207 -0.2873 -0.5017  0.8154
  429MOL0     H57884  11.076   2.634   7.218  1.7593  2.5388 -1.2229
  429MOL0     H57885  10.918   2.817   7.419 -0.8007 -2.4004 -0.6795
  429MOL0     H57886  11.089   2.777   7.418 -1.1504  5.2806 -1.4233
  429MOL0     H57887  10.868   2.564   7.454  0.7036 -0.1973 -0.8593
  429MOL0     H57888  11.038   2.533   7.432  3.0046  1.2347 -0.3918
  429MOL0     H57889  10.952   2.537   7.677 -0.1384  0.7840  1.6759
  429MOL0     H57890  10.902   2.694   7.666  0.0048 -0.0099  2.0150
  429MOL0     H57891  11.190   2.581   7.683  2.4215  1.8048 -2.4885
  429MOL0     H57892  11.170   2.751   7.633 -0.8913  1.4840  2.2608
  429MOL0     H57893  11.016   2.776   7.835  0.5765  0.2265  0.5981
  429MOL0     H57894  11.184   2.795   7.868  0.4383  2.6934 -5.2799
  429MOL0     H57895  11.215   2.559   7.940 -0.9205 -1.0742  0.3336
  429MOL0     H57896  11.035   2.529   7.901  0.0712 -2.2993  2.6140
  429MOL0     H57897  11.110   2.935   6.942 -0.0097 -0.6813  1.3208
  429MOL0     H57898  11.078   2.947   6.693  1.1190 -1.7776  2.0512
  429MOL0     H57899  10.719   2.993   6.362 -0.0361 -0.7058  0.0912
  429MOL0     H57900  10.659   3.019   6.120  0.9578 -0.3834  0.3239
  429MOL0     H57901   9.425   3.208   6.258  1.1775  0.8544 -0.6305
  429MOL0     H57902   9.365   3.092   6.458 -2.4108  1.3367 -1.5427
  429MOL0     H57903   9.413   3.280   7.070 -1.7559  1.9608  1.5569
  429MOL0     H57904   9.280   3.190   7.242 -0.2929  1.1976 -0.0004
  429MOL0     H57905   9.262   2.834   7.303  0.0841 -2.0536  4.7862
  429MOL0     H57906   9.232   2.978   7.394 -1.9281  0.2410  1.3307
  429MOL0     H57907   9.014   2.915   7.451  1.5238  2.5476  0.1222
  429MOL0     H57908   9.160   2.796   7.490  0.7650 -2.6369 -3.1267
  429MOL0     H57909   8.974   2.652   7.451  3.0172  0.8772  0.3729
  429MOL0     H57910   9.079   2.649   7.316  0.5087 -2.1382  1.2730
  429MOL0     H57911   8.858   2.653   7.221 -1.4015  2.5518 -3.3880
  429MOL0     H57912   8.923   2.810   7.190  0.2860 -0.9775  0.1173
  429MOL0     H57913   8.583   2.907   7.421 -0.2533 -0.7829  2.3448
  429MOL0     H57914   9.177   2.867   6.981 -1.1630  0.9580 -0.0610
  429MOL0     H57915   9.304   2.988   6.786  0.3172  0.4204  0.2361
  430MOL0     O57916   1.418   7.142  10.075 -0.5892 -0.7217 -1.0308
  430MOL0     C57917   1.468   7.173   9.972 -0.5577 -0.4315  0.1720
  430MOL0     O57918   1.518   7.079   9.876  0.8643 -0.1690 -0.2742
  430MOL0     C57919   1.539   6.955   9.919 -0.6998  0.5675  0.1823
  430MOL0     C57920   1.482   6.852   9.856 -0.0475 -0.4835 -0.2715
  430MOL0     C57921   1.502   6.729   9.916  0.1144 -0.9570  0.4212
  430MOL0     C57922   1.583   6.699  10.021  0.2050  0.0035  0.0801
  430MOL0     O57923   1.590   6.567  10.047  0.3192 -0.4883 -0.6246
  430MOL0     C57924   1.633   6.536  10.172  0.6066 -0.3389 -0.7303
  430MOL0     C57925   1.632   6.384  10.164 -0.1921  0.2333  0.3582
  430MOL0     C57926   1.723   6.338  10.044  0.2013  0.3429 -0.6882
  430MOL0     C57927   1.740   6.181  10.044  0.0946  0.3192 -0.7327
  430MOL0     C57928   1.615   6.094  10.035  0.0694  0.3910 -0.3583
  430MOL0     C57929   1.648   5.950   9.990  0.4457 -0.2016  0.0211
  430MOL0     C57930   1.510   5.875   9.966 -0.6926  0.0199  0.2266
  430MOL0     C57931   1.525   5.718   9.965  0.3706 -0.3438 -0.0029
  430MOL0     N57932   1.420   5.643   9.891  0.8428 -0.4174 -0.3734
  430MOL0     C57933   1.285   5.666   9.901  0.4354 -0.4159 -0.2474
  430MOL0     C57934   1.235   5.569   9.833 -0.3959 -0.6808  1.3378
  430MOL0     C57935   1.090   5.544   9.814  0.8184 -0.8741  0.1264
  430MOL0     C57936   1.047   5.595   9.687  0.0493  0.3616  0.5840
  430MOL0     C57937   0.901   5.616   9.657 -0.0443  0.2642 -0.8929
  430MOL0     C57938   0.816   5.485   9.698  0.1136  0.1404 -0.2224
  430MOL0     O57939   0.835   5.374   9.607  0.1307 -0.1162 -0.6892
  430MOL0     C57940   0.730   5.304   9.548 -0.4024 -0.2175 -0.9282
  430MOL0     C57941   0.742   5.230   9.424  0.1493 -0.0753 -0.2774
  430MOL0     C57942   0.638   5.150   9.379 -0.8318  0.1280 -1.1837
  430MOL0     C57943   0.638   5.108   9.240  0.6683  0.3245  0.3192
  430MOL0     C57944   0.526   5.135   9.458  0.6173 -0.6791 -0.3029
  430MOL0     C57945   0.418   5.035   9.430 -0.7628 -0.0383 -1.0691
  430MOL0     O57946   0.461   4.909   9.393  0.7406  0.1930  0.6018
  430MOL0     C57947   0.382   4.802   9.382  0.6792  0.2316 -0.4201
  430MOL0     C57948   0.451   4.696   9.329  0.2643  0.1506  1.0764
  430MOL0     C57949   0.374   4.590   9.278  0.6679 -0.6784 -0.3768
  430MOL0     C57950   0.233   4.582   9.304 -1.1354 -0.4011  0.3425
  430MOL0     O57951   0.148   4.484   9.266 -0.2941 -0.6574 -0.5808
  430MOL0     C57952   0.149   4.461   9.121  0.6298 -0.2455  0.5552
  430MOL0     C57953   0.009   4.410   9.074 -0.0142 -0.8097  0.7736
  430MOL0     C57954   0.008   4.418   8.918 -0.2797 -0.1986  0.0879
  430MOL0     C57955   0.127   4.343   8.857  0.5403 -0.3031  1.0602
  430MOL0     C57956   0.140   4.352   8.706  1.2561  0.2494 -0.3946
  430MOL0     C57957   0.055   4.253   8.640 -0.5934  0.2898  0.6082
  430MOL0     C57958   0.059   4.298   8.487  0.0825  0.6737 -0.5427
  430MOL0     C57959  -0.051   4.211   8.415  0.4527 -0.2384  0.1903
  430MOL0    Cl57960  -0.212   4.275   8.429  0.1251  0.2699 -0.0753
  430MOL0     C57961   0.177   4.685   9.372 -0.1355 -0.4099 -0.4129
  430MOL0     C57962   0.246   4.794   9.419  0.4655  0.1627 -0.6671
  430MOL0     O57963   0.294   5.064   9.446 -0.3028 -0.0837 -0.0478
  430MOL0     C57964   0.503   5.212   9.574 -0.8872 -0.2549  0.2284
  430MOL0     C57965   0.608   5.284   9.623  0.5171 -0.0777 -0.7051
  430MOL0     N57966   1.333   5.482   9.791 -0.0166  0.0817  0.1277
  430MOL0     N57967   1.446   5.533   9.816 -0.4180 -0.4874 -0.7226
  430MOL0     C57968   1.658   6.804  10.063 -0.8553 -0.5814 -0.0123
  430MOL0     C57969   1.634   6.928  10.023  0.1407 -0.5680 -0.2313
  430MOL0     C57970   1.479   7.311   9.933  0.7224  0.5618  0.3700
  430MOL0     C57971   1.540   7.342   9.810  0.5135 -0.1046 -0.7771
  430MOL0     C57972   1.548   7.481   9.764  0.2191  0.7056  0.3141
  430MOL0     C57973   1.523   7.583   9.843 -0.1952 -0.8609  0.2925
  430MOL0     O57974   1.542   7.713   9.797 -0.2787 -0.5977 -0.4121
  430MOL0     C57975   1.512   7.826   9.870  0.4229 -0.2406  0.4178
  430MOL0     C57976   1.574   7.958   9.819  0.0395  0.2907 -0.5244
  430MOL0     C57977   1.577   7.978   9.664 -0.3492 -0.4650 -0.1584
  430MOL0     C57978   1.445   7.999   9.603  0.3491  0.1374  0.0324
  430MOL0     C57979   1.386   8.127   9.650  0.3166 -0.1093 -0.6869
  430MOL0     C57980   1.348   8.233   9.703 -0.2598 -0.1199 -0.6161
  430MOL0     C57981   1.458   7.557   9.965 -0.3609  0.6303  0.1317
  430MOL0     C57982   1.437   7.427  10.007  0.5968  0.8690  0.0373
  430MOL0     H57983   1.424   6.875   9.767 -0.3554 -2.0028 -0.4893
  430MOL0     H57984   1.449   6.650   9.863 -1.8744  1.0536 -0.8251
  430MOL0     H57985   1.726   6.585  10.204  0.1304 -0.4514  0.9157
  430MOL0     H57986   1.550   6.554  10.241  0.0544  0.3713 -1.5610
  430MOL0     H57987   1.674   6.335  10.252 -1.8062 -3.1606 -0.6165
  430MOL0     H57988   1.531   6.344  10.162 -0.3923  0.7097  0.6694
  430MOL0     H57989   1.690   6.366   9.944 -0.6864  1.1631 -0.1737
  430MOL0     H57990   1.826   6.372  10.060  0.4823  0.1175 -1.9114
  430MOL0     H57991   1.815   6.160   9.967 -1.2744 -0.8409 -1.7998
  430MOL0     H57992   1.773   6.163  10.146 -3.1392 -0.2725  0.2973
  430MOL0     H57993   1.563   6.083  10.130 -0.7211 -3.0208 -1.0573
  430MOL0     H57994   1.538   6.140   9.972  1.5232  2.6842 -0.5966
  430MOL0     H57995   1.703   5.956   9.896 -0.1309 -0.9829 -0.3792
  430MOL0     H57996   1.708   5.897  10.064 -1.9550 -0.1447  2.1497
  430MOL0     H57997   1.435   5.916  10.034 -1.2726  0.8978 -0.9118
  430MOL0     H57998   1.475   5.911   9.869 -2.7049 -0.3353  0.7884
  430MOL0     H57999   1.518   5.692  10.071 -2.9208  1.2910  0.2785
  430MOL0     H58000   1.623   5.697   9.921  0.3838  3.6889 -2.3560
  430MOL0     H58001   1.227   5.746   9.944 -0.3393 -1.2029  0.1803
  430MOL0     H58002   1.081   5.435   9.818  1.8306 -0.9477  0.7335
  430MOL0     H58003   1.039   5.596   9.896 -1.3060  3.3056 -3.4345
  430MOL0     H58004   1.098   5.520   9.626  1.4188 -1.1769  3.4628
  430MOL0     H58005   1.094   5.693   9.673 -2.5236  1.6751  0.5749
  430MOL0     H58006   0.893   5.654   9.555  0.0791 -1.2026 -1.4684
  430MOL0     H58007   0.867   5.698   9.722 -0.8715 -0.6952 -0.0890
  430MOL0     H58008   0.713   5.515   9.722  1.1493  1.4728  3.0598
  430MOL0     H58009   0.848   5.464   9.800 -2.0685  3.6342  1.3825
  430MOL0     H58010   0.836   5.241   9.372 -0.2717  1.6897 -0.7131
  430MOL0     H58011   0.627   4.999   9.238  2.7016  0.0564 -1.8527
  430MOL0     H58012   0.554   5.153   9.187  0.0724 -1.5605 -0.4160
  430MOL0     H58013   0.734   5.127   9.190  0.6669  1.4140  0.7097
  430MOL0     H58014   0.556   4.699   9.303 -0.3555  2.4863 -1.6611
  430MOL0     H58015   0.434   4.518   9.224  1.8356  0.1975 -0.2874
  430MOL0     H58016   0.176   4.551   9.065 -1.2983  1.0159  1.5472
  430MOL0     H58017   0.225   4.384   9.104  0.0077 -0.5539 -0.9801
  430MOL0     H58018  -0.009   4.304   9.093 -1.6244 -1.3969 -2.9974
  430MOL0     H58019  -0.073   4.474   9.107  2.2985  3.8261 -1.5065
  430MOL0     H58020   0.013   4.524   8.891  0.1858 -0.4089 -0.6796
  430MOL0     H58021  -0.089   4.376   8.890  0.5273 -0.1765 -3.0278
  430MOL0     H58022   0.215   4.395   8.897  0.0967  2.8436 -1.5741
  430MOL0     H58023   0.132   4.238   8.886 -1.3864 -0.8400 -0.3546
  430MOL0     H58024   0.243   4.338   8.673 -0.0107 -0.4528 -4.6277
  430MOL0     H58025   0.103   4.452   8.683  2.1042  0.3377 -1.4847
  430MOL0     H58026   0.072   4.145   8.649 -1.1928 -0.0436 -1.6461
  430MOL0     H58027  -0.047   4.270   8.673 -1.0907  4.1315 -2.3040
  430MOL0     H58028   0.154   4.281   8.436  0.6392 -1.3336  1.0152
  430MOL0     H58029   0.031   4.404   8.481 -0.7532  0.5896  1.1657
  430MOL0     H58030  -0.050   4.106   8.445 -1.5510 -0.3665 -0.0424
  430MOL0     H58031  -0.046   4.207   8.306 -2.2182  1.8206 -0.1205
  430MOL0     H58032   0.073   4.686   9.401 -0.7126 -1.0672 -2.3404
  430MOL0     H58033   0.182   4.854   9.483  0.5262 -0.7174  0.2484
  430MOL0     H58034   0.420   5.187   9.639 -0.8274  0.9785  0.8018
  430MOL0     H58035   0.599   5.332   9.720 -0.3908  0.7754 -1.1972
  430MOL0     H58036   1.739   6.790  10.134  0.0058  0.3442 -0.7756
  430MOL0     H58037   1.711   6.999  10.053  0.5230 -1.1435  0.1611
  430MOL0     H58038   1.565   7.266   9.737 -0.3764 -1.7031  0.5287
  430MOL0     H58039   1.595   7.482   9.666  0.7259 -2.9922  0.3706
  430MOL0     H58040   1.404   7.847   9.871  0.7875  1.8431 -0.4999
  430MOL0     H58041   1.542   7.819   9.975 -1.2445  3.4651  1.3137
  430MOL0     H58042   1.678   7.957   9.853  0.2212  1.8765 -0.9364
  430MOL0     H58043   1.520   8.042   9.862 -1.2986 -1.3985  1.2621
  430MOL0     H58044   1.628   7.896   9.612 -1.7115 -0.8706 -0.9076
  430MOL0     H58045   1.631   8.071   9.648 -1.1833 -0.4231 -3.2805
  430MOL0     H58046   1.373   7.918   9.619 -1.9158  1.8446 -0.9146
  430MOL0     H58047   1.459   8.016   9.496 -0.9667  1.6074  0.0536
  430MOL0     H58048   1.316   8.323   9.752 -1.5624 -0.8241 -0.1193
  430MOL0     H58049   1.420   7.627  10.039  1.0216 -1.0593  2.5876
  430MOL0     H58050   1.387   7.412  10.102  0.1088 -0.6065 -0.4240
  431MOL0     O58051   2.199   9.837   1.224 -0.3938 -0.7151  0.1006
  431MOL0     C58052   2.223   9.851   1.347 -0.1481 -0.3385 -0.9264
  431MOL0     O58053   2.326   9.800   1.419 -0.5733 -0.3917 -0.7875
  431MOL0     C58054   2.455   9.794   1.362  0.0085  0.4740 -0.9611
  431MOL0     C58055   2.534   9.739   1.459 -0.6121 -0.1146 -0.8877
  431MOL0     C58056   2.672   9.727   1.432 -0.0938  0.8757  0.7648
  431MOL0     C58057   2.738   9.774   1.308  0.0761 -0.3379 -0.4378
  431MOL0     O58058   2.871   9.763   1.287 -0.0651 -0.5970  0.2220
  431MOL0     C58059   2.938   9.639   1.319 -0.5633  0.0041  0.2951
  431MOL0     C58060   3.059   9.661   1.399 -1.1584  0.0673  0.1708
  431MOL0     C58061   3.055   9.633   1.552  0.2558  0.4012  0.5263
  431MOL0     C58062   3.198   9.675   1.606  0.9285  0.2929 -0.3951
  431MOL0     C58063   3.215   9.624   1.758 -0.4645 -0.2326  0.8622
  431MOL0     C58064   3.309   9.718   1.833 -0.3871  0.1404 -0.5290
  431MOL0     C58065   3.232   9.842   1.876  0.9812  0.0355 -0.1232
  431MOL0     C58066   3.139   9.808   1.995 -0.4163 -0.6610  0.6224
  431MOL0     N58067   3.210   9.823   2.123  0.3858  0.3781  0.0358
  431MOL0     C58068   3.235   9.937   2.189 -0.5540 -0.0295  0.0488
  431MOL0     C58069   3.297   9.895   2.299  0.1925  0.0679 -0.9549
  431MOL0     C58070   3.377   9.980   2.400  0.1173 -0.1425  0.4478
  431MOL0     C58071   3.296  10.067   2.497 -0.1267  1.0079 -0.2511
  431MOL0     C58072   3.245   9.987   2.620  0.3775  0.3987  0.2818
  431MOL0     C58073   3.114  10.044   2.671 -0.1968 -0.1300 -0.3006
  431MOL0     O58074   3.011  10.032   2.573 -0.1160 -0.7499  0.6955
  431MOL0     C58075   2.909   9.942   2.586 -0.0414  0.6579 -0.0614
  431MOL0     C58076   2.870   9.887   2.467 -0.1816  0.5531 -0.9885
  431MOL0     C58077   2.776   9.788   2.454  0.2428 -0.6251  0.3500
  431MOL0     C58078   2.762   9.728   2.311  0.2577 -0.5643 -0.3910
  431MOL0     C58079   2.707   9.739   2.570  0.2320 -0.2635 -0.0944
  431MOL0     C58080   2.605   9.629   2.572 -0.0546 -0.2437 -0.8062
  431MOL0     O58081   2.562   9.585   2.691  0.5642 -0.5367  0.0768
  431MOL0     C58082   2.472   9.483   2.702  0.4037  0.6957 -0.8170
  431MOL0     C58083   2.345   9.510   2.662  1.1663 -0.7039  0.6089
  431MOL0     C58084   2.250   9.406   2.654  1.2135  0.2740  0.0828
  431MOL0     C58085   2.287   9.283   2.706  0.7670  0.9969  0.1032
  431MOL0     O58086   2.179   9.200   2.736 -0.2005  0.4847 -0.4226
  431MOL0     C58087   2.200   9.064   2.688  0.1752  0.3985 -0.6528
  431MOL0     C58088   2.090   8.970   2.723 -1.1180  0.2177  1.1472
  431MOL0     C58089   2.055   8.976   2.872  0.3278 -0.5397 -0.6018
  431MOL0     C58090   1.971   8.858   2.922  0.5582 -0.8636 -0.2469
  431MOL0     C58091   1.893   8.877   3.055  0.5259  0.2710  0.0040
  431MOL0     C58092   1.831   8.747   3.112  0.2216  1.4956  0.8798
  431MOL0     C58093   1.722   8.679   3.021 -1.3228 -0.2596 -0.8757
  431MOL0     C58094   1.617   8.606   3.101  0.8335 -0.0267  0.9371
  431MOL0    Cl58095   1.502   8.706   3.202  0.0144  0.0112  0.2598
  431MOL0     C58096   2.420   9.250   2.751  0.1668  0.1186  0.7813
  431MOL0     C58097   2.513   9.353   2.745  0.1354  0.2086  0.4164
  431MOL0     O58098   2.559   9.595   2.461  0.1292 -0.2079  0.0288
  431MOL0     C58099   2.747   9.799   2.697 -0.8870 -0.1685  0.6180
  431MOL0     C58100   2.855   9.894   2.705 -0.3277 -1.3897 -0.1389
  431MOL0     N58101   3.287   9.762   2.312 -0.1853  0.7309  0.0510
  431MOL0     N58102   3.226   9.715   2.209 -0.1775 -0.3432  0.3715
  431MOL0     C58103   2.649   9.813   1.209  0.7937 -0.4300  0.0530
  431MOL0     C58104   2.507   9.830   1.238 -0.1553  0.5593 -0.5201
  431MOL0     C58105   2.107   9.894   1.415 -0.5885 -0.4366 -0.3507
  431MOL0     C58106   1.978   9.880   1.371  0.3943  0.4667 -0.0024
  431MOL0     C58107   1.869   9.910   1.442  0.2027  0.6755 -1.0994
  431MOL0     C58108   1.885   9.951   1.580 -0.2496 -0.6019  0.9173
  431MOL0     O58109   1.765   9.979   1.649  0.2223  0.1535  0.5014
  431MOL0     C58110   1.776  10.021   1.778 -0.9222 -0.5516  0.2927
  431MOL0     C58111   1.629  10.039   1.805 -0.1514  0.5875 -0.7734
  431MOL0     C58112   1.597  10.077   1.953  0.3371  0.4357 -0.3558
  431MOL0     C58113   1.445  10.048   1.960 -0.5870 -1.2033  0.1277
  431MOL0     C58114   1.399  10.064   2.101  0.2771 -0.7930 -0.4670
  431MOL0     C58115   1.374  10.073   2.220  0.2278 -1.1771 -0.4096
  431MOL0     C58116   2.016   9.962   1.632 -0.3006 -0.5470  0.0837
  431MOL0     C58117   2.129   9.940   1.548  0.8572 -0.4062  0.6860
  431MOL0     H58118   2.494   9.717   1.558  0.9476  1.3694  0.1408
  431MOL0     H58119   2.729   9.677   1.510 -0.4743  0.4941  0.8012
  431MOL0     H58120   2.862   9.576   1.366 -1.1566  1.3042  1.1306
  431MOL0     H58121   2.962   9.595   1.222  1.0441  2.4086 -0.5014
  431MOL0     H58122   3.133   9.588   1.365 -3.3930 -1.5927 -1.4120
  431MOL0     H58123   3.097   9.757   1.364 -0.4555 -0.5404 -0.7660
  431MOL0     H58124   2.980   9.698   1.598 -0.0630 -1.9129  3.5886
  431MOL0     H58125   3.037   9.526   1.567 -1.0499  0.4040 -0.7597
  431MOL0     H58126   3.269   9.645   1.529  0.5519 -0.6111 -0.3991
  431MOL0     H58127   3.194   9.784   1.596 -1.0176  0.1624 -1.4693
  431MOL0     H58128   3.119   9.614   1.810  0.8273 -0.3297  3.4327
  431MOL0     H58129   3.248   9.520   1.750  0.1932  0.0906 -0.8755
  431MOL0     H58130   3.351   9.680   1.926 -3.2772  0.7544  1.1438
  431MOL0     H58131   3.382   9.741   1.755 -2.1385 -0.3092 -2.4000
  431MOL0     H58132   3.292   9.932   1.895 -2.6946  2.4185  1.3382
  431MOL0     H58133   3.169   9.873   1.792  3.3922 -2.3568 -3.0771
  431MOL0     H58134   3.098   9.708   1.979 -0.0880 -0.5317 -1.2957
  431MOL0     H58135   3.055   9.877   2.000  0.0738 -0.1291  2.0009
  431MOL0     H58136   3.225  10.037   2.149  0.6092  0.2289  0.3685
  431MOL0     H58137   3.437   9.914   2.464 -0.3279  0.6468  1.7311
  431MOL0     H58138   3.448  10.044   2.346  2.3793 -3.0665 -0.2976
  431MOL0     H58139   3.210  10.100   2.438 -0.8168 -1.6985 -0.9008
  431MOL0     H58140   3.367  10.139   2.537  0.8343  0.5367 -1.0297
  431MOL0     H58141   3.318   9.997   2.700 -1.7346 -1.8854  2.6646
  431MOL0     H58142   3.233   9.883   2.586  1.6913  0.6558 -1.0969
  431MOL0     H58143   3.119  10.145   2.713 -0.9040 -0.9346  1.8554
  431MOL0     H58144   3.081   9.985   2.757 -2.2937  1.9752  0.4483
  431MOL0     H58145   2.930   9.913   2.379 -1.0487  1.0666 -1.4402
  431MOL0     H58146   2.854   9.751   2.257 -0.0925 -0.0482 -0.7805
  431MOL0     H58147   2.736   9.623   2.292 -5.3966  0.4948 -0.3887
  431MOL0     H58148   2.675   9.776   2.265  1.0259  1.0600 -0.2176
  431MOL0     H58149   2.309   9.610   2.641  1.9935 -0.6205 -0.4936
  431MOL0     H58150   2.148   9.417   2.620  1.3178  1.9684  0.2127
  431MOL0     H58151   2.218   9.073   2.581 -0.7919  3.3000 -0.6664
  431MOL0     H58152   2.280   9.016   2.745 -0.0532  0.1046 -0.5830
  431MOL0     H58153   2.010   8.987   2.650  0.1990 -3.2259 -1.3539
  431MOL0     H58154   2.117   8.867   2.699  1.0704  0.5253  2.0556
  431MOL0     H58155   1.996   9.068   2.869  1.5773  0.3061  0.1258
  431MOL0     H58156   2.149   8.989   2.925  0.1847 -0.1079 -0.4528
  431MOL0     H58157   1.886   8.848   2.854 -2.0903 -3.1498  3.0451
  431MOL0     H58158   2.029   8.765   2.925  2.2718  0.1795  0.7269
  431MOL0     H58159   1.804   8.939   3.038 -0.8809 -1.7882 -0.6142
  431MOL0     H58160   1.960   8.925   3.126  0.2042  1.7212 -0.6422
  431MOL0     H58161   1.906   8.675   3.146 -1.0738  0.6555  2.0936
  431MOL0     H58162   1.793   8.768   3.213 -1.7657 -3.0180  1.3515
  431MOL0     H58163   1.766   8.614   2.943  1.1764 -1.4646  1.3700
  431MOL0     H58164   1.679   8.759   2.960  1.3080  2.4635  0.5979
  431MOL0     H58165   1.674   8.541   3.169  0.0238 -0.0225  1.6428
  431MOL0     H58166   1.574   8.551   3.017  0.6350 -1.2872  1.8292
  431MOL0     H58167   2.446   9.151   2.786 -1.6220  0.3304  2.9133
  431MOL0     H58168   2.612   9.322   2.776  0.5902  3.6807  3.2664
  431MOL0     H58169   2.696   9.761   2.785 -1.6447  0.7172  0.5888
  431MOL0     H58170   2.882   9.942   2.799  2.5083  0.2995 -1.6735
  431MOL0     H58171   2.684   9.830   1.108 -2.1948  0.7735 -0.8949
  431MOL0     H58172   2.441   9.873   1.163 -1.8801 -0.9912  0.0253
  431MOL0     H58173   1.962   9.839   1.272  0.6840  2.3871 -0.8725
  431MOL0     H58174   1.766   9.903   1.409 -0.0558 -0.2000 -0.1332
  431MOL0     H58175   1.827   9.957   1.852 -2.4149  0.2044  2.0510
  431MOL0     H58176   1.824  10.118   1.792 -0.9769 -0.4828 -0.0050
  431MOL0     H58177   1.572   9.947   1.786 -0.2852 -0.1417  2.5447
  431MOL0     H58178   1.587  10.113   1.738 -0.9215  0.5190 -0.3775
  431MOL0     H58179   1.610  10.181   1.985 -1.5754  0.6754 -0.2272
  431MOL0     H58180   1.652  10.001   2.009  0.4606 -1.5070 -2.9531
  431MOL0     H58181   1.415   9.948   1.927 -1.7757 -0.5320 -0.8773
  431MOL0     H58182   1.398  10.118   1.891 -0.5267  0.6133  1.8418
  431MOL0     H58183   1.355  10.087   2.324 -0.6251 -0.5404 -0.6338
  431MOL0     H58184   2.019  10.000   1.734 -1.0298 -0.2086 -0.0173
  431MOL0     H58185   2.232   9.943   1.585  1.4054  1.8311 -0.8153
  432MOL0     O58186   3.580   1.870   1.812  1.0071  0.1477  1.1366
  432MOL0     C58187   3.459   1.837   1.808 -0.2327  0.2476  0.9097
  432MOL0     O58188   3.360   1.906   1.739  0.3233 -0.5485 -0.6671
  432MOL0     C58189   3.376   2.047   1.724  0.3710  0.4779  0.0229
  432MOL0     C58190   3.311   2.104   1.610 -0.6991  0.3637 -0.3857
  432MOL0     C58191   3.304   2.241   1.590  0.6980  0.8601 -0.3377
  432MOL0     C58192   3.369   2.323   1.678 -0.9360 -0.0872  0.4998
  432MOL0     O58193   3.377   2.459   1.651  0.4063 -0.4673 -0.3135
  432MOL0     C58194   3.427   2.495   1.525  0.1489 -0.7778  0.8160
  432MOL0     C58195   3.487   2.639   1.518 -0.5016  0.5257 -0.2384
  432MOL0     C58196   3.640   2.637   1.548 -0.4296  0.2774  0.1682
  432MOL0     C58197   3.670   2.715   1.674  0.5350 -0.5156 -0.5784
  432MOL0     C58198   3.628   2.650   1.808 -0.3805 -0.4803  0.2909
  432MOL0     C58199   3.692   2.710   1.933  0.0442 -0.5241 -0.0280
  432MOL0     C58200   3.686   2.633   2.066  0.1470 -0.6668 -0.6899
  432MOL0     C58201   3.810   2.537   2.094  0.4743 -0.7679 -0.5956
  432MOL0     N58202   3.825   2.446   1.981  0.7305 -0.4456 -0.1349
  432MOL0     C58203   3.764   2.330   1.943 -0.4839  0.0946  0.2422
  432MOL0     C58204   3.832   2.275   1.847 -0.1952 -0.7261 -1.2479
  432MOL0     C58205   3.791   2.139   1.782  0.0307 -0.0144  0.4945
  432MOL0     C58206   3.901   2.069   1.701 -0.2101  0.1998  0.0733
  432MOL0     C58207   4.000   1.994   1.796 -0.3362 -0.5856  0.3794
  432MOL0     C58208   4.115   1.924   1.719  0.2017  0.8221  0.3605
  432MOL0     O58209   4.207   1.860   1.810 -0.4836  0.1295 -0.1849
  432MOL0     C58210   4.185   1.734   1.848 -0.2191  0.1213 -0.1054
  432MOL0     C58211   4.076   1.653   1.830  0.3415  0.1898 -0.2633
  432MOL0     C58212   4.052   1.533   1.900 -0.3587  0.0876 -0.1337
  432MOL0     C58213   3.913   1.469   1.883  0.6160 -0.4078 -0.2947
  432MOL0     C58214   4.155   1.486   1.991 -0.2575  0.3004 -1.3820
  432MOL0     C58215   4.151   1.356   2.072  0.6154 -0.6221  0.5896
  432MOL0     O58216   4.263   1.327   2.137  0.0367 -0.1194  0.2622
  432MOL0     C58217   4.268   1.206   2.220  0.0634  0.3304  1.0492
  432MOL0     C58218   4.385   1.208   2.298  0.3250  0.2446  1.0409
  432MOL0     C58219   4.424   1.103   2.377 -0.0944  0.4620 -0.1004
  432MOL0     C58220   4.344   0.993   2.404  0.2043 -0.2475  1.1050
  432MOL0     O58221   4.376   0.901   2.501 -0.2807  0.1838 -0.2072
  432MOL0     C58222   4.290   0.791   2.530  0.3693 -0.3284 -0.8788
  432MOL0     C58223   4.353   0.683   2.627  0.6806 -0.5415 -0.2134
  432MOL0     C58224   4.436   0.743   2.742 -0.8238  0.4220  0.6850
  432MOL0     C58225   4.355   0.816   2.851  0.0761  1.0425  0.4683
  432MOL0     C58226   4.445   0.905   2.935  0.4257 -0.5567 -0.5780
  432MOL0     C58227   4.536   0.835   3.037 -0.1058  0.5113 -0.5354
  432MOL0     C58228   4.618   0.946   3.107  0.5961 -1.7742 -0.5960
  432MOL0     C58229   4.676   0.885   3.237  0.3356  0.3524  1.4911
  432MOL0    Cl58230   4.752   1.023   3.332 -0.7271 -0.4255  0.2380
  432MOL0     C58231   4.226   0.984   2.326  0.2394 -0.3954 -0.3802
  432MOL0     C58232   4.193   1.085   2.230  1.1978  0.6737  0.5647
  432MOL0     O58233   4.045   1.294   2.082  0.5472 -0.5747 -0.6039
  432MOL0     C58234   4.265   1.571   2.021 -0.2688  0.9431  0.3704
  432MOL0     C58235   4.275   1.696   1.950  0.4292  0.0336 -0.0960
  432MOL0     N58236   3.939   2.352   1.818  0.5595 -0.1617 -0.4835
  432MOL0     N58237   3.931   2.451   1.895  0.2165 -0.1570 -0.4049
  432MOL0     C58238   3.431   2.274   1.789  0.1458  0.6922  0.0350
  432MOL0     C58239   3.440   2.133   1.813  0.1513 -0.4501  0.4118
  432MOL0     C58240   3.419   1.704   1.864  0.7143  0.2399 -0.1043
  432MOL0     C58241   3.281   1.664   1.872  0.2135  0.7120 -0.2146
  432MOL0     C58242   3.246   1.531   1.906  0.2443 -0.3498 -0.4721
  432MOL0     C58243   3.356   1.440   1.957  0.5279 -0.4110 -0.2586
  432MOL0     O58244   3.321   1.318   2.006  0.2504 -0.2530  0.0373
  432MOL0     C58245   3.386   1.282   2.126 -0.8100  0.9070 -0.1959
  432MOL0     C58246   3.296   1.209   2.228 -0.1105  0.5206  0.1039
  432MOL0     C58247   3.233   1.083   2.162  0.3532 -0.0171  1.0070
  432MOL0     C58248   3.184   0.989   2.267  0.5323 -0.1185 -0.5674
  432MOL0     C58249   3.083   1.053   2.354 -0.8614  0.7817  0.8872
  432MOL0     C58250   2.980   1.096   2.398  1.4405  0.3871  0.3431
  432MOL0     C58251   3.492   1.486   1.965 -0.5179  0.0883  0.5892
  432MOL0     C58252   3.523   1.614   1.909  0.1236  0.8445 -0.0462
  432MOL0     H58253   3.256   2.033   1.550 -0.8499  0.9259 -0.9166
  432MOL0     H58254   3.265   2.281   1.496  0.2222  0.5906 -0.2600
  432MOL0     H58255   3.494   2.412   1.501 -0.3572 -1.2292  0.9325
  432MOL0     H58256   3.343   2.480   1.455  0.8892  2.2960 -0.9070
  432MOL0     H58257   3.481   2.676   1.415 -1.0231 -1.8962 -1.1568
  432MOL0     H58258   3.432   2.706   1.584 -1.6906 -2.1026  1.5751
  432MOL0     H58259   3.689   2.542   1.574 -0.3811  0.5591  1.1700
  432MOL0     H58260   3.700   2.677   1.467  2.0448 -1.0699  1.2129
  432MOL0     H58261   3.779   2.723   1.675  0.5290  0.2134  2.1201
  432MOL0     H58262   3.638   2.820   1.664  0.6622 -0.4512 -0.3347
  432MOL0     H58263   3.520   2.658   1.825 -0.7947  1.2369 -2.5620
  432MOL0     H58264   3.660   2.546   1.815  0.7465 -0.1199  0.7072
  432MOL0     H58265   3.797   2.729   1.908  0.0431 -0.1467  0.2535
  432MOL0     H58266   3.655   2.810   1.958  2.9621  0.7702 -0.4627
  432MOL0     H58267   3.692   2.712   2.141 -0.3291 -1.4949  0.2474
  432MOL0     H58268   3.590   2.585   2.088  2.2155 -4.0035  2.1681
  432MOL0     H58269   3.810   2.486   2.191 -1.5023 -0.9206 -0.6307
  432MOL0     H58270   3.888   2.613   2.103  0.9694 -1.4393  1.2193
  432MOL0     H58271   3.668   2.313   1.990 -0.9879  1.3823 -0.2656
  432MOL0     H58272   3.747   2.072   1.857  0.2255 -1.8016 -0.9032
  432MOL0     H58273   3.714   2.170   1.710  0.3743 -0.9070 -0.2802
  432MOL0     H58274   3.956   2.143   1.643  1.1106  1.0390  2.2748
  432MOL0     H58275   3.847   1.996   1.639 -0.9143 -1.0177  2.0188
  432MOL0     H58276   3.951   1.922   1.861  0.0582 -0.8385  0.4010
  432MOL0     H58277   4.047   2.063   1.867  0.5113 -2.2368  1.4674
  432MOL0     H58278   4.164   2.000   1.657 -0.1334  0.6244 -0.1590
  432MOL0     H58279   4.067   1.852   1.651 -0.9437  1.2526  0.6947
  432MOL0     H58280   3.994   1.686   1.767 -0.7651  1.0310  1.5472
  432MOL0     H58281   3.934   1.370   1.841  1.6848  0.2566 -1.4133
  432MOL0     H58282   3.850   1.466   1.972 -1.6934 -1.6568 -1.8927
  432MOL0     H58283   3.844   1.524   1.820 -0.6898  2.9449  3.6034
  432MOL0     H58284   4.428   1.307   2.287 -2.3159  1.1967 -3.1609
  432MOL0     H58285   4.521   1.102   2.425  1.4864 -4.1803 -2.8405
  432MOL0     H58286   4.203   0.825   2.587  2.0412 -0.5138  1.9532
  432MOL0     H58287   4.271   0.748   2.431 -2.0132  0.3366 -0.7704
  432MOL0     H58288   4.268   0.623   2.661 -0.5294  0.0821 -2.0037
  432MOL0     H58289   4.420   0.619   2.568 -1.0210 -2.2691 -0.3681
  432MOL0     H58290   4.504   0.810   2.690 -1.3935 -0.5596 -1.4136
  432MOL0     H58291   4.506   0.665   2.777 -0.7828 -0.0369 -0.3916
  432MOL0     H58292   4.275   0.876   2.807  0.6258  0.8235 -0.8696
  432MOL0     H58293   4.307   0.746   2.920 -0.2675 -1.9269 -2.5398
  432MOL0     H58294   4.383   0.979   2.988  0.9237 -1.2227  1.0156
  432MOL0     H58295   4.512   0.962   2.870  1.2738  3.5420  3.3269
  432MOL0     H58296   4.467   0.788   3.108  2.6814 -3.9918 -0.4359
  432MOL0     H58297   4.597   0.767   2.977 -1.4790 -1.0900 -0.1941
  432MOL0     H58298   4.558   1.034   3.132  1.1578 -0.7228 -2.6926
  432MOL0     H58299   4.699   0.993   3.049 -1.5673 -0.9609 -3.2002
  432MOL0     H58300   4.756   0.813   3.218  0.8797  0.6585  2.5394
  432MOL0     H58301   4.592   0.840   3.291 -1.7226  2.0394 -0.1099
  432MOL0     H58302   4.148   0.910   2.341  1.3171 -0.9465  3.9638
  432MOL0     H58303   4.097   1.074   2.181  0.8700  1.9627  0.8970
  432MOL0     H58304   4.336   1.554   2.102 -0.3306  2.5500  0.7973
  432MOL0     H58305   4.349   1.770   1.978  2.6532 -1.4717 -1.6360
  432MOL0     H58306   3.482   2.346   1.852 -1.5152  1.1076  0.9623
  432MOL0     H58307   3.486   2.094   1.903 -0.4016 -2.4291 -0.1006
  432MOL0     H58308   3.207   1.735   1.839 -1.3604 -0.6559  0.2286
  432MOL0     H58309   3.142   1.505   1.892 -0.5706  1.8877  0.8259
  432MOL0     H58310   3.467   1.222   2.086 -0.4785  2.4270 -1.9464
  432MOL0     H58311   3.449   1.363   2.165  0.1930 -1.6846  4.2819
  432MOL0     H58312   3.223   1.280   2.269 -0.7609  0.8650 -1.5664
  432MOL0     H58313   3.361   1.198   2.315  0.2083  1.7927  0.0513
  432MOL0     H58314   3.299   1.019   2.104 -1.5695 -1.4497  0.2861
  432MOL0     H58315   3.145   1.110   2.103  0.6848  0.9862  0.9494
  432MOL0     H58316   3.264   0.973   2.339 -0.5847 -1.7243  0.3672
  432MOL0     H58317   3.137   0.900   2.224 -1.6419 -0.4060  2.1505
  432MOL0     H58318   2.892   1.132   2.448  0.5955 -3.5740  2.0629
  432MOL0     H58319   3.576   1.427   2.003 -0.5596 -0.6597 -0.4554
  432MOL0     H58320   3.629   1.638   1.908  0.1389  0.7624 -0.5385
  433MOL0     O58321   6.390   4.110   5.829 -0.3500 -0.0958 -0.3698
  433MOL0     C58322   6.341   4.086   5.937  0.2036 -0.1970  0.7396
  433MOL0     O58323   6.417   4.065   6.047 -0.4574 -0.1795  0.5647
  433MOL0     C58324   6.559   4.062   6.047 -0.1464  1.0128 -0.0416
  433MOL0     C58325   6.635   4.111   6.149  0.2636 -0.5523  0.2720
  433MOL0     C58326   6.774   4.116   6.140  0.0101  1.3656  0.0208
  433MOL0     C58327   6.843   4.067   6.025  0.2298 -0.0499  0.7480
  433MOL0     O58328   6.981   4.082   6.016 -0.2834 -0.2724 -0.4578
  433MOL0     C58329   7.056   4.046   6.137  0.2648  0.2545 -0.5242
  433MOL0     C58330   7.209   4.050   6.138 -0.5692 -0.6198  0.1742
  433MOL0     C58331   7.256   3.917   6.095  1.0498  0.4054  1.1135
  433MOL0     C58332   7.217   3.866   5.949 -0.6157 -0.2396 -0.5688
  433MOL0     C58333   7.287   3.734   5.934 -0.5054 -0.0580 -0.2617
  433MOL0     C58334   7.283   3.691   5.794 -0.3454 -0.3395 -0.8405
  433MOL0     C58335   7.346   3.556   5.766  0.1341  0.8308  0.7853
  433MOL0     C58336   7.315   3.503   5.620  0.3542 -0.1673 -0.6561
  433MOL0     N58337   7.346   3.356   5.589 -0.3035 -0.4486  0.5750
  433MOL0     C58338   7.460   3.286   5.614  0.3136 -0.1070  1.3027
  433MOL0     C58339   7.424   3.160   5.592  0.4008  1.2953 -0.2394
  433MOL0     C58340   7.525   3.041   5.602  0.3291 -0.6823  0.3505
  433MOL0     C58341   7.517   2.948   5.474 -0.0322  0.5797 -0.1198
  433MOL0     C58342   7.403   2.847   5.508 -0.2322 -0.6231 -0.5273
  433MOL0     C58343   7.357   2.766   5.384  0.3481 -0.3146 -0.3776
  433MOL0     O58344   7.455   2.674   5.340  0.0959  0.7718  0.2738
  433MOL0     C58345   7.405   2.570   5.263 -1.5509 -0.3190  0.4020
  433MOL0     C58346   7.496   2.468   5.221  0.0702 -0.8261  0.1972
  433MOL0     C58347   7.460   2.361   5.137  0.2018 -0.5455  0.0283
  433MOL0     C58348   7.563   2.257   5.115 -0.2480 -0.3069  0.6948
  433MOL0     C58349   7.326   2.349   5.100 -0.5716 -0.6704  0.3035
  433MOL0     C58350   7.271   2.239   5.013  0.2591 -0.4726 -0.3274
  433MOL0     O58351   7.136   2.220   5.043  0.2880 -0.0585  0.2568
  433MOL0     C58352   7.072   2.132   4.964  0.3715  0.6305  0.0635
  433MOL0     C58353   7.039   2.003   5.016  0.3010  0.0773  0.4442
  433MOL0     C58354   6.960   1.909   4.932 -0.0706 -0.7094 -0.8451
  433MOL0     C58355   6.926   1.947   4.806  1.3450  0.4746  0.4506
  433MOL0     O58356   6.864   1.842   4.741 -0.6118 -0.4798  0.4607
  433MOL0     C58357   6.813   1.863   4.606 -0.3979 -0.9550 -1.3300
  433MOL0     C58358   6.683   1.940   4.609 -0.4386  0.3641 -0.3118
  433MOL0     C58359   6.572   1.880   4.707  1.1104 -0.3334 -0.9726
  433MOL0     C58360   6.531   1.739   4.675 -0.0526 -0.1165 -0.2870
  433MOL0     C58361   6.430   1.677   4.783  0.2166 -0.9322  0.0388
  433MOL0     C58362   6.454   1.531   4.819  0.0431 -0.7334  0.0316
  433MOL0     C58363   6.351   1.478   4.912 -1.3311 -1.0617 -0.1615
  433MOL0     C58364   6.354   1.329   4.925 -0.6134 -0.2950 -1.2578
  433MOL0    Cl58365   6.273   1.268   4.788  0.1137  0.0620  0.3409
  433MOL0     C58366   6.974   2.065   4.752  0.1217 -0.1065  0.0685
  433MOL0     C58367   7.036   2.163   4.830  0.0903 -0.0038 -0.9457
  433MOL0     O58368   7.333   2.193   4.918  0.5920 -0.2811  0.2966
  433MOL0     C58369   7.244   2.456   5.136  0.9486  0.3430 -0.3582
  433MOL0     C58370   7.279   2.562   5.219  0.6016 -0.4408  0.9506
  433MOL0     N58371   7.288   3.153   5.563  0.1795  1.2088  0.4943
  433MOL0     N58372   7.249   3.271   5.556  0.4168 -0.0968  0.4667
  433MOL0     C58373   6.766   4.009   5.924 -0.5023  0.0664 -0.9986
  433MOL0     C58374   6.626   4.016   5.933  0.1424  0.1915  1.2036
  433MOL0     C58375   6.197   4.070   5.953  0.4962 -1.2982 -0.5926
  433MOL0     C58376   6.135   4.047   6.083 -0.7510  0.8573 -0.3299
  433MOL0     C58377   5.994   4.021   6.093  0.0377  0.8730  0.2299
  433MOL0     C58378   5.914   4.023   5.983  0.3851  0.0366 -0.4593
  433MOL0     O58379   5.787   3.996   6.000 -0.4080  0.2205  0.1726
  433MOL0     C58380   5.697   3.976   5.892 -0.2559 -0.7310 -0.1481
  433MOL0     C58381   5.710   3.854   5.801 -0.1988 -0.2507  0.0966
  433MOL0     C58382   5.646   3.725   5.864 -0.2091 -0.9650 -0.9277
  433MOL0     C58383   5.646   3.610   5.756  0.2357 -0.2676 -0.0321
  433MOL0     C58384   5.766   3.530   5.771 -0.2684  0.0933 -0.0590
  433MOL0     C58385   5.868   3.462   5.771 -0.3453  0.3165  0.4579
  433MOL0     C58386   5.979   4.045   5.858  0.0081  0.9076  1.1098
  433MOL0     C58387   6.109   4.072   5.841  0.4410  0.0448 -0.3783
  433MOL0     H58388   6.578   4.144   6.235 -1.6679 -0.3582 -1.0100
  433MOL0     H58389   6.831   4.170   6.214 -1.7818  2.9515  0.3212
  433MOL0     H58390   7.027   4.120   6.213 -0.6833 -0.3837 -0.2422
  433MOL0     H58391   7.033   3.943   6.166  0.4508  0.2663 -0.3385
  433MOL0     H58392   7.239   4.121   6.060  0.8278 -2.6650 -1.2238
  433MOL0     H58393   7.243   4.084   6.236 -4.2762 -0.1501  1.4505
  433MOL0     H58394   7.366   3.920   6.099  1.1606 -2.3972  2.4695
  433MOL0     H58395   7.245   3.841   6.173  0.0329 -0.1578  0.4386
  433MOL0     H58396   7.110   3.858   5.932 -0.6728 -2.4656  0.5257
  433MOL0     H58397   7.260   3.932   5.873  0.7473 -2.7758 -2.1249
  433MOL0     H58398   7.391   3.743   5.965 -0.3446  0.0537 -0.8188
  433MOL0     H58399   7.249   3.655   5.999 -0.7118  1.5708  1.6807
  433MOL0     H58400   7.177   3.690   5.765 -1.5257  3.6242  2.3856
  433MOL0     H58401   7.331   3.768   5.734 -1.1412 -1.6024 -3.2344
  433MOL0     H58402   7.454   3.550   5.777  0.3734 -0.6928 -1.6669
  433MOL0     H58403   7.308   3.485   5.840  2.3147 -1.1998  0.0806
  433MOL0     H58404   7.377   3.563   5.552 -0.9225 -0.3119 -2.0127
  433MOL0     H58405   7.211   3.513   5.586 -0.1919 -5.3851 -1.4479
  433MOL0     H58406   7.561   3.324   5.630  0.6424 -0.9364  1.2417
  433MOL0     H58407   7.623   3.089   5.596  0.1137 -0.1846  0.7454
  433MOL0     H58408   7.521   2.994   5.701  0.1064 -1.3293  0.0444
  433MOL0     H58409   7.595   2.871   5.464 -0.8495 -0.2226 -0.5634
  433MOL0     H58410   7.498   2.989   5.374  1.5177 -2.7622 -1.9989
  433MOL0     H58411   7.313   2.894   5.550  0.4625 -1.2050  1.7491
  433MOL0     H58412   7.438   2.782   5.589  1.3667  0.9181  0.0752
  433MOL0     H58413   7.333   2.844   5.311 -2.1426  1.3580  2.0048
  433MOL0     H58414   7.260   2.722   5.409 -0.2787  1.2183 -0.0036
  433MOL0     H58415   7.597   2.485   5.255  0.0254 -0.4231  0.1322
  433MOL0     H58416   7.659   2.287   5.072 -0.1216  0.2888  1.3715
  433MOL0     H58417   7.582   2.241   5.221  2.9338  1.3062  0.4767
  433MOL0     H58418   7.532   2.170   5.056  1.8425 -0.0418 -0.9429
  433MOL0     H58419   7.055   1.980   5.121 -2.7446 -1.2063  0.7364
  433MOL0     H58420   6.929   1.818   4.982 -0.3993 -0.5921 -0.8376
  433MOL0     H58421   6.890   1.904   4.541  2.6266 -2.5970  0.9500
  433MOL0     H58422   6.787   1.766   4.561  0.8993 -3.1096  2.1184
  433MOL0     H58423   6.713   2.042   4.637  1.4790  1.1239 -4.3877
  433MOL0     H58424   6.656   1.950   4.504 -1.3438 -1.0660 -0.2412
  433MOL0     H58425   6.485   1.944   4.694  0.8657 -0.4865 -0.1359
  433MOL0     H58426   6.619   1.875   4.806  1.9367  0.4810 -1.3102
  433MOL0     H58427   6.505   1.733   4.569  0.6479 -1.8508 -0.3873
  433MOL0     H58428   6.622   1.681   4.692 -0.8481 -1.0720  0.8751
  433MOL0     H58429   6.327   1.699   4.755  0.4015  0.3726  0.3048
  433MOL0     H58430   6.448   1.733   4.876 -1.0230 -1.5916  0.7033
  433MOL0     H58431   6.455   1.465   4.731 -2.3334  0.7113 -1.1970
  433MOL0     H58432   6.551   1.523   4.869 -0.2782 -1.5980  0.5349
  433MOL0     H58433   6.257   1.493   4.859  0.3552 -2.0966 -3.7988
  433MOL0     H58434   6.363   1.524   5.010  2.4435 -1.3144 -0.3514
  433MOL0     H58435   6.294   1.307   5.013  0.7857 -1.3867 -0.5468
  433MOL0     H58436   6.455   1.290   4.940 -0.8870 -1.5318 -2.4600
  433MOL0     H58437   6.976   2.099   4.649  0.9384 -0.9554 -0.2158
  433MOL0     H58438   7.075   2.255   4.787  4.1873 -2.1439 -2.4198
  433MOL0     H58439   7.143   2.460   5.096  0.2541  0.8924  1.3195
  433MOL0     H58440   7.216   2.650   5.217  1.3134  0.1006 -2.3899
  433MOL0     H58441   6.798   3.975   5.826 -0.6309 -3.5393  0.0706
  433MOL0     H58442   6.581   3.974   5.843  3.6925 -2.9895  0.6545
  433MOL0     H58443   6.197   4.036   6.171 -1.0944 -2.1506 -0.3633
  433MOL0     H58444   5.949   4.003   6.190 -0.6829  0.8001 -0.1155
  433MOL0     H58445   5.597   3.972   5.937 -0.8903  0.2712 -1.3684
  433MOL0     H58446   5.716   4.062   5.826  1.1441 -1.1124 -0.2637
  433MOL0     H58447   5.816   3.837   5.779  0.5074  0.7786  2.4484
  433MOL0     H58448   5.652   3.890   5.715 -0.6808  2.2835  1.3951
  433MOL0     H58449   5.547   3.745   5.905  1.1010 -1.9097  3.1429
  433MOL0     H58450   5.696   3.691   5.955  0.0034  1.7389  0.0597
  433MOL0     H58451   5.635   3.657   5.658 -0.6305  0.8976  0.6027
  433MOL0     H58452   5.563   3.543   5.779  0.7781 -1.2016 -0.7320
  433MOL0     H58453   5.955   3.400   5.770  0.4525  1.4093  0.7936
  433MOL0     H58454   5.915   4.049   5.771 -0.1364 -1.3618  1.0563
  433MOL0     H58455   6.139   4.080   5.737  0.7476 -0.2549 -0.3166
  434MOL0     O58456   2.317   7.878   2.236  0.2707  0.1504 -0.1258
  434MOL0     C58457   2.329   7.864   2.361 -0.5908 -0.1244  0.3129
  434MOL0     O58458   2.408   7.939   2.439  0.0016  0.4848 -0.0086
  434MOL0     C58459   2.460   8.062   2.402 -0.5159 -0.5658 -0.5090
  434MOL0     C58460   2.401   8.163   2.321  0.2149 -1.0522  0.4877
  434MOL0     C58461   2.470   8.283   2.289 -0.1196 -1.0238 -0.0521
  434MOL0     C58462   2.598   8.305   2.349  0.3462  0.0165 -0.1562
  434MOL0     O58463   2.670   8.421   2.334 -0.4301  1.0809 -0.2857
  434MOL0     C58464   2.639   8.522   2.242  1.0881  0.4430 -0.4434
  434MOL0     C58465   2.765   8.558   2.183  0.0369  0.5505  0.6993
  434MOL0     C58466   2.838   8.667   2.259 -0.3213  0.3321  0.5121
  434MOL0     C58467   2.977   8.690   2.193 -0.9054 -0.1234 -0.6583
  434MOL0     C58468   3.076   8.774   2.272  0.2434 -0.1866 -0.8369
  434MOL0     C58469   3.197   8.810   2.187  0.6899  0.7974  0.3751
  434MOL0     C58470   3.285   8.913   2.262  0.7760 -0.2132  0.7161
  434MOL0     C58471   3.430   8.908   2.209  0.5446 -0.9237 -0.2948
  434MOL0     N58472   3.445   8.932   2.069 -0.0352  0.2162  0.1169
  434MOL0     C58473   3.390   9.031   2.000  0.1667 -0.4758  0.7092
  434MOL0     C58474   3.460   9.042   1.883  0.5088 -0.8811  0.3110
  434MOL0     C58475   3.432   9.132   1.763  0.4018  0.6247  0.2810
  434MOL0     C58476   3.320   9.072   1.662 -0.1314 -0.3246 -0.3945
  434MOL0     C58477   3.351   8.939   1.587  0.6744 -0.0207  1.5378
  434MOL0     C58478   3.313   8.809   1.667 -0.7207 -0.4157 -0.2470
  434MOL0     O58479   3.177   8.806   1.713 -0.0740  0.3835  0.1383
  434MOL0     C58480   3.130   8.687   1.756 -0.1019 -0.2604 -0.5019
  434MOL0     C58481   2.997   8.678   1.737  0.6648  0.5430  0.8349
  434MOL0     C58482   2.924   8.561   1.769  1.3044 -0.3138  0.3236
  434MOL0     C58483   2.769   8.576   1.739  1.1277  0.4266 -0.4186
  434MOL0     C58484   2.995   8.447   1.817  0.3540  1.0685 -0.2022
  434MOL0     C58485   2.934   8.315   1.856 -0.2073 -0.2184  0.7709
  434MOL0     O58486   3.012   8.207   1.868 -0.3385 -0.5377 -0.5759
  434MOL0     C58487   2.969   8.107   1.963  0.3951 -0.7801  1.2495
  434MOL0     C58488   3.042   7.992   1.963 -0.1363  0.0830 -0.0131
  434MOL0     C58489   3.020   7.883   2.047  0.6034  0.1143  0.8005
  434MOL0     C58490   2.914   7.890   2.131  1.1340 -0.6402 -0.8554
  434MOL0     O58491   2.900   7.778   2.215  0.6471 -0.2106 -0.2839
  434MOL0     C58492   2.798   7.791   2.317  0.1606  0.3988  0.2958
  434MOL0     C58493   2.660   7.735   2.287 -0.6677 -0.1922  0.2331
  434MOL0     C58494   2.672   7.600   2.195  0.6944 -1.0365 -0.2615
  434MOL0     C58495   2.536   7.523   2.199 -0.2442  0.6229  0.0325
  434MOL0     C58496   2.552   7.378   2.142  0.2437  0.4464  0.3905
  434MOL0     C58497   2.422   7.289   2.159 -0.5728  0.3862  0.0470
  434MOL0     C58498   2.312   7.329   2.065  0.3584 -0.1886  0.9991
  434MOL0     C58499   2.212   7.219   2.054 -0.2078  0.8159  1.1655
  434MOL0    Cl58500   2.100   7.196   2.206 -0.0261 -0.0934 -0.1309
  434MOL0     C58501   2.821   8.001   2.125 -0.3253 -0.0646 -0.2412
  434MOL0     C58502   2.862   8.112   2.054 -0.1734 -0.5743  0.8295
  434MOL0     O58503   2.817   8.317   1.869  0.7899 -0.0067 -0.0035
  434MOL0     C58504   3.138   8.458   1.833  0.4035  0.1381  0.0508
  434MOL0     C58505   3.205   8.580   1.802 -0.5624  0.1004 -0.4755
  434MOL0     N58506   3.557   8.943   1.886 -0.6017  0.7094 -0.0594
  434MOL0     N58507   3.554   8.881   1.998  0.2715 -0.1671  0.2734
  434MOL0     C58508   2.642   8.218   2.436 -0.1288  0.3646 -0.0390
  434MOL0     C58509   2.583   8.097   2.466  0.2672  0.0095  0.4987
  434MOL0     C58510   2.270   7.737   2.411  1.5003 -0.5193 -0.2121
  434MOL0     C58511   2.258   7.713   2.545  0.4318 -0.3955 -0.1082
  434MOL0     C58512   2.209   7.596   2.595  0.0478  0.3942 -0.2798
  434MOL0     C58513   2.153   7.499   2.514  0.1967 -0.1692  0.7721
  434MOL0     O58514   2.082   7.396   2.579  0.1683  0.2531  0.1369
  434MOL0     C58515   1.950   7.391   2.536  0.2212  0.2822  0.4548
  434MOL0     C58516   1.860   7.362   2.650  0.6254  0.3378  1.3871
  434MOL0     C58517   1.883   7.434   2.776  0.6968 -0.5659 -0.3970
  434MOL0     C58518   1.754   7.470   2.856 -0.1122 -0.0789  0.5346
  434MOL0     C58519   1.669   7.563   2.769 -0.0526 -0.1124  0.4525
  434MOL0     C58520   1.614   7.648   2.702  0.0392 -0.4178  0.4235
  434MOL0     C58521   2.153   7.531   2.373  0.4548  1.2957 -0.7046
  434MOL0     C58522   2.222   7.642   2.324  0.2900 -0.2831  0.2903
  434MOL0     H58523   2.300   8.149   2.285  0.0173 -0.6952  0.8947
  434MOL0     H58524   2.430   8.360   2.224  1.5039  0.2030  0.3418
  434MOL0     H58525   2.572   8.483   2.165 -0.8700 -1.3787  2.0203
  434MOL0     H58526   2.606   8.609   2.298  1.8410  1.2240 -1.1777
  434MOL0     H58527   2.838   8.482   2.153  1.6986  2.2581  0.2323
  434MOL0     H58528   2.745   8.607   2.087  0.1288 -2.5729 -1.0312
  434MOL0     H58529   2.784   8.761   2.257  0.9726  1.0979 -1.1802
  434MOL0     H58530   2.859   8.626   2.359 -0.9821 -2.7715 -0.5028
  434MOL0     H58531   3.017   8.590   2.174 -2.6515 -1.4029  1.7924
  434MOL0     H58532   2.958   8.743   2.099 -3.2537 -0.5394 -0.4828
  434MOL0     H58533   3.033   8.865   2.315  2.5536 -0.2012  1.7585
  434MOL0     H58534   3.113   8.707   2.351 -0.0784  0.4210 -0.1621
  434MOL0     H58535   3.250   8.718   2.161  1.0589  0.3288  2.5885
  434MOL0     H58536   3.150   8.860   2.101 -1.4898  0.4913  1.3073
  434MOL0     H58537   3.253   9.017   2.245 -1.5859 -1.1470 -1.1286
  434MOL0     H58538   3.296   8.900   2.370  0.6037 -1.4073  0.5999
  434MOL0     H58539   3.473   8.813   2.242 -2.5933 -2.5164 -0.4684
  434MOL0     H58540   3.489   8.974   2.273 -0.4212 -1.4193  1.1596
  434MOL0     H58541   3.297   9.077   2.031 -0.5066 -0.0508 -1.6773
  434MOL0     H58542   3.381   9.219   1.805  1.2322  0.5715  1.4340
  434MOL0     H58543   3.521   9.169   1.711  0.1802 -0.7939 -1.1808
  434MOL0     H58544   3.299   9.153   1.591 -1.9667 -0.0966  0.3656
  434MOL0     H58545   3.221   9.072   1.707  0.8937  0.8892  2.0141
  434MOL0     H58546   3.458   8.939   1.564  0.5558  1.6618  0.8201
  434MOL0     H58547   3.298   8.956   1.492 -2.8138  1.2217  3.5049
  434MOL0     H58548   3.373   8.811   1.758  2.4616 -1.1032 -2.1659
  434MOL0     H58549   3.330   8.716   1.612  0.0844 -0.1553 -0.4492
  434MOL0     H58550   2.938   8.761   1.701 -2.5617 -0.4322  3.3923
  434MOL0     H58551   2.706   8.579   1.828  0.6193  2.7869 -0.7827
  434MOL0     H58552   2.737   8.665   1.683 -0.4384  1.4175  1.8678
  434MOL0     H58553   2.738   8.486   1.685  0.6088  0.4594 -0.1774
  434MOL0     H58554   3.111   7.993   1.879 -2.6049 -0.6632 -2.2001
  434MOL0     H58555   3.085   7.797   2.035  0.1314 -0.0649 -0.6708
  434MOL0     H58556   2.833   7.719   2.391  0.7332 -0.6444 -0.9477
  434MOL0     H58557   2.809   7.885   2.370  0.6570 -0.5982  2.0404
  434MOL0     H58558   2.609   7.725   2.383 -0.6468  0.8409  0.3638
  434MOL0     H58559   2.606   7.801   2.219  1.8372  1.3024 -0.4347
  434MOL0     H58560   2.747   7.531   2.234 -0.2706 -1.8402  0.2251
  434MOL0     H58561   2.698   7.628   2.093 -5.0483 -0.4529 -1.9018
  434MOL0     H58562   2.506   7.511   2.303  2.4746  0.5803  0.8993
  434MOL0     H58563   2.457   7.564   2.135 -0.4370 -1.1993 -0.9704
  434MOL0     H58564   2.635   7.333   2.198 -0.7818 -1.0000  0.8200
  434MOL0     H58565   2.570   7.364   2.035  1.3535  0.7107  0.5351
  434MOL0     H58566   2.461   7.195   2.118 -3.2343 -0.6407 -0.2814
  434MOL0     H58567   2.390   7.268   2.262  1.0891 -0.2440  0.4697
  434MOL0     H58568   2.352   7.348   1.965  0.3162  0.7227  1.1457
  434MOL0     H58569   2.258   7.420   2.092  0.6234  0.2812 -0.0251
  434MOL0     H58570   2.258   7.123   2.033 -1.9346 -0.4619  2.8146
  434MOL0     H58571   2.138   7.235   1.975  0.5956 -3.7960 -0.8204
  434MOL0     H58572   2.732   8.016   2.184 -1.0454  0.3484 -1.3953
  434MOL0     H58573   2.793   8.194   2.070 -0.2923 -0.6213  0.5636
  434MOL0     H58574   3.193   8.378   1.882 -2.6907 -1.6147  0.9345
  434MOL0     H58575   3.313   8.577   1.809 -0.4364 -0.7290 -2.1069
  434MOL0     H58576   2.737   8.224   2.488 -0.8190 -0.9881  1.4970
  434MOL0     H58577   2.639   8.017   2.513  3.6888  2.1204  0.3502
  434MOL0     H58578   2.269   7.793   2.617 -4.0289  0.3885 -0.0696
  434MOL0     H58579   2.206   7.592   2.703  0.9044 -0.4605 -0.2774
  434MOL0     H58580   1.917   7.487   2.496 -2.4053 -0.9614 -0.5494
  434MOL0     H58581   1.944   7.309   2.464 -1.8304  0.7042  0.0956
  434MOL0     H58582   1.867   7.254   2.666 -3.0302 -0.0775  1.0305
  434MOL0     H58583   1.759   7.379   2.613  0.2498 -1.8687  1.2804
  434MOL0     H58584   1.934   7.530   2.765  2.1831 -1.0089  1.8223
  434MOL0     H58585   1.943   7.364   2.834  3.8284  2.9964  1.0994
  434MOL0     H58586   1.790   7.519   2.947  1.2112 -1.1000  0.5899
  434MOL0     H58587   1.690   7.386   2.887 -0.1009  0.5216  2.3037
  434MOL0     H58588   1.561   7.717   2.640  0.7238  0.7001  1.0473
  434MOL0     H58589   2.134   7.448   2.306 -0.5889  1.0433 -0.1231
  434MOL0     H58590   2.247   7.643   2.218  1.8020  0.0495  0.6228
  435MOL0     O58591   0.866   4.886   9.519 -1.3459  0.0749 -0.3732
  435MOL0     C58592   0.931   4.811   9.443  0.9661 -0.2802  0.5886
  435MOL0     O58593   1.037   4.851   9.364  0.7269  0.0433 -0.1777
  435MOL0     C58594   1.068   4.990   9.375 -0.5765  0.9964  0.2473
  435MOL0     C58595   1.066   5.065   9.259 -0.2287  0.6409 -0.0117
  435MOL0     C58596   1.101   5.205   9.253  1.0309  0.3105 -0.1529
  435MOL0     C58597   1.143   5.265   9.377  0.8115  1.0297  0.7101
  435MOL0     O58598   1.176   5.399   9.368 -0.5748 -0.3803  0.8680
  435MOL0     C58599   1.307   5.431   9.418 -0.6680 -0.1127 -0.3573
  435MOL0     C58600   1.429   5.371   9.348 -0.7571  0.0505  1.3443
  435MOL0     C58601   1.545   5.313   9.430 -0.1933 -0.0210  0.2892
  435MOL0     C58602   1.619   5.428   9.488  0.9974  0.0024  0.3496
  435MOL0     C58603   1.745   5.384   9.560  0.3167 -0.2395 -0.2955
  435MOL0     C58604   1.861   5.345   9.459  0.4994  0.5914 -0.1665
  435MOL0     C58605   2.013   5.375   9.495  0.4526 -0.2115  1.0487
  435MOL0     C58606   2.060   5.319   9.638 -0.3818 -0.2889  0.3053
  435MOL0     N58607   2.186   5.387   9.690  0.0226 -0.1271  0.1122
  435MOL0     C58608   2.197   5.451   9.808  0.0070  0.5590  0.1125
  435MOL0     C58609   2.322   5.505   9.818  0.1917  0.8688  1.2311
  435MOL0     C58610   2.396   5.563   9.935  0.4126  0.1688 -0.0027
  435MOL0     C58611   2.359   5.710   9.972  0.3166 -0.3623 -1.1223
  435MOL0     C58612   2.391   5.814   9.856  0.5132  0.6216 -1.4157
  435MOL0     C58613   2.536   5.811   9.817 -0.0366 -0.5599 -0.0403
  435MOL0     O58614   2.631   5.814   9.921 -0.4599  0.5644 -0.3296
  435MOL0     C58615   2.744   5.888   9.905  0.3205  0.6732  0.6202
  435MOL0     C58616   2.817   5.902   9.782 -0.9540  0.0461 -0.0567
  435MOL0     C58617   2.935   5.980   9.771 -0.4218 -0.6260  0.4404
  435MOL0     C58618   3.001   5.984   9.635 -0.0562 -0.0843  0.9066
  435MOL0     C58619   2.985   6.040   9.880 -0.3037 -0.2121 -0.2007
  435MOL0     C58620   3.097   6.139   9.875 -0.0285 -0.5644  0.5303
  435MOL0     O58621   3.157   6.165   9.997 -0.5919  0.2815 -0.5189
  435MOL0     C58622   3.242   6.271   9.994 -0.1600  0.6059 -0.4910
  435MOL0     C58623   3.365   6.244   9.966 -0.4580 -0.6282  0.0062
  435MOL0     C58624   3.462   6.342   9.968  0.6589 -0.6708 -0.0599
  435MOL0     C58625   3.431   6.474  10.012 -0.1136  0.2117  0.8418
  435MOL0     O58626   3.515   6.587   9.991 -0.4458 -0.4182 -0.3028
  435MOL0     C58627   3.640   6.560  10.051  0.9820 -0.2729 -0.5278
  435MOL0     C58628   3.757   6.587   9.957 -0.7463  0.3685 -0.2516
  435MOL0     C58629   3.796   6.738   9.945  0.5716 -0.5810 -0.3853
  435MOL0     C58630   3.950   6.750   9.915 -0.8162 -0.0149 -0.0533
  435MOL0     C58631   3.983   6.900   9.882 -0.4576 -0.4128  0.0121
  435MOL0     C58632   4.136   6.917   9.882  0.3823  0.3547 -0.4179
  435MOL0     C58633   4.176   7.062   9.839  0.1691  0.6707 -0.7159
  435MOL0     C58634   4.315   7.079   9.782 -0.0866 -0.1369 -0.6727
  435MOL0    Cl58635   4.447   7.006   9.895 -0.2218 -0.1689  0.3551
  435MOL0     C58636   3.298   6.502  10.047 -0.0865 -0.2523  0.6031
  435MOL0     C58637   3.209   6.396  10.026 -0.2160  0.1828  0.0241
  435MOL0     O58638   3.116   6.205   9.770  0.3888 -0.3628 -0.5219
  435MOL0     C58639   2.920   6.010  10.008 -0.4075 -0.4404  1.0471
  435MOL0     C58640   2.806   5.947  10.017 -0.0674 -0.1411  0.2348
  435MOL0     N58641   2.385   5.448   9.711 -0.1642 -0.3931  0.7163
  435MOL0     N58642   2.308   5.381   9.628 -0.7419  0.2241  0.4302
  435MOL0     C58643   1.159   5.184   9.493 -0.6396  0.9064 -0.6836
  435MOL0     C58644   1.117   5.051   9.486  0.4011  0.9904 -0.7738
  435MOL0     C58645   0.879   4.677   9.437  0.4937 -0.2631 -0.2108
  435MOL0     C58646   0.773   4.630   9.517  0.6772  0.5245 -0.0328
  435MOL0     C58647   0.735   4.503   9.529 -0.1759  0.0094 -0.1441
  435MOL0     C58648   0.798   4.405   9.446  0.5593 -0.9723 -1.3176
  435MOL0     O58649   0.747   4.272   9.451  0.3974 -1.2312  0.4863
  435MOL0     C58650   0.775   4.181   9.343  0.0657 -0.1570  0.4792
  435MOL0     C58651   0.683   4.057   9.357  0.8604  0.5013  0.0204
  435MOL0     C58652   0.530   4.112   9.357 -0.0003  0.1496 -0.0193
  435MOL0     C58653   0.424   4.002   9.323  0.3264  0.1726 -0.4318
  435MOL0     C58654   0.294   4.055   9.276  1.0388 -0.1548  0.0226
  435MOL0     C58655   0.183   4.082   9.235  0.0674 -0.0708  1.4081
  435MOL0     C58656   0.890   4.451   9.351  0.4403 -1.1056  0.0945
  435MOL0     C58657   0.935   4.585   9.351 -0.4868  0.4556 -0.1651
  435MOL0     H58658   1.028   5.014   9.172  0.3493 -1.9477  1.1445
  435MOL0     H58659   1.104   5.259   9.159 -1.7615 -0.0086 -0.5110
  435MOL0     H58660   1.329   5.538   9.426 -0.6097 -0.0091 -1.6560
  435MOL0     H58661   1.306   5.387   9.518  0.1874 -0.0156 -0.3017
  435MOL0     H58662   1.388   5.296   9.280  0.3556  1.8037 -1.4318
  435MOL0     H58663   1.468   5.444   9.277 -1.0800  0.9767  2.1027
  435MOL0     H58664   1.517   5.246   9.512 -1.2119  1.1112  0.8970
  435MOL0     H58665   1.607   5.254   9.362 -0.6667  1.1142 -1.1688
  435MOL0     H58666   1.640   5.493   9.403  1.6850 -0.9193 -0.2057
  435MOL0     H58667   1.563   5.481   9.566  2.2838  1.2016  0.4874
  435MOL0     H58668   1.782   5.471   9.615  2.2505  0.6036 -2.7298
  435MOL0     H58669   1.721   5.306   9.633 -0.9546 -2.2690 -2.7229
  435MOL0     H58670   1.863   5.235   9.456 -2.2033  0.4019  1.4504
  435MOL0     H58671   1.839   5.391   9.362 -0.3244  0.9818  0.1903
  435MOL0     H58672   2.088   5.339   9.425  1.3053  3.9880 -0.5171
  435MOL0     H58673   2.027   5.483   9.487  1.3367 -0.1184  3.1948
  435MOL0     H58674   2.087   5.213   9.624 -1.9506 -1.0856  2.7575
  435MOL0     H58675   1.982   5.306   9.713 -0.7492 -0.4219 -0.0961
  435MOL0     H58676   2.120   5.463   9.883 -0.5922  1.0155 -0.5542
  435MOL0     H58677   2.379   5.493  10.018 -1.7657 -1.6093 -1.8369
  435MOL0     H58678   2.503   5.559   9.912  0.3567 -2.0279 -0.0656
  435MOL0     H58679   2.417   5.737  10.061 -0.8523 -0.9261 -0.1632
  435MOL0     H58680   2.251   5.715   9.989  0.3452 -0.9414 -0.7557
  435MOL0     H58681   2.356   5.909   9.898  0.0275 -0.3307  0.4196
  435MOL0     H58682   2.315   5.799   9.779 -1.0908 -0.2662  0.2644
  435MOL0     H58683   2.551   5.890   9.743 -0.7478  0.2152  0.6256
  435MOL0     H58684   2.547   5.714   9.769 -0.5735 -2.6435  3.6510
  435MOL0     H58685   2.785   5.866   9.684  1.0358 -2.2641  0.0569
  435MOL0     H58686   2.996   6.086   9.596 -0.4639 -1.3456 -2.7758
  435MOL0     H58687   3.110   5.969   9.638  0.1670  1.1537 -0.1681
  435MOL0     H58688   2.959   5.913   9.562  1.0135 -0.0279  0.1990
  435MOL0     H58689   3.402   6.151   9.925  1.7080  1.7299 -4.0122
  435MOL0     H58690   3.566   6.317   9.950  1.3106  0.0036  2.4129
  435MOL0     H58691   3.646   6.612  10.147  0.2051 -3.4461  1.3964
  435MOL0     H58692   3.649   6.457  10.087  0.7058 -0.7626 -1.8095
  435MOL0     H58693   3.847   6.532   9.986 -1.1284 -0.3027 -0.3210
  435MOL0     H58694   3.731   6.540   9.861  0.7142 -3.1259  0.9184
  435MOL0     H58695   3.776   6.772  10.047 -2.2121 -3.6097  0.2521
  435MOL0     H58696   3.737   6.792   9.870 -0.2161  2.5520  2.2665
  435MOL0     H58697   4.009   6.723  10.003 -1.6105  2.6092  1.4195
  435MOL0     H58698   3.974   6.696   9.823 -1.0531  1.0757 -0.7679
  435MOL0     H58699   3.945   6.966   9.960  0.0793 -1.5660  1.2829
  435MOL0     H58700   3.930   6.939   9.794 -3.1583 -1.8976  0.8537
  435MOL0     H58701   4.180   6.902   9.981  1.3236 -1.5483 -1.0749
  435MOL0     H58702   4.177   6.847   9.808 -0.7112  1.1434 -1.8289
  435MOL0     H58703   4.168   7.129   9.925 -0.8529 -1.5755  1.0290
  435MOL0     H58704   4.096   7.094   9.771  0.5600  1.5121 -0.7943
  435MOL0     H58705   4.337   7.186   9.770  0.6409  0.0397  1.8022
  435MOL0     H58706   4.321   7.033   9.682  0.9980  2.4717 -1.8997
  435MOL0     H58707   3.259   6.598  10.079  2.2219  0.6121  1.0587
  435MOL0     H58708   3.103   6.414  10.043 -0.9303  2.0416 -4.7434
  435MOL0     H58709   2.964   6.052  10.098 -2.4754 -1.7906  2.7696
  435MOL0     H58710   2.744   5.934  10.106  1.1471  1.0675  1.3027
  435MOL0     H58711   1.210   5.223   9.581  0.3659  2.1113 -1.7596
  435MOL0     H58712   1.131   4.972   9.560 -0.1837  0.7684 -0.8877
  435MOL0     H58713   0.729   4.698   9.590  0.4242 -0.2753  0.5760
  435MOL0     H58714   0.669   4.489   9.614 -0.1719 -0.5707 -0.2340
  435MOL0     H58715   0.762   4.222   9.243  0.6672 -0.2075  0.3774
  435MOL0     H58716   0.880   4.154   9.333 -0.0116 -0.2462 -0.1184
  435MOL0     H58717   0.700   4.008   9.453  0.2948  0.8542  0.3091
  435MOL0     H58718   0.698   3.981   9.280  2.5317  2.4332 -1.6684
  435MOL0     H58719   0.517   4.190   9.282 -1.3333  2.8666  2.8370
  435MOL0     H58720   0.494   4.147   9.455  2.1124  1.3869  0.3827
  435MOL0     H58721   0.405   3.948   9.417 -1.3617 -0.7600 -1.2763
  435MOL0     H58722   0.471   3.927   9.259  3.6003  0.7464  1.0861
  435MOL0     H58723   0.083   4.100   9.201 -0.3967 -1.8770  1.6900
  435MOL0     H58724   0.941   4.391   9.276  3.8243  3.6957 -1.9830
  435MOL0     H58725   1.001   4.621   9.273  1.3408 -0.0720  1.0766
  436MOL0     O58726   6.347   7.578   7.697  0.1738 -0.0410 -0.0738
  436MOL0     C58727   6.323   7.707   7.682 -0.3759  0.8036 -0.0750
  436MOL0     O58728   6.200   7.764   7.695  0.8902 -0.5797  0.9425
  436MOL0     C58729   6.081   7.689   7.677 -1.3758  0.3675 -1.1406
  436MOL0     C58730   5.985   7.721   7.575 -0.8676  0.9996 -0.0778
  436MOL0     C58731   5.882   7.628   7.547  0.1506 -1.1130 -0.4102
  436MOL0     C58732   5.854   7.526   7.634  0.0553  0.6701 -0.9348
  436MOL0     O58733   5.739   7.451   7.612  0.0161 -0.4440 -0.4346
  436MOL0     C58734   5.697   7.336   7.696  0.5779 -1.1645 -0.2772
  436MOL0     C58735   5.770   7.211   7.649  0.1384  0.2545 -1.1401
  436MOL0     C58736   5.690   7.160   7.525 -0.6354 -0.2979  0.1757
  436MOL0     C58737   5.748   7.038   7.471 -1.6941  0.0002 -0.1483
  436MOL0     C58738   5.666   6.966   7.366 -0.4123 -0.0484  0.1712
  436MOL0     C58739   5.748   6.864   7.289 -0.0377  0.7037  0.4468
  436MOL0     C58740   5.824   6.933   7.178  0.2902 -0.1593 -0.4047
  436MOL0     C58741   5.896   6.822   7.096 -0.5695 -0.2641 -0.0103
  436MOL0     N58742   5.811   6.743   7.001 -0.0135 -0.2001 -0.1647
  436MOL0     C58743   5.849   6.632   6.940  0.4274  0.3175 -0.1025
  436MOL0     C58744   5.765   6.608   6.836  0.9388 -1.0901 -0.5681
  436MOL0     C58745   5.769   6.485   6.748 -0.5129 -0.1860 -0.3931
  436MOL0     C58746   5.891   6.505   6.651  0.3562  0.3392  0.2913
  436MOL0     C58747   5.877   6.619   6.556  0.8529  0.3985 -0.0133
  436MOL0     C58748   5.796   6.592   6.433 -0.3487  0.1233 -0.3028
  436MOL0     O58749   5.872   6.505   6.342  0.3622 -0.1119  0.1578
  436MOL0     C58750   5.821   6.481   6.213 -0.4374  0.0555  0.0185
  436MOL0     C58751   5.706   6.542   6.169  0.1919  0.0190  0.5765
  436MOL0     C58752   5.642   6.504   6.049 -0.7043 -0.1369 -0.4140
  436MOL0     C58753   5.519   6.575   6.017 -0.1401 -0.7336 -0.0302
  436MOL0     C58754   5.693   6.400   5.969 -0.9957 -0.4530  0.1649
  436MOL0     C58755   5.636   6.341   5.840 -0.5706  0.1300  0.8441
  436MOL0     O58756   5.501   6.332   5.842  0.3752 -0.3560 -0.5166
  436MOL0     C58757   5.434   6.310   5.725 -1.1544  0.0723  0.1511
  436MOL0     C58758   5.352   6.411   5.681 -0.4826  0.5949 -0.4608
  436MOL0     C58759   5.277   6.385   5.567 -0.7056  0.1089 -0.1282
  436MOL0     C58760   5.280   6.264   5.496  0.4553  0.1289  0.4531
  436MOL0     O58761   5.210   6.231   5.375 -0.4618 -0.8679 -0.7007
  436MOL0     C58762   5.111   6.325   5.331  0.5871 -0.1976  0.5765
  436MOL0     C58763   5.066   6.290   5.193 -0.7459 -0.6462 -0.2550
  436MOL0     C58764   5.006   6.412   5.123 -0.0096 -0.0764  0.6606
  436MOL0     C58765   4.927   6.369   4.995  0.0730 -0.4670 -0.0328
  436MOL0     C58766   4.847   6.494   4.940 -0.9823  0.6639  0.5324
  436MOL0     C58767   4.939   6.609   4.893  0.0766  0.0079 -0.3619
  436MOL0     C58768   4.862   6.688   4.785  0.3160  0.3510 -0.7728
  436MOL0     C58769   4.945   6.816   4.749  0.4843  0.2976 -0.0197
  436MOL0    Cl58770   5.031   6.812   4.589  0.9222  0.1406 -0.1536
  436MOL0     C58771   5.368   6.161   5.542 -0.1029  0.0638  0.4862
  436MOL0     C58772   5.436   6.184   5.657  0.0941  0.5553 -0.2829
  436MOL0     O58773   5.709   6.294   5.752  0.6011  0.1641 -0.6923
  436MOL0     C58774   5.808   6.330   6.018  0.4167 -0.2374 -0.0060
  436MOL0     C58775   5.874   6.373   6.134 -0.0347 -0.2823 -0.4184
  436MOL0     N58776   5.674   6.710   6.838  0.5135  0.6569  0.5970
  436MOL0     N58777   5.707   6.799   6.934 -0.0801 -0.9292 -0.5591
  436MOL0     C58778   5.949   7.497   7.734  0.1999 -0.3437 -0.2666
  436MOL0     C58779   6.060   7.579   7.761  0.7964  0.1652  0.6844
  436MOL0     C58780   6.437   7.803   7.676 -0.1259 -0.0291  0.9454
  436MOL0     C58781   6.410   7.940   7.664 -0.1851 -0.0759  0.7396
  436MOL0     C58782   6.512   8.035   7.640 -0.6460  0.6599 -0.4933
  436MOL0     C58783   6.646   7.994   7.663  0.0781  0.1097  0.7813
  436MOL0     O58784   6.755   8.066   7.633 -0.0333 -0.3356  0.5847
  436MOL0     C58785   6.747   8.210   7.625 -0.5957 -0.6736  0.5022
  436MOL0     C58786   6.890   8.266   7.622  0.6631 -0.8222  0.5879
  436MOL0     C58787   6.889   8.421   7.635  0.8645 -0.6525  0.6792
  436MOL0     C58788   6.832   8.487   7.505 -0.1361 -0.0660 -0.2023
  436MOL0     C58789   6.918   8.467   7.387  1.0648  0.3924  0.0837
  436MOL0     C58790   6.990   8.455   7.291 -1.1332 -0.0131  0.3778
  436MOL0     C58791   6.669   7.863   7.685  0.3416 -0.4189  0.1569
  436MOL0     C58792   6.570   7.766   7.692 -0.6826 -0.2691 -0.1567
  436MOL0     H58793   6.001   7.792   7.494  0.6036  1.1501  0.3014
  436MOL0     H58794   5.804   7.648   7.474 -0.0931 -2.7032 -0.6235
  436MOL0     H58795   5.723   7.352   7.800 -0.3463 -0.3128 -0.1579
  436MOL0     H58796   5.588   7.325   7.692 -0.0410  3.5079 -1.8294
  436MOL0     H58797   5.878   7.222   7.635  0.1149 -1.4549 -3.0975
  436MOL0     H58798   5.756   7.144   7.734  1.9059  1.6564  0.3502
  436MOL0     H58799   5.584   7.139   7.540 -0.0079 -1.9200  2.8698
  436MOL0     H58800   5.698   7.233   7.444 -0.5821 -0.7889 -0.2666
  436MOL0     H58801   5.841   7.079   7.432 -1.9815 -0.1474 -1.0246
  436MOL0     H58802   5.769   6.962   7.547 -0.6471  1.3244  0.9392
  436MOL0     H58803   5.587   6.915   7.421  0.4813  1.0802  2.6895
  436MOL0     H58804   5.613   7.042   7.307  0.5479  2.5619  2.4191
  436MOL0     H58805   5.820   6.827   7.362  1.1512  1.0673 -0.5075
  436MOL0     H58806   5.677   6.793   7.248 -0.3680  2.1579 -1.6694
  436MOL0     H58807   5.751   6.976   7.109 -0.7180  0.7010  1.1385
  436MOL0     H58808   5.903   6.992   7.225 -0.8564 -0.1986  1.7057
  436MOL0     H58809   5.931   6.746   7.167 -1.1046 -1.1950 -0.7239
  436MOL0     H58810   5.977   6.861   7.033  1.2311  1.1959  2.9696
  436MOL0     H58811   5.935   6.573   6.970  0.4827  0.9792  1.0658
  436MOL0     H58812   5.775   6.404   6.820 -0.8882 -1.0173 -1.2782
  436MOL0     H58813   5.675   6.471   6.695 -2.2101 -0.2271  2.4331
  436MOL0     H58814   5.904   6.413   6.594  2.3001 -0.7765  2.3576
  436MOL0     H58815   5.983   6.512   6.711 -0.2612 -0.4493  1.3539
  436MOL0     H58816   5.977   6.641   6.516 -0.0889  0.9803 -2.2020
  436MOL0     H58817   5.843   6.710   6.604  0.5680 -0.0679  0.6807
  436MOL0     H58818   5.767   6.683   6.380 -2.8789  0.1044  0.8758
  436MOL0     H58819   5.700   6.546   6.456  0.2654 -2.1012 -1.9038
  436MOL0     H58820   5.657   6.621   6.226 -0.1514  2.0689 -2.3152
  436MOL0     H58821   5.426   6.549   6.069 -0.2328  1.6685  1.1555
  436MOL0     H58822   5.536   6.681   6.041  0.9938 -0.2469 -2.6320
  436MOL0     H58823   5.505   6.580   5.909  0.3694 -0.3509 -0.0844
  436MOL0     H58824   5.365   6.497   5.746 -1.6014 -0.0509  0.6714
  436MOL0     H58825   5.220   6.474   5.543 -1.8667 -0.2894  1.0333
  436MOL0     H58826   5.027   6.324   5.400  1.5272 -3.1301  1.8428
  436MOL0     H58827   5.161   6.423   5.326 -0.6498  0.5461  1.9093
  436MOL0     H58828   5.157   6.258   5.141 -2.0749 -2.1901 -1.7479
  436MOL0     H58829   4.995   6.207   5.204 -1.1463 -0.3794 -0.8003
  436MOL0     H58830   5.087   6.484   5.109 -1.0881  0.6793 -3.0918
  436MOL0     H58831   4.927   6.460   5.181 -3.2034 -0.8290 -2.6263
  436MOL0     H58832   4.994   6.330   4.918 -2.4531  0.3793 -2.8618
  436MOL0     H58833   4.849   6.297   5.021 -1.6896  2.0020  1.9385
  436MOL0     H58834   4.769   6.531   5.007 -0.4396  1.6793  0.6181
  436MOL0     H58835   4.793   6.454   4.854  0.1316  1.1677 -0.4368
  436MOL0     H58836   4.973   6.662   4.982 -0.3187  3.9073 -2.3170
  436MOL0     H58837   5.032   6.578   4.845  0.6461  1.2563 -0.0982
  436MOL0     H58838   4.763   6.724   4.815  1.0063  2.7096 -1.1166
  436MOL0     H58839   4.863   6.618   4.701  1.9036 -1.3949  0.6120
  436MOL0     H58840   5.022   6.825   4.827 -0.9487  0.8721  1.3819
  436MOL0     H58841   4.877   6.901   4.742  1.3352  1.3783  3.2172
  436MOL0     H58842   5.367   6.065   5.493 -0.0509 -0.4263  1.4327
  436MOL0     H58843   5.509   6.112   5.694 -0.6446  0.5076  1.1387
  436MOL0     H58844   5.845   6.248   5.957 -0.6385 -2.4287  2.1197
  436MOL0     H58845   5.965   6.325   6.167  0.6844  1.0596 -0.3652
  436MOL0     H58846   5.924   7.408   7.790 -3.7949  0.2067 -0.9153
  436MOL0     H58847   6.135   7.554   7.835  0.4371  1.8874  1.6657
  436MOL0     H58848   6.312   7.986   7.676 -1.1179 -1.7535 -0.0985
  436MOL0     H58849   6.490   8.138   7.616 -0.2391  0.4111 -1.9959
  436MOL0     H58850   6.696   8.244   7.533 -3.0621  2.2298  2.7255
  436MOL0     H58851   6.690   8.248   7.710 -0.8681  1.7762 -0.6810
  436MOL0     H58852   6.945   8.231   7.534 -1.5459 -2.9335 -0.0764
  436MOL0     H58853   6.924   8.220   7.716  0.0462  0.9034  1.7134
  436MOL0     H58854   6.990   8.459   7.654 -0.2641  1.7623  2.3547
  436MOL0     H58855   6.831   8.447   7.724 -0.9458  0.7786 -0.8332
  436MOL0     H58856   6.837   8.596   7.515  0.7488 -0.1847  0.8823
  436MOL0     H58857   6.728   8.459   7.488  0.6240 -1.7570 -2.4454
  436MOL0     H58858   7.050   8.420   7.210  3.5790 -0.5554  3.7126
  436MOL0     H58859   6.766   7.816   7.696  0.5624 -0.1578 -0.6174
  436MOL0     H58860   6.591   7.661   7.710 -0.4620 -0.0545  0.9026
  437MOL0     O58861  11.375   6.940   5.226 -0.6706 -0.2191  0.2426
  437MOL0     C58862  11.327   7.031   5.166 -0.4116 -1.1549  0.4855
  437MOL0     O58863  11.394   7.150   5.135 -0.4274  0.2021 -0.4042
  437MOL0     C58864  11.531   7.147   5.163 -0.0865 -0.0263 -0.0944
  437MOL0     C58865  11.573   7.195   5.286 -0.1629 -1.2668 -0.2500
  437MOL0     C58866  11.708   7.199   5.316 -0.2109  0.2403  0.3668
  437MOL0     C58867  11.807   7.165   5.221 -0.5861  1.0006 -0.0628
  437MOL0     O58868  11.946   7.169   5.238 -0.2029  0.0910  0.3718
  437MOL0     C58869  12.000   7.194   5.369 -0.1871 -0.5608  0.0940
  437MOL0     C58870  11.980   7.074   5.468 -0.9251 -1.2212  0.6701
  437MOL0     C58871  12.021   6.935   5.416  0.9155 -0.5234 -0.6226
  437MOL0     C58872  12.148   6.932   5.332  0.3319  0.6370  0.6253
  437MOL0     C58873  12.271   6.858   5.390  0.2213  0.3233 -0.4946
  437MOL0     C58874  12.278   6.703   5.363 -0.1476 -0.7069 -0.7502
  437MOL0     C58875  12.223   6.608   5.476 -0.2271 -0.1425 -0.2142
  437MOL0     C58876  12.336   6.605   5.581  1.2553  0.2153  0.3046
  437MOL0     N58877  12.325   6.492   5.664 -0.3071  0.0147 -0.0073
  437MOL0     C58878  12.253   6.377   5.645  0.0581 -0.6022  0.1643
  437MOL0     C58879  12.254   6.318   5.763  0.6106  0.8313  0.3363
  437MOL0     C58880  12.202   6.173   5.784  0.2112  0.9676 -0.0923
  437MOL0     C58881  12.330   6.075   5.802  0.0194  0.3067 -0.1620
  437MOL0     C58882  12.423   6.075   5.684  0.1481  0.3591  0.5131
  437MOL0     C58883  12.361   6.056   5.543 -0.0664 -0.5251  0.6662
  437MOL0     O58884  12.368   6.160   5.443  0.4733 -0.6676  0.1479
  437MOL0     C58885  12.490   6.164   5.387 -0.2455 -0.2757  0.3850
  437MOL0     C58886  12.512   6.057   5.298 -0.3839 -0.6122  0.2104
  437MOL0     C58887  12.629   6.055   5.221  0.4511 -0.0036 -0.1229
  437MOL0     C58888  12.633   5.935   5.128 -1.4117 -1.4384  0.8274
  437MOL0     C58889  12.724   6.158   5.236 -1.2425 -0.6425 -0.3720
  437MOL0     C58890  12.855   6.162   5.171 -0.2975 -0.3513  0.0930
  437MOL0     O58891  12.905   6.284   5.136  0.2007  0.6037  0.0802
  437MOL0     C58892  13.019   6.292   5.074 -0.1922 -0.1754  1.0634
  437MOL0     C58893  13.138   6.232   5.118 -0.2906 -0.2181  0.1227
  437MOL0     C58894  13.260   6.271   5.070 -0.7203  0.8994  0.2537
  437MOL0     C58895  13.271   6.353   4.968 -0.2327 -0.2415 -0.4385
  437MOL0     O58896  13.390   6.369   4.907  0.1130  0.4909  0.0962
  437MOL0     C58897  13.411   6.391   4.763 -0.6140 -0.1130  0.4384
  437MOL0     C58898  13.357   6.276   4.671  0.1215 -0.2943  0.8710
  437MOL0     C58899  13.405   6.142   4.736 -0.3997 -0.5657  1.3909
  437MOL0     C58900  13.371   6.037   4.635  0.3020 -0.4850  0.5383
  437MOL0     C58901  13.425   5.903   4.698  0.3623  0.1400 -0.4437
  437MOL0     C58902  13.358   5.779   4.625 -1.0441  0.7477 -0.2042
  437MOL0     C58903  13.377   5.659   4.706  0.0335 -0.4241 -0.6140
  437MOL0     C58904  13.313   5.659   4.849  0.2949  0.5610 -1.0822
  437MOL0    Cl58905  13.454   5.605   4.972 -0.1241  0.4849  0.1788
  437MOL0     C58906  13.157   6.407   4.901  0.1594 -0.9552 -0.2270
  437MOL0     C58907  13.032   6.383   4.968 -0.0889 -0.4868  0.3762
  437MOL0     O58908  12.896   6.053   5.133  0.9852  0.6098 -0.5575
  437MOL0     C58909  12.707   6.255   5.335 -0.8607  0.2744  0.7749
  437MOL0     C58910  12.588   6.262   5.408 -0.5317 -0.2384  0.6239
  437MOL0     N58911  12.333   6.389   5.852 -0.5694  0.8688 -0.6129
  437MOL0     N58912  12.354   6.498   5.795  0.1959 -0.2917  0.0221
  437MOL0     C58913  11.757   7.110   5.102  0.4344  0.1549 -0.1820
  437MOL0     C58914  11.620   7.092   5.072 -0.7356  0.1724 -0.1718
  437MOL0     C58915  11.188   7.015   5.120 -0.5803 -0.2610  0.6983
  437MOL0     C58916  11.112   6.906   5.165 -0.8784 -0.0155  0.2688
  437MOL0     C58917  10.977   6.885   5.128  0.1960  0.4225  0.2315
  437MOL0     C58918  10.907   6.977   5.039  0.6492 -0.5304 -0.3433
  437MOL0     O58919  10.780   6.949   5.004 -1.0997  0.0990  0.5316
  437MOL0     C58920  10.688   7.055   4.962  0.2897 -0.5369  0.2605
  437MOL0     C58921  10.659   7.160   5.067 -0.5855  0.2021 -0.1712
  437MOL0     C58922  10.565   7.093   5.167 -0.8349  0.6583 -0.1330
  437MOL0     C58923  10.543   7.169   5.294 -0.2310 -1.2040 -0.0897
  437MOL0     C58924  10.664   7.175   5.388  0.6382 -0.1622  0.9283
  437MOL0     C58925  10.758   7.183   5.464 -0.0381  0.1328 -0.0096
  437MOL0     C58926  10.985   7.093   5.000 -0.1049 -0.6711 -0.2317
  437MOL0     C58927  11.120   7.111   5.041  0.7713 -0.8487 -0.4323
  437MOL0     H58928  11.498   7.240   5.350  1.8265  0.9191  0.6746
  437MOL0     H58929  11.742   7.251   5.405  1.0597  0.2296 -0.1009
  437MOL0     H58930  12.107   7.217   5.358  0.1334 -2.5345 -1.5272
  437MOL0     H58931  11.961   7.289   5.408  1.6498 -0.3354  1.5512
  437MOL0     H58932  12.044   7.102   5.552 -0.5389  0.9290 -0.2781
  437MOL0     H58933  11.878   7.076   5.508 -1.3571  0.7727 -0.3853
  437MOL0     H58934  12.042   6.858   5.490 -0.9501  0.0242  0.5465
  437MOL0     H58935  11.931   6.900   5.364 -1.8695  1.7223  2.3243
  437MOL0     H58936  12.124   6.882   5.238  0.9892 -1.1459  1.3702
  437MOL0     H58937  12.178   7.029   5.291  1.7639 -0.5637 -1.3159
  437MOL0     H58938  12.361   6.901   5.344  1.7561 -1.5064  0.6414
  437MOL0     H58939  12.289   6.882   5.495 -1.8345  1.2518 -0.3140
  437MOL0     H58940  12.236   6.666   5.269  3.2141 -1.0724 -2.2381
  437MOL0     H58941  12.381   6.672   5.344 -0.4180 -1.4045 -1.1118
  437MOL0     H58942  12.132   6.652   5.518 -1.6874 -2.1798 -1.0796
  437MOL0     H58943  12.203   6.507   5.439  2.7258 -1.0535  0.4595
  437MOL0     H58944  12.328   6.695   5.642  4.9110  0.6541  0.3327
  437MOL0     H58945  12.436   6.607   5.536  0.3010  1.8327 -1.9681
  437MOL0     H58946  12.213   6.339   5.553 -1.3168  0.0794  0.4595
  437MOL0     H58947  12.133   6.171   5.869 -0.8000 -1.9906 -0.8618
  437MOL0     H58948  12.143   6.144   5.697  1.2882 -0.8570 -0.2654
  437MOL0     H58949  12.297   5.972   5.820  1.1447  0.0320  0.4354
  437MOL0     H58950  12.385   6.113   5.888  0.8794  0.0238 -0.5781
  437MOL0     H58951  12.493   5.993   5.700  0.2209  0.7364  2.4477
  437MOL0     H58952  12.491   6.160   5.700  3.7120 -2.6044  2.7713
  437MOL0     H58953  12.255   6.031   5.559  0.5185 -2.1841  2.3394
  437MOL0     H58954  12.410   5.965   5.508  2.0771  1.1011 -0.8178
  437MOL0     H58955  12.434   5.982   5.286 -0.8277  0.1228 -1.8557
  437MOL0     H58956  12.671   5.966   5.030 -1.4833 -2.8926  0.3068
  437MOL0     H58957  12.705   5.859   5.158 -0.3768 -1.1312 -0.7744
  437MOL0     H58958  12.536   5.889   5.104 -1.5840 -0.5811 -0.2047
  437MOL0     H58959  13.159   6.179   5.210  3.0730  1.2576  0.3285
  437MOL0     H58960  13.338   6.211   5.116 -2.5815 -2.2790 -0.4024
  437MOL0     H58961  13.373   6.489   4.733 -0.3917  0.6157  2.3669
  437MOL0     H58962  13.519   6.389   4.746 -0.9170 -1.8956 -1.5889
  437MOL0     H58963  13.248   6.274   4.672  0.0847 -1.8090 -0.8405
  437MOL0     H58964  13.387   6.267   4.566 -1.7736  1.8048  0.0904
  437MOL0     H58965  13.354   6.115   4.829  0.3161  1.6592  2.5066
  437MOL0     H58966  13.514   6.145   4.743 -0.2820  2.3248 -0.0119
  437MOL0     H58967  13.263   6.041   4.619  0.3617 -0.3151  0.1787
  437MOL0     H58968  13.417   6.048   4.536  0.3537 -2.9563  0.2250
  437MOL0     H58969  13.391   5.910   4.802  0.6655  1.7639 -0.4281
  437MOL0     H58970  13.533   5.887   4.701  0.6950  2.1575  0.5298
  437MOL0     H58971  13.255   5.801   4.595 -1.2952  0.9790  0.7934
  437MOL0     H58972  13.419   5.761   4.536  0.7372  0.9849  0.9001
  437MOL0     H58973  13.484   5.638   4.702  0.0274 -0.2823 -2.1767
  437MOL0     H58974  13.338   5.580   4.642 -3.1199 -1.3036  2.0962
  437MOL0     H58975  13.237   5.580   4.854  3.0693 -2.1933  2.0304
  437MOL0     H58976  13.278   5.757   4.884  0.8237 -0.3693  2.4409
  437MOL0     H58977  13.150   6.466   4.810 -0.2454  1.9588  1.5895
  437MOL0     H58978  12.940   6.422   4.924  0.4003 -0.5627 -0.7528
  437MOL0     H58979  12.781   6.333   5.352 -3.4612  2.4268  3.0693
  437MOL0     H58980  12.553   6.334   5.481 -1.2529  0.8161 -0.7095
  437MOL0     H58981  11.826   7.057   5.036 -0.7306 -2.5303  0.6197
  437MOL0     H58982  11.578   7.036   4.989 -3.2991  1.6873  0.0241
  437MOL0     H58983  11.157   6.836   5.236  1.3456  1.8387  0.7981
  437MOL0     H58984  10.923   6.800   5.168  4.5932 -2.1941  1.3938
  437MOL0     H58985  10.728   7.113   4.878 -0.3451 -0.2700  0.1324
  437MOL0     H58986  10.596   7.006   4.928  0.0565 -0.8895  1.3827
  437MOL0     H58987  10.608   7.241   5.013 -0.4655  1.5231  1.5988
  437MOL0     H58988  10.753   7.188   5.115  2.1234 -0.6569 -4.4050
  437MOL0     H58989  10.600   6.992   5.192 -0.8496  0.4139 -1.0474
  437MOL0     H58990  10.466   7.082   5.121 -2.3844  0.8496  2.9074
  437MOL0     H58991  10.469   7.120   5.358  2.1393 -3.2689  1.2906
  437MOL0     H58992  10.516   7.271   5.266 -0.7392 -1.8037 -1.8571
  437MOL0     H58993  10.848   7.198   5.521 -0.6771 -1.4002  1.4870
  437MOL0     H58994  10.944   7.166   4.932 -2.2782 -0.4520  1.2244
  437MOL0     H58995  11.172   7.202   5.011 -1.3480  1.4065  2.2404
  438MOL0     O58996   4.861   2.066   1.949 -0.2654  0.1097 -0.3230
  438MOL0     C58997   4.937   1.970   1.956 -0.3150  0.2421  0.2270
  438MOL0     O58998   4.986   1.898   1.847 -0.1259 -0.1984  0.5144
  438MOL0     C58999   4.913   1.923   1.727 -0.0006  0.5260  0.2447
  438MOL0     C59000   4.776   1.903   1.734 -0.8555 -0.2387 -0.1259
  438MOL0     C59001   4.705   1.895   1.622  0.0896 -0.0870  0.6418
  438MOL0     C59002   4.758   1.929   1.490 -0.0018 -0.0057  0.1173
  438MOL0     O59003   4.690   1.900   1.375  0.1860  0.6172  0.7782
  438MOL0     C59004   4.576   1.983   1.361 -0.5887 -1.4003 -0.3101
  438MOL0     C59005   4.614   2.093   1.262 -0.7023  0.2752 -0.6549
  438MOL0     C59006   4.529   2.219   1.292 -0.0509  0.1204  0.2680
  438MOL0     C59007   4.376   2.196   1.283  0.3941  0.2054  0.3924
  438MOL0     C59008   4.302   2.322   1.339  0.5583  0.2011 -1.1267
  438MOL0     C59009   4.152   2.326   1.304  0.9646 -0.1158  1.2394
  438MOL0     C59010   4.126   2.350   1.150 -0.3658  0.6475 -0.1945
  438MOL0     C59011   4.157   2.489   1.110  0.8051 -0.6649  0.1184
  438MOL0     N59012   4.096   2.509   0.972 -0.0576  1.0248  0.0643
  438MOL0     C59013   4.146   2.469   0.858  0.0246 -0.4205 -0.7912
  438MOL0     C59014   4.067   2.510   0.763 -0.0462 -0.2906  0.0546
  438MOL0     C59015   4.112   2.493   0.622 -0.0782 -0.7275 -0.4351
  438MOL0     C59016   4.019   2.398   0.559 -0.4287  0.3951  0.6529
  438MOL0     C59017   4.054   2.369   0.405 -0.3288  0.0599 -0.5296
  438MOL0     C59018   3.951   2.288   0.347  0.0213 -0.3917 -0.0786
  438MOL0     O59019   3.825   2.351   0.340 -0.2261  0.0597  0.5706
  438MOL0     C59020   3.715   2.288   0.294  0.4397 -0.3349 -0.3978
  438MOL0     C59021   3.716   2.189   0.202 -0.0099 -1.0865  0.4980
  438MOL0     C59022   3.598   2.135   0.137  0.1702 -0.9258 -0.2852
  438MOL0     C59023   3.618   2.044   0.019  0.1201  0.0674  0.2433
  438MOL0     C59024   3.470   2.173   0.191  0.3214 -0.4024 -0.2495
  438MOL0     C59025   3.339   2.119   0.150  0.2554  1.0492  0.0571
  438MOL0     O59026   3.233   2.175   0.218 -0.2066 -0.5733  0.1273
  438MOL0     C59027   3.111   2.124   0.190  0.2703  0.1458  0.1255
  438MOL0     C59028   3.045   2.139   0.071 -0.3718 -0.4660  0.5247
  438MOL0     C59029   2.921   2.085   0.053  1.0619 -0.0375  0.8581
  438MOL0     C59030   2.858   2.014   0.158 -0.2314 -0.0233 -0.5654
  438MOL0     O59031   2.735   1.964   0.116  0.6396 -0.2581  0.1684
  438MOL0     C59032   2.675   1.857   0.188  0.2751  0.3082  0.8850
  438MOL0     C59033   2.527   1.880   0.229  0.2256 -1.0281  0.1014
  438MOL0     C59034   2.477   1.779   0.322  1.4668 -0.3508 -0.2479
  438MOL0     C59035   2.339   1.806   0.375 -0.5462  0.1391  0.1340
  438MOL0     C59036   2.280   1.697   0.461 -0.1241  0.0009  0.7450
  438MOL0     C59037   2.348   1.682   0.603  0.4803 -0.8656  0.2015
  438MOL0     C59038   2.302   1.562   0.691  0.7013 -1.5642  0.6331
  438MOL0     C59039   2.154   1.527   0.695 -0.2882 -0.0528  0.2855
  438MOL0    Cl59040   2.087   1.458   0.848 -0.3332  0.1623 -0.2402
  438MOL0     C59041   2.925   2.002   0.283  0.6577 -0.5305 -0.9228
  438MOL0     C59042   3.054   2.055   0.294 -0.0856 -0.0414 -0.0480
  438MOL0     O59043   3.337   2.009   0.080  0.5492 -0.1135 -1.0054
  438MOL0     C59044   3.470   2.267   0.302  0.4255 -0.0219  0.3538
  438MOL0     C59045   3.590   2.323   0.343 -0.3562 -0.2222 -0.1960
  438MOL0     N59046   3.956   2.578   0.809  1.1418  0.1309 -0.1975
  438MOL0     N59047   3.973   2.566   0.944  1.0940  0.3852  0.4742
  438MOL0     C59048   4.901   1.955   1.489 -0.3404  0.7114 -0.3198
  438MOL0     C59049   4.976   1.948   1.610  0.2781  0.1279 -0.3843
  438MOL0     C59050   4.983   1.936   2.091  0.3759 -0.1545  0.4341
  438MOL0     C59051   4.940   2.009   2.208 -0.1356  0.1381 -0.0041
  438MOL0     C59052   4.999   1.973   2.330 -0.4448  0.2169  0.2506
  438MOL0     C59053   5.101   1.885   2.329  0.0629  1.1183 -0.2902
  438MOL0     O59054   5.159   1.845   2.438 -0.8355  0.4499 -0.6416
  438MOL0     C59055   5.124   1.902   2.565 -0.4435 -0.7299 -0.0846
  438MOL0     C59056   5.203   1.835   2.688 -0.1721  0.4683 -0.2391
  438MOL0     C59057   5.173   1.917   2.818  0.5115 -0.0806  0.5480
  438MOL0     C59058   5.238   1.852   2.940  0.2246  0.5134  0.3115
  438MOL0     C59059   5.391   1.863   2.934  0.1509  0.0302 -0.0304
  438MOL0     C59060   5.513   1.882   2.924 -0.0323  0.3060 -0.3268
  438MOL0     C59061   5.142   1.819   2.218  0.1037 -0.8495  0.2030
  438MOL0     C59062   5.087   1.839   2.096 -0.2732 -0.3013  0.0145
  438MOL0     H59063   4.741   1.871   1.832  2.5224 -1.3157  0.8368
  438MOL0     H59064   4.598   1.881   1.638 -0.7578  3.4294 -0.9333
  438MOL0     H59065   4.487   1.940   1.315 -0.5187  0.1682 -2.0763
  438MOL0     H59066   4.551   2.030   1.457 -2.1339  0.5992 -1.5898
  438MOL0     H59067   4.720   2.121   1.262 -0.7087  0.3064 -1.0336
  438MOL0     H59068   4.594   2.058   1.160  1.8680 -1.9861 -0.5263
  438MOL0     H59069   4.562   2.247   1.393  1.6958 -2.3548  0.4679
  438MOL0     H59070   4.547   2.301   1.222  1.7535 -1.4854 -1.2370
  438MOL0     H59071   4.340   2.171   1.183  0.3747 -1.0527  0.6992
  438MOL0     H59072   4.344   2.110   1.342  3.2401  0.0183  1.8783
  438MOL0     H59073   4.319   2.335   1.447  2.3551  1.7809 -1.5589
  438MOL0     H59074   4.349   2.406   1.289 -0.0692  1.4722  0.3236
  438MOL0     H59075   4.115   2.224   1.315 -1.8346  0.8029  1.0039
  438MOL0     H59076   4.089   2.400   1.354 -1.5034  0.2782 -2.1698
  438MOL0     H59077   4.169   2.279   1.078 -1.1325 -2.1194  1.9211
  438MOL0     H59078   4.022   2.318   1.148  0.9346 -5.3118  2.8461
  438MOL0     H59079   4.262   2.523   1.111 -0.5094  4.2860  1.5575
  438MOL0     H59080   4.098   2.558   1.171 -0.9982  0.2740 -2.5131
  438MOL0     H59081   4.246   2.432   0.833  0.3592  0.4951 -0.8500
  438MOL0     H59082   4.104   2.591   0.574  0.3961  0.4338  1.7805
  438MOL0     H59083   4.218   2.465   0.618 -0.1779 -1.2917  0.5690
  438MOL0     H59084   3.922   2.450   0.555 -0.7064 -0.1678 -1.1064
  438MOL0     H59085   4.027   2.301   0.609 -0.3452 -2.0764 -3.6553
  438MOL0     H59086   4.145   2.309   0.408 -2.2716 -3.1072 -0.1014
  438MOL0     H59087   4.056   2.466   0.354 -2.0515 -0.1410 -1.0483
  438MOL0     H59088   3.942   2.202   0.414 -0.9896  1.3473  2.1477
  438MOL0     H59089   3.996   2.247   0.256  2.2190 -2.7190  1.8969
  438MOL0     H59090   3.810   2.151   0.164  1.0012  0.9915  0.7862
  438MOL0     H59091   3.530   2.036  -0.045 -0.7781  0.5729  1.3869
  438MOL0     H59092   3.705   2.087  -0.031  0.1421  1.2459  1.2679
  438MOL0     H59093   3.643   1.941   0.048 -0.7570 -0.8000 -1.8451
  438MOL0     H59094   3.085   2.194  -0.014  1.5982 -2.1565  0.2878
  438MOL0     H59095   2.861   2.102  -0.036  0.3466  1.2461  1.5678
  438MOL0     H59096   2.666   1.777   0.115  2.6006  1.2744 -0.5819
  438MOL0     H59097   2.731   1.814   0.272  0.2510 -0.5026  0.4874
  438MOL0     H59098   2.517   1.980   0.273 -0.4391 -0.8928 -0.3297
  438MOL0     H59099   2.452   1.878   0.149 -0.3155 -0.2169  0.5718
  438MOL0     H59100   2.545   1.760   0.406  3.2997  0.2899 -1.5119
  438MOL0     H59101   2.457   1.686   0.267  1.3710 -1.4992  1.6347
  438MOL0     H59102   2.342   1.902   0.427  2.3084  0.3059 -0.1716
  438MOL0     H59103   2.268   1.825   0.294 -1.1271 -0.3640  0.5185
  438MOL0     H59104   2.291   1.598   0.415 -0.6683 -0.0492  0.7068
  438MOL0     H59105   2.173   1.720   0.470  0.3700  1.9739  2.1779
  438MOL0     H59106   2.457   1.668   0.600  0.3739 -1.6045 -1.2781
  438MOL0     H59107   2.331   1.775   0.658  0.5167  0.4974 -1.9892
  438MOL0     H59108   2.325   1.580   0.796 -2.7243  1.7031  1.0378
  438MOL0     H59109   2.356   1.475   0.652 -1.5874 -2.5049 -0.5941
  438MOL0     H59110   2.136   1.446   0.623  2.8043  1.5942 -2.5714
  438MOL0     H59111   2.095   1.616   0.669  0.7466  0.2585 -1.0962
  438MOL0     H59112   2.882   1.954   0.371  1.1202 -2.3037 -1.6153
  438MOL0     H59113   3.115   2.032   0.380  0.1299 -0.4934 -0.3169
  438MOL0     H59114   3.378   2.307   0.344 -1.9464 -3.0518 -1.5205
  438MOL0     H59115   3.582   2.399   0.420 -1.6954 -0.4530 -0.0775
  438MOL0     H59116   4.962   1.983   1.403  1.6831  0.2694  0.8926
  438MOL0     H59117   5.081   1.975   1.606 -0.1580  3.3282  3.5520
  438MOL0     H59118   4.869   2.091   2.209  0.3984  0.6992  2.9363
  438MOL0     H59119   4.963   2.032   2.414 -3.1537  0.5644 -1.0559
  438MOL0     H59120   5.134   2.011   2.557 -0.4604 -0.8407 -1.9063
  438MOL0     H59121   5.020   1.877   2.587 -0.5436 -0.3315 -0.0945
  438MOL0     H59122   5.310   1.855   2.674 -0.5836  3.0480 -0.1458
  438MOL0     H59123   5.177   1.729   2.680  1.7568  0.0297 -1.3914
  438MOL0     H59124   5.065   1.919   2.837  0.7641  0.6915  2.0838
  438MOL0     H59125   5.223   2.011   2.797  0.3286 -0.8767 -4.7838
  438MOL0     H59126   5.206   1.748   2.927  0.0188  0.4068  1.5446
  438MOL0     H59127   5.185   1.896   3.026  0.3772  0.6477  0.3374
  438MOL0     H59128   5.615   1.914   2.913  0.6265 -1.5381 -0.0029
  438MOL0     H59129   5.222   1.748   2.234  1.2143  0.2612 -0.3022
  438MOL0     H59130   5.125   1.783   2.011  2.2754 -0.2420  1.0300
  439MOL0     O59131   9.056  10.511   3.108  0.1957 -0.0319  1.2341
  439MOL0     C59132   9.158  10.517   3.034  0.3928 -0.1858  0.6947
  439MOL0     O59133   9.277  10.579   3.070 -0.5606  0.3003 -0.3382
  439MOL0     C59134   9.315  10.615   3.199  0.6764 -0.3377  0.5984
  439MOL0     C59135   9.447  10.658   3.203  0.7223  0.7294  0.5548
  439MOL0     C59136   9.500  10.693   3.335  0.9240 -0.5106 -0.8957
  439MOL0     C59137   9.421  10.685   3.458  0.2623  0.1587  0.5335
  439MOL0     O59138   9.472  10.714   3.577 -0.0911 -0.0695  0.2345
  439MOL0     C59139   9.385  10.731   3.692 -0.4577 -0.4872  0.3342
  439MOL0     C59140   9.459  10.780   3.826  0.4548  0.1309  0.2117
  439MOL0     C59141   9.368  10.874   3.904 -0.3174 -0.5125  0.1430
  439MOL0     C59142   9.246  10.830   3.960  0.1298 -0.5210  0.7811
  439MOL0     C59143   9.165  10.953   4.020 -0.1477  0.6325 -0.1785
  439MOL0     C59144   9.022  10.920   4.069 -0.0092  0.4525  0.6380
  439MOL0     C59145   8.929  10.828   3.988  0.1771 -0.1990  0.0391
  439MOL0     C59146   8.793  10.832   4.068 -1.0092  1.1922  0.4978
  439MOL0     N59147   8.693  10.773   3.975  0.0794  0.3888 -0.2987
  439MOL0     C59148   8.599  10.850   3.905  0.3961 -1.0356  0.1472
  439MOL0     C59149   8.516  10.757   3.865 -0.1468 -0.2309 -0.5434
  439MOL0     C59150   8.417  10.815   3.762  0.0594 -0.4577 -0.2802
  439MOL0     C59151   8.279  10.846   3.841 -0.5306  0.8755  0.3377
  439MOL0     C59152   8.173  10.735   3.857  0.5728 -0.5205 -0.0962
  439MOL0     C59153   8.222  10.597   3.878 -0.0776 -0.2242  0.1189
  439MOL0     O59154   8.106  10.510   3.889 -0.7913  0.2708 -0.2170
  439MOL0     C59155   8.126  10.382   3.945  0.0520  0.7699  0.7790
  439MOL0     C59156   8.256  10.328   3.959 -0.0185  0.3344  0.6442
  439MOL0     C59157   8.279  10.198   3.999 -0.7888 -0.0502  0.6062
  439MOL0     C59158   8.423  10.146   4.001  0.3900  0.0903  0.1127
  439MOL0     C59159   8.166  10.117   4.031  0.7938  0.5929  1.3397
  439MOL0     C59160   8.181   9.976   4.075 -0.0452 -0.0360  0.1727
  439MOL0     O59161   8.286   9.941   4.149 -0.6690  0.1569  0.4782
  439MOL0     C59162   8.303   9.817   4.199 -0.4770 -0.5317  0.3061
  439MOL0     C59163   8.237   9.771   4.309  0.7289  0.2272 -0.7228
  439MOL0     C59164   8.269   9.658   4.376 -0.1912 -0.2196  0.8920
  439MOL0     C59165   8.389   9.593   4.343  1.5658  0.5490 -0.5096
  439MOL0     O59166   8.423   9.477   4.413  0.2391  0.3420 -0.1980
  439MOL0     C59167   8.336   9.368   4.373  0.5665 -0.2333 -0.2414
  439MOL0     C59168   8.352   9.258   4.480 -0.6745  0.3981  0.9004
  439MOL0     C59169   8.251   9.256   4.586 -0.0803 -0.1557 -0.2903
  439MOL0     C59170   8.272   9.143   4.683  0.6616  0.2464  0.9273
  439MOL0     C59171   8.138   9.102   4.751 -0.1711 -0.6131  1.1426
  439MOL0     C59172   8.153   8.972   4.831 -0.2597  1.1155 -0.3386
  439MOL0     C59173   8.234   8.999   4.959  0.5788 -0.0729 -1.2788
  439MOL0     C59174   8.213   8.893   5.063 -0.1509 -0.2506  0.9235
  439MOL0    Cl59175   8.296   8.966   5.197  0.1021 -0.1448 -0.2627
  439MOL0     C59176   8.459   9.628   4.232 -0.0291  0.0423  0.9004
  439MOL0     C59177   8.413   9.738   4.152  0.8662  0.0408  0.8270
  439MOL0     O59178   8.089   9.898   4.056 -0.3185 -0.4197 -0.2117
  439MOL0     C59179   8.033  10.167   3.997  0.6238 -0.5953 -0.5459
  439MOL0     C59180   8.017  10.301   3.958 -0.1568 -0.3422  0.3517
  439MOL0     N59181   8.552  10.631   3.907  0.5189 -0.2426 -0.2130
  439MOL0     N59182   8.662  10.643   3.977  0.4454 -0.3906  0.6499
  439MOL0     C59183   9.282  10.661   3.438 -1.0799  0.6684  0.5079
  439MOL0     C59184   9.235  10.615   3.315 -0.5876  0.3367 -0.2173
  439MOL0     C59185   9.146  10.474   2.890 -0.1076 -0.4252 -0.2931
  439MOL0     C59186   9.243  10.503   2.790 -0.3195 -0.4810 -0.2202
  439MOL0     C59187   9.242  10.446   2.665 -0.0862 -0.3980  0.4075
  439MOL0     C59188   9.126  10.380   2.617 -0.4562  0.8842  0.3784
  439MOL0     O59189   9.108  10.337   2.492 -0.1322  0.2183 -0.3738
  439MOL0     C59190   9.174  10.409   2.387 -1.2115  0.1246 -0.0009
  439MOL0     C59191   9.298  10.327   2.346  0.2713 -0.4610  0.8195
  439MOL0     C59192   9.268  10.172   2.316  0.4494 -0.5587 -0.2055
  439MOL0     C59193   9.390  10.086   2.269 -0.2867 -0.6540  0.4043
  439MOL0     C59194   9.480  10.080   2.389  0.0724  0.6237 -0.9616
  439MOL0     C59195   9.552  10.081   2.483  0.3944 -0.7865  0.0102
  439MOL0     C59196   9.026  10.364   2.702 -0.1385  0.0016 -0.5369
  439MOL0     C59197   9.033  10.402   2.837 -0.0359  0.6311 -0.2385
  439MOL0     H59198   9.498  10.643   3.108 -0.7331 -3.7581  0.2181
  439MOL0     H59199   9.604  10.722   3.350  1.5116 -2.6934 -0.4354
  439MOL0     H59200   9.311  10.807   3.667 -2.7723 -3.6602 -3.5304
  439MOL0     H59201   9.322  10.644   3.709 -1.2875 -0.0713 -0.5649
  439MOL0     H59202   9.501  10.704   3.893  0.1203  0.7676  1.1606
  439MOL0     H59203   9.544  10.842   3.796 -0.5694  0.5083 -2.1181
  439MOL0     H59204   9.427  10.923   3.982  1.9295 -1.4253 -0.9082
  439MOL0     H59205   9.338  10.943   3.824 -0.8683 -1.6384 -0.6406
  439MOL0     H59206   9.193  10.784   3.876  2.2057  2.3594 -2.4208
  439MOL0     H59207   9.263  10.748   4.030 -2.1359 -2.0580 -0.3526
  439MOL0     H59208   9.214  11.004   4.103 -0.7000  1.7776 -0.5312
  439MOL0     H59209   9.157  11.043   3.957  1.0298  2.5254  2.2066
  439MOL0     H59210   9.036  10.875   4.167  0.6451  0.5900  0.6117
  439MOL0     H59211   8.969  11.015   4.085 -3.4397 -1.4111  1.3342
  439MOL0     H59212   8.920  10.875   3.890 -0.1827 -0.0970  0.1229
  439MOL0     H59213   8.972  10.730   3.966 -0.4141 -0.1275 -1.4800
  439MOL0     H59214   8.765  10.935   4.090  0.8303  1.6990  0.6006
  439MOL0     H59215   8.793  10.793   4.170 -0.8358 -0.7476 -0.1965
  439MOL0     H59216   8.591  10.956   3.881  0.1739 -0.7964  1.2290
  439MOL0     H59217   8.448  10.911   3.721 -1.9514  0.3199 -0.1100
  439MOL0     H59218   8.411  10.750   3.675  1.5010  0.8732 -1.4213
  439MOL0     H59219   8.227  10.931   3.798 -1.5221  1.4750  2.5439
  439MOL0     H59220   8.319  10.875   3.939  1.2036 -0.2226  0.0029
  439MOL0     H59221   8.105  10.746   3.771 -2.4888  1.3907  2.3492
  439MOL0     H59222   8.125  10.766   3.950 -1.1572  1.2114 -1.4685
  439MOL0     H59223   8.290  10.600   3.964 -0.3019  3.8052  0.3649
  439MOL0     H59224   8.281  10.561   3.794  1.2508  0.6200  0.6570
  439MOL0     H59225   8.340  10.385   3.920 -0.6971  0.1560 -1.1919
  439MOL0     H59226   8.431  10.053   3.943  2.0460  0.8595 -0.9794
  439MOL0     H59227   8.487  10.216   3.946  2.2466 -4.5540 -4.5387
  439MOL0     H59228   8.471  10.134   4.098 -2.0469 -2.2058  1.1433
  439MOL0     H59229   8.146   9.826   4.328  1.0597  0.9403 -1.1693
  439MOL0     H59230   8.209   9.633   4.463 -2.2540  1.0758 -0.0746
  439MOL0     H59231   8.232   9.403   4.366 -0.0301 -2.0107 -0.8140
  439MOL0     H59232   8.356   9.332   4.272  0.1509 -1.4396  0.0914
  439MOL0     H59233   8.358   9.167   4.420  0.7960  2.4455 -2.3328
  439MOL0     H59234   8.453   9.268   4.519  0.2491  0.6236 -1.4047
  439MOL0     H59235   8.152   9.246   4.539  0.1353 -0.2041 -0.7397
  439MOL0     H59236   8.261   9.351   4.639  1.5598 -0.1554 -0.5524
  439MOL0     H59237   8.312   9.053   4.636 -0.7798 -0.0297  0.1709
  439MOL0     H59238   8.336   9.180   4.763 -0.2584  2.3560  0.7592
  439MOL0     H59239   8.060   9.083   4.676  1.0849  0.3003 -0.4693
  439MOL0     H59240   8.111   9.185   4.817 -2.1663 -1.2867  1.2431
  439MOL0     H59241   8.058   8.920   4.848 -0.6053 -0.1274 -4.9082
  439MOL0     H59242   8.213   8.906   4.768  1.7102  1.5948  0.9298
  439MOL0     H59243   8.198   9.097   4.992  0.4358 -1.1860  2.3346
  439MOL0     H59244   8.338   9.017   4.931  0.5492 -2.8762 -3.5746
  439MOL0     H59245   8.263   8.799   5.036  0.3190  0.2647 -0.0454
  439MOL0     H59246   8.112   8.880   5.102 -0.0826  1.5517  1.7822
  439MOL0     H59247   8.541   9.560   4.209 -0.6414 -1.1733  2.1330
  439MOL0     H59248   8.480   9.772   4.073  0.2494  3.2736  1.5393
  439MOL0     H59249   7.941  10.113   4.017 -0.6979  1.4816 -0.6545
  439MOL0     H59250   7.916  10.332   3.932  0.0653 -0.0868 -0.2259
  439MOL0     H59251   9.218  10.653   3.526  0.4782  2.4563  1.8965
  439MOL0     H59252   9.130  10.587   3.310 -0.4703 -0.1787  0.1066
  439MOL0     H59253   9.330  10.562   2.819  1.6846 -3.7745  1.0894
  439MOL0     H59254   9.320  10.472   2.594 -0.6528  1.1331  0.2970
  439MOL0     H59255   9.111  10.416   2.297  0.3600  0.0095 -1.1540
  439MOL0     H59256   9.208  10.510   2.411 -1.8746  0.5829 -0.8998
  439MOL0     H59257   9.367  10.331   2.430 -1.8218 -2.5793  2.7933
  439MOL0     H59258   9.350  10.375   2.263 -0.0188 -1.9683 -0.2808
  439MOL0     H59259   9.208  10.168   2.225  1.4124 -1.0752 -0.8329
  439MOL0     H59260   9.216  10.116   2.394  1.5726 -1.0226  0.2323
  439MOL0     H59261   9.447  10.136   2.190 -0.4252  1.1174  1.3777
  439MOL0     H59262   9.353   9.990   2.233 -0.4159  0.7231 -3.6915
  439MOL0     H59263   9.614  10.103   2.568  0.7498 -1.7536  0.0144
  439MOL0     H59264   8.931  10.322   2.670 -0.7418  1.0058 -0.1055
  439MOL0     H59265   8.947  10.388   2.902  0.6353  1.4591  0.8784
  440MOL0     O59266   1.831   9.704  10.373 -0.4573  0.2023 -0.2523
  440MOL0     C59267   1.842   9.824  10.377 -0.4897 -0.4653  0.3725
  440MOL0     O59268   1.837   9.905  10.487  0.2155  0.1129  0.2178
  440MOL0     C59269   1.824   9.862  10.617 -0.6219  0.5374 -0.2520
  440MOL0     C59270   1.759   9.743  10.661 -0.2318  0.1103 -0.1025
  440MOL0     C59271   1.746   9.728  10.795  0.7159 -0.1814  0.6985
  440MOL0     C59272   1.786   9.821  10.888  0.5161 -0.0380 -0.6909
  440MOL0     O59273   1.774   9.785  11.015  0.2519 -0.0458 -0.0131
  440MOL0     C59274   1.890   9.762  11.100  0.2645 -0.1647 -0.1556
  440MOL0     C59275   1.954   9.624  11.090 -0.6676 -0.1067  0.1093
  440MOL0     C59276   1.867   9.513  11.146  0.9620 -0.0152 -0.4206
  440MOL0     C59277   1.939   9.413  11.240 -0.2243  0.3132  0.5226
  440MOL0     C59278   2.051   9.327  11.173  0.2804 -0.4242  0.4180
  440MOL0     C59279   2.003   9.236  11.056 -0.9669 -0.2092 -0.4559
  440MOL0     C59280   2.113   9.142  11.018 -0.3642  0.7004 -0.5288
  440MOL0     C59281   2.076   9.054  10.904  0.0272 -0.0315  0.6108
  440MOL0     N59282   2.125   8.917  10.915  0.0745 -0.1514 -0.7785
  440MOL0     C59283   2.253   8.878  10.943 -0.2246  0.3348  0.1880
  440MOL0     C59284   2.257   8.745  10.892  0.0582 -0.3877 -1.0420
  440MOL0     C59285   2.381   8.667  10.892 -0.9846 -0.1059  0.1529
  440MOL0     C59286   2.376   8.545  10.984 -0.0813 -0.7665  0.0927
  440MOL0     C59287   2.377   8.580  11.140 -0.2617  0.9339  0.6499
  440MOL0     C59288   2.235   8.545  11.205 -0.2048 -1.0626 -0.3825
  440MOL0     O59289   2.126   8.606  11.139  0.0107 -0.6919 -0.0077
  440MOL0     C59290   2.059   8.716  11.202 -0.3421 -0.6242  1.3152
  440MOL0     C59291   2.124   8.808  11.276 -0.5840  0.8040 -0.1154
  440MOL0     C59292   2.055   8.915  11.340  0.4245  0.2357  0.6431
  440MOL0     C59293   2.119   9.022  11.433  0.6123  0.1997 -0.1539
  440MOL0     C59294   1.913   8.932  11.314 -0.0378 -0.9847  0.0429
  440MOL0     C59295   1.835   9.038  11.375  1.3284 -0.1445  0.2614
  440MOL0     O59296   1.842   9.057  11.514 -0.0070 -0.9124  1.1039
  440MOL0     C59297   1.728   9.085  11.581 -0.0732  0.6772 -0.3975
  440MOL0     C59298   1.740   9.159  11.694 -0.2906  0.0386  0.3632
  440MOL0     C59299   1.628   9.209  11.766 -0.2466  0.5024  0.2745
  440MOL0     C59300   1.497   9.169  11.733  0.3092 -0.7255  0.7962
  440MOL0     O59301   1.387   9.193  11.805  0.3601  0.0258 -0.0914
  440MOL0     C59302   1.367   9.329  11.852 -0.5591  1.2831  0.4483
  440MOL0     C59303   1.224   9.323  11.896  0.1655  0.5637 -0.4664
  440MOL0     C59304   1.115   9.361  11.786 -0.1658  0.5565 -0.8188
  440MOL0     C59305   0.972   9.366  11.842  0.3126  0.1195  0.9339
  440MOL0     C59306   0.871   9.393  11.722  0.4186  0.3284  0.2696
  440MOL0     C59307   0.743   9.312  11.743  0.2850 -0.6270 -0.3469
  440MOL0     C59308   0.761   9.161  11.707  0.3320  0.3826 -0.2295
  440MOL0     C59309   0.635   9.083  11.720 -0.7619 -0.3737 -0.0769
  440MOL0    Cl59310   0.677   8.919  11.662  0.0396  0.2408  0.0976
  440MOL0     C59311   1.489   9.095  11.611  0.2586  0.0008  0.1367
  440MOL0     C59312   1.607   9.051  11.544  0.3911  0.0381  0.7424
  440MOL0     O59313   1.767   9.113  11.297  0.6672  0.1796  0.0864
  440MOL0     C59314   1.857   8.848  11.223  0.6836 -0.3944 -0.0836
  440MOL0     C59315   1.919   8.731  11.172 -1.1500 -0.2804  0.8644
  440MOL0     N59316   2.139   8.724  10.822  0.1770 -0.0964  0.4430
  440MOL0     N59317   2.062   8.824  10.841 -0.3869  0.8274 -0.2178
  440MOL0     C59318   1.849   9.940  10.844  0.6195 -0.0703  0.0646
  440MOL0     C59319   1.867   9.961  10.711  0.1202  0.9014  0.4109
  440MOL0     C59320   1.883   9.892  10.255 -0.2234  0.4382 -0.1616
  440MOL0     C59321   1.909   9.812  10.140  1.2768  0.6482  0.3814
  440MOL0     C59322   1.932   9.868  10.020  0.0880 -0.0207  0.4670
  440MOL0     C59323   1.950  10.006  10.009  0.7497 -0.1761  0.8059
  440MOL0     O59324   1.986  10.059   9.885 -0.0136 -0.6418  0.4513
  440MOL0     C59325   2.082  10.162   9.887  0.0746  0.4054  0.0366
  440MOL0     C59326   2.212  10.138   9.819  0.0766  0.3718  0.4981
  440MOL0     C59327   2.176  10.082   9.682  0.2852 -0.4173 -0.1836
  440MOL0     C59328   2.287  10.117   9.586 -0.3527  1.0558 -0.3985
  440MOL0     C59329   2.237  10.077   9.455 -0.7277  0.1719 -0.1787
  440MOL0     C59330   2.211  10.030   9.342 -0.5765  0.0499 -0.3305
  440MOL0     C59331   1.920  10.086  10.121  1.1894  0.9457 -0.0852
  440MOL0     C59332   1.888  10.034  10.246  0.0227 -0.5380 -0.1696
  440MOL0     H59333   1.722   9.664  10.595  0.9230 -0.9749  0.5039
  440MOL0     H59334   1.688   9.642  10.827 -5.8997  3.7661  1.1186
  440MOL0     H59335   1.965   9.836  11.071  0.0795  0.3372  0.6085
  440MOL0     H59336   1.862   9.784  11.203 -2.9508 -2.5553 -0.3659
  440MOL0     H59337   1.976   9.615  10.983  1.6173  0.6801  0.4759
  440MOL0     H59338   2.044   9.630  11.151 -0.1389 -0.2721 -0.6400
  440MOL0     H59339   1.772   9.552  11.183 -0.8659 -0.8780 -3.8236
  440MOL0     H59340   1.836   9.454  11.059 -0.1753  0.9016 -0.6619
  440MOL0     H59341   1.972   9.479  11.321  2.1754 -0.2998  0.1296
  440MOL0     H59342   1.882   9.341  11.299  1.9596  0.9965  3.7083
  440MOL0     H59343   2.133   9.394  11.145  0.8235 -0.9124  0.8279
  440MOL0     H59344   2.087   9.255  11.246  0.6965 -1.3450 -0.6541
  440MOL0     H59345   1.921   9.176  11.096 -1.2035 -1.0382 -2.0800
  440MOL0     H59346   1.969   9.300  10.974  1.4846  2.1871  0.2426
  440MOL0     H59347   2.204   9.195  10.988  0.8910 -1.1811 -0.2054
  440MOL0     H59348   2.142   9.082  11.104  2.4136  1.6272 -0.7183
  440MOL0     H59349   2.104   9.111  10.815 -1.7160  0.0057  0.0639
  440MOL0     H59350   1.969   9.067  10.890  0.2138  1.6341  0.5053
  440MOL0     H59351   2.331   8.945  10.977  1.4925 -1.0935 -0.7944
  440MOL0     H59352   2.392   8.641  10.786 -0.9815  4.1118 -1.0288
  440MOL0     H59353   2.469   8.723  10.925  0.4341 -2.1815  0.1062
  440MOL0     H59354   2.450   8.469  10.955 -1.8222 -2.7456  0.5332
  440MOL0     H59355   2.280   8.494  10.972 -1.7106  1.9549  0.9730
  440MOL0     H59356   2.426   8.676  11.161 -1.6837  1.7104  0.6359
  440MOL0     H59357   2.448   8.507  11.178 -0.1463  1.0016  0.5649
  440MOL0     H59358   2.253   8.577  11.308  0.2550  1.9571 -1.3325
  440MOL0     H59359   2.213   8.437  11.199  0.1748 -1.1917  0.3726
  440MOL0     H59360   2.231   8.814  11.296  0.1334 -0.9913 -2.8757
  440MOL0     H59361   2.119   9.124  11.395  0.1249  0.0842 -0.4678
  440MOL0     H59362   2.069   9.001  11.528 -1.3320  1.4364 -0.8434
  440MOL0     H59363   2.228   9.011  11.440  0.5974  0.8641  1.8353
  440MOL0     H59364   1.838   9.172  11.737  1.1712  2.0779 -3.0998
  440MOL0     H59365   1.634   9.269  11.856 -3.6529  4.3897 -1.7227
  440MOL0     H59366   1.430   9.355  11.938  0.6113 -1.2037  0.4355
  440MOL0     H59367   1.375   9.403  11.772  2.6722  1.4168  0.7501
  440MOL0     H59368   1.182   9.231  11.938 -3.8687  1.4044 -2.2734
  440MOL0     H59369   1.215   9.401  11.973 -0.0192  0.7410 -0.6669
  440MOL0     H59370   1.133   9.288  11.706  0.5726 -2.1989  1.6934
  440MOL0     H59371   1.134   9.458  11.739  0.7229 -1.7475 -5.9065
  440MOL0     H59372   0.948   9.265  11.877  2.7873  0.0811  2.7671
  440MOL0     H59373   0.957   9.436  11.925 -0.4160 -1.6227  2.3448
  440MOL0     H59374   0.920   9.358  11.631  1.3540  0.8000  0.5780
  440MOL0     H59375   0.847   9.499  11.705 -1.7141 -0.1571 -0.0762
  440MOL0     H59376   0.708   9.334  11.844 -2.1617 -0.2928 -1.1965
  440MOL0     H59377   0.663   9.351  11.679  1.3566 -2.4262 -2.9756
  440MOL0     H59378   0.848   9.117  11.756  1.3844 -0.5124 -2.7524
  440MOL0     H59379   0.798   9.150  11.605  1.4018  0.3572  0.1565
  440MOL0     H59380   0.569   9.136  11.651 -0.4289 -2.2661 -1.9379
  440MOL0     H59381   0.593   9.079  11.821  0.7294  0.3680  0.6004
  440MOL0     H59382   1.398   9.055  11.568 -0.5329  4.3202 -2.9654
  440MOL0     H59383   1.596   8.988  11.456 -1.5783 -0.4048  1.2578
  440MOL0     H59384   1.753   8.863  11.195 -0.4006 -2.9040  2.0861
  440MOL0     H59385   1.872   8.663  11.102 -3.8386  1.2760  0.9916
  440MOL0     H59386   1.884  10.013  10.916 -1.2538  1.5587 -0.5913
  440MOL0     H59387   1.899  10.057  10.673 -2.4051  2.1090  1.1111
  440MOL0     H59388   1.894   9.705  10.132  0.8515  0.7047  0.3867
  440MOL0     H59389   1.955   9.805   9.935 -0.9269  3.8721 -3.0418
  440MOL0     H59390   2.031  10.250   9.846  0.4859  0.2955 -0.7231
  440MOL0     H59391   2.114  10.191   9.988 -0.7366 -2.3263  1.1518
  440MOL0     H59392   2.265  10.064   9.880 -1.7701 -0.7363  0.8076
  440MOL0     H59393   2.272  10.230   9.817  4.7219 -2.3269  0.0195
  440MOL0     H59394   2.083  10.130   9.649 -0.7377 -0.7963  1.9696
  440MOL0     H59395   2.159   9.974   9.693 -1.9853  0.1319  4.6982
  440MOL0     H59396   2.377  10.062   9.615 -0.4923 -0.2168 -2.2001
  440MOL0     H59397   2.302  10.225   9.589  0.6107  0.9166  0.2212
  440MOL0     H59398   2.201   9.990   9.243 -0.1906 -0.0258 -0.3422
  440MOL0     H59399   1.909  10.194  10.123 -1.6343  0.7215  0.6002
  440MOL0     H59400   1.864  10.099  10.329 -0.6611  0.5503 -1.1799
  441MOL0     O59401   2.823   9.094   1.593  0.5555  0.1628  0.5775
  441MOL0     C59402   2.824   9.206   1.644  0.8683 -0.0923 -0.0215
  441MOL0     O59403   2.779   9.320   1.583 -0.0509 -0.2749  0.4873
  441MOL0     C59404   2.781   9.322   1.451 -0.0826  0.1356 -0.6086
  441MOL0     C59405   2.670   9.389   1.395  0.6611  0.3694 -0.6188
  441MOL0     C59406   2.663   9.421   1.261 -0.3713  1.1202 -0.3760
  441MOL0     C59407   2.769   9.386   1.179  0.0025  0.5169  1.0996
  441MOL0     O59408   2.775   9.419   1.046 -0.4262 -0.0518  0.0442
  441MOL0     C59409   2.675   9.489   0.974 -0.1977  0.4937 -0.1792
  441MOL0     C59410   2.554   9.393   0.950 -0.1426 -0.2477  0.4977
  441MOL0     C59411   2.416   9.465   0.951  0.2801  0.4331 -0.5652
  441MOL0     C59412   2.422   9.611   0.890  0.8604 -0.4602  0.2231
  441MOL0     C59413   2.280   9.670   0.873  0.0926  0.0953 -0.2558
  441MOL0     C59414   2.290   9.830   0.878  0.3779  0.4108  1.0532
  441MOL0     C59415   2.407   9.880   0.795 -0.3322  0.6048 -0.0811
  441MOL0     C59416   2.428  10.032   0.772  0.3843 -0.7972 -0.5857
  441MOL0     N59417   2.483  10.118   0.883 -0.1513 -0.1815  0.5474
  441MOL0     C59418   2.490  10.257   0.872 -0.4270  0.2348 -0.2070
  441MOL0     C59419   2.573  10.291   0.981 -0.0863  0.0577 -0.2409
  441MOL0     C59420   2.635  10.423   1.007 -0.6903 -1.0671  1.1574
  441MOL0     C59421   2.579  10.489   1.141  0.4377 -0.0692 -0.9889
  441MOL0     C59422   2.620  10.638   1.153  0.1777  0.2195  0.2861
  441MOL0     C59423   2.537  10.702   1.266 -0.7234  0.1952 -0.5775
  441MOL0     O59424   2.396  10.714   1.254  0.5673 -0.2037 -0.2385
  441MOL0     C59425   2.333  10.735   1.377 -0.1370 -0.0700 -0.1310
  441MOL0     C59426   2.190  10.742   1.373  0.0097 -0.5886 -1.7021
  441MOL0     C59427   2.114  10.771   1.491  0.4430 -0.0540  0.3223
  441MOL0     C59428   1.970  10.770   1.459  0.2064 -0.5185 -0.3133
  441MOL0     C59429   2.187  10.806   1.607  0.1593  0.1173  0.0877
  441MOL0     C59430   2.118  10.871   1.734 -0.2088  1.5624  0.7675
  441MOL0     O59431   2.202  10.906   1.833  0.4974  0.2120  0.2010
  441MOL0     C59432   2.140  10.950   1.944  0.4499  0.2377  0.2178
  441MOL0     C59433   2.041  10.881   2.015  0.0169 -0.0076 -0.9923
  441MOL0     C59434   1.985  10.932   2.127  0.3786  0.1023 -0.5644
  441MOL0     C59435   2.020  11.056   2.180 -0.1256 -0.1253 -0.1458
  441MOL0     O59436   1.967  11.119   2.288  0.5332  0.0825 -0.2173
  441MOL0     C59437   1.863  11.053   2.363 -0.5447 -0.3556  0.4160
  441MOL0     C59438   1.815  11.133   2.482  0.1738  0.7648 -0.7686
  441MOL0     C59439   1.919  11.139   2.588 -0.3479  0.1585  0.4411
  441MOL0     C59440   1.933  11.263   2.672  0.2744  0.2589  0.1089
  441MOL0     C59441   1.813  11.269   2.771 -0.1342  0.0111 -0.3182
  441MOL0     C59442   1.789  11.403   2.842  0.4403 -0.3579  0.5692
  441MOL0     C59443   1.678  11.389   2.953 -0.7473  0.2164 -0.1886
  441MOL0     C59444   1.713  11.482   3.066  0.6777 -0.2949  0.0099
  441MOL0    Cl59445   1.584  11.484   3.180 -0.0856 -0.0499 -0.3287
  441MOL0     C59446   2.118  11.126   2.104 -0.2496  0.5896 -0.6099
  441MOL0     C59447   2.177  11.071   1.988 -0.5522  0.0541  0.5210
  441MOL0     O59448   1.997  10.880   1.736  1.1493  0.2119  0.3561
  441MOL0     C59449   2.330  10.798   1.608  0.4220 -0.0406  0.8657
  441MOL0     C59450   2.396  10.751   1.504  0.4518  0.0176 -0.0746
  441MOL0     N59451   2.604  10.171   1.049  0.7648  0.6533  0.3307
  441MOL0     N59452   2.548  10.075   0.992 -1.0443 -0.0130  0.5147
  441MOL0     C59453   2.868   9.302   1.220 -0.4826 -0.4079 -0.4805
  441MOL0     C59454   2.882   9.275   1.358 -1.1243 -0.8991  0.7623
  441MOL0     C59455   2.892   9.209   1.781 -0.1452 -0.1740  0.0607
  441MOL0     C59456   2.926   9.092   1.855  0.2118  0.7341 -0.4675
  441MOL0     C59457   2.991   9.109   1.976  0.2630 -0.1715  0.8847
  441MOL0     C59458   3.023   9.230   2.034  0.7210  0.0612  0.1655
  441MOL0     O59459   3.076   9.218   2.152  0.8235 -0.2240  0.2301
  441MOL0     C59460   3.132   9.339   2.204 -0.0469  0.6584 -0.2064
  441MOL0     C59461   3.012   9.403   2.281 -1.1931  0.6316 -0.0876
  441MOL0     C59462   2.974   9.317   2.401  0.0909 -0.9264  0.6166
  441MOL0     C59463   2.883   9.398   2.497 -0.3329 -0.3827 -0.1386
  441MOL0     C59464   2.885   9.325   2.621  0.2361 -0.0696  0.4488
  441MOL0     C59465   2.878   9.260   2.723 -0.1108  0.1591 -0.7620
  441MOL0     C59466   2.993   9.349   1.960  0.9502  0.8827 -0.2960
  441MOL0     C59467   2.927   9.333   1.839  0.6922  0.5773 -0.3649
  441MOL0     H59468   2.588   9.431   1.452  0.5714 -0.1255 -0.3874
  441MOL0     H59469   2.570   9.464   1.224 -0.9829 -1.3088 -1.8656
  441MOL0     H59470   2.656   9.579   1.033 -0.7101 -0.4585  1.1702
  441MOL0     H59471   2.712   9.531   0.881  3.3044 -0.1927  0.7792
  441MOL0     H59472   2.563   9.340   0.855  0.2332 -0.6470  0.7484
  441MOL0     H59473   2.546   9.303   1.012  1.7418 -2.1894 -1.8803
  441MOL0     H59474   2.349   9.401   0.894 -0.5261  1.1577 -0.4412
  441MOL0     H59475   2.389   9.465   1.057  0.1940  2.6712 -0.5313
  441MOL0     H59476   2.481   9.663   0.966 -0.7403 -0.3782  1.4643
  441MOL0     H59477   2.472   9.609   0.793  0.6204 -1.8049  0.1057
  441MOL0     H59478   2.242   9.622   0.783  2.6123 -1.8133 -0.4226
  441MOL0     H59479   2.215   9.655   0.960 -1.2256  2.9649 -0.6362
  441MOL0     H59480   2.195   9.868   0.839 -1.0093 -1.6828  2.1737
  441MOL0     H59481   2.303   9.856   0.984 -1.0314  0.8530  1.1395
  441MOL0     H59482   2.501   9.835   0.830 -0.7071 -0.9096 -0.9070
  441MOL0     H59483   2.403   9.835   0.695 -0.0011 -1.7701  0.9042
  441MOL0     H59484   2.341  10.083   0.731 -0.0827 -2.9729 -2.4722
  441MOL0     H59485   2.498  10.036   0.689 -1.4504 -2.1636 -2.3053
  441MOL0     H59486   2.453  10.326   0.797 -0.6063 -1.1098 -1.3929
  441MOL0     H59487   2.744  10.430   1.011 -0.6721  2.2907 -1.0091
  441MOL0     H59488   2.609  10.486   0.921 -0.3066 -2.7494 -0.2327
  441MOL0     H59489   2.621  10.430   1.223  2.3854  2.4262 -0.0742
  441MOL0     H59490   2.470  10.479   1.149  0.1770  2.7501  0.0223
  441MOL0     H59491   2.586  10.689   1.062 -3.5283  1.1271  1.9976
  441MOL0     H59492   2.726  10.647   1.179  0.3420 -0.2251 -0.2144
  441MOL0     H59493   2.578  10.802   1.286  0.6880 -1.2310  5.7608
  441MOL0     H59494   2.567  10.642   1.353  2.6114 -2.9258 -3.5659
  441MOL0     H59495   2.169  10.714   1.270 -0.4238 -2.0898 -1.2341
  441MOL0     H59496   1.942  10.699   1.381 -0.0373 -0.3701 -0.3624
  441MOL0     H59497   1.918  10.751   1.553 -0.3581  0.5893 -0.3880
  441MOL0     H59498   1.946  10.864   1.409 -2.4532 -0.6310  0.5706
  441MOL0     H59499   1.991  10.793   1.975 -1.7175 -0.4591  1.8614
  441MOL0     H59500   1.902  10.879   2.174 -0.4988  0.6182 -1.5090
  441MOL0     H59501   1.774  11.030   2.304 -1.5474 -1.3215  2.2482
  441MOL0     H59502   1.900  10.956   2.396 -1.3121 -1.2739 -1.2794
  441MOL0     H59503   1.801  11.236   2.449  0.6202  1.0992  0.0655
  441MOL0     H59504   1.718  11.106   2.526  0.5530  2.1829  1.0638
  441MOL0     H59505   2.018  11.119   2.546 -0.0544 -0.0831  1.2258
  441MOL0     H59506   1.909  11.059   2.662  0.9044 -0.8010 -0.3827
  441MOL0     H59507   2.030  11.265   2.722  0.6520 -1.1145 -0.5027
  441MOL0     H59508   1.919  11.345   2.602 -2.3763 -0.3977 -0.2280
  441MOL0     H59509   1.830  11.189   2.844  0.2000  2.7085  2.7694
  441MOL0     H59510   1.718  11.243   2.723 -0.0596  1.5598 -1.3854
  441MOL0     H59511   1.884  11.439   2.883  0.7858  1.6375 -1.7452
  441MOL0     H59512   1.761  11.476   2.765  2.5275 -2.2246 -2.1614
  441MOL0     H59513   1.674  11.288   2.995  0.8534  0.3870  0.4366
  441MOL0     H59514   1.592  11.422   2.894  1.3491  0.9277 -3.0672
  441MOL0     H59515   1.725  11.581   3.020 -1.4798 -0.3967 -0.8785
  441MOL0     H59516   1.800  11.452   3.126  0.3346 -0.8471  0.2393
  441MOL0     H59517   2.130  11.226   2.147 -0.8744 -0.9436  3.6587
  441MOL0     H59518   2.249  11.122   1.925 -0.0066 -1.2079  0.0927
  441MOL0     H59519   2.394  10.830   1.689  3.9232 -1.6927 -1.0191
  441MOL0     H59520   2.502  10.740   1.521 -0.1120 -1.0346  3.8373
  441MOL0     H59521   2.941   9.258   1.153 -0.1214 -4.2678  2.1317
  441MOL0     H59522   2.968   9.217   1.391 -0.0390  0.0982 -0.2065
  441MOL0     H59523   2.905   8.998   1.805  0.5001  1.1091 -1.3162
  441MOL0     H59524   3.028   9.024   2.032  1.9035  1.0171  1.6837
  441MOL0     H59525   3.216   9.316   2.271  0.1349  3.3294  0.6171
  441MOL0     H59526   3.167   9.408   2.126 -2.0105  0.4551 -1.3075
  441MOL0     H59527   2.923   9.429   2.223 -3.9063 -0.0982  3.3899
  441MOL0     H59528   3.055   9.496   2.320 -2.0553  1.4996 -1.1587
  441MOL0     H59529   3.063   9.279   2.451  0.0682 -0.5187  0.9647
  441MOL0     H59530   2.930   9.227   2.356 -0.1244  0.5788 -2.4776
  441MOL0     H59531   2.779   9.392   2.464 -1.3737 -4.3244  2.9687
  441MOL0     H59532   2.914   9.502   2.502 -1.4727 -0.0777  2.7255
  441MOL0     H59533   2.881   9.215   2.821  0.7379 -0.2566 -0.9668
  441MOL0     H59534   3.002   9.451   1.995 -1.2980  0.5550  1.5191
  441MOL0     H59535   2.891   9.423   1.790 -0.2795  0.8252  0.7799
  442MOL0     O59536   1.828   6.861   2.676 -0.1782  0.0467 -0.3465
  442MOL0     C59537   1.901   6.825   2.590 -0.0545  0.1795  1.0104
  442MOL0     O59538   1.878   6.716   2.515  0.0078  0.1472 -0.1895
  442MOL0     C59539   1.758   6.646   2.517  0.5421  0.3017  0.6123
  442MOL0     C59540   1.630   6.712   2.520 -0.1389 -0.2085 -1.2997
  442MOL0     C59541   1.521   6.637   2.493  0.6431  0.4184  0.7962
  442MOL0     C59542   1.527   6.499   2.473 -0.9757  0.3630  0.4582
  442MOL0     O59543   1.415   6.417   2.465 -0.3132  0.6441 -0.0852
  442MOL0     C59544   1.286   6.476   2.456 -0.4370 -0.2200 -0.0363
  442MOL0     C59545   1.187   6.365   2.410  0.4938 -1.4479 -0.9797
  442MOL0     C59546   1.161   6.261   2.522 -0.7408  1.2519  0.0517
  442MOL0     C59547   1.025   6.194   2.516  0.2331  0.3670 -0.7725
  442MOL0     C59548   1.005   6.088   2.627  0.1848 -0.1796  0.3431
  442MOL0     C59549   1.107   5.983   2.650 -0.6825  0.0369  0.3880
  442MOL0     C59550   1.053   5.874   2.755 -0.2495  0.1432 -0.1892
  442MOL0     C59551   0.964   5.782   2.674  0.1109  1.2934  0.5654
  442MOL0     N59552   0.824   5.750   2.724  0.0080 -0.7447 -0.9169
  442MOL0     C59553   0.701   5.808   2.691 -0.5268  0.2410 -0.1415
  442MOL0     C59554   0.599   5.722   2.726  0.0076  0.0168 -0.8557
  442MOL0     C59555   0.454   5.731   2.699  0.7032  0.1592 -0.1968
  442MOL0     C59556   0.410   5.882   2.690 -0.2892 -0.6134 -1.1719
  442MOL0     C59557   0.439   5.970   2.820 -0.1759 -0.1935  0.0586
  442MOL0     C59558   0.357   6.097   2.818  0.5855  0.2532 -0.5510
  442MOL0     O59559   0.411   6.186   2.715 -0.7228  0.5672 -0.5150
  442MOL0     C59560   0.531   6.248   2.729 -0.1163 -1.2997 -0.0723
  442MOL0     C59561   0.575   6.322   2.618  0.4196 -0.5928  0.0511
  442MOL0     C59562   0.701   6.390   2.611  0.9232  0.3679  0.5483
  442MOL0     C59563   0.747   6.445   2.479  1.1084  0.0467  0.3041
  442MOL0     C59564   0.785   6.393   2.721 -1.6034 -0.2477 -0.0927
  442MOL0     C59565   0.914   6.467   2.726 -0.4721  0.0418  0.7520
  442MOL0     O59566   1.006   6.413   2.811 -0.1894 -0.6757 -0.1611
  442MOL0     C59567   1.116   6.478   2.854 -1.1555 -0.3245  0.8831
  442MOL0     C59568   1.213   6.394   2.910 -0.4337  0.4720 -0.1699
  442MOL0     C59569   1.341   6.445   2.933 -0.5978  0.2326  0.7130
  442MOL0     C59570   1.373   6.583   2.910 -0.7187  1.1172 -0.6316
  442MOL0     O59571   1.503   6.639   2.924 -0.4316  0.5071 -0.4003
  442MOL0     C59572   1.604   6.540   2.951 -0.1300 -0.1485  0.0746
  442MOL0     C59573   1.749   6.590   2.943  0.3099 -0.3077  0.1717
  442MOL0     C59574   1.785   6.702   3.046  0.1372 -0.2806 -0.3626
  442MOL0     C59575   1.925   6.678   3.099 -0.0553 -0.3949 -0.5321
  442MOL0     C59576   1.946   6.772   3.221  0.3001 -0.6540  0.2445
  442MOL0     C59577   2.088   6.765   3.283  0.0987 -0.6251  0.5959
  442MOL0     C59578   2.196   6.844   3.197  0.3279 -0.5681  0.9095
  442MOL0     C59579   2.332   6.833   3.256 -0.0167 -0.3955 -0.0216
  442MOL0    Cl59580   2.391   6.669   3.206  0.1772 -0.6047 -0.1362
  442MOL0     C59581   1.275   6.669   2.866 -0.1438 -0.7653 -0.5962
  442MOL0     C59582   1.144   6.617   2.842  0.3339 -0.5328 -0.6274
  442MOL0     O59583   0.935   6.571   2.656 -0.2646 -0.9458  0.1552
  442MOL0     C59584   0.745   6.320   2.829 -0.3330  0.7160 -0.7113
  442MOL0     C59585   0.617   6.250   2.834  0.2539  0.2337 -0.4182
  442MOL0     N59586   0.662   5.623   2.803 -0.5604  0.4013 -0.0422
  442MOL0     N59587   0.792   5.639   2.799  0.7313 -0.3672  0.9247
  442MOL0     C59588   1.655   6.438   2.478  0.6385  0.9775 -0.0842
  442MOL0     C59589   1.769   6.510   2.499 -0.0582  0.3477  0.0280
  442MOL0     C59590   2.029   6.902   2.563  0.1602  0.5625 -0.3127
  442MOL0     C59591   2.052   7.030   2.620 -0.3147  0.5466  0.9420
  442MOL0     C59592   2.181   7.093   2.608  0.6825 -0.0961 -0.2016
  442MOL0     C59593   2.286   7.016   2.537  0.2735 -0.0259 -0.5585
  442MOL0     O59594   2.427   7.051   2.526 -0.7902 -0.1559 -0.8475
  442MOL0     C59595   2.470   7.185   2.561  0.5487 -0.2792  0.2628
  442MOL0     C59596   2.608   7.218   2.525 -0.8968  0.8333  0.3292
  442MOL0     C59597   2.666   7.348   2.566  0.3396 -0.2762 -0.0274
  442MOL0     C59598   2.812   7.359   2.525 -0.1162 -0.3495 -0.0928
  442MOL0     C59599   2.861   7.476   2.595 -0.4279 -0.0722 -0.3712
  442MOL0     C59600   2.898   7.567   2.660  0.4733 -0.2646  0.5962
  442MOL0     C59601   2.250   6.888   2.487 -0.3031 -0.1932  0.5226
  442MOL0     C59602   2.126   6.838   2.494 -0.2478  0.0444  0.5941
  442MOL0     H59603   1.628   6.821   2.527  1.7329  0.0719 -3.6640
  442MOL0     H59604   1.430   6.695   2.484 -0.4957 -1.2985  0.6781
  442MOL0     H59605   1.259   6.519   2.554 -2.5281 -2.4532  0.4724
  442MOL0     H59606   1.298   6.549   2.376  0.3069 -0.2933  0.0069
  442MOL0     H59607   1.090   6.406   2.378  0.6896 -0.3767 -0.2218
  442MOL0     H59608   1.243   6.320   2.328 -1.1897 -1.0024 -2.4530
  442MOL0     H59609   1.238   6.184   2.519 -1.3103  0.4608  2.8731
  442MOL0     H59610   1.174   6.303   2.622 -2.8472 -1.6210  1.7136
  442MOL0     H59611   0.951   6.272   2.534  1.3513  2.1122 -3.1849
  442MOL0     H59612   0.999   6.150   2.419  0.8211 -2.5101  0.2773
  442MOL0     H59613   1.000   6.158   2.711  1.2087 -0.9573  1.0818
  442MOL0     H59614   0.909   6.041   2.606 -1.2000  0.4693  4.2637
  442MOL0     H59615   1.152   5.937   2.560 -0.8329 -1.7844  1.1977
  442MOL0     H59616   1.189   6.029   2.706  0.0184 -0.3303 -0.2984
  442MOL0     H59617   1.138   5.825   2.803  0.2663  0.9928 -0.2106
  442MOL0     H59618   0.988   5.911   2.835 -1.7796  0.4433 -1.5279
  442MOL0     H59619   1.010   5.683   2.672  1.2219  1.7367  2.2368
  442MOL0     H59620   0.942   5.837   2.582  1.3811  1.9614  0.6532
  442MOL0     H59621   0.685   5.898   2.633  0.4559  0.2733 -0.3872
  442MOL0     H59622   0.427   5.680   2.607  0.9895  1.5789 -1.0984
  442MOL0     H59623   0.408   5.693   2.791 -2.3161  3.6686 -0.0207
  442MOL0     H59624   0.301   5.881   2.680 -0.6749  0.5079  1.8924
  442MOL0     H59625   0.445   5.925   2.596 -0.7890 -0.2114 -1.1752
  442MOL0     H59626   0.545   5.983   2.843 -0.1820  0.5831 -0.3393
  442MOL0     H59627   0.410   5.905   2.902 -1.6925 -1.8765 -1.7057
  442MOL0     H59628   0.368   6.159   2.908 -1.4224 -2.4608  1.7438
  442MOL0     H59629   0.252   6.074   2.797  1.4022 -3.6691 -1.1164
  442MOL0     H59630   0.507   6.342   2.536  1.1239 -1.6426 -0.8235
  442MOL0     H59631   0.687   6.417   2.391  1.4023 -1.0852  0.4483
  442MOL0     H59632   0.740   6.554   2.489 -1.5410  0.2919 -2.5317
  442MOL0     H59633   0.853   6.431   2.458  0.8428  0.1910 -1.3174
  442MOL0     H59634   1.199   6.286   2.918  0.2401  0.4665  1.2749
  442MOL0     H59635   1.411   6.365   2.953  2.2828  2.3940  0.0182
  442MOL0     H59636   1.592   6.491   3.048  0.3076 -0.3172  0.0446
  442MOL0     H59637   1.603   6.459   2.878 -2.5362 -0.5945  0.5070
  442MOL0     H59638   1.820   6.507   2.955  1.8357  0.6817 -1.5801
  442MOL0     H59639   1.757   6.637   2.845 -0.0635  0.9403  0.7219
  442MOL0     H59640   1.720   6.706   3.133  1.3497  0.8610  0.5315
  442MOL0     H59641   1.786   6.800   2.996 -0.0120  0.6242  1.3451
  442MOL0     H59642   1.935   6.573   3.127 -1.0274  0.0482  1.7171
  442MOL0     H59643   1.995   6.712   3.023  0.2622  2.4444  0.8781
  442MOL0     H59644   1.877   6.764   3.305 -2.4468  0.4039 -1.7633
  442MOL0     H59645   1.929   6.870   3.176 -0.9484 -1.9619 -2.3349
  442MOL0     H59646   2.078   6.827   3.373 -0.7225  0.7309 -0.3966
  442MOL0     H59647   2.117   6.661   3.301  0.6187 -0.9766 -1.9590
  442MOL0     H59648   2.164   6.948   3.199 -0.8915 -0.9321  0.9485
  442MOL0     H59649   2.197   6.818   3.090 -2.2232  3.9453 -0.4688
  442MOL0     H59650   2.336   6.856   3.363  2.5405 -0.0583 -0.1153
  442MOL0     H59651   2.390   6.909   3.203 -1.5538  0.4660 -0.5340
  442MOL0     H59652   1.297   6.774   2.852 -1.1499 -0.6341 -1.3149
  442MOL0     H59653   1.068   6.688   2.809  1.3775  0.1613 -1.6130
  442MOL0     H59654   0.810   6.312   2.916 -1.5396  1.1120  0.2555
  442MOL0     H59655   0.602   6.202   2.930  1.3124  0.5760 -0.0636
  442MOL0     H59656   1.666   6.331   2.463 -0.6030  0.7602  0.4356
  442MOL0     H59657   1.869   6.466   2.506 -1.5141 -3.5031 -0.9330
  442MOL0     H59658   1.970   7.074   2.677 -0.9886  3.1242 -1.7791
  442MOL0     H59659   2.195   7.196   2.638  1.6210  0.1243 -1.3234
  442MOL0     H59660   2.397   7.255   2.517  1.5245 -1.3600 -3.4365
  442MOL0     H59661   2.474   7.199   2.669 -2.0553  1.3838  0.2445
  442MOL0     H59662   2.610   7.189   2.419  0.6718 -0.8168  0.7545
  442MOL0     H59663   2.679   7.149   2.572 -1.0804 -0.9342 -1.7821
  442MOL0     H59664   2.650   7.357   2.674 -1.5024  0.5510 -0.3305
  442MOL0     H59665   2.618   7.426   2.507  1.5420 -0.8686 -1.8679
  442MOL0     H59666   2.826   7.364   2.417  0.1399  0.9864 -0.0150
  442MOL0     H59667   2.873   7.278   2.567 -0.8816 -0.5478  0.6723
  442MOL0     H59668   2.940   7.658   2.697  0.7521  0.4253 -1.3244
  442MOL0     H59669   2.325   6.833   2.431  1.1115 -0.8654  2.9521
  442MOL0     H59670   2.111   6.743   2.443 -2.2184  1.1483 -1.0513
  443MOL0     O59671   2.800   9.076   9.979 -0.3462 -0.1096  0.5328
  443MOL0     C59672   2.810   9.167  10.064 -0.6522 -0.1831 -0.6071
  443MOL0     O59673   2.922   9.201  10.129  0.1552 -0.7140 -0.0491
  443MOL0     C59674   3.042   9.143  10.086 -0.6854 -0.4066 -0.2233
  443MOL0     C59675   3.081   9.116   9.949  0.3667  0.3420 -0.2001
  443MOL0     C59676   3.202   9.055   9.924  0.4244 -0.3608  0.4878
  443MOL0     C59677   3.282   9.014  10.022 -0.1116  0.6002 -0.4600
  443MOL0     O59678   3.400   8.950  10.000 -0.6525 -0.5512  0.5585
  443MOL0     C59679   3.404   8.840   9.908 -0.6651 -0.2572  0.5147
  443MOL0     C59680   3.472   8.892   9.781 -0.0849  0.8680  0.9537
  443MOL0     C59681   3.534   8.771   9.704 -0.5556 -0.3422 -0.9379
  443MOL0     C59682   3.634   8.830   9.607  0.1316 -0.1631 -0.5663
  443MOL0     C59683   3.685   8.712   9.511 -1.1760 -0.5767  0.2332
  443MOL0     C59684   3.714   8.769   9.366  0.1624 -0.1275  0.1546
  443MOL0     C59685   3.713   8.661   9.255  0.2915 -0.0984  0.7549
  443MOL0     C59686   3.844   8.610   9.195  0.0232  0.7762 -0.1950
  443MOL0     N59687   3.822   8.548   9.061 -0.6412 -0.3487 -0.8134
  443MOL0     C59688   3.842   8.411   9.039  0.2470 -0.2574 -0.0123
  443MOL0     C59689   3.813   8.381   8.911 -0.3573  0.7601 -0.4149
  443MOL0     C59690   3.840   8.252   8.834 -0.4625  0.3712 -0.6852
  443MOL0     C59691   3.761   8.243   8.698 -0.1270  0.4590 -0.5423
  443MOL0     C59692   3.614   8.188   8.725  0.6146  1.4779  1.2196
  443MOL0     C59693   3.526   8.300   8.776  0.1914  0.0378  0.6450
  443MOL0     O59694   3.522   8.269   8.922  0.2752 -0.0674  0.3160
  443MOL0     C59695   3.457   8.352   9.009  0.7880  0.2496  0.0431
  443MOL0     C59696   3.407   8.471   8.963 -0.4130 -0.3804  0.9992
  443MOL0     C59697   3.358   8.566   9.053  0.2392 -0.6546  0.0952
  443MOL0     C59698   3.341   8.703   8.998  0.2446  0.2960 -0.1431
  443MOL0     C59699   3.343   8.539   9.190  0.0693 -0.3142  0.9130
  443MOL0     C59700   3.291   8.634   9.299  1.0259 -0.3811 -0.1892
  443MOL0     O59701   3.241   8.567   9.395  0.0340 -0.3681  0.2528
  443MOL0     C59702   3.171   8.618   9.504  0.7221  0.7254 -0.2580
  443MOL0     C59703   3.121   8.750   9.534 -0.4796 -0.4897  0.7325
  443MOL0     C59704   3.047   8.767   9.653 -0.1107  0.4357  0.4782
  443MOL0     C59705   3.011   8.659   9.730 -0.3396  0.0427  0.9588
  443MOL0     O59706   2.934   8.666   9.848  0.1999  0.5429 -0.2325
  443MOL0     C59707   2.909   8.790   9.909  0.9148  0.6391  0.0333
  443MOL0     C59708   2.862   8.775  10.056  0.2275  0.5805 -0.1279
  443MOL0     C59709   2.802   8.637  10.099 -0.3057 -0.6857  0.4149
  443MOL0     C59710   2.669   8.609  10.028  0.0738 -0.0976  0.7108
  443MOL0     C59711   2.617   8.467  10.052  0.3684  0.2671  0.0073
  443MOL0     C59712   2.690   8.356   9.988 -0.0047 -0.2378  0.1049
  443MOL0     C59713   2.610   8.216   9.995  0.4274  0.1434 -0.5694
  443MOL0     C59714   2.692   8.110   9.934  0.1019 -0.6647 -0.1299
  443MOL0    Cl59715   2.645   7.959  10.006 -0.0414  0.3633  0.4441
  443MOL0     C59716   3.067   8.535   9.706 -0.1283  0.1984 -0.6693
  443MOL0     C59717   3.145   8.513   9.597 -0.5210  0.2047 -0.6744
  443MOL0     O59718   3.300   8.757   9.292 -0.6120 -0.0773 -0.0749
  443MOL0     C59719   3.389   8.416   9.235 -0.4254  1.4649 -0.2810
  443MOL0     C59720   3.446   8.322   9.142  0.7951  0.1029  0.2223
  443MOL0     N59721   3.781   8.504   8.861  0.1843 -0.7203 -0.6224
  443MOL0     N59722   3.768   8.597   8.956  0.3294  0.5604  0.7158
  443MOL0     C59723   3.256   9.048  10.149  0.5220  0.6138 -0.7658
  443MOL0     C59724   3.145   9.123  10.180  0.2857 -0.0848 -1.3345
  443MOL0     C59725   2.694   9.239  10.101  0.7917  0.9489 -0.0743
  443MOL0     C59726   2.693   9.333  10.191 -0.2469  0.5455 -0.3661
  443MOL0     C59727   2.585   9.409  10.232 -0.1865 -0.2260 -0.4186
  443MOL0     C59728   2.459   9.375  10.189 -0.8582 -0.4497 -1.1794
  443MOL0     O59729   2.343   9.433  10.232  0.2449 -0.1526 -0.1690
  443MOL0     C59730   2.330   9.528  10.346 -0.4975 -0.1364 -0.3269
  443MOL0     C59731   2.387   9.665  10.314  0.2647  0.4427 -0.6251
  443MOL0     C59732   2.366   9.765  10.439 -0.4338 -0.4874 -0.6051
  443MOL0     C59733   2.243   9.860  10.437  0.6882  0.0136  0.0560
  443MOL0     C59734   2.259   9.958  10.332  0.6965 -0.3467  0.6083
  443MOL0     C59735   2.289  10.037  10.242 -0.4462  0.8236 -0.0811
  443MOL0     C59736   2.442   9.269  10.100 -0.8252  0.1758  0.0668
  443MOL0     C59737   2.561   9.197  10.056 -0.0010 -0.6050  1.8978
  443MOL0     H59738   3.013   9.147   9.871 -0.4303  2.9318  1.3955
  443MOL0     H59739   3.224   9.043   9.818  1.5418 -0.8547  0.7619
  443MOL0     H59740   3.448   8.749   9.952  1.3908 -1.6364 -3.8288
  443MOL0     H59741   3.304   8.805   9.882  0.1968 -2.0934 -0.5635
  443MOL0     H59742   3.407   8.943   9.710 -0.1303  0.5063  0.7295
  443MOL0     H59743   3.552   8.962   9.803  2.5599 -0.9767 -1.8851
  443MOL0     H59744   3.586   8.705   9.775 -1.4844 -0.1847 -0.0860
  443MOL0     H59745   3.462   8.712   9.646  0.4262 -1.3165 -1.2012
  443MOL0     H59746   3.589   8.913   9.551 -1.3186  1.9493  3.3079
  443MOL0     H59747   3.713   8.877   9.668 -0.7840  0.7636 -0.0567
  443MOL0     H59748   3.776   8.673   9.557 -0.1911  0.2595 -0.9463
  443MOL0     H59749   3.624   8.620   9.513  1.1465 -2.1901  1.4870
  443MOL0     H59750   3.619   8.820   9.347  0.8293  1.2927  0.4670
  443MOL0     H59751   3.793   8.845   9.365 -0.6324  0.8883  2.9938
  443MOL0     H59752   3.649   8.578   9.286  0.5506 -1.1383 -1.3421
  443MOL0     H59753   3.664   8.704   9.168  3.7729 -0.5613 -1.6712
  443MOL0     H59754   3.886   8.529   9.255 -3.4675 -1.4756 -0.4873
  443MOL0     H59755   3.910   8.696   9.182 -0.7293  1.7727  2.0477
  443MOL0     H59756   3.856   8.344   9.123 -3.0617 -0.3154  0.6345
  443MOL0     H59757   3.946   8.236   8.812  0.1281 -0.1140  2.0963
  443MOL0     H59758   3.820   8.165   8.898  1.8873  1.3236  1.5531
  443MOL0     H59759   3.811   8.166   8.638  0.6121  0.7160 -0.2698
  443MOL0     H59760   3.760   8.336   8.640  0.6713  0.9770  0.2465
  443MOL0     H59761   3.625   8.098   8.786  0.8217  1.1193  0.6561
  443MOL0     H59762   3.580   8.161   8.625 -0.5511  3.6761  0.9539
  443MOL0     H59763   3.429   8.287   8.727  0.5746 -0.8468  0.1000
  443MOL0     H59764   3.567   8.401   8.768 -0.2851  0.2028  0.2201
  443MOL0     H59765   3.425   8.500   8.860 -1.0593 -4.1563 -0.3310
  443MOL0     H59766   3.412   8.721   8.917 -0.4903  1.2974 -0.5819
  443MOL0     H59767   3.244   8.725   8.955  1.1757 -0.0089 -2.5373
  443MOL0     H59768   3.360   8.777   9.077  0.8255  1.0347 -0.9529
  443MOL0     H59769   3.149   8.822   9.458  1.2257 -1.6028  0.2508
  443MOL0     H59770   3.009   8.867   9.670  0.3087  1.2450 -2.7528
  443MOL0     H59771   3.005   8.842   9.912 -0.0001  2.3523  1.2680
  443MOL0     H59772   2.838   8.837   9.840  0.3638  2.7397  1.9109
  443MOL0     H59773   2.953   8.788  10.115  0.0688 -0.0704  0.2788
  443MOL0     H59774   2.794   8.856  10.083  0.5069  0.4470  1.0599
  443MOL0     H59775   2.799   8.635  10.209  0.3403  0.8690  0.4880
  443MOL0     H59776   2.876   8.558  10.081  0.9606  1.0485 -2.6831
  443MOL0     H59777   2.589   8.678  10.054 -0.4487 -0.2998 -0.3152
  443MOL0     H59778   2.686   8.621   9.921  0.2948  0.9962  0.8606
  443MOL0     H59779   2.513   8.467  10.019  0.6139  0.2370 -0.7985
  443MOL0     H59780   2.612   8.445  10.159 -0.6109  1.6259  0.2735
  443MOL0     H59781   2.719   8.366   9.883  2.3217 -0.4968  0.6797
  443MOL0     H59782   2.783   8.351  10.044 -0.1993  2.5818  0.8660
  443MOL0     H59783   2.516   8.228   9.941  0.4612  1.2587 -0.4199
  443MOL0     H59784   2.594   8.181  10.097  1.2240 -1.5781 -1.0024
  443MOL0     H59785   2.796   8.141   9.953  0.8289 -3.8901  1.9107
  443MOL0     H59786   2.684   8.105   9.825 -0.8319 -0.7243 -0.0628
  443MOL0     H59787   3.059   8.472   9.794  2.7991  2.0843  1.1144
  443MOL0     H59788   3.183   8.412   9.604  2.7277  1.3816  0.6807
  443MOL0     H59789   3.387   8.393   9.341  0.6183  1.6625 -0.2119
  443MOL0     H59790   3.473   8.225   9.182 -3.9589 -1.0821  1.0909
  443MOL0     H59791   3.324   9.011  10.225  0.4262  2.6467  0.3742
  443MOL0     H59792   3.120   9.164  10.277  0.8129  1.1658 -1.7077
  443MOL0     H59793   2.790   9.369  10.223 -0.2693  1.2755 -1.0802
  443MOL0     H59794   2.613   9.487  10.303  4.4425 -1.6545 -0.3274
  443MOL0     H59795   2.223   9.544  10.362 -0.5285 -0.8080  0.1965
  443MOL0     H59796   2.379   9.478  10.430  2.7358 -0.2265 -2.1012
  443MOL0     H59797   2.338   9.707  10.226 -3.1533 -1.6105  0.0995
  443MOL0     H59798   2.494   9.668  10.291  0.4124  2.0439  0.1312
  443MOL0     H59799   2.457   9.826  10.446 -0.1929 -0.8777 -0.3279
  443MOL0     H59800   2.356   9.722  10.539 -1.8702  1.9528  0.3949
  443MOL0     H59801   2.239   9.916  10.531  1.6836  1.2763 -0.6267
  443MOL0     H59802   2.151   9.806  10.410  0.2565  1.6342 -1.9267
  443MOL0     H59803   2.329  10.112  10.177  3.2943  0.0893  1.1135
  443MOL0     H59804   2.344   9.246  10.060 -0.0510 -0.9739 -1.2318
  443MOL0     H59805   2.551   9.123   9.977 -0.8501  1.4049  0.0305
  444MOL0     O59806   5.980   6.706   8.192 -0.0444  0.6864  0.1557
  444MOL0     C59807   5.937   6.810   8.154 -0.4429 -0.3152 -0.3107
  444MOL0     O59808   5.810   6.853   8.175  0.0896 -0.1178 -0.0309
  444MOL0     C59809   5.694   6.782   8.208 -1.2416  0.6969 -0.7038
  444MOL0     C59810   5.603   6.879   8.262 -1.1199  1.2780  0.0180
  444MOL0     C59811   5.476   6.843   8.299 -0.0032  0.0071  0.2532
  444MOL0     C59812   5.440   6.707   8.272 -0.1487  0.1958  0.2475
  444MOL0     O59813   5.331   6.641   8.313 -0.1357 -0.5875  0.0626
  444MOL0     C59814   5.205   6.695   8.265 -1.1691 -0.1528  0.3566
  444MOL0     C59815   5.159   6.608   8.149  1.1550 -0.5613  0.0872
  444MOL0     C59816   5.126   6.461   8.193 -0.0777  0.4288 -0.1130
  444MOL0     C59817   5.091   6.375   8.073  0.6491  0.1271 -0.4742
  444MOL0     C59818   5.042   6.236   8.110 -0.8047  0.9579 -0.1301
  444MOL0     C59819   5.030   6.151   7.985 -0.2090  0.4303 -0.5048
  444MOL0     C59820   4.918   6.039   8.015  0.5002 -0.4706 -0.5837
  444MOL0     C59821   4.842   5.972   7.896 -0.1941 -0.5950 -0.9669
  444MOL0     N59822   4.937   5.889   7.820  0.1680  0.7122  0.3106
  444MOL0     C59823   4.958   5.754   7.822  0.4135 -0.3538 -0.3094
  444MOL0     C59824   5.035   5.721   7.709 -0.3823 -0.0504 -0.6091
  444MOL0     C59825   5.074   5.585   7.676 -0.0715  0.6204 -0.0549
  444MOL0     C59826   5.223   5.552   7.674 -0.6984 -0.7684  0.5600
  444MOL0     C59827   5.293   5.612   7.803  0.0567  0.5710 -0.4695
  444MOL0     C59828   5.251   5.541   7.934  0.4513  0.0542 -0.3289
  444MOL0     O59829   5.343   5.548   8.040  0.6125 -0.3552  0.3775
  444MOL0     C59830   5.371   5.678   8.084  0.5837 -0.0537 -0.5530
  444MOL0     C59831   5.501   5.710   8.112  0.3969 -0.8131  0.0031
  444MOL0     C59832   5.549   5.834   8.162  0.3277 -0.3298  0.7609
  444MOL0     C59833   5.702   5.854   8.163  0.2109  0.7065  0.0540
  444MOL0     C59834   5.441   5.934   8.198 -0.1404 -0.3832 -0.8096
  444MOL0     C59835   5.481   6.066   8.248  0.4220 -0.6613  0.5478
  444MOL0     O59836   5.439   6.113   8.365 -0.6624  0.1398  0.2873
  444MOL0     C59837   5.488   6.233   8.420 -1.0952  0.0315  0.7936
  444MOL0     C59838   5.610   6.296   8.383  0.2991 -0.2730 -1.1020
  444MOL0     C59839   5.651   6.417   8.439  0.0716 -0.5996 -0.4750
  444MOL0     C59840   5.570   6.487   8.525  0.5609 -0.1526 -0.2706
  444MOL0     O59841   5.615   6.607   8.587 -0.1480  0.4505  0.5163
  444MOL0     C59842   5.511   6.678   8.657  0.0520 -0.2073 -0.4222
  444MOL0     C59843   5.573   6.806   8.727 -0.0465 -0.0114 -0.9670
  444MOL0     C59844   5.619   6.902   8.623 -0.0381 -0.1904  0.2543
  444MOL0     C59845   5.627   7.045   8.684 -1.1169  0.3139  1.0014
  444MOL0     C59846   5.670   7.155   8.580 -0.0445  0.5104 -0.0739
  444MOL0     C59847   5.625   7.296   8.630 -0.8789 -0.1471 -0.1256
  444MOL0     C59848   5.695   7.402   8.550 -0.6549 -0.1423 -0.5219
  444MOL0     C59849   5.694   7.533   8.640  0.0845 -0.6688 -1.0568
  444MOL0    Cl59850   5.777   7.655   8.538 -0.1800 -0.0605  0.1179
  444MOL0     C59851   5.447   6.412   8.561 -0.2782  0.2210 -0.0686
  444MOL0     C59852   5.406   6.288   8.509 -1.1117 -0.2443  0.5727
  444MOL0     O59853   5.539   6.132   8.161  0.2178 -0.7561 -0.5822
  444MOL0     C59854   5.304   5.909   8.156 -0.2671 -0.2235 -0.3790
  444MOL0     C59855   5.269   5.778   8.115 -0.0431 -0.7212 -0.0341
  444MOL0     N59856   5.062   5.838   7.643 -0.0211 -0.0057  0.1137
  444MOL0     N59857   5.011   5.932   7.717 -0.9591  0.3843  0.1378
  444MOL0     C59858   5.527   6.624   8.205 -1.0409 -0.2095 -0.5828
  444MOL0     C59859   5.658   6.653   8.182  0.0895  0.1416 -0.1812
  444MOL0     C59860   6.037   6.891   8.076 -0.6939 -0.1505  0.6327
  444MOL0     C59861   6.005   6.994   7.997  0.2560 -0.5570 -0.8709
  444MOL0     C59862   6.107   7.058   7.926 -0.7637 -0.4275 -0.3198
  444MOL0     C59863   6.237   7.014   7.922 -0.2808 -0.0561  0.0418
  444MOL0     O59864   6.336   7.063   7.841  0.5619 -0.0962 -0.3992
  444MOL0     C59865   6.313   7.167   7.739  0.1601 -0.7209 -1.0617
  444MOL0     C59866   6.245   7.120   7.605  0.2207 -0.1310  0.5503
  444MOL0     C59867   6.335   7.032   7.520  0.8949 -0.0700  0.2310
  444MOL0     C59868   6.343   6.878   7.556  0.4187  0.0090 -0.7465
  444MOL0     C59869   6.217   6.807   7.527  0.7529 -0.0033 -0.0419
  444MOL0     C59870   6.112   6.744   7.507  0.6524  0.2850 -0.6994
  444MOL0     C59871   6.273   6.900   7.996  0.5246  1.0983 -0.1268
  444MOL0     C59872   6.171   6.837   8.073  1.2970  0.1900 -0.7857
  444MOL0     H59873   5.647   6.975   8.290  0.9862  0.7813 -1.3728
  444MOL0     H59874   5.421   6.923   8.349  0.3408  0.9562 -0.8512
  444MOL0     H59875   5.142   6.701   8.354 -0.4370 -0.0358  0.8832
  444MOL0     H59876   5.225   6.799   8.236 -0.7042 -0.7402 -1.5621
  444MOL0     H59877   5.064   6.638   8.103 -1.1634 -4.3746  1.8519
  444MOL0     H59878   5.233   6.609   8.068  0.0419 -1.6119 -1.0019
  444MOL0     H59879   5.210   6.408   8.238 -0.2948 -1.0675 -1.3739
  444MOL0     H59880   5.045   6.474   8.265 -2.1859  1.3743 -2.5232
  444MOL0     H59881   5.013   6.429   8.019 -0.9969 -0.7179  0.9505
  444MOL0     H59882   5.181   6.383   8.011  3.6232  1.7048  3.6316
  444MOL0     H59883   5.111   6.182   8.174 -1.8430 -1.0655 -0.6308
  444MOL0     H59884   4.937   6.241   8.142 -1.8461  0.1576 -3.0451
  444MOL0     H59885   4.999   6.217   7.903  1.3694  0.3035 -1.2321
  444MOL0     H59886   5.120   6.106   7.942  0.8549  4.7691 -3.5072
  444MOL0     H59887   4.947   5.966   8.091  1.0559 -0.1389 -0.4702
  444MOL0     H59888   4.836   6.097   8.059  2.5988  2.9656 -0.8577
  444MOL0     H59889   4.786   6.041   7.832  0.4608 -1.1382 -2.1651
  444MOL0     H59890   4.771   5.904   7.944 -1.0213  1.4909  0.9094
  444MOL0     H59891   4.921   5.681   7.893  1.9152 -1.8299 -0.9667
  444MOL0     H59892   5.037   5.523   7.758 -1.9032  2.7981  0.8725
  444MOL0     H59893   5.032   5.549   7.582 -1.0994 -0.7821  0.9095
  444MOL0     H59894   5.262   5.608   7.588 -3.6090 -1.1862 -1.1566
  444MOL0     H59895   5.232   5.443   7.669 -0.6971 -0.8892  2.4482
  444MOL0     H59896   5.287   5.722   7.805  0.5155  0.6123  2.4114
  444MOL0     H59897   5.398   5.583   7.790 -0.2339 -0.6628 -0.1729
  444MOL0     H59898   5.236   5.432   7.931  0.9361 -0.1332  2.2926
  444MOL0     H59899   5.158   5.584   7.973  1.1285 -0.0758  1.5064
  444MOL0     H59900   5.568   5.628   8.090 -0.9906 -1.9070 -0.3005
  444MOL0     H59901   5.741   5.916   8.245  1.6203  1.5176 -1.1795
  444MOL0     H59902   5.744   5.752   8.161 -1.4698 -0.0262 -2.5307
  444MOL0     H59903   5.729   5.910   8.073 -2.2883 -2.1849 -2.7670
  444MOL0     H59904   5.688   6.253   8.322 -1.2528 -0.3422 -3.1237
  444MOL0     H59905   5.738   6.467   8.398  0.9042 -1.0198  0.7564
  444MOL0     H59906   5.431   6.693   8.584  1.0146 -1.5317 -1.8099
  444MOL0     H59907   5.468   6.623   8.741  0.8107  0.4817  0.4410
  444MOL0     H59908   5.484   6.852   8.771  1.1357  0.1002  1.4919
  444MOL0     H59909   5.640   6.791   8.812 -1.6380 -0.9816  0.1602
  444MOL0     H59910   5.561   6.916   8.531  0.6589  2.6862  0.1463
  444MOL0     H59911   5.716   6.873   8.580  1.8927  2.2055  2.5973
  444MOL0     H59912   5.535   7.080   8.733 -0.9420  1.5377  0.4713
  444MOL0     H59913   5.702   7.025   8.761  0.1264 -0.0992 -0.2875
  444MOL0     H59914   5.629   7.140   8.480  1.7892  1.2398 -0.9907
  444MOL0     H59915   5.780   7.148   8.579  0.0514  0.2098  2.9086
  444MOL0     H59916   5.517   7.309   8.621 -0.7281  0.1155 -1.9793
  444MOL0     H59917   5.657   7.299   8.735  1.3931 -1.3312 -0.7175
  444MOL0     H59918   5.637   7.430   8.462 -0.8769 -0.0581 -0.3481
  444MOL0     H59919   5.793   7.386   8.504  0.0709  2.1421  0.1108
  444MOL0     H59920   5.760   7.515   8.725  2.4604  0.2708 -2.6146
  444MOL0     H59921   5.592   7.556   8.672  0.0998 -2.5917  0.6116
  444MOL0     H59922   5.380   6.455   8.635 -1.1771 -1.4586  0.1389
  444MOL0     H59923   5.319   6.231   8.541 -1.1214  0.5436  2.0630
  444MOL0     H59924   5.241   5.995   8.174  0.3766  0.0973  0.4073
  444MOL0     H59925   5.164   5.756   8.102  0.3950 -2.9705 -0.0296
  444MOL0     H59926   5.496   6.520   8.197  0.9339 -0.7577 -1.5639
  444MOL0     H59927   5.727   6.573   8.155  3.1884  1.9619  1.6492
  444MOL0     H59928   5.902   7.027   7.996 -0.2279 -1.8064  1.1874
  444MOL0     H59929   6.065   7.128   7.855 -2.7411 -0.2301  0.9668
  444MOL0     H59930   6.248   7.243   7.784 -0.1116 -2.2678  1.3066
  444MOL0     H59931   6.402   7.219   7.704  0.8588 -0.8679  0.4127
  444MOL0     H59932   6.242   7.212   7.545  3.0425  0.4535  1.1553
  444MOL0     H59933   6.149   7.068   7.614 -1.7835  3.5385  2.7841
  444MOL0     H59934   6.437   7.069   7.524  0.3592  1.5714 -0.4591
  444MOL0     H59935   6.296   7.031   7.417 -2.3030  0.9674  1.2958
  444MOL0     H59936   6.362   6.877   7.664 -2.1325 -0.0678 -0.2379
  444MOL0     H59937   6.427   6.821   7.516  0.3899 -0.7633  0.2487
  444MOL0     H59938   6.029   6.680   7.487  0.8062 -0.9178  2.0818
  444MOL0     H59939   6.365   6.845   7.980 -0.7640 -2.2144  2.5870
  444MOL0     H59940   6.184   6.740   8.120 -3.4807 -0.5437 -0.5358
  445MOL0     O59941   1.242  10.149   6.339 -0.6066  0.0285 -0.0742
  445MOL0     C59942   1.132  10.190   6.307 -0.1772 -0.3833 -0.4562
  445MOL0     O59943   1.008  10.107   6.293  0.3821 -0.2480  0.3928
  445MOL0     C59944   1.012   9.976   6.326  0.7023 -0.8155 -0.4962
  445MOL0     C59945   0.932   9.920   6.432  0.2466 -2.2337  0.7118
  445MOL0     C59946   0.925   9.779   6.430 -0.6070 -0.9274 -0.8019
  445MOL0     C59947   1.015   9.698   6.365 -0.2316  0.7426 -0.2171
  445MOL0     O59948   1.025   9.555   6.379 -0.3003  0.2159 -0.3117
  445MOL0     C59949   1.006   9.505   6.510  0.1805  0.4444 -0.7647
  445MOL0     C59950   0.901   9.385   6.496  0.1090 -0.2758  0.3465
  445MOL0     C59951   0.894   9.299   6.628 -0.9833 -0.2420  0.6276
  445MOL0     C59952   0.783   9.196   6.623 -0.6894  0.4888  0.8843
  445MOL0     C59953   0.791   9.092   6.735  0.2618  0.2488 -0.2863
  445MOL0     C59954   0.730   9.142   6.862  0.1113  0.4716 -1.1464
  445MOL0     C59955   0.803   9.100   6.988  0.4781 -0.4878 -0.4305
  445MOL0     C59956   0.709   9.062   7.106 -0.0565  0.2763 -0.6126
  445MOL0     N59957   0.597   8.972   7.075 -0.1769  1.3911 -0.5505
  445MOL0     C59958   0.473   9.008   7.088 -0.3218 -0.0386  0.2142
  445MOL0     C59959   0.398   8.905   7.051 -0.2279 -0.4796  0.6692
  445MOL0     C59960   0.245   8.901   7.053 -1.1861  0.2963  0.4046
  445MOL0     C59961   0.188   8.818   7.165 -0.0829 -0.1759 -0.3089
  445MOL0     C59962   0.232   8.871   7.300  0.6105 -0.2451  0.2385
  445MOL0     C59963   0.207   8.785   7.433 -0.0003 -0.2983  1.3751
  445MOL0     O59964   0.084   8.712   7.433 -0.2600 -1.1217  0.4008
  445MOL0     C59965   0.096   8.592   7.497  0.2777  0.8587 -0.1084
  445MOL0     C59966   0.037   8.566   7.626 -0.9804  0.2208 -0.0516
  445MOL0     C59967   0.054   8.443   7.690  0.8282  0.5043 -0.3733
  445MOL0     C59968   0.002   8.436   7.825 -0.9390 -0.7627 -0.2097
  445MOL0     C59969   0.126   8.345   7.628  0.2484  0.6756  0.2865
  445MOL0     C59970   0.159   8.219   7.698 -0.2210  0.0563 -0.5656
  445MOL0     O59971   0.053   8.139   7.733  0.0833 -0.0004  0.4699
  445MOL0     C59972   0.083   8.012   7.783  0.2549  0.7492  0.3526
  445MOL0     C59973   0.074   7.907   7.693  0.2821  1.1129  0.4998
  445MOL0     C59974   0.130   7.786   7.720 -0.1598  0.1766  0.2119
  445MOL0     C59975   0.178   7.754   7.853  0.7069 -0.3166 -0.7131
  445MOL0     O59976   0.219   7.629   7.892  0.6067 -0.0122  0.5711
  445MOL0     C59977   0.223   7.531   7.790  0.3016  0.2583  0.7338
  445MOL0     C59978   0.282   7.402   7.853 -0.1207  0.1503  0.5361
  445MOL0     C59979   0.211   7.334   7.979  0.1219 -0.0926  0.2103
  445MOL0     C59980   0.261   7.383   8.114  0.2859  0.3690  0.2379
  445MOL0     C59981   0.173   7.312   8.210  0.6122 -0.5075  0.0795
  445MOL0     C59982   0.192   7.364   8.361  0.1972 -0.5286 -0.0210
  445MOL0     C59983   0.076   7.328   8.451 -0.5589  0.3758 -0.9611
  445MOL0     C59984   0.091   7.393   8.587  0.7122 -0.1109 -0.4362
  445MOL0    Cl59985  -0.050   7.335   8.671 -0.3501 -0.2679 -0.0778
  445MOL0     C59986   0.169   7.859   7.950  0.6700  0.5862  1.0748
  445MOL0     C59987   0.116   7.981   7.919  1.2960  0.3558  0.1076
  445MOL0     O59988   0.276   8.197   7.723  0.2057  0.0414  0.3974
  445MOL0     C59989   0.181   8.365   7.506  0.1361  0.5818 -0.3278
  445MOL0     C59990   0.165   8.488   7.436 -0.6001  1.0729 -0.4845
  445MOL0     N59991   0.472   8.796   7.019  0.0760 -0.3864  0.9379
  445MOL0     N59992   0.590   8.836   7.048 -0.8847 -0.5406  0.6614
  445MOL0     C59993   1.110   9.753   6.278  0.5042 -0.4682  0.3964
  445MOL0     C59994   1.098   9.891   6.256 -0.0363 -1.0594  0.2357
  445MOL0     C59995   1.126  10.342   6.271 -0.0076  0.1570  0.2170
  445MOL0     C59996   1.008  10.405   6.218 -0.3401  0.3920 -0.2978
  445MOL0     C59997   1.017  10.534   6.179  0.3219  0.7232  0.1083
  445MOL0     C59998   1.132  10.611   6.189  0.2758 -0.2737  1.4332
  445MOL0     O59999   1.108  10.740   6.146 -0.7165  1.1379  0.2513
  445MOL0     C60000   1.201  10.844   6.165  0.1171  0.6548  0.9160
  445MOL0     C60001   1.281  10.869   6.041  0.3604 -0.5129 -0.4044
  445MOL0     C60002   1.385  10.990   6.056 -1.3989  0.5105 -0.0561
  445MOL0     C60003   1.317  11.123   6.081  0.8030  0.0889 -0.0186
  445MOL0     C60004   1.218  11.163   5.986  0.5041 -0.5788 -0.5641
  445MOL0     C60005   1.146  11.206   5.905  0.4038 -0.2324  0.5733
  445MOL0     C60006   1.242  10.553   6.249 -0.9088 -0.7265 -0.2575
  445MOL0     C60007   1.247  10.414   6.264 -0.0183 -0.4953  1.4773
  445MOL0     H60008   0.870   9.981   6.496  0.8896 -2.9477  2.0633
  445MOL0     H60009   0.864   9.726   6.502 -0.8309  0.2554 -0.0815
  445MOL0     H60010   1.105   9.477   6.545  0.5226 -0.1792 -2.1821
  445MOL0     H60011   0.980   9.582   6.583 -1.5739  0.8884 -1.7992
  445MOL0     H60012   0.798   9.421   6.486 -0.0666 -0.7382  0.4722
  445MOL0     H60013   0.917   9.314   6.415 -3.2400  0.3287 -0.9953
  445MOL0     H60014   0.988   9.246   6.647 -0.5287 -0.8619 -2.8095
  445MOL0     H60015   0.884   9.372   6.709 -0.8469 -1.9678  2.2743
  445MOL0     H60016   0.685   9.246   6.628  1.0563  4.2434  1.4379
  445MOL0     H60017   0.797   9.134   6.534  3.2306 -0.1123  1.7637
  445MOL0     H60018   0.733   9.004   6.706  0.9091  0.1688 -1.3981
  445MOL0     H60019   0.894   9.060   6.752  0.3052  1.5308  2.2263
  445MOL0     H60020   0.714   9.250   6.864 -3.0564  0.0870 -0.3164
  445MOL0     H60021   0.628   9.105   6.873  0.1904  0.4875 -0.2195
  445MOL0     H60022   0.866   9.013   6.964  0.0270 -1.3812  1.4718
  445MOL0     H60023   0.880   9.175   7.008 -0.2980  0.0655  0.5694
  445MOL0     H60024   0.680   9.154   7.158 -2.3259 -0.8417  0.2315
  445MOL0     H60025   0.762   9.009   7.186 -0.1278 -0.4938 -1.0721
  445MOL0     H60026   0.428   9.102   7.118  2.3051  1.8227 -1.2402
  445MOL0     H60027   0.203   9.001   7.070 -5.1835 -1.1501  0.1258
  445MOL0     H60028   0.209   8.873   6.954 -3.1242  4.1549 -0.1812
  445MOL0     H60029   0.230   8.717   7.165 -0.9246 -0.5356 -0.4495
  445MOL0     H60030   0.078   8.816   7.163 -0.1687 -3.7209  0.1225
  445MOL0     H60031   0.195   8.972   7.315  2.3676  0.3026  1.2151
  445MOL0     H60032   0.340   8.880   7.285  0.3932  0.0312 -1.3179
  445MOL0     H60033   0.205   8.840   7.527 -0.5230  1.2827  0.4853
  445MOL0     H60034   0.292   8.717   7.430  0.3138  0.1045 -1.0373
  445MOL0     H60035  -0.024   8.645   7.668  0.3451  1.6917 -0.7622
  445MOL0     H60036  -0.094   8.388   7.807 -0.5864 -1.2982 -0.7138
  445MOL0     H60037   0.068   8.370   7.883  0.2801  0.0817 -0.5914
  445MOL0     H60038  -0.006   8.535   7.869  1.1374 -1.4655  1.9817
  445MOL0     H60039   0.041   7.931   7.592  1.0731 -2.0150 -0.6212
  445MOL0     H60040   0.135   7.716   7.637 -2.6258  0.1719 -0.0305
  445MOL0     H60041   0.125   7.493   7.759  1.4601 -1.6963 -0.7465
  445MOL0     H60042   0.287   7.563   7.708 -0.2302 -0.8187 -0.1301
  445MOL0     H60043   0.304   7.327   7.777 -2.3724 -0.9369  0.8994
  445MOL0     H60044   0.383   7.427   7.887  0.5051 -0.7729 -0.5751
  445MOL0     H60045   0.211   7.226   7.967  0.3930  0.1453 -2.8005
  445MOL0     H60046   0.107   7.368   7.978 -0.0874 -0.7269 -0.0034
  445MOL0     H60047   0.368   7.361   8.127  0.6277  0.6194 -1.8354
  445MOL0     H60048   0.243   7.490   8.122 -1.3470  0.3077 -1.8456
  445MOL0     H60049   0.183   7.203   8.219 -1.3441 -0.5922  2.6394
  445MOL0     H60050   0.067   7.333   8.192  0.8935  2.2162  1.0896
  445MOL0     H60051   0.283   7.318   8.400 -0.3845  1.9259  5.1121
  445MOL0     H60052   0.208   7.472   8.361  1.4725 -0.6414 -2.9651
  445MOL0     H60053   0.081   7.219   8.462 -1.0866  0.1052 -2.9882
  445MOL0     H60054  -0.016   7.351   8.396 -0.6951  0.9200 -0.5192
  445MOL0     H60055   0.091   7.502   8.585 -4.2528  0.4465  4.4185
  445MOL0     H60056   0.172   7.353   8.648 -1.1132 -0.9542  1.5766
  445MOL0     H60057   0.190   7.839   8.055 -1.7444  0.1546  1.5308
  445MOL0     H60058   0.094   8.057   7.993  0.3377  0.2067 -0.0162
  445MOL0     H60059   0.246   8.285   7.472  0.0290 -0.1899  1.2196
  445MOL0     H60060   0.217   8.498   7.342  1.5173  0.4070  0.5376
  445MOL0     H60061   1.182   9.688   6.229  0.8072  0.3393 -0.2471
  445MOL0     H60062   1.172   9.930   6.186 -0.4699  0.4330  0.5619
  445MOL0     H60063   0.913  10.354   6.210  0.1986 -0.4425 -1.9441
  445MOL0     H60064   0.927  10.571   6.131  1.2604  0.9022 -1.5794
  445MOL0     H60065   1.141  10.935   6.175  1.2200  1.6806 -1.1562
  445MOL0     H60066   1.269  10.822   6.248  0.4824 -3.2095 -0.2318
  445MOL0     H60067   1.212  10.892   5.960 -1.0248  2.1367  1.3945
  445MOL0     H60068   1.333  10.777   6.010  1.1990 -0.6642  1.2856
  445MOL0     H60069   1.446  11.002   5.966 -2.6604  0.6537 -0.9040
  445MOL0     H60070   1.456  10.957   6.134 -1.8601  0.0051  0.1569
  445MOL0     H60071   1.393  11.202   6.091 -0.8801  1.7668  0.0526
  445MOL0     H60072   1.273  11.113   6.181 -0.9685  1.7098 -0.5741
  445MOL0     H60073   1.070  11.234   5.836  0.8052 -3.0450 -1.1929
  445MOL0     H60074   1.338  10.602   6.262  0.7929 -2.6574 -3.9633
  445MOL0     H60075   1.342  10.364   6.282  0.2143 -0.8017 -0.3667
  446MOL0     O60076   9.428   8.929   8.695 -0.1978 -0.0198 -0.6912
  446MOL0     C60077   9.408   8.809   8.703  0.0603  1.1867  0.5344
  446MOL0     O60078   9.359   8.729   8.604  0.3747 -1.2656  0.0768
  446MOL0     C60079   9.293   8.795   8.499  1.7515  0.1979 -1.2736
  446MOL0     C60080   9.319   8.753   8.370  0.7057 -0.2301  0.2670
  446MOL0     C60081   9.255   8.810   8.260 -0.5833 -1.1848  0.4395
  446MOL0     C60082   9.164   8.916   8.273 -0.0507  0.0357 -0.8206
  446MOL0     O60083   9.109   8.977   8.168  0.0809 -0.2087 -0.2953
  446MOL0     C60084   9.137   9.128   8.154  0.8794 -0.2074 -0.9420
  446MOL0     C60085   9.142   9.155   8.004 -0.9827  0.1986  0.3885
  446MOL0     C60086   9.019   9.113   7.931  0.1126  0.2308 -0.7627
  446MOL0     C60087   9.038   9.131   7.783 -0.5924 -0.5416  0.2298
  446MOL0     C60088   8.967   9.259   7.729  0.0692 -1.1085 -0.3549
  446MOL0     C60089   8.991   9.307   7.579  0.0673  1.3064 -0.3228
  446MOL0     C60090   8.939   9.195   7.486  0.9691  0.3633 -0.5627
  446MOL0     C60091   8.865   9.246   7.361 -0.4167 -1.0444 -0.2828
  446MOL0     N60092   8.934   9.321   7.258 -1.1986 -0.6120 -0.0793
  446MOL0     C60093   8.983   9.445   7.274 -0.4237  0.5629  0.2466
  446MOL0     C60094   9.066   9.460   7.168 -0.6392  1.0175 -0.4361
  446MOL0     C60095   9.144   9.591   7.144  0.3749  0.8822  0.5091
  446MOL0     C60096   9.132   9.650   7.001  0.2007 -0.1453  0.2228
  446MOL0     C60097   9.250   9.597   6.918  0.4452  0.5963  1.1247
  446MOL0     C60098   9.220   9.629   6.767  0.5605  0.4025 -0.0154
  446MOL0     O60099   9.330   9.612   6.680 -0.5218  0.0844  0.1623
  446MOL0     C60100   9.350   9.491   6.622  0.6438  0.3739  0.1984
  446MOL0     C60101   9.278   9.451   6.516 -0.6633 -0.0214 -0.1855
  446MOL0     C60102   9.303   9.337   6.446 -0.5497  0.0685 -0.0537
  446MOL0     C60103   9.206   9.287   6.336  0.9838 -0.5366 -0.6806
  446MOL0     C60104   9.422   9.266   6.479  0.0508  0.0674  0.8132
  446MOL0     C60105   9.483   9.145   6.407  1.2587 -0.0481 -0.1875
  446MOL0     O60106   9.573   9.069   6.481  0.0308  0.4583 -0.0442
  446MOL0     C60107   9.645   8.971   6.422 -0.5787  0.2895  0.5352
  446MOL0     C60108   9.671   8.852   6.482  0.3237 -0.7007  0.1199
  446MOL0     C60109   9.747   8.751   6.424 -0.9997 -1.0849 -0.1104
  446MOL0     C60110   9.798   8.760   6.291  1.0398  0.2870 -0.4753
  446MOL0     O60111   9.879   8.663   6.237 -0.3709 -0.0028  0.0526
  446MOL0     C60112   9.974   8.701   6.151  0.1684  0.3930  0.3347
  446MOL0     C60113  10.063   8.573   6.123 -0.1733 -0.0384 -1.1923
  446MOL0     C60114  10.156   8.553   6.248 -0.1414 -0.4558  1.3884
  446MOL0     C60115  10.275   8.452   6.221 -0.2013 -0.6083  0.1883
  446MOL0     C60116  10.361   8.418   6.347 -0.8819  0.3974  0.6571
  446MOL0     C60117  10.462   8.530   6.371 -0.2462 -0.3650  0.1091
  446MOL0     C60118  10.584   8.483   6.468 -0.5386  0.1638  0.2239
  446MOL0     C60119  10.690   8.589   6.486 -0.7978 -0.6493 -0.0343
  446MOL0    Cl60120  10.760   8.567   6.657 -0.0792  1.0513 -0.0327
  446MOL0     C60121   9.759   8.873   6.219 -0.4658 -0.2003 -0.1982
  446MOL0     C60122   9.687   8.976   6.278 -0.6222  0.3061  1.4169
  446MOL0     O60123   9.437   9.122   6.293 -0.5362  0.9496  0.1479
  446MOL0     C60124   9.499   9.312   6.589 -0.6887  0.0687 -1.5598
  446MOL0     C60125   9.457   9.423   6.667  0.9092 -0.1600  0.3712
  446MOL0     N60126   9.056   9.355   7.081 -0.7173  0.3195  0.5344
  446MOL0     N60127   8.969   9.280   7.136  0.7753 -0.6223 -0.7767
  446MOL0     C60128   9.127   8.948   8.407 -0.4963 -0.1236  0.2058
  446MOL0     C60129   9.193   8.888   8.518 -0.3170  0.1837  0.1572
  446MOL0     C60130   9.469   8.740   8.818 -0.4187 -0.4565 -0.3123
  446MOL0     C60131   9.485   8.596   8.825  0.3768 -1.2548  0.7410
  446MOL0     C60132   9.533   8.526   8.942  0.0708 -0.1608  0.1849
  446MOL0     C60133   9.575   8.602   9.053 -0.6384  0.0068  0.0784
  446MOL0     O60134   9.624   8.553   9.173 -0.5591  0.9104  0.1574
  446MOL0     C60135   9.748   8.485   9.163  0.7953 -0.6718 -0.2257
  446MOL0     C60136   9.868   8.573   9.131 -0.2491 -0.4988  0.1613
  446MOL0     C60137   9.906   8.657   9.258  0.4716  0.3935 -0.1090
  446MOL0     C60138  10.043   8.726   9.254  0.1921  0.3387  0.2937
  446MOL0     C60139  10.151   8.632   9.291  0.8783 -0.8024  0.5553
  446MOL0     C60140  10.245   8.567   9.326 -0.0718  1.0418  0.4857
  446MOL0     C60141   9.577   8.741   9.045  0.0643  0.7455  0.4147
  446MOL0     C60142   9.526   8.814   8.929 -0.4469 -0.2108  0.0318
  446MOL0     H60143   9.383   8.668   8.351  4.3763  1.7897  2.2823
  446MOL0     H60144   9.269   8.764   8.162 -0.4531  0.6378 -0.4405
  446MOL0     H60145   9.060   9.190   8.200  1.4576  0.8599 -1.3988
  446MOL0     H60146   9.231   9.154   8.202 -0.1083  3.4612 -0.7022
  446MOL0     H60147   9.163   9.260   7.979  0.3319 -0.4194 -1.3367
  446MOL0     H60148   9.216   9.090   7.957 -1.4416  0.4402 -0.7159
  446MOL0     H60149   9.007   9.006   7.952  3.2149 -0.0475  0.0968
  446MOL0     H60150   8.931   9.168   7.967  0.9478 -0.3397  2.4439
  446MOL0     H60151   9.144   9.136   7.758 -0.9722  2.3269 -1.2108
  446MOL0     H60152   8.986   9.046   7.736 -1.5015  0.2659 -0.2515
  446MOL0     H60153   8.859   9.245   7.737 -0.2612  0.8566 -0.9295
  446MOL0     H60154   8.986   9.335   7.805 -0.7169 -0.8829 -0.3770
  446MOL0     H60155   8.947   9.405   7.560  1.4811  2.1193  0.3660
  446MOL0     H60156   9.099   9.322   7.575  0.1834  0.5471 -0.2792
  446MOL0     H60157   9.012   9.121   7.454 -0.0801 -0.0848 -2.0463
  446MOL0     H60158   8.861   9.138   7.538  0.2574  0.8231 -1.1110
  446MOL0     H60159   8.787   9.317   7.389  0.3700 -0.1181 -0.4049
  446MOL0     H60160   8.815   9.156   7.323 -2.6258 -0.2115  0.5221
  446MOL0     H60161   8.987   9.516   7.357  3.1939  0.0745  0.6668
  446MOL0     H60162   9.097   9.665   7.208  1.6914  1.8039  0.4398
  446MOL0     H60163   9.248   9.583   7.174  0.0331  0.6813  1.6849
  446MOL0     H60164   9.142   9.757   7.023 -1.2810  0.2472 -0.8170
  446MOL0     H60165   9.030   9.624   6.970  0.1020 -0.9636  1.1901
  446MOL0     H60166   9.261   9.488   6.921 -0.3935  0.4061 -0.8489
  446MOL0     H60167   9.346   9.644   6.941  0.0075  0.9951  2.1530
  446MOL0     H60168   9.170   9.725   6.753 -2.0277 -0.7635  0.6438
  446MOL0     H60169   9.146   9.559   6.726 -1.0545  1.0412  1.6812
  446MOL0     H60170   9.193   9.512   6.485 -1.2950 -0.2169  1.0795
  446MOL0     H60171   9.125   9.360   6.325  1.7738  0.3326 -0.7789
  446MOL0     H60172   9.260   9.274   6.242 -1.0337 -1.0254 -1.8330
  446MOL0     H60173   9.148   9.201   6.372 -2.0607  1.3886 -0.6251
  446MOL0     H60174   9.651   8.848   6.589  2.0171 -1.2459  0.4409
  446MOL0     H60175   9.772   8.658   6.475  1.9745 -1.9695 -2.8335
  446MOL0     H60176   9.929   8.724   6.054  1.2156 -2.1717 -0.8588
  446MOL0     H60177  10.044   8.780   6.179  1.4532 -1.1226  1.6127
  446MOL0     H60178  10.004   8.485   6.095  2.3744 -1.2952 -3.1334
  446MOL0     H60179  10.130   8.590   6.038  1.2721  2.0484  0.2809
  446MOL0     H60180  10.094   8.534   6.337  1.1530 -0.7142  2.2559
  446MOL0     H60181  10.206   8.643   6.286  0.0006 -0.9027  2.2887
  446MOL0     H60182  10.224   8.362   6.186  2.3521 -1.2352 -2.1849
  446MOL0     H60183  10.339   8.500   6.147 -1.0479  2.2536  1.1795
  446MOL0     H60184  10.415   8.326   6.323  1.2594  1.4496  1.1996
  446MOL0     H60185  10.300   8.402   6.437 -1.3020 -0.6248  0.2064
  446MOL0     H60186  10.507   8.565   6.277  1.7572 -0.5766  0.9371
  446MOL0     H60187  10.427   8.623   6.417  2.3884  2.3676 -2.8418
  446MOL0     H60188  10.632   8.401   6.415  2.7020  1.9743  0.0956
  446MOL0     H60189  10.532   8.462   6.561 -3.5662 -4.1904 -2.1007
  446MOL0     H60190  10.645   8.688   6.480 -2.2969 -0.9187  3.8661
  446MOL0     H60191  10.773   8.579   6.415  0.0402 -3.3643  1.1624
  446MOL0     H60192   9.801   8.890   6.121 -2.0398  0.4741 -0.7787
  446MOL0     H60193   9.669   9.071   6.228 -0.4849 -0.4111 -0.0302
  446MOL0     H60194   9.590   9.267   6.625 -1.9911 -1.2405  0.2767
  446MOL0     H60195   9.514   9.465   6.749  2.6115  1.3345 -1.5130
  446MOL0     H60196   9.055   9.025   8.433  2.3474  1.2244  5.4867
  446MOL0     H60197   9.174   8.922   8.619  2.6559  0.8557  0.5804
  446MOL0     H60198   9.464   8.537   8.737  1.2303  1.5097 -1.4948
  446MOL0     H60199   9.559   8.422   8.953 -0.0339 -0.0309  2.0357
  446MOL0     H60200   9.760   8.420   9.250  0.7275  1.5437  1.5182
  446MOL0     H60201   9.731   8.404   9.092 -0.6503 -0.7758  0.2206
  446MOL0     H60202   9.847   8.637   9.045 -2.1380  1.2407  1.8195
  446MOL0     H60203   9.951   8.505   9.110 -2.1735 -2.3264 -2.2784
  446MOL0     H60204   9.900   8.597   9.349  0.5468  1.7784  0.8414
  446MOL0     H60205   9.826   8.731   9.268 -0.2210 -0.0024 -2.1738
  446MOL0     H60206  10.044   8.808   9.326  1.7757 -1.0874  2.0068
  446MOL0     H60207  10.074   8.765   9.156  0.2962 -0.4881 -0.0121
  446MOL0     H60208  10.303   8.490   9.373 -2.9800 -1.7800 -0.1779
  446MOL0     H60209   9.629   8.794   9.123 -0.6002  0.3638  1.1360
  446MOL0     H60210   9.526   8.922   8.924 -2.1410 -0.1573  0.4551
  447MOL0     O60211   5.091   6.147   3.698  0.2125 -0.0266 -0.1972
  447MOL0     C60212   5.070   6.264   3.677 -0.2628  1.1321  1.1256
  447MOL0     O60213   5.092   6.328   3.555 -0.0968  0.1698 -0.9757
  447MOL0     C60214   5.196   6.274   3.484 -0.2707  0.8809  0.3350
  447MOL0     C60215   5.309   6.352   3.471  0.5639 -0.2914  0.7037
  447MOL0     C60216   5.409   6.317   3.381 -1.5520  0.0295  0.3965
  447MOL0     C60217   5.399   6.207   3.300  0.8975 -0.1760 -0.7397
  447MOL0     O60218   5.473   6.179   3.196 -0.4141 -0.2748 -0.5608
  447MOL0     C60219   5.562   6.279   3.150 -0.4696 -1.2541 -0.1324
  447MOL0     C60220   5.599   6.245   3.005  0.9067  0.5584  0.2443
  447MOL0     C60221   5.671   6.105   3.020  0.3860 -0.1251  0.8592
  447MOL0     C60222   5.765   6.081   2.898  0.8312  0.3360  1.1016
  447MOL0     C60223   5.694   6.092   2.766  0.1439  0.6308  0.3784
  447MOL0     C60224   5.793   6.107   2.648 -0.9693  0.6995  0.0483
  447MOL0     C60225   5.910   6.001   2.634  1.0975 -1.7064 -0.5329
  447MOL0     C60226   5.855   5.868   2.597  0.0509  0.4776  0.2776
  447MOL0     N60227   5.948   5.792   2.503  0.3262  0.3494  0.6097
  447MOL0     C60228   5.916   5.699   2.405 -0.6672 -0.3801  0.7286
  447MOL0     C60229   6.031   5.633   2.369  0.3017 -0.7445 -0.3025
  447MOL0     C60230   6.044   5.511   2.279  0.1708 -0.2793  0.4397
  447MOL0     C60231   6.036   5.559   2.133 -0.3651 -0.2955  0.4718
  447MOL0     C60232   6.053   5.443   2.028 -0.6691 -0.3880  0.3225
  447MOL0     C60233   5.920   5.382   1.985 -0.0662  0.9661 -0.7287
  447MOL0     O60234   5.944   5.241   1.960  0.4146  0.5391 -0.0175
  447MOL0     C60235   5.990   5.192   1.845  0.6916  1.2557 -0.4013
  447MOL0     C60236   6.004   5.056   1.838  0.5447  0.3421  0.3084
  447MOL0     C60237   6.048   4.993   1.718  0.9426  0.1945 -0.4149
  447MOL0     C60238   6.041   4.844   1.719  0.0240 -0.2821 -0.2183
  447MOL0     C60239   6.095   5.074   1.612  0.5172  0.2842 -0.9826
  447MOL0     C60240   6.167   5.026   1.495 -0.7594 -0.1902 -0.0873
  447MOL0     O60241   6.225   4.900   1.506  0.7448  1.1229 -0.2505
  447MOL0     C60242   6.309   4.865   1.403 -0.3878 -0.0394 -0.4097
  447MOL0     C60243   6.446   4.875   1.419  0.2621  0.4510  1.0711
  447MOL0     C60244   6.535   4.839   1.309  0.3791 -0.4552 -0.1255
  447MOL0     C60245   6.477   4.793   1.184  0.5888  0.0121  0.3000
  447MOL0     O60246   6.543   4.772   1.070 -0.8481  0.5158 -0.1097
  447MOL0     C60247   6.669   4.716   1.082  0.6396  0.3582  0.2323
  447MOL0     C60248   6.748   4.712   0.954 -0.5025 -0.5946  0.7013
  447MOL0     C60249   6.681   4.636   0.836  0.6446 -0.6259  0.1919
  447MOL0     C60250   6.753   4.681   0.704  0.7530 -0.2409  0.2562
  447MOL0     C60251   6.724   4.602   0.577  0.6022 -0.1174 -0.2004
  447MOL0     C60252   6.798   4.669   0.457  0.0011 -0.5471  0.3348
  447MOL0     C60253   6.804   4.579   0.335 -0.1687  0.1344 -0.4048
  447MOL0     C60254   6.667   4.574   0.260 -0.1939  0.6235 -0.5106
  447MOL0    Cl60255   6.685   4.506   0.096 -0.2569 -0.2495 -0.1720
  447MOL0     C60256   6.338   4.789   1.171  0.1203 -0.5207 -0.0608
  447MOL0     C60257   6.258   4.822   1.287  0.6128 -1.4357  0.6168
  447MOL0     O60258   6.187   5.108   1.399 -0.4332 -1.0110 -0.4919
  447MOL0     C60259   6.081   5.214   1.631  0.3559 -0.1698 -0.4248
  447MOL0     C60260   6.033   5.274   1.746  0.8117 -0.5076  1.0117
  447MOL0     N60261   6.131   5.706   2.431 -0.0608 -0.1939 -0.2699
  447MOL0     N60262   6.082   5.786   2.519  0.5557  0.1966  0.1557
  447MOL0     C60263   5.288   6.119   3.315 -0.4308 -0.3856  0.9837
  447MOL0     C60264   5.184   6.161   3.401  0.2350  0.9320  0.8063
  447MOL0     C60265   5.003   6.343   3.790 -0.7018 -0.1808 -0.4062
  447MOL0     C60266   4.999   6.284   3.913 -0.2229 -0.3284 -0.4464
  447MOL0     C60267   4.947   6.360   4.023  0.5921  0.0395  0.1175
  447MOL0     C60268   4.909   6.493   4.001  0.5052  0.2516  0.2595
  447MOL0     O60269   4.867   6.573   4.105 -0.5521 -0.3521 -0.0572
  447MOL0     C60270   4.898   6.533   4.243  0.0977 -0.7976  0.1120
  447MOL0     C60271   4.851   6.638   4.341  0.0012 -0.9851 -0.4991
  447MOL0     C60272   4.699   6.650   4.341  0.1589 -0.2024 -0.0069
  447MOL0     C60273   4.645   6.740   4.457  0.7292  0.3397  0.2567
  447MOL0     C60274   4.645   6.879   4.411  0.8734 -0.0143 -0.7148
  447MOL0     C60275   4.634   6.997   4.409 -0.1185  1.1802  0.8558
  447MOL0     C60276   4.912   6.549   3.876  0.6904 -0.6570  0.6391
  447MOL0     C60277   4.962   6.475   3.775 -0.4256 -0.2041 -0.2088
  447MOL0     H60278   5.321   6.444   3.527 -0.9868  0.7282 -0.5387
  447MOL0     H60279   5.498   6.376   3.367 -1.8240  0.3973  0.1929
  447MOL0     H60280   5.517   6.379   3.154 -2.5735 -2.1753  0.3075
  447MOL0     H60281   5.655   6.284   3.207 -1.7416  1.5729  1.9739
  447MOL0     H60282   5.510   6.242   2.942 -0.9533  1.5258  2.6933
  447MOL0     H60283   5.656   6.325   2.957  0.6852 -0.9138 -2.6867
  447MOL0     H60284   5.734   6.088   3.107  0.2935 -2.5070  0.5328
  447MOL0     H60285   5.593   6.029   3.015 -0.4258  0.7590 -1.0916
  447MOL0     H60286   5.853   6.144   2.903  2.6785 -1.7559 -1.7532
  447MOL0     H60287   5.799   5.978   2.915 -1.3674 -0.4013  1.4516
  447MOL0     H60288   5.639   5.998   2.761  0.1832  0.6541 -0.7307
  447MOL0     H60289   5.635   6.184   2.756  2.2476  2.0260  0.0922
  447MOL0     H60290   5.742   6.116   2.552  0.7855 -0.7592 -1.0817
  447MOL0     H60291   5.859   6.194   2.659  2.3656 -1.1937 -2.8731
  447MOL0     H60292   5.974   6.031   2.550  0.1635 -1.9807 -1.3494
  447MOL0     H60293   5.969   5.991   2.726  3.2117  1.0652 -1.4245
  447MOL0     H60294   5.757   5.884   2.551  0.6091  0.7616 -0.8343
  447MOL0     H60295   5.853   5.808   2.688  2.8742 -0.2248 -0.0128
  447MOL0     H60296   5.822   5.684   2.354  0.0649  1.7166 -1.4409
  447MOL0     H60297   6.140   5.462   2.297 -1.3491 -2.6174  2.9914
  447MOL0     H60298   5.967   5.440   2.311 -1.8013  1.3904 -0.3682
  447MOL0     H60299   6.119   5.625   2.109  1.6680 -2.6066  0.7937
  447MOL0     H60300   5.938   5.606   2.116 -0.5736 -1.1724 -0.8999
  447MOL0     H60301   6.127   5.374   2.069  1.1567 -0.3888 -2.7027
  447MOL0     H60302   6.107   5.489   1.944  0.8086  1.1098  2.0158
  447MOL0     H60303   5.862   5.424   1.902 -0.6215 -2.8973 -2.5414
  447MOL0     H60304   5.853   5.395   2.071 -0.1198 -0.7007 -0.4814
  447MOL0     H60305   5.975   4.993   1.921  1.8123 -1.0660 -0.2512
  447MOL0     H60306   6.133   4.803   1.763  2.2340  2.1917 -2.1954
  447MOL0     H60307   5.956   4.812   1.779 -0.7623  2.8891  0.5285
  447MOL0     H60308   6.036   4.798   1.620 -1.7139 -0.9108  0.1289
  447MOL0     H60309   6.477   4.915   1.515  0.8831 -1.5543  1.7484
  447MOL0     H60310   6.640   4.862   1.327 -0.5204  2.6884  1.8872
  447MOL0     H60311   6.733   4.775   1.149 -0.1270  0.6513  0.7110
  447MOL0     H60312   6.657   4.614   1.118  3.2935 -0.8627 -1.9243
  447MOL0     H60313   6.768   4.815   0.922 -0.0351 -1.1094 -0.7382
  447MOL0     H60314   6.846   4.665   0.966 -2.0071 -3.5104  2.6179
  447MOL0     H60315   6.573   4.641   0.820  0.7919 -0.6153 -0.8401
  447MOL0     H60316   6.695   4.531   0.864 -3.2084 -0.8165  2.1897
  447MOL0     H60317   6.715   4.782   0.686  0.2139 -0.0922  2.0933
  447MOL0     H60318   6.860   4.694   0.724  0.6151  0.5983  0.4794
  447MOL0     H60319   6.619   4.587   0.550 -0.0294  0.7788  1.5838
  447MOL0     H60320   6.763   4.504   0.603 -2.2775 -0.4160  4.0110
  447MOL0     H60321   6.757   4.765   0.424 -0.2508 -0.2316  1.5117
  447MOL0     H60322   6.896   4.700   0.492 -0.2289 -1.7676  2.1911
  447MOL0     H60323   6.842   4.480   0.364 -1.5845 -0.0863  0.7846
  447MOL0     H60324   6.869   4.633   0.266 -0.4600  0.0393 -0.7533
  447MOL0     H60325   6.636   4.679   0.253  1.3041  1.1682  0.4921
  447MOL0     H60326   6.599   4.519   0.325  1.5749  1.2668  2.0443
  447MOL0     H60327   6.277   4.768   1.084 -0.6652  0.6532  0.1815
  447MOL0     H60328   6.151   4.816   1.269  0.2837  3.0518  0.1132
  447MOL0     H60329   6.104   5.283   1.551 -1.0846  4.3022  2.6056
  447MOL0     H60330   6.027   5.382   1.753  0.4954 -0.5415  1.2730
  447MOL0     H60331   5.268   6.031   3.254  1.7827  0.2275 -0.7549
  447MOL0     H60332   5.100   6.092   3.406  0.9971  0.0437  1.6745
  447MOL0     H60333   5.031   6.186   3.948 -0.2230  1.0513  4.1974
  447MOL0     H60334   4.946   6.324   4.126 -0.0709 -0.3024 -0.0041
  447MOL0     H60335   4.842   6.442   4.266 -1.0325  0.2171  1.5581
  447MOL0     H60336   5.005   6.526   4.265 -0.0051 -1.0501  0.5395
  447MOL0     H60337   4.893   6.736   4.320 -2.5921 -0.2223 -2.7104
  447MOL0     H60338   4.885   6.609   4.441 -1.5055 -3.4502 -0.6297
  447MOL0     H60339   4.660   6.547   4.336 -1.3697  0.3261  0.4665
  447MOL0     H60340   4.662   6.699   4.250 -2.5112  2.8191  2.4854
  447MOL0     H60341   4.705   6.726   4.547  0.3243  0.7850  0.5985
  447MOL0     H60342   4.542   6.716   4.482 -0.0693  1.3738 -1.7930
  447MOL0     H60343   4.611   7.102   4.406 -0.7425  1.0155 -1.3769
  447MOL0     H60344   4.869   6.649   3.870  0.6590 -0.3719  3.8761
  447MOL0     H60345   4.959   6.520   3.677 -0.9871 -2.0027 -1.0595
  448MOL0     O60346   6.977   4.698   2.947  0.6078  0.3764  0.1737
  448MOL0     C60347   6.890   4.693   2.858  1.0945 -0.1594  0.0521
  448MOL0     O60348   6.781   4.618   2.866  0.3606  0.4558  0.4556
  448MOL0     C60349   6.751   4.552   2.981 -0.8643  0.7553  0.2402
  448MOL0     C60350   6.847   4.453   3.034  0.6439 -0.3262 -0.1966
  448MOL0     C60351   6.820   4.380   3.151 -0.7033 -0.3374 -0.4904
  448MOL0     C60352   6.695   4.409   3.217 -0.8071 -0.2025  0.8679
  448MOL0     O60353   6.667   4.356   3.343  0.2713 -0.3667 -0.7552
  448MOL0     C60354   6.750   4.263   3.417 -1.3654 -0.1511 -0.2860
  448MOL0     C60355   6.870   4.340   3.478 -0.4474 -0.2173  0.6288
  448MOL0     C60356   6.974   4.249   3.533 -0.2389  0.3324  0.0202
  448MOL0     C60357   7.111   4.318   3.563  0.1242  0.0980 -1.4179
  448MOL0     C60358   7.201   4.222   3.646  1.0165  0.6284 -0.2671
  448MOL0     C60359   7.332   4.271   3.698  1.3053 -0.2458 -0.5635
  448MOL0     C60360   7.416   4.156   3.759 -0.8621  0.0744  0.9973
  448MOL0     C60361   7.554   4.202   3.818  0.1264  0.2770  0.5288
  448MOL0     N60362   7.625   4.091   3.884  0.3819 -0.3394 -0.2044
  448MOL0     C60363   7.768   4.081   3.884 -0.2698  0.8360  0.3717
  448MOL0     C60364   7.778   3.971   3.961 -0.1601  0.2635 -0.0483
  448MOL0     C60365   7.914   3.905   3.985  0.8237 -1.3541 -0.2864
  448MOL0     C60366   7.899   3.747   4.003 -0.1442  0.5406 -0.2473
  448MOL0     C60367   7.837   3.677   3.876 -0.0250  0.1800  0.3848
  448MOL0     C60368   7.758   3.549   3.911  0.2780  0.6968 -0.5272
  448MOL0     O60369   7.832   3.446   3.986  0.0300 -0.0223  0.0944
  448MOL0     C60370   7.930   3.362   3.927 -0.1359 -0.1377  1.3626
  448MOL0     C60371   7.980   3.268   4.012 -0.1410  0.1420  0.5312
  448MOL0     C60372   8.063   3.158   3.968 -0.5665  0.3709  0.1763
  448MOL0     C60373   8.126   3.057   4.065  0.9551  0.1664  0.1095
  448MOL0     C60374   8.094   3.156   3.835  1.1017  0.2813 -0.1810
  448MOL0     C60375   8.187   3.047   3.780  0.0479 -0.5686  0.0476
  448MOL0     O60376   8.173   2.919   3.813  0.4888 -0.1129 -0.0485
  448MOL0     C60377   8.258   2.832   3.742  0.6326 -0.0183 -0.3650
  448MOL0     C60378   8.220   2.751   3.632  0.0998 -0.4945 -0.1118
  448MOL0     C60379   8.311   2.667   3.575  0.2844  0.3970 -0.6187
  448MOL0     C60380   8.445   2.648   3.625 -0.9170 -0.0175  1.3462
  448MOL0     O60381   8.528   2.567   3.545  0.1247  0.6045 -0.0670
  448MOL0     C60382   8.659   2.551   3.593  0.5106  0.8894 -0.0936
  448MOL0     C60383   8.732   2.463   3.490  0.8180  0.1159  0.3456
  448MOL0     C60384   8.714   2.497   3.347  0.3310 -0.5597 -0.6294
  448MOL0     C60385   8.822   2.431   3.256 -0.9431 -0.1680  0.1856
  448MOL0     C60386   8.834   2.488   3.116 -0.9260 -0.2144  0.1849
  448MOL0     C60387   8.949   2.422   3.039 -0.8863  1.0470 -0.7686
  448MOL0     C60388   8.999   2.500   2.918  0.2618 -0.0237 -0.2522
  448MOL0     C60389   9.135   2.429   2.881 -0.2624  0.5083 -0.6317
  448MOL0    Cl60390   9.173   2.499   2.726  0.0235 -0.5169 -0.6053
  448MOL0     C60391   8.477   2.714   3.745  0.6009  0.8565 -0.2188
  448MOL0     C60392   8.381   2.801   3.804  0.5991 -0.0848  0.3713
  448MOL0     O60393   8.275   3.094   3.710  0.2283 -0.0650  0.7375
  448MOL0     C60394   8.053   3.257   3.746  0.5081 -0.2413  0.3378
  448MOL0     C60395   7.976   3.361   3.793  0.5277  0.5054  0.2055
  448MOL0     N60396   7.655   3.930   4.009  0.4510  0.9555  0.1042
  448MOL0     N60397   7.564   4.007   3.976 -0.3819 -0.3123  0.2884
  448MOL0     C60398   6.595   4.487   3.149  0.3602 -0.0890 -0.0620
  448MOL0     C60399   6.621   4.546   3.025 -1.1000 -0.5829 -0.0362
  448MOL0     C60400   6.926   4.739   2.719  0.2552  0.6012 -1.7425
  448MOL0     C60401   6.835   4.726   2.613  0.0914 -0.2541 -0.0968
  448MOL0     C60402   6.876   4.758   2.490  0.2911 -0.6220  0.5193
  448MOL0     C60403   7.002   4.812   2.462  0.3664 -0.8927  1.1644
  448MOL0     O60404   7.048   4.851   2.347 -0.4605  0.2086  0.2702
  448MOL0     C60405   6.984   4.810   2.226  0.3543 -0.6271  0.3486
  448MOL0     C60406   6.854   4.886   2.194  0.4887  0.2517 -0.1483
  448MOL0     C60407   6.877   5.035   2.225  0.4840  0.3726  0.0718
  448MOL0     C60408   6.756   5.115   2.169 -0.2399 -0.2875 -0.7179
  448MOL0     C60409   6.647   5.115   2.267 -0.2537 -0.0028 -0.3456
  448MOL0     C60410   6.554   5.092   2.344  0.4244 -0.1664  0.0292
  448MOL0     C60411   7.088   4.842   2.565 -0.0682 -0.1361 -0.5595
  448MOL0     C60412   7.058   4.797   2.696 -0.7446 -0.0782 -0.5526
  448MOL0     H60413   6.943   4.428   2.991  0.3232  2.1729 -2.6713
  448MOL0     H60414   6.903   4.320   3.186  0.5051 -1.8010 -5.1450
  448MOL0     H60415   6.688   4.219   3.496 -1.5468  2.1776  0.9779
  448MOL0     H60416   6.771   4.182   3.348 -4.7193 -1.5219  0.1423
  448MOL0     H60417   6.922   4.411   3.414 -0.9524  0.1875  0.6636
  448MOL0     H60418   6.832   4.406   3.557  0.8628  0.5644  0.6405
  448MOL0     H60419   6.936   4.209   3.628 -4.2228  2.7774 -0.3223
  448MOL0     H60420   6.999   4.161   3.473  4.0845  0.8774  0.7252
  448MOL0     H60421   7.171   4.351   3.477  1.4446 -1.1956 -1.0355
  448MOL0     H60422   7.077   4.396   3.632  0.1952 -2.3696  1.6134
  448MOL0     H60423   7.150   4.181   3.734  1.7103  1.2065  0.4242
  448MOL0     H60424   7.231   4.136   3.586 -0.0608 -0.9241  1.3213
  448MOL0     H60425   7.392   4.323   3.623  4.0792 -1.2721  0.7818
  448MOL0     H60426   7.312   4.342   3.779  2.1825 -1.1198  0.4472
  448MOL0     H60427   7.352   4.114   3.837 -0.0206  0.7158  2.0691
  448MOL0     H60428   7.425   4.076   3.685 -2.0824 -1.8547  2.8126
  448MOL0     H60429   7.533   4.273   3.898 -0.0324  0.4652  0.3225
  448MOL0     H60430   7.617   4.251   3.742 -1.0287 -0.8174 -1.2138
  448MOL0     H60431   7.844   4.142   3.836 -0.0107  1.7947  1.9324
  448MOL0     H60432   7.975   3.920   3.895  0.4655  3.7673  0.0346
  448MOL0     H60433   7.973   3.932   4.073  0.0003  0.9129 -0.3650
  448MOL0     H60434   7.846   3.732   4.097  1.7535 -1.7630  0.5362
  448MOL0     H60435   7.993   3.703   4.035 -1.1589  0.3110  2.6887
  448MOL0     H60436   7.920   3.651   3.810  1.4305  1.4594  1.6187
  448MOL0     H60437   7.774   3.754   3.831 -0.9197 -0.7113  0.0628
  448MOL0     H60438   7.705   3.511   3.824  0.4533  1.2488 -0.8779
  448MOL0     H60439   7.674   3.584   3.971 -2.3031 -1.6239 -2.5607
  448MOL0     H60440   7.959   3.277   4.118 -2.6614 -1.6407  0.2828
  448MOL0     H60441   8.116   3.096   4.166  0.3142 -2.2956  1.0694
  448MOL0     H60442   8.075   2.961   4.055  0.5189  0.3358  0.6615
  448MOL0     H60443   8.233   3.048   4.047  0.6820  1.1813 -2.5421
  448MOL0     H60444   8.120   2.758   3.592 -1.1650 -5.3157  1.5021
  448MOL0     H60445   8.269   2.625   3.484 -0.5495  1.7088 -0.8706
  448MOL0     H60446   8.706   2.650   3.599  1.0578  0.5280  2.3494
  448MOL0     H60447   8.667   2.506   3.692  3.6213  2.1150  0.3266
  448MOL0     H60448   8.838   2.462   3.518  0.2925  3.4061  3.0776
  448MOL0     H60449   8.697   2.359   3.498 -1.0374  0.7754  1.4426
  448MOL0     H60450   8.714   2.605   3.330 -2.9730 -0.6015 -1.6535
  448MOL0     H60451   8.621   2.457   3.305 -0.2293  1.3574 -1.3581
  448MOL0     H60452   8.918   2.453   3.302 -1.2201  2.7105 -0.3998
  448MOL0     H60453   8.827   2.322   3.251  1.3671 -0.0485 -2.0658
  448MOL0     H60454   8.849   2.597   3.123 -2.8988  0.0881  0.1584
  448MOL0     H60455   8.748   2.475   3.050 -1.2023  0.8306  0.3091
  448MOL0     H60456   9.033   2.407   3.107 -0.4549  0.5849 -1.3882
  448MOL0     H60457   8.913   2.325   3.002  2.7738 -1.2397  1.1486
  448MOL0     H60458   9.003   2.607   2.943 -2.7161  0.9982 -3.4133
  448MOL0     H60459   8.924   2.499   2.838  0.0854  2.2673 -0.1932
  448MOL0     H60460   9.128   2.320   2.869  1.0880  0.6714 -4.0821
  448MOL0     H60461   9.210   2.452   2.957  0.2102  0.8357 -1.1859
  448MOL0     H60462   8.580   2.697   3.775  0.2772 -2.9604 -0.8535
  448MOL0     H60463   8.416   2.852   3.892 -2.0293 -2.0243  2.7142
  448MOL0     H60464   8.084   3.250   3.643 -0.2062  0.8584  0.0289
  448MOL0     H60465   7.936   3.432   3.721 -0.8718  0.3037  0.7570
  448MOL0     H60466   6.495   4.502   3.190  1.0016 -0.8000  1.8506
  448MOL0     H60467   6.539   4.600   2.979 -1.4666  1.6576  2.9522
  448MOL0     H60468   6.735   4.693   2.642 -0.7391  1.4620 -0.8522
  448MOL0     H60469   6.797   4.740   2.417  1.6006  2.4259 -1.9008
  448MOL0     H60470   7.054   4.820   2.143  1.0134 -1.5085  0.7691
  448MOL0     H60471   6.966   4.702   2.218  1.7497 -0.8414 -0.2822
  448MOL0     H60472   6.769   4.836   2.242  1.1165  0.0313  0.7633
  448MOL0     H60473   6.842   4.875   2.086 -3.0847  0.9699  0.0587
  448MOL0     H60474   6.972   5.075   2.189  1.2912 -1.3107  0.2147
  448MOL0     H60475   6.896   5.049   2.332 -0.4626  0.3746  0.2548
  448MOL0     H60476   6.720   5.077   2.073 -1.2580  1.4456 -1.0679
  448MOL0     H60477   6.766   5.224   2.157 -3.1850  0.1058 -0.2922
  448MOL0     H60478   6.468   5.079   2.406  1.6340  1.1750  2.0910
  448MOL0     H60479   7.185   4.890   2.559 -0.0639  0.8032  3.7327
  448MOL0     H60480   7.133   4.811   2.773 -0.3513 -1.2506 -0.7104
  449MOL0     O60481   9.439   1.916   5.022  0.2001 -0.9306 -0.1453
  449MOL0     C60482   9.517   1.918   5.114  0.2233  0.1886  0.5959
  449MOL0     O60483   9.656   1.937   5.106  0.0571 -0.2015  0.1478
  449MOL0     C60484   9.721   1.946   4.982 -0.2042 -0.8802  0.5174
  449MOL0     C60485   9.823   1.858   4.947  0.1268 -0.3544  0.3987
  449MOL0     C60486   9.884   1.865   4.825 -0.1593 -0.5937 -0.0126
  449MOL0     C60487   9.840   1.945   4.721  0.0818 -0.1169  0.2022
  449MOL0     O60488   9.917   1.952   4.605  0.6221 -0.3838 -0.6482
  449MOL0     C60489   9.856   2.012   4.485  0.1411 -0.0991 -0.2869
  449MOL0     C60490   9.742   1.921   4.425  0.7970  0.2612 -0.1632
  449MOL0     C60491   9.799   1.786   4.384 -0.5348  0.0357 -0.3253
  449MOL0     C60492   9.684   1.694   4.342 -0.1822 -0.6801  0.4530
  449MOL0     C60493   9.735   1.552   4.318 -0.9813  0.1721  1.0027
  449MOL0     C60494   9.814   1.540   4.182 -0.2080 -0.1217  0.3696
  449MOL0     C60495   9.845   1.385   4.149 -0.2279 -0.0825  0.1080
  449MOL0     C60496   9.916   1.368   4.012 -0.5601  0.2455  0.2321
  449MOL0     N60497   9.847   1.408   3.890 -0.1815 -0.5031 -0.2934
  449MOL0     C60498   9.779   1.319   3.810 -0.0461 -0.0092  0.0957
  449MOL0     C60499   9.751   1.387   3.702 -0.1302  0.0370 -0.1084
  449MOL0     C60500   9.673   1.342   3.586 -0.5151 -0.3703 -0.9967
  449MOL0     C60501   9.753   1.324   3.469 -0.5991  0.2103 -0.3678
  449MOL0     C60502   9.669   1.295   3.349  0.0937  0.3042 -0.0333
  449MOL0     C60503   9.630   1.147   3.326  0.2405 -0.7690  1.1852
  449MOL0     O60504   9.556   1.088   3.432  0.5610 -0.1481  0.3855
  449MOL0     C60505   9.415   1.085   3.431 -0.6329  1.3217 -0.6196
  449MOL0     C60506   9.354   1.033   3.546 -0.5934  0.0666  0.8129
  449MOL0     C60507   9.218   1.028   3.551  0.3309 -0.2467  0.1764
  449MOL0     C60508   9.153   0.960   3.670  0.4178 -0.2654 -0.4833
  449MOL0     C60509   9.136   1.093   3.459  0.0389  0.2960 -0.5965
  449MOL0     C60510   8.984   1.103   3.469  0.1322 -1.4427 -0.5424
  449MOL0     O60511   8.930   1.180   3.368 -0.2536 -0.3478 -0.6444
  449MOL0     C60512   8.797   1.193   3.357  0.6777 -0.2492  0.1720
  449MOL0     C60513   8.730   1.312   3.406  0.2400  0.0249 -1.2630
  449MOL0     C60514   8.592   1.341   3.397  0.0392  0.5138  0.8818
  449MOL0     C60515   8.514   1.256   3.315 -0.3532  1.0907 -1.3286
  449MOL0     O60516   8.379   1.276   3.310 -0.4142 -0.4484  0.2050
  449MOL0     C60517   8.286   1.188   3.240 -0.4195  0.1945  0.1074
  449MOL0     C60518   8.145   1.211   3.281 -0.9255  0.2237  0.2452
  449MOL0     C60519   8.082   1.340   3.222  0.2709  0.2198  0.4189
  449MOL0     C60520   7.929   1.334   3.210 -0.2144  0.0747  0.4231
  449MOL0     C60521   7.870   1.230   3.122  0.6270  0.2135 -0.2678
  449MOL0     C60522   7.885   1.266   2.967 -0.3138 -0.8009  0.9201
  449MOL0     C60523   7.758   1.230   2.899 -0.1320 -0.7505  0.7492
  449MOL0     C60524   7.795   1.221   2.749  1.1554  0.6442 -0.2491
  449MOL0    Cl60525   7.868   1.365   2.701 -0.1028  0.3382  0.0913
  449MOL0     C60526   8.579   1.145   3.253  0.3360  0.8576 -0.4248
  449MOL0     C60527   8.712   1.105   3.289 -0.6310  0.4107  0.8424
  449MOL0     O60528   8.917   1.036   3.547  1.1522 -0.1689  0.4286
  449MOL0     C60529   9.198   1.135   3.344 -0.3898  0.2735 -1.6686
  449MOL0     C60530   9.336   1.137   3.332  0.5049 -1.1022  0.5542
  449MOL0     N60531   9.795   1.515   3.709  1.1107  0.0317  0.0149
  449MOL0     N60532   9.851   1.533   3.823  0.4628  0.1987  1.1305
  449MOL0     C60533   9.739   2.035   4.757  0.6379 -1.0738  0.0173
  449MOL0     C60534   9.685   2.039   4.882 -0.0818  0.2994 -0.5369
  449MOL0     C60535   9.452   1.935   5.243 -0.1519  0.0521 -0.4342
  449MOL0     C60536   9.309   1.951   5.252 -0.4419 -0.3837 -0.1686
  449MOL0     C60537   9.238   1.981   5.371  0.1317  0.0929  0.2479
  449MOL0     C60538   9.320   1.994   5.486 -0.4530 -0.3097 -0.2211
  449MOL0     O60539   9.247   2.017   5.598 -1.3111  0.2440 -0.4587
  449MOL0     C60540   9.313   2.011   5.734 -0.0563  1.0258  0.2096
  449MOL0     C60541   9.230   2.058   5.849  0.2612 -0.9423 -0.5364
  449MOL0     C60542   9.121   1.953   5.862  0.7282  0.6352 -0.0451
  449MOL0     C60543   9.035   1.976   5.994 -0.0459  0.0559  0.1975
  449MOL0     C60544   8.976   2.107   5.993  0.0502 -0.2097 -0.7384
  449MOL0     C60545   8.945   2.226   5.994  0.4425  0.9332 -0.2928
  449MOL0     C60546   9.464   1.982   5.486  0.6495 -0.3444  0.3891
  449MOL0     C60547   9.524   1.948   5.361 -0.4767  0.6892  0.4324
  449MOL0     H60548   9.873   1.799   5.023  1.1439 -0.7640 -0.5723
  449MOL0     H60549   9.969   1.799   4.824  0.1931 -0.4605  3.8649
  449MOL0     H60550   9.817   2.112   4.502 -0.1289 -0.1030 -0.8545
  449MOL0     H60551   9.920   2.036   4.399 -0.7072  1.7871 -0.4177
  449MOL0     H60552   9.670   1.894   4.503  1.5722 -0.4409  0.3252
  449MOL0     H60553   9.703   1.972   4.337 -1.2548 -0.7235  0.1038
  449MOL0     H60554   9.868   1.792   4.299  0.0693  2.1258  0.2719
  449MOL0     H60555   9.842   1.724   4.463  1.5523  0.9421 -0.6792
  449MOL0     H60556   9.608   1.700   4.420  0.1611  4.5227  0.7525
  449MOL0     H60557   9.640   1.739   4.252  0.7040  2.9208  1.6673
  449MOL0     H60558   9.796   1.514   4.400  0.2823 -4.1047 -1.5810
  449MOL0     H60559   9.646   1.490   4.329 -3.0779  2.6127 -0.9671
  449MOL0     H60560   9.753   1.568   4.095 -1.4883  1.2450  1.6476
  449MOL0     H60561   9.912   1.588   4.191 -0.1551 -0.4184  1.5138
  449MOL0     H60562   9.903   1.339   4.229  0.6253 -0.6867 -0.8350
  449MOL0     H60563   9.754   1.328   4.128 -2.4939  3.8305 -1.7285
  449MOL0     H60564   9.944   1.264   3.996  1.6682  0.7143  0.7913
  449MOL0     H60565  10.013   1.418   4.011 -0.0818 -0.5801  1.9785
  449MOL0     H60566   9.770   1.211   3.817 -2.6086  0.1650  0.8138
  449MOL0     H60567   9.619   1.247   3.600 -1.3004  0.2360  0.2405
  449MOL0     H60568   9.601   1.421   3.562  1.1899  2.7808  3.1448
  449MOL0     H60569   9.818   1.241   3.499 -0.8923  1.0676  3.0022
  449MOL0     H60570   9.816   1.410   3.445  2.6340 -1.8892 -0.0191
  449MOL0     H60571   9.735   1.325   3.266  0.1935  0.8175  0.2287
  449MOL0     H60572   9.576   1.351   3.344  0.5671  1.1115  0.0356
  449MOL0     H60573   9.721   1.086   3.328  0.0382 -1.0495  2.9857
  449MOL0     H60574   9.575   1.141   3.231 -0.8641  5.6544  0.9595
  449MOL0     H60575   9.414   0.974   3.616 -0.2069 -5.5759 -3.5167
  449MOL0     H60576   9.099   1.044   3.716  0.3767  0.2737 -1.4951
  449MOL0     H60577   9.087   0.880   3.636 -1.4749  0.4575  1.2476
  449MOL0     H60578   9.221   0.917   3.743 -0.2586  1.5312  1.3335
  449MOL0     H60579   8.782   1.393   3.458 -2.4177  2.5102 -2.2320
  449MOL0     H60580   8.545   1.422   3.451 -0.0782  2.7732 -2.3211
  449MOL0     H60581   8.290   1.185   3.131 -2.3937 -0.2338  0.0079
  449MOL0     H60582   8.296   1.087   3.283 -2.1340  0.8249  2.1732
  449MOL0     H60583   8.095   1.122   3.242 -0.2092  0.2103 -0.6620
  449MOL0     H60584   8.134   1.207   3.390 -3.9475  0.5505  0.0608
  449MOL0     H60585   8.121   1.356   3.121 -1.7104 -0.5089 -0.4994
  449MOL0     H60586   8.115   1.430   3.274 -2.1242 -0.2251  2.8973
  449MOL0     H60587   7.889   1.316   3.311  0.0901 -0.2228  0.4929
  449MOL0     H60588   7.895   1.430   3.169  0.9897 -0.0924 -1.0569
  449MOL0     H60589   7.764   1.217   3.145 -0.3787 -1.1954 -4.6288
  449MOL0     H60590   7.915   1.133   3.144  2.9884  1.6115  1.4979
  449MOL0     H60591   7.906   1.373   2.956 -2.3314 -0.4053  0.4837
  449MOL0     H60592   7.968   1.209   2.924 -1.6445  0.5864 -4.2234
  449MOL0     H60593   7.683   1.308   2.912  0.8902  0.7320 -1.4909
  449MOL0     H60594   7.734   1.135   2.947 -1.3944  0.7242  3.2477
  449MOL0     H60595   7.705   1.193   2.694 -0.6802  1.5594  2.0958
  449MOL0     H60596   7.858   1.135   2.726 -0.9275 -1.3604  1.0836
  449MOL0     H60597   8.529   1.085   3.178  0.6089  1.6594 -1.2674
  449MOL0     H60598   8.747   1.014   3.242  1.7968  1.6223  0.1482
  449MOL0     H60599   9.141   1.161   3.256 -2.2449 -5.4879 -2.6028
  449MOL0     H60600   9.378   1.169   3.237 -0.9376 -0.1701  0.1987
  449MOL0     H60601   9.698   2.112   4.692 -1.2997 -0.4358  1.8618
  449MOL0     H60602   9.606   2.113   4.895 -1.0918 -0.6650 -1.0790
  449MOL0     H60603   9.256   1.932   5.159 -0.4776 -2.3539  0.2167
  449MOL0     H60604   9.130   1.979   5.366  0.0764  1.3138  0.6487
  449MOL0     H60605   9.333   1.905   5.752 -0.8577  1.2053  2.3754
  449MOL0     H60606   9.410   2.061   5.737  1.9980 -2.4814 -0.9827
  449MOL0     H60607   9.190   2.157   5.825 -0.6028 -0.9260  0.8293
  449MOL0     H60608   9.293   2.061   5.938 -2.3043 -3.0262  1.5306
  449MOL0     H60609   9.159   1.851   5.875 -2.5828 -0.5101  1.9575
  449MOL0     H60610   9.050   1.948   5.779 -0.0378 -1.6526  0.6740
  449MOL0     H60611   9.095   1.970   6.085  1.7816  1.7491 -0.8353
  449MOL0     H60612   8.957   1.899   6.001  1.8186 -1.8240  1.9969
  449MOL0     H60613   8.943   2.334   5.991  6.9545  1.4420 -1.8886
  449MOL0     H60614   9.526   1.993   5.574 -1.5021 -2.2781  2.3063
  449MOL0     H60615   9.632   1.936   5.352 -0.3767  1.1580  0.9731
  450MOL0     O60616   0.313   6.773   6.212 -0.1231  0.6091  0.8722
  450MOL0     C60617   0.313   6.662   6.259 -0.0760  0.5539  0.2526
  450MOL0     O60618   0.324   6.542   6.194  1.0551  0.2493 -0.1165
  450MOL0     C60619   0.350   6.543   6.056 -0.8810 -0.1280  0.0308
  450MOL0     C60620   0.486   6.544   6.015  0.0843  0.3251  0.3428
  450MOL0     C60621   0.528   6.539   5.877  0.4709 -0.1992  0.1193
  450MOL0     C60622   0.422   6.540   5.780 -0.0326 -0.5846 -0.5879
  450MOL0     O60623   0.453   6.543   5.645 -0.5826  0.2651 -0.1078
  450MOL0     C60624   0.368   6.521   5.541  0.7218  0.1096  0.4658
  450MOL0     C60625   0.311   6.654   5.487  0.2004 -0.6542 -0.9962
  450MOL0     C60626   0.178   6.632   5.415 -0.4938 -0.4137  0.0615
  450MOL0     C60627   0.084   6.754   5.443  0.2206  0.0708  0.3313
  450MOL0     C60628   0.020   6.749   5.575  1.0143  0.3373 -0.1392
  450MOL0     C60629  -0.101   6.849   5.586  0.1250  0.3688  1.0589
  450MOL0     C60630  -0.200   6.811   5.696 -0.1069 -0.1759  0.3842
  450MOL0     C60631  -0.312   6.732   5.646  0.9404 -0.0187  0.9551
  450MOL0     N60632  -0.422   6.737   5.749 -0.1567  0.4028  0.4317
  450MOL0     C60633  -0.528   6.824   5.749  0.4547  1.4053  0.0339
  450MOL0     C60634  -0.608   6.769   5.845  1.0032  0.5163  0.1101
  450MOL0     C60635  -0.731   6.835   5.909  0.1382  0.2532  0.3776
  450MOL0     C60636  -0.689   6.910   6.036  0.4320 -1.0354  0.1103
  450MOL0     C60637  -0.808   6.946   6.127  0.0161 -0.3223  0.6147
  450MOL0     C60638  -0.756   6.992   6.261 -0.4555 -0.2962  0.1804
  450MOL0     O60639  -0.852   7.025   6.358 -0.8714 -0.0347 -0.2914
  450MOL0     C60640  -0.927   7.139   6.359 -0.0197 -0.0115  0.1377
  450MOL0     C60641  -1.034   7.144   6.457  0.2505  1.0381 -0.3563
  450MOL0     C60642  -1.127   7.255   6.463  0.7243 -1.0889  0.0833
  450MOL0     C60643  -1.239   7.253   6.571  0.0773  0.1514 -0.0943
  450MOL0     C60644  -1.126   7.357   6.364 -0.1489 -0.3322 -0.4762
  450MOL0     C60645  -1.217   7.481   6.361 -0.0772  0.4755  0.2481
  450MOL0     O60646  -1.168   7.576   6.282  0.1909  0.4050 -0.1849
  450MOL0     C60647  -1.232   7.705   6.290  0.2884  0.3090  0.0525
  450MOL0     C60648  -1.157   7.817   6.336  0.6879 -0.9490 -0.0191
  450MOL0     C60649  -1.204   7.950   6.329  0.6609 -0.4942 -0.2245
  450MOL0     C60650  -1.330   7.969   6.287  0.2828 -1.5584 -0.2856
  450MOL0     O60651  -1.388   8.099   6.299  0.0161  0.0272  0.1532
  450MOL0     C60652  -1.502   8.096   6.380  0.1459 -1.1332 -0.7473
  450MOL0     C60653  -1.620   8.160   6.305 -0.2802  0.4128  0.2205
  450MOL0     C60654  -1.735   8.191   6.398  0.5412 -0.6516  1.0998
  450MOL0     C60655  -1.697   8.304   6.491  0.1334 -0.6926  0.0402
  450MOL0     C60656  -1.827   8.318   6.581  0.3664  0.2036 -0.0339
  450MOL0     C60657  -1.825   8.449   6.668 -0.0367  0.1189  0.5009
  450MOL0     C60658  -1.948   8.441   6.756  0.5371 -0.4889  0.0260
  450MOL0     C60659  -1.963   8.538   6.867  0.1985 -0.1465  0.1903
  450MOL0    Cl60660  -2.012   8.708   6.805 -0.2313 -0.0657 -0.1227
  450MOL0     C60661  -1.404   7.863   6.227  0.1962  0.1617  0.0688
  450MOL0     C60662  -1.364   7.729   6.236 -1.0637 -0.0668  1.2624
  450MOL0     O60663  -1.323   7.487   6.424  1.0435  0.7792 -0.2346
  450MOL0     C60664  -1.018   7.351   6.268 -0.0617  0.1604 -0.6307
  450MOL0     C60665  -0.913   7.255   6.283 -0.1818  1.3358  0.4454
  450MOL0     N60666  -0.554   6.641   5.882 -0.4013  0.0570 -0.1249
  450MOL0     N60667  -0.434   6.630   5.828 -0.7389 -0.2750  0.1756
  450MOL0     C60668   0.289   6.534   5.826 -0.2311  0.0229  0.4389
  450MOL0     C60669   0.248   6.541   5.959  0.1529  0.2672 -0.3042
  450MOL0     C60670   0.267   6.643   6.398  0.6388 -1.0640 -0.2936
  450MOL0     C60671   0.225   6.518   6.439  0.5450  0.0353 -0.0408
  450MOL0     C60672   0.198   6.500   6.573  0.2303  0.4196  0.6976
  450MOL0     C60673   0.190   6.603   6.663  0.8020  1.3494 -1.0550
  450MOL0     O60674   0.153   6.555   6.789  0.1760 -0.1034  0.4271
  450MOL0     C60675   0.165   6.640   6.899 -0.1243 -0.4628 -0.0369
  450MOL0     C60676   0.083   6.588   7.020 -0.8215  0.8878 -0.3311
  450MOL0     C60677  -0.061   6.553   6.983  0.0093 -0.3579 -0.0185
  450MOL0     C60678  -0.152   6.530   7.101 -0.5437  0.6932  0.7855
  450MOL0     C60679  -0.260   6.435   7.077 -0.7151 -0.4648  0.0709
  450MOL0     C60680  -0.348   6.356   7.061 -0.2573  0.4604  0.2050
  450MOL0     C60681   0.219   6.734   6.623 -0.6977  0.3462 -0.6000
  450MOL0     C60682   0.268   6.751   6.491  0.9905 -1.2177 -0.7800
  450MOL0     H60683   0.559   6.530   6.094 -1.2033 -1.2133  1.3237
  450MOL0     H60684   0.632   6.552   5.848  0.5095  0.0368  0.3579
  450MOL0     H60685   0.424   6.486   5.455  1.0560 -0.7390  1.0147
  450MOL0     H60686   0.287   6.451   5.567 -0.2599  0.8196 -0.5757
  450MOL0     H60687   0.302   6.716   5.577  0.9202 -3.5968  1.2413
  450MOL0     H60688   0.387   6.696   5.420  1.3847 -1.0294  0.0757
  450MOL0     H60689   0.209   6.623   5.310  4.3330  0.7616  1.1241
  450MOL0     H60690   0.123   6.546   5.455 -2.5698  0.3836 -0.9346
  450MOL0     H60691   0.138   6.848   5.428 -1.2015  0.5973 -2.0718
  450MOL0     H60692   0.008   6.745   5.364 -1.4653  1.3003  1.7024
  450MOL0     H60693  -0.022   6.648   5.579  0.3395  0.6221  0.1899
  450MOL0     H60694   0.103   6.771   5.643 -0.6688 -0.6044  2.3537
  450MOL0     H60695  -0.057   6.948   5.603  3.6458 -1.0380  0.7967
  450MOL0     H60696  -0.161   6.849   5.494 -1.7785 -0.0221  2.2477
  450MOL0     H60697  -0.143   6.778   5.783  3.5677  2.0997 -0.9308
  450MOL0     H60698  -0.244   6.908   5.721  2.4942  0.6867  2.0237
  450MOL0     H60699  -0.274   6.630   5.636  1.5849  0.4380 -2.4354
  450MOL0     H60700  -0.353   6.772   5.552 -1.8667 -0.4624  1.9019
  450MOL0     H60701  -0.526   6.917   5.691  6.5802 -0.1179 -3.0929
  450MOL0     H60702  -0.783   6.896   5.835 -1.3542 -0.2685  0.9514
  450MOL0     H60703  -0.801   6.759   5.945  0.7376 -0.1862  0.6314
  450MOL0     H60704  -0.622   6.994   6.017  3.0712 -3.2116 -0.7781
  450MOL0     H60705  -0.620   6.847   6.092 -0.9129 -1.5984  1.2068
  450MOL0     H60706  -0.876   6.862   6.144 -1.0166  0.4764  0.5285
  450MOL0     H60707  -0.867   7.018   6.069 -2.1267 -2.0572  0.4654
  450MOL0     H60708  -0.684   7.074   6.260 -0.7559 -0.0272  0.4054
  450MOL0     H60709  -0.700   6.915   6.315  0.4374 -2.1994 -3.1525
  450MOL0     H60710  -1.033   7.064   6.531  1.1223 -0.1626 -1.6128
  450MOL0     H60711  -1.215   7.185   6.653 -0.6096 -0.3569 -0.3073
  450MOL0     H60712  -1.246   7.352   6.616 -2.0080  1.2660 -2.5902
  450MOL0     H60713  -1.337   7.236   6.525  0.9926 -1.3799 -1.6308
  450MOL0     H60714  -1.057   7.807   6.376  1.1517 -0.1064 -0.9319
  450MOL0     H60715  -1.158   8.041   6.366  2.1264 -1.8271  1.4243
  450MOL0     H60716  -1.522   7.994   6.415  1.9033 -0.8590  1.3248
  450MOL0     H60717  -1.482   8.151   6.473  0.1470  0.1563 -1.4870
  450MOL0     H60718  -1.588   8.251   6.254  2.5808  0.2091  1.4419
  450MOL0     H60719  -1.662   8.096   6.228 -4.7080  2.7089  0.4122
  450MOL0     H60720  -1.747   8.098   6.453  0.7325 -0.8288  0.8451
  450MOL0     H60721  -1.817   8.233   6.338  0.3619 -0.3180  1.5784
  450MOL0     H60722  -1.615   8.282   6.561  2.3462  2.1862 -1.4197
  450MOL0     H60723  -1.666   8.398   6.445 -2.5817 -0.0029 -0.5666
  450MOL0     H60724  -1.822   8.233   6.650  0.3959  1.4836  1.6127
  450MOL0     H60725  -1.918   8.317   6.520 -1.3532 -4.6584  2.1040
  450MOL0     H60726  -1.731   8.457   6.723 -0.9024 -1.1217  2.2581
  450MOL0     H60727  -1.830   8.544   6.613  1.6428  1.5319  2.6279
  450MOL0     H60728  -1.936   8.346   6.809 -0.0538  0.1928  1.4073
  450MOL0     H60729  -2.038   8.439   6.695  1.3235 -3.4306 -1.1985
  450MOL0     H60730  -1.875   8.553   6.930 -1.1527  1.9608  1.7033
  450MOL0     H60731  -2.048   8.507   6.927  0.0144  0.2519  0.1419
  450MOL0     H60732  -1.499   7.899   6.189  0.8503  1.6516 -0.2225
  450MOL0     H60733  -1.424   7.641   6.214  0.9704 -1.3120  0.3966
  450MOL0     H60734  -0.998   7.430   6.197  0.1831 -0.8623 -1.7477
  450MOL0     H60735  -0.818   7.254   6.231  1.1788  1.4903  2.7663
  450MOL0     H60736   0.220   6.536   5.743  1.4584  1.1484 -1.0095
  450MOL0     H60737   0.145   6.550   5.991  0.1692 -1.8359  0.4607
  450MOL0     H60738   0.212   6.426   6.383 -1.6113 -1.2751  2.3675
  450MOL0     H60739   0.178   6.396   6.599  2.9591 -0.8768 -1.8164
  450MOL0     H60740   0.269   6.663   6.922  1.2226 -5.0276 -0.6872
  450MOL0     H60741   0.112   6.732   6.871  1.2550  0.2867 -0.2734
  450MOL0     H60742   0.086   6.661   7.102 -2.3529  3.3092 -2.2602
  450MOL0     H60743   0.132   6.495   7.051 -0.1285  1.4225  0.2199
  450MOL0     H60744  -0.055   6.459   6.928 -2.2168 -0.7645  0.3283
  450MOL0     H60745  -0.109   6.634   6.929  1.7342  1.3168  0.8475
  450MOL0     H60746  -0.206   6.622   7.125 -4.8561 -1.0446 -1.2200
  450MOL0     H60747  -0.104   6.475   7.183 -2.9524 -4.0810 -0.5976
  450MOL0     H60748  -0.424   6.283   7.040  0.0318 -0.5771  2.3702
  450MOL0     H60749   0.217   6.806   6.704 -2.5307  0.5973 -0.8312
  450MOL0     H60750   0.309   6.848   6.463  0.2868 -0.9965 -1.0756
  451MOL0     O60751   7.792  10.315   1.778 -0.5520  0.0276 -0.2599
  451MOL0     C60752   7.698  10.396   1.767 -0.3657 -0.0884  0.5268
  451MOL0     O60753   7.676  10.484   1.663  0.0697  0.0150 -0.3896
  451MOL0     C60754   7.769  10.488   1.561  0.1845  0.3815  0.0000
  451MOL0     C60755   7.757  10.393   1.462 -0.4274 -0.0775  0.5894
  451MOL0     C60756   7.846  10.390   1.358 -0.3231  1.4126  0.1558
  451MOL0     C60757   7.941  10.484   1.347  0.0114 -0.1091 -1.0641
  451MOL0     O60758   8.031  10.488   1.247 -0.7263  0.2953 -0.3057
  451MOL0     C60759   8.164  10.486   1.300 -0.2587  0.9652  0.2141
  451MOL0     C60760   8.253  10.463   1.180  0.0265 -0.0741 -0.1539
  451MOL0     C60761   8.234  10.321   1.125 -0.6469 -0.2075  0.5010
  451MOL0     C60762   8.349  10.283   1.039  0.2438  0.8265 -0.1460
  451MOL0     C60763   8.343  10.137   0.987  0.5445 -0.1400 -0.5580
  451MOL0     C60764   8.246  10.134   0.856 -0.9849 -0.4340 -0.0966
  451MOL0     C60765   8.239   9.984   0.799 -0.0501 -0.3135  0.2904
  451MOL0     C60766   8.391   9.943   0.767  0.1103  0.7060 -0.5264
  451MOL0     N60767   8.460  10.035   0.668 -0.1245  0.1417  0.0845
  451MOL0     C60768   8.570  10.108   0.691 -0.3820  0.1701  0.0428
  451MOL0     C60769   8.607  10.168   0.570 -0.9628 -0.4613 -0.2905
  451MOL0     C60770   8.741  10.236   0.549  0.0608  0.3661  0.7357
  451MOL0     C60771   8.847  10.208   0.656 -0.0792  0.2061  0.3821
  451MOL0     C60772   8.957  10.311   0.633  0.2845  0.7556 -0.4478
  451MOL0     C60773   9.085  10.271   0.725  0.5230  0.4284  0.7493
  451MOL0     O60774   9.064  10.271   0.868 -0.1300 -1.1984  0.3149
  451MOL0     C60775   9.016  10.382   0.942  0.3383  0.7380  1.1207
  451MOL0     C60776   8.962  10.354   1.063 -0.7041 -0.0307  0.0565
  451MOL0     C60777   8.914  10.458   1.148 -0.0283 -0.4895  0.4048
  451MOL0     C60778   8.873  10.413   1.293  0.1286  0.2294  0.4579
  451MOL0     C60779   8.908  10.588   1.101 -0.1768 -0.4602  0.1974
  451MOL0     C60780   8.865  10.694   1.189  1.3173 -1.2063 -0.1220
  451MOL0     O60781   8.933  10.825   1.166 -0.2939 -0.0837  0.1601
  451MOL0     C60782   8.887  10.947   1.200 -0.2926  0.0656  0.8140
  451MOL0     C60783   8.748  10.981   1.222 -0.4809 -0.8411  0.3805
  451MOL0     C60784   8.710  11.105   1.269  0.1447 -0.3518 -0.4090
  451MOL0     C60785   8.803  11.207   1.278  0.3933 -0.3765 -0.3853
  451MOL0     O60786   8.766  11.332   1.318 -0.1617  0.1087 -0.7814
  451MOL0     C60787   8.820  11.363   1.447  0.2435 -0.5337  0.7139
  451MOL0     C60788   8.715  11.419   1.548 -0.5052  0.6936  0.7428
  451MOL0     C60789   8.609  11.314   1.586  0.2672 -0.8040  0.1334
  451MOL0     C60790   8.654  11.179   1.643  0.6430  0.3303 -0.5795
  451MOL0     C60791   8.539  11.117   1.717 -0.1939  0.9028  0.4829
  451MOL0     C60792   8.567  10.963   1.753 -0.2863 -0.1887 -0.0501
  451MOL0     C60793   8.596  10.879   1.618 -0.1824  0.1457 -0.0743
  451MOL0     C60794   8.567  10.733   1.651 -0.1966  0.6180  0.4981
  451MOL0    Cl60795   8.641  10.669   1.806 -0.4537  0.0059  0.0153
  451MOL0     C60796   8.940  11.175   1.261  0.1672 -1.1118  0.6212
  451MOL0     C60797   8.983  11.048   1.220  0.3981  0.0734 -0.2064
  451MOL0     O60798   8.766  10.679   1.266  0.0624  0.2353 -0.1447
  451MOL0     C60799   8.967  10.617   0.974  0.5979  0.7599  0.0769
  451MOL0     C60800   9.016  10.514   0.900  0.5813 -0.3321  0.4010
  451MOL0     N60801   8.512  10.136   0.480  0.0900  0.9808 -0.2287
  451MOL0     N60802   8.428  10.061   0.542  0.6070  0.0018  0.0400
  451MOL0     C60803   7.952  10.589   1.444  0.0287  0.6052  0.5325
  451MOL0     C60804   7.866  10.585   1.551 -0.5378 -0.5291  0.5150
  451MOL0     C60805   7.616  10.393   1.891 -0.6272 -0.0091 -0.2215
  451MOL0     C60806   7.646  10.308   2.005  0.3454 -0.1919 -0.3268
  451MOL0     C60807   7.555  10.290   2.113  0.5680  0.9962  0.1292
  451MOL0     C60808   7.435  10.362   2.116  0.5957 -0.4059 -0.4879
  451MOL0     O60809   7.343  10.340   2.214  0.4984 -0.0301 -0.2819
  451MOL0     C60810   7.360  10.245   2.310 -1.4839 -0.0682  0.6222
  451MOL0     C60811   7.321  10.102   2.278  0.1802 -0.5289  0.4200
  451MOL0     C60812   7.165  10.090   2.266  0.1723 -0.5112  0.1942
  451MOL0     C60813   7.119   9.949   2.217  0.4679 -0.3152 -0.1573
  451MOL0     C60814   7.123   9.935   2.072 -0.0007 -0.0744 -0.6039
  451MOL0     C60815   7.103   9.933   1.957  0.2798  0.6961  0.0911
  451MOL0     C60816   7.404  10.444   2.010  0.3129 -0.4521 -0.1409
  451MOL0     C60817   7.494  10.460   1.896  0.4429  0.3251  0.2585
  451MOL0     H60818   7.673  10.324   1.461 -1.2450  0.7586  2.9307
  451MOL0     H60819   7.847  10.319   1.275  0.3361 -0.6117  1.8271
  451MOL0     H60820   8.197  10.575   1.355  0.5055 -0.3442  1.9912
  451MOL0     H60821   8.167  10.407   1.376 -2.1364  1.6968  1.1361
  451MOL0     H60822   8.226  10.530   1.098 -0.8610 -0.6095 -0.3158
  451MOL0     H60823   8.359  10.476   1.205  0.0944  0.8125 -0.8729
  451MOL0     H60824   8.221  10.251   1.209  2.6022 -0.7195  0.7145
  451MOL0     H60825   8.146  10.317   1.060  0.4333 -0.4243 -1.0000
  451MOL0     H60826   8.351  10.352   0.954  0.4761  1.8136  0.6381
  451MOL0     H60827   8.445  10.282   1.091 -1.8469 -3.0015  4.3003
  451MOL0     H60828   8.443  10.099   0.967 -0.4643 -3.2091 -0.2873
  451MOL0     H60829   8.306  10.076   1.070  0.8643  1.1810  0.5928
  451MOL0     H60830   8.151  10.176   0.891 -0.8597  1.4822 -1.8971
  451MOL0     H60831   8.285  10.209   0.786  1.1387 -1.3898 -0.0355
  451MOL0     H60832   8.207   9.924   0.885  2.8249  0.5024  2.0642
  451MOL0     H60833   8.168   9.984   0.716  2.4267 -1.7193 -1.9922
  451MOL0     H60834   8.378   9.850   0.711  0.0519  0.3908  0.0088
  451MOL0     H60835   8.440   9.924   0.862  1.9781 -0.0118 -1.5754
  451MOL0     H60836   8.625  10.113   0.784  0.8906 -2.6371 -0.4449
  451MOL0     H60837   8.784  10.197   0.456 -2.1443  0.6241 -0.4920
  451MOL0     H60838   8.728  10.344   0.532 -2.7249 -0.1906 -1.5459
  451MOL0     H60839   8.897  10.113   0.636  1.8678  1.5435 -1.7615
  451MOL0     H60840   8.806  10.217   0.757  0.3636  0.5430  0.5386
  451MOL0     H60841   8.923  10.414   0.647  1.2866  1.0523 -0.1028
  451MOL0     H60842   8.991  10.306   0.529 -0.0676  1.5425 -0.6037
  451MOL0     H60843   9.161  10.345   0.700 -0.8991  2.4450  2.0422
  451MOL0     H60844   9.114  10.171   0.694  3.9720  1.5347 -0.0116
  451MOL0     H60845   8.964  10.249   1.093 -2.5429  0.1145  0.7976
  451MOL0     H60846   8.926  10.323   1.324  1.9790  1.1336  0.0279
  451MOL0     H60847   8.893  10.499   1.358  0.2944  0.7576 -0.2773
  451MOL0     H60848   8.766  10.392   1.286 -0.0889  0.5102  2.4190
  451MOL0     H60849   8.672  10.907   1.197  0.3488 -1.9592  1.0899
  451MOL0     H60850   8.609  11.140   1.289  0.6333 -0.3408  2.2706
  451MOL0     H60851   8.855  11.270   1.494  0.7369 -1.2261 -0.9439
  451MOL0     H60852   8.904  11.432   1.434 -0.0232 -0.1752  0.8889
  451MOL0     H60853   8.766  11.452   1.639  0.9832 -0.7219  0.4788
  451MOL0     H60854   8.673  11.500   1.488  1.0842  1.0225  0.0114
  451MOL0     H60855   8.548  11.288   1.498  0.4968  0.7941 -0.5384
  451MOL0     H60856   8.544  11.370   1.654 -0.0687 -0.7442 -0.2324
  451MOL0     H60857   8.690  11.118   1.560  1.3736 -1.2165  0.7996
  451MOL0     H60858   8.744  11.196   1.704  0.7178  1.0150 -0.8755
  451MOL0     H60859   8.441  11.129   1.670  0.7229  3.3127 -0.9591
  451MOL0     H60860   8.506  11.186   1.795  0.9287  2.9537 -0.7487
  451MOL0     H60861   8.659  10.958   1.812 -0.7757  0.3926  0.7793
  451MOL0     H60862   8.487  10.926   1.818  1.4008 -0.8663  1.7716
  451MOL0     H60863   8.700  10.892   1.589 -0.4194  1.4573 -0.3745
  451MOL0     H60864   8.540  10.914   1.531 -1.3275  2.3911  1.4506
  451MOL0     H60865   8.593  10.677   1.561 -0.7867 -0.0946  0.7685
  451MOL0     H60866   8.459  10.728   1.663 -0.0985  0.9618  1.6846
  451MOL0     H60867   9.015  11.252   1.275  0.1646 -1.4568  2.8340
  451MOL0     H60868   9.087  11.017   1.208  0.3720 -0.4791  0.8922
  451MOL0     H60869   8.969  10.716   0.928  0.2241 -0.4112 -2.6920
  451MOL0     H60870   9.048  10.532   0.798 -4.9264 -0.0473 -1.5630
  451MOL0     H60871   8.021  10.673   1.436  2.1484 -1.2141 -1.4512
  451MOL0     H60872   7.864  10.669   1.620 -1.4582  1.8322 -2.2021
  451MOL0     H60873   7.742  10.256   2.009  1.4064  1.7325  0.5814
  451MOL0     H60874   7.602  10.229   2.189  1.6803  1.0672 -0.4785
  451MOL0     H60875   7.465  10.241   2.339 -0.0780  0.2745 -3.7146
  451MOL0     H60876   7.317  10.279   2.405  3.2555  1.0852  2.6418
  451MOL0     H60877   7.360  10.033   2.353 -0.0454 -2.7418 -1.3812
  451MOL0     H60878   7.374  10.075   2.186  3.2917  1.7856  1.3639
  451MOL0     H60879   7.124  10.161   2.194 -1.5989 -0.9448  0.7233
  451MOL0     H60880   7.127  10.110   2.366 -3.3245  2.3665 -1.5041
  451MOL0     H60881   7.017   9.923   2.245 -0.3585  0.9431 -1.8497
  451MOL0     H60882   7.183   9.875   2.267 -1.4560 -0.5416  2.1532
  451MOL0     H60883   7.094   9.935   1.850 -0.9595 -0.5238  0.1329
  451MOL0     H60884   7.303  10.483   2.003  0.4105 -0.2378 -0.3939
  451MOL0     H60885   7.467  10.530   1.817 -0.1168  0.6159  0.7076
  452MOL0     O60886   7.342   3.218   0.234  0.2432 -0.3976  0.0915
  452MOL0     C60887   7.327   3.109   0.185 -0.8591  1.0970 -0.4458
  452MOL0     O60888   7.268   3.001   0.246  0.6131  0.0422 -0.5547
  452MOL0     C60889   7.230   3.011   0.378  0.2788 -0.0848  0.0098
  452MOL0     C60890   7.318   3.042   0.477  0.4331 -0.3509 -0.0705
  452MOL0     C60891   7.284   3.016   0.615 -0.4600 -0.1222  0.6906
  452MOL0     C60892   7.161   2.966   0.660 -1.3611 -0.5676 -0.5219
  452MOL0     O60893   7.143   2.961   0.796 -0.9660 -0.4686 -0.5346
  452MOL0     C60894   7.021   2.900   0.837 -0.3685  0.3782  0.2849
  452MOL0     C60895   6.992   2.931   0.990  0.5119 -0.6288  0.0951
  452MOL0     C60896   7.090   2.886   1.091 -0.0567 -0.8245 -0.3338
  452MOL0     C60897   7.139   2.739   1.064 -0.6268  0.3779  0.7628
  452MOL0     C60898   7.229   2.714   1.186 -0.8037 -0.0906  0.7495
  452MOL0     C60899   7.375   2.755   1.145  0.3691  0.0718  0.0803
  452MOL0     C60900   7.478   2.730   1.254  0.5176  0.6339 -0.4263
  452MOL0     C60901   7.492   2.585   1.299 -1.3904 -0.4424 -0.5394
  452MOL0     N60902   7.556   2.515   1.189 -0.4468 -0.3554  0.0894
  452MOL0     C60903   7.696   2.523   1.161 -0.6477  1.1565 -0.3923
  452MOL0     C60904   7.719   2.415   1.081 -0.2438  0.6463  0.1425
  452MOL0     C60905   7.853   2.389   1.023  0.9362  0.1477 -0.7051
  452MOL0     C60906   7.852   2.417   0.883  0.8586  0.3453 -0.3169
  452MOL0     C60907   7.984   2.381   0.814  0.0828 -0.1408 -0.6203
  452MOL0     C60908   8.087   2.497   0.817  0.4735  0.9092  1.2822
  452MOL0     O60909   8.035   2.623   0.769  0.5355  0.7735 -0.5575
  452MOL0     C60910   8.063   2.641   0.637 -0.5590 -0.8083  0.4680
  452MOL0     C60911   8.182   2.716   0.616  0.7718  0.8042  1.0351
  452MOL0     C60912   8.224   2.737   0.483  0.5100  0.3264  0.0925
  452MOL0     C60913   8.348   2.809   0.450  0.3324 -0.1961 -0.3621
  452MOL0     C60914   8.145   2.685   0.378 -0.0774 -0.8162 -0.7938
  452MOL0     C60915   8.181   2.725   0.245  1.3015 -1.0059  0.4382
  452MOL0     O60916   8.154   2.861   0.224 -0.3904 -0.1675  0.0974
  452MOL0     C60917   8.165   2.919   0.101  0.7073  0.5886 -0.1468
  452MOL0     C60918   8.165   3.057   0.092 -0.0849  0.2033 -0.2643
  452MOL0     C60919   8.176   3.118  -0.033  0.1872  0.6571 -0.0741
  452MOL0     C60920   8.175   3.045  -0.150 -0.2443 -0.2036  0.0528
  452MOL0     O60921   8.199   3.111  -0.268  0.0211  0.0995 -0.5682
  452MOL0     C60922   8.160   3.044  -0.391 -0.1717 -0.3741 -0.2693
  452MOL0     C60923   8.140   3.136  -0.521  0.3429 -0.6517  0.1871
  452MOL0     C60924   8.260   3.224  -0.557  0.2415  0.3801  0.1776
  452MOL0     C60925   8.271   3.349  -0.475  0.3778 -0.1787 -1.5715
  452MOL0     C60926   8.209   3.455  -0.563  0.0743 -0.3869 -0.6058
  452MOL0     C60927   8.212   3.593  -0.498 -0.7960 -0.0134  0.9315
  452MOL0     C60928   8.127   3.702  -0.568  0.2115  0.3545  0.4058
  452MOL0     C60929   8.154   3.841  -0.506 -0.0254 -0.6395 -0.2071
  452MOL0    Cl60930   8.078   3.957  -0.628 -0.2857  0.3005 -0.6257
  452MOL0     C60931   8.153   2.904  -0.146  0.3478 -0.5453 -0.3114
  452MOL0     C60932   8.147   2.846  -0.016 -0.1011 -0.4528  0.4877
  452MOL0     O60933   8.218   2.656   0.160  0.4134  0.8798 -0.3081
  452MOL0     C60934   8.027   2.611   0.403  0.5577  0.5249 -0.1932
  452MOL0     C60935   7.985   2.584   0.539 -0.1324 -0.7768  0.0813
  452MOL0     N60936   7.595   2.354   1.070  1.3206  0.1188 -0.0852
  452MOL0     N60937   7.492   2.402   1.143  0.3242  0.1446 -0.2123
  452MOL0     C60938   7.069   2.949   0.556 -0.9889  0.0303  0.6586
  452MOL0     C60939   7.105   2.957   0.418  0.0521  0.4248  0.1137
  452MOL0     C60940   7.361   3.096   0.044 -0.6235  0.3413  0.6125
  452MOL0     C60941   7.348   2.976  -0.027  0.0874 -0.2364  0.3738
  452MOL0     C60942   7.366   2.955  -0.168 -0.0759  0.5412 -0.7479
  452MOL0     C60943   7.413   3.061  -0.240  0.0869 -0.4332  0.0421
  452MOL0     O60944   7.421   3.047  -0.370  0.0864 -0.0782 -0.1090
  452MOL0     C60945   7.461   3.164  -0.442  0.9879  0.0902 -0.8079
  452MOL0     C60946   7.473   3.141  -0.597  0.5468 -0.3455  0.5241
  452MOL0     C60947   7.589   3.054  -0.624 -0.7587 -0.7378  0.0134
  452MOL0     C60948   7.687   3.095  -0.739 -0.0621 -0.7846 -0.5198
  452MOL0     C60949   7.755   3.216  -0.693  0.0214  0.5188 -0.6676
  452MOL0     C60950   7.802   3.319  -0.657  0.7533 -0.4012  0.2297
  452MOL0     C60951   7.436   3.182  -0.173  0.9582 -0.5681  0.0454
  452MOL0     C60952   7.419   3.200  -0.036 -0.6567 -0.4428 -0.0299
  452MOL0     H60953   7.418   3.074   0.452  0.1566  0.2686 -0.4323
  452MOL0     H60954   7.364   3.030   0.686  4.6455  4.1022 -4.8573
  452MOL0     H60955   6.940   2.947   0.779 -0.8718  0.6832  1.2151
  452MOL0     H60956   7.021   2.795   0.805 -2.4870  0.6694 -0.8618
  452MOL0     H60957   6.976   3.039   0.983  0.1976 -0.7690 -2.2031
  452MOL0     H60958   6.889   2.900   1.010 -0.4450  0.5930 -2.4406
  452MOL0     H60959   7.174   2.955   1.088 -1.1793  0.7617  1.6588
  452MOL0     H60960   7.045   2.902   1.190  1.6012  3.0089 -0.0484
  452MOL0     H60961   7.054   2.670   1.057 -0.1260 -0.3046  1.2555
  452MOL0     H60962   7.191   2.734   0.968  0.1524 -0.5712  1.2107
  452MOL0     H60963   7.197   2.765   1.278 -0.5755  3.1990 -0.8567
  452MOL0     H60964   7.232   2.605   1.203 -1.3974 -0.0634  1.0618
  452MOL0     H60965   7.393   2.684   1.064 -2.4458 -1.8720  0.9744
  452MOL0     H60966   7.374   2.861   1.118  0.8750  0.2031  0.5602
  452MOL0     H60967   7.572   2.775   1.220  1.6768 -0.1032  1.5889
  452MOL0     H60968   7.442   2.792   1.336 -0.7462  0.5473 -0.8992
  452MOL0     H60969   7.393   2.545   1.323 -1.0214 -0.5276  0.9760
  452MOL0     H60970   7.559   2.571   1.385 -3.7963 -3.1793  1.0908
  452MOL0     H60971   7.768   2.599   1.190 -2.1420  2.4517  0.0769
  452MOL0     H60972   7.924   2.445   1.084 -1.1755  3.2520 -0.8489
  452MOL0     H60973   7.872   2.281   1.035  0.5923 -0.0145 -1.5199
  452MOL0     H60974   7.819   2.521   0.871  1.5333  0.8093  1.5595
  452MOL0     H60975   7.778   2.354   0.832  0.3604  0.1210  0.6668
  452MOL0     H60976   7.960   2.345   0.714 -2.7964 -0.7859  0.2103
  452MOL0     H60977   8.030   2.289   0.854 -2.4677 -1.2742 -0.0730
  452MOL0     H60978   8.174   2.471   0.756 -1.1001  0.8216 -1.0553
  452MOL0     H60979   8.127   2.513   0.917 -0.6205  1.8209  1.6061
  452MOL0     H60980   8.239   2.732   0.707  3.5989 -2.8398  0.0943
  452MOL0     H60981   8.389   2.784   0.352 -0.8851 -0.5853 -0.7926
  452MOL0     H60982   8.344   2.918   0.461  1.7066 -0.0351 -1.2377
  452MOL0     H60983   8.424   2.778   0.522  1.0905  0.3815 -0.9009
  452MOL0     H60984   8.163   3.119   0.181 -0.7048  0.5466 -0.5086
  452MOL0     H60985   8.199   3.224  -0.044 -0.9607  0.9712  0.4284
  452MOL0     H60986   8.238   2.969  -0.405  0.0401 -0.9969  3.2122
  452MOL0     H60987   8.065   2.994  -0.371  1.0353 -2.0447  1.7115
  452MOL0     H60988   8.122   3.068  -0.604  1.8617 -1.8839  0.8091
  452MOL0     H60989   8.057   3.207  -0.516  0.4871 -0.3529 -1.1862
  452MOL0     H60990   8.272   3.231  -0.666 -0.1775  1.4569  0.1891
  452MOL0     H60991   8.351   3.168  -0.534  2.3871  3.2201 -0.6695
  452MOL0     H60992   8.233   3.343  -0.373  1.4684 -0.9302 -1.1872
  452MOL0     H60993   8.374   3.382  -0.459 -0.4697  1.4611  1.1303
  452MOL0     H60994   8.102   3.434  -0.574  0.3560 -2.2004 -0.2377
  452MOL0     H60995   8.252   3.475  -0.662 -2.8524  1.4660 -1.6280
  452MOL0     H60996   8.176   3.585  -0.395 -3.5796 -0.2272  0.0401
  452MOL0     H60997   8.319   3.617  -0.493 -0.8296  0.0085  1.6913
  452MOL0     H60998   8.021   3.677  -0.572  0.4522 -0.5986 -2.7030
  452MOL0     H60999   8.165   3.683  -0.668 -0.0121 -0.4750  0.4754
  452MOL0     H61000   8.261   3.862  -0.500 -0.4277  1.5659 -0.2020
  452MOL0     H61001   8.110   3.837  -0.406  2.1985  0.0200  0.8471
  452MOL0     H61002   8.133   2.838  -0.230 -2.0389 -0.5001  0.1426
  452MOL0     H61003   8.124   2.740  -0.020  1.3098 -0.7792  0.6811
  452MOL0     H61004   7.965   2.577   0.321  0.1330  2.2684 -0.6398
  452MOL0     H61005   7.900   2.525   0.572  0.3182 -1.2364  0.4203
  452MOL0     H61006   6.965   2.929   0.577 -1.5112  1.0505 -0.7751
  452MOL0     H61007   7.043   2.918   0.338 -1.0354  1.7681  0.2500
  452MOL0     H61008   7.324   2.889   0.033 -0.4016 -1.0801 -0.9833
  452MOL0     H61009   7.348   2.857  -0.213  0.9729  0.5881 -1.3005
  452MOL0     H61010   7.388   3.242  -0.421  1.1707 -0.1149  0.6619
  452MOL0     H61011   7.559   3.202  -0.412  2.0514 -2.0072 -1.4256
  452MOL0     H61012   7.483   3.232  -0.656  1.4343 -1.7204 -1.5342
  452MOL0     H61013   7.375   3.104  -0.628  0.6223  1.3022 -1.9469
  452MOL0     H61014   7.553   2.953  -0.646  0.2237 -1.6440  2.2342
  452MOL0     H61015   7.650   3.048  -0.533  0.5069 -1.9142 -0.8676
  452MOL0     H61016   7.630   3.111  -0.831 -1.3909 -0.6164  0.3096
  452MOL0     H61017   7.760   3.021  -0.772 -0.3266 -0.6260 -1.5065
  452MOL0     H61018   7.852   3.410  -0.632 -2.7459  1.8355 -0.1692
  452MOL0     H61019   7.469   3.270  -0.227  1.3877 -0.3319  0.6894
  452MOL0     H61020   7.433   3.293   0.017 -2.6344 -0.1316  0.0226
  453MOL0     O61021   0.528   9.957  10.466 -0.0394  0.3009 -0.4162
  453MOL0     C61022   0.579  10.048  10.403  0.5508  0.8072 -0.4338
  453MOL0     O61023   0.643  10.159  10.455 -0.1011  0.2706  0.2173
  453MOL0     C61024   0.625  10.206  10.581 -0.2230  0.8720 -0.4877
  453MOL0     C61025   0.710  10.310  10.627 -0.3521  0.6014  0.3207
  453MOL0     C61026   0.698  10.374  10.749  0.4606 -0.2571  0.4830
  453MOL0     C61027   0.606  10.315  10.845  0.6115 -1.3359 -0.3921
  453MOL0     O61028   0.572  10.369  10.966  0.0319 -1.2109 -0.7208
  453MOL0     C61029   0.612  10.501  11.012 -0.2945 -0.4478 -0.2440
  453MOL0     C61030   0.551  10.522  11.148  0.2435  1.2117 -0.3706
  453MOL0     C61031   0.397  10.519  11.146  0.6653 -0.1115 -0.2280
  453MOL0     C61032   0.352  10.606  11.263  0.2750 -0.1700 -0.3296
  453MOL0     C61033   0.193  10.629  11.276  0.1798 -0.1769 -0.1399
  453MOL0     C61034   0.101  10.528  11.345  0.6276 -0.3750  0.3459
  453MOL0     C61035   0.175  10.461  11.462 -0.0963  0.6510 -0.4499
  453MOL0     C61036   0.171  10.536  11.590 -1.1570 -0.2352 -0.6456
  453MOL0     N61037   0.257  10.487  11.698  0.5144  0.4848  0.3022
  453MOL0     C61038   0.328  10.564  11.786 -0.5365 -0.6379 -0.5449
  453MOL0     C61039   0.417  10.473  11.848  0.6478 -1.0122 -0.4099
  453MOL0     C61040   0.524  10.512  11.944  0.0023  0.6139 -0.8382
  453MOL0     C61041   0.514  10.443  12.080  0.0581 -0.3942  0.2724
  453MOL0     C61042   0.597  10.516  12.190 -0.8508  0.2680  0.2274
  453MOL0     C61043   0.736  10.479  12.192 -1.3114 -0.7524  0.3871
  453MOL0     O61044   0.807  10.510  12.076  0.1722 -0.3136  0.5289
  453MOL0     C61045   0.933  10.459  12.056 -0.2808  0.8284 -0.0534
  453MOL0     C61046   1.015  10.400  12.153  0.2990 -0.1920 -0.6040
  453MOL0     C61047   1.131  10.338  12.125  1.1759  0.3595  1.3212
  453MOL0     C61048   1.201  10.268  12.233  0.0623 -0.0687  0.6535
  453MOL0     C61049   1.176  10.335  11.987  0.0612 -0.5557  0.4571
  453MOL0     C61050   1.315  10.283  11.943  0.9371 -0.0100 -0.3307
  453MOL0     O61051   1.332  10.277  11.807 -0.1540  0.6156  1.4013
  453MOL0     C61052   1.461  10.236  11.769 -0.5845 -0.9434 -0.4186
  453MOL0     C61053   1.544  10.332  11.723 -0.8560 -0.3148  0.8532
  453MOL0     C61054   1.675  10.305  11.681 -0.4976 -0.0836 -0.0719
  453MOL0     C61055   1.721  10.174  11.662 -0.0397 -0.4249 -1.0960
  453MOL0     O61056   1.849  10.164  11.611 -0.2486 -0.1638  0.6477
  453MOL0     C61057   1.875  10.043  11.536 -0.1181 -0.9772 -0.0362
  453MOL0     C61058   2.030  10.039  11.524  0.0153 -0.4025  0.8060
  453MOL0     C61059   2.072   9.944  11.418  0.4550 -1.4050 -0.7785
  453MOL0     C61060   2.216   9.896  11.427  0.0289  1.2735  0.1854
  453MOL0     C61061   2.240   9.764  11.348 -0.4481 -0.8318  0.1077
  453MOL0     C61062   2.393   9.722  11.355 -0.2964 -0.1432  0.8524
  453MOL0     C61063   2.422   9.627  11.235 -0.1743  0.7638  0.7692
  453MOL0     C61064   2.566   9.571  11.252  1.2469  0.3507 -0.2680
  453MOL0    Cl61065   2.692   9.688  11.282 -0.0408 -0.3680 -0.1466
  453MOL0     C61066   1.641  10.071  11.708 -0.9048 -0.1962  0.7742
  453MOL0     C61067   1.516  10.104  11.768  0.1375  0.1580  0.0475
  453MOL0     O61068   1.399  10.263  12.035 -0.4496  0.3227 -0.4301
  453MOL0     C61069   1.094  10.398  11.885  0.0537  0.5871 -0.4311
  453MOL0     C61070   0.973  10.455  11.920 -0.1784 -0.1435  0.6921
  453MOL0     N61071   0.390  10.348  11.800  0.6118 -0.1422 -0.6136
  453MOL0     N61072   0.284  10.355  11.720 -0.5972  0.1435  0.2587
  453MOL0     C61073   0.524  10.213  10.805  0.3845  0.2372 -0.3201
  453MOL0     C61074   0.533  10.160  10.674  0.2067 -0.5072 -0.2655
  453MOL0     C61075   0.581  10.046  10.250 -0.0130 -0.0610  0.5085
  453MOL0     C61076   0.508   9.946  10.187 -0.8103 -0.3877  0.0580
  453MOL0     C61077   0.506   9.941  10.042 -0.3672  0.3031 -0.0458
  453MOL0     C61078   0.597  10.021   9.966 -0.6657 -0.4634 -0.1439
  453MOL0     O61079   0.629  10.024   9.825  0.3115 -0.0293 -0.3253
  453MOL0     C61080   0.542   9.957   9.731  0.5660 -1.4101  0.6248
  453MOL0     C61081   0.612   9.876   9.620  0.6531 -1.0039 -0.2651
  453MOL0     C61082   0.510   9.853   9.505 -0.7465  0.8243 -0.5154
  453MOL0     C61083   0.510   9.707   9.445 -0.3070  0.3687 -0.1248
  453MOL0     C61084   0.643   9.686   9.380 -0.4568  0.1640 -0.0249
  453MOL0     C61085   0.743   9.665   9.311  0.2805 -0.0150 -0.2673
  453MOL0     C61086   0.673  10.115  10.039  0.7068 -0.6166  0.4621
  453MOL0     C61087   0.669  10.124  10.172 -0.8227 -0.5198  0.2830
  453MOL0     H61088   0.791  10.348  10.565  0.4727 -1.4055  0.1081
  453MOL0     H61089   0.754  10.463  10.780 -2.2523  2.2744 -1.3490
  453MOL0     H61090   0.720  10.493  11.024 -0.0769  2.6733  0.7530
  453MOL0     H61091   0.586  10.585  10.947  0.1152  1.8323  2.3486
  453MOL0     H61092   0.592  10.442  11.210 -1.5636  0.9106  0.4739
  453MOL0     H61093   0.591  10.617  11.184  1.1830  0.4056  0.7946
  453MOL0     H61094   0.362  10.549  11.047 -1.8409 -1.6017  0.1094
  453MOL0     H61095   0.361  10.417  11.165  0.0740 -0.0057 -0.7642
  453MOL0     H61096   0.398  10.565  11.353  1.2764  0.5431 -0.5013
  453MOL0     H61097   0.395  10.706  11.253  1.3087 -0.2861  2.2106
  453MOL0     H61098   0.186  10.714  11.345  1.7973 -1.3964  1.6514
  453MOL0     H61099   0.157  10.647  11.175 -1.2868 -1.2019  0.1712
  453MOL0     H61100   0.009  10.575  11.380  1.5439  1.7870  0.0251
  453MOL0     H61101   0.075  10.458  11.265 -1.1979 -0.1214  0.6853
  453MOL0     H61102   0.128  10.363  11.478  0.0473  0.5281 -0.7902
  453MOL0     H61103   0.278  10.431  11.445 -0.4202 -1.2008  0.5315
  453MOL0     H61104   0.068  10.522  11.624 -1.5498  0.4475 -1.5139
  453MOL0     H61105   0.201  10.640  11.578  2.7189 -1.0557  0.6805
  453MOL0     H61106   0.331  10.669  11.814  3.0347 -0.5782 -0.7259
  453MOL0     H61107   0.617  10.486  11.894  0.2862  2.7064 -1.5158
  453MOL0     H61108   0.533  10.621  11.950  0.7236  0.5432 -0.5277
  453MOL0     H61109   0.550  10.340  12.074  0.3133 -0.2599 -0.5380
  453MOL0     H61110   0.408  10.434  12.107  0.1500 -2.8063  0.1151
  453MOL0     H61111   0.549  10.493  12.285  1.1858  0.8831  1.4790
  453MOL0     H61112   0.595  10.623  12.168  0.5295 -0.4184 -4.6580
  453MOL0     H61113   0.730  10.370  12.196 -2.8769 -0.7445 -0.9854
  453MOL0     H61114   0.795  10.516  12.277  0.8702 -0.4860 -1.1357
  453MOL0     H61115   1.001  10.400  12.261  2.1401 -1.7640 -0.3096
  453MOL0     H61116   1.124  10.248  12.307 -1.1019  1.9915  0.0842
  453MOL0     H61117   1.244  10.169  12.213  1.0895  0.2765  1.0550
  453MOL0     H61118   1.284  10.333  12.266 -1.1589  2.9685 -1.7254
  453MOL0     H61119   1.516  10.436  11.737  4.7608  1.3791  1.7752
  453MOL0     H61120   1.733  10.387  11.641 -0.4794 -0.8789 -1.7671
  453MOL0     H61121   1.835   9.948  11.570  1.7374 -1.7910  0.0005
  453MOL0     H61122   1.834  10.059  11.436 -1.6461  0.7047  0.8134
  453MOL0     H61123   2.070  10.140  11.509  2.1185 -0.9153  2.4821
  453MOL0     H61124   2.062  10.010  11.625 -2.5786 -2.2246  1.2139
  453MOL0     H61125   2.053   9.998  11.325 -0.2997  0.8054  0.6007
  453MOL0     H61126   2.007   9.856  11.424 -0.5656 -0.5678  1.1724
  453MOL0     H61127   2.287   9.972  11.394 -0.6382  1.5133 -0.7176
  453MOL0     H61128   2.226   9.866  11.532 -0.4535 -0.9451 -0.3558
  453MOL0     H61129   2.211   9.783  11.244  0.0258 -1.9966 -0.2582
  453MOL0     H61130   2.179   9.683  11.389 -0.0433  0.4337  3.4681
  453MOL0     H61131   2.448   9.812  11.325 -1.8487 -0.5124 -4.1226
  453MOL0     H61132   2.424   9.671  11.446 -0.3761 -0.7483  0.5400
  453MOL0     H61133   2.404   9.676  11.139 -2.7029 -4.0466 -1.5775
  453MOL0     H61134   2.352   9.543  11.229 -0.0636  0.7490 -0.7944
  453MOL0     H61135   2.579   9.507  11.164 -0.1605  1.4788 -1.3517
  453MOL0     H61136   2.579   9.506  11.339  1.8036 -1.7301 -1.8456
  453MOL0     H61137   1.657   9.964  11.704 -1.4898 -0.2705 -2.8141
  453MOL0     H61138   1.460  10.021  11.808  0.0572  0.4793  0.6140
  453MOL0     H61139   1.120  10.401  11.779 -1.2627  0.7245 -0.7719
  453MOL0     H61140   0.911  10.515  11.856  1.4923  1.2465  0.2895
  453MOL0     H61141   0.444  10.176  10.868  3.3733 -0.0730  3.6777
  453MOL0     H61142   0.460  10.084  10.648  0.2997 -0.4666 -0.6562
  453MOL0     H61143   0.448   9.880  10.248  0.2001  1.1994  2.9798
  453MOL0     H61144   0.444   9.865   9.996 -0.8089 -1.4009  3.0721
  453MOL0     H61145   0.485   9.886   9.792  0.1078 -0.2608  1.5667
  453MOL0     H61146   0.462  10.026   9.702  1.9534  0.1525  0.3340
  453MOL0     H61147   0.634   9.775   9.656  0.7426 -2.3449 -3.6954
  453MOL0     H61148   0.703   9.931   9.594 -0.8780  1.5348 -0.5440
  453MOL0     H61149   0.517   9.925   9.423  0.6257 -2.1517 -3.2561
  453MOL0     H61150   0.408   9.867   9.542 -0.7687 -0.4231 -0.0436
  453MOL0     H61151   0.435   9.699   9.366  2.3769 -1.2678 -2.7092
  453MOL0     H61152   0.488   9.630   9.519  0.6600  0.3142  0.1191
  453MOL0     H61153   0.835   9.666   9.255  1.8220  1.7284  2.0840
  453MOL0     H61154   0.730  10.182   9.974 -0.5054  0.1143  0.1198
  453MOL0     H61155   0.745  10.184  10.221  0.8621 -0.8423 -1.7809
  454MOL0     O61156   7.717   5.655   1.671 -0.3277  0.2803 -0.4990
  454MOL0     C61157   7.703   5.536   1.645  0.2775 -0.0732 -0.2498
  454MOL0     O61158   7.614   5.484   1.554  0.4149 -0.0133  1.0164
  454MOL0     C61159   7.557   5.584   1.480 -0.1533 -0.6563 -0.1181
  454MOL0     C61160   7.467   5.670   1.542  0.3483 -0.3958  0.2036
  454MOL0     C61161   7.394   5.759   1.466 -0.6038  0.1255 -0.8210
  454MOL0     C61162   7.411   5.768   1.333 -0.0571  0.3895  0.4557
  454MOL0     O61163   7.334   5.855   1.267 -0.4203 -0.3070  0.2219
  454MOL0     C61164   7.357   5.883   1.126 -0.8597  0.2967  0.3076
  454MOL0     C61165   7.236   5.975   1.097 -0.9913 -0.5351 -0.0028
  454MOL0     C61166   7.210   5.986   0.942 -1.1185 -1.2244  0.0549
  454MOL0     C61167   7.193   6.138   0.913 -0.7646 -0.5621  0.3187
  454MOL0     C61168   7.137   6.154   0.765 -0.0064 -0.0651 -1.1844
  454MOL0     C61169   7.221   6.097   0.648  0.7030 -0.2792 -0.5293
  454MOL0     C61170   7.163   6.122   0.512  0.2055 -0.2808  0.4692
  454MOL0     C61171   7.234   6.048   0.399 -0.3676 -0.8202  0.3405
  454MOL0     N61172   7.201   5.904   0.408  0.0038  0.3176  0.0502
  454MOL0     C61173   7.085   5.839   0.369 -0.4382 -0.1722 -0.0343
  454MOL0     C61174   7.105   5.712   0.383 -0.0185  0.2684 -0.3663
  454MOL0     C61175   7.001   5.613   0.346  0.0657  0.4556 -0.5736
  454MOL0     C61176   6.938   5.550   0.477  0.4689 -1.0028  0.8135
  454MOL0     C61177   6.837   5.449   0.438  0.2171 -0.3089 -0.6378
  454MOL0     C61178   6.800   5.354   0.548 -0.1083 -0.0660 -0.1585
  454MOL0     O61179   6.757   5.223   0.494 -0.3142 -0.3882 -0.1564
  454MOL0     C61180   6.645   5.216   0.424  1.1930 -0.4317 -0.7077
  454MOL0     C61181   6.528   5.277   0.464  0.6420 -0.3966  0.2752
  454MOL0     C61182   6.408   5.253   0.400  0.1251  0.0515 -0.6817
  454MOL0     C61183   6.300   5.351   0.436  0.5430 -1.1134  1.2358
  454MOL0     C61184   6.402   5.157   0.294 -0.2056  0.3542 -0.1842
  454MOL0     C61185   6.289   5.126   0.210 -1.0133 -0.1334  0.1240
  454MOL0     O61186   6.317   5.077   0.087  0.9725  0.0649  0.3735
  454MOL0     C61187   6.222   5.037  -0.009  0.4745 -1.4878  0.1328
  454MOL0     C61188   6.283   4.969  -0.115 -0.2599  0.3735  0.0339
  454MOL0     C61189   6.215   4.927  -0.233  0.1825 -0.6041  0.7484
  454MOL0     C61190   6.077   4.944  -0.236 -0.3110  0.1610  0.7678
  454MOL0     O61191   6.013   4.902  -0.354 -0.3714 -0.4877  0.1211
  454MOL0     C61192   5.900   4.981  -0.396  0.2192  0.1931 -0.8646
  454MOL0     C61193   5.886   4.985  -0.555  0.6825  0.6170  0.1162
  454MOL0     C61194   5.983   5.087  -0.606  0.8812  0.3577 -0.0442
  454MOL0     C61195   5.967   5.113  -0.753  0.2148  0.4050  0.2229
  454MOL0     C61196   6.068   5.225  -0.797  0.3237  0.6291  0.5904
  454MOL0     C61197   6.086   5.217  -0.953 -0.3710 -0.2726  0.5037
  454MOL0     C61198   6.203   5.321  -0.983 -0.4925 -0.2779  0.1766
  454MOL0     C61199   6.255   5.317  -1.131 -0.0118  0.8795 -1.0085
  454MOL0    Cl61200   6.109   5.348  -1.233  0.1298 -0.0276  0.0823
  454MOL0     C61201   6.015   5.000  -0.125 -0.1612  0.8105  0.4057
  454MOL0     C61202   6.084   5.036  -0.003 -0.3733  0.4438  0.1854
  454MOL0     O61203   6.178   5.167   0.251  0.7374  0.5865 -0.0557
  454MOL0     C61204   6.520   5.093   0.258  0.2586  0.7400  0.6451
  454MOL0     C61205   6.646   5.139   0.306  0.3246  0.5214 -0.4746
  454MOL0     N61206   7.235   5.694   0.415 -1.1229 -0.2874 -0.0489
  454MOL0     N61207   7.295   5.805   0.419  1.0300 -0.0027  0.0001
  454MOL0     C61208   7.506   5.684   1.271 -0.3021 -0.2504  0.0891
  454MOL0     C61209   7.567   5.584   1.343  0.2824  0.3971 -0.4789
  454MOL0     C61210   7.786   5.444   1.724 -0.6524  0.0044 -0.1559
  454MOL0     C61211   7.767   5.306   1.706 -1.1421  0.0079 -0.4316
  454MOL0     C61212   7.842   5.204   1.766  0.4984 -0.5269 -0.1410
  454MOL0     C61213   7.945   5.232   1.858  0.5883  0.7610  0.2144
  454MOL0     O61214   8.012   5.127   1.928 -0.6132  1.1117  0.5006
  454MOL0     C61215   8.120   5.162   2.019  0.4231 -0.4779  0.5063
  454MOL0     C61216   8.247   5.193   1.944  0.9786 -0.2419 -0.3337
  454MOL0     C61217   8.366   5.216   2.039  0.0315  0.8350  0.1277
  454MOL0     C61218   8.350   5.329   2.140 -0.5936 -0.3458 -0.3850
  454MOL0     C61219   8.352   5.452   2.055 -0.0734 -0.2432  0.0881
  454MOL0     C61220   8.357   5.554   1.996  0.2615 -0.3732  0.0611
  454MOL0     C61221   7.969   5.372   1.881  0.4004  0.1283  0.0748
  454MOL0     C61222   7.893   5.482   1.812 -0.1580  0.7209  0.0736
  454MOL0     H61223   7.438   5.676   1.646 -0.1717  0.7569  0.0022
  454MOL0     H61224   7.319   5.827   1.506 -0.1135  1.6612 -2.3787
  454MOL0     H61225   7.450   5.935   1.102  0.4491 -2.3756 -0.8638
  454MOL0     H61226   7.362   5.796   1.059  0.7474  0.8217 -0.2913
  454MOL0     H61227   7.144   5.927   1.133 -1.1564 -0.2549 -0.0443
  454MOL0     H61228   7.247   6.070   1.150  0.7200 -0.6454 -0.1071
  454MOL0     H61229   7.301   5.950   0.893  0.2172  2.1982 -0.2718
  454MOL0     H61230   7.126   5.923   0.913 -1.1445 -2.0803  1.8572
  454MOL0     H61231   7.125   6.191   0.980 -1.3303 -0.3707 -0.3831
  454MOL0     H61232   7.289   6.191   0.907 -0.4289 -1.3237 -2.5149
  454MOL0     H61233   7.045   6.096   0.776  1.5313 -2.1401  3.9484
  454MOL0     H61234   7.115   6.259   0.745 -1.9199  0.1640  1.4935
  454MOL0     H61235   7.320   6.144   0.652  1.1834 -1.3135  1.4016
  454MOL0     H61236   7.231   5.991   0.675  1.2714 -0.0185  0.3568
  454MOL0     H61237   7.060   6.087   0.523  0.3580 -0.7745  0.3286
  454MOL0     H61238   7.161   6.229   0.489  2.2323  0.2502  2.4369
  454MOL0     H61239   7.342   6.061   0.409  0.3161 -1.5556 -4.0219
  454MOL0     H61240   7.206   6.084   0.300 -0.9126 -1.3573  0.2942
  454MOL0     H61241   6.987   5.882   0.348 -0.2013  1.2578  1.5482
  454MOL0     H61242   6.923   5.666   0.291 -0.9180  0.6202  0.9050
  454MOL0     H61243   7.051   5.525   0.304  0.0285  0.0264  0.2560
  454MOL0     H61244   6.881   5.624   0.533  0.2246 -1.5608  1.3203
  454MOL0     H61245   7.012   5.501   0.540 -0.0986 -1.0987  1.4148
  454MOL0     H61246   6.864   5.393   0.349  3.3191 -0.5658  0.3488
  454MOL0     H61247   6.746   5.507   0.420 -0.6039 -1.9076 -1.7970
  454MOL0     H61248   6.729   5.408   0.611 -0.1974  1.0988 -1.2152
  454MOL0     H61249   6.887   5.329   0.610  0.4650  1.8980 -0.1088
  454MOL0     H61250   6.526   5.336   0.555  3.7474 -0.6509  0.5960
  454MOL0     H61251   6.321   5.403   0.529 -0.0015 -0.1488  0.8310
  454MOL0     H61252   6.287   5.415   0.348  3.5133 -0.0672  1.4569
  454MOL0     H61253   6.211   5.289   0.450 -1.6476  2.1519  3.0497
  454MOL0     H61254   6.388   4.946  -0.102  1.2985  6.2425  0.9927
  454MOL0     H61255   6.260   4.873  -0.316  1.3459  0.9608  0.3199
  454MOL0     H61256   5.806   4.937  -0.362 -0.4236  1.8657 -0.3891
  454MOL0     H61257   5.899   5.084  -0.359  3.5287 -0.3918  1.2641
  454MOL0     H61258   5.905   4.885  -0.595 -0.3966 -0.0421  1.1820
  454MOL0     H61259   5.781   5.003  -0.579  0.4862 -0.8141 -0.1559
  454MOL0     H61260   6.086   5.069  -0.572  0.5152  0.0935  0.9623
  454MOL0     H61261   5.952   5.176  -0.551 -7.4692 -0.3748 -2.2118
  454MOL0     H61262   5.980   5.017  -0.804 -3.8041 -0.2585  0.1191
  454MOL0     H61263   5.866   5.144  -0.781  0.1248 -0.8990 -1.0085
  454MOL0     H61264   6.162   5.218  -0.743  1.2723  3.4129 -0.4852
  454MOL0     H61265   6.024   5.321  -0.767  1.2905  0.5941  2.2472
  454MOL0     H61266   6.115   5.114  -0.977  2.6971  1.1807 -3.0433
  454MOL0     H61267   5.990   5.226  -1.005  1.2956  0.5118 -2.7350
  454MOL0     H61268   6.290   5.278  -0.934  0.3048  1.9583  0.8380
  454MOL0     H61269   6.184   5.422  -0.945 -0.9929  0.2351 -1.3632
  454MOL0     H61270   6.312   5.230  -1.165 -2.0213 -0.2996 -1.5004
  454MOL0     H61271   6.330   5.395  -1.149  0.0647  0.6199 -1.8619
  454MOL0     H61272   5.908   5.002  -0.110 -0.0732 -1.5520  1.8587
  454MOL0     H61273   6.037   5.077   0.086 -0.4305 -1.7223  1.2191
  454MOL0     H61274   6.519   5.009   0.189  0.5550  1.2307  0.0280
  454MOL0     H61275   6.738   5.087   0.284  0.2965  0.4029 -0.3184
  454MOL0     H61276   7.525   5.694   1.165 -2.5201  0.6193 -0.2752
  454MOL0     H61277   7.642   5.520   1.298  0.3476 -1.0307  1.5129
  454MOL0     H61278   7.710   5.264   1.624 -1.6141  0.3965 -0.3021
  454MOL0     H61279   7.818   5.109   1.719  0.8995 -1.5617  1.6476
  454MOL0     H61280   8.084   5.239   2.089 -3.3405 -0.0438 -1.6247
  454MOL0     H61281   8.150   5.075   2.078  0.6176  0.8397  2.4734
  454MOL0     H61282   8.232   5.281   1.880 -0.3658  0.4816  0.9121
  454MOL0     H61283   8.271   5.108   1.879  1.0858 -0.5201  0.0686
  454MOL0     H61284   8.456   5.225   1.977  0.4598 -3.3669 -0.1618
  454MOL0     H61285   8.375   5.124   2.097 -0.6214  0.2865 -0.6167
  454MOL0     H61286   8.429   5.339   2.214 -1.1213 -2.5606  0.5801
  454MOL0     H61287   8.254   5.310   2.190 -0.4028 -0.6189 -0.1241
  454MOL0     H61288   8.370   5.631   1.922 -2.5703 -1.7024 -2.0109
  454MOL0     H61289   8.033   5.406   1.962  0.8895 -0.4250 -0.0685
  454MOL0     H61290   7.913   5.587   1.827  2.1669  0.1716  1.2207
  455MOL0     O61291   4.711   3.388   2.073  0.1989 -0.3733  0.0980
  455MOL0     C61292   4.763   3.491   2.059  0.1777  0.5222  0.4172
  455MOL0     O61293   4.893   3.516   2.094 -0.7161 -0.1648  0.3353
  455MOL0     C61294   4.977   3.409   2.114  0.7489 -0.4663  0.7138
  455MOL0     C61295   4.963   3.317   2.213  0.3166  0.8322  0.6922
  455MOL0     C61296   5.063   3.211   2.222 -0.5162 -0.4991 -0.0417
  455MOL0     C61297   5.183   3.209   2.141  1.1720 -0.2071 -0.2015
  455MOL0     O61298   5.283   3.115   2.149  0.8952  0.3363 -0.1950
  455MOL0     C61299   5.288   3.020   2.251  0.5892  0.8296  0.1849
  455MOL0     C61300   5.393   2.905   2.225  0.8627  0.3864  0.1646
  455MOL0     C61301   5.348   2.807   2.117 -0.8958  0.2114  1.2610
  455MOL0     C61302   5.454   2.709   2.083  0.6393  0.8431 -0.4183
  455MOL0     C61303   5.411   2.596   1.990  0.5398  0.6006 -0.1566
  455MOL0     C61304   5.337   2.637   1.860  0.6574 -0.2254 -0.3369
  455MOL0     C61305   5.365   2.546   1.745 -0.3183  0.7378  0.4465
  455MOL0     C61306   5.286   2.588   1.624 -0.0849  0.9372 -0.8230
  455MOL0     N61307   5.366   2.644   1.518 -0.3249 -0.0730 -0.5643
  455MOL0     C61308   5.477   2.737   1.532  0.0299  0.1016 -0.8855
  455MOL0     C61309   5.482   2.784   1.403  0.0369  0.0901 -0.0910
  455MOL0     C61310   5.594   2.863   1.360  0.2505 -0.4802  0.8338
  455MOL0     C61311   5.673   2.768   1.276  0.1887  0.0259  0.4508
  455MOL0     C61312   5.808   2.831   1.232 -0.0999  0.1069 -0.3015
  455MOL0     C61313   5.916   2.733   1.271 -0.3784 -0.2594 -0.2610
  455MOL0     O61314   6.047   2.777   1.249  1.1570 -0.7577 -0.2701
  455MOL0     C61315   6.106   2.860   1.335  0.8169  0.3322 -0.4884
  455MOL0     C61316   6.068   2.911   1.461 -0.9079  0.1543 -1.1617
  455MOL0     C61317   6.139   3.003   1.541 -0.2878 -0.3829 -0.3089
  455MOL0     C61318   6.090   3.041   1.684  0.1663  0.4399 -0.0645
  455MOL0     C61319   6.263   3.036   1.490  0.8064  0.0274  0.4723
  455MOL0     C61320   6.345   3.137   1.559 -0.7759  1.4769  0.0991
  455MOL0     O61321   6.473   3.093   1.585 -0.4423 -0.0137  1.0388
  455MOL0     C61322   6.574   3.176   1.640  0.5516  0.1289 -0.6237
  455MOL0     C61323   6.697   3.119   1.638  0.6327  0.7144  0.1554
  455MOL0     C61324   6.810   3.186   1.666  1.1895  0.4104 -0.0332
  455MOL0     C61325   6.803   3.319   1.698 -0.5259 -1.1379  0.0026
  455MOL0     O61326   6.916   3.377   1.747  0.8844 -0.8159  0.5681
  455MOL0     C61327   7.015   3.403   1.649 -0.0695 -0.1489  0.0160
  455MOL0     C61328   7.152   3.417   1.702  0.6033 -0.1347  0.2040
  455MOL0     C61329   7.213   3.277   1.736  0.0458 -0.0831  0.5216
  455MOL0     C61330   7.321   3.247   1.627 -0.2273  0.0832  0.6778
  455MOL0     C61331   7.401   3.121   1.652 -0.9144 -0.3694  0.4960
  455MOL0     C61332   7.304   2.995   1.651  0.1085  0.9592 -0.3986
  455MOL0     C61333   7.324   2.920   1.786  0.8293 -0.6759  0.3534
  455MOL0     C61334   7.220   2.806   1.796 -0.4772  1.3402  1.0982
  455MOL0    Cl61335   7.267   2.664   1.690  0.3301 -0.3058 -0.1427
  455MOL0     C61336   6.677   3.381   1.710  0.1640 -0.1856  0.8493
  455MOL0     C61337   6.569   3.311   1.683  0.8882 -0.9520 -0.5573
  455MOL0     O61338   6.298   3.245   1.587 -0.5172 -0.5966 -1.1491
  455MOL0     C61339   6.307   2.989   1.362  0.3189 -0.5187 -0.7922
  455MOL0     C61340   6.228   2.904   1.281 -0.9228 -0.2917 -1.0712
  455MOL0     N61341   5.379   2.724   1.318 -0.2084 -0.1882 -0.4125
  455MOL0     N61342   5.315   2.638   1.390  0.3292 -0.8528  0.2976
  455MOL0     C61343   5.187   3.304   2.039  0.0308  0.5222 -0.3279
  455MOL0     C61344   5.088   3.397   2.026 -0.3811 -0.4082 -0.0271
  455MOL0     C61345   4.689   3.597   2.003 -0.5528 -0.4465  1.5623
  455MOL0     C61346   4.552   3.597   1.991  0.0608  0.3127  0.0841
  455MOL0     C61347   4.474   3.677   1.902 -0.1271  0.0147  0.3437
  455MOL0     C61348   4.539   3.777   1.828  0.0229 -0.1347 -0.2432
  455MOL0     O61349   4.465   3.871   1.756 -0.0644 -0.3888  0.2622
  455MOL0     C61350   4.341   3.817   1.694 -0.6314 -0.0725 -0.8796
  455MOL0     C61351   4.354   3.856   1.546  0.1588  0.3345  0.4035
  455MOL0     C61352   4.353   4.020   1.548 -0.2250  0.3302 -0.0073
  455MOL0     C61353   4.329   4.064   1.405  0.5310 -0.2896 -0.0236
  455MOL0     C61354   4.330   4.214   1.388  0.6882  0.4223  0.6805
  455MOL0     C61355   4.355   4.331   1.371  0.4513  0.1623 -0.1833
  455MOL0     C61356   4.678   3.786   1.833 -0.5446 -0.7992 -0.1465
  455MOL0     C61357   4.746   3.705   1.923 -0.1189 -0.2060 -0.4919
  455MOL0     H61358   4.874   3.334   2.271 -1.0068  1.4653 -1.4294
  455MOL0     H61359   5.054   3.156   2.315 -0.0366 -2.6956 -1.2248
  455MOL0     H61360   5.316   3.063   2.347  2.4823 -1.5758  0.8165
  455MOL0     H61361   5.185   2.981   2.255  0.8075  0.2544  0.2842
  455MOL0     H61362   5.483   2.959   2.194 -0.2095  1.6598 -0.8082
  455MOL0     H61363   5.420   2.846   2.314  1.0974  2.2115  1.3579
  455MOL0     H61364   5.273   2.747   2.170  1.6726 -3.6502  0.9673
  455MOL0     H61365   5.302   2.863   2.035  0.3174 -1.0661 -0.3644
  455MOL0     H61366   5.526   2.754   2.014 -0.3582 -0.3717 -2.3547
  455MOL0     H61367   5.511   2.667   2.166 -0.7286 -0.0743  0.0980
  455MOL0     H61368   5.498   2.537   1.958  1.2477  1.0369  0.9012
  455MOL0     H61369   5.352   2.528   2.053  0.3671  0.9819  0.0951
  455MOL0     H61370   5.228   2.635   1.873  0.6880  1.0907  0.3241
  455MOL0     H61371   5.379   2.730   1.819 -1.1742  0.0303 -1.7723
  455MOL0     H61372   5.472   2.559   1.725  0.1448 -0.4015  1.9893
  455MOL0     H61373   5.346   2.443   1.776  1.5115 -1.1261 -3.8339
  455MOL0     H61374   5.201   2.655   1.638 -0.0731  0.6983  0.5955
  455MOL0     H61375   5.241   2.492   1.597  1.1566 -0.3091  1.2340
  455MOL0     H61376   5.540   2.761   1.617 -0.3485 -1.1652 -0.2277
  455MOL0     H61377   5.573   2.956   1.305  4.4540  0.9408  1.2553
  455MOL0     H61378   5.655   2.890   1.447  2.1227  2.8110 -1.2823
  455MOL0     H61379   5.620   2.736   1.186  1.1059  3.2274 -1.3697
  455MOL0     H61380   5.688   2.683   1.344 -0.5114 -0.6662 -0.2511
  455MOL0     H61381   5.826   2.914   1.301 -1.9997 -0.9521  1.5755
  455MOL0     H61382   5.813   2.861   1.127 -1.2993 -0.4159 -0.5244
  455MOL0     H61383   5.896   2.651   1.201 -0.6919  1.3706 -2.1726
  455MOL0     H61384   5.908   2.708   1.377  0.9875  0.4057  0.0247
  455MOL0     H61385   5.978   2.873   1.509 -0.0060 -1.0097 -0.3574
  455MOL0     H61386   6.041   2.957   1.733 -0.0283  0.2558 -0.5696
  455MOL0     H61387   6.179   3.053   1.746  0.4116 -0.8714 -0.1214
  455MOL0     H61388   6.025   3.128   1.682 -1.6940 -0.8452  1.0232
  455MOL0     H61389   6.719   3.017   1.609  2.3935  0.8451  0.9343
  455MOL0     H61390   6.903   3.131   1.669  1.3819  0.6993 -0.5577
  455MOL0     H61391   7.008   3.335   1.563 -2.9235  2.7864 -2.3981
  455MOL0     H61392   6.994   3.503   1.608  1.8252  1.3276  2.4071
  455MOL0     H61393   7.202   3.477   1.626 -0.1371  0.5653  0.2579
  455MOL0     H61394   7.153   3.476   1.794 -0.5116 -3.6680  2.6887
  455MOL0     H61395   7.133   3.203   1.736 -2.5239  2.5089  0.7589
  455MOL0     H61396   7.254   3.278   1.838  0.7772 -0.9660  0.2475
  455MOL0     H61397   7.278   3.236   1.527  2.8041 -1.2568 -0.5983
  455MOL0     H61398   7.390   3.332   1.617 -2.1541  1.5373 -1.2563
  455MOL0     H61399   7.462   3.128   1.743  0.7859  0.9350 -0.6893
  455MOL0     H61400   7.479   3.111   1.576 -0.4203  1.9310  0.6410
  455MOL0     H61401   7.201   3.031   1.650 -0.6323 -1.0358  0.2630
  455MOL0     H61402   7.321   2.930   1.565  1.4095 -0.7175  1.0371
  455MOL0     H61403   7.303   2.997   1.861  0.9351  1.0940 -1.3646
  455MOL0     H61404   7.422   2.874   1.801  1.9581  1.2528 -0.7556
  455MOL0     H61405   7.120   2.833   1.759 -0.3205  0.2168 -0.2164
  455MOL0     H61406   7.208   2.772   1.899 -4.4423 -0.2659  0.2955
  455MOL0     H61407   6.661   3.477   1.758  1.8188  1.2252 -1.2515
  455MOL0     H61408   6.471   3.359   1.691  0.4944 -2.0213  2.4471
  455MOL0     H61409   6.402   3.025   1.324  2.2568 -2.3104  1.9604
  455MOL0     H61410   6.263   2.874   1.182  1.6934  3.0533 -1.3778
  455MOL0     H61411   5.272   3.297   1.973  1.9742  0.4053  2.0341
  455MOL0     H61412   5.075   3.467   1.945 -0.2770  0.6154  0.8171
  455MOL0     H61413   4.502   3.519   2.049 -0.7015  0.8164  0.1133
  455MOL0     H61414   4.366   3.668   1.903 -0.2962  1.7630 -0.1074
  455MOL0     H61415   4.333   3.708   1.703  0.1007 -0.0249  0.9617
  455MOL0     H61416   4.248   3.855   1.738  0.7620  1.8628  0.6376
  455MOL0     H61417   4.269   3.819   1.487  2.0673  1.0609 -3.1106
  455MOL0     H61418   4.447   3.814   1.507  0.0748 -1.7971  2.3043
  455MOL0     H61419   4.449   4.067   1.573 -0.8843  4.2739 -3.7105
  455MOL0     H61420   4.276   4.051   1.618 -1.4068 -0.9198 -0.7105
  455MOL0     H61421   4.234   4.026   1.368  0.5182  0.7360 -1.0687
  455MOL0     H61422   4.413   4.030   1.343  1.1881  1.5013 -0.1703
  455MOL0     H61423   4.379   4.435   1.365  0.2818  0.2182  0.1011
  455MOL0     H61424   4.726   3.861   1.771 -1.5789 -0.9344 -1.1360
  455MOL0     H61425   4.849   3.722   1.896 -1.0066  2.8449 -2.4649
  456MOL0     O61426   9.192   2.162   3.146 -0.3265 -0.1556  0.5549
  456MOL0     C61427   9.299   2.121   3.192 -0.6981  1.3159 -0.1787
  456MOL0     O61428   9.327   2.078   3.320 -0.4502 -0.0805 -0.5536
  456MOL0     C61429   9.232   2.107   3.405  0.7292 -0.0461 -0.2180
  456MOL0     C61430   9.122   2.022   3.436  1.0611  0.5117 -0.5903
  456MOL0     C61431   9.031   2.058   3.537 -0.3802  0.5456 -0.3251
  456MOL0     C61432   9.047   2.175   3.615 -0.6880 -0.0642  0.2681
  456MOL0     O61433   8.962   2.215   3.714  0.0367  0.3232 -0.0649
  456MOL0     C61434   8.855   2.137   3.773 -0.8006  0.3587 -0.1109
  456MOL0     C61435   8.825   2.174   3.909 -0.1655  0.4087  0.1109
  456MOL0     C61436   8.702   2.111   3.979  0.5298  0.4988  0.0529
  456MOL0     C61437   8.701   2.149   4.128 -1.2612  0.3257  0.5894
  456MOL0     C61438   8.582   2.081   4.204  0.3692  0.3435 -0.4367
  456MOL0     C61439   8.594   2.126   4.344  0.1634  0.0954 -0.2695
  456MOL0     C61440   8.464   2.088   4.427 -0.0390 -0.7587  0.8765
  456MOL0     C61441   8.484   2.134   4.578  0.0108 -1.0393 -0.8030
  456MOL0     N61442   8.593   2.058   4.650  0.6413 -0.5277 -0.0730
  456MOL0     C61443   8.710   2.117   4.701  0.4514  0.2298 -0.4148
  456MOL0     C61444   8.777   2.018   4.763 -0.5018  1.0665 -0.4989
  456MOL0     C61445   8.905   2.030   4.844 -0.0303 -0.1803 -0.4218
  456MOL0     C61446   9.018   1.948   4.801 -0.6471 -0.1953  0.5358
  456MOL0     C61447   9.131   1.989   4.908 -0.8676 -0.0780  0.3980
  456MOL0     C61448   9.202   2.123   4.889 -0.3326  0.0634  0.9609
  456MOL0     O61449   9.291   2.099   4.772  0.2393  0.0137 -0.7948
  456MOL0     C61450   9.344   2.207   4.716 -1.3491 -0.0203  0.3583
  456MOL0     C61451   9.405   2.195   4.588  0.4916 -0.6469  0.4996
  456MOL0     C61452   9.474   2.291   4.524 -1.0714  0.0132  0.2622
  456MOL0     C61453   9.546   2.260   4.391 -0.5509 -1.3191 -0.4291
  456MOL0     C61454   9.496   2.420   4.589  0.6357 -0.6995 -0.1031
  456MOL0     C61455   9.593   2.523   4.534  0.4210  0.3673  0.5495
  456MOL0     O61456   9.611   2.537   4.400  0.1566  0.3205  0.5210
  456MOL0     C61457   9.698   2.628   4.348 -0.4489  0.0908 -0.3547
  456MOL0     C61458   9.661   2.660   4.221 -1.1123  0.6095 -0.6473
  456MOL0     C61459   9.724   2.765   4.159  0.3106 -0.1227  0.4973
  456MOL0     C61460   9.843   2.823   4.205 -1.0700  0.1420 -0.0629
  456MOL0     O61461   9.919   2.912   4.128  0.5912  0.1186  0.4409
  456MOL0     C61462  10.027   2.990   4.183  0.2321 -0.1180  0.3982
  456MOL0     C61463  10.082   3.086   4.077 -0.2955  0.0567  0.6900
  456MOL0     C61464  10.161   3.021   3.967 -0.2999  0.0242  0.6140
  456MOL0     C61465  10.273   2.915   4.011 -0.8484 -0.1414  0.3593
  456MOL0     C61466  10.376   2.972   4.120 -0.8253  0.3322 -0.5307
  456MOL0     C61467  10.469   2.867   4.187  0.2643 -0.0959  0.6234
  456MOL0     C61468  10.410   2.797   4.310 -0.0556 -0.0212 -0.7057
  456MOL0     C61469  10.428   2.645   4.315  0.6356  0.6985 -0.0424
  456MOL0    Cl61470  10.328   2.556   4.439  0.2476 -0.0675  0.1628
  456MOL0     C61471   9.892   2.770   4.323  0.4376  0.4417 -0.4719
  456MOL0     C61472   9.817   2.675   4.401 -0.8220 -0.3166  0.5170
  456MOL0     O61473   9.660   2.582   4.620  0.4033  0.1824 -0.5793
  456MOL0     C61474   9.440   2.432   4.721  0.3422 -0.3025  0.0615
  456MOL0     C61475   9.366   2.329   4.782 -1.2101 -0.3018 -0.2591
  456MOL0     N61476   8.700   1.904   4.753  0.7137  0.8311 -0.1660
  456MOL0     N61477   8.591   1.927   4.693 -0.8194 -0.8411  0.7057
  456MOL0     C61478   9.156   2.262   3.581  0.2541  0.1670 -0.7958
  456MOL0     C61479   9.239   2.225   3.472 -0.2482  0.2389  0.3916
  456MOL0     C61480   9.410   2.099   3.097 -0.9586  0.6394 -1.7482
  456MOL0     C61481   9.407   2.142   2.966  0.4351  1.0649  0.0644
  456MOL0     C61482   9.535   2.135   2.891  0.2666 -0.3749 -0.2734
  456MOL0     C61483   9.655   2.076   2.939 -0.6472  0.0568  0.5981
  456MOL0     O61484   9.772   2.090   2.867 -1.0114  1.0640  0.5441
  456MOL0     C61485   9.884   2.149   2.937 -0.3190 -0.3060  0.5850
  456MOL0     C61486  10.019   2.147   2.864 -0.5854 -1.1251  1.8180
  456MOL0     C61487   9.996   2.193   2.715 -0.9854  0.0364 -0.1235
  456MOL0     C61488  10.015   2.083   2.606 -0.2359  1.1686 -0.1066
  456MOL0     C61489  10.153   2.064   2.559  0.4976 -0.8863  1.0984
  456MOL0     C61490  10.267   2.030   2.524 -0.1764 -0.4539  0.3636
  456MOL0     C61491   9.650   2.029   3.075 -1.1157  0.0803  0.6323
  456MOL0     C61492   9.532   2.043   3.153  0.4884  0.4844 -0.3971
  456MOL0     H61493   9.118   1.928   3.382 -1.6134 -0.3197  0.8876
  456MOL0     H61494   8.946   1.996   3.563 -0.6389  0.4967 -1.2492
  456MOL0     H61495   8.768   2.150   3.708 -1.6219  2.1659  1.2937
  456MOL0     H61496   8.886   2.032   3.763 -2.4850  0.0618 -4.7711
  456MOL0     H61497   8.908   2.135   3.970  0.8869  1.8392 -0.3604
  456MOL0     H61498   8.812   2.282   3.911  0.3454  0.4803  2.2194
  456MOL0     H61499   8.603   2.144   3.948  0.4124 -0.6728 -0.8908
  456MOL0     H61500   8.689   2.006   3.952 -0.3101  0.7257 -0.4471
  456MOL0     H61501   8.795   2.113   4.170 -0.8095  3.0044  2.1324
  456MOL0     H61502   8.692   2.257   4.143  2.5550  0.4903  3.2708
  456MOL0     H61503   8.486   2.120   4.169 -0.7634  2.5214  4.3619
  456MOL0     H61504   8.600   1.976   4.178  2.5075  0.6890 -0.5661
  456MOL0     H61505   8.681   2.077   4.389  0.4371  0.1906 -0.6856
  456MOL0     H61506   8.625   2.231   4.347  5.5978 -1.2110  0.0619
  456MOL0     H61507   8.379   2.137   4.379  1.4098  0.2252 -0.8243
  456MOL0     H61508   8.463   1.979   4.421  1.1605 -0.6893 -1.8344
  456MOL0     H61509   8.390   2.137   4.633  1.8994 -2.6908  2.8669
  456MOL0     H61510   8.514   2.239   4.567 -0.9835 -0.6216  0.2922
  456MOL0     H61511   8.747   2.219   4.698 -1.2963  0.9088 -3.8895
  456MOL0     H61512   8.939   2.133   4.835  1.9134 -0.5676  1.5177
  456MOL0     H61513   8.892   2.017   4.952  1.5158  1.9631  0.0968
  456MOL0     H61514   9.047   1.979   4.700 -0.6495 -2.7606 -0.3186
  456MOL0     H61515   9.002   1.840   4.800  3.0711 -0.9037 -1.3477
  456MOL0     H61516   9.198   1.906   4.884 -0.8555 -0.4275  1.5855
  456MOL0     H61517   9.108   1.983   5.014  0.5494 -1.0603  0.6786
  456MOL0     H61518   9.267   2.149   4.973 -1.2051  1.0312  1.3561
  456MOL0     H61519   9.129   2.201   4.869 -1.9256 -1.4297  0.7406
  456MOL0     H61520   9.378   2.097   4.550  1.5175 -1.2733  1.3095
  456MOL0     H61521   9.510   2.331   4.315 -1.2431 -1.8958 -0.6531
  456MOL0     H61522   9.654   2.263   4.406 -0.5495 -1.8486 -0.3202
  456MOL0     H61523   9.525   2.155   4.372 -1.2060 -1.2853  0.0857
  456MOL0     H61524   9.575   2.608   4.180 -0.1216 -1.4127 -0.3105
  456MOL0     H61525   9.678   2.809   4.071  1.3280 -1.1571 -0.5740
  456MOL0     H61526   9.999   3.042   4.274 -2.0706  0.8290 -0.7641
  456MOL0     H61527  10.106   2.924   4.218  0.3643 -0.3306 -0.2863
  456MOL0     H61528   9.994   3.136   4.037  0.7284  2.5823  1.3921
  456MOL0     H61529  10.151   3.153   4.130  0.0533  0.4151 -0.2088
  456MOL0     H61530  10.227   3.094   3.918  0.9516 -1.4428  0.0304
  456MOL0     H61531  10.101   2.979   3.886  0.7940  0.3700 -0.3974
  456MOL0     H61532  10.222   2.827   4.051  0.6451 -0.6589  1.2185
  456MOL0     H61533  10.336   2.895   3.924  1.0899  0.8186  1.4676
  456MOL0     H61534  10.329   3.044   4.187  1.2518  1.5853 -0.3188
  456MOL0     H61535  10.445   3.034   4.062 -3.7391  2.7055 -1.7279
  456MOL0     H61536  10.494   2.791   4.113  0.7523 -0.6539  1.3489
  456MOL0     H61537  10.564   2.918   4.206  0.7384 -0.5474 -0.4510
  456MOL0     H61538  10.301   2.805   4.303  0.0328  0.4415 -1.6816
  456MOL0     H61539  10.450   2.832   4.406 -3.0748 -1.6227  1.2912
  456MOL0     H61540  10.535   2.627   4.321  1.2247  1.4779 -4.7424
  456MOL0     H61541  10.392   2.609   4.218 -1.6798  1.3046  0.5218
  456MOL0     H61542   9.988   2.805   4.362  1.2728 -2.2824  0.1447
  456MOL0     H61543   9.852   2.652   4.501 -0.5421 -1.7589  0.0986
  456MOL0     H61544   9.451   2.529   4.768  0.0414  1.2248 -2.7696
  456MOL0     H61545   9.342   2.363   4.883  1.5368  0.4680  0.2337
  456MOL0     H61546   9.169   2.358   3.630  2.2242 -0.7978  0.7245
  456MOL0     H61547   9.325   2.288   3.449 -0.2019  0.9268  2.2743
  456MOL0     H61548   9.327   2.202   2.925  0.9462  2.4888  1.0748
  456MOL0     H61549   9.540   2.193   2.800  1.1741 -2.6042 -1.7222
  456MOL0     H61550   9.862   2.249   2.977  0.9118  0.4021 -0.4257
  456MOL0     H61551   9.898   2.099   3.033  1.2320 -0.4074  0.3296
  456MOL0     H61552  10.060   2.045   2.864 -0.7357 -1.2428 -0.3872
  456MOL0     H61553  10.080   2.225   2.910  0.1143 -1.1338  0.9497
  456MOL0     H61554  10.062   2.277   2.691  0.5080 -0.5781  1.5459
  456MOL0     H61555   9.899   2.242   2.705 -0.8008  0.0255 -2.8366
  456MOL0     H61556   9.948   2.115   2.525 -0.9805 -0.8072 -0.3241
  456MOL0     H61557   9.970   1.989   2.639  2.2046 -0.7225 -1.8068
  456MOL0     H61558  10.372   2.018   2.505  0.8738  3.5487  2.2823
  456MOL0     H61559   9.731   1.968   3.114 -0.9097 -1.5066 -2.0031
  456MOL0     H61560   9.541   2.005   3.254  4.6059  2.2274  0.1064
  457MOL0     O61561   1.983   4.857   2.796 -0.9867 -0.0421 -0.6097
  457MOL0     C61562   1.929   4.915   2.702 -0.5428 -0.7299 -0.6952
  457MOL0     O61563   1.990   5.002   2.618 -0.0228 -0.6310 -0.2299
  457MOL0     C61564   2.113   5.042   2.654 -0.2463  0.2479  0.0324
  457MOL0     C61565   2.156   5.120   2.771  0.5669 -0.1258  1.2476
  457MOL0     C61566   2.287   5.158   2.787  0.4392  0.5802  0.2403
  457MOL0     C61567   2.384   5.111   2.692  0.3168 -0.6497  0.2517
  457MOL0     O61568   2.522   5.125   2.710 -0.5107  0.2477 -0.4869
  457MOL0     C61569   2.574   5.237   2.640 -0.1802  1.1796 -0.3946
  457MOL0     C61570   2.711   5.268   2.695  0.2033  0.1616  1.1188
  457MOL0     C61571   2.817   5.154   2.713 -0.3777 -0.2215 -0.7777
  457MOL0     C61572   2.864   5.159   2.856  0.2704 -0.1274 -1.2928
  457MOL0     C61573   2.961   5.274   2.896 -0.0313  0.5868 -0.0387
  457MOL0     C61574   3.107   5.250   2.865 -0.6135 -0.1022  0.6287
  457MOL0     C61575   3.188   5.375   2.881 -0.7145 -0.2405 -0.3861
  457MOL0     C61576   3.336   5.365   2.838  0.1883 -0.6614 -0.1408
  457MOL0     N61577   3.362   5.417   2.703  0.6364  0.3437 -0.5797
  457MOL0     C61578   3.446   5.359   2.611  0.0684 -0.6646 -0.2415
  457MOL0     C61579   3.418   5.419   2.494  0.2927 -0.9669 -0.0230
  457MOL0     C61580   3.470   5.391   2.357  0.2891 -1.5190 -0.0960
  457MOL0     C61581   3.605   5.461   2.326 -0.3326  0.9905  0.5401
  457MOL0     C61582   3.642   5.430   2.183  0.6622 -0.1162 -0.7890
  457MOL0     C61583   3.764   5.502   2.132 -0.6216  1.0728  0.3887
  457MOL0     O61584   3.790   5.472   1.990 -0.2127 -0.3431  0.0543
  457MOL0     C61585   3.686   5.495   1.888 -0.0144  0.5642 -0.2630
  457MOL0     C61586   3.568   5.564   1.885  0.2876  0.5207 -0.1851
  457MOL0     C61587   3.485   5.564   1.771  0.0624  0.1063  0.2127
  457MOL0     C61588   3.352   5.618   1.774 -0.3371  0.5116 -0.5143
  457MOL0     C61589   3.537   5.511   1.653  0.5782  0.3763  0.3077
  457MOL0     C61590   3.465   5.517   1.516  0.0392 -0.0397 -0.3298
  457MOL0     O61591   3.555   5.491   1.416  0.5503  0.6094  0.1828
  457MOL0     C61592   3.515   5.521   1.286  0.5967 -0.3627 -0.5372
  457MOL0     C61593   3.460   5.648   1.253  0.0002 -0.4066 -0.3302
  457MOL0     C61594   3.422   5.672   1.123 -0.0239  0.2826  0.3882
  457MOL0     C61595   3.429   5.570   1.025  0.2391  0.1885  0.9559
  457MOL0     O61596   3.381   5.574   0.899 -1.1013 -0.4313  0.4413
  457MOL0     C61597   3.261   5.657   0.876 -0.4719  0.0240  0.4573
  457MOL0     C61598   3.214   5.619   0.736 -0.0301  0.0887 -0.1361
  457MOL0     C61599   3.208   5.468   0.693 -1.0809  0.0466  0.6384
  457MOL0     C61600   3.137   5.458   0.554  0.5984  0.1630  0.1716
  457MOL0     C61601   3.139   5.321   0.507 -0.9663  0.6165  0.7935
  457MOL0     C61602   3.135   5.304   0.350 -0.0653 -0.6919 -0.7693
  457MOL0     C61603   3.204   5.188   0.304  0.5647  0.6565  0.7405
  457MOL0     C61604   3.160   5.180   0.152  0.0662 -0.2902  0.0791
  457MOL0    Cl61605   3.246   5.058   0.055 -0.4260  0.0739  0.3534
  457MOL0     C61606   3.483   5.449   1.056  0.4727 -0.3668  0.7834
  457MOL0     C61607   3.534   5.425   1.186 -0.1179 -0.1153 -0.8420
  457MOL0     O61608   3.348   5.529   1.497  0.8264 -0.3539 -0.2122
  457MOL0     C61609   3.662   5.447   1.648  0.1146  0.3997  0.1959
  457MOL0     C61610   3.731   5.437   1.771 -0.0609  0.0014  0.1814
  457MOL0     N61611   3.321   5.508   2.509 -0.5032 -0.0492  0.7565
  457MOL0     N61612   3.289   5.502   2.637  0.2038 -0.1495 -0.4147
  457MOL0     C61613   2.342   5.053   2.572 -0.5494  0.5255 -0.9766
  457MOL0     C61614   2.207   5.014   2.558 -0.1217 -0.0051  0.7587
  457MOL0     C61615   1.792   4.883   2.670  0.8501 -0.3145 -0.7076
  457MOL0     C61616   1.725   4.786   2.752  0.5955 -0.8877  0.7115
  457MOL0     C61617   1.593   4.752   2.723  0.1865  0.4003 -0.0266
  457MOL0     C61618   1.522   4.805   2.616 -0.6810 -0.4759  0.0163
  457MOL0     O61619   1.391   4.786   2.590 -0.4244 -0.7114  0.2867
  457MOL0     C61620   1.311   4.704   2.675  0.7124  0.2568 -1.0744
  457MOL0     C61621   1.158   4.723   2.643 -1.3104 -0.5811 -0.2020
  457MOL0     C61622   1.134   4.669   2.506 -1.0643 -0.2882  0.3615
  457MOL0     C61623   1.088   4.521   2.518  0.7982  0.1632  0.2968
  457MOL0     C61624   0.946   4.507   2.558 -0.0608  0.1662 -0.1553
  457MOL0     C61625   0.825   4.487   2.546  0.7987  0.4433 -0.4241
  457MOL0     C61626   1.590   4.892   2.531  0.8476  0.0044 -0.2574
  457MOL0     C61627   1.717   4.938   2.564  0.2327  1.1541  0.1686
  457MOL0     H61628   2.081   5.152   2.843  0.1029 -2.8221  2.0710
  457MOL0     H61629   2.313   5.228   2.866 -2.6705 -1.1652  3.0804
  457MOL0     H61630   2.574   5.232   2.531  0.8860  0.8588 -0.3964
  457MOL0     H61631   2.511   5.319   2.676  0.4491  0.9989  1.2298
  457MOL0     H61632   2.750   5.339   2.621  0.0146 -1.2019 -0.3583
  457MOL0     H61633   2.695   5.325   2.786  3.0264  0.3534  1.5934
  457MOL0     H61634   2.784   5.055   2.682  3.3712 -1.4084 -1.4274
  457MOL0     H61635   2.904   5.176   2.650 -1.9366 -2.0005 -3.7966
  457MOL0     H61636   2.780   5.167   2.926  0.7327  0.0478 -0.7546
  457MOL0     H61637   2.912   5.063   2.877  0.3952  0.5374  1.9936
  457MOL0     H61638   2.941   5.369   2.845 -0.2735  1.8822  2.3055
  457MOL0     H61639   2.937   5.293   3.001  0.2005  0.1519  0.0971
  457MOL0     H61640   3.161   5.174   2.922  0.7101  0.8756  0.7159
  457MOL0     H61641   3.105   5.229   2.758 -1.0587 -0.1950  0.6498
  457MOL0     H61642   3.135   5.455   2.828  0.8024 -0.5313 -2.4968
  457MOL0     H61643   3.191   5.394   2.988 -0.4921 -2.4555  0.0359
  457MOL0     H61644   3.360   5.258   2.844 -4.0146 -1.6995  1.7193
  457MOL0     H61645   3.398   5.404   2.919 -1.2345 -1.8304  1.5970
  457MOL0     H61646   3.528   5.294   2.637  1.1195  1.1504  1.1864
  457MOL0     H61647   3.487   5.283   2.351 -0.0024 -1.5965  0.4754
  457MOL0     H61648   3.391   5.412   2.284  1.4842 -1.2047 -1.3597
  457MOL0     H61649   3.680   5.408   2.386 -0.7602  1.6460  1.7040
  457MOL0     H61650   3.604   5.564   2.363  0.1028  0.6545  1.5454
  457MOL0     H61651   3.548   5.451   2.130 -0.4584 -0.2853  1.0564
  457MOL0     H61652   3.670   5.324   2.179  0.9022 -0.1796  1.3600
  457MOL0     H61653   3.857   5.480   2.185  0.7412 -1.8328 -2.7857
  457MOL0     H61654   3.735   5.607   2.144 -5.9267  0.0303 -1.0171
  457MOL0     H61655   3.531   5.600   1.981  1.4415 -0.5931  0.7249
  457MOL0     H61656   3.279   5.562   1.714  0.5687 -0.1488 -1.0182
  457MOL0     H61657   3.318   5.626   1.878 -3.2431  1.5193 -1.4315
  457MOL0     H61658   3.340   5.721   1.739  1.8717  1.5798  1.6163
  457MOL0     H61659   3.444   5.723   1.329 -1.4316 -0.0131 -0.9918
  457MOL0     H61660   3.373   5.768   1.108 -2.7786 -1.0495  0.1588
  457MOL0     H61661   3.183   5.631   0.949 -2.7496  0.6405 -1.6012
  457MOL0     H61662   3.280   5.764   0.868  0.7814 -0.3149 -2.4837
  457MOL0     H61663   3.113   5.655   0.714 -2.2827 -3.7154  2.8700
  457MOL0     H61664   3.286   5.662   0.664  1.3798 -2.2032 -0.2055
  457MOL0     H61665   3.178   5.399   0.773  2.9068 -3.2517 -0.3405
  457MOL0     H61666   3.310   5.429   0.682 -0.7094  1.1246  0.1752
  457MOL0     H61667   3.030   5.479   0.552 -0.0223 -2.7083 -0.5806
  457MOL0     H61668   3.185   5.526   0.483 -0.0706  0.4471 -0.0216
  457MOL0     H61669   3.059   5.266   0.557  0.2385  2.2383  4.9106
  457MOL0     H61670   3.229   5.267   0.540 -0.0267 -0.0010 -2.3839
  457MOL0     H61671   3.035   5.319   0.310  0.6413  1.7845 -1.8194
  457MOL0     H61672   3.196   5.385   0.308  1.3138 -0.0593  2.1743
  457MOL0     H61673   3.160   5.095   0.342  0.6986  0.6032  0.7645
  457MOL0     H61674   3.312   5.203   0.314  0.2541  2.6492  1.4085
  457MOL0     H61675   3.175   5.284   0.121  1.4812  0.6449  3.4352
  457MOL0     H61676   3.051   5.166   0.151 -0.0875  0.3681  2.1010
  457MOL0     H61677   3.482   5.367   0.984  0.6940 -2.1347  2.6999
  457MOL0     H61678   3.574   5.330   1.221 -1.9595 -0.9612 -0.9184
  457MOL0     H61679   3.704   5.400   1.560  1.3377  0.6530  0.6291
  457MOL0     H61680   3.833   5.400   1.773  0.1733  0.6374  0.2817
  457MOL0     H61681   2.425   5.028   2.507  0.9790  0.6033  0.8547
  457MOL0     H61682   2.186   4.954   2.471 -0.0211  3.8960 -2.2214
  457MOL0     H61683   1.782   4.740   2.832  1.0707 -0.3674  0.6760
  457MOL0     H61684   1.543   4.684   2.791  3.2163 -0.1332  1.8539
  457MOL0     H61685   1.340   4.599   2.665  0.7197  0.0258  0.8732
  457MOL0     H61686   1.325   4.729   2.781  1.8922 -0.1598 -1.1124
  457MOL0     H61687   1.154   4.832   2.652 -1.7163 -0.5184 -1.0113
  457MOL0     H61688   1.105   4.671   2.722  1.6158 -0.8009  1.7878
  457MOL0     H61689   1.226   4.687   2.450 -1.9643  2.6326 -0.3801
  457MOL0     H61690   1.051   4.727   2.462  0.4211  2.9380  1.4533
  457MOL0     H61691   1.155   4.452   2.571 -1.3043 -2.6451 -0.4771
  457MOL0     H61692   1.092   4.477   2.418 -2.2906  0.0335  0.1426
  457MOL0     H61693   0.720   4.491   2.525  0.9720  3.6434 -1.2835
  457MOL0     H61694   1.532   4.939   2.452 -0.3991 -0.4539  0.3525
  457MOL0     H61695   1.763   5.018   2.507  2.0997  0.1672  0.2041
  458MOL0     O61696   5.016   7.628   9.093  0.3645 -0.5588 -0.4030
  458MOL0     C61697   5.031   7.670   8.979  0.3501  0.0441  0.0250
  458MOL0     O61698   5.065   7.797   8.944  0.1908  0.4770 -0.1511
  458MOL0     C61699   5.098   7.884   9.050  0.0723  0.3896  0.5740
  458MOL0     C61700   5.007   7.932   9.146  0.2306 -0.1096  0.2539
  458MOL0     C61701   5.039   8.039   9.229  0.5749 -0.2277 -0.3522
  458MOL0     C61702   5.169   8.099   9.217  0.7871  0.8164  1.5984
  458MOL0     O61703   5.217   8.213   9.281  0.4475 -1.0342 -0.2844
  458MOL0     C61704   5.132   8.331   9.243 -0.6295  0.7098  0.5825
  458MOL0     C61705   5.195   8.455   9.310 -0.5676 -0.4216  0.6739
  458MOL0     C61706   5.132   8.584   9.268  0.4213 -0.4662  0.4000
  458MOL0     C61707   5.199   8.706   9.329 -0.5818  1.4577  0.4080
  458MOL0     C61708   5.106   8.820   9.333 -0.9010  0.4851 -1.0557
  458MOL0     C61709   5.089   8.880   9.193 -0.7673 -0.0908 -0.1596
  458MOL0     C61710   5.205   8.970   9.141 -0.2471  0.1451 -0.0596
  458MOL0     C61711   5.152   9.079   9.046 -0.1377 -0.1957  0.1568
  458MOL0     N61712   5.252   9.183   8.996  0.1488 -0.5253 -0.3135
  458MOL0     C61713   5.356   9.161   8.908 -0.9426  0.5027  0.5243
  458MOL0     C61714   5.404   9.289   8.881 -1.0274  0.7514 -0.1764
  458MOL0     C61715   5.528   9.319   8.787  0.8155  1.1123 -0.3279
  458MOL0     C61716   5.497   9.297   8.639  0.7625 -0.0153  0.0276
  458MOL0     C61717   5.517   9.151   8.591  0.5765 -0.0285  0.0772
  458MOL0     C61718   5.651   9.073   8.646 -0.6901 -0.3589 -0.6452
  458MOL0     O61719   5.625   8.988   8.760 -0.3002 -0.7985  0.4020
  458MOL0     C61720   5.539   8.882   8.738  1.0789 -0.1185 -0.2156
  458MOL0     C61721   5.496   8.807   8.848 -0.0009  0.2732 -0.0641
  458MOL0     C61722   5.402   8.701   8.830 -0.0532  0.4432 -0.6794
  458MOL0     C61723   5.345   8.650   8.961 -0.6307  0.3657  0.5437
  458MOL0     C61724   5.347   8.665   8.702  0.4078  0.0131 -0.6110
  458MOL0     C61725   5.243   8.557   8.683 -0.1765 -0.7022  0.2498
  458MOL0     O61726   5.231   8.528   8.550 -0.5217 -0.5853  0.4003
  458MOL0     C61727   5.116   8.489   8.494  1.0099  0.1674  0.6645
  458MOL0     C61728   5.024   8.594   8.457 -0.2950 -0.2705  0.3749
  458MOL0     C61729   4.909   8.563   8.388  0.6740 -0.6397  0.6857
  458MOL0     C61730   4.874   8.435   8.350 -0.5627  0.0421 -0.2297
  458MOL0     O61731   4.760   8.411   8.287 -0.1538 -0.0950 -0.0697
  458MOL0     C61732   4.667   8.310   8.332 -0.3539 -0.0064 -0.1303
  458MOL0     C61733   4.523   8.376   8.323 -0.1616  1.1196  0.1676
  458MOL0     C61734   4.465   8.379   8.176 -0.1821  0.5295 -0.2075
  458MOL0     C61735   4.327   8.459   8.180 -0.3514  0.3521 -0.3803
  458MOL0     C61736   4.275   8.481   8.046  0.3413  0.0360  0.0478
  458MOL0     C61737   4.344   8.605   7.972  0.4302  0.4930  0.1006
  458MOL0     C61738   4.276   8.655   7.846 -1.1496 -0.3143 -0.4130
  458MOL0     C61739   4.347   8.779   7.809 -0.6732 -0.4671 -0.5863
  458MOL0    Cl61740   4.274   8.848   7.663 -0.4016  0.2513  0.5187
  458MOL0     C61741   4.976   8.340   8.371 -0.0126  0.2187  0.0276
  458MOL0     C61742   5.092   8.366   8.444 -0.1496  0.5979 -0.4653
  458MOL0     O61743   5.176   8.511   8.773 -0.2138 -0.1440 -0.0659
  458MOL0     C61744   5.396   8.735   8.591  0.6025  0.2613  0.2675
  458MOL0     C61745   5.485   8.844   8.610 -0.7506  0.1385 -0.9383
  458MOL0     N61746   5.337   9.370   8.966 -0.1292  0.3865 -0.1478
  458MOL0     N61747   5.252   9.313   9.035  0.5366 -0.9979  0.1886
  458MOL0     C61748   5.265   8.044   9.126  1.3471 -1.1130 -1.1417
  458MOL0     C61749   5.222   7.947   9.035  0.5122  0.6228  0.0888
  458MOL0     C61750   4.999   7.577   8.868  0.1803  0.0227 -0.0600
  458MOL0     C61751   4.982   7.620   8.732  0.4174  0.2763  0.1975
  458MOL0     C61752   4.972   7.528   8.634  0.4214 -0.1367  0.7310
  458MOL0     C61753   4.964   7.392   8.655 -0.1458  0.0245  0.8642
  458MOL0     O61754   4.930   7.317   8.554 -0.0245  0.4312 -0.0250
  458MOL0     C61755   4.789   7.295   8.536  0.1996  0.5039 -0.3521
  458MOL0     C61756   4.769   7.174   8.436 -0.3163 -0.5704  0.6472
  458MOL0     C61757   4.860   7.052   8.445 -1.0235 -0.9086  0.6456
  458MOL0     C61758   4.845   6.995   8.585 -0.6203  0.3430 -0.0390
  458MOL0     C61759   4.713   6.954   8.625  0.5963 -0.3731 -0.1107
  458MOL0     C61760   4.594   6.931   8.637 -0.3620 -0.8495 -0.5727
  458MOL0     C61761   4.968   7.353   8.782 -0.1677 -0.2607 -0.5180
  458MOL0     C61762   4.983   7.437   8.893 -0.9923  0.2312 -0.0241
  458MOL0     H61763   4.909   7.885   9.140  0.9709 -1.7569  0.7470
  458MOL0     H61764   4.964   8.066   9.302  0.3564 -0.2773 -0.5569
  458MOL0     H61765   5.137   8.347   9.135  0.8154 -1.7443  0.2156
  458MOL0     H61766   5.027   8.312   9.268 -0.0038 -0.7440  2.4111
  458MOL0     H61767   5.194   8.437   9.418  0.9932  0.7364  0.9196
  458MOL0     H61768   5.295   8.452   9.264 -1.7696 -3.1892 -2.2207
  458MOL0     H61769   5.134   8.582   9.158 -0.1944  2.4117  0.2672
  458MOL0     H61770   5.028   8.590   9.302 -0.0564  1.1268 -1.1868
  458MOL0     H61771   5.213   8.686   9.436 -5.0059 -0.4820  0.8310
  458MOL0     H61772   5.294   8.710   9.274  0.3597 -2.8170  1.3019
  458MOL0     H61773   5.011   8.796   9.381  0.1107  3.9393  3.3783
  458MOL0     H61774   5.158   8.895   9.394  0.8900 -0.2356 -1.6345
  458MOL0     H61775   5.080   8.798   9.122 -2.1392 -1.1133  1.1399
  458MOL0     H61776   4.996   8.937   9.189 -0.2682  0.6857 -1.4575
  458MOL0     H61777   5.253   9.023   9.223  0.5684 -1.6811  0.7134
  458MOL0     H61778   5.287   8.914   9.095 -0.0150  0.5724 -0.1720
  458MOL0     H61779   5.063   9.122   9.093 -3.7772 -4.0421 -2.4316
  458MOL0     H61780   5.109   9.029   8.958 -1.0543 -1.0760  1.0702
  458MOL0     H61781   5.386   9.063   8.874 -0.5738  0.7430  0.1535
  458MOL0     H61782   5.555   9.423   8.810  0.4928  1.3886 -1.1588
  458MOL0     H61783   5.615   9.261   8.818  1.7306  4.0965  3.5907
  458MOL0     H61784   5.555   9.368   8.579  1.0527 -0.8222 -0.6585
  458MOL0     H61785   5.391   9.319   8.623  0.5921 -0.8222  0.0025
  458MOL0     H61786   5.538   9.160   8.484  0.3040  0.3214  0.0533
  458MOL0     H61787   5.432   9.088   8.619  1.6379 -1.5484 -0.0244
  458MOL0     H61788   5.723   9.151   8.676 -1.3989  0.0802 -0.0611
  458MOL0     H61789   5.704   9.014   8.570  0.4608 -0.8031  0.4732
  458MOL0     H61790   5.516   8.828   8.952 -1.0218  2.0801 -0.1819
  458MOL0     H61791   5.236   8.657   8.955 -1.2123 -2.9997  3.3072
  458MOL0     H61792   5.366   8.543   8.975  0.0722  0.2410 -1.1997
  458MOL0     H61793   5.380   8.700   9.051  0.1540 -0.2345  0.5803
  458MOL0     H61794   5.039   8.695   8.494 -0.5608 -0.0932  0.0073
  458MOL0     H61795   4.844   8.649   8.373  3.4936  1.5394  0.1680
  458MOL0     H61796   4.670   8.224   8.264 -2.2212  0.9040 -1.4672
  458MOL0     H61797   4.691   8.286   8.435 -2.8066  0.8898  0.7096
  458MOL0     H61798   4.451   8.317   8.380  2.1726 -1.0611  1.0785
  458MOL0     H61799   4.522   8.472   8.375  0.8605  0.6181  1.1495
  458MOL0     H61800   4.454   8.271   8.170  1.6490  0.2033  1.2336
  458MOL0     H61801   4.539   8.423   8.108  1.7869 -2.1117  0.0759
  458MOL0     H61802   4.256   8.394   8.233  2.6642  0.1475  3.9673
  458MOL0     H61803   4.317   8.552   8.237 -0.8274 -1.4986  2.8037
  458MOL0     H61804   4.170   8.509   8.059  0.4272  0.9523 -1.0872
  458MOL0     H61805   4.280   8.392   7.981 -0.9941 -1.9588  2.5119
  458MOL0     H61806   4.347   8.682   8.049  0.4954 -0.0409  0.6353
  458MOL0     H61807   4.449   8.582   7.950  0.2720 -1.2529  0.9437
  458MOL0     H61808   4.173   8.687   7.860 -2.4363 -3.6488 -1.2076
  458MOL0     H61809   4.272   8.575   7.771 -1.0834 -0.2789 -0.4534
  458MOL0     H61810   4.455   8.776   7.793 -0.6850 -0.2924 -0.7003
  458MOL0     H61811   4.336   8.844   7.896 -0.0542 -0.4399 -0.5275
  458MOL0     H61812   4.970   8.239   8.333  0.8119 -0.3768  1.3986
  458MOL0     H61813   5.168   8.294   8.474 -0.0960  1.3983  1.4030
  458MOL0     H61814   5.374   8.700   8.491  0.2251  1.2627 -0.0104
  458MOL0     H61815   5.527   8.886   8.519 -0.6452  1.6295 -0.2261
  458MOL0     H61816   5.363   8.092   9.126  0.2643  1.3159 -2.8144
  458MOL0     H61817   5.281   7.910   8.952  3.9153  2.1468  1.5983
  458MOL0     H61818   4.992   7.721   8.692 -0.7236  0.0439 -0.7141
  458MOL0     H61819   4.970   7.565   8.532  2.4953 -3.4791 -0.7155
  458MOL0     H61820   4.742   7.269   8.632  2.0303 -0.6160  0.3015
  458MOL0     H61821   4.755   7.388   8.490  0.3424  0.9361  0.3965
  458MOL0     H61822   4.793   7.214   8.337 -0.1780 -0.9375  0.5282
  458MOL0     H61823   4.668   7.131   8.433 -0.9081  0.8309 -1.1889
  458MOL0     H61824   4.965   7.078   8.428 -1.8856  1.4497 -1.8724
  458MOL0     H61825   4.838   6.973   8.373 -0.9829 -1.9195  1.7244
  458MOL0     H61826   4.880   7.066   8.661  3.5070 -0.5898 -0.8461
  458MOL0     H61827   4.911   6.908   8.591 -3.8471 -2.2606  0.7324
  458MOL0     H61828   4.492   6.899   8.640 -0.4074 -0.6753 -0.1209
  458MOL0     H61829   4.954   7.246   8.791  1.4724 -0.4742 -0.2320
  458MOL0     H61830   4.993   7.397   8.993 -0.8973  0.7438  0.1751
  459MOL0     O61831   9.409   6.728   9.744  0.5618  0.5259 -0.1265
  459MOL0     C61832   9.358   6.622   9.716 -0.8634  0.3518  0.5554
  459MOL0     O61833   9.429   6.521   9.665  0.1451 -0.1532 -0.2100
  459MOL0     C61834   9.561   6.542   9.649 -0.3829 -0.7121 -0.6775
  459MOL0     C61835   9.614   6.604   9.535  0.2368  0.2872 -0.3662
  459MOL0     C61836   9.750   6.629   9.529  0.8700 -0.6288  0.4057
  459MOL0     C61837   9.829   6.587   9.633 -0.2086  0.2094  0.6718
  459MOL0     O61838   9.965   6.598   9.607  0.5056  0.1629 -0.2771
  459MOL0     C61839  10.042   6.647   9.706  1.1279 -0.5732 -0.2172
  459MOL0     C61840  10.166   6.712   9.650 -0.0255  0.0643  0.0668
  459MOL0     C61841  10.228   6.818   9.754  0.9969  0.7978 -0.1061
  459MOL0     C61842  10.363   6.866   9.722  0.2446  0.1890  0.1058
  459MOL0     C61843  10.377   6.996   9.804  0.3291 -0.4080  0.2560
  459MOL0     C61844  10.515   7.069   9.782  0.7289 -0.5205 -0.5090
  459MOL0     C61845  10.532   7.155   9.658  0.4294 -0.2176 -0.2093
  459MOL0     C61846  10.680   7.197   9.632 -0.5879  0.2542  0.7769
  459MOL0     N61847  10.696   7.315   9.539 -0.0578  0.5641 -0.2179
  459MOL0     C61848  10.654   7.325   9.404 -0.8937  0.5541 -0.8080
  459MOL0     C61849  10.684   7.447   9.367  0.3331 -0.7274  0.2831
  459MOL0     C61850  10.641   7.495   9.235  0.0328 -0.3198  0.2451
  459MOL0     C61851  10.762   7.483   9.144  0.1547 -0.8911  0.1063
  459MOL0     C61852  10.885   7.577   9.154 -0.4706 -0.0534 -0.5934
  459MOL0     C61853  10.880   7.712   9.100  0.4430 -0.7667  0.0123
  459MOL0     O61854  10.807   7.796   9.183 -1.0194  0.0334  0.0692
  459MOL0     C61855  10.876   7.874   9.269 -0.0386 -0.4634 -0.2911
  459MOL0     C61856  11.001   7.950   9.238  0.1496 -0.2957  0.0986
  459MOL0     C61857  11.070   8.020   9.338 -0.4126 -0.3147 -0.4225
  459MOL0     C61858  11.167   8.129   9.289 -1.0706  0.7312 -0.8662
  459MOL0     C61859  11.027   8.024   9.468 -0.0160 -1.0495  0.9979
  459MOL0     C61860  11.103   8.091   9.582  0.4029 -0.8631  0.3802
  459MOL0     O61861  11.198   8.186   9.563  0.6401  0.5020  0.3014
  459MOL0     C61862  11.215   8.296   9.641 -0.3498 -0.3900  0.4282
  459MOL0     C61863  11.343   8.347   9.645  0.5199  0.8823  0.2569
  459MOL0     C61864  11.377   8.465   9.720  0.0828 -0.1087 -0.3662
  459MOL0     C61865  11.271   8.535   9.783  0.8166 -0.0751  0.1068
  459MOL0     O61866  11.264   8.651   9.846 -0.0466  0.1154  0.6056
  459MOL0     C61867  11.383   8.682   9.917 -0.2630  0.9076  0.8961
  459MOL0     C61868  11.359   8.793  10.014  0.3430 -0.4947 -0.5832
  459MOL0     C61869  11.261   8.750  10.130 -0.4765 -0.3363  0.5853
  459MOL0     C61870  11.320   8.691  10.259 -0.4359  0.0726  0.4533
  459MOL0     C61871  11.207   8.684  10.362  0.4444 -0.1346 -0.2170
  459MOL0     C61872  11.248   8.634  10.505 -0.7995 -0.2612 -0.9497
  459MOL0     C61873  11.335   8.511  10.504 -0.2569  0.1389 -0.8893
  459MOL0     C61874  11.346   8.442  10.636  0.1867  0.8260 -0.0056
  459MOL0    Cl61875  11.393   8.273  10.625 -0.1149 -0.7276 -0.0535
  459MOL0     C61876  11.139   8.483   9.775  0.0335 -0.1052 -1.1240
  459MOL0     C61877  11.111   8.359   9.715  0.4556  0.1394 -0.1092
  459MOL0     O61878  11.065   8.055   9.695 -0.9000  0.7956 -0.4291
  459MOL0     C61879  10.904   7.952   9.502  0.3327  0.6622  0.8199
  459MOL0     C61880  10.835   7.874   9.403 -0.8976 -0.5628  0.3596
  459MOL0     N61881  10.740   7.511   9.478  0.4381 -1.1242 -0.0766
  459MOL0     N61882  10.746   7.433   9.579  0.1409  0.1703 -0.6236
  459MOL0     C61883   9.779   6.516   9.745  0.4994 -0.0431  0.1139
  459MOL0     C61884   9.639   6.496   9.753 -1.0936  0.2857 -0.0490
  459MOL0     C61885   9.212   6.612   9.725  0.6796  1.5391 -0.0531
  459MOL0     C61886   9.136   6.703   9.790 -0.0759  0.2886 -0.3639
  459MOL0     C61887   8.995   6.696   9.804  0.1004 -0.1106 -0.2939
  459MOL0     C61888   8.925   6.577   9.754 -0.6274 -1.1319 -0.3541
  459MOL0     O61889   8.792   6.546   9.766  0.1078  0.1874 -0.0092
  459MOL0     C61890   8.713   6.614   9.867  0.3782 -0.2809 -0.8160
  459MOL0     C61891   8.690   6.526   9.989 -0.2608 -0.1962 -0.0087
  459MOL0     C61892   8.814   6.505  10.077  0.5334 -0.1702 -0.3898
  459MOL0     C61893   8.793   6.392  10.169  0.3582 -0.0371 -0.6659
  459MOL0     C61894   8.704   6.436  10.280  0.3502  0.4028 -0.3665
  459MOL0     C61895   8.628   6.486  10.365  0.2631  0.4760  0.4295
  459MOL0     C61896   9.001   6.485   9.687  0.0447  0.7149 -0.7309
  459MOL0     C61897   9.142   6.504   9.670 -0.0514  0.7788  0.3438
  459MOL0     H61898   9.552   6.635   9.452 -2.9561 -1.1443  1.2931
  459MOL0     H61899   9.782   6.673   9.435  1.4660  1.5142  1.5612
  459MOL0     H61900   9.995   6.717   9.775  3.3327 -0.8732  1.7509
  459MOL0     H61901  10.075   6.566   9.772  2.8317  1.6802  1.9077
  459MOL0     H61902  10.234   6.632   9.617 -1.3159 -1.3735  0.7593
  459MOL0     H61903  10.153   6.775   9.562  1.7283  2.6194  1.4954
  459MOL0     H61904  10.160   6.903   9.761  0.0268  0.2072 -1.7089
  459MOL0     H61905  10.230   6.766   9.850 -2.5470 -1.2418 -0.9664
  459MOL0     H61906  10.440   6.793   9.752  0.4460  0.9691  1.5793
  459MOL0     H61907  10.372   6.882   9.614  0.6184  2.3317  0.4225
  459MOL0     H61908  10.292   7.062   9.787 -1.2311 -1.9210  1.8287
  459MOL0     H61909  10.376   6.950   9.903 -0.8049  0.4563  0.6554
  459MOL0     H61910  10.541   7.129   9.870 -2.5487 -0.1122  0.3258
  459MOL0     H61911  10.577   6.979   9.782 -0.6965 -1.5979  1.9665
  459MOL0     H61912  10.480   7.108   9.574  1.4539 -2.9809  0.5931
  459MOL0     H61913  10.487   7.255   9.666 -2.7479 -1.2895 -2.4272
  459MOL0     H61914  10.731   7.105   9.602  0.0649  1.1053 -0.8246
  459MOL0     H61915  10.724   7.220   9.729 -0.7288 -0.0473  0.9158
  459MOL0     H61916  10.591   7.253   9.353 -1.8167 -1.2731  2.6006
  459MOL0     H61917  10.579   7.413   9.196  0.6283 -1.3790  1.4529
  459MOL0     H61918  10.594   7.591   9.213 -1.4604 -1.6958 -3.4322
  459MOL0     H61919  10.721   7.486   9.043 -2.7545  0.6488  1.2089
  459MOL0     H61920  10.810   7.385   9.155  2.6789  0.5312  2.9840
  459MOL0     H61921  10.962   7.535   9.088  1.0117  1.1206  0.3343
  459MOL0     H61922  10.927   7.580   9.255 -3.0151 -0.4028  0.5608
  459MOL0     H61923  10.841   7.714   8.998  2.1698  1.8449 -0.7036
  459MOL0     H61924  10.983   7.748   9.105 -0.3513  1.5707  3.9176
  459MOL0     H61925  11.048   7.956   9.141  0.6492 -0.3331  0.3354
  459MOL0     H61926  11.267   8.095   9.317 -0.8290 -0.1204 -2.6076
  459MOL0     H61927  11.177   8.130   9.180 -2.5977  2.8826 -1.0495
  459MOL0     H61928  11.145   8.231   9.320 -2.1376  1.2974 -3.2528
  459MOL0     H61929  11.423   8.310   9.581  2.3737  1.4133  2.1720
  459MOL0     H61930  11.479   8.499   9.729 -0.1338  0.0293  2.0900
  459MOL0     H61931  11.415   8.590   9.968  0.2153  0.5769  0.0104
  459MOL0     H61932  11.463   8.701   9.845  0.0369  0.8150  1.1989
  459MOL0     H61933  11.456   8.817  10.060  2.1291 -4.0465 -2.0646
  459MOL0     H61934  11.317   8.872   9.952 -0.3426 -0.7346 -0.4249
  459MOL0     H61935  11.192   8.680  10.082  0.4295 -0.7148 -0.1935
  459MOL0     H61936  11.211   8.839  10.168 -1.9303 -1.5143  1.5121
  459MOL0     H61937  11.358   8.589  10.252  1.0798  0.5922  0.6913
  459MOL0     H61938  11.409   8.753  10.275  0.2499 -0.3823 -1.3297
  459MOL0     H61939  11.130   8.616  10.324 -0.8110  0.2729  1.5020
  459MOL0     H61940  11.162   8.783  10.372  2.2772  0.5936  1.5678
  459MOL0     H61941  11.310   8.716  10.542 -2.5812  1.4128 -1.5083
  459MOL0     H61942  11.155   8.628  10.563  0.2782 -0.5790  0.8016
  459MOL0     H61943  11.435   8.533  10.466 -1.7281  3.9952 -2.9534
  459MOL0     H61944  11.287   8.436  10.440 -1.3761 -1.1806  1.3627
  459MOL0     H61945  11.244   8.441  10.678  0.5099  0.7028  0.7947
  459MOL0     H61946  11.408   8.490  10.712  0.4895 -2.6870  2.1692
  459MOL0     H61947  11.052   8.535   9.814  0.2044 -0.1383 -0.7018
  459MOL0     H61948  11.009   8.323   9.710  0.7124 -0.5825 -0.3302
  459MOL0     H61949  10.861   7.960   9.602 -1.2220 -1.6825  0.4176
  459MOL0     H61950  10.750   7.815   9.435  1.1457 -1.7100  4.4559
  459MOL0     H61951   9.841   6.472   9.823 -0.2126 -1.3810 -0.0416
  459MOL0     H61952   9.602   6.431   9.832 -4.5062  1.6320 -0.3553
  459MOL0     H61953   9.188   6.780   9.846 -1.1561  0.6745  0.1251
  459MOL0     H61954   8.941   6.773   9.860 -2.1196 -2.0993  0.4754
  459MOL0     H61955   8.758   6.708   9.898 -2.7432  1.7213 -1.8692
  459MOL0     H61956   8.618   6.640   9.819 -0.5306  0.1679  1.1361
  459MOL0     H61957   8.655   6.426   9.961  4.0377 -1.5413 -1.4787
  459MOL0     H61958   8.615   6.569  10.056 -2.7405 -3.3923 -0.5147
  459MOL0     H61959   8.851   6.594  10.128 -1.8323  0.1391  0.9406
  459MOL0     H61960   8.897   6.477  10.011  2.3600  0.3699  1.5585
  459MOL0     H61961   8.885   6.340  10.199 -0.3188 -0.8155  0.1125
  459MOL0     H61962   8.736   6.309  10.126  1.8974 -3.3485  3.1005
  459MOL0     H61963   8.554   6.527  10.430 -0.5603  1.2534 -0.9465
  459MOL0     H61964   8.945   6.400   9.650 -0.2509  0.2679  0.6966
  459MOL0     H61965   9.199   6.426   9.620 -0.9647  0.2400  0.1351
  460MOL0     O61966   9.296   5.324   7.049  0.7560 -0.7650 -0.1469
  460MOL0     C61967   9.198   5.369   7.096 -0.1684  0.1305 -1.0541
  460MOL0     O61968   9.170   5.401   7.219 -0.0571 -0.3031  0.0301
  460MOL0     C61969   9.249   5.381   7.323 -0.4119 -0.2002 -0.2016
  460MOL0     C61970   9.346   5.283   7.344 -0.4644  0.1636 -0.1503
  460MOL0     C61971   9.407   5.284   7.466 -0.5962  0.5764  0.4929
  460MOL0     C61972   9.375   5.368   7.575  0.9507 -0.7229 -0.7288
  460MOL0     O61973   9.434   5.363   7.703 -0.1940  0.4851  1.1194
  460MOL0     C61974   9.470   5.228   7.757  0.2405 -0.3888  0.1556
  460MOL0     C61975   9.558   5.257   7.876 -0.8175  0.2486  0.1794
  460MOL0     C61976   9.668   5.354   7.845 -0.9956 -0.3711  0.2050
  460MOL0     C61977   9.760   5.366   7.962  0.3800 -0.1590 -0.4729
  460MOL0     C61978   9.868   5.468   7.950 -0.4100  0.1760 -0.4331
  460MOL0     C61979   9.974   5.467   8.072 -0.3288  0.1464 -0.5757
  460MOL0     C61980   9.984   5.598   8.143 -0.3157 -0.7855  0.7680
  460MOL0     C61981  10.046   5.705   8.061 -0.7635 -0.1510  1.0210
  460MOL0     N61982  10.094   5.818   8.146 -0.4790 -0.6422 -0.4977
  460MOL0     C61983  10.034   5.940   8.137  0.2461  0.3789  0.2951
  460MOL0     C61984  10.101   6.018   8.229  0.2162  0.7743  0.2037
  460MOL0     C61985  10.096   6.170   8.265 -0.1390 -0.0419  0.1018
  460MOL0     C61986  10.140   6.247   8.142 -0.8621 -0.2864  0.7866
  460MOL0     C61987  10.092   6.383   8.154  0.0501 -0.2862 -0.0528
  460MOL0     C61988  10.095   6.444   8.023  0.6828  0.2921  0.1146
  460MOL0     O61989  10.230   6.475   7.988  0.2332 -0.5435  1.1771
  460MOL0     C61990  10.250   6.533   7.867 -0.0160 -0.1486 -0.5429
  460MOL0     C61991  10.163   6.612   7.793 -0.0768 -1.3811  0.1811
  460MOL0     C61992  10.193   6.657   7.659 -0.0251 -0.4701  0.0380
  460MOL0     C61993  10.097   6.745   7.580  0.2240  0.3267  0.2022
  460MOL0     C61994  10.315   6.611   7.598 -0.1095 -0.0106 -0.0079
  460MOL0     C61995  10.350   6.646   7.461  0.3937  0.4895 -0.3758
  460MOL0     O61996  10.309   6.561   7.361 -0.5256 -0.7051  0.7928
  460MOL0     C61997  10.389   6.582   7.252 -0.0551 -0.3637 -0.6251
  460MOL0     C61998  10.528   6.571   7.250 -1.2638 -0.2890  0.3474
  460MOL0     C61999  10.604   6.578   7.131 -0.2558  0.9139 -0.4093
  460MOL0     C62000  10.535   6.595   7.011 -0.7580  0.3864  0.1690
  460MOL0     O62001  10.599   6.598   6.887 -0.1847 -0.4040 -0.0007
  460MOL0     C62002  10.726   6.650   6.871 -0.2303  0.2154 -0.3824
  460MOL0     C62003  10.768   6.699   6.724  0.5957 -0.3342  0.1067
  460MOL0     C62004  10.723   6.599   6.620 -0.3515  0.2576 -0.2545
  460MOL0     C62005  10.764   6.648   6.480  0.0271 -0.7560  0.2107
  460MOL0     C62006  10.757   6.547   6.370  0.0063  0.5239  0.5916
  460MOL0     C62007  10.877   6.458   6.358 -0.8109  0.0800 -0.1011
  460MOL0     C62008  10.841   6.326   6.288  0.0525  0.3691 -0.2632
  460MOL0     C62009  10.965   6.228   6.267 -0.3312  0.9759  0.9201
  460MOL0    Cl62010  11.075   6.295   6.147 -0.4617 -0.4593  0.1629
  460MOL0     C62011  10.395   6.601   7.004  0.5873 -1.0618  0.2096
  460MOL0     C62012  10.324   6.589   7.129  0.7355 -0.1757 -0.1135
  460MOL0     O62013  10.407   6.753   7.447 -0.3701 -0.0953 -1.1345
  460MOL0     C62014  10.399   6.534   7.676  0.9132 -0.0178 -0.0939
  460MOL0     C62015  10.361   6.489   7.803 -0.3769 -0.1251 -0.4872
  460MOL0     N62016  10.198   5.937   8.300 -0.0350 -0.7559  0.1879
  460MOL0     N62017  10.192   5.817   8.247 -0.4478 -0.0245 -0.0991
  460MOL0     C62018   9.266   5.450   7.553 -0.1094 -0.3713 -0.0393
  460MOL0     C62019   9.206   5.463   7.425  0.5832 -0.1506 -0.5428
  460MOL0     C62020   9.097   5.406   6.995  0.0985 -0.2199 -0.5803
  460MOL0     C62021   9.060   5.314   6.892 -0.2744  0.4076  0.5924
  460MOL0     C62022   8.961   5.335   6.803 -0.2970  0.2803  0.0710
  460MOL0     C62023   8.892   5.459   6.801 -0.2568  0.3866  0.7575
  460MOL0     O62024   8.784   5.487   6.727  0.2845  0.1765 -0.5906
  460MOL0     C62025   8.723   5.372   6.662 -0.1093 -0.2405  0.2525
  460MOL0     C62026   8.575   5.411   6.634 -0.4575 -0.2279  0.0202
  460MOL0     C62027   8.562   5.508   6.523 -0.1852 -0.3430 -0.4904
  460MOL0     C62028   8.420   5.584   6.533 -0.5263 -0.1348  0.3593
  460MOL0     C62029   8.301   5.509   6.496  0.0161 -0.2755 -0.1953
  460MOL0     C62030   8.200   5.449   6.454 -0.3877  0.5339 -0.1826
  460MOL0     C62031   8.925   5.550   6.889 -0.1172 -0.8490 -0.0150
  460MOL0     C62032   9.025   5.529   6.988 -0.2169 -0.5924  0.6070
  460MOL0     H62033   9.354   5.205   7.269  0.8854  1.8537 -1.8973
  460MOL0     H62034   9.478   5.205   7.489 -0.1170  0.7530 -0.3297
  460MOL0     H62035   9.371   5.189   7.783  0.6065 -0.0878  2.1181
  460MOL0     H62036   9.515   5.159   7.684 -0.4192 -1.3178  0.5990
  460MOL0     H62037   9.500   5.304   7.956 -0.6611  0.5591  0.1110
  460MOL0     H62038   9.594   5.160   7.911  1.2301  1.4431  1.5945
  460MOL0     H62039   9.729   5.321   7.761 -2.0294  2.5661 -1.8873
  460MOL0     H62040   9.625   5.449   7.812  2.4174  0.6612 -1.7629
  460MOL0     H62041   9.697   5.383   8.050  1.7471 -1.2729  0.7784
  460MOL0     H62042   9.803   5.270   7.992  1.4368  0.7809  1.1822
  460MOL0     H62043   9.934   5.459   7.863  0.9330  0.2720  0.5261
  460MOL0     H62044   9.827   5.569   7.943 -1.0602  0.1257  1.8441
  460MOL0     H62045   9.933   5.394   8.142  0.1417  0.0485 -0.3935
  460MOL0     H62046  10.075   5.443   8.036 -0.6932  1.0918 -2.3553
  460MOL0     H62047   9.891   5.639   8.183  0.0505  1.9389 -0.9199
  460MOL0     H62048  10.056   5.580   8.223  2.9772 -0.2878 -1.8475
  460MOL0     H62049   9.966   5.742   7.997  0.6336 -0.8808 -1.2656
  460MOL0     H62050  10.128   5.663   8.001 -0.0159  1.9608  0.4890
  460MOL0     H62051   9.955   5.965   8.067  0.5666  0.5564 -0.0044
  460MOL0     H62052   9.993   6.188   8.295  0.2169 -0.6329  1.8020
  460MOL0     H62053  10.151   6.188   8.358  3.7291  1.0839 -2.1463
  460MOL0     H62054  10.091   6.206   8.053  1.6797 -1.8620  0.0001
  460MOL0     H62055  10.247   6.259   8.122 -0.7079 -2.5590 -0.0174
  460MOL0     H62056  10.154   6.442   8.222  1.6780 -1.1475 -0.7316
  460MOL0     H62057   9.992   6.392   8.196 -0.1709  2.9956 -0.9982
  460MOL0     H62058  10.043   6.540   8.021  0.0428 -0.0551 -0.8368
  460MOL0     H62059  10.045   6.379   7.951  0.5629 -4.2794  3.8001
  460MOL0     H62060  10.085   6.661   7.850  0.8227  0.8047 -0.3535
  460MOL0     H62061  10.134   6.848   7.570  2.9693 -0.3618  2.0605
  460MOL0     H62062  10.091   6.710   7.476  3.1637  1.5683 -0.5030
  460MOL0     H62063  10.001   6.747   7.633  0.6716  1.6275  1.0164
  460MOL0     H62064  10.594   6.557   7.336  0.8919  0.5985 -1.0942
  460MOL0     H62065  10.710   6.558   7.126 -0.2068  0.9824  0.1976
  460MOL0     H62066  10.739   6.736   6.938 -2.7856  0.4595 -0.0986
  460MOL0     H62067  10.798   6.575   6.905 -0.4243  0.2469  0.1012
  460MOL0     H62068  10.711   6.789   6.701  2.3431  0.5280 -1.0409
  460MOL0     H62069  10.871   6.735   6.721  0.4249  0.4053  1.8040
  460MOL0     H62070  10.616   6.583   6.634  0.1814 -3.5816  0.5385
  460MOL0     H62071  10.766   6.503   6.648 -4.7028 -1.2297  2.2611
  460MOL0     H62072  10.689   6.724   6.457  0.0635 -0.6557  0.4209
  460MOL0     H62073  10.858   6.702   6.480  0.0933 -0.8677 -0.0079
  460MOL0     H62074  10.756   6.590   6.270 -0.9820  1.8310  1.1379
  460MOL0     H62075  10.668   6.485   6.384  1.7526 -2.7904 -1.4705
  460MOL0     H62076  10.960   6.510   6.310 -2.3861  2.4657 -0.4119
  460MOL0     H62077  10.896   6.442   6.465  0.8845  0.4174 -0.3188
  460MOL0     H62078  10.795   6.345   6.191  1.2004 -0.4097 -0.9937
  460MOL0     H62079  10.774   6.270   6.353 -2.6441  2.2846 -1.1924
  460MOL0     H62080  10.937   6.130   6.226  3.7549  0.0568 -0.1346
  460MOL0     H62081  11.010   6.202   6.363 -0.2316  0.8368  0.8365
  460MOL0     H62082  10.331   6.626   6.919 -2.2011 -1.2835  2.1212
  460MOL0     H62083  10.216   6.595   7.126  0.7149 -0.6742 -0.4079
  460MOL0     H62084  10.490   6.497   7.629  0.0390  0.6083 -2.4112
  460MOL0     H62085  10.417   6.423   7.869 -0.5974  0.3219  0.1569
  460MOL0     H62086   9.218   5.508   7.631  0.4574 -0.4683  0.3866
  460MOL0     H62087   9.130   5.541   7.416  0.4304 -0.2628 -0.2630
  460MOL0     H62088   9.127   5.229   6.887  1.0693  1.2702  2.4415
  460MOL0     H62089   8.934   5.262   6.728  1.1616  0.7692 -0.9869
  460MOL0     H62090   8.770   5.359   6.564 -1.2291 -0.8017 -0.2314
  460MOL0     H62091   8.730   5.282   6.724 -3.0193  0.6692  2.0959
  460MOL0     H62092   8.539   5.449   6.730 -2.1312 -0.9627 -0.2948
  460MOL0     H62093   8.530   5.318   6.598 -0.1731  0.1249 -1.3064
  460MOL0     H62094   8.589   5.454   6.432  2.3688  0.6401 -0.4021
  460MOL0     H62095   8.640   5.585   6.526 -3.5210  3.6188 -3.0256
  460MOL0     H62096   8.426   5.663   6.457 -2.3139 -1.6015 -1.3981
  460MOL0     H62097   8.398   5.635   6.627 -2.9924 -1.3997  0.5449
  460MOL0     H62098   8.112   5.395   6.427 -0.5929  0.2980  0.9144
  460MOL0     H62099   8.870   5.644   6.885 -1.8284 -1.8436 -1.9209
  460MOL0     H62100   9.044   5.609   7.060 -0.8137 -0.0448  0.1733
  461MOL0     O62101   0.864  10.813   1.409 -0.0396 -0.0606 -0.2275
  461MOL0     C62102   0.956  10.824   1.488  0.5410  0.3340 -0.3166
  461MOL0     O62103   0.951  10.825   1.619 -0.1044 -0.3076 -0.5779
  461MOL0     C62104   0.837  10.758   1.669  0.5101 -1.0856  1.1142
  461MOL0     C62105   0.852  10.639   1.737  0.2851  1.4816 -0.2780
  461MOL0     C62106   0.741  10.559   1.779 -0.2513  0.2336  0.4186
  461MOL0     C62107   0.616  10.609   1.735  0.4781 -0.1968 -0.1476
  461MOL0     O62108   0.504  10.541   1.750  0.4305  0.4433 -0.6189
  461MOL0     C62109   0.492  10.415   1.680 -0.5957 -0.3551 -0.5428
  461MOL0     C62110   0.350  10.382   1.632  0.6185 -0.3802 -0.9437
  461MOL0     C62111   0.314  10.452   1.494  0.1965  0.3821 -0.5327
  461MOL0     C62112   0.387  10.389   1.371  1.3653 -0.0680 -0.0462
  461MOL0     C62113   0.434  10.490   1.268  1.3543 -0.1482 -0.3297
  461MOL0     C62114   0.568  10.551   1.300  0.1865 -0.2585 -0.7538
  461MOL0     C62115   0.627  10.629   1.184  0.0111 -0.0923  0.6257
  461MOL0     C62116   0.530  10.743   1.144  1.0085  0.5222 -0.6633
  461MOL0     N62117   0.589  10.802   1.021 -0.2017 -0.2814 -1.0338
  461MOL0     C62118   0.711  10.871   1.011  0.1251  0.5869  0.3138
  461MOL0     C62119   0.694  10.940   0.892 -0.0901  0.5242  0.3643
  461MOL0     C62120   0.803  11.019   0.827  0.1914  0.0495  0.9564
  461MOL0     C62121   0.941  10.949   0.803 -0.4313  1.1857  0.0951
  461MOL0     C62122   0.924  10.858   0.687 -0.7566 -0.0870 -0.3875
  461MOL0     C62123   1.058  10.779   0.663 -0.1298  0.1672 -0.2350
  461MOL0     O62124   1.167  10.862   0.657  0.5372 -0.4136  0.2646
  461MOL0     C62125   1.262  10.845   0.559  0.2563  0.2044 -0.3896
  461MOL0     C62126   1.389  10.894   0.584  0.1654 -0.7346 -0.2758
  461MOL0     C62127   1.488  10.882   0.492 -0.4670  0.4214  0.0811
  461MOL0     C62128   1.637  10.921   0.535  0.8082  0.0934 -0.0280
  461MOL0     C62129   1.470  10.820   0.368  0.3851 -0.3773  0.1673
  461MOL0     C62130   1.571  10.794   0.267  0.9556 -0.4887 -0.4381
  461MOL0     O62131   1.538  10.721   0.168  0.6293  0.2248 -0.6344
  461MOL0     C62132   1.600  10.710   0.049 -0.2996  0.4740 -0.4157
  461MOL0     C62133   1.579  10.590  -0.016 -0.2273  0.6393 -0.2217
  461MOL0     C62134   1.642  10.564  -0.146  0.2911 -0.0844 -0.3079
  461MOL0     C62135   1.716  10.665  -0.209 -0.3567 -1.3488  0.3087
  461MOL0     O62136   1.765  10.644  -0.333  0.2496  0.0518 -0.6943
  461MOL0     C62137   1.691  10.720  -0.428  0.1829 -0.1403 -0.5265
  461MOL0     C62138   1.535  10.716  -0.408  0.2228  1.0171  1.3745
  461MOL0     C62139   1.464  10.784  -0.528 -0.0572  0.6390  0.1373
  461MOL0     C62140   1.320  10.812  -0.509  0.0082  0.1860 -0.5771
  461MOL0     C62141   1.300  10.966  -0.494 -0.2061  0.1231 -0.4522
  461MOL0     C62142   1.337  11.028  -0.354  1.0355  0.0727 -0.4454
  461MOL0     C62143   1.488  11.060  -0.350  1.1058  0.6764  0.1384
  461MOL0     C62144   1.508  11.175  -0.249 -0.1944  0.2443  0.9652
  461MOL0    Cl62145   1.671  11.238  -0.239  0.4152 -0.0567  0.1784
  461MOL0     C62146   1.730  10.787  -0.146  0.4503  0.0112 -0.2907
  461MOL0     C62147   1.671  10.808  -0.022  0.0285 -0.1859 -1.0362
  461MOL0     O62148   1.677  10.850   0.270 -0.0268 -0.3447 -0.0917
  461MOL0     C62149   1.346  10.772   0.348  0.5738  1.0628 -0.5212
  461MOL0     C62150   1.243  10.780   0.435 -0.5353  1.0847 -0.0006
  461MOL0     N62151   0.574  10.903   0.840  0.0187 -0.1528 -0.4794
  461MOL0     N62152   0.506  10.827   0.916 -0.1338 -0.0589 -0.6275
  461MOL0     C62153   0.592  10.736   1.681 -1.5257 -0.0836 -0.6112
  461MOL0     C62154   0.706  10.804   1.646 -0.1980 -0.4896 -1.5297
  461MOL0     C62155   1.099  10.849   1.434  0.5439 -0.2892  0.0763
  461MOL0     C62156   1.209  10.843   1.522  0.8105  0.0779  0.6756
  461MOL0     C62157   1.335  10.872   1.475 -0.0494  0.1334 -0.2756
  461MOL0     C62158   1.364  10.887   1.335  0.5975  0.6319  0.3832
  461MOL0     O62159   1.483  10.912   1.275 -0.6346  0.4754  0.3745
  461MOL0     C62160   1.600  10.837   1.307  0.2452 -0.3934  0.8302
  461MOL0     C62161   1.611  10.727   1.200  0.1288 -0.2749  0.4014
  461MOL0     C62162   1.739  10.652   1.200  0.2652  0.5192  0.2431
  461MOL0     C62163   1.735  10.534   1.107 -0.1535 -0.7279 -0.5260
  461MOL0     C62164   1.633  10.434   1.135 -0.6145 -0.4465 -0.7961
  461MOL0     C62165   1.550  10.346   1.155 -0.6045  0.2992  0.0539
  461MOL0     C62166   1.254  10.901   1.253 -0.1612 -1.2139  0.0594
  461MOL0     C62167   1.121  10.883   1.297 -0.4425 -0.4335 -0.6348
  461MOL0     H62168   0.956  10.617   1.756  1.5703  3.4968 -3.9922
  461MOL0     H62169   0.762  10.459   1.813  1.2842 -1.3743 -4.3254
  461MOL0     H62170   0.566  10.403   1.601  1.9334 -3.1349  1.9729
  461MOL0     H62171   0.517  10.343   1.758 -0.3455 -1.1848 -1.3774
  461MOL0     H62172   0.355  10.275   1.612  5.1260 -0.3916 -0.8583
  461MOL0     H62173   0.275  10.403   1.709  0.7699  2.0780 -1.3640
  461MOL0     H62174   0.208  10.437   1.474 -0.2280  1.7070  0.5633
  461MOL0     H62175   0.326  10.561   1.491 -1.3434  0.6635  1.4197
  461MOL0     H62176   0.471  10.320   1.384  0.8855 -1.3519 -3.0296
  461MOL0     H62177   0.309  10.327   1.327  2.5753 -0.7973 -1.2165
  461MOL0     H62178   0.450  10.442   1.171  1.1271  0.0778 -0.4814
  461MOL0     H62179   0.358  10.569   1.265  0.8739 -0.6063 -0.3368
  461MOL0     H62180   0.554  10.623   1.382 -0.4805  1.8904 -2.6657
  461MOL0     H62181   0.638  10.468   1.314  0.9034  0.5489  0.7263
  461MOL0     H62182   0.716  10.686   1.211  0.2423  1.6937 -3.3039
  461MOL0     H62183   0.663  10.572   1.098 -0.2123 -0.5043  0.7960
  461MOL0     H62184   0.531  10.824   1.218 -1.8716  0.0394  0.0247
  461MOL0     H62185   0.425  10.722   1.121  1.2631 -1.9571  0.0976
  461MOL0     H62186   0.788  10.881   1.086 -0.3675 -0.3163  0.9608
  461MOL0     H62187   0.776  11.078   0.739  0.1521  1.0788  1.6408
  461MOL0     H62188   0.820  11.101   0.898  2.5292  1.3577 -0.9493
  461MOL0     H62189   0.979  10.893   0.888  2.1937 -1.1949 -2.4179
  461MOL0     H62190   1.014  11.030   0.790  1.0999 -0.1198  0.2702
  461MOL0     H62191   0.900  10.901   0.589  0.4744 -0.9950 -1.1280
  461MOL0     H62192   0.848  10.782   0.709  0.7030 -2.0889 -1.9174
  461MOL0     H62193   1.033  10.717   0.577 -1.1180  1.0720 -0.6262
  461MOL0     H62194   1.083  10.710   0.744 -0.9257 -0.2724 -0.3599
  461MOL0     H62195   1.397  10.948   0.678 -1.7403 -0.4049 -0.2576
  461MOL0     H62196   1.668  11.020   0.501  0.4054  0.3552  0.3586
  461MOL0     H62197   1.641  10.928   0.644  2.1976  2.0447 -0.1563
  461MOL0     H62198   1.712  10.849   0.499  0.6662  0.6136 -1.4222
  461MOL0     H62199   1.524  10.516   0.041  0.3316  1.4138  1.3898
  461MOL0     H62200   1.625  10.465  -0.187 -1.0923  0.6436 -1.5592
  461MOL0     H62201   1.702  10.829  -0.423 -2.5800  0.1687  0.2396
  461MOL0     H62202   1.731  10.691  -0.526 -0.6938 -1.2707 -0.5638
  461MOL0     H62203   1.496  10.614  -0.406 -2.7553  1.9309 -1.5840
  461MOL0     H62204   1.497  10.765  -0.318 -5.0900  1.3954 -0.7387
  461MOL0     H62205   1.469  10.714  -0.613  0.0787  1.4843 -0.5638
  461MOL0     H62206   1.521  10.877  -0.541  1.7607 -0.3645  0.5159
  461MOL0     H62207   1.272  10.766  -0.596  2.4810  0.7001 -2.3393
  461MOL0     H62208   1.283  10.764  -0.418  0.5455  0.7447 -0.0504
  461MOL0     H62209   1.196  10.985  -0.524 -1.2704 -3.1003  0.7187
  461MOL0     H62210   1.361  11.018  -0.568  2.5959 -0.8170  1.0530
  461MOL0     H62211   1.288  11.126  -0.348  1.3438  0.1455  1.4630
  461MOL0     H62212   1.310  10.972  -0.264 -3.0704  0.3883 -1.2730
  461MOL0     H62213   1.517  11.089  -0.451  0.9360  1.6246  0.3572
  461MOL0     H62214   1.538  10.970  -0.313 -1.8554 -0.7287  1.0143
  461MOL0     H62215   1.480  11.151  -0.146  1.6319  3.1156  2.2796
  461MOL0     H62216   1.443  11.253  -0.288 -0.0931 -0.5932 -0.9861
  461MOL0     H62217   1.778  10.868  -0.200  1.7499 -0.2029  0.5017
  461MOL0     H62218   1.693  10.911   0.006 -0.5614 -0.0447 -1.0881
  461MOL0     H62219   1.334  10.719   0.254 -0.8269 -1.3971  0.9678
  461MOL0     H62220   1.150  10.731   0.406 -0.2044 -2.6100  4.2134
  461MOL0     H62221   0.496  10.781   1.659  0.3246  4.0774 -1.2871
  461MOL0     H62222   0.692  10.901   1.598 -2.0257  0.2245  0.2933
  461MOL0     H62223   1.199  10.822   1.628 -2.1839 -2.5261  0.0540
  461MOL0     H62224   1.411  10.875   1.552  1.2732  0.4507 -1.5517
  461MOL0     H62225   1.691  10.895   1.288  0.2368 -0.3455  0.9307
  461MOL0     H62226   1.605  10.801   1.410  1.2691 -0.1403  0.8773
  461MOL0     H62227   1.617  10.779   1.104  1.4208  2.6457  1.9340
  461MOL0     H62228   1.529  10.655   1.197  1.3168 -1.6289 -1.4681
  461MOL0     H62229   1.772  10.614   1.298 -0.9294 -2.7842 -0.5192
  461MOL0     H62230   1.822  10.719   1.172 -0.5235  2.3112  1.9308
  461MOL0     H62231   1.832  10.484   1.097  0.3564  0.3989 -1.2973
  461MOL0     H62232   1.710  10.573   1.008 -0.7817 -2.2780 -1.0114
  461MOL0     H62233   1.482  10.263   1.164 -2.3333  1.5992 -0.4992
  461MOL0     H62234   1.265  10.902   1.145 -1.0963 -2.1599 -0.0581
  461MOL0     H62235   1.038  10.892   1.227 -1.0651 -0.8776  0.0317
  462MOL0     O62236   8.132   7.652   9.911  0.3490  0.1705 -0.9281
  462MOL0     C62237   8.124   7.648   9.793  0.0656 -0.1354 -0.4189
  462MOL0     O62238   8.115   7.758   9.717  0.2892 -0.1795  0.0307
  462MOL0     C62239   8.116   7.889   9.774 -0.2213  0.6787  0.5186
  462MOL0     C62240   8.006   7.972   9.761 -0.2805  0.6440 -0.5169
  462MOL0     C62241   8.004   8.103   9.799  0.1710 -0.7392 -0.8625
  462MOL0     C62242   8.119   8.159   9.856  0.1573 -0.3406  0.1357
  462MOL0     O62243   8.117   8.290   9.881 -0.2821 -0.3626 -0.2333
  462MOL0     C62244   8.241   8.359   9.874  0.1197 -0.8153 -0.1792
  462MOL0     C62245   8.216   8.503   9.825 -1.2621  0.1966  0.7929
  462MOL0     C62246   8.126   8.523   9.704  0.2911  0.5663 -0.1191
  462MOL0     C62247   7.986   8.557   9.752 -0.1705 -0.2080  0.4335
  462MOL0     C62248   7.877   8.558   9.650  0.6444  0.1455  0.9074
  462MOL0     C62249   7.908   8.656   9.528  0.3130  0.1102  0.8728
  462MOL0     C62250   7.787   8.668   9.441 -0.3462  0.4459  0.3232
  462MOL0     C62251   7.822   8.654   9.291 -0.6855  0.6731 -0.3332
  462MOL0     N62252   7.857   8.783   9.242 -0.5251  0.3926  0.4705
  462MOL0     C62253   7.981   8.831   9.207 -0.1781 -1.4400  0.0023
  462MOL0     C62254   7.961   8.952   9.149 -0.7923 -0.0529  0.8242
  462MOL0     C62255   8.067   9.051   9.104 -0.0693 -0.2934  0.1517
  462MOL0     C62256   8.096   9.031   8.955  0.7401 -0.1632  0.2882
  462MOL0     C62257   8.189   9.145   8.920  0.4611  1.1678  0.7324
  462MOL0     C62258   8.118   9.249   8.835 -1.3694  0.5722 -0.2803
  462MOL0     O62259   8.208   9.352   8.786  0.1665  0.1892  0.1730
  462MOL0     C62260   8.154   9.460   8.727 -0.8341 -0.0297 -0.0627
  462MOL0     C62261   8.020   9.467   8.683 -0.2024 -0.0137 -0.3017
  462MOL0     C62262   7.971   9.591   8.626 -0.5587 -1.5543  0.7163
  462MOL0     C62263   7.828   9.582   8.570  0.2396 -0.2636 -0.0856
  462MOL0     C62264   8.050   9.715   8.629  0.6426  0.0186 -0.1054
  462MOL0     C62265   8.006   9.847   8.579 -0.3856 -0.1574  0.9807
  462MOL0     O62266   8.091   9.943   8.608  0.4608 -0.5616  0.1311
  462MOL0     C62267   8.067  10.073   8.558  0.2699 -0.6961 -0.4662
  462MOL0     C62268   7.964  10.156   8.611  0.4232 -0.7361  0.1287
  462MOL0     C62269   7.963  10.290   8.599  0.2572 -0.4046 -0.4295
  462MOL0     C62270   8.057  10.353   8.527 -0.3259 -0.2256 -0.0678
  462MOL0     O62271   8.044  10.489   8.507 -0.3774 -0.5317 -0.2477
  462MOL0     C62272   8.097  10.554   8.388 -1.3291 -0.7437  0.1038
  462MOL0     C62273   7.999  10.668   8.345 -0.4880  0.3363 -0.7611
  462MOL0     C62274   7.853  10.634   8.341  0.6040  0.7918 -0.3754
  462MOL0     C62275   7.801  10.522   8.242 -0.7717  0.4286 -0.3353
  462MOL0     C62276   7.784  10.389   8.313 -0.0310  0.5027 -0.2611
  462MOL0     C62277   7.649  10.319   8.267  0.4172 -0.0448 -0.6631
  462MOL0     C62278   7.643  10.181   8.342 -0.1983  0.0256  0.1726
  462MOL0     C62279   7.517  10.096   8.308 -1.2443  0.5960  0.4171
  462MOL0    Cl62280   7.390  10.122   8.434 -0.1233  0.7101  0.2413
  462MOL0     C62281   8.164  10.276   8.471  0.9545 -0.2228 -0.1877
  462MOL0     C62282   8.167  10.139   8.487  0.4378 -0.0327 -0.2081
  462MOL0     O62283   7.895   9.861   8.526 -0.3383 -0.3063  1.1111
  462MOL0     C62284   8.181   9.703   8.675  0.6149  0.7953  0.7822
  462MOL0     C62285   8.237   9.571   8.718  0.5358 -0.1954  0.2195
  462MOL0     N62286   7.827   8.970   9.128 -0.0985 -0.5675  0.1913
  462MOL0     N62287   7.767   8.867   9.190  0.2480 -0.6392  0.6834
  462MOL0     C62288   8.231   8.075   9.880  0.4144  0.3969 -0.5031
  462MOL0     C62289   8.228   7.940   9.839  0.2141  1.0455 -0.5993
  462MOL0     C62290   8.097   7.523   9.725  0.8777 -0.3839 -0.4462
  462MOL0     C62291   8.098   7.394   9.788  0.0370 -0.2302 -0.3116
  462MOL0     C62292   8.080   7.277   9.719  0.2440  0.1685  0.5527
  462MOL0     C62293   8.048   7.276   9.589  0.3201  0.3416  0.8395
  462MOL0     O62294   8.015   7.159   9.535  0.4758 -0.0097  0.0897
  462MOL0     C62295   7.941   7.152   9.413  0.0810 -0.3829  0.5385
  462MOL0     C62296   8.030   7.122   9.295  0.1262  0.2869 -0.3968
  462MOL0     C62297   7.990   7.166   9.151 -0.6898 -0.3575 -1.7333
  462MOL0     C62298   7.856   7.123   9.097 -0.2956  1.0094 -0.4228
  462MOL0     C62299   7.824   6.981   9.119  0.3584  0.4862 -1.1932
  462MOL0     C62300   7.770   6.874   9.142 -1.0031  0.1506 -0.2604
  462MOL0     C62301   8.040   7.393   9.518  1.0126 -0.7479 -0.3479
  462MOL0     C62302   8.061   7.520   9.582 -0.2515 -0.4953 -0.4477
  462MOL0     H62303   7.928   7.936   9.694  1.8175 -0.4495 -2.5173
  462MOL0     H62304   7.928   8.175   9.770  0.4618  0.6660  1.5864
  462MOL0     H62305   8.276   8.368   9.978 -0.2381  1.4439 -0.2110
  462MOL0     H62306   8.317   8.313   9.811  1.4906  3.1339 -1.6806
  462MOL0     H62307   8.179   8.571   9.903  0.2199 -1.2013  2.8181
  462MOL0     H62308   8.314   8.548   9.806  0.1778 -3.4485 -1.2993
  462MOL0     H62309   8.152   8.605   9.636 -2.4604 -0.6651 -2.9206
  462MOL0     H62310   8.125   8.422   9.663 -2.5021  0.2211  0.6020
  462MOL0     H62311   7.963   8.482   9.829  0.7722 -1.7353 -0.6987
  462MOL0     H62312   7.989   8.659   9.791 -1.4670  1.5038 -3.5461
  462MOL0     H62313   7.869   8.459   9.604 -0.0466  0.1702  0.9621
  462MOL0     H62314   7.780   8.590   9.690  0.2400  2.6715 -1.7464
  462MOL0     H62315   7.947   8.755   9.556  4.1530 -0.5841 -1.3069
  462MOL0     H62316   7.991   8.619   9.467  0.6884  2.8161 -0.4336
  462MOL0     H62317   7.730   8.576   9.463 -2.1743  1.5608  0.4956
  462MOL0     H62318   7.726   8.757   9.461  0.7036  0.9839  1.1986
  462MOL0     H62319   7.733   8.615   9.241 -2.1311  1.4124  1.5702
  462MOL0     H62320   7.906   8.585   9.275  1.2499  3.3645 -2.8777
  462MOL0     H62321   8.078   8.785   9.219  0.6760 -0.7746 -3.3631
  462MOL0     H62322   8.029   9.151   9.126 -4.5996 -2.3088  2.9209
  462MOL0     H62323   8.158   9.021   9.156 -1.0172 -1.5484  1.1576
  462MOL0     H62324   8.000   9.025   8.903 -1.1454 -1.5303  3.5781
  462MOL0     H62325   8.157   8.940   8.956  2.0943  0.7095  1.7149
  462MOL0     H62326   8.279   9.111   8.868 -2.1055 -3.0165 -1.6265
  462MOL0     H62327   8.225   9.201   9.006 -1.4365  0.9450  1.7337
  462MOL0     H62328   8.049   9.295   8.906  1.2810  0.5990  2.4789
  462MOL0     H62329   8.054   9.208   8.756 -3.2694  2.3491  0.2655
  462MOL0     H62330   7.942   9.392   8.686 -2.0178  1.5590 -3.6811
  462MOL0     H62331   7.767   9.605   8.658 -0.0138 -4.0843  0.9187
  462MOL0     H62332   7.807   9.642   8.482 -2.1439 -0.5857  0.2123
  462MOL0     H62333   7.802   9.481   8.536  0.9809 -0.6943  0.5933
  462MOL0     H62334   7.875  10.119   8.661 -0.3061  1.0948  0.2677
  462MOL0     H62335   7.895  10.354   8.654 -1.8772 -3.2217  0.4752
  462MOL0     H62336   8.194  10.600   8.409 -0.4176 -2.2994 -0.5577
  462MOL0     H62337   8.113  10.481   8.308 -0.1336 -0.7247  0.3151
  462MOL0     H62338   7.999  10.755   8.411  0.0688 -0.9822  1.0604
  462MOL0     H62339   8.034  10.700   8.246 -3.9925  2.7506 -1.3961
  462MOL0     H62340   7.802  10.728   8.318  1.0591  0.5284 -2.7242
  462MOL0     H62341   7.825  10.599   8.441  1.7493  1.4327  0.1843
  462MOL0     H62342   7.701  10.554   8.213 -1.9828 -2.8220 -0.1435
  462MOL0     H62343   7.870  10.514   8.157 -0.8929  1.1645 -0.5106
  462MOL0     H62344   7.774  10.405   8.421  2.1417  0.3488  0.0138
  462MOL0     H62345   7.863  10.314   8.303 -0.6027 -0.3424  1.2020
  462MOL0     H62346   7.559  10.376   8.292  1.1193  0.8964 -0.2236
  462MOL0     H62347   7.646  10.309   8.158  0.5131 -1.5279 -0.5519
  462MOL0     H62348   7.658  10.195   8.449  1.9277  3.0468 -0.4048
  462MOL0     H62349   7.734  10.129   8.311 -0.5008 -2.2873  2.7600
  462MOL0     H62350   7.551   9.993   8.319  2.2849  1.6869  1.0745
  462MOL0     H62351   7.496  10.108   8.201 -0.1864  0.9515  0.2387
  462MOL0     H62352   8.240  10.330   8.415 -0.2461 -0.2304 -1.9172
  462MOL0     H62353   8.257  10.082   8.463  1.2945  1.6476 -1.1186
  462MOL0     H62354   8.249   9.788   8.673  1.2895  0.2618 -0.3719
  462MOL0     H62355   8.338   9.564   8.758 -0.2179 -2.4479  1.9171
  462MOL0     H62356   8.325   8.118   9.913 -0.7495  3.8681 -1.2845
  462MOL0     H62357   8.322   7.885   9.847 -0.6183 -0.6121 -1.7363
  462MOL0     H62358   8.116   7.392   9.895 -0.2388  2.5609 -0.1443
  462MOL0     H62359   8.080   7.188   9.781 -2.2035  2.2908  3.9611
  462MOL0     H62360   7.862   7.077   9.418 -1.7366  1.3591 -0.7772
  462MOL0     H62361   7.880   7.242   9.405  0.9998  0.7943  4.4924
  462MOL0     H62362   8.040   7.013   9.283  0.9594  0.2185  0.6960
  462MOL0     H62363   8.130   7.161   9.316  0.4661 -0.7196 -0.0765
  462MOL0     H62364   8.062   7.138   9.073  1.0128  0.2919 -0.4625
  462MOL0     H62365   7.983   7.275   9.156  1.2389 -0.1705 -2.2027
  462MOL0     H62366   7.860   7.133   8.989 -0.4762  0.1226 -0.5189
  462MOL0     H62367   7.779   7.190   9.137 -1.1363  2.1325 -3.6703
  462MOL0     H62368   7.721   6.779   9.155  2.2039 -1.4019  1.5812
  462MOL0     H62369   8.036   7.378   9.410  3.4859 -1.1668 -0.4424
  462MOL0     H62370   8.077   7.607   9.519  1.0615 -0.9442 -0.7639
  463MOL0     O62371  10.021   0.962  10.234  0.7135  0.2669  0.5928
  463MOL0     C62372  10.101   0.891  10.289 -0.0068  1.0021  0.1512
  463MOL0     O62373  10.074   0.810  10.388  1.2502  0.4501 -0.7329
  463MOL0     C62374   9.942   0.786  10.428 -0.7745  0.7638 -0.4360
  463MOL0     C62375   9.858   0.704  10.341 -0.1615 -0.2444  0.3550
  463MOL0     C62376   9.718   0.697  10.366  0.3231  0.1293  0.3089
  463MOL0     C62377   9.668   0.764  10.475  1.0165  0.0580  0.2032
  463MOL0     O62378   9.526   0.754  10.485 -0.7629  0.3306  0.6884
  463MOL0     C62379   9.461   0.770  10.609 -0.9707  0.3511 -0.0451
  463MOL0     C62380   9.313   0.717  10.610  0.1240  0.3747 -0.3302
  463MOL0     C62381   9.229   0.790  10.499 -0.6917  0.5898  0.5395
  463MOL0     C62382   9.089   0.734  10.514 -0.4250 -0.4297 -0.9537
  463MOL0     C62383   8.974   0.810  10.447 -0.0385  0.1860  0.1748
  463MOL0     C62384   9.017   0.838  10.298  0.6538 -0.6260 -0.8683
  463MOL0     C62385   8.901   0.811  10.197  0.3880 -0.0905 -0.5188
  463MOL0     C62386   8.937   0.831  10.049  0.1968 -0.6100  0.5088
  463MOL0     N62387   9.064   0.775  10.012 -0.2158  0.2748  0.2533
  463MOL0     C62388   9.176   0.848   9.995  0.0146  0.1628  0.7111
  463MOL0     C62389   9.259   0.771   9.922 -0.6155  1.1147 -1.1808
  463MOL0     C62390   9.372   0.810   9.839 -0.4642 -0.0119  0.4354
  463MOL0     C62391   9.502   0.781   9.889 -0.2791  0.6142  0.8034
  463MOL0     C62392   9.536   0.629   9.917 -0.6117 -0.9750 -0.0028
  463MOL0     C62393   9.524   0.540   9.783 -0.3405 -0.2358 -0.8678
  463MOL0     O62394   9.578   0.614   9.671  0.0034 -0.6214  0.3822
  463MOL0     C62395   9.652   0.542   9.587 -0.2541 -0.1380  0.2375
  463MOL0     C62396   9.784   0.508   9.617  0.4087  0.0554 -1.0581
  463MOL0     C62397   9.857   0.419   9.544 -0.0900 -0.7037  0.1855
  463MOL0     C62398  10.000   0.372   9.588  0.9576  0.1953 -0.0717
  463MOL0     C62399   9.787   0.358   9.431  0.3518  0.0338  0.2660
  463MOL0     C62400   9.847   0.254   9.337 -0.3482 -0.6789  0.2725
  463MOL0     O62401   9.764   0.179   9.264 -0.8527  1.0783  0.0103
  463MOL0     C62402   9.803   0.098   9.163  0.1339  0.2831 -0.2298
  463MOL0     C62403   9.730  -0.029   9.157  0.9995 -0.2869  0.3082
  463MOL0     C62404   9.767  -0.123   9.054 -0.2107  0.3211 -0.0550
  463MOL0     C62405   9.854  -0.076   8.950 -0.7403  0.2012  0.1765
  463MOL0     O62406   9.869  -0.163   8.840 -0.3052  0.0527  0.3771
  463MOL0     C62407   9.956  -0.124   8.737 -0.0441  0.2859  0.5056
  463MOL0     C62408   9.960  -0.240   8.640 -0.7229  0.4542  0.6507
  463MOL0     C62409  10.037  -0.207   8.510  0.0622 -0.5576 -0.3229
  463MOL0     C62410  10.029  -0.328   8.409 -0.0378  0.7112  0.5823
  463MOL0     C62411  10.100  -0.298   8.276 -0.4293 -0.5818  0.7639
  463MOL0     C62412  10.110  -0.433   8.196  0.0805  0.0890  0.4740
  463MOL0     C62413  10.204  -0.413   8.077 -0.2226  0.4184  0.1084
  463MOL0     C62414  10.220  -0.554   8.017 -1.4286  0.0592 -0.4291
  463MOL0    Cl62415  10.079  -0.622   7.931 -0.3812  0.0304  0.1076
  463MOL0     C62416   9.921   0.046   8.957 -0.0012 -0.1337  0.3796
  463MOL0     C62417   9.899   0.133   9.067  0.6002 -0.8384  0.4485
  463MOL0     O62418   9.971   0.263   9.325  0.3911 -0.4688  0.1233
  463MOL0     C62419   9.658   0.398   9.400  0.4613  0.8486  0.4117
  463MOL0     C62420   9.591   0.491   9.479 -0.2289  0.7183 -0.0028
  463MOL0     N62421   9.205   0.647   9.914  0.6241 -0.0643 -0.8064
  463MOL0     N62422   9.091   0.646   9.972  0.1091 -0.2786 -0.0113
  463MOL0     C62423   9.756   0.845  10.555  0.3267  0.8638 -0.2741
  463MOL0     C62424   9.887   0.849  10.531  0.1198  0.5048  0.0072
  463MOL0     C62425  10.238   0.874  10.238 -0.1086  0.7758  0.5645
  463MOL0     C62426  10.271   0.966  10.126  0.1242  0.2791  0.1942
  463MOL0     C62427  10.404   0.962  10.076  0.6410  0.2797  0.5236
  463MOL0     C62428  10.498   0.872  10.130  0.5742  0.8548 -0.7916
  463MOL0     O62429  10.616   0.869  10.072  0.2547  0.1098 -0.2771
  463MOL0     C62430  10.723   0.931  10.148 -0.3440 -0.9894 -0.5098
  463MOL0     C62431  10.784   1.032  10.047 -0.4780 -0.0317 -0.1474
  463MOL0     C62432  10.913   1.080  10.105 -0.0831  0.0047  0.0183
  463MOL0     C62433  10.988   1.168  10.021  0.3646 -0.5331  1.0593
  463MOL0     C62434  10.936   1.308  10.033  0.4516  0.7630 -0.7166
  463MOL0     C62435  10.903   1.428  10.026 -0.4255 -0.0331 -1.0396
  463MOL0     C62436  10.459   0.773  10.218  0.6130  0.5035 -0.1433
  463MOL0     C62437  10.334   0.768  10.274  0.0296  0.0831 -0.0613
  463MOL0     H62438   9.897   0.663  10.248 -1.7453 -1.8377  0.3467
  463MOL0     H62439   9.655   0.643  10.296  4.0258 -4.6376  0.1423
  463MOL0     H62440   9.515   0.706  10.679 -1.9026 -1.0748 -0.5970
  463MOL0     H62441   9.476   0.874  10.641 -1.3445  1.5133 -3.2586
  463MOL0     H62442   9.308   0.608  10.604 -0.3666  0.3440  0.4624
  463MOL0     H62443   9.275   0.748  10.708 -0.2026  0.4223 -0.4724
  463MOL0     H62444   9.232   0.898  10.513  1.7540  0.3330  2.6663
  463MOL0     H62445   9.278   0.767  10.404 -1.1221  0.0718  0.4346
  463MOL0     H62446   9.097   0.631  10.478 -0.2327 -0.7372 -0.0465
  463MOL0     H62447   9.057   0.723  10.618 -0.1604  0.7455 -0.7321
  463MOL0     H62448   8.883   0.750  10.458 -1.0491  1.9649  2.3654
  463MOL0     H62449   8.958   0.903  10.502  0.1298 -0.2889  1.0366
  463MOL0     H62450   9.058   0.940  10.299 -0.7789 -0.0311 -0.1255
  463MOL0     H62451   9.093   0.764  10.270  1.3323  0.2373 -1.3629
  463MOL0     H62452   8.864   0.709  10.206  1.0342 -0.6353 -3.3005
  463MOL0     H62453   8.814   0.873  10.218  0.6130  0.2988 -0.7137
  463MOL0     H62454   8.946   0.937  10.026 -0.8164 -0.7325 -0.5350
  463MOL0     H62455   8.852   0.796   9.989  0.0269  2.8693 -1.5198
  463MOL0     H62456   9.183   0.955  10.013 -3.3739  0.4931  0.6820
  463MOL0     H62457   9.363   0.760   9.742 -0.5798  0.4419  0.2067
  463MOL0     H62458   9.352   0.915   9.813 -0.9575  0.3066  1.9751
  463MOL0     H62459   9.528   0.830   9.984  0.1763  1.8687  0.0545
  463MOL0     H62460   9.568   0.823   9.813 -0.1068 -1.0420 -0.0021
  463MOL0     H62461   9.471   0.585   9.992  1.1127  0.3847  2.4190
  463MOL0     H62462   9.635   0.632   9.963 -1.2246 -0.7896  1.3277
  463MOL0     H62463   9.418   0.522   9.763 -0.5208  1.1834 -1.2854
  463MOL0     H62464   9.575   0.447   9.810  1.3436  1.4048  2.1607
  463MOL0     H62465   9.824   0.552   9.708  1.2142 -4.2030  0.8974
  463MOL0     H62466  10.019   0.375   9.696  0.7688 -2.7385  0.1063
  463MOL0     H62467  10.002   0.265   9.567 -0.9924  0.1503 -0.1812
  463MOL0     H62468  10.082   0.416   9.531  0.9096 -2.9291 -2.8690
  463MOL0     H62469   9.658  -0.034   9.238 -0.3260  2.7747 -0.5643
  463MOL0     H62470   9.726  -0.223   9.049  4.6567 -1.9393 -0.7811
  463MOL0     H62471   9.903  -0.047   8.680  0.1290 -0.0895 -0.1782
  463MOL0     H62472  10.054  -0.099   8.777 -1.5076  0.4933  4.4549
  463MOL0     H62473  10.022  -0.312   8.693 -1.2106  0.8553  1.8246
  463MOL0     H62474   9.857  -0.272   8.619 -0.2843 -0.2422 -0.4726
  463MOL0     H62475  10.144  -0.191   8.525  0.0306  0.3267 -1.0082
  463MOL0     H62476   9.998  -0.118   8.460  1.6962 -0.4097 -1.4196
  463MOL0     H62477  10.081  -0.406   8.466  2.7872  2.3490  0.4683
  463MOL0     H62478   9.923  -0.349   8.394  0.3267  0.7966 -3.0659
  463MOL0     H62479  10.199  -0.254   8.286 -0.7618  0.1113  1.1000
  463MOL0     H62480  10.036  -0.225   8.225 -0.9654  1.8847  4.5777
  463MOL0     H62481  10.162  -0.508   8.256  1.8096  0.6544 -0.2363
  463MOL0     H62482  10.010  -0.469   8.174 -0.2183  1.6536 -0.9323
  463MOL0     H62483  10.301  -0.371   8.104  0.9031 -1.4379 -0.8022
  463MOL0     H62484  10.151  -0.347   8.008  2.6498  0.8106 -1.8699
  463MOL0     H62485  10.261  -0.618   8.095 -2.6475 -0.2910 -0.0590
  463MOL0     H62486  10.308  -0.545   7.954 -0.1359  1.1525  1.4228
  463MOL0     H62487   9.979   0.089   8.875 -3.1775  0.5179 -1.7023
  463MOL0     H62488   9.949   0.229   9.073  0.6319 -0.9234  5.1251
  463MOL0     H62489   9.609   0.355   9.313  0.2241  2.1441 -0.1193
  463MOL0     H62490   9.485   0.509   9.461 -1.3933 -2.7176  2.3123
  463MOL0     H62491   9.713   0.902  10.637  1.2846  0.2090  0.7083
  463MOL0     H62492   9.955   0.900  10.599 -0.6145 -2.4759  3.2296
  463MOL0     H62493  10.196   1.024  10.074 -1.7032 -1.4326  0.7704
  463MOL0     H62494  10.426   1.043  10.008 -1.2716 -1.3599 -2.2599
  463MOL0     H62495  10.684   0.992  10.230  1.8839 -0.7827  0.4755
  463MOL0     H62496  10.781   0.845  10.183  0.6654 -0.7929 -1.6152
  463MOL0     H62497  10.716   1.117  10.034  0.5486  0.7725 -0.3825
  463MOL0     H62498  10.796   0.982   9.950 -1.5844 -1.7639  0.5436
  463MOL0     H62499  10.989   1.003  10.119  2.0559  2.0444  0.2377
  463MOL0     H62500  10.891   1.127  10.202 -2.0153  0.5849 -0.6471
  463MOL0     H62501  10.992   1.137   9.916  0.7058  3.3900 -0.2656
  463MOL0     H62502  11.091   1.167  10.057 -0.4663  0.9992  3.8184
  463MOL0     H62503  10.880   1.533  10.022  0.1964  0.0790 -2.5282
  463MOL0     H62504  10.537   0.701  10.243  0.9958 -0.0401 -2.5860
  463MOL0     H62505  10.310   0.701  10.356 -0.3648  1.0581  0.6333
  464MOL0     O62506   6.303   4.697   9.827 -0.2881  0.1429 -0.1012
  464MOL0     C62507   6.417   4.716   9.780  0.4021  0.0841  0.5522
  464MOL0     O62508   6.455   4.682   9.654 -0.0619 -0.1079  0.2571
  464MOL0     C62509   6.369   4.598   9.597  0.5370  0.1464  0.3745
  464MOL0     C62510   6.252   4.653   9.545  0.2371 -0.4902  0.1509
  464MOL0     C62511   6.153   4.573   9.488  0.2566  0.1069  1.2901
  464MOL0     C62512   6.168   4.439   9.482 -0.3432 -0.5336 -1.0571
  464MOL0     O62513   6.064   4.371   9.427 -0.0721  0.2371 -0.1521
  464MOL0     C62514   6.075   4.238   9.389  0.2310  0.4433  0.2044
  464MOL0     C62515   5.968   4.218   9.282 -0.1928  0.5059 -0.0009
  464MOL0     C62516   5.820   4.217   9.343  0.0686  0.2871 -0.0809
  464MOL0     C62517   5.720   4.276   9.244 -1.2748 -0.6363  0.0795
  464MOL0     C62518   5.583   4.294   9.300 -0.0738 -1.4022 -0.8318
  464MOL0     C62519   5.483   4.298   9.193  0.7189 -0.4267  0.2971
  464MOL0     C62520   5.472   4.157   9.121 -0.1032  0.5558  0.4109
  464MOL0     C62521   5.335   4.111   9.086  0.7499 -0.3521  0.0142
  464MOL0     N62522   5.253   4.215   9.028 -0.1548  0.5554 -0.0060
  464MOL0     C62523   5.124   4.183   8.990 -0.4327  0.1974  0.7155
  464MOL0     C62524   5.089   4.271   8.899 -0.9084 -0.2541  0.6217
  464MOL0     C62525   4.952   4.270   8.831  0.0162  0.5610  0.5072
  464MOL0     C62526   4.963   4.237   8.685 -0.0765 -0.5018  0.2596
  464MOL0     C62527   5.005   4.093   8.651  1.1112 -0.7249 -0.5196
  464MOL0     C62528   4.994   4.079   8.498  0.7550 -0.4130 -1.1135
  464MOL0     O62529   4.859   4.079   8.452 -0.8634  0.7060  0.7785
  464MOL0     C62530   4.846   4.102   8.314 -0.4194  0.0529 -0.1537
  464MOL0     C62531   4.942   4.105   8.210 -0.4584 -0.2038 -0.5573
  464MOL0     C62532   4.910   4.147   8.076  0.1289  0.0898 -1.1988
  464MOL0     C62533   5.021   4.177   7.984  0.4101  0.6321  0.1296
  464MOL0     C62534   4.775   4.176   8.044  0.6173  0.5216  0.4562
  464MOL0     C62535   4.736   4.220   7.903  0.5525  0.2013 -0.6730
  464MOL0     O62536   4.758   4.354   7.894 -0.1527 -0.7817 -0.3726
  464MOL0     C62537   4.710   4.416   7.783  0.2795 -0.3944  0.0136
  464MOL0     C62538   4.577   4.463   7.794 -0.0424 -0.4615 -0.2776
  464MOL0     C62539   4.521   4.541   7.691  0.3205  1.4309  0.9010
  464MOL0     C62540   4.591   4.552   7.561  0.1542 -0.2320 -0.2945
  464MOL0     O62541   4.547   4.606   7.440  0.3025 -0.0569 -0.6256
  464MOL0     C62542   4.408   4.628   7.418  0.1924  0.9754  0.6381
  464MOL0     C62543   4.383   4.680   7.277  0.6554  0.2400 -0.2902
  464MOL0     C62544   4.236   4.701   7.257  0.9777  0.2559 -1.2867
  464MOL0     C62545   4.217   4.740   7.105  0.0487  0.8485  0.5333
  464MOL0     C62546   4.076   4.695   7.063  0.4800  0.0720  0.3627
  464MOL0     C62547   3.971   4.801   7.109 -0.2074  1.0307  0.2213
  464MOL0     C62548   3.833   4.771   7.037  0.0341  0.4929 -0.4411
  464MOL0     C62549   3.715   4.858   7.086  0.3595 -0.0020  0.8597
  464MOL0    Cl62550   3.701   4.869   7.269  0.1109 -0.2964 -0.1775
  464MOL0     C62551   4.725   4.499   7.550  0.6489 -0.1885 -1.0462
  464MOL0     C62552   4.782   4.438   7.662 -0.5466  0.6776 -1.2513
  464MOL0     O62553   4.694   4.146   7.814 -0.1014  0.1296 -0.3839
  464MOL0     C62554   4.679   4.164   8.145  0.6065  0.8360  1.3547
  464MOL0     C62555   4.709   4.116   8.270 -0.2364 -0.0327 -0.7794
  464MOL0     N62556   5.190   4.368   8.889  0.2670  0.1555 -0.8318
  464MOL0     N62557   5.286   4.328   8.962 -0.2333  0.3068 -0.1995
  464MOL0     C62558   6.295   4.391   9.510 -0.0999 -0.1522  0.6820
  464MOL0     C62559   6.404   4.467   9.563 -0.1927  0.4291 -0.6568
  464MOL0     C62560   6.494   4.804   9.868 -1.0249 -0.1475 -0.0188
  464MOL0     C62561   6.457   4.833   9.997 -0.5447 -0.1796 -0.7833
  464MOL0     C62562   6.527   4.928  10.074 -0.2214 -0.7789 -0.5874
  464MOL0     C62563   6.643   4.995  10.026  0.2310 -0.6722 -0.3526
  464MOL0     O62564   6.700   5.086  10.117  1.0539 -0.0049  0.5375
  464MOL0     C62565   6.825   5.146  10.064 -0.2125  0.0427  0.5878
  464MOL0     C62566   6.894   5.242  10.161 -0.0152  0.3089 -0.3499
  464MOL0     C62567   6.904   5.196  10.307 -0.3669  0.2678 -0.5339
  464MOL0     C62568   6.991   5.291  10.399 -0.4603  0.5791 -0.0128
  464MOL0     C62569   7.129   5.280  10.361 -1.1441  0.2629 -0.3735
  464MOL0     C62570   7.245   5.252  10.354  0.4378 -0.2165 -0.2309
  464MOL0     C62571   6.686   4.962   9.892  0.1490 -0.3129  0.2427
  464MOL0     C62572   6.614   4.867   9.814  0.6488  0.1011  0.4629
  464MOL0     H62573   6.235   4.760   9.552 -1.3400 -0.1804 -4.6019
  464MOL0     H62574   6.055   4.607   9.454  0.9353 -1.0049 -2.2698
  464MOL0     H62575   6.175   4.215   9.350  0.5898 -1.1219  1.9055
  464MOL0     H62576   6.062   4.166   9.471 -1.6895  0.4640 -0.0263
  464MOL0     H62577   5.979   4.276   9.190  0.6953 -2.2928 -1.7980
  464MOL0     H62578   5.984   4.117   9.243 -1.5225 -0.0471  0.8063
  464MOL0     H62579   5.781   4.116   9.356  1.9600 -0.3342  1.2266
  464MOL0     H62580   5.822   4.273   9.437 -1.0210 -2.7621  1.9093
  464MOL0     H62581   5.764   4.368   9.202 -1.7244 -0.6491 -0.4237
  464MOL0     H62582   5.722   4.202   9.164  2.7456 -1.1218  0.3902
  464MOL0     H62583   5.563   4.212   9.371  2.5087 -0.4110  1.2237
  464MOL0     H62584   5.587   4.381   9.366 -1.5656 -2.4225  0.6790
  464MOL0     H62585   5.383   4.325   9.228 -0.5000 -1.0809 -2.3844
  464MOL0     H62586   5.509   4.375   9.120  1.2464  0.4092  1.3463
  464MOL0     H62587   5.533   4.155   9.030 -1.0168 -0.8194 -0.1933
  464MOL0     H62588   5.515   4.078   9.183 -0.1104  2.2746  2.7589
  464MOL0     H62589   5.281   4.092   9.180 -2.8384  2.5453 -1.2329
  464MOL0     H62590   5.353   4.024   9.023  2.2955 -0.0667  0.0147
  464MOL0     H62591   5.056   4.108   9.029  2.5327 -1.4614  3.1633
  464MOL0     H62592   4.901   4.189   8.884 -0.4058  0.1192 -0.5549
  464MOL0     H62593   4.893   4.361   8.847 -3.6492 -0.9553 -2.8321
  464MOL0     H62594   5.030   4.311   8.639  0.8485 -0.7240  1.1878
  464MOL0     H62595   4.863   4.267   8.653  0.3109 -0.2216 -0.7275
  464MOL0     H62596   4.937   4.016   8.688  1.2274 -1.0358 -0.9430
  464MOL0     H62597   5.100   4.066   8.696  1.5750  1.8010  0.1413
  464MOL0     H62598   5.047   3.994   8.454  2.4510 -0.2104  0.4245
  464MOL0     H62599   5.029   4.171   8.450 -2.1141  1.2437 -0.2547
  464MOL0     H62600   5.046   4.089   8.238 -1.5203 -4.1191  2.0384
  464MOL0     H62601   5.102   4.222   8.042 -0.9201  2.9416  0.2766
  464MOL0     H62602   5.035   4.077   7.940 -1.7386  0.8733 -1.2592
  464MOL0     H62603   4.990   4.248   7.906 -2.2353  0.7566  1.2188
  464MOL0     H62604   4.538   4.430   7.890  3.6643  0.2083  1.6238
  464MOL0     H62605   4.419   4.577   7.697 -0.5654 -1.0230  1.8546
  464MOL0     H62606   4.358   4.531   7.427  0.4716  0.7096 -0.5969
  464MOL0     H62607   4.380   4.710   7.486  0.7266  0.6647  1.2460
  464MOL0     H62608   4.436   4.775   7.269 -0.8675  1.1441 -0.1156
  464MOL0     H62609   4.422   4.614   7.200  0.9157  1.6485 -1.4058
  464MOL0     H62610   4.187   4.785   7.305 -1.9347  0.1291 -3.7400
  464MOL0     H62611   4.174   4.612   7.276  0.5291  0.6460 -0.9098
  464MOL0     H62612   4.251   4.841   7.081 -0.3426  0.7677 -0.3966
  464MOL0     H62613   4.285   4.683   7.041 -3.2349 -0.1888 -2.3742
  464MOL0     H62614   4.047   4.595   7.095  0.4423 -1.1596 -3.0900
  464MOL0     H62615   4.065   4.698   6.954 -1.0791 -0.2988  0.4808
  464MOL0     H62616   3.951   4.798   7.216 -1.6473 -1.0268 -0.0489
  464MOL0     H62617   3.997   4.906   7.089 -0.3305  1.2819  1.3146
  464MOL0     H62618   3.822   4.662   7.041 -2.9550  0.6094 -2.0127
  464MOL0     H62619   3.835   4.801   6.932 -0.5353 -1.9784 -1.2215
  464MOL0     H62620   3.626   4.804   7.050  2.2608 -2.1993 -0.9046
  464MOL0     H62621   3.728   4.957   7.041  0.2676 -1.1639 -1.9777
  464MOL0     H62622   4.783   4.503   7.458  0.7686 -2.6717 -1.1526
  464MOL0     H62623   4.877   4.388   7.649 -1.3879 -0.8691 -1.6844
  464MOL0     H62624   4.575   4.175   8.115  0.9609 -0.2537 -0.4349
  464MOL0     H62625   4.617   4.097   8.325 -0.6605  3.1151 -0.2051
  464MOL0     H62626   6.323   4.287   9.493  2.3563  0.7679 -1.7360
  464MOL0     H62627   6.500   4.421   9.583 -1.3179 -2.5845 -1.5841
  464MOL0     H62628   6.372   4.781  10.042  1.3697 -1.2718  1.7950
  464MOL0     H62629   6.492   4.952  10.174  2.1018 -1.7104  0.5332
  464MOL0     H62630   6.900   5.074  10.029 -1.6942 -1.3778  0.1646
  464MOL0     H62631   6.799   5.208   9.978 -0.3135 -1.6217 -0.6414
  464MOL0     H62632   6.842   5.338  10.153 -1.8324 -0.7371 -1.7748
  464MOL0     H62633   6.994   5.257  10.119  1.2178 -4.8698  0.0828
  464MOL0     H62634   6.950   5.097  10.310  2.2041  1.1900 -3.7688
  464MOL0     H62635   6.801   5.195  10.346 -1.5637  1.4674 -3.3677
  464MOL0     H62636   6.985   5.266  10.505  4.0645  0.0627  0.3188
  464MOL0     H62637   6.957   5.393  10.385  0.7187  0.7127 -2.5346
  464MOL0     H62638   7.350   5.230  10.362  0.7013  0.7178 -1.0020
  464MOL0     H62639   6.778   5.001   9.849  0.1875  0.4821  1.0093
  464MOL0     H62640   6.643   4.833   9.716 -0.9179 -1.0485  0.3505
  465MOL0     O62641   9.334   1.854  10.644 -0.3547  1.0307  0.4498
  465MOL0     C62642   9.414   1.818  10.725 -0.9202  0.0786  0.4062
  465MOL0     O62643   9.554   1.810  10.712  0.1861 -0.2108  0.7041
  465MOL0     C62644   9.626   1.829  10.598  1.4201 -0.7962 -0.1060
  465MOL0     C62645   9.582   1.852  10.466  0.3390 -0.3738  0.2202
  465MOL0     C62646   9.674   1.868  10.365 -0.1799  0.0098 -0.3733
  465MOL0     C62647   9.814   1.867  10.386  0.2941 -0.2053  0.5565
  465MOL0     O62648   9.891   1.877  10.275  0.5360 -0.3488 -0.1714
  465MOL0     C62649   9.895   2.013  10.219 -0.1624  0.6412 -0.3341
  465MOL0     C62650  10.018   2.024  10.118 -0.6676 -0.0681 -0.3892
  465MOL0     C62651  10.009   1.940   9.999  0.6489  0.4953  0.5581
  465MOL0     C62652  10.127   1.961   9.906 -0.4283 -0.4801  0.0055
  465MOL0     C62653  10.143   1.842   9.816  0.6605 -0.0510 -1.1199
  465MOL0     C62654  10.241   1.867   9.699  0.5837  0.7295 -0.0677
  465MOL0     C62655  10.254   1.743   9.606  0.7639  1.1865 -0.7733
  465MOL0     C62656  10.318   1.779   9.472 -0.6211 -0.6578  0.6700
  465MOL0     N62657  10.447   1.711   9.448  0.4837 -0.4641  0.4349
  465MOL0     C62658  10.552   1.753   9.371 -0.3217  0.2648  0.1681
  465MOL0     C62659  10.636   1.652   9.375 -0.6825 -0.1894 -0.2412
  465MOL0     C62660  10.762   1.658   9.307 -0.2542  0.2293 -0.5196
  465MOL0     C62661  10.842   1.800   9.327 -0.5091  1.0907 -0.6250
  465MOL0     C62662  10.992   1.804   9.290 -0.1316 -0.3191 -0.1593
  465MOL0     C62663  10.998   1.761   9.139  0.7680  0.0462 -0.5105
  465MOL0     O62664  11.124   1.791   9.097  0.1478 -0.5410 -0.1614
  465MOL0     C62665  11.170   1.919   9.070 -0.2725 -0.1730  0.4815
  465MOL0     C62666  11.305   1.960   9.093 -0.6008 -0.7548  0.0314
  465MOL0     C62667  11.357   2.093   9.071 -0.0115  0.0187  0.2365
  465MOL0     C62668  11.507   2.119   9.096  0.3303 -0.2202  0.4626
  465MOL0     C62669  11.265   2.192   9.022  0.0076 -0.1980 -0.4176
  465MOL0     C62670  11.304   2.331   8.990 -0.5741  0.3557  0.0730
  465MOL0     O62671  11.383   2.401   9.074  0.7160  0.4909 -0.4875
  465MOL0     C62672  11.447   2.508   9.037  0.4389 -0.5549  0.4679
  465MOL0     C62673  11.528   2.532   8.929 -0.4802 -0.1507  0.0269
  465MOL0     C62674  11.589   2.654   8.930  0.5372 -0.6569  0.1242
  465MOL0     C62675  11.565   2.758   9.031 -0.9562 -0.1934  0.4721
  465MOL0     O62676  11.609   2.885   9.017  0.0332 -0.3034 -0.0022
  465MOL0     C62677  11.623   2.930   8.883 -0.0137  0.9144 -0.4285
  465MOL0     C62678  11.634   3.082   8.868  0.2226  0.1928 -1.5068
  465MOL0     C62679  11.738   3.148   8.958  0.1129  0.4338  0.7519
  465MOL0     C62680  11.868   3.056   8.981  0.1579  0.3333  0.4145
  465MOL0     C62681  11.991   3.146   9.021  0.4471 -0.2832  0.5392
  465MOL0     C62682  12.076   3.204   8.900  1.2522  0.3182 -0.3895
  465MOL0     C62683  12.167   3.317   8.949  0.2262  0.6326 -0.7255
  465MOL0     C62684  12.090   3.440   8.994  0.0428  0.3860  0.5624
  465MOL0    Cl62685  12.203   3.575   9.041 -0.7443  0.2954 -0.4878
  465MOL0     C62686  11.490   2.725   9.145 -0.5625 -0.0517  0.8898
  465MOL0     C62687  11.432   2.606   9.143  0.6513  0.6236 -0.0062
  465MOL0     O62688  11.252   2.376   8.881 -0.2909  0.6153  0.1136
  465MOL0     C62689  11.131   2.149   8.987  0.6885  0.3258  0.5369
  465MOL0     C62690  11.083   2.018   9.008 -0.1808  0.3548  0.0958
  465MOL0     N62691  10.581   1.549   9.440 -0.3571  0.8457 -0.7527
  465MOL0     N62692  10.472   1.580   9.482 -0.2719 -0.6855  0.3077
  465MOL0     C62693   9.862   1.840  10.514  0.3723 -0.7509  1.3343
  465MOL0     C62694   9.772   1.818  10.616 -0.1664 -0.0646 -0.2042
  465MOL0     C62695   9.367   1.755  10.846 -0.3724 -0.4381  0.1149
  465MOL0     C62696   9.228   1.711  10.867 -0.3661 -0.7870 -0.7140
  465MOL0     C62697   9.186   1.665  10.993  0.3044  0.3342  0.6995
  465MOL0     C62698   9.283   1.635  11.091  0.1360  0.9557 -0.4039
  465MOL0     O62699   9.226   1.580  11.208 -0.1885 -0.4017  0.4263
  465MOL0     C62700   9.309   1.516  11.314 -0.1893 -1.0228  0.0593
  465MOL0     C62701   9.234   1.478  11.439  0.1220  0.6091 -0.3208
  465MOL0     C62702   9.187   1.600  11.513 -0.0525 -0.7538 -0.0423
  465MOL0     C62703   9.043   1.637  11.478 -0.7191  0.2903  0.4331
  465MOL0     C62704   9.009   1.760  11.540 -0.2448  0.3053 -0.3803
  465MOL0     C62705   8.977   1.875  11.583 -0.4456  0.7213  0.5853
  465MOL0     C62706   9.413   1.665  11.076 -0.2851 -0.2210 -0.3911
  465MOL0     C62707   9.456   1.718  10.952 -0.2934 -0.3941 -0.7206
  465MOL0     H62708   9.479   1.875  10.441 -0.0722  1.5680  3.2046
  465MOL0     H62709   9.656   1.881  10.258 -2.7603 -0.6601 -0.1027
  465MOL0     H62710   9.803   2.034  10.163  0.8531  1.6390 -1.6803
  465MOL0     H62711   9.902   2.077  10.307 -0.5496 -0.5237  0.5794
  465MOL0     H62712  10.027   2.120  10.066 -0.2288  0.8279  1.2823
  465MOL0     H62713  10.111   2.021  10.175  0.0187  1.2380 -1.3711
  465MOL0     H62714  10.023   1.838  10.035  1.7325  0.2961 -0.3793
  465MOL0     H62715   9.912   1.956   9.951 -0.0888 -0.5816  1.6386
  465MOL0     H62716  10.088   2.039   9.840 -0.4122  1.2532  1.9400
  465MOL0     H62717  10.211   2.012   9.956 -1.2660  1.2231 -0.2340
  465MOL0     H62718  10.187   1.763   9.879 -1.3062 -0.6907 -0.4815
  465MOL0     H62719  10.046   1.798   9.791  0.4776 -0.9072  0.9347
  465MOL0     H62720  10.185   1.941   9.641 -1.6123 -0.1387  0.8427
  465MOL0     H62721  10.332   1.921   9.724  0.1387  1.4177  0.0913
  465MOL0     H62722  10.314   1.669   9.659  1.9627  2.3395 -0.4529
  465MOL0     H62723  10.160   1.691   9.588  0.9793  1.1575 -1.8554
  465MOL0     H62724  10.346   1.885   9.479 -1.1739 -0.5906  2.4749
  465MOL0     H62725  10.255   1.774   9.383  0.0088  0.2288  0.1542
  465MOL0     H62726  10.562   1.854   9.333 -0.6586  0.9108  1.7104
  465MOL0     H62727  10.824   1.574   9.341  2.0341  1.3851 -1.5967
  465MOL0     H62728  10.740   1.643   9.201  0.0711 -0.2741 -0.5211
  465MOL0     H62729  10.849   1.835   9.431  1.0673 -1.5019  0.2472
  465MOL0     H62730  10.791   1.877   9.270  1.2599  3.8595  1.2682
  465MOL0     H62731  11.069   1.749   9.345 -0.1543 -1.1772 -0.9717
  465MOL0     H62732  11.021   1.909   9.305 -0.9774 -0.1726  0.5291
  465MOL0     H62733  10.921   1.813   9.081 -1.4707 -0.2437  1.9897
  465MOL0     H62734  10.994   1.653   9.123 -3.1331 -0.0557  0.0517
  465MOL0     H62735  11.366   1.876   9.126 -1.6685 -0.9290  1.6440
  465MOL0     H62736  11.533   2.167   9.190  0.5148  0.3043  0.1436
  465MOL0     H62737  11.552   2.019   9.101 -2.3501 -1.4892  1.5750
  465MOL0     H62738  11.551   2.181   9.017  1.9677  0.0394  1.5476
  465MOL0     H62739  11.526   2.450   8.858 -1.1504 -0.4770  0.4148
  465MOL0     H62740  11.644   2.680   8.840  0.9931  1.5773  0.9858
  465MOL0     H62741  11.704   2.874   8.836 -1.7150 -1.3861 -0.7900
  465MOL0     H62742  11.534   2.907   8.823  0.2155  1.7081 -1.0928
  465MOL0     H62743  11.651   3.108   8.763  0.4949  0.2062 -1.4584
  465MOL0     H62744  11.539   3.130   8.894 -0.0697 -1.0210 -0.2301
  465MOL0     H62745  11.693   3.167   9.056  0.1370 -1.5737  1.2053
  465MOL0     H62746  11.778   3.234   8.903  0.4932 -0.8472 -1.0706
  465MOL0     H62747  11.854   2.972   9.051  2.7044  0.2447  0.9458
  465MOL0     H62748  11.888   2.994   8.893 -1.5950 -3.2925  2.3301
  465MOL0     H62749  12.051   3.091   9.093  1.2786  1.6363  1.3882
  465MOL0     H62750  11.959   3.235   9.077  0.9855  0.6705 -0.6291
  465MOL0     H62751  12.136   3.122   8.859 -0.8102 -1.7370  0.4432
  465MOL0     H62752  12.016   3.245   8.818 -0.6556 -2.1785 -0.3693
  465MOL0     H62753  12.247   3.356   8.885  1.5819 -0.0451  0.5112
  465MOL0     H62754  12.218   3.277   9.037 -1.2516 -1.5939 -0.7866
  465MOL0     H62755  12.033   3.427   9.086 -1.3242 -1.6477 -0.4843
  465MOL0     H62756  12.023   3.468   8.912  0.3172  0.3731  0.3309
  465MOL0     H62757  11.489   2.784   9.236  1.0404 -0.6978  1.3699
  465MOL0     H62758  11.377   2.583   9.234 -0.2420  0.6132 -0.5305
  465MOL0     H62759  11.060   2.211   8.933 -2.2202 -1.2833  2.2135
  465MOL0     H62760  10.986   1.975   8.983  0.4563 -0.9852 -0.1663
  465MOL0     H62761   9.970   1.827  10.519  0.4956 -0.4602 -0.1449
  465MOL0     H62762   9.797   1.779  10.714 -1.7236 -1.1334 -0.2166
  465MOL0     H62763   9.161   1.719  10.782  0.4288  0.1036 -1.2795
  465MOL0     H62764   9.083   1.641  11.020 -0.4999  0.8381 -1.7255
  465MOL0     H62765   9.366   1.427  11.288  0.7445 -0.0602 -1.2751
  465MOL0     H62766   9.384   1.592  11.337 -2.5686  1.7794 -0.8461
  465MOL0     H62767   9.297   1.411  11.498 -1.1354 -0.2425  0.1026
  465MOL0     H62768   9.142   1.421  11.421  2.0149 -2.7759 -0.0418
  465MOL0     H62769   9.251   1.687  11.495 -0.3724 -0.9649 -2.4850
  465MOL0     H62770   9.196   1.581  11.621 -3.2071 -0.0732  0.4446
  465MOL0     H62771   8.985   1.552  11.515  1.1142 -1.4216 -0.4370
  465MOL0     H62772   9.027   1.645  11.370  1.5886 -1.8405 -0.1422
  465MOL0     H62773   8.936   1.967  11.622  0.8769  1.1204  1.1017
  465MOL0     H62774   9.490   1.632  11.145 -0.9974 -1.4212 -0.1446
  465MOL0     H62775   9.563   1.734  10.948 -0.6227  1.7779 -2.6248
  466MOL0     O62776   9.496   2.840   8.355 -0.0652 -0.0906  0.9297
  466MOL0     C62777   9.613   2.797   8.347  0.4680 -0.1959 -0.6181
  466MOL0     O62778   9.718   2.878   8.327  0.2346  0.1652 -0.0904
  466MOL0     C62779   9.846   2.828   8.346 -0.8131  0.3890 -1.5117
  466MOL0     C62780   9.958   2.865   8.253  1.5001  0.1380  0.0233
  466MOL0     C62781  10.090   2.833   8.279  1.0241 -0.3659 -0.5454
  466MOL0     C62782  10.114   2.747   8.384  0.1019 -0.5767  0.5097
  466MOL0     O62783  10.242   2.700   8.389  0.7202 -0.6443 -0.1887
  466MOL0     C62784  10.282   2.616   8.498 -0.1106 -0.6281 -0.5796
  466MOL0     C62785  10.423   2.589   8.451 -0.3392 -0.0683  0.0696
  466MOL0     C62786  10.517   2.491   8.539 -0.0570  0.1388 -0.2793
  466MOL0     C62787  10.450   2.390   8.628 -0.2304  0.2446  0.0052
  466MOL0     C62788  10.556   2.276   8.678  0.0908  0.3581 -0.4288
  466MOL0     C62789  10.483   2.169   8.762 -0.5747 -0.5385 -0.5214
  466MOL0     C62790  10.578   2.046   8.779  0.9905 -0.7975  0.9265
  466MOL0     C62791  10.713   2.074   8.829 -0.2744 -1.0188 -0.5450
  466MOL0     N62792  10.723   2.121   8.973 -0.0801  0.7027 -0.2990
  466MOL0     C62793  10.712   2.256   9.016  0.4133 -0.0375  0.5133
  466MOL0     C62794  10.704   2.232   9.151  0.6989 -0.2541  0.7571
  466MOL0     C62795  10.708   2.326   9.266 -0.1886 -0.5799 -0.0199
  466MOL0     C62796  10.607   2.448   9.258 -0.3213  0.7347 -0.4018
  466MOL0     C62797  10.645   2.560   9.358  0.1091 -0.1805  0.7138
  466MOL0     C62798  10.562   2.686   9.333 -0.0604 -0.0727  0.9327
  466MOL0     O62799  10.568   2.715   9.196  0.2794  0.9971  0.1156
  466MOL0     C62800  10.471   2.802   9.151 -1.1043  0.1323  0.2316
  466MOL0     C62801  10.438   2.799   9.014 -1.0438 -0.5701  0.1431
  466MOL0     C62802  10.336   2.889   8.961 -0.3876  0.5764 -0.1717
  466MOL0     C62803  10.309   2.881   8.815 -0.1616  0.3930 -0.0490
  466MOL0     C62804  10.267   2.984   9.045 -0.5095 -0.4112  1.0634
  466MOL0     C62805  10.152   3.072   8.998 -0.3711  0.0780  0.7654
  466MOL0     O62806  10.149   3.200   9.051  1.0256 -0.1883 -0.0240
  466MOL0     C62807  10.061   3.297   9.003 -0.4445  0.4652  0.8658
  466MOL0     C62808   9.921   3.274   9.008  0.1560 -1.0867 -0.3796
  466MOL0     C62809   9.834   3.373   8.952 -0.5044 -0.1667  0.0124
  466MOL0     C62810   9.880   3.505   8.911  0.0666 -0.7446 -0.3573
  466MOL0     O62811   9.785   3.591   8.859  0.2200  0.3450  0.5693
  466MOL0     C62812   9.821   3.672   8.736  0.0089 -0.5069 -0.1695
  466MOL0     C62813   9.817   3.579   8.609  0.5165  0.9166  0.6081
  466MOL0     C62814   9.685   3.552   8.551  0.8676 -0.4022  0.5885
  466MOL0     C62815   9.678   3.492   8.412  0.6618 -0.4315  0.4114
  466MOL0     C62816   9.538   3.440   8.370  0.8352  0.5961 -0.2876
  466MOL0     C62817   9.447   3.555   8.329 -0.0306 -0.6946 -0.3273
  466MOL0     C62818   9.298   3.511   8.300 -0.2532 -0.6056  1.1154
  466MOL0     C62819   9.203   3.545   8.419 -1.0403  0.0170  0.3865
  466MOL0    Cl62820   9.027   3.501   8.394 -0.2305  0.6003  0.0125
  466MOL0     C62821  10.019   3.522   8.902  1.5526 -0.5738  0.2225
  466MOL0     C62822  10.106   3.413   8.943 -0.7603 -0.4524  0.3125
  466MOL0     O62823  10.086   3.038   8.899 -1.3171 -0.1321 -0.2826
  466MOL0     C62824  10.313   2.988   9.179  0.0398 -0.2705 -0.0121
  466MOL0     C62825  10.409   2.898   9.229 -0.4576 -1.6723  0.3980
  466MOL0     N62826  10.715   2.097   9.180  0.5419 -0.0070  0.1985
  466MOL0     N62827  10.726   2.032   9.073  0.0390  0.0831  0.0280
  466MOL0     C62828  10.016   2.710   8.474 -0.3465  0.2836  0.3167
  466MOL0     C62829   9.881   2.749   8.456 -1.1351 -0.1309  0.3851
  466MOL0     C62830   9.610   2.651   8.348 -0.2830  0.0044 -0.1586
  466MOL0     C62831   9.685   2.571   8.259 -0.4473  0.6433  0.1580
  466MOL0     C62832   9.683   2.439   8.266 -0.3909  0.4672  0.6766
  466MOL0     C62833   9.616   2.374   8.365  0.3324 -0.2058 -0.3311
  466MOL0     O62834   9.626   2.232   8.382  0.3665  0.1682  0.0686
  466MOL0     C62835   9.751   2.181   8.419 -0.1956  0.8487  0.4733
  466MOL0     C62836   9.740   2.039   8.488 -0.3307 -1.5226  0.4671
  466MOL0     C62837   9.666   1.937   8.404  0.6683  0.1322 -0.4507
  466MOL0     C62838   9.680   1.797   8.456 -0.3714 -0.5236 -0.2899
  466MOL0     C62839   9.822   1.749   8.477  0.8743  0.1604 -0.4592
  466MOL0     C62840   9.935   1.713   8.488  0.5767  0.6961 -0.0586
  466MOL0     C62841   9.550   2.456   8.458 -0.3456 -0.2044  0.3833
  466MOL0     C62842   9.532   2.586   8.443 -0.0291  1.2442 -0.4260
  466MOL0     H62843   9.947   2.928   8.166 -1.5000 -1.6629 -1.0485
  466MOL0     H62844  10.172   2.856   8.212  2.6861  1.2890  1.8952
  466MOL0     H62845  10.275   2.661   8.598 -1.6148  0.8513 -1.2898
  466MOL0     H62846  10.224   2.524   8.492  0.1082 -0.9895  1.8492
  466MOL0     H62847  10.414   2.553   8.348  2.8176  0.6862 -0.5690
  466MOL0     H62848  10.475   2.685   8.451 -0.9974  0.3545  2.3983
  466MOL0     H62849  10.575   2.431   8.468  0.3219  0.5604 -0.3300
  466MOL0     H62850  10.582   2.552   8.603 -1.9045  1.7786  0.1134
  466MOL0     H62851  10.413   2.441   8.718  2.7999  1.9599  0.4354
  466MOL0     H62852  10.361   2.352   8.579 -0.8363  0.3741  0.9789
  466MOL0     H62853  10.589   2.230   8.584  0.7255  0.0468 -0.0622
  466MOL0     H62854  10.638   2.316   8.739 -0.1147  2.5385 -1.4970
  466MOL0     H62855  10.461   2.225   8.853 -1.8867  2.2199 -2.3913
  466MOL0     H62856  10.388   2.149   8.711 -0.6652  3.3501 -2.2002
  466MOL0     H62857  10.534   1.973   8.849  2.3216 -1.7175  0.8436
  466MOL0     H62858  10.595   1.997   8.683  2.2242 -0.2350  0.8421
  466MOL0     H62859  10.756   2.150   8.763  1.1469  0.0439  1.5144
  466MOL0     H62860  10.772   1.981   8.824 -2.8504 -2.7832 -0.1424
  466MOL0     H62861  10.719   2.352   8.964  2.7412  0.5853  1.8318
  466MOL0     H62862  10.703   2.274   9.362  1.1206 -0.5676  0.0812
  466MOL0     H62863  10.808   2.370   9.266 -1.3633  2.2941  0.2552
  466MOL0     H62864  10.508   2.408   9.281 -0.2827  0.1276 -1.2583
  466MOL0     H62865  10.595   2.482   9.155 -0.2637  0.0904 -0.6234
  466MOL0     H62866  10.752   2.586   9.359 -0.1452  1.5811 -2.6523
  466MOL0     H62867  10.612   2.530   9.458 -0.5710 -2.0682 -0.0233
  466MOL0     H62868  10.607   2.765   9.394  0.7896 -1.1372  1.7333
  466MOL0     H62869  10.456   2.669   9.354 -0.3468 -0.5887 -0.7733
  466MOL0     H62870  10.496   2.735   8.949 -3.1729 -1.0713 -1.3451
  466MOL0     H62871  10.203   2.880   8.785  0.2995  1.7373 -1.8663
  466MOL0     H62872  10.354   2.968   8.767  1.8477 -0.1797  0.7008
  466MOL0     H62873  10.360   2.791   8.780 -1.5846 -0.5853  0.3022
  466MOL0     H62874   9.892   3.181   9.056 -0.3789 -1.3826 -1.2447
  466MOL0     H62875   9.727   3.354   8.941 -0.7584  0.8788  0.4734
  466MOL0     H62876   9.751   3.756   8.737  1.5746  0.8293 -0.1091
  466MOL0     H62877   9.914   3.727   8.749 -0.0169 -0.7311  1.0055
  466MOL0     H62878   9.868   3.622   8.523 -0.0324 -1.5289 -1.0060
  466MOL0     H62879   9.858   3.480   8.631  0.9175  1.1069  0.7270
  466MOL0     H62880   9.627   3.645   8.542 -2.6161 -2.5526 -1.5258
  466MOL0     H62881   9.629   3.491   8.622 -1.0254 -0.1984 -0.6412
  466MOL0     H62882   9.706   3.573   8.344 -0.5295  0.6423  1.1696
  466MOL0     H62883   9.751   3.412   8.429  1.2292  0.3905  2.1653
  466MOL0     H62884   9.482   3.374   8.438  3.1106 -1.6864 -0.4646
  466MOL0     H62885   9.539   3.374   8.283 -1.3731 -2.1475  1.5511
  466MOL0     H62886   9.435   3.629   8.408 -1.0014 -1.7815  0.5904
  466MOL0     H62887   9.486   3.607   8.241  2.8428 -2.5987 -0.3041
  466MOL0     H62888   9.300   3.402   8.287 -1.6625 -0.6463  1.0583
  466MOL0     H62889   9.268   3.559   8.206  5.2468  1.1959 -0.0554
  466MOL0     H62890   9.206   3.654   8.426  2.2689  0.1013 -0.5030
  466MOL0     H62891   9.240   3.505   8.514  0.1332  1.1873  0.4541
  466MOL0     H62892  10.055   3.609   8.848 -3.3920 -0.0091 -2.8317
  466MOL0     H62893  10.212   3.432   8.929 -1.3610  2.2380 -1.1750
  466MOL0     H62894  10.266   3.060   9.246 -0.7908 -1.2868  0.5257
  466MOL0     H62895  10.439   2.899   9.334  4.4772 -3.4338 -0.7455
  466MOL0     H62896  10.039   2.645   8.559  2.4863  1.4812  0.5798
  466MOL0     H62897   9.813   2.729   8.539 -3.4526  3.3393 -0.4563
  466MOL0     H62898   9.757   2.616   8.191 -1.0635 -0.4763 -1.3135
  466MOL0     H62899   9.731   2.375   8.193 -1.4675  0.2541  0.1379
  466MOL0     H62900   9.808   2.178   8.325 -2.7730 -0.2494 -1.1782
  466MOL0     H62901   9.803   2.238   8.496  4.0211  0.9085 -2.0778
  466MOL0     H62902   9.698   2.054   8.588  0.1910  5.4735  0.1405
  466MOL0     H62903   9.843   2.004   8.500  0.9540  1.1055 -1.7552
  466MOL0     H62904   9.687   1.937   8.297  0.1147 -0.6997 -0.5582
  466MOL0     H62905   9.560   1.964   8.406  0.6622  0.3628 -2.2536
  466MOL0     H62906   9.629   1.731   8.386 -0.6727 -0.7590  0.1463
  466MOL0     H62907   9.628   1.799   8.552  0.8675  1.0000  0.3936
  466MOL0     H62908  10.038   1.690   8.506  0.2126  1.4169  3.6708
  466MOL0     H62909   9.502   2.416   8.547 -1.6807  2.7076  1.0784
  466MOL0     H62910   9.477   2.647   8.515  3.4633  2.7125  1.2101
  467MOL0     O62911  10.521  11.424   5.539  0.1614  0.5857 -0.7921
  467MOL0     C62912  10.449  11.438   5.434 -1.0355  0.9895  1.0489
  467MOL0     O62913  10.483  11.529   5.331  0.2926 -0.1255 -0.4890
  467MOL0     C62914  10.560  11.631   5.375  0.2885 -0.7902  0.6262
  467MOL0     C62915  10.696  11.642   5.340 -0.2647 -0.0880 -0.1782
  467MOL0     C62916  10.777  11.753   5.392 -0.5255 -0.9272  0.3299
  467MOL0     C62917  10.723  11.850   5.469 -0.5780  0.3149 -0.1608
  467MOL0     O62918  10.811  11.941   5.527  0.1754  0.3161  0.1100
  467MOL0     C62919  10.887  12.030   5.443 -0.5059  0.4072 -0.1479
  467MOL0     C62920  10.977  12.129   5.520  1.1121  0.6311 -0.4406
  467MOL0     C62921  11.078  12.214   5.435 -0.8178 -0.0221 -0.2308
  467MOL0     C62922  11.100  12.341   5.529  0.5511 -0.4561  0.7349
  467MOL0     C62923  11.210  12.438   5.481  0.3450  0.2738  0.1901
  467MOL0     C62924  11.181  12.505   5.339  0.6050  0.1211  0.3805
  467MOL0     C62925  11.284  12.598   5.280 -0.3429 -0.8063  0.6123
  467MOL0     C62926  11.274  12.605   5.127 -0.4010  0.8517 -0.8983
  467MOL0     N62927  11.154  12.658   5.063 -0.8498 -0.0171 -0.5444
  467MOL0     C62928  11.050  12.574   5.042 -0.0714  1.0414  0.7038
  467MOL0     C62929  10.977  12.639   4.948  0.2630 -0.5854 -0.4405
  467MOL0     C62930  10.861  12.592   4.869 -0.6035  0.1223 -0.7971
  467MOL0     C62931  10.752  12.517   4.951  0.0896 -0.1832 -0.4624
  467MOL0     C62932  10.637  12.463   4.864 -0.5139 -0.4726 -0.7500
  467MOL0     C62933  10.555  12.574   4.805 -1.2134  1.5138  0.0802
  467MOL0     O62934  10.459  12.529   4.712 -0.5764 -0.4092 -0.9051
  467MOL0     C62935  10.342  12.595   4.688 -0.3209 -0.7918  0.1809
  467MOL0     C62936  10.317  12.638   4.555  0.2383  0.6002 -0.4249
  467MOL0     C62937  10.199  12.708   4.522  0.1039  0.1814 -0.1677
  467MOL0     C62938  10.181  12.742   4.373  0.6955  0.8189 -0.1315
  467MOL0     C62939  10.108  12.739   4.630  0.1427  0.5351  0.3414
  467MOL0     C62940   9.981  12.808   4.612 -0.1198 -0.2487  0.7024
  467MOL0     O62941   9.902  12.816   4.720  0.8032  0.3263 -0.6655
  467MOL0     C62942   9.788  12.885   4.701 -0.3264 -0.2581 -0.4278
  467MOL0     C62943   9.678  12.825   4.649 -0.1998 -0.4609  0.0905
  467MOL0     C62944   9.555  12.893   4.650  0.5860 -0.9675  1.2444
  467MOL0     C62945   9.549  13.033   4.687 -0.2617 -0.0248 -0.3615
  467MOL0     O62946   9.428  13.095   4.659  0.0551  0.2753 -0.5905
  467MOL0     C62947   9.418  13.237   4.665 -0.2557 -0.9710  0.0396
  467MOL0     C62948   9.290  13.288   4.608  0.3898  0.3967  0.3550
  467MOL0     C62949   9.276  13.240   4.458  1.7608 -0.1188 -0.4629
  467MOL0     C62950   9.126  13.258   4.413 -1.1445  0.1024 -0.1133
  467MOL0     C62951   9.019  13.178   4.482  0.0387  0.6665  0.3456
  467MOL0     C62952   8.882  13.181   4.408 -0.7166  0.6189 -0.1442
  467MOL0     C62953   8.768  13.121   4.492  0.8094 -0.5877 -0.4539
  467MOL0     C62954   8.631  13.189   4.467 -0.2124 -0.0133  0.6688
  467MOL0    Cl62955   8.585  13.156   4.285 -0.0840 -0.3240  0.0937
  467MOL0     C62956   9.670  13.096   4.724  0.6562  0.6596  0.5266
  467MOL0     C62957   9.784  13.021   4.735  0.6240  0.2974  0.7051
  467MOL0     O62958   9.958  12.855   4.497  0.3473 -0.5203  0.5794
  467MOL0     C62959  10.140  12.691   4.757 -0.3130 -0.3396  0.1417
  467MOL0     C62960  10.251  12.624   4.786 -0.7836 -0.4878 -0.2103
  467MOL0     N62961  11.042  12.759   4.915 -0.3852 -0.5902 -0.5058
  467MOL0     N62962  11.138  12.774   4.999  0.2088  1.2322  0.1326
  467MOL0     C62963  10.590  11.838   5.508  0.4993  0.7978 -0.1090
  467MOL0     C62964  10.509  11.728   5.464  0.3366 -0.4091 -0.4951
  467MOL0     C62965  10.331  11.344   5.417  1.0726 -0.1827 -0.2850
  467MOL0     C62966  10.242  11.370   5.318  0.1595  0.4881  0.9504
  467MOL0     C62967  10.137  11.276   5.292 -0.1768 -0.3726 -0.6270
  467MOL0     C62968  10.117  11.155   5.364 -0.3383 -0.4773  0.6566
  467MOL0     O62969  10.025  11.064   5.319  0.4193 -0.2350 -0.3596
  467MOL0     C62970   9.998  10.955   5.405 -0.3917 -0.5451 -0.5426
  467MOL0     C62971  10.106  10.843   5.379  0.1429 -0.0201  0.0744
  467MOL0     C62972  10.069  10.742   5.264  0.8644 -1.0344  0.1899
  467MOL0     C62973  10.177  10.646   5.230 -0.7421 -0.2220  0.0578
  467MOL0     C62974  10.190  10.559   5.352 -0.5430 -0.3684  0.1496
  467MOL0     C62975  10.211  10.492   5.447 -0.3623  0.0288  1.3613
  467MOL0     C62976  10.202  11.137   5.470 -0.2435  0.1392  0.0395
  467MOL0     C62977  10.308  11.230   5.499  0.4937  0.9398  0.2714
  467MOL0     H62978  10.752  11.570   5.282  3.8844  0.1989  2.9620
  467MOL0     H62979  10.878  11.764   5.355  0.0941  3.2307  2.6705
  467MOL0     H62980  10.941  11.973   5.367 -1.2584 -0.9211  0.2863
  467MOL0     H62981  10.811  12.089   5.391  0.4889  1.0966 -0.8686
  467MOL0     H62982  10.901  12.187   5.574 -1.7750 -1.9043 -1.5032
  467MOL0     H62983  11.036  12.079   5.597  1.1270 -0.6606 -1.2625
  467MOL0     H62984  11.162  12.148   5.410 -0.5090  0.6278 -0.9528
  467MOL0     H62985  11.035  12.237   5.336 -3.5475 -1.0830  0.6132
  467MOL0     H62986  11.013  12.406   5.543  1.7215  1.5579 -0.7441
  467MOL0     H62987  11.123  12.309   5.631  2.0202 -1.0669  0.2438
  467MOL0     H62988  11.226  12.521   5.550  6.0912  0.0044 -0.3446
  467MOL0     H62989  11.302  12.380   5.478  1.6923  2.3252 -3.1159
  467MOL0     H62990  11.184  12.417   5.274 -2.4783  1.0147 -1.1514
  467MOL0     H62991  11.079  12.542   5.327  0.2546 -1.6375 -4.1878
  467MOL0     H62992  11.246  12.696   5.310 -2.2427 -2.0910  2.8130
  467MOL0     H62993  11.386  12.578   5.313 -0.4647  0.4669  1.8969
  467MOL0     H62994  11.297  12.500   5.105 -2.8887 -0.0294  0.3160
  467MOL0     H62995  11.351  12.672   5.089 -0.8776  0.5565 -2.4484
  467MOL0     H62996  11.023  12.474   5.077  1.4169 -0.8664 -3.0403
  467MOL0     H62997  10.833  12.682   4.815  1.5896  1.4062  0.0663
  467MOL0     H62998  10.896  12.513   4.802 -0.3592 -0.6678  0.2339
  467MOL0     H62999  10.720  12.580   5.035  2.9174  0.4101  0.2620
  467MOL0     H63000  10.786  12.422   4.994  2.5186 -0.2780 -2.4230
  467MOL0     H63001  10.559  12.414   4.923  0.0282  0.5625  0.8888
  467MOL0     H63002  10.669  12.399   4.781 -0.1037 -0.3050 -0.7219
  467MOL0     H63003  10.630  12.626   4.745  0.3905 -0.5375  0.2177
  467MOL0     H63004  10.500  12.641   4.872 -1.9092  1.1752 -0.1366
  467MOL0     H63005  10.397  12.614   4.486  1.1621  1.9028  0.1497
  467MOL0     H63006  10.158  12.848   4.358  0.3418  0.5666 -1.4440
  467MOL0     H63007  10.273  12.732   4.314 -0.3171  0.7477 -1.7576
  467MOL0     H63008  10.096  12.691   4.328 -0.8643  2.2643  1.0669
  467MOL0     H63009   9.678  12.721   4.619 -0.8130 -0.4113 -0.0862
  467MOL0     H63010   9.471  12.827   4.628 -0.3327 -0.3084  2.6392
  467MOL0     H63011   9.439  13.263   4.769 -1.6687 -0.7876  0.2908
  467MOL0     H63012   9.492  13.280   4.596 -0.8878 -1.1073 -0.7496
  467MOL0     H63013   9.204  13.252   4.665  1.5466 -1.0959  1.2470
  467MOL0     H63014   9.279  13.397   4.620 -0.5000  0.3846 -0.3022
  467MOL0     H63015   9.317  13.140   4.443  1.1363 -0.3633 -0.5823
  467MOL0     H63016   9.339  13.299   4.391  0.7125 -1.7212 -3.0186
  467MOL0     H63017   9.086  13.359   4.411 -0.3229  0.4523 -3.3518
  467MOL0     H63018   9.133  13.223   4.309  0.5807  0.9570 -0.2981
  467MOL0     H63019   9.007  13.212   4.585 -0.6468  0.7263  0.2518
  467MOL0     H63020   9.065  13.079   4.484 -0.0426  0.5197 -2.2281
  467MOL0     H63021   8.853  13.284   4.385  2.3268  1.3381 -1.2734
  467MOL0     H63022   8.886  13.123   4.315  1.9678 -2.5290  1.7436
  467MOL0     H63023   8.790  13.117   4.599 -1.7834  0.2285  0.1703
  467MOL0     H63024   8.767  13.013   4.472 -1.1028 -0.9805  1.4062
  467MOL0     H63025   8.629  13.294   4.497 -1.3728 -0.8043  3.7472
  467MOL0     H63026   8.556  13.137   4.527  1.1555 -1.9044  0.8205
  467MOL0     H63027   9.671  13.200   4.754 -0.1246  0.6014  0.7777
  467MOL0     H63028   9.875  13.067   4.772  2.6961 -2.5546 -0.5528
  467MOL0     H63029  10.066  12.698   4.836 -0.7958 -2.9823 -0.0056
  467MOL0     H63030  10.287  12.583   4.880  2.4250 -4.3038 -2.7676
  467MOL0     H63031  10.546  11.909   5.577  4.1459  1.5627  1.6761
  467MOL0     H63032  10.406  11.722   5.499  0.4212  2.2117  0.4472
  467MOL0     H63033  10.257  11.444   5.240 -1.7584 -0.3760 -0.3153
  467MOL0     H63034  10.060  11.294   5.218 -0.4380  2.9397  0.3190
  467MOL0     H63035   9.979  10.971   5.512 -4.0356 -2.3098 -0.7494
  467MOL0     H63036   9.903  10.915   5.368  0.1466 -4.1976  1.5268
  467MOL0     H63037  10.109  10.787   5.473  0.2406  2.6739  1.7819
  467MOL0     H63038  10.206  10.886   5.368 -0.3418  1.7705  2.0999
  467MOL0     H63039  10.030  10.797   5.177 -0.6023 -0.7089  1.0088
  467MOL0     H63040   9.981  10.687   5.300  0.9883 -0.6416  1.1134
  467MOL0     H63041  10.262  10.710   5.205 -4.1756  4.7385 -0.2886
  467MOL0     H63042  10.150  10.577   5.149 -0.4846 -1.3322  0.8935
  467MOL0     H63043  10.237  10.419   5.521 -1.1076 -2.0443 -0.3351
  467MOL0     H63044  10.207  11.048   5.532  0.2725  0.0494 -0.1301
  467MOL0     H63045  10.387  11.209   5.571  2.0359 -1.2298 -1.9008
  468MOL0     O63046   0.661   3.451   7.962 -1.1623 -0.0263 -0.7296
  468MOL0     C63047   0.631   3.363   8.040 -0.3095  0.4490 -0.3809
  468MOL0     O63048   0.714   3.273   8.106 -0.3473 -0.0936 -0.0617
  468MOL0     C63049   0.842   3.285   8.065 -0.0515 -0.8125 -0.3030
  468MOL0     C63050   0.917   3.401   8.079 -0.1027  1.5405 -0.9688
  468MOL0     C63051   1.062   3.406   8.060  0.3212 -0.1828 -0.7874
  468MOL0     C63052   1.125   3.289   8.023 -0.4429  0.0901  0.6794
  468MOL0     O63053   1.263   3.300   7.993  0.3312 -0.5622 -0.4997
  468MOL0     C63054   1.294   3.397   7.895  0.7888  0.8633  0.1860
  468MOL0     C63055   1.383   3.329   7.785 -0.5671  0.1639 -0.1906
  468MOL0     C63056   1.394   3.432   7.674  0.0425 -0.7918 -0.2271
  468MOL0     C63057   1.458   3.356   7.553  0.1027  0.2721  1.0546
  468MOL0     C63058   1.412   3.420   7.419  0.2329 -0.5086 -0.9519
  468MOL0     C63059   1.490   3.365   7.297 -0.3165 -0.6525 -0.4633
  468MOL0     C63060   1.627   3.450   7.287  0.9696  0.2399  0.6720
  468MOL0     C63061   1.742   3.358   7.239  0.4107  0.3123  0.0026
  468MOL0     N63062   1.782   3.260   7.340 -0.3891 -0.4776  0.1344
  468MOL0     C63063   1.848   3.298   7.457  0.2135 -0.6629 -0.4539
  468MOL0     C63064   1.899   3.179   7.500  0.6266 -0.6004 -1.1506
  468MOL0     C63065   1.945   3.166   7.643 -1.4851 -0.0607  0.8041
  468MOL0     C63066   1.840   3.118   7.746 -1.5581 -0.0241  0.4878
  468MOL0     C63067   1.893   3.109   7.888  0.1538  0.2889  0.0482
  468MOL0     C63068   1.934   3.248   7.951 -1.0075 -0.3825 -0.0935
  468MOL0     O63069   1.824   3.338   7.948 -0.2981 -0.5500 -0.2902
  468MOL0     C63070   1.842   3.475   7.971 -0.0248  0.3484  0.0935
  468MOL0     C63071   1.733   3.564   7.952 -0.5415 -0.1784  0.5717
  468MOL0     C63072   1.738   3.703   7.986  0.8454 -0.4497 -0.0966
  468MOL0     C63073   1.604   3.783   7.980  0.6573  1.9266 -0.1121
  468MOL0     C63074   1.858   3.759   8.028  0.2753 -0.4019  0.0443
  468MOL0     C63075   1.887   3.901   8.068  0.6184 -0.0157  0.2891
  468MOL0     O63076   2.018   3.943   8.055  0.3920 -0.9880 -0.3616
  468MOL0     C63077   2.031   4.078   8.082 -0.0628 -0.3498  0.4452
  468MOL0     C63078   2.139   4.116   8.166  0.0856  0.6233 -0.3337
  468MOL0     C63079   2.171   4.251   8.189 -0.3040 -0.1145 -0.1920
  468MOL0     C63080   2.105   4.352   8.125 -0.1422 -0.0217 -0.6064
  468MOL0     O63081   2.138   4.483   8.139  0.8457 -0.3511  0.6599
  468MOL0     C63082   2.274   4.523   8.157 -1.0011  0.3082 -0.1552
  468MOL0     C63083   2.276   4.673   8.153  0.4791  0.2188  0.1500
  468MOL0     C63084   2.414   4.725   8.150  0.2746  0.3447  0.8802
  468MOL0     C63085   2.410   4.881   8.127  0.0234  0.3509  0.1589
  468MOL0     C63086   2.553   4.951   8.142  0.4036  0.2071  0.0776
  468MOL0     C63087   2.588   4.973   8.288 -0.0030  0.0799 -0.3694
  468MOL0     C63088   2.725   5.039   8.311  0.1563  0.4869 -0.5300
  468MOL0     C63089   2.719   5.181   8.310  0.0227  0.7321  0.1422
  468MOL0    Cl63090   2.647   5.266   8.447  0.3849 -0.1828 -0.4444
  468MOL0     C63091   2.007   4.318   8.033  0.1204  0.4714 -0.7954
  468MOL0     C63092   1.968   4.186   8.010 -0.8119  0.8632 -0.6444
  468MOL0     O63093   1.791   3.967   8.105 -0.2114  0.7633  0.3265
  468MOL0     C63094   1.967   3.675   8.048  0.8892  0.6076 -0.6517
  468MOL0     C63095   1.955   3.537   8.025  0.3724 -0.2068 -0.3428
  468MOL0     N63096   1.877   3.080   7.411 -0.0274 -0.2773 -0.0313
  468MOL0     N63097   1.804   3.131   7.318 -0.2138 -0.1100 -0.3342
  468MOL0     C63098   1.053   3.166   8.009 -0.7647 -0.1102  0.1616
  468MOL0     C63099   0.914   3.171   8.036  0.4034  0.6461  0.1111
  468MOL0     C63100   0.490   3.369   8.068  0.3983  0.0727 -0.3976
  468MOL0     C63101   0.416   3.488   8.089 -0.0392 -0.3131 -0.5236
  468MOL0     C63102   0.279   3.497   8.111 -0.0664 -0.2630 -0.0528
  468MOL0     C63103   0.210   3.374   8.111 -0.8757  0.4668 -0.4874
  468MOL0     O63104   0.075   3.377   8.127  0.2065  0.4304  0.3558
  468MOL0     C63105   0.001   3.257   8.131 -0.5996 -0.4252  0.7607
  468MOL0     C63106  -0.144   3.300   8.112  0.5720  0.3913 -0.8891
  468MOL0     C63107  -0.253   3.191   8.140  0.2343  0.9172  0.1338
  468MOL0     C63108  -0.263   3.086   8.029 -0.3105 -0.3234 -0.3525
  468MOL0     C63109  -0.152   3.001   7.994  0.0627 -0.8086 -0.4792
  468MOL0     C63110  -0.058   2.932   7.974 -0.9233 -0.2175 -0.1328
  468MOL0     C63111   0.280   3.252   8.109 -0.5461  0.7349  0.3648
  468MOL0     C63112   0.420   3.254   8.089 -1.1058 -0.0696 -0.2036
  468MOL0     H63113   0.859   3.486   8.114  0.2381  1.5183 -0.3275
  468MOL0     H63114   1.124   3.494   8.076  2.0167 -1.3855 -0.4156
  468MOL0     H63115   1.201   3.432   7.850  0.6288 -1.7940 -1.8323
  468MOL0     H63116   1.342   3.481   7.945  0.4788  1.1813 -0.0440
  468MOL0     H63117   1.479   3.317   7.836 -0.9627  2.9404  1.3967
  468MOL0     H63118   1.338   3.235   7.752  0.2755 -0.7668  1.2267
  468MOL0     H63119   1.296   3.475   7.652  2.0277  4.2880 -0.4063
  468MOL0     H63120   1.449   3.523   7.700 -0.4551 -0.5118 -0.1507
  468MOL0     H63121   1.566   3.375   7.559 -0.1622  2.8675 -0.7464
  468MOL0     H63122   1.437   3.249   7.548 -1.0522  0.5486 -1.1398
  468MOL0     H63123   1.304   3.403   7.417 -0.6538  3.6464  0.8282
  468MOL0     H63124   1.426   3.528   7.426  2.6702 -0.8594  0.6372
  468MOL0     H63125   1.510   3.260   7.321 -1.0582 -0.5916  0.4551
  468MOL0     H63126   1.434   3.370   7.203  0.3286  1.6975 -0.7746
  468MOL0     H63127   1.616   3.529   7.212 -0.1110  0.5150  1.1043
  468MOL0     H63128   1.653   3.498   7.381  1.8738  0.3356  0.3880
  468MOL0     H63129   1.827   3.422   7.216  1.5451 -1.3186 -0.5606
  468MOL0     H63130   1.729   3.300   7.146  4.2312 -1.5162  0.4171
  468MOL0     H63131   1.830   3.391   7.511  1.0909 -0.1306 -1.0399
  468MOL0     H63132   2.033   3.102   7.643 -1.3304  0.1363  0.1060
  468MOL0     H63133   1.978   3.264   7.678 -1.8823  0.1426  0.6218
  468MOL0     H63134   1.817   3.013   7.727  0.1495 -0.3703  0.2334
  468MOL0     H63135   1.754   3.186   7.751 -0.9437  1.2791 -3.5916
  468MOL0     H63136   1.976   3.038   7.884  1.8702  2.1267  1.3115
  468MOL0     H63137   1.802   3.069   7.934 -2.5379  0.3482 -4.5119
  468MOL0     H63138   2.012   3.300   7.895 -2.1182 -0.0635 -1.3894
  468MOL0     H63139   1.968   3.244   8.055 -1.4725 -0.7878  0.0471
  468MOL0     H63140   1.636   3.518   7.935  0.4418 -2.4825  0.9153
  468MOL0     H63141   1.615   3.888   7.953 -3.2295  2.3875 -0.4449
  468MOL0     H63142   1.534   3.725   7.920  1.8409 -0.2964  0.5095
  468MOL0     H63143   1.561   3.788   8.081  1.0400  0.2823  0.1746
  468MOL0     H63144   2.198   4.040   8.216  0.9757  1.4117 -0.1663
  468MOL0     H63145   2.248   4.271   8.263  0.3990  0.2048 -1.0009
  468MOL0     H63146   2.309   4.488   8.254 -1.6591  0.1678  0.0366
  468MOL0     H63147   2.332   4.484   8.072  1.0000  2.1513  0.2930
  468MOL0     H63148   2.222   4.706   8.064 -0.2007  2.8308  1.4307
  468MOL0     H63149   2.223   4.708   8.241  1.4393 -0.2753  0.9474
  468MOL0     H63150   2.473   4.687   8.066 -0.5228 -0.0299  0.4824
  468MOL0     H63151   2.465   4.686   8.239 -0.8713 -3.6679 -0.0165
  468MOL0     H63152   2.369   4.902   8.028 -0.4752  1.0095  0.4863
  468MOL0     H63153   2.335   4.927   8.193 -1.6319 -2.0998  0.1002
  468MOL0     H63154   2.556   5.051   8.097 -3.4290  1.6322  2.4253
  468MOL0     H63155   2.627   4.894   8.086 -1.3431 -1.4167 -0.6942
  468MOL0     H63156   2.511   5.042   8.324 -1.9822 -1.1038 -2.1187
  468MOL0     H63157   2.568   4.884   8.348 -2.7811  1.0402  0.2620
  468MOL0     H63158   2.794   5.020   8.228  0.2550  3.9782 -1.4211
  468MOL0     H63159   2.765   5.004   8.406 -0.6748  0.8249 -0.0456
  468MOL0     H63160   2.638   5.208   8.242 -2.1987 -2.2031  1.4355
  468MOL0     H63161   2.811   5.237   8.291  0.6298  0.3549  1.7914
  468MOL0     H63162   1.967   4.398   7.971 -0.4339  1.0262  0.2351
  468MOL0     H63163   1.900   4.164   7.927  0.8652  0.1070 -1.8720
  468MOL0     H63164   2.062   3.704   8.092  0.9573  0.5936 -0.7874
  468MOL0     H63165   2.043   3.476   8.040 -1.7271 -2.8988  2.1221
  468MOL0     H63166   1.105   3.077   7.974 -1.7982  0.1612 -2.2189
  468MOL0     H63167   0.858   3.078   8.032 -1.8527  1.9630 -1.2311
  468MOL0     H63168   0.472   3.580   8.100 -0.7351  0.3136 -1.9124
  468MOL0     H63169   0.220   3.588   8.104 -1.6934 -1.3281 -0.8224
  468MOL0     H63170   0.027   3.198   8.042 -2.4169  1.4365 -1.1341
  468MOL0     H63171   0.017   3.195   8.219  3.0580 -0.7089  0.0577
  468MOL0     H63172  -0.162   3.345   8.014  2.5449 -1.0062 -1.9633
  468MOL0     H63173  -0.154   3.375   8.191  0.5227  0.2349 -0.7451
  468MOL0     H63174  -0.354   3.231   8.149 -0.4001 -0.2405 -1.3621
  468MOL0     H63175  -0.212   3.144   8.230 -1.3756  1.6350  1.2675
  468MOL0     H63176  -0.298   3.136   7.938  2.7214 -0.8171 -1.8987
  468MOL0     H63177  -0.343   3.015   8.053 -2.2713  2.1258  0.8778
  468MOL0     H63178   0.016   2.860   7.947 -2.5871 -1.0284 -2.9447
  468MOL0     H63179   0.237   3.153   8.119  0.4623 -0.0265 -2.0703
  468MOL0     H63180   0.484   3.166   8.098 -0.7523 -0.2546 -3.4707
  469MOL0     O63181   2.589   1.602  10.062 -0.2682 -0.3962  0.2754
  469MOL0     C63182   2.586   1.694  10.149  0.4259 -0.0366  0.6877
  469MOL0     O63183   2.602   1.833  10.121 -0.2750 -0.2923  0.0717
  469MOL0     C63184   2.598   1.854   9.982 -1.5949 -0.5585 -0.1238
  469MOL0     C63185   2.713   1.896   9.910  0.1727  1.0658 -0.1591
  469MOL0     C63186   2.703   1.930   9.776  0.4587 -0.5485  0.7399
  469MOL0     C63187   2.582   1.928   9.704  0.2648  0.0227  0.0272
  469MOL0     O63188   2.580   1.971   9.571 -0.4603 -0.4828 -0.9548
  469MOL0     C63189   2.675   1.917   9.481 -0.8443  0.2632 -0.2266
  469MOL0     C63190   2.621   1.928   9.337 -0.2269 -0.5237 -0.2920
  469MOL0     C63191   2.568   2.067   9.295  0.2692  0.2470 -0.0829
  469MOL0     C63192   2.521   2.062   9.159 -0.7015  0.2697  0.1935
  469MOL0     C63193   2.481   2.194   9.099 -0.0946  0.4252 -0.5513
  469MOL0     C63194   2.417   2.173   8.963 -0.3700 -0.5467  0.2033
  469MOL0     C63195   2.361   2.308   8.901  0.8706  0.6057 -0.0927
  469MOL0     C63196   2.250   2.284   8.794 -0.1427 -0.1048 -0.3404
  469MOL0     N63197   2.239   2.386   8.687  0.9593  0.3203 -0.2776
  469MOL0     C63198   2.154   2.499   8.695 -0.3090  0.8572 -0.6333
  469MOL0     C63199   2.142   2.550   8.574 -0.7502 -0.0309  0.0888
  469MOL0     C63200   2.062   2.666   8.535  0.8891 -0.6240  1.0588
  469MOL0     C63201   2.137   2.769   8.453 -0.0803 -0.2975  1.2539
  469MOL0     C63202   2.054   2.869   8.368  0.2658  0.4214  0.1426
  469MOL0     C63203   1.954   2.969   8.436  0.0750  0.1463  0.0343
  469MOL0     O63204   2.047   3.055   8.510  1.0170 -0.4085  0.0837
  469MOL0     C63205   2.001   3.166   8.582  0.4062 -0.9163 -0.2836
  469MOL0     C63206   1.864   3.177   8.617 -0.1849 -0.6117 -0.2864
  469MOL0     C63207   1.816   3.297   8.658  0.8728 -1.1246 -0.2299
  469MOL0     C63208   1.667   3.295   8.690  0.2896  0.0162 -0.4456
  469MOL0     C63209   1.905   3.409   8.690  0.5156 -0.4407 -0.1860
  469MOL0     C63210   1.860   3.540   8.735  0.4689  0.0653 -0.3400
  469MOL0     O63211   1.966   3.612   8.799  0.3479 -0.1348 -0.2786
  469MOL0     C63212   1.935   3.737   8.835  0.0195  0.0924 -0.1224
  469MOL0     C63213   2.013   3.835   8.773 -0.4624  0.9590 -0.1345
  469MOL0     C63214   1.995   3.974   8.791 -0.3955 -0.9818 -0.7031
  469MOL0     C63215   1.908   4.020   8.884 -0.2863  0.8850 -0.1108
  469MOL0     O63216   1.902   4.153   8.906 -0.9051  1.0624 -0.8343
  469MOL0     C63217   1.951   4.178   9.042  0.6015  0.6044  0.5436
  469MOL0     C63218   1.859   4.266   9.119 -0.1726  1.1334 -0.2745
  469MOL0     C63219   1.866   4.413   9.070  0.4799  0.4929 -0.5813
  469MOL0     C63220   1.752   4.487   9.149  0.5191 -0.0244  0.8439
  469MOL0     C63221   1.803   4.638   9.138  0.1297 -0.9056 -0.3924
  469MOL0     C63222   1.698   4.733   9.187  0.4701 -0.4522  0.3328
  469MOL0     C63223   1.698   4.874   9.114 -0.4368  0.3663 -1.2199
  469MOL0     C63224   1.613   4.962   9.207  0.5090 -0.1581  0.5694
  469MOL0    Cl63225   1.440   4.896   9.190  0.0854 -0.6130  0.0601
  469MOL0     C63226   1.816   3.930   8.938 -0.2222  0.6351  0.0308
  469MOL0     C63227   1.827   3.792   8.914 -0.1005  0.4247 -0.1581
  469MOL0     O63228   1.746   3.577   8.718 -0.8372 -0.1801 -0.2273
  469MOL0     C63229   2.042   3.389   8.667 -0.1208  0.7271  0.0156
  469MOL0     C63230   2.092   3.265   8.619 -0.9805  0.0358  0.9009
  469MOL0     N63231   2.220   2.472   8.489  0.1479  0.4930 -0.9212
  469MOL0     N63232   2.268   2.374   8.555  0.7179 -0.6759  0.7014
  469MOL0     C63233   2.464   1.889   9.781  0.1507  0.0958  0.0202
  469MOL0     C63234   2.482   1.855   9.916  0.0527  0.5387  0.0144
  469MOL0     C63235   2.593   1.646  10.289  0.1758  0.0971 -0.7308
  469MOL0     C63236   2.531   1.526  10.325 -0.3183 -0.0451  1.4449
  469MOL0     C63237   2.506   1.482  10.453 -0.2959  0.2579  0.2850
  469MOL0     C63238   2.568   1.563  10.547 -0.0143  0.3359 -0.8682
  469MOL0     O63239   2.566   1.552  10.686 -0.3249 -0.6125  1.0377
  469MOL0     C63240   2.507   1.439  10.752  0.2601 -0.4684  0.9326
  469MOL0     C63241   2.611   1.402  10.872  0.9373 -0.5878 -0.2339
  469MOL0     C63242   2.544   1.317  10.979  0.4158 -0.3067  0.4194
  469MOL0     C63243   2.650   1.255  11.075  0.5404  1.1108 -0.3018
  469MOL0     C63244   2.588   1.162  11.175 -0.9127 -0.1199  0.1005
  469MOL0     C63245   2.538   1.089  11.257 -0.5240  0.1607  0.5024
  469MOL0     C63246   2.651   1.667  10.518  0.5034  0.9776 -0.3060
  469MOL0     C63247   2.660   1.722  10.388  0.6646 -0.7017 -0.2328
  469MOL0     H63248   2.810   1.905   9.958  0.5534 -1.0815 -0.4305
  469MOL0     H63249   2.797   1.956   9.730  0.1633 -0.4255  0.1993
  469MOL0     H63250   2.770   1.970   9.493 -1.6793  2.0349 -1.0027
  469MOL0     H63251   2.686   1.809   9.494 -0.2537  0.4171  0.6662
  469MOL0     H63252   2.702   1.899   9.270 -1.1767 -3.0249 -0.4487
  469MOL0     H63253   2.544   1.852   9.324 -1.1468  0.5235 -1.2545
  469MOL0     H63254   2.487   2.095   9.363  1.0411 -1.0127  1.3986
  469MOL0     H63255   2.649   2.140   9.299 -0.0743  0.6662 -0.7035
  469MOL0     H63256   2.607   2.035   9.096 -0.3043  0.2055  0.7619
  469MOL0     H63257   2.440   1.988   9.150 -0.9503  0.5292  0.2986
  469MOL0     H63258   2.405   2.234   9.167 -0.7215 -1.0804 -0.3298
  469MOL0     H63259   2.558   2.270   9.085 -2.5678  2.9445 -1.4628
  469MOL0     H63260   2.502   2.150   8.898 -1.4533  3.2868 -2.9863
  469MOL0     H63261   2.337   2.099   8.962  0.0965 -1.0778  1.1127
  469MOL0     H63262   2.321   2.366   8.985  0.4216  2.7267 -1.6748
  469MOL0     H63263   2.443   2.370   8.863  1.7580  0.6151  1.7097
  469MOL0     H63264   2.158   2.277   8.852 -2.6332 -1.9953 -4.1339
  469MOL0     H63265   2.268   2.182   8.758  3.0381 -1.6532  4.5634
  469MOL0     H63266   2.101   2.536   8.782 -2.3661  0.4429 -1.6396
  469MOL0     H63267   1.969   2.625   8.493  1.4075 -2.0068  1.2213
  469MOL0     H63268   2.029   2.730   8.618  0.3740  0.8016 -0.1944
  469MOL0     H63269   2.202   2.723   8.378 -0.9588  0.5096 -0.0489
  469MOL0     H63270   2.199   2.829   8.520  1.6306  0.1085 -0.6022
  469MOL0     H63271   1.997   2.820   8.288  2.1249  1.0187 -1.6618
  469MOL0     H63272   2.126   2.931   8.314  1.0568  1.2260  2.0299
  469MOL0     H63273   1.885   2.907   8.493 -0.7822 -0.8291 -1.9480
  469MOL0     H63274   1.904   3.024   8.356  2.3454 -1.8512 -2.9928
  469MOL0     H63275   1.803   3.088   8.603  0.0908 -0.7977 -0.3313
  469MOL0     H63276   1.631   3.379   8.750 -1.5411  0.5950 -2.2362
  469MOL0     H63277   1.600   3.279   8.605 -3.3579 -1.1337  2.3545
  469MOL0     H63278   1.637   3.210   8.752 -1.9096  3.8278  4.4783
  469MOL0     H63279   2.089   3.788   8.711  0.2969 -0.1332  1.5568
  469MOL0     H63280   2.048   4.049   8.733  0.3395 -1.2813 -0.4296
  469MOL0     H63281   1.964   4.085   9.097 -0.4653  0.3887  0.4642
  469MOL0     H63282   2.048   4.228   9.038  0.0943  1.6852  1.1994
  469MOL0     H63283   1.760   4.221   9.130 -1.1244  2.1438 -3.6080
  469MOL0     H63284   1.900   4.274   9.220 -0.6603  1.7417 -0.1129
  469MOL0     H63285   1.847   4.411   8.962 -0.8097  1.9487 -0.4128
  469MOL0     H63286   1.965   4.452   9.096  0.1094  2.1903 -1.5406
  469MOL0     H63287   1.660   4.478   9.091  0.8648 -2.8777  0.6152
  469MOL0     H63288   1.735   4.456   9.252 -0.3538 -0.2194  0.6511
  469MOL0     H63289   1.835   4.662   9.036 -0.3909 -1.4024 -0.6752
  469MOL0     H63290   1.887   4.653   9.206 -0.4866  3.7017 -0.3135
  469MOL0     H63291   1.602   4.683   9.167  0.0317  1.4161 -2.9505
  469MOL0     H63292   1.708   4.747   9.295 -1.8560 -1.7438  0.7959
  469MOL0     H63293   1.651   4.874   9.015 -1.5147 -2.2987 -0.7974
  469MOL0     H63294   1.798   4.919   9.104 -1.8523  4.0968 -0.1513
  469MOL0     H63295   1.618   5.067   9.176  3.8347  0.0135  1.2443
  469MOL0     H63296   1.645   4.954   9.311  1.9236  3.3609  0.5514
  469MOL0     H63297   1.748   3.972   9.012 -0.5609  3.1745 -1.6036
  469MOL0     H63298   1.751   3.728   8.958  0.3927 -1.1578 -1.5162
  469MOL0     H63299   2.116   3.464   8.692 -1.0448  0.4551  4.5266
  469MOL0     H63300   2.195   3.264   8.584 -1.7047 -1.5376 -1.3654
  469MOL0     H63301   2.372   1.887   9.724  0.3642 -1.4483 -0.2947
  469MOL0     H63302   2.387   1.836   9.967  0.6304 -2.3336  0.2011
  469MOL0     H63303   2.488   1.462  10.249 -0.1947  1.2162  0.2781
  469MOL0     H63304   2.446   1.393  10.470  0.1638  0.0653  0.8820
  469MOL0     H63305   2.413   1.477  10.793  0.1652  1.6857 -1.0351
  469MOL0     H63306   2.491   1.359  10.679 -1.3554  2.1495 -1.8249
  469MOL0     H63307   2.654   1.495  10.911 -0.8146  0.7632 -1.3710
  469MOL0     H63308   2.691   1.344  10.826 -1.5109 -1.9047 -3.1840
  469MOL0     H63309   2.492   1.235  10.929  1.5100 -0.4684 -0.4665
  469MOL0     H63310   2.473   1.377  11.037  0.3473 -1.8000  1.9609
  469MOL0     H63311   2.691   1.336  11.135  1.1106  2.0574 -1.9118
  469MOL0     H63312   2.730   1.201  11.023 -0.1257  1.7475 -2.0673
  469MOL0     H63313   2.505   0.996  11.298 -2.7141  0.0552 -1.3077
  469MOL0     H63314   2.713   1.704  10.599  0.8863 -1.1324  0.4260
  469MOL0     H63315   2.711   1.817  10.374  1.0610 -0.7879  0.5881
  470MOL0     O63316   4.833   6.141   0.934 -0.4031  0.2932 -0.4117
  470MOL0     C63317   4.879   6.196   1.039  0.2200  0.1270 -1.3596
  470MOL0     O63318   4.924   6.328   1.059  0.9040  0.2271  0.0004
  470MOL0     C63319   4.928   6.402   0.951 -0.6822 -0.3290  0.1255
  470MOL0     C63320   5.053   6.440   0.899  0.6179 -0.0755 -0.0393
  470MOL0     C63321   5.058   6.533   0.793  0.2309 -0.9981 -0.6123
  470MOL0     C63322   4.936   6.601   0.754 -0.6109 -0.6237  0.5450
  470MOL0     O63323   4.934   6.696   0.651  0.1258  0.2852  0.7670
  470MOL0     C63324   5.054   6.767   0.611 -0.6839  0.2460 -0.2413
  470MOL0     C63325   5.088   6.732   0.465  1.0690  0.5619  0.1621
  470MOL0     C63326   4.971   6.744   0.361 -0.8186  0.0834  0.6249
  470MOL0     C63327   4.990   6.650   0.234  0.1327  0.6980  0.4183
  470MOL0     C63328   5.068   6.723   0.119  1.4522  0.2246 -0.1469
  470MOL0     C63329   5.004   6.845   0.068 -1.1652  0.1942  0.6117
  470MOL0     C63330   4.897   6.824  -0.038 -0.8197  0.3876  0.6936
  470MOL0     C63331   4.861   6.955  -0.097 -0.1378 -0.1653  0.0108
  470MOL0     N63332   4.750   6.954  -0.201 -0.6160  0.4320  0.7733
  470MOL0     C63333   4.622   6.896  -0.182  0.2635 -0.4766  0.3035
  470MOL0     C63334   4.577   6.860  -0.304 -0.4426  0.3310 -0.8196
  470MOL0     C63335   4.448   6.784  -0.332 -0.6977 -0.7887 -0.4976
  470MOL0     C63336   4.317   6.868  -0.333  0.0426  0.6363 -0.7411
  470MOL0     C63337   4.338   7.002  -0.417 -0.3879  0.2811  0.8714
  470MOL0     C63338   4.198   7.067  -0.430 -0.8620  0.1823  0.2654
  470MOL0     O63339   4.121   7.002  -0.529  0.3848  0.1197 -0.3617
  470MOL0     C63340   4.022   7.084  -0.585 -0.1633 -1.1188 -0.5222
  470MOL0     C63341   4.043   7.128  -0.713 -0.2205 -0.3098  0.7779
  470MOL0     C63342   3.948   7.211  -0.780  0.9666  0.4013 -0.2048
  470MOL0     C63343   3.991   7.265  -0.914 -0.0836  0.1344 -0.3048
  470MOL0     C63344   3.826   7.244  -0.712 -1.2148  0.9683 -1.1817
  470MOL0     C63345   3.709   7.313  -0.771 -0.2963  0.1579  0.5760
  470MOL0     O63346   3.696   7.294  -0.918 -0.7015  0.0886 -0.3508
  470MOL0     C63347   3.603   7.368  -0.981 -0.1315  0.3987  0.3803
  470MOL0     C63348   3.601   7.502  -0.952 -0.7164  0.1646 -0.2146
  470MOL0     C63349   3.486   7.577  -0.980  0.4141 -0.2070  0.5226
  470MOL0     C63350   3.369   7.515  -1.035  0.0785  0.0606 -1.0004
  470MOL0     O63351   3.264   7.585  -1.076  0.0979  0.2205 -0.0622
  470MOL0     C63352   3.144   7.559  -1.009  0.0432  0.5869 -0.5459
  470MOL0     C63353   3.018   7.624  -1.085 -0.5154  0.5626  0.0232
  470MOL0     C63354   3.040   7.773  -1.116 -0.0936  0.2811 -0.3228
  470MOL0     C63355   2.909   7.832  -1.150  0.6915  0.2686 -0.3799
  470MOL0     C63356   2.913   7.980  -1.189  0.1341 -0.8120 -0.0779
  470MOL0     C63357   2.895   8.070  -1.070 -0.4721  0.2342 -0.3772
  470MOL0     C63358   2.881   8.221  -1.100  0.5128 -0.1480 -1.0380
  470MOL0     C63359   2.859   8.298  -0.967 -0.6818 -0.0458 -0.3389
  470MOL0    Cl63360   2.851   8.476  -0.975 -0.1376 -0.1725  0.3808
  470MOL0     C63361   3.381   7.379  -1.065  0.3434  0.2028  0.1231
  470MOL0     C63362   3.497   7.305  -1.049  0.1152 -0.9220 -0.8707
  470MOL0     O63363   3.636   7.375  -0.704  0.0449 -0.4895 -0.1285
  470MOL0     C63364   3.822   7.216  -0.571  0.3199 -1.0655  0.3320
  470MOL0     C63365   3.915   7.133  -0.511 -0.9388  0.2565 -0.6567
  470MOL0     N63366   4.677   6.881  -0.396  0.1929 -0.0951 -0.7435
  470MOL0     N63367   4.779   6.942  -0.337  0.0275 -0.1261  0.1501
  470MOL0     C63368   4.815   6.577   0.824 -0.9849  1.2732 -0.8646
  470MOL0     C63369   4.815   6.464   0.911  0.1605  0.0888  0.6053
  470MOL0     C63370   4.890   6.099   1.156  0.3628  1.1459  0.9106
  470MOL0     C63371   4.823   5.975   1.148  0.7081 -0.4358 -0.0581
  470MOL0     C63372   4.831   5.871   1.240 -0.8897  0.0892 -0.8165
  470MOL0     C63373   4.915   5.900   1.345 -1.1100 -0.1273  0.8211
  470MOL0     O63374   4.945   5.794   1.427  0.4262  0.1044  0.0700
  470MOL0     C63375   5.043   5.787   1.525 -0.0321 -0.3063 -0.1275
  470MOL0     C63376   4.978   5.819   1.665  0.7575  0.3611 -0.3128
  470MOL0     C63377   4.918   5.691   1.730  0.2488  0.3428 -0.0311
  470MOL0     C63378   4.842   5.723   1.868  0.8016  0.3668 -0.1295
  470MOL0     C63379   4.728   5.637   1.892  1.0056 -0.0761  0.0189
  470MOL0     C63380   4.649   5.550   1.922 -1.2273 -0.4122 -0.8772
  470MOL0     C63381   4.980   6.025   1.357 -0.4244  0.2831 -0.0022
  470MOL0     C63382   4.975   6.128   1.263  0.2138  0.3969  0.1775
  470MOL0     H63383   5.141   6.385   0.932  1.7992  1.4112 -0.5910
  470MOL0     H63384   5.146   6.545   0.730  0.3249 -2.2397 -0.7422
  470MOL0     H63385   5.034   6.874   0.611 -1.3539  0.2065  2.9393
  470MOL0     H63386   5.143   6.737   0.668 -2.8614 -2.1002  2.1982
  470MOL0     H63387   5.175   6.795   0.444 -1.3084  3.8944 -0.5063
  470MOL0     H63388   5.120   6.628   0.471 -0.0520  0.1603 -0.5678
  470MOL0     H63389   4.870   6.727   0.399 -0.8454 -0.0997  0.4733
  470MOL0     H63390   4.969   6.848   0.329 -2.1318 -0.8345 -2.6802
  470MOL0     H63391   5.039   6.556   0.260 -0.2068  0.0460 -1.1933
  470MOL0     H63392   4.888   6.628   0.202  1.0072  0.3558 -2.4023
  470MOL0     H63393   5.160   6.754   0.169 -1.4398  1.7635  4.9281
  470MOL0     H63394   5.077   6.651   0.037 -0.2703  1.6993 -1.7479
  470MOL0     H63395   4.979   6.920   0.144 -1.8677  0.5980  0.0042
  470MOL0     H63396   5.087   6.902   0.023 -1.8898  0.8934  0.1278
  470MOL0     H63397   4.943   6.765  -0.118 -0.7129  3.5200 -1.7370
  470MOL0     H63398   4.800   6.792   0.001 -0.7299  2.5014  2.8663
  470MOL0     H63399   4.949   6.988  -0.153  0.4206  1.1652  1.5904
  470MOL0     H63400   4.840   7.024  -0.015  0.2062 -0.8770  0.7049
  470MOL0     H63401   4.555   6.893  -0.097 -0.1854 -0.5809 -0.0443
  470MOL0     H63402   4.454   6.731  -0.427  0.9317  1.4559 -1.7475
  470MOL0     H63403   4.433   6.701  -0.263 -2.0294 -1.6400 -1.7609
  470MOL0     H63404   4.287   6.893  -0.231 -1.2170 -1.3006 -0.5713
  470MOL0     H63405   4.244   6.804  -0.382  0.7033 -0.3370 -0.4912
  470MOL0     H63406   4.376   6.968  -0.514  0.6630 -0.4480  1.5267
  470MOL0     H63407   4.411   7.070  -0.373 -0.1243  1.1036 -0.7827
  470MOL0     H63408   4.219   7.174  -0.445 -1.3303  0.4900  1.6858
  470MOL0     H63409   4.145   7.062  -0.335  0.4680 -2.8857  0.9538
  470MOL0     H63410   4.138   7.099  -0.755  0.9491 -2.8209  4.6433
  470MOL0     H63411   3.910   7.256  -0.988 -1.0798  1.4112  0.5799
  470MOL0     H63412   4.003   7.370  -0.890 -1.2611 -0.0289  1.1501
  470MOL0     H63413   4.088   7.223  -0.943  0.1303 -1.0367  1.8541
  470MOL0     H63414   3.694   7.548  -0.919 -1.4371 -0.6877  3.4889
  470MOL0     H63415   3.485   7.674  -0.933  3.7459  0.8636 -1.2783
  470MOL0     H63416   3.135   7.450  -1.002  1.4876  0.3011 -2.5915
  470MOL0     H63417   3.164   7.594  -0.907 -0.4832 -5.2116  1.9998
  470MOL0     H63418   3.017   7.579  -1.184  1.7216  0.7870 -0.1461
  470MOL0     H63419   2.919   7.602  -1.044 -1.8197  5.0987 -0.1402
  470MOL0     H63420   3.100   7.784  -1.206 -1.8159  2.8238 -1.2742
  470MOL0     H63421   3.096   7.832  -1.042  0.8027 -1.7469  0.7032
  470MOL0     H63422   2.870   7.771  -1.231  1.3948  0.4278 -0.8467
  470MOL0     H63423   2.834   7.810  -1.073  2.1279 -0.6726  0.7891
  470MOL0     H63424   2.827   8.005  -1.252  1.8341  0.1494 -2.1255
  470MOL0     H63425   3.000   8.004  -1.250 -2.2983  1.1671 -3.0936
  470MOL0     H63426   2.812   8.022  -1.017  2.4312 -2.4081  2.1720
  470MOL0     H63427   2.985   8.054  -1.009 -0.9602 -0.7963  0.1069
  470MOL0     H63428   2.792   8.239  -1.161 -0.8511  1.5504  1.2889
  470MOL0     H63429   2.965   8.266  -1.154  0.1211 -0.4370 -1.9144
  470MOL0     H63430   2.944   8.267  -0.906 -0.7212  1.0816  0.3087
  470MOL0     H63431   2.766   8.263  -0.921 -1.5782 -0.9775 -2.6655
  470MOL0     H63432   3.295   7.326  -1.105  0.1882 -1.2817  2.2364
  470MOL0     H63433   3.492   7.198  -1.066  1.3083 -1.9660  3.7280
  470MOL0     H63434   3.733   7.231  -0.511  0.8624 -0.8256  1.0885
  470MOL0     H63435   3.893   7.091  -0.413 -0.3258 -4.3836 -2.2452
  470MOL0     H63436   4.721   6.621   0.792 -3.8903 -1.9729  2.3895
  470MOL0     H63437   4.718   6.445   0.957 -0.0207 -0.9948 -0.2012
  470MOL0     H63438   4.754   5.960   1.066 -0.0626  1.3320  0.2080
  470MOL0     H63439   4.783   5.775   1.231  0.9475 -1.4800  3.6883
  470MOL0     H63440   5.090   5.689   1.528 -0.9305 -0.8076 -1.6212
  470MOL0     H63441   5.129   5.853   1.510 -0.3535  0.5603  1.5350
  470MOL0     H63442   4.904   5.898   1.648  0.4419 -0.1483 -1.4131
  470MOL0     H63443   5.054   5.847   1.739  1.0092 -0.7211 -0.1385
  470MOL0     H63444   5.010   5.634   1.748  0.9966  0.8050 -2.1355
  470MOL0     H63445   4.854   5.639   1.658 -3.6260  4.0508  0.2895
  470MOL0     H63446   4.793   5.820   1.861  0.0251 -0.0427 -0.7149
  470MOL0     H63447   4.906   5.714   1.956 -2.3885 -2.6672  2.1766
  470MOL0     H63448   4.583   5.472   1.955  0.0009 -1.0032  0.3265
  470MOL0     H63449   5.045   6.044   1.442  0.4432  0.0430 -0.6040
  470MOL0     H63450   5.023   6.224   1.278  1.4490 -0.4799  2.2985
  471MOL0     O63451   5.653   6.383   1.856  0.2798  0.0752  0.8260
  471MOL0     C63452   5.586   6.397   1.955  0.8295  0.6116 -0.0830
  471MOL0     O63453   5.630   6.373   2.086 -0.1543  0.3938 -0.2879
  471MOL0     C63454   5.765   6.359   2.119 -0.5070  0.8614  1.8100
  471MOL0     C63455   5.799   6.255   2.202 -0.2700 -0.4432 -0.6667
  471MOL0     C63456   5.931   6.236   2.243  0.1760 -0.4631 -0.1285
  471MOL0     C63457   6.023   6.328   2.201 -0.3267 -0.5356  0.2787
  471MOL0     O63458   6.148   6.317   2.245  0.6411  0.6167 -0.4334
  471MOL0     C63459   6.211   6.436   2.301 -0.4004  0.2378 -0.2477
  471MOL0     C63460   6.298   6.388   2.416 -1.3153 -0.1184  0.4767
  471MOL0     C63461   6.221   6.333   2.532  0.7842  0.5706  0.4180
  471MOL0     C63462   6.299   6.257   2.635 -1.0425  0.1618 -0.1138
  471MOL0     C63463   6.210   6.186   2.740 -0.3241 -0.6294  0.3276
  471MOL0     C63464   6.307   6.136   2.852  0.3429 -0.2886  0.9203
  471MOL0     C63465   6.239   6.061   2.959  0.3422 -0.5527 -0.6563
  471MOL0     C63466   6.322   6.023   3.082 -1.2033 -0.1530 -0.4637
  471MOL0     N63467   6.252   5.950   3.178  0.5491 -0.1936 -0.7616
  471MOL0     C63468   6.297   5.839   3.251  0.0580  0.2081  0.2354
  471MOL0     C63469   6.200   5.803   3.332 -1.0629  0.3650 -0.3796
  471MOL0     C63470   6.192   5.676   3.415  0.0888  0.1524 -0.5842
  471MOL0     C63471   6.212   5.548   3.342  0.2647  0.8345  0.4075
  471MOL0     C63472   6.235   5.437   3.445  0.0619 -0.6458 -0.2925
  471MOL0     C63473   6.245   5.295   3.382  0.7288  0.0431 -0.3144
  471MOL0     O63474   6.145   5.272   3.291  0.3479 -0.2960 -0.0861
  471MOL0     C63475   6.136   5.162   3.212 -0.5237 -0.0112  0.3196
  471MOL0     C63476   6.229   5.066   3.229 -0.0856  0.4173  0.3868
  471MOL0     C63477   6.229   4.953   3.150  0.7885 -0.2422  0.6157
  471MOL0     C63478   6.348   4.858   3.156 -0.1777  1.0043  0.0297
  471MOL0     C63479   6.122   4.931   3.064  0.3786  0.8032  0.5852
  471MOL0     C63480   6.099   4.804   2.990  1.2825 -0.7121  0.5782
  471MOL0     O63481   6.113   4.686   3.042 -0.1871 -0.0231 -0.8522
  471MOL0     C63482   6.105   4.574   2.965 -0.2633  0.1437  0.7830
  471MOL0     C63483   5.980   4.523   2.927 -0.8694  1.4430 -0.9659
  471MOL0     C63484   5.968   4.409   2.847  0.3332 -0.8182 -0.3414
  471MOL0     C63485   6.095   4.352   2.801  0.1165  0.9619  0.2383
  471MOL0     O63486   6.093   4.235   2.716 -0.5879 -0.2982 -0.0036
  471MOL0     C63487   5.981   4.152   2.726 -0.6416  0.4826  0.2578
  471MOL0     C63488   6.008   4.036   2.631 -0.6877  0.9053  0.0992
  471MOL0     C63489   6.129   3.943   2.669  0.1896 -0.6255  0.7186
  471MOL0     C63490   6.166   3.822   2.579 -0.6538 -0.6276  0.6030
  471MOL0     C63491   6.196   3.859   2.436 -1.3405 -0.2147  0.1271
  471MOL0     C63492   6.266   3.748   2.356  0.2539 -0.3175 -0.6778
  471MOL0     C63493   6.156   3.643   2.310  0.5094 -0.0215  0.8111
  471MOL0     C63494   6.211   3.550   2.203  0.8014  0.1634  0.4992
  471MOL0    Cl63495   6.290   3.638   2.063  0.0686  0.1092  0.0904
  471MOL0     C63496   6.215   4.398   2.846 -0.3133 -0.3504 -0.5485
  471MOL0     C63497   6.223   4.513   2.922  0.4738  0.3880  0.6805
  471MOL0     O63498   6.066   4.830   2.875 -0.6380 -0.1059  0.5960
  471MOL0     C63499   6.023   5.028   3.047 -0.6717 -0.6829  1.1148
  471MOL0     C63500   6.030   5.146   3.121  0.4334 -0.0788  0.2765
  471MOL0     N63501   6.098   5.900   3.316  0.9507  0.2910 -0.5910
  471MOL0     N63502   6.132   5.985   3.226  0.0212  0.2254  1.6107
  471MOL0     C63503   5.993   6.432   2.110  0.3832  0.5319 -0.5513
  471MOL0     C63504   5.856   6.447   2.068  0.4415 -0.7607 -1.0734
  471MOL0     C63505   5.438   6.446   1.952 -0.7110  0.4545  0.1471
  471MOL0     C63506   5.364   6.470   1.828 -0.1880 -0.1336 -0.0191
  471MOL0     C63507   5.232   6.507   1.836  0.5783 -0.5910  1.0442
  471MOL0     C63508   5.162   6.498   1.957  0.0114 -0.4000  0.1952
  471MOL0     O63509   5.030   6.528   1.974 -0.2136  0.0022  0.5886
  471MOL0     C63510   4.939   6.508   1.874 -0.2348  0.4800 -0.8301
  471MOL0     C63511   4.813   6.571   1.920 -0.4466 -0.1575  0.1374
  471MOL0     C63512   4.727   6.502   2.030 -0.2352 -0.8830  0.4515
  471MOL0     C63513   4.717   6.585   2.161 -0.4476  0.1391 -0.8500
  471MOL0     C63514   4.823   6.556   2.261  0.7044  0.1401  0.0750
  471MOL0     C63515   4.910   6.527   2.340  0.4761 -0.6674 -1.0108
  471MOL0     C63516   5.234   6.475   2.079 -0.5448 -0.9536  0.1835
  471MOL0     C63517   5.373   6.444   2.077  0.8125 -0.6496 -0.5017
  471MOL0     H63518   5.735   6.177   2.242  1.1820 -2.7635 -2.5835
  471MOL0     H63519   5.966   6.163   2.315  3.4940  1.5208  0.5100
  471MOL0     H63520   6.280   6.498   2.243  2.2540 -1.2709  1.1165
  471MOL0     H63521   6.134   6.497   2.349 -1.4930 -1.1284 -0.2025
  471MOL0     H63522   6.355   6.306   2.371 -1.5330 -2.3844  3.8915
  471MOL0     H63523   6.365   6.467   2.451 -0.3717 -0.5770 -0.2496
  471MOL0     H63524   6.172   6.420   2.578  1.4287  0.0048  2.3017
  471MOL0     H63525   6.151   6.254   2.503  0.8453  0.8072 -0.3936
  471MOL0     H63526   6.374   6.192   2.589  1.8854  3.3225 -0.2020
  471MOL0     H63527   6.350   6.340   2.683 -0.4962 -0.0861 -0.2567
  471MOL0     H63528   6.140   6.254   2.789 -0.4605 -0.8717  0.4736
  471MOL0     H63529   6.156   6.099   2.702 -4.2059 -0.5381  4.7098
  471MOL0     H63530   6.384   6.083   2.796  0.5356  3.0491 -2.3105
  471MOL0     H63531   6.349   6.216   2.914 -0.3609 -0.9082  2.2521
  471MOL0     H63532   6.153   6.120   2.990  1.1569  0.4577 -0.2702
  471MOL0     H63533   6.180   5.971   2.938  0.1511 -1.2418  2.3874
  471MOL0     H63534   6.370   6.107   3.134  3.9752 -0.9156 -3.3725
  471MOL0     H63535   6.405   5.964   3.042 -1.5418  0.1992 -1.7435
  471MOL0     H63536   6.387   5.781   3.237 -0.7268 -0.3998 -3.2277
  471MOL0     H63537   6.268   5.677   3.494 -0.2811 -0.6810 -0.2120
  471MOL0     H63538   6.097   5.667   3.469  0.1855  0.8785 -0.2748
  471MOL0     H63539   6.305   5.543   3.285 -0.8381 -1.5313 -1.3709
  471MOL0     H63540   6.125   5.521   3.281  3.1798 -1.9262 -2.9360
  471MOL0     H63541   6.153   5.438   3.517  1.9552  0.3750  2.0006
  471MOL0     H63542   6.326   5.449   3.504  1.5179  0.1260 -2.5456
  471MOL0     H63543   6.237   5.236   3.473 -0.2915  2.1702  1.0689
  471MOL0     H63544   6.345   5.285   3.338 -0.3306 -1.8451 -2.4793
  471MOL0     H63545   6.313   5.079   3.297  0.9056  0.3947 -0.8094
  471MOL0     H63546   6.316   4.759   3.190  1.0909  0.1500 -1.1570
  471MOL0     H63547   6.393   4.838   3.058 -1.4356 -0.3581 -0.3183
  471MOL0     H63548   6.420   4.899   3.227  0.6742 -2.1794  1.1409
  471MOL0     H63549   5.901   4.592   2.954  0.7747  2.9312  0.3148
  471MOL0     H63550   5.877   4.366   2.807 -1.0189 -0.5553  2.2103
  471MOL0     H63551   5.963   4.106   2.824 -0.2975 -0.1153  0.0503
  471MOL0     H63552   5.891   4.206   2.695 -0.0707  0.6387 -1.1675
  471MOL0     H63553   5.922   3.969   2.629 -0.0374 -0.3030  3.9561
  471MOL0     H63554   6.013   4.085   2.533  0.2920  1.8796  0.6064
  471MOL0     H63555   6.104   3.906   2.769 -0.6939 -2.1003 -0.0193
  471MOL0     H63556   6.220   4.004   2.672 -0.7642  0.9846 -1.1875
  471MOL0     H63557   6.252   3.766   2.617 -0.6061 -2.0478 -1.4311
  471MOL0     H63558   6.078   3.757   2.575 -0.9289 -0.1940 -0.4875
  471MOL0     H63559   6.259   3.949   2.434 -0.9013 -0.4763  1.1888
  471MOL0     H63560   6.109   3.888   2.377 -1.1510 -1.7732 -0.9605
  471MOL0     H63561   6.307   3.797   2.267 -1.6460  0.4640 -1.1826
  471MOL0     H63562   6.344   3.696   2.412  0.4055 -0.7754 -1.3045
  471MOL0     H63563   6.072   3.696   2.264 -0.1316 -1.2234  0.5614
  471MOL0     H63564   6.113   3.581   2.389  0.7127 -2.2593 -0.7408
  471MOL0     H63565   6.131   3.490   2.158 -0.5512  2.2654 -0.0490
  471MOL0     H63566   6.285   3.482   2.246  1.5229  2.1397  2.5500
  471MOL0     H63567   6.309   4.352   2.820  0.5499  0.4037  1.0538
  471MOL0     H63568   6.314   4.559   2.959  0.4951  1.6016 -0.7664
  471MOL0     H63569   5.943   5.002   2.979  0.9612 -0.9103 -0.8261
  471MOL0     H63570   5.963   5.226   3.094 -0.0066  0.0932  1.7955
  471MOL0     H63571   6.070   6.497   2.070  1.7355  0.2496  1.4634
  471MOL0     H63572   5.812   6.536   2.024 -2.3441 -1.1025  0.7453
  471MOL0     H63573   5.404   6.464   1.727 -2.1090 -0.5979 -0.8063
  471MOL0     H63574   5.192   6.520   1.736 -0.4675  0.1088  1.5427
  471MOL0     H63575   4.968   6.556   1.780 -1.5245  1.5913 -0.6894
  471MOL0     H63576   4.929   6.399   1.865  0.9082  0.4757 -2.7099
  471MOL0     H63577   4.753   6.581   1.830 -1.4428 -1.0241  0.6791
  471MOL0     H63578   4.848   6.671   1.947  2.3931 -0.5082 -1.7743
  471MOL0     H63579   4.767   6.402   2.051  0.5641 -1.1992 -2.2210
  471MOL0     H63580   4.624   6.494   1.994 -0.0857 -0.8978  0.0279
  471MOL0     H63581   4.618   6.570   2.204 -0.1071  4.7701  2.1646
  471MOL0     H63582   4.716   6.693   2.150 -1.3792  0.5746  2.4710
  471MOL0     H63583   4.989   6.527   2.413  0.2781  1.7617 -0.7154
  471MOL0     H63584   5.185   6.464   2.176 -0.4766 -0.3102  0.2951
  471MOL0     H63585   5.411   6.430   2.177 -4.0590 -0.5370  1.6727
  472MOL0     O63586   6.032  10.943   1.684  0.6574  0.0466  0.1385
  472MOL0     C63587   6.058  10.822   1.688 -0.0368 -1.4162  0.3573
  472MOL0     O63588   6.008  10.732   1.605  0.2093  0.0228  0.6904
  472MOL0     C63589   5.893  10.747   1.532  0.0247 -0.2109  0.2788
  472MOL0     C63590   5.838  10.871   1.485  0.1112  0.0780 -0.5851
  472MOL0     C63591   5.717  10.871   1.402 -0.6814 -0.0989 -0.1384
  472MOL0     C63592   5.649  10.747   1.371  0.3352 -0.0227 -0.7991
  472MOL0     O63593   5.538  10.733   1.295 -0.0036  0.2230  0.6530
  472MOL0     C63594   5.467  10.853   1.266 -0.1737 -0.6854  0.6669
  472MOL0     C63595   5.346  10.817   1.182 -0.0845 -0.6565  0.9710
  472MOL0     C63596   5.398  10.749   1.055 -0.0343 -0.0038 -0.8631
  472MOL0     C63597   5.281  10.672   0.987  0.5976 -0.2911 -0.1543
  472MOL0     C63598   5.353  10.590   0.884 -0.2612 -0.3172  0.6843
  472MOL0     C63599   5.257  10.509   0.796 -0.8020  0.2745  0.2885
  472MOL0     C63600   5.331  10.402   0.721 -0.7769  0.3916 -0.5336
  472MOL0     C63601   5.263  10.344   0.595 -0.1546 -0.6691 -0.0596
  472MOL0     N63602   5.136  10.295   0.621  0.1893 -1.3888  0.9116
  472MOL0     C63603   5.031  10.343   0.541  0.7013  0.6483  0.0899
  472MOL0     C63604   4.920  10.267   0.575 -0.5530 -0.8346 -0.3524
  472MOL0     C63605   4.781  10.283   0.530  1.4003 -0.1935 -0.2009
  472MOL0     C63606   4.748  10.198   0.412  0.5599  0.2112  0.1514
  472MOL0     C63607   4.813  10.200   0.276  0.0654 -0.9574  0.6696
  472MOL0     C63608   4.819  10.343   0.220 -0.6007  0.4911 -0.9190
  472MOL0     O63609   4.884  10.340   0.090  0.1172  0.3678 -0.3099
  472MOL0     C63610   4.803  10.406   0.006  0.2177 -0.1592  0.2131
  472MOL0     C63611   4.673  10.357  -0.036 -0.3319  0.4280 -0.4584
  472MOL0     C63612   4.593  10.413  -0.134  0.8615 -0.9901  0.8862
  472MOL0     C63613   4.456  10.361  -0.164 -0.1806 -0.0871 -0.8121
  472MOL0     C63614   4.648  10.526  -0.210  0.4104  0.4742  0.3030
  472MOL0     C63615   4.574  10.594  -0.316  0.7274  0.5255  0.5624
  472MOL0     O63616   4.644  10.638  -0.426 -0.1113 -0.6988 -0.3224
  472MOL0     C63617   4.583  10.666  -0.546 -0.6801  0.1916 -1.0538
  472MOL0     C63618   4.473  10.744  -0.571 -0.4770  0.7362  0.5991
  472MOL0     C63619   4.432  10.747  -0.705 -0.0291 -0.1418 -0.8403
  472MOL0     C63620   4.504  10.695  -0.807 -0.2520 -0.1222 -0.1538
  472MOL0     O63621   4.461  10.733  -0.930  0.8261 -0.0236 -0.4031
  472MOL0     C63622   4.502  10.653  -1.045 -0.4435 -0.0040  0.3317
  472MOL0     C63623   4.416  10.705  -1.163  0.5186  0.1704 -0.5770
  472MOL0     C63624   4.466  10.846  -1.211 -1.1410  1.1649 -0.0521
  472MOL0     C63625   4.360  10.932  -1.278 -0.2839  0.0784 -1.6323
  472MOL0     C63626   4.397  10.997  -1.408  0.8953 -0.1912  0.4451
  472MOL0     C63627   4.478  11.124  -1.401  1.0203 -0.0847  0.2741
  472MOL0     C63628   4.500  11.186  -1.543  1.5243  0.9536 -0.0321
  472MOL0     C63629   4.594  11.310  -1.553 -0.0701  0.4539 -0.3237
  472MOL0    Cl63630   4.552  11.457  -1.467  0.4312  0.0459 -0.1226
  472MOL0     C63631   4.622  10.624  -0.786  0.1478  0.3788  0.2764
  472MOL0     C63632   4.661  10.605  -0.649  0.8741  0.0949  0.0707
  472MOL0     O63633   4.448  10.599  -0.290 -0.7502 -0.2997  0.0356
  472MOL0     C63634   4.773  10.578  -0.162 -0.0918 -0.1788 -0.6330
  472MOL0     C63635   4.847  10.527  -0.059 -0.0476  0.3388 -0.2841
  472MOL0     N63636   4.964  10.180   0.664  0.6566  0.4701 -0.6325
  472MOL0     N63637   5.089  10.190   0.693  1.2465  0.4297 -0.9083
  472MOL0     C63638   5.710  10.633   1.403 -0.4872  0.3645 -0.0478
  472MOL0     C63639   5.826  10.630   1.482 -0.1046 -0.4069 -1.1334
  472MOL0     C63640   6.183  10.779   1.764 -0.0453  0.1914  0.1883
  472MOL0     C63641   6.194  10.646   1.816  0.7859 -0.2423 -0.2697
  472MOL0     C63642   6.317  10.608   1.868  0.9178  0.3122 -0.8155
  472MOL0     C63643   6.427  10.691   1.889  0.8167  1.7171  0.0296
  472MOL0     O63644   6.543  10.652   1.954  1.2289  0.0032  0.0424
  472MOL0     C63645   6.589  10.532   1.899  0.7468 -0.1857 -0.4449
  472MOL0     C63646   6.747  10.530   1.897 -0.0920  0.9453 -0.5958
  472MOL0     C63647   6.811  10.569   2.024  0.0919  0.7921 -0.5178
  472MOL0     C63648   6.961  10.566   2.018 -1.0669  0.5099  0.7070
  472MOL0     C63649   7.035  10.633   2.115  1.4774 -0.6227  0.0184
  472MOL0     C63650   7.107  10.701   2.190  0.3523  0.2597  0.4225
  472MOL0     C63651   6.413  10.821   1.855  0.3189 -0.4998 -0.1125
  472MOL0     C63652   6.296  10.859   1.791  0.1268  0.1168 -0.8226
  472MOL0     H63653   5.900  10.959   1.488 -2.9929  2.4845 -1.6970
  472MOL0     H63654   5.685  10.968   1.367 -1.2279 -0.4721 -0.6815
  472MOL0     H63655   5.442  10.888   1.367  2.3695 -1.1263  1.5260
  472MOL0     H63656   5.530  10.913   1.200 -0.0678 -2.5920 -1.0453
  472MOL0     H63657   5.280  10.743   1.228 -1.7587  0.5637  0.6385
  472MOL0     H63658   5.290  10.908   1.159 -1.4332 -1.8952 -0.9323
  472MOL0     H63659   5.430  10.823   0.981 -0.2325 -0.2343 -1.1859
  472MOL0     H63660   5.490  10.693   1.073 -1.1832 -1.0419  2.4233
  472MOL0     H63661   5.234  10.608   1.062  3.6701  1.4060  3.5812
  472MOL0     H63662   5.201  10.739   0.953  0.0424  0.0992  1.7510
  472MOL0     H63663   5.421  10.645   0.818 -0.8893 -0.0841  0.2167
  472MOL0     H63664   5.412  10.517   0.939 -1.6584 -3.5165 -1.7346
  472MOL0     H63665   5.174  10.463   0.850  0.2405 -2.5295 -0.3294
  472MOL0     H63666   5.227  10.581   0.719  1.5124  1.9140  0.8069
  472MOL0     H63667   5.414  10.454   0.673 -1.0979  0.1557 -1.3599
  472MOL0     H63668   5.370  10.325   0.788  1.6594 -0.1031 -2.3788
  472MOL0     H63669   5.322  10.262   0.552  2.6732  0.3849  1.5018
  472MOL0     H63670   5.254  10.420   0.516  0.8699 -0.4413  0.0317
  472MOL0     H63671   5.039  10.429   0.476 -0.7355  0.0254 -0.9750
  472MOL0     H63672   4.729  10.248   0.619  1.6243  1.1808  0.4983
  472MOL0     H63673   4.751  10.388   0.516 -0.1919 -0.6959 -0.7862
  472MOL0     H63674   4.641  10.208   0.396  0.7426 -0.5107 -1.7356
  472MOL0     H63675   4.755  10.096   0.449 -0.4040  0.0086 -0.2117
  472MOL0     H63676   4.762  10.124   0.217 -0.9433  0.6074 -0.5592
  472MOL0     H63677   4.915  10.166   0.297  0.5515 -0.0793 -0.2026
  472MOL0     H63678   4.884  10.409   0.278 -1.6417  0.1192  0.7296
  472MOL0     H63679   4.716  10.378   0.226 -2.2887 -3.9292 -0.6891
  472MOL0     H63680   4.647  10.260   0.007 -0.4312  0.0706 -1.3067
  472MOL0     H63681   4.433  10.361  -0.271  2.4797  1.9886 -1.5071
  472MOL0     H63682   4.453  10.256  -0.135 -1.0940  0.2684  0.4820
  472MOL0     H63683   4.378  10.407  -0.103 -0.3459  0.0189 -1.1024
  472MOL0     H63684   4.416  10.800  -0.497 -2.0933  2.7089 -1.9366
  472MOL0     H63685   4.344  10.808  -0.724 -0.0382  1.0345  2.4117
  472MOL0     H63686   4.606  10.678  -1.069 -0.5440 -0.5847 -0.8104
  472MOL0     H63687   4.494  10.545  -1.029 -0.7075 -0.0914 -0.3314
  472MOL0     H63688   4.435  10.628  -1.238  0.7284 -0.5890  0.2345
  472MOL0     H63689   4.312  10.712  -1.132  1.2582  2.6835  1.8346
  472MOL0     H63690   4.541  10.815  -1.285 -0.9048  0.5373  0.4407
  472MOL0     H63691   4.516  10.908  -1.137 -0.8921  2.7598 -1.5026
  472MOL0     H63692   4.282  10.862  -1.312 -0.2771 -1.3296  0.9463
  472MOL0     H63693   4.324  11.007  -1.208  2.2603  0.3719 -0.5444
  472MOL0     H63694   4.302  11.024  -1.455  1.2718  0.4145  0.0271
  472MOL0     H63695   4.447  10.917  -1.463  0.7606 -1.6729  2.3740
  472MOL0     H63696   4.425  11.192  -1.334 -0.8388  0.5429 -1.7191
  472MOL0     H63697   4.576  11.097  -1.360  0.7754 -3.1678 -0.9017
  472MOL0     H63698   4.403  11.234  -1.555 -0.4056 -1.8814  2.6426
  472MOL0     H63699   4.502  11.112  -1.623  1.3036  1.4716 -0.5207
  472MOL0     H63700   4.605  11.324  -1.661 -1.2043 -0.0198 -0.5172
  472MOL0     H63701   4.689  11.280  -1.509  0.8946  3.5832 -0.0322
  472MOL0     H63702   4.678  10.580  -0.868 -1.6340 -0.2596 -0.6505
  472MOL0     H63703   4.752  10.553  -0.619  0.5518 -1.8964 -2.1152
  472MOL0     H63704   4.808  10.663  -0.220  1.0393 -2.3715 -3.4121
  472MOL0     H63705   4.948  10.556  -0.030 -0.2601  0.7608  0.0561
  472MOL0     H63706   5.668  10.540   1.365 -0.6787  0.6485 -0.5474
  472MOL0     H63707   5.878  10.536   1.496  1.5712  0.4700 -1.2032
  472MOL0     H63708   6.106  10.585   1.800  0.2308 -0.3943  2.7147
  472MOL0     H63709   6.316  10.503   1.896  2.9957  1.4680  5.1697
  472MOL0     H63710   6.550  10.443   1.949  1.4781 -1.2553 -1.6955
  472MOL0     H63711   6.557  10.513   1.796  2.3798 -2.1560 -0.6533
  472MOL0     H63712   6.789  10.592   1.818  1.5521  0.9201  0.2212
  472MOL0     H63713   6.764  10.425   1.873 -1.9012  0.5331 -0.2384
  472MOL0     H63714   6.775  10.501   2.102 -0.2569  0.1314 -1.2386
  472MOL0     H63715   6.788  10.672   2.053  1.9966  1.3816 -1.0128
  472MOL0     H63716   6.995  10.589   1.916 -1.4514 -1.1040  0.1753
  472MOL0     H63717   6.976  10.459   2.034 -2.1438  0.2633  0.1824
  472MOL0     H63718   7.168  10.761   2.255 -2.2554  2.9157  0.6281
  472MOL0     H63719   6.488  10.899   1.871 -1.1935  0.5468  2.5026
  472MOL0     H63720   6.294  10.957   1.746  1.6661  1.2480  1.3663
  473MOL0     O63721   1.825   7.560   5.785  0.3692 -0.3227 -0.9868
  473MOL0     C63722   1.814   7.500   5.680 -0.0840 -0.0414 -0.1138
  473MOL0     O63723   1.739   7.382   5.678 -0.2547  0.4286 -0.5012
  473MOL0     C63724   1.663   7.341   5.791 -0.5785  0.5979  1.0783
  473MOL0     C63725   1.647   7.200   5.802 -0.1157 -0.1837  0.4001
  473MOL0     C63726   1.563   7.152   5.906 -0.1581  0.1423 -0.5499
  473MOL0     C63727   1.516   7.232   6.006  0.0766 -0.9430 -0.7333
  473MOL0     O63728   1.443   7.182   6.114  0.3249  0.8825  0.0213
  473MOL0     C63729   1.501   7.072   6.182 -1.9372 -0.3447  0.2498
  473MOL0     C63730   1.437   7.034   6.312 -0.5689  0.2485 -0.7542
  473MOL0     C63731   1.426   6.886   6.341 -0.1497 -0.2274 -0.7444
  473MOL0     C63732   1.326   6.841   6.447  0.0614 -0.3941  0.2148
  473MOL0     C63733   1.372   6.715   6.531  0.1146 -0.5285 -1.0992
  473MOL0     C63734   1.277   6.680   6.643 -0.0223  0.5190  0.7711
  473MOL0     C63735   1.320   6.548   6.709  0.7225 -0.8731  0.1001
  473MOL0     C63736   1.458   6.557   6.799  1.3058 -0.0237  0.6636
  473MOL0     N63737   1.477   6.436   6.876  0.1260 -0.8244  0.1370
  473MOL0     C63738   1.546   6.322   6.850  0.0261 -0.4945  0.7299
  473MOL0     C63739   1.520   6.227   6.934 -0.4454  0.0914 -0.3719
  473MOL0     C63740   1.569   6.090   6.975  0.1644 -1.3401  0.0656
  473MOL0     C63741   1.575   5.999   6.855 -0.3315  0.2192 -0.1503
  473MOL0     C63742   1.662   5.874   6.885 -0.0997 -0.3474 -0.0167
  473MOL0     C63743   1.680   5.785   6.762  0.2852 -0.6694  0.0271
  473MOL0     O63744   1.745   5.663   6.770 -0.1790 -0.2182  0.1599
  473MOL0     C63745   1.874   5.657   6.765 -0.1582 -1.0465 -0.3975
  473MOL0     C63746   1.929   5.539   6.779 -0.5000 -0.1060  0.8270
  473MOL0     C63747   2.072   5.507   6.781 -0.0577 -0.5788 -0.0070
  473MOL0     C63748   2.113   5.370   6.822  0.0059 -0.6237  0.4871
  473MOL0     C63749   2.168   5.616   6.749 -0.2077  0.0963  0.5238
  473MOL0     C63750   2.313   5.610   6.738 -0.4716 -1.1278  0.3245
  473MOL0     O63751   2.375   5.726   6.694  0.8926  0.1805 -0.2851
  473MOL0     C63752   2.506   5.735   6.719  0.1645 -0.3549 -0.0169
  473MOL0     C63753   2.572   5.716   6.837  0.5053  0.7478 -0.6315
  473MOL0     C63754   2.714   5.730   6.832  0.1640 -0.1033 -0.4257
  473MOL0     C63755   2.788   5.763   6.713  0.2092  0.6800  0.1652
  473MOL0     O63756   2.915   5.766   6.704  0.1832 -0.1395  0.2087
  473MOL0     C63757   2.964   5.890   6.732  0.2549 -0.5356 -0.4665
  473MOL0     C63758   3.107   5.882   6.777  0.2512  0.8582  0.6208
  473MOL0     C63759   3.161   6.022   6.760  0.5058 -0.5019 -0.2394
  473MOL0     C63760   3.309   6.033   6.791 -0.3124  0.1113  0.2080
  473MOL0     C63761   3.345   6.179   6.794 -0.0061 -0.0461  0.7845
  473MOL0     C63762   3.466   6.219   6.859 -0.0950 -0.1895  0.2552
  473MOL0     C63763   3.498   6.369   6.838  0.7768 -0.5277  0.0809
  473MOL0     C63764   3.614   6.425   6.922  0.1261 -0.0724  0.4526
  473MOL0    Cl63765   3.589   6.412   7.097  0.0547  0.4486 -0.0565
  473MOL0     C63766   2.710   5.786   6.595 -0.3863  0.1680  0.4297
  473MOL0     C63767   2.574   5.777   6.604  0.6833 -0.2271  0.4413
  473MOL0     O63768   2.376   5.508   6.765 -0.3450 -0.1867  0.0390
  473MOL0     C63769   2.109   5.740   6.720 -0.3764 -0.1344  1.0141
  473MOL0     C63770   1.968   5.765   6.732 -0.1206  0.1254  0.0897
  473MOL0     N63771   1.441   6.282   7.031 -0.6246 -0.2330 -0.7623
  473MOL0     N63772   1.414   6.413   6.995  0.4683  1.1972  0.1965
  473MOL0     C63773   1.527   7.375   5.990  0.5644 -0.1772  0.1777
  473MOL0     C63774   1.594   7.427   5.873 -0.1124 -0.7655 -0.1255
  473MOL0     C63775   1.889   7.555   5.558  0.9325  0.3739 -0.6510
  473MOL0     C63776   1.955   7.673   5.557 -0.2932  0.2356 -0.4514
  473MOL0     C63777   2.021   7.722   5.446  0.0741  0.4578  0.3400
  473MOL0     C63778   2.017   7.647   5.327  0.6129  0.4504 -0.8489
  473MOL0     O63779   2.089   7.686   5.213  0.6248  0.3080 -0.5921
  473MOL0     C63780   2.204   7.770   5.227 -0.4641 -0.1032 -0.2322
  473MOL0     C63781   2.325   7.683   5.201  0.3273  1.0521  0.5215
  473MOL0     C63782   2.338   7.658   5.042  0.6342 -0.7535 -0.9100
  473MOL0     C63783   2.425   7.766   4.973 -0.0865 -0.6262  0.0581
  473MOL0     C63784   2.567   7.763   5.017 -0.1236 -0.0696  0.5771
  473MOL0     C63785   2.687   7.752   5.045  0.1812  0.0596 -0.3345
  473MOL0     C63786   1.947   7.518   5.322 -0.8739 -0.3698 -0.1860
  473MOL0     C63787   1.892   7.471   5.445  0.0280 -0.5638  0.7361
  473MOL0     H63788   1.697   7.141   5.725  0.4425 -0.5012  0.9975
  473MOL0     H63789   1.563   7.045   5.925  2.0459 -0.3319 -2.8094
  473MOL0     H63790   1.497   6.979   6.123 -3.3444 -1.3605  1.8347
  473MOL0     H63791   1.607   7.095   6.195 -2.5994  2.6068  0.9752
  473MOL0     H63792   1.487   7.088   6.393 -1.3299  1.5650 -1.1418
  473MOL0     H63793   1.336   7.073   6.304  0.3077  2.7784 -0.2672
  473MOL0     H63794   1.387   6.850   6.246 -1.5630 -0.7065 -0.0104
  473MOL0     H63795   1.525   6.839   6.352 -1.3476 -2.5890  0.5748
  473MOL0     H63796   1.305   6.921   6.519  1.4193  1.3251 -1.2312
  473MOL0     H63797   1.236   6.815   6.392  1.1663  0.9667 -2.3766
  473MOL0     H63798   1.368   6.632   6.460 -1.2672  1.2680 -3.2561
  473MOL0     H63799   1.473   6.737   6.565 -0.2032 -3.1523  2.0651
  473MOL0     H63800   1.274   6.755   6.723 -0.0769  3.1894 -1.5897
  473MOL0     H63801   1.177   6.669   6.600  0.7008  0.9852 -1.1057
  473MOL0     H63802   1.241   6.525   6.780  0.5593  1.8130  0.9072
  473MOL0     H63803   1.329   6.468   6.635 -0.2961 -1.2962  0.4233
  473MOL0     H63804   1.440   6.633   6.876  1.5935 -0.3951  1.1040
  473MOL0     H63805   1.544   6.581   6.736 -0.7447  1.0218 -1.8793
  473MOL0     H63806   1.604   6.314   6.758 -3.7291 -1.5259 -1.7996
  473MOL0     H63807   1.661   6.092   7.034 -0.2710  1.5656  0.8011
  473MOL0     H63808   1.493   6.048   7.042 -1.2360 -0.3491 -0.8462
  473MOL0     H63809   1.628   6.063   6.784 -3.0072 -1.1705 -3.7196
  473MOL0     H63810   1.476   5.966   6.824 -0.5430  0.1274  0.5909
  473MOL0     H63811   1.613   5.816   6.964 -2.3967  0.5787 -0.6735
  473MOL0     H63812   1.761   5.908   6.913 -0.1578 -0.4866  0.3583
  473MOL0     H63813   1.728   5.843   6.682  1.7164  1.6733  2.3918
  473MOL0     H63814   1.578   5.765   6.729  0.8216  1.1115 -3.1693
  473MOL0     H63815   1.862   5.455   6.795  3.2094 -3.1118  2.1766
  473MOL0     H63816   2.168   5.320   6.742 -1.4098  0.4522 -1.2118
  473MOL0     H63817   2.175   5.381   6.912  1.3654  0.9708 -0.5806
  473MOL0     H63818   2.025   5.311   6.848 -0.9242  0.9911  1.1422
  473MOL0     H63819   2.527   5.692   6.933 -1.1664  4.5542 -0.3099
  473MOL0     H63820   2.773   5.716   6.922 -3.0876  0.0643  1.9284
  473MOL0     H63821   2.950   5.956   6.646  2.4072  1.6334  0.7076
  473MOL0     H63822   2.912   5.931   6.819 -0.3347  1.7873 -1.8251
  473MOL0     H63823   3.113   5.846   6.880  2.4673  0.1281  0.2945
  473MOL0     H63824   3.168   5.821   6.709  3.5703  2.7691  1.6287
  473MOL0     H63825   3.101   6.086   6.826 -0.7103 -1.6685 -0.1657
  473MOL0     H63826   3.142   6.050   6.656  0.2386  0.3759  0.0393
  473MOL0     H63827   3.323   5.985   6.888 -1.8354 -2.8804 -0.9516
  473MOL0     H63828   3.358   5.980   6.709  1.1189  2.4975 -0.5874
  473MOL0     H63829   3.258   6.234   6.831 -1.7749 -1.5928 -0.7898
  473MOL0     H63830   3.358   6.217   6.692  0.9126 -0.4112  0.7558
  473MOL0     H63831   3.438   6.205   6.964  1.0997 -0.1576  0.5931
  473MOL0     H63832   3.552   6.156   6.834  0.2746 -1.0509  3.2497
  473MOL0     H63833   3.413   6.431   6.868 -0.3753 -1.8783 -0.2745
  473MOL0     H63834   3.520   6.392   6.733  4.1232  0.0606  0.8102
  473MOL0     H63835   3.620   6.531   6.895  1.9469 -0.6424 -1.6314
  473MOL0     H63836   3.705   6.378   6.885  1.8793  2.4576  1.2534
  473MOL0     H63837   2.767   5.797   6.504 -1.3253 -1.7056 -0.4290
  473MOL0     H63838   2.511   5.789   6.516 -1.1175  1.2389  1.8509
  473MOL0     H63839   2.164   5.822   6.674 -1.5976 -0.5788 -1.4199
  473MOL0     H63840   1.941   5.868   6.710  1.0407  0.2113 -1.0413
  473MOL0     H63841   1.475   7.443   6.057  2.8786  0.0429  1.8908
  473MOL0     H63842   1.596   7.534   5.852  1.6434 -0.8595 -0.6522
  473MOL0     H63843   1.961   7.738   5.643 -2.2937  0.9775 -0.8345
  473MOL0     H63844   2.085   7.806   5.471 -0.0622  0.0698  2.1167
  473MOL0     H63845   2.214   7.848   5.150  2.0868 -0.0258  0.0740
  473MOL0     H63846   2.210   7.819   5.325 -1.5386  3.4532 -1.7521
  473MOL0     H63847   2.310   7.589   5.255  1.2499 -0.7251 -2.0821
  473MOL0     H63848   2.406   7.742   5.245  1.5402  0.3502 -0.7021
  473MOL0     H63849   2.242   7.668   4.990  1.5726 -2.5311 -3.1489
  473MOL0     H63850   2.366   7.554   5.022  4.1487  0.2974 -2.0276
  473MOL0     H63851   2.376   7.862   4.988  2.0885  0.3533  1.2284
  473MOL0     H63852   2.418   7.759   4.864 -0.1330 -1.1457  0.0925
  473MOL0     H63853   2.791   7.742   5.069  0.4971  2.0118 -0.7027
  473MOL0     H63854   1.926   7.467   5.228  0.1462 -0.8698 -0.1617
  473MOL0     H63855   1.833   7.381   5.441 -2.4958  1.0362 -1.5312
  474MOL0     O63856   8.603   8.037   4.434  0.3572 -1.1589  0.9962
  474MOL0     C63857   8.596   7.918   4.431  0.8174  0.1930  0.2771
  474MOL0     O63858   8.550   7.841   4.325  0.0608  1.0399 -0.8687
  474MOL0     C63859   8.515   7.889   4.198 -0.3697  0.8735 -0.0288
  474MOL0     C63860   8.464   8.010   4.164  0.5589 -0.6516  0.0047
  474MOL0     C63861   8.442   8.038   4.027 -0.1218  0.6184 -0.0578
  474MOL0     C63862   8.465   7.940   3.924 -0.3674 -0.1506  0.1916
  474MOL0     O63863   8.443   7.957   3.791 -0.5262  0.7146 -0.0940
  474MOL0     C63864   8.511   7.894   3.687 -0.8651 -0.7728  0.2085
  474MOL0     C63865   8.652   7.961   3.677 -0.5557  0.5667 -0.4046
  474MOL0     C63866   8.730   7.873   3.581 -0.2199  0.7385  0.2968
  474MOL0     C63867   8.690   7.884   3.434  0.1373 -0.3098  0.1324
  474MOL0     C63868   8.794   7.849   3.336  0.2007  0.3722 -0.6007
  474MOL0     C63869   8.742   7.865   3.196  0.9956 -0.3547  1.0619
  474MOL0     C63870   8.860   7.816   3.100 -0.2991 -0.1098 -0.0750
  474MOL0     C63871   8.801   7.782   2.963  0.8837 -0.4671 -0.1685
  474MOL0     N63872   8.890   7.715   2.869 -0.1973  0.3689 -1.3618
  474MOL0     C63873   8.979   7.782   2.788  0.0370  0.2162  0.2073
  474MOL0     C63874   9.068   7.686   2.744  0.9356 -1.2416 -0.8240
  474MOL0     C63875   9.187   7.705   2.649  0.7078  0.1238  0.0215
  474MOL0     C63876   9.299   7.789   2.715 -0.3694 -0.2946 -0.5549
  474MOL0     C63877   9.344   7.716   2.846 -0.8488 -0.1295 -0.7050
  474MOL0     C63878   9.411   7.584   2.841 -0.6069 -0.6363 -0.1703
  474MOL0     O63879   9.526   7.607   2.761 -0.0366 -0.2279  0.0393
  474MOL0     C63880   9.627   7.513   2.759 -0.2394 -0.4875  0.0572
  474MOL0     C63881   9.726   7.555   2.667  0.6590 -0.9289  0.7569
  474MOL0     C63882   9.844   7.483   2.645  0.2296 -0.6850 -0.1061
  474MOL0     C63883   9.945   7.540   2.552 -1.1666 -0.8567 -1.1417
  474MOL0     C63884   9.862   7.361   2.719  0.5000  0.0525  0.3868
  474MOL0     C63885   9.988   7.273   2.706  0.9418  0.2858 -0.6781
  474MOL0     O63886  10.021   7.218   2.576 -0.0403  0.3649  0.3255
  474MOL0     C63887  10.125   7.128   2.568 -0.3508 -0.8309  0.7208
  474MOL0     C63888  10.090   7.022   2.486  0.0528 -0.1302  0.7003
  474MOL0     C63889  10.185   6.922   2.463  0.1324  0.2364 -0.2232
  474MOL0     C63890  10.309   6.922   2.526  0.4635 -0.0796  0.1453
  474MOL0     O63891  10.401   6.819   2.527  0.4436 -0.0951 -0.2193
  474MOL0     C63892  10.405   6.738   2.407  0.1853 -0.4848  0.1498
  474MOL0     C63893  10.515   6.630   2.437 -0.1904  0.3133  0.3594
  474MOL0     C63894  10.578   6.543   2.318  0.0740 -0.1082  0.9791
  474MOL0     C63895  10.674   6.419   2.367 -0.0461 -1.1129 -0.1311
  474MOL0     C63896  10.709   6.340   2.246 -0.6429  0.5685  0.5837
  474MOL0     C63897  10.770   6.213   2.302  0.4075  0.0477 -0.2257
  474MOL0     C63898  10.923   6.212   2.307 -1.0212  0.2573 -0.0902
  474MOL0     C63899  10.974   6.084   2.374 -0.3841  0.9119  0.2066
  474MOL0    Cl63900  10.942   5.944   2.255  0.0615  0.1671  0.0814
  474MOL0     C63901  10.335   7.018   2.624 -0.7588  0.2202 -0.8027
  474MOL0     C63902  10.250   7.125   2.640 -0.5077  1.3898  0.1193
  474MOL0     O63903  10.030   7.218   2.807 -0.5731  0.1974  0.0479
  474MOL0     C63904   9.764   7.323   2.812  0.4523  0.0799 -0.1764
  474MOL0     C63905   9.651   7.402   2.828  0.2844  0.4372  0.0904
  474MOL0     N63906   9.031   7.567   2.800  0.0774  0.0861 -0.2014
  474MOL0     N63907   8.927   7.583   2.878 -0.0575  0.7588 -0.3733
  474MOL0     C63908   8.503   7.811   3.968  0.8656 -0.2028 -0.0368
  474MOL0     C63909   8.530   7.786   4.103 -0.4853  0.4363  1.0772
  474MOL0     C63910   8.617   7.846   4.560 -0.0399 -0.6774 -0.1751
  474MOL0     C63911   8.618   7.707   4.569  0.1043 -0.3960  0.1615
  474MOL0     C63912   8.641   7.646   4.693  1.0962  0.0404 -0.2166
  474MOL0     C63913   8.666   7.718   4.814  0.3149 -0.0627 -0.4379
  474MOL0     O63914   8.685   7.647   4.933  0.5582 -0.5545  0.2203
  474MOL0     C63915   8.819   7.598   4.967  0.7891  0.7908 -0.2209
  474MOL0     C63916   8.817   7.505   5.099 -0.2486 -1.0400  0.3307
  474MOL0     C63917   8.742   7.576   5.204 -0.3080 -0.4342  0.1690
  474MOL0     C63918   8.722   7.499   5.341  0.3200  0.8769  0.0024
  474MOL0     C63919   8.702   7.601   5.454  0.3564  0.8446  0.4266
  474MOL0     C63920   8.703   7.682   5.537  0.8809 -0.9068  0.7327
  474MOL0     C63921   8.668   7.858   4.806  1.4065 -0.5961  0.0894
  474MOL0     C63922   8.642   7.920   4.684 -0.3167 -0.2231  1.0291
  474MOL0     H63923   8.450   8.089   4.237  0.0936  0.4064 -1.1983
  474MOL0     H63924   8.397   8.125   3.980  0.6117 -0.6259 -3.3081
  474MOL0     H63925   8.525   7.787   3.707  0.8602 -0.4609  0.8807
  474MOL0     H63926   8.460   7.907   3.591  2.2279  2.6654 -1.2303
  474MOL0     H63927   8.644   8.065   3.643 -0.9060  1.5116  2.3632
  474MOL0     H63928   8.687   7.963   3.780  2.2808  2.4692 -1.2788
  474MOL0     H63929   8.835   7.904   3.587 -0.6084  2.2180 -0.2920
  474MOL0     H63930   8.734   7.769   3.615  1.2959  1.5722  2.9712
  474MOL0     H63931   8.598   7.831   3.407  1.2012 -0.0857 -5.1311
  474MOL0     H63932   8.669   7.990   3.418 -0.2228 -0.3569  0.3058
  474MOL0     H63933   8.886   7.908   3.346  3.0407 -3.8513  1.4720
  474MOL0     H63934   8.813   7.744   3.361 -1.6923  0.3664  1.0114
  474MOL0     H63935   8.646   7.812   3.192 -0.4283  2.0188  1.7762
  474MOL0     H63936   8.706   7.967   3.176 -1.9490 -1.4561  0.1463
  474MOL0     H63937   8.936   7.894   3.094 -0.5994  0.4643  2.3452
  474MOL0     H63938   8.911   7.732   3.149 -0.6159 -1.5996 -2.1419
  474MOL0     H63939   8.788   7.881   2.918 -0.8434 -0.8077 -0.4875
  474MOL0     H63940   8.712   7.719   2.973  1.3984 -1.2924 -0.6287
  474MOL0     H63941   8.972   7.887   2.763 -2.1749 -0.1302 -0.9491
  474MOL0     H63942   9.223   7.605   2.621  1.7443  1.2037 -2.9125
  474MOL0     H63943   9.148   7.751   2.557 -1.1455 -2.2181 -0.4820
  474MOL0     H63944   9.274   7.889   2.750 -0.8779 -0.8673  0.8178
  474MOL0     H63945   9.382   7.798   2.644  0.9118 -1.4398  0.7112
  474MOL0     H63946   9.264   7.713   2.920  0.2717 -2.2456  0.5453
  474MOL0     H63947   9.421   7.777   2.893 -0.3757  0.4101 -2.1338
  474MOL0     H63948   9.335   7.512   2.809 -2.4979  1.2900 -0.2935
  474MOL0     H63949   9.444   7.554   2.941  2.1136 -1.3470 -1.2016
  474MOL0     H63950   9.711   7.649   2.616 -3.2699 -1.1090  1.2857
  474MOL0     H63951   9.914   7.638   2.514  1.8321 -0.3092 -2.4375
  474MOL0     H63952  10.041   7.564   2.600 -1.2813  0.0895 -1.3673
  474MOL0     H63953   9.944   7.476   2.464 -0.8024 -0.0303 -1.7567
  474MOL0     H63954   9.994   7.019   2.435 -2.0830  0.4746  4.3482
  474MOL0     H63955  10.159   6.847   2.389  2.1143 -2.3593  1.5463
  474MOL0     H63956  10.308   6.693   2.383  0.4602 -0.3342 -1.3136
  474MOL0     H63957  10.436   6.807   2.327  5.1760 -1.3167  1.0469
  474MOL0     H63958  10.592   6.667   2.505  0.9550 -1.0427 -0.1424
  474MOL0     H63959  10.454   6.556   2.490  1.4271 -2.4204 -1.3844
  474MOL0     H63960  10.626   6.608   2.244  0.3911 -2.0156 -0.5701
  474MOL0     H63961  10.495   6.499   2.261 -1.0114  4.5436 -1.5877
  474MOL0     H63962  10.766   6.460   2.409 -0.1136 -0.2456 -0.8070
  474MOL0     H63963  10.618   6.367   2.445 -0.2499 -2.8030 -1.3265
  474MOL0     H63964  10.774   6.394   2.176 -0.8794  1.5978  1.1374
  474MOL0     H63965  10.621   6.320   2.184  0.6352  0.3877 -1.2592
  474MOL0     H63966  10.735   6.187   2.403  1.9798 -0.0564  0.3177
  474MOL0     H63967  10.730   6.129   2.245  2.7802 -0.8074 -0.7454
  474MOL0     H63968  10.966   6.293   2.366 -2.0694 -0.0220  1.0958
  474MOL0     H63969  10.966   6.218   2.207  1.3787  0.5655  0.9049
  474MOL0     H63970  10.930   6.073   2.473 -0.2907  2.8137  0.4967
  474MOL0     H63971  11.079   6.100   2.400 -0.9139  3.3037  1.0536
  474MOL0     H63972  10.429   7.017   2.679  0.4025  1.6161 -2.6286
  474MOL0     H63973  10.280   7.203   2.709  1.7453  0.2151  0.5888
  474MOL0     H63974   9.784   7.231   2.865 -0.5342  0.7467  1.4293
  474MOL0     H63975   9.584   7.358   2.901 -1.8531 -0.5568 -2.3287
  474MOL0     H63976   8.509   7.727   3.900 -1.2230 -0.3495 -0.1124
  474MOL0     H63977   8.568   7.687   4.126 -1.6623 -0.4795 -0.6074
  474MOL0     H63978   8.596   7.634   4.491 -0.0081 -0.4061  0.2036
  474MOL0     H63979   8.636   7.538   4.685  1.9160 -0.2498  2.4132
  474MOL0     H63980   8.862   7.547   4.880  0.1321  1.1031 -0.7402
  474MOL0     H63981   8.881   7.683   4.995  1.0614  0.2962  0.7382
  474MOL0     H63982   8.917   7.472   5.126 -0.8556 -1.0316  2.7926
  474MOL0     H63983   8.757   7.416   5.077 -2.2828  0.8124 -2.3976
  474MOL0     H63984   8.640   7.599   5.173  0.1498  0.8458 -0.4687
  474MOL0     H63985   8.799   7.669   5.217 -0.1981 -0.4983  0.1486
  474MOL0     H63986   8.803   7.431   5.369 -1.5190 -0.9776  1.1234
  474MOL0     H63987   8.638   7.429   5.331  1.9978 -1.3328  0.6610
  474MOL0     H63988   8.701   7.768   5.602 -2.1690 -1.7386  1.9211
  474MOL0     H63989   8.681   7.919   4.895  1.9278 -4.0334  2.5783
  474MOL0     H63990   8.626   8.026   4.698  0.1770 -0.1199  0.8204
  475MOL0     O63991   6.533   9.733   5.689  0.3374 -0.0338  0.5035
  475MOL0     C63992   6.515   9.748   5.813 -1.0621 -0.5110  0.1848
  475MOL0     O63993   6.401   9.790   5.878  0.0467 -0.5547 -0.2836
  475MOL0     C63994   6.288   9.820   5.799 -0.1432  0.3647  0.2529
  475MOL0     C63995   6.174   9.740   5.785 -1.1467 -0.4474  0.0162
  475MOL0     C63996   6.068   9.799   5.721  0.8301 -0.3411 -0.0045
  475MOL0     C63997   6.075   9.929   5.662  0.3914  0.2496 -0.0829
  475MOL0     O63998   5.981   9.986   5.587  0.8165  0.9240  0.7852
  475MOL0     C63999   5.846   9.991   5.637  0.2585 -0.6435 -0.1209
  475MOL0     C64000   5.747   9.988   5.512 -0.0649 -0.6148 -1.2086
  475MOL0     C64001   5.713   9.847   5.471 -0.0982  0.0641  0.3363
  475MOL0     C64002   5.684   9.866   5.320 -0.2424  0.5860 -0.3655
  475MOL0     C64003   5.626   9.750   5.260 -0.2865 -0.6471  0.0973
  475MOL0     C64004   5.616   9.764   5.111 -0.3324  1.0161 -0.9230
  475MOL0     C64005   5.550   9.647   5.035 -0.6414  0.2862 -0.1258
  475MOL0     C64006   5.525   9.665   4.892 -0.2738  0.4829  0.7051
  475MOL0     N64007   5.414   9.755   4.860 -0.6467 -0.4854 -0.7971
  475MOL0     C64008   5.289   9.736   4.909  0.2560  0.5745 -0.1081
  475MOL0     C64009   5.214   9.843   4.875 -0.8504  0.9268  0.7275
  475MOL0     C64010   5.070   9.878   4.911 -0.1272 -0.3874  0.4121
  475MOL0     C64011   4.975   9.816   4.799 -0.2769  0.0045 -0.4946
  475MOL0     C64012   4.822   9.819   4.847 -0.1658 -0.3052  0.3203
  475MOL0     C64013   4.756   9.957   4.876 -0.4520 -0.6884 -0.0726
  475MOL0     O64014   4.760  10.050   4.770  0.4355  2.1719  0.3277
  475MOL0     C64015   4.670  10.027   4.672 -0.3972  0.3692  0.5851
  475MOL0     C64016   4.708   9.942   4.574 -0.5229 -1.1913  0.2178
  475MOL0     C64017   4.625   9.903   4.474  0.0074 -0.1733 -0.4324
  475MOL0     C64018   4.670   9.794   4.391 -0.7232  0.6965 -0.4554
  475MOL0     C64019   4.489   9.955   4.462 -0.4777 -0.6204 -0.1412
  475MOL0     C64020   4.407   9.928   4.349 -0.3289  0.6312  0.5479
  475MOL0     O64021   4.276   9.906   4.372  0.1918 -0.2349  0.2785
  475MOL0     C64022   4.208   9.831   4.281 -0.1398  0.2472  0.5297
  475MOL0     C64023   4.214   9.689   4.265 -0.6299  0.1572 -0.0120
  475MOL0     C64024   4.141   9.624   4.169  0.6504  0.0146  0.0666
  475MOL0     C64025   4.055   9.697   4.087  0.1935  0.5321  0.4716
  475MOL0     O64026   3.985   9.631   3.994 -0.0653 -0.1672 -1.0478
  475MOL0     C64027   3.975   9.484   3.994 -0.3486  0.1238 -0.1420
  475MOL0     C64028   3.870   9.433   3.894  0.5288 -0.1560  1.3412
  475MOL0     C64029   3.851   9.533   3.768 -0.6476  0.4046  1.3481
  475MOL0     C64030   3.731   9.473   3.695  0.8504  0.6977  0.8229
  475MOL0     C64031   3.722   9.507   3.547  0.9030  0.5441  0.6107
  475MOL0     C64032   3.738   9.662   3.527 -0.4315 -0.1500 -0.5781
  475MOL0     C64033   3.685   9.692   3.392 -0.6216 -0.1506 -0.3014
  475MOL0     C64034   3.775   9.797   3.323  0.6997  0.1150 -0.8249
  475MOL0    Cl64035   3.927   9.720   3.286 -0.2493  0.1270 -0.0795
  475MOL0     C64036   4.046   9.837   4.106 -0.3409 -0.5656 -0.3396
  475MOL0     C64037   4.116   9.898   4.204 -0.0998 -0.1190  0.2680
  475MOL0     O64038   4.463   9.921   4.235  0.6228  0.2645 -0.4028
  475MOL0     C64039   4.454  10.048   4.566  0.9206 -0.1019 -0.5303
  475MOL0     C64040   4.545  10.075   4.671  0.0621 -0.2095 -0.0141
  475MOL0     N64041   5.295   9.930   4.818  0.1467 -1.0384  0.6780
  475MOL0     N64042   5.414   9.876   4.810  0.6238  0.6006 -0.1007
  475MOL0     C64043   6.192   9.999   5.678 -0.2780 -0.1487 -0.3909
  475MOL0     C64044   6.302   9.940   5.737  0.6882 -0.6973  0.4119
  475MOL0     C64045   6.621   9.701   5.900 -0.3573  0.5762  0.2832
  475MOL0     C64046   6.602   9.667   6.038 -0.5537 -0.9366 -0.7789
  475MOL0     C64047   6.695   9.596   6.117  0.4942 -0.0809  0.1347
  475MOL0     C64048   6.820   9.569   6.063 -0.1347  0.9712 -0.2222
  475MOL0     O64049   6.914   9.512   6.144 -0.0023 -0.2374  0.5705
  475MOL0     C64050   7.008   9.609   6.200  0.3336  1.1123 -0.4197
  475MOL0     C64051   6.939   9.662   6.325 -0.2820 -0.6494 -0.1360
  475MOL0     C64052   7.043   9.695   6.428  0.2588 -0.5043  0.1143
  475MOL0     C64053   6.977   9.767   6.557 -0.0536  0.3510  0.6446
  475MOL0     C64054   7.076   9.755   6.663  0.5460  0.3233 -0.6728
  475MOL0     C64055   7.146   9.747   6.760 -0.6741  0.0702 -0.4208
  475MOL0     C64056   6.844   9.613   5.931 -0.5982  0.5998  0.5524
  475MOL0     C64057   6.743   9.670   5.850  0.0223 -0.2983 -0.0639
  475MOL0     H64058   6.172   9.637   5.820 -3.1357 -1.5047 -2.8387
  475MOL0     H64059   5.972   9.751   5.706  0.4117  0.6278 -0.5387
  475MOL0     H64060   5.830   9.911   5.710  0.6683  1.7690  2.7911
  475MOL0     H64061   5.836  10.082   5.696  1.8736  2.5239 -4.2067
  475MOL0     H64062   5.659  10.037   5.556 -0.1890  1.3870 -3.4967
  475MOL0     H64063   5.788  10.052   5.433  0.6693  1.0271  0.4250
  475MOL0     H64064   5.792   9.776   5.496 -1.7896 -1.2171  2.2470
  475MOL0     H64065   5.623   9.810   5.519  0.0557 -0.5671  0.1482
  475MOL0     H64066   5.611   9.947   5.319 -1.3434 -0.2683  1.9927
  475MOL0     H64067   5.765   9.904   5.257 -0.1441 -1.2206 -1.3972
  475MOL0     H64068   5.681   9.657   5.272  0.5726 -0.0207  1.1420
  475MOL0     H64069   5.526   9.744   5.303 -0.2859  0.1015  0.2227
  475MOL0     H64070   5.562   9.857   5.089 -0.8593  0.6467 -1.2107
  475MOL0     H64071   5.720   9.758   5.079  0.8615 -0.4808  2.7840
  475MOL0     H64072   5.611   9.556   5.038 -1.7954 -0.5065  0.0103
  475MOL0     H64073   5.462   9.612   5.090 -0.1654 -2.3002 -0.8606
  475MOL0     H64074   5.511   9.570   4.839 -1.7253  0.7419  0.5986
  475MOL0     H64075   5.606   9.720   4.844  0.3547 -1.4902 -0.6312
  475MOL0     H64076   5.247   9.656   4.969 -3.7306 -1.3498 -4.7956
  475MOL0     H64077   5.046   9.835   5.009  3.3528  1.8664  2.4587
  475MOL0     H64078   5.051   9.985   4.902  0.3038 -0.2250  1.2760
  475MOL0     H64079   5.001   9.711   4.784  1.8096  0.4021  0.0181
  475MOL0     H64080   4.985   9.871   4.705 -0.9142  0.0162 -0.5601
  475MOL0     H64081   4.802   9.755   4.933 -1.4188 -2.0923 -1.2560
  475MOL0     H64082   4.767   9.781   4.761 -0.4479  1.1212 -0.1589
  475MOL0     H64083   4.802  10.013   4.958 -0.3156  0.0610 -0.6553
  475MOL0     H64084   4.654   9.937   4.913  0.9795 -3.3041  2.9712
  475MOL0     H64085   4.810   9.906   4.580 -0.4212 -1.2974 -1.5615
  475MOL0     H64086   4.731   9.835   4.311 -2.9144  4.9460 -0.2208
  475MOL0     H64087   4.720   9.717   4.450  0.0848  2.2650  0.9901
  475MOL0     H64088   4.585   9.741   4.347 -2.5397  1.3645  2.0154
  475MOL0     H64089   4.280   9.637   4.334 -2.2230  0.8560  2.1397
  475MOL0     H64090   4.155   9.517   4.155 -3.0546 -0.2926 -2.8594
  475MOL0     H64091   4.074   9.448   3.964  0.2581  0.3160  1.5191
  475MOL0     H64092   3.950   9.435   4.088  0.3648 -1.2778 -0.6492
  475MOL0     H64093   3.885   9.327   3.871 -1.9414 -0.4575  0.7898
  475MOL0     H64094   3.769   9.429   3.935 -0.7756  0.6653 -1.5046
  475MOL0     H64095   3.943   9.525   3.710 -1.1779  2.0143  0.2107
  475MOL0     H64096   3.837   9.640   3.787  3.1183  1.6897 -1.7599
  475MOL0     H64097   3.739   9.365   3.705 -0.4171  0.7685  3.8426
  475MOL0     H64098   3.638   9.512   3.739 -1.5130 -0.7826 -2.4925
  475MOL0     H64099   3.625   9.472   3.508  1.6269 -1.8711  0.8479
  475MOL0     H64100   3.794   9.451   3.487 -0.0008 -0.8154  0.7503
  475MOL0     H64101   3.670   9.702   3.603  1.1250  5.0740 -1.5126
  475MOL0     H64102   3.832   9.714   3.550 -0.7429 -0.3078  1.2147
  475MOL0     H64103   3.579   9.720   3.390 -0.6049 -0.1245 -0.9180
  475MOL0     H64104   3.684   9.605   3.326 -0.2307 -1.1318  0.9408
  475MOL0     H64105   3.785   9.883   3.390 -5.2925 -1.2719  2.5859
  475MOL0     H64106   3.730   9.837   3.232  0.3856  0.2202 -0.6277
  475MOL0     H64107   3.976   9.898   4.049 -1.0439  1.3337  2.3426
  475MOL0     H64108   4.093  10.003   4.218 -3.6357 -0.6605 -0.5578
  475MOL0     H64109   4.354  10.090   4.573  0.7711  0.0059 -2.7144
  475MOL0     H64110   4.509  10.149   4.743 -1.0318 -2.2784  1.6671
  475MOL0     H64111   6.214  10.089   5.622  2.5129  0.7304  1.8603
  475MOL0     H64112   6.392  10.001   5.739  1.6947 -1.7476 -3.6403
  475MOL0     H64113   6.507   9.683   6.087  0.0304 -1.3311  0.5242
  475MOL0     H64114   6.682   9.568   6.221  0.3210  2.9881  1.0374
  475MOL0     H64115   7.101   9.560   6.229 -0.7985 -0.6610  0.4528
  475MOL0     H64116   7.034   9.684   6.126  0.1461 -0.8068 -2.5301
  475MOL0     H64117   6.876   9.584   6.370  0.0745 -0.4788  0.6731
  475MOL0     H64118   6.881   9.748   6.290  3.2062  1.1205 -2.0536
  475MOL0     H64119   7.112   9.765   6.380 -1.1759  0.9523  0.0841
  475MOL0     H64120   7.093   9.604   6.461 -1.9902 -0.1320  5.4871
  475MOL0     H64121   6.883   9.725   6.594 -0.4412  2.3403  2.0621
  475MOL0     H64122   6.962   9.873   6.536 -2.8062  0.2737  1.8100
  475MOL0     H64123   7.194   9.759   6.855 -3.0988 -0.7330  0.9975
  475MOL0     H64124   6.946   9.596   5.900 -1.8060 -1.2343 -3.0006
  475MOL0     H64125   6.770   9.693   5.747 -0.9414 -0.9003 -0.4595
  476MOL0     O64126   9.381   7.517   9.941  0.1454  0.2551  0.1925
  476MOL0     C64127   9.421   7.615  10.000  0.5501  0.5143  0.2888
  476MOL0     O64128   9.484   7.608  10.116 -0.0729  0.3830 -0.2606
  476MOL0     C64129   9.606   7.548  10.114  0.3229  0.0634 -0.2238
  476MOL0     C64130   9.620   7.406  10.139  0.4374 -0.3492  0.6409
  476MOL0     C64131   9.742   7.353  10.144 -0.6600 -0.7183 -0.3136
  476MOL0     C64132   9.863   7.443  10.121  0.0053  0.6051  0.8724
  476MOL0     O64133   9.995   7.396  10.127  1.5140  0.3124 -0.0544
  476MOL0     C64134  10.036   7.346   9.998 -0.2031  0.2967  0.2479
  476MOL0     C64135  10.177   7.310  10.009 -0.1857 -0.5165 -0.8737
  476MOL0     C64136  10.284   7.417  10.051 -0.0487  0.3167 -0.7893
  476MOL0     C64137  10.411   7.350  10.091 -0.1053  0.1501 -0.0542
  476MOL0     C64138  10.530   7.450  10.090  1.0941  0.4189  1.0780
  476MOL0     C64139  10.533   7.539   9.965  0.0388  0.0983 -0.5272
  476MOL0     C64140  10.669   7.610   9.942 -1.0092 -0.2837 -0.1622
  476MOL0     C64141  10.678   7.690   9.818 -0.3196  0.5920 -0.8570
  476MOL0     N64142  10.609   7.825   9.833 -0.0888  0.0748  0.3507
  476MOL0     C64143  10.645   7.944   9.894 -0.4459  0.4481 -0.2027
  476MOL0     C64144  10.555   8.033   9.851  0.2236 -0.1903  0.9331
  476MOL0     C64145  10.576   8.184   9.873 -0.4202 -0.5015  0.1670
  476MOL0     C64146  10.613   8.218  10.025 -0.0282 -0.0414  1.2662
  476MOL0     C64147  10.523   8.170  10.142 -0.7780  0.4967  0.4836
  476MOL0     C64148  10.382   8.231  10.154 -0.3601  0.2129  0.5704
  476MOL0     O64149  10.298   8.144  10.230 -0.1417  0.3021  0.1481
  476MOL0     C64150  10.207   8.208  10.313 -0.6450  0.2404 -0.0099
  476MOL0     C64151  10.135   8.320  10.272  1.8293  0.1496 -0.8938
  476MOL0     C64152  10.068   8.393  10.377 -0.3397  0.0703  0.6249
  476MOL0     C64153   9.998   8.518  10.317  0.1777  1.0397 -0.3609
  476MOL0     C64154  10.075   8.358  10.515  0.5860  0.6502  0.2599
  476MOL0     C64155  10.005   8.441  10.625  0.4399  0.0197  0.0280
  476MOL0     O64156  10.035   8.392  10.746  0.0907 -0.8316 -0.2051
  476MOL0     C64157   9.971   8.455  10.859 -1.0344  0.3927  0.3499
  476MOL0     C64158   9.913   8.376  10.953  0.1946  0.8666  0.3579
  476MOL0     C64159   9.843   8.428  11.054 -0.3936  0.2830  0.4181
  476MOL0     C64160   9.841   8.566  11.069 -0.2691  0.1562 -0.8972
  476MOL0     O64161   9.770   8.632  11.165 -1.0872  0.9038 -0.1261
  476MOL0     C64162   9.702   8.571  11.269  1.1883  0.7655 -0.2839
  476MOL0     C64163   9.608   8.658  11.342 -0.9020  0.1121  0.3594
  476MOL0     C64164   9.668   8.758  11.442 -0.4361 -0.5238  0.8986
  476MOL0     C64165   9.556   8.804  11.537 -0.5523  0.1631 -0.0322
  476MOL0     C64166   9.606   8.904  11.651 -0.3063 -0.3491 -0.3834
  476MOL0     C64167   9.608   9.040  11.593  0.3805  0.3864  0.4778
  476MOL0     C64168   9.666   9.144  11.692 -0.1359  0.2864 -0.1823
  476MOL0     C64169   9.673   9.293  11.637  0.1122 -0.2412  0.0638
  476MOL0    Cl64170   9.509   9.388  11.618  0.4010  0.3099 -0.5778
  476MOL0     C64171   9.907   8.652  10.991  0.8993 -0.1105  0.3787
  476MOL0     C64172   9.968   8.600  10.882 -0.9718  0.4942  0.4293
  476MOL0     O64173   9.931   8.532  10.601  0.0437  0.6544  0.0181
  476MOL0     C64174  10.149   8.236  10.546 -0.4007 -0.1244  1.2162
  476MOL0     C64175  10.212   8.161  10.446  0.8370 -0.1625  0.1666
  476MOL0     N64176  10.452   7.959   9.789  0.2110 -0.2744  0.0116
  476MOL0     N64177  10.492   7.839   9.770 -0.4092 -0.6097  0.1245
  476MOL0     C64178   9.838   7.571  10.065 -0.5010 -0.8369 -0.2326
  476MOL0     C64179   9.718   7.625  10.065  0.2254  0.3987  0.2902
  476MOL0     C64180   9.398   7.749   9.942 -0.6145  0.0804 -0.3359
  476MOL0     C64181   9.330   7.760   9.820  0.3459 -0.0700 -0.0580
  476MOL0     C64182   9.313   7.885   9.760  0.3076  0.2560 -0.5583
  476MOL0     C64183   9.373   7.998   9.809 -0.4105 -1.3974 -0.2281
  476MOL0     O64184   9.367   8.125   9.757  0.5138 -0.9946  0.0121
  476MOL0     C64185   9.449   8.147   9.637  0.1395 -0.0709  0.5549
  476MOL0     C64186   9.490   8.296   9.619 -0.5624  0.7106  0.9957
  476MOL0     C64187   9.556   8.364   9.734 -0.4011  0.3304 -0.0548
  476MOL0     C64188   9.674   8.288   9.789  0.1456  0.0472  0.0819
  476MOL0     C64189   9.740   8.354   9.894 -0.0313  0.2730 -0.7194
  476MOL0     C64190   9.797   8.390   9.995  0.0367  0.5592  0.5529
  476MOL0     C64191   9.432   7.996   9.935 -0.1916  0.8403  0.0073
  476MOL0     C64192   9.440   7.872  10.002 -0.4427  0.6806 -1.0915
  476MOL0     H64193   9.534   7.341  10.150  1.1186 -1.6744 -1.4571
  476MOL0     H64194   9.752   7.250  10.175 -4.6634 -1.7200 -1.7188
  476MOL0     H64195   9.987   7.253   9.968  1.1160 -1.2786  2.6129
  476MOL0     H64196  10.017   7.420   9.919  1.5890  0.5619  0.0281
  476MOL0     H64197  10.188   7.239  10.092 -1.6301  1.8883  1.5164
  476MOL0     H64198  10.211   7.276   9.911 -1.9830  4.6752 -3.6760
  476MOL0     H64199  10.287   7.486   9.967  0.7860  0.8992 -0.2928
  476MOL0     H64200  10.250   7.470  10.140  0.7345  0.9361 -0.8539
  476MOL0     H64201  10.404   7.296  10.186  1.3575 -1.0332 -0.5891
  476MOL0     H64202  10.443   7.274  10.019  2.6533 -0.7622  1.9427
  476MOL0     H64203  10.544   7.512  10.179  2.6325  0.0344  1.1347
  476MOL0     H64204  10.611   7.376  10.091  0.3476 -0.4587 -0.0997
  476MOL0     H64205  10.504   7.476   9.880  2.3794 -0.1251 -1.2112
  476MOL0     H64206  10.456   7.616   9.981 -1.4512 -1.3532 -0.3576
  476MOL0     H64207  10.717   7.661  10.026  0.9710 -0.7072 -0.9953
  476MOL0     H64208  10.739   7.528   9.928  0.6302  1.3899 -2.4973
  476MOL0     H64209  10.622   7.629   9.746 -1.2855 -1.6446  1.5979
  476MOL0     H64210  10.781   7.707   9.786  0.4038  0.4379  1.2327
  476MOL0     H64211  10.744   7.962   9.933  1.5003 -0.4287 -4.2339
  476MOL0     H64212  10.655   8.211   9.803 -1.5407  2.1579 -0.1957
  476MOL0     H64213  10.482   8.232   9.843  0.0989 -0.2955 -1.1721
  476MOL0     H64214  10.627   8.326  10.031 -1.4212  0.2294  0.2746
  476MOL0     H64215  10.718   8.190  10.035  0.9375  3.1135  0.8670
  476MOL0     H64216  10.577   8.185  10.236  2.1150 -3.3233 -0.3337
  476MOL0     H64217  10.504   8.065  10.120  1.7127  0.2922 -1.0739
  476MOL0     H64218  10.340   8.241  10.053 -3.4758 -0.3246  1.6965
  476MOL0     H64219  10.382   8.335  10.189  0.4920  0.0339  1.1189
  476MOL0     H64220  10.146   8.346  10.167  3.1867  0.5616 -0.6744
  476MOL0     H64221   9.893   8.518  10.350  0.1073 -1.1499 -0.4215
  476MOL0     H64222  10.044   8.610  10.353  1.3594  1.3649 -2.5070
  476MOL0     H64223   9.992   8.521  10.208 -0.9910 -0.9263 -0.4007
  476MOL0     H64224   9.925   8.273  10.922  2.0058  0.8980  0.8385
  476MOL0     H64225   9.782   8.364  11.116 -0.7267  1.0685  0.9248
  476MOL0     H64226   9.650   8.477  11.246  0.6075 -0.3558  4.4919
  476MOL0     H64227   9.773   8.531  11.342 -1.9922  0.6719  3.0515
  476MOL0     H64228   9.550   8.712  11.266 -1.4267 -0.1779  0.5498
  476MOL0     H64229   9.540   8.589  11.394 -1.4242  0.2265 -0.1549
  476MOL0     H64230   9.702   8.849  11.391  0.7036 -1.5483 -0.2390
  476MOL0     H64231   9.755   8.726  11.500  0.7025  1.9373  0.7064
  476MOL0     H64232   9.478   8.854  11.478  0.7856  0.3113 -1.7514
  476MOL0     H64233   9.523   8.713  11.588  3.6828 -1.9195 -0.6063
  476MOL0     H64234   9.704   8.884  11.696  0.0733  3.1976  0.6245
  476MOL0     H64235   9.524   8.892  11.722 -1.0015 -2.1651 -1.3969
  476MOL0     H64236   9.669   9.044  11.502 -3.2193  1.2127 -2.1296
  476MOL0     H64237   9.511   9.069  11.551  0.1735 -0.1918  0.5439
  476MOL0     H64238   9.771   9.115  11.706 -0.0687  0.3018 -0.6577
  476MOL0     H64239   9.617   9.136  11.790 -3.8893 -1.4377 -1.9881
  476MOL0     H64240   9.715   9.270  11.539 -1.8857 -4.3673 -0.0353
  476MOL0     H64241   9.741   9.356  11.695  0.5444 -1.0272  0.4300
  476MOL0     H64242   9.917   8.755  11.023  0.8436 -0.3289  1.1312
  476MOL0     H64243  10.023   8.662  10.813 -2.7279  1.2518 -0.3481
  476MOL0     H64244  10.146   8.188  10.643 -3.1742 -1.4072  0.5811
  476MOL0     H64245  10.263   8.068  10.469  0.9334 -0.5094 -1.3697
  476MOL0     H64246   9.911   7.633  10.014 -0.4642  1.0813  1.9861
  476MOL0     H64247   9.692   7.727  10.039 -1.2183 -0.0458 -0.0940
  476MOL0     H64248   9.283   7.672   9.777 -3.3377  1.0874  1.2139
  476MOL0     H64249   9.254   7.886   9.668 -1.0727 -0.0416  0.2900
  476MOL0     H64250   9.545   8.095   9.631  0.9679  1.1192  2.4833
  476MOL0     H64251   9.383   8.114   9.556  4.0697 -0.1567 -2.9614
  476MOL0     H64252   9.406   8.358   9.585  1.5174  1.7797 -2.8926
  476MOL0     H64253   9.559   8.312   9.535 -0.8144  2.1403  1.0285
  476MOL0     H64254   9.473   8.367   9.804  0.4346 -0.2664  0.9794
  476MOL0     H64255   9.579   8.468   9.708 -1.6658  0.1413 -2.2008
  476MOL0     H64256   9.746   8.275   9.707 -1.4277 -1.3248 -1.1508
  476MOL0     H64257   9.646   8.189   9.825  2.1297 -0.0142  1.7017
  476MOL0     H64258   9.860   8.425  10.074 -1.3849  1.0829  1.4987
  476MOL0     H64259   9.483   8.085   9.973  0.2091  1.2060 -1.3161
  476MOL0     H64260   9.492   7.879  10.097 -2.7874  0.4332  0.2897
  477MOL0     O64261   7.930   6.478   6.257  0.4615  0.2229  0.0773
  477MOL0     C64262   7.843   6.480   6.340  0.6453 -0.3555  0.4018
  477MOL0     O64263   7.744   6.571   6.356  0.5451  0.6142 -0.8143
  477MOL0     C64264   7.737   6.679   6.273  0.4862  0.6400  0.2169
  477MOL0     C64265   7.610   6.690   6.219 -0.7888  1.1038 -0.0384
  477MOL0     C64266   7.584   6.782   6.115 -0.8442 -0.2672  0.8555
  477MOL0     C64267   7.681   6.876   6.075 -0.3189  0.2904  0.8765
  477MOL0     O64268   7.656   6.950   5.971 -0.2031  0.5678  0.1201
  477MOL0     C64269   7.660   7.091   5.996 -0.1287  0.0088  1.3679
  477MOL0     C64270   7.585   7.154   5.878 -0.4767 -0.5385 -0.3518
  477MOL0     C64271   7.432   7.139   5.877  0.6088  0.0181 -0.2377
  477MOL0     C64272   7.388   7.039   5.762  0.0434  0.2879  0.2004
  477MOL0     C64273   7.386   7.103   5.621 -0.0902 -0.8197  0.0011
  477MOL0     C64274   7.368   6.999   5.515  0.3047 -0.5731  0.0862
  477MOL0     C64275   7.340   7.066   5.389  0.5554  0.3700  0.5950
  477MOL0     C64276   7.437   7.172   5.344  0.1117  0.6171 -0.4356
  477MOL0     N64277   7.427   7.176   5.201 -0.1433  0.3737  0.7136
  477MOL0     C64278   7.502   7.096   5.109 -0.3483  0.1214 -0.2189
  477MOL0     C64279   7.436   7.116   4.996  0.6320  0.7387 -0.4467
  477MOL0     C64280   7.471   7.042   4.872  0.9975 -0.1626 -0.1827
  477MOL0     C64281   7.427   7.111   4.740  0.2948  1.1591 -0.2767
  477MOL0     C64282   7.519   7.228   4.696 -0.7924  0.3045 -0.4750
  477MOL0     C64283   7.463   7.369   4.702  0.2120  1.2407 -0.4476
  477MOL0     O64284   7.361   7.371   4.598 -0.4107  0.4742  0.5143
  477MOL0     C64285   7.306   7.491   4.547  0.2331  1.1972 -0.4860
  477MOL0     C64286   7.197   7.494   4.462  0.1814  0.0981 -0.0105
  477MOL0     C64287   7.145   7.615   4.419  0.5056 -0.0563 -0.5707
  477MOL0     C64288   7.033   7.620   4.317  0.5156 -0.5554  0.7820
  477MOL0     C64289   7.192   7.742   4.471 -0.5487 -0.6742 -0.4405
  477MOL0     C64290   7.131   7.872   4.435 -0.3961  0.4371 -0.6054
  477MOL0     O64291   7.130   7.908   4.297  0.3403 -0.4600 -0.8039
  477MOL0     C64292   7.088   8.035   4.287 -0.0581  0.2667 -0.6489
  477MOL0     C64293   6.959   8.075   4.268 -0.1093  0.2345 -0.0923
  477MOL0     C64294   6.932   8.211   4.239 -0.6512 -0.1361  0.7472
  477MOL0     C64295   7.032   8.312   4.236 -0.0787 -0.0866  1.2201
  477MOL0     O64296   7.020   8.441   4.191  0.5017 -0.4949 -0.5070
  477MOL0     C64297   6.887   8.497   4.198 -0.5232 -0.0434 -0.4736
  477MOL0     C64298   6.853   8.547   4.331  1.2953 -0.1460 -0.2068
  477MOL0     C64299   6.782   8.434   4.416  1.0240 -0.2747 -0.6748
  477MOL0     C64300   6.694   8.495   4.525  0.6458 -0.4635  0.1031
  477MOL0     C64301   6.776   8.567   4.631 -0.7724  0.2337 -0.7650
  477MOL0     C64302   6.694   8.576   4.764 -0.0525  0.5330  0.6726
  477MOL0     C64303   6.558   8.665   4.755 -1.0381 -0.3103  0.1254
  477MOL0     C64304   6.488   8.698   4.883  0.1475  1.3056 -0.4483
  477MOL0    Cl64305   6.593   8.808   4.982  0.7310  0.0095  0.4136
  477MOL0     C64306   7.168   8.268   4.241 -0.3728 -0.5761 -0.1479
  477MOL0     C64307   7.193   8.133   4.268 -0.2256  1.3051 -0.3675
  477MOL0     O64308   7.079   7.931   4.528  0.4688 -1.1236 -1.0554
  477MOL0     C64309   7.302   7.733   4.553 -0.4888 -0.4282  0.7262
  477MOL0     C64310   7.358   7.609   4.590 -0.2150 -0.6773 -0.2035
  477MOL0     N64311   7.341   7.217   5.004 -0.0699  0.1833  0.1691
  477MOL0     N64312   7.342   7.261   5.127 -1.0401  0.4442 -1.2116
  477MOL0     C64313   7.809   6.861   6.143 -0.0076 -0.1508  0.6208
  477MOL0     C64314   7.837   6.768   6.252  0.5558 -0.0560  0.1332
  477MOL0     C64315   7.843   6.368   6.429  0.1687 -0.7180  0.2949
  477MOL0     C64316   7.746   6.348   6.531  0.0979 -0.3500  0.9596
  477MOL0     C64317   7.759   6.259   6.642 -1.2853 -0.1072  0.3197
  477MOL0     C64318   7.875   6.180   6.661 -0.8075 -0.0451  0.5851
  477MOL0     O64319   7.891   6.087   6.755  0.2387  0.1015 -0.3078
  477MOL0     C64320   7.813   5.971   6.726  0.2942  0.6903  0.3332
  477MOL0     C64321   7.905   5.845   6.705 -0.1343  0.6717  0.8240
  477MOL0     C64322   7.964   5.832   6.568 -0.3697  0.1704 -0.1669
  477MOL0     C64323   7.963   5.683   6.526  0.1860 -0.3072  0.6231
  477MOL0     C64324   7.824   5.652   6.480 -0.5552 -0.4633 -0.4483
  477MOL0     C64325   7.722   5.636   6.424  1.1987  0.3881  0.9341
  477MOL0     C64326   7.968   6.192   6.561 -0.3407 -0.0815  0.5621
  477MOL0     C64327   7.953   6.276   6.442 -0.8209 -0.4279 -0.7016
  477MOL0     H64328   7.534   6.617   6.246  1.3231 -1.4652 -0.5106
  477MOL0     H64329   7.500   6.780   6.046 -1.4632 -2.8001  1.5952
  477MOL0     H64330   7.607   7.110   6.090 -1.3980 -1.0382  0.8820
  477MOL0     H64331   7.763   7.127   5.996 -0.6804  1.8074 -0.2768
  477MOL0     H64332   7.605   7.261   5.878 -0.6182 -0.4423  2.4262
  477MOL0     H64333   7.627   7.111   5.786  2.4356  0.4974  0.3995
  477MOL0     H64334   7.397   7.096   5.971  1.0575 -2.2866 -1.0562
  477MOL0     H64335   7.381   7.236   5.870 -1.3050 -0.7745  1.6478
  477MOL0     H64336   7.445   6.945   5.760 -1.3052 -0.6040 -3.0742
  477MOL0     H64337   7.283   7.015   5.780  0.3126 -1.4331 -0.3237
  477MOL0     H64338   7.305   7.176   5.629  0.7568 -0.0453  2.5622
  477MOL0     H64339   7.478   7.159   5.604  0.2906 -0.0001  3.7999
  477MOL0     H64340   7.457   6.935   5.520  1.6662  1.2695  0.8969
  477MOL0     H64341   7.282   6.937   5.540  0.5875 -2.0898 -2.3667
  477MOL0     H64342   7.335   6.992   5.308 -0.7883 -0.2469  1.2100
  477MOL0     H64343   7.239   7.109   5.389  0.5955  0.5224  2.2378
  477MOL0     H64344   7.536   7.147   5.383 -0.0581  0.5414 -0.0471
  477MOL0     H64345   7.409   7.270   5.384  0.2253 -0.5018  2.6236
  477MOL0     H64346   7.576   7.020   5.129 -2.1325 -1.7938 -0.5543
  477MOL0     H64347   7.576   7.014   4.866  0.1683 -3.5675 -0.5289
  477MOL0     H64348   7.419   6.947   4.885 -2.0593  1.6673  2.5801
  477MOL0     H64349   7.320   7.135   4.742 -0.1625 -0.7463  0.6004
  477MOL0     H64350   7.439   7.042   4.657  3.2074  2.6360 -1.2143
  477MOL0     H64351   7.544   7.213   4.591 -1.2439 -3.7840 -0.1849
  477MOL0     H64352   7.616   7.227   4.747 -0.4025  1.5628 -1.1634
  477MOL0     H64353   7.545   7.441   4.696 -0.6497  2.1168 -2.6415
  477MOL0     H64354   7.420   7.379   4.802 -3.9718 -1.8869 -1.6638
  477MOL0     H64355   7.166   7.393   4.439  3.9804 -1.6060  1.5219
  477MOL0     H64356   6.974   7.528   4.305  1.4434 -0.7173 -5.3699
  477MOL0     H64357   6.959   7.697   4.338  0.4722 -1.2790  3.9132
  477MOL0     H64358   7.081   7.635   4.220 -2.6193  1.1237 -0.6472
  477MOL0     H64359   6.881   8.000   4.265 -3.3018  3.2892 -0.6357
  477MOL0     H64360   6.832   8.244   4.214  0.3227  1.1991 -1.7322
  477MOL0     H64361   6.903   8.579   4.127  0.0259  0.3592  0.1054
  477MOL0     H64362   6.808   8.440   4.149 -0.4153  0.0074 -0.7108
  477MOL0     H64363   6.946   8.579   4.380  0.6673 -2.9044  3.2016
  477MOL0     H64364   6.789   8.634   4.318  2.7301  1.2414  1.4756
  477MOL0     H64365   6.857   8.366   4.457 -1.4442 -2.8315 -0.0816
  477MOL0     H64366   6.711   8.385   4.348 -0.2228 -0.7469  0.9200
  477MOL0     H64367   6.623   8.570   4.489  0.8418  0.7779  2.1764
  477MOL0     H64368   6.628   8.416   4.563 -1.3802  2.0096  2.0347
  477MOL0     H64369   6.819   8.663   4.600 -1.7059  1.1018  0.4700
  477MOL0     H64370   6.856   8.498   4.659 -1.7196 -0.9931 -1.0342
  477MOL0     H64371   6.675   8.472   4.792  1.0096 -0.1733 -1.1028
  477MOL0     H64372   6.764   8.622   4.835  1.5083 -2.5118  1.2893
  477MOL0     H64373   6.495   8.591   4.705  0.0083 -2.6029  1.9928
  477MOL0     H64374   6.581   8.753   4.695 -0.6882  0.5001  1.4295
  477MOL0     H64375   6.457   8.606   4.934 -0.0007  0.9813 -1.1073
  477MOL0     H64376   6.390   8.741   4.862 -1.7099 -1.9404  0.7974
  477MOL0     H64377   7.252   8.337   4.237 -0.3637 -0.6380 -1.4270
  477MOL0     H64378   7.298   8.107   4.270 -0.0246  2.0912 -0.6390
  477MOL0     H64379   7.356   7.825   4.572  0.2080 -0.3941 -1.1997
  477MOL0     H64380   7.431   7.619   4.670 -0.3897  0.6916 -0.1846
  477MOL0     H64381   7.889   6.923   6.104 -2.2895  2.0676 -0.8591
  477MOL0     H64382   7.934   6.769   6.300  0.1580  3.2370  1.1425
  477MOL0     H64383   7.649   6.396   6.527 -1.2636 -2.9110  0.7354
  477MOL0     H64384   7.665   6.237   6.691 -1.7404  1.6270  0.2935
  477MOL0     H64385   7.755   5.946   6.816  4.1484 -3.7753  1.9886
  477MOL0     H64386   7.737   5.991   6.650 -1.8243 -0.1847  2.1195
  477MOL0     H64387   7.848   5.753   6.722  1.7877 -1.3297 -2.3890
  477MOL0     H64388   7.998   5.845   6.761  0.6976  0.3470 -0.4988
  477MOL0     H64389   8.060   5.883   6.557 -0.7188  0.9262  0.2080
  477MOL0     H64390   7.893   5.886   6.504 -0.6621 -1.1746 -1.0149
  477MOL0     H64391   7.995   5.613   6.604  0.4005  0.3060  1.0869
  477MOL0     H64392   8.029   5.673   6.440 -0.2086  0.6848  0.1857
  477MOL0     H64393   7.631   5.610   6.374 -0.3369 -0.7824  4.0921
  477MOL0     H64394   8.063   6.139   6.563 -1.9937 -3.3534  0.4545
  477MOL0     H64395   8.039   6.284   6.376  0.5817 -0.0926  1.0819
  478MOL0     O64396  11.211   8.195   6.124 -0.6903  0.5934  0.0686
  478MOL0     C64397  11.158   8.160   6.025  0.4455 -0.2059 -0.3470
  478MOL0     O64398  11.164   8.038   5.965 -0.4834 -0.0846 -0.1718
  478MOL0     C64399  11.272   7.950   5.987  0.9104 -0.7571 -0.0799
  478MOL0     C64400  11.241   7.817   6.007 -0.3588  0.1121  0.2505
  478MOL0     C64401  11.343   7.732   6.047 -0.0511 -0.0953  0.2637
  478MOL0     C64402  11.477   7.767   6.059  0.0367  0.1750 -0.2405
  478MOL0     O64403  11.567   7.663   6.067  0.4924 -0.1127 -0.0384
  478MOL0     C64404  11.704   7.702   6.092 -0.1143  0.3017 -0.0395
  478MOL0     C64405  11.770   7.570   6.099 -0.3919 -0.8108 -0.1996
  478MOL0     C64406  11.748   7.485   6.233  0.5327 -0.1221  0.1712
  478MOL0     C64407  11.813   7.345   6.206 -0.4038 -0.4222 -0.2266
  478MOL0     C64408  11.810   7.274   6.341  0.0693 -0.2048  0.0196
  478MOL0     C64409  11.858   7.128   6.339  1.2202  0.0378 -0.3377
  478MOL0     C64410  12.005   7.120   6.328 -0.2531  0.2107 -0.2923
  478MOL0     C64411  12.068   6.985   6.306  0.0234  0.1588 -0.2323
  478MOL0     N64412  12.215   6.994   6.310 -0.4032  0.4850 -0.5681
  478MOL0     C64413  12.290   7.049   6.213  0.6100  0.4349 -0.2403
  478MOL0     C64414  12.413   7.008   6.260  0.1429 -0.2245 -0.6572
  478MOL0     C64415  12.541   7.039   6.186  1.0619 -0.8649  0.0721
  478MOL0     C64416  12.533   6.985   6.041 -0.2664  0.1304  0.7877
  478MOL0     C64417  12.651   7.041   5.959 -0.7225 -0.3542  0.2956
  478MOL0     C64418  12.638   7.008   5.807 -0.5250  0.2215  0.6236
  478MOL0     O64419  12.661   6.866   5.800  0.1937  0.3035  0.3052
  478MOL0     C64420  12.799   6.844   5.797 -0.7630  0.5028 -0.3539
  478MOL0     C64421  12.854   6.770   5.899  0.0322 -0.7649  0.9213
  478MOL0     C64422  12.989   6.725   5.905  0.2186 -0.0987 -0.2847
  478MOL0     C64423  13.041   6.668   6.031  0.8299 -0.2899 -0.1326
  478MOL0     C64424  13.080   6.763   5.805 -1.3238  0.3280 -1.1351
  478MOL0     C64425  13.229   6.743   5.797  0.1872  0.9558  0.9137
  478MOL0     O64426  13.287   6.757   5.673 -0.1824  0.2094  0.4876
  478MOL0     C64427  13.410   6.709   5.653 -0.4403  0.0589 -1.1684
  478MOL0     C64428  13.427   6.609   5.556 -0.5576  0.7761 -0.6458
  478MOL0     C64429  13.551   6.546   5.531 -0.0550 -1.1805  0.7172
  478MOL0     C64430  13.663   6.595   5.599  0.6576  0.5368 -0.1761
  478MOL0     O64431  13.782   6.533   5.553  0.2366  0.4266 -0.0388
  478MOL0     C64432  13.887   6.544   5.634 -1.1094  0.6447 -0.7080
  478MOL0     C64433  14.012   6.480   5.564  0.2628 -0.4315 -0.6599
  478MOL0     C64434  14.042   6.558   5.436 -0.1920  0.0794 -0.5473
  478MOL0     C64435  14.136   6.681   5.463  0.2675 -0.0663 -0.5200
  478MOL0     C64436  14.179   6.756   5.335 -0.1307 -0.3291  0.3358
  478MOL0     C64437  14.311   6.826   5.364  0.3737 -0.5537 -0.5020
  478MOL0     C64438  14.308   6.942   5.464  0.4656 -0.3073  0.1120
  478MOL0     C64439  14.442   6.997   5.503  0.1804 -0.5771 -0.3565
  478MOL0    Cl64440  14.540   7.058   5.371 -0.3033 -0.2156 -0.2122
  478MOL0     C64441  13.653   6.702   5.691 -0.1026  0.2500 -0.0423
  478MOL0     C64442  13.527   6.763   5.716 -0.3790 -0.0470  0.2057
  478MOL0     O64443  13.285   6.689   5.895 -0.1466  0.0401  0.6062
  478MOL0     C64444  13.020   6.824   5.692  1.1837 -0.7125  0.0615
  478MOL0     C64445  12.878   6.863   5.689  0.0482  0.3134 -0.1518
  478MOL0     N64446  12.409   6.950   6.386  0.1068 -0.2671 -0.7590
  478MOL0     N64447  12.289   6.937   6.411  0.6597  0.1252 -0.0795
  478MOL0     C64448  11.506   7.897   6.026  0.5515  0.0973 -0.5192
  478MOL0     C64449  11.406   7.996   6.006 -0.6080 -0.3689  1.2717
  478MOL0     C64450  11.105   8.271   5.943  0.7013 -0.1347  1.1444
  478MOL0     C64451  11.114   8.409   5.974  0.2563  1.1018  0.2373
  478MOL0     C64452  11.048   8.505   5.897  0.3397  0.0511 -0.1599
  478MOL0     C64453  10.979   8.468   5.771  0.2157  0.3501  0.3201
  478MOL0     O64454  10.927   8.573   5.693  1.0573  0.3779 -0.0305
  478MOL0     C64455  10.853   8.543   5.572  0.3770 -0.4115  0.8319
  478MOL0     C64456  10.836   8.660   5.469 -0.0857 -0.4654  0.1931
  478MOL0     C64457  10.957   8.671   5.382 -0.0613  0.6821  0.4430
  478MOL0     C64458  11.076   8.728   5.452  0.3307 -0.2153 -0.6319
  478MOL0     C64459  11.191   8.733   5.357  0.6714  0.2729 -0.0193
  478MOL0     C64460  11.270   8.745   5.276 -1.5377  0.6355 -0.2379
  478MOL0     C64461  10.985   8.329   5.736 -0.6948 -0.0504 -0.6582
  478MOL0     C64462  11.054   8.239   5.815 -0.3063 -0.0255  0.7880
  478MOL0     H64463  11.141   7.774   5.999 -0.2873 -0.0032 -0.0064
  478MOL0     H64464  11.318   7.627   6.061 -2.2495  0.0840 -1.6779
  478MOL0     H64465  11.748   7.750   6.004 -0.6345  1.3982  0.2912
  478MOL0     H64466  11.734   7.762   6.179  3.5085  0.0818 -0.9512
  478MOL0     H64467  11.740   7.506   6.015 -0.0582 -0.8626 -0.2820
  478MOL0     H64468  11.877   7.583   6.084 -0.7734  0.9982 -1.6687
  478MOL0     H64469  11.790   7.538   6.319 -2.7450  1.4046  1.0139
  478MOL0     H64470  11.644   7.476   6.265  0.9884  0.6510  2.0367
  478MOL0     H64471  11.745   7.297   6.135  0.8778 -1.6071 -0.6948
  478MOL0     H64472  11.912   7.345   6.159  0.0140 -0.8179  0.6272
  478MOL0     H64473  11.868   7.337   6.409  1.2230  2.5654 -3.1808
  478MOL0     H64474  11.716   7.287   6.396  1.3159 -1.4274  2.5768
  478MOL0     H64475  11.829   7.092   6.439  1.1156 -1.0665 -0.7471
  478MOL0     H64476  11.810   7.067   6.262 -0.4759  2.1743 -1.0844
  478MOL0     H64477  12.048   7.203   6.272 -2.5548  2.5921  1.2171
  478MOL0     H64478  12.032   7.150   6.430 -0.7349 -2.2926  0.6447
  478MOL0     H64479  12.044   6.941   6.209 -0.1438 -3.0791  1.1671
  478MOL0     H64480  12.026   6.916   6.380  0.0684 -1.6242 -1.8141
  478MOL0     H64481  12.262   7.110   6.128  1.4800 -2.4137 -2.7235
  478MOL0     H64482  12.541   7.147   6.170 -0.0611 -0.6812  1.1511
  478MOL0     H64483  12.627   7.008   6.247  0.1051 -1.9853  0.9172
  478MOL0     H64484  12.439   7.009   5.989 -0.3140  0.4334  1.0109
  478MOL0     H64485  12.539   6.876   6.038 -1.9569  0.0307 -0.1776
  478MOL0     H64486  12.748   7.007   5.995 -0.7623  0.7757  1.5503
  478MOL0     H64487  12.656   7.151   5.963  0.9097 -0.3598 -0.7143
  478MOL0     H64488  12.720   7.065   5.761 -1.0727 -0.2276 -0.9722
  478MOL0     H64489  12.545   7.032   5.755  0.1732 -1.3177 -1.4820
  478MOL0     H64490  12.788   6.746   5.982  1.5106 -3.4489  1.4619
  478MOL0     H64491  12.956   6.658   6.099  1.1918  2.9339  0.9872
  478MOL0     H64492  13.086   6.569   6.028  3.6833  0.8283  1.5747
  478MOL0     H64493  13.110   6.741   6.075 -1.4161  1.0632  1.3730
  478MOL0     H64494  13.341   6.579   5.498 -0.1416 -0.7763 -0.5187
  478MOL0     H64495  13.561   6.472   5.453  0.6640 -1.3711  0.9852
  478MOL0     H64496  13.906   6.650   5.654 -2.9319  1.4572 -2.8231
  478MOL0     H64497  13.879   6.489   5.728  1.2647 -0.0551 -0.8633
  478MOL0     H64498  14.096   6.493   5.633 -0.7341  0.4400  0.4206
  478MOL0     H64499  13.995   6.377   5.533 -1.2208 -0.7244  1.0017
  478MOL0     H64500  13.945   6.586   5.395 -0.7660 -1.1433 -0.0603
  478MOL0     H64501  14.090   6.491   5.364  0.5925 -0.8771  0.8130
  478MOL0     H64502  14.075   6.741   5.531  0.8428 -0.8507  0.7307
  478MOL0     H64503  14.225   6.644   5.514  1.4163  1.5624 -1.2737
  478MOL0     H64504  14.100   6.821   5.297  0.3070  0.6906  1.1268
  478MOL0     H64505  14.198   6.685   5.255 -1.8879 -0.3101 -0.1347
  478MOL0     H64506  14.387   6.751   5.390  0.8453 -0.3853 -1.3481
  478MOL0     H64507  14.347   6.871   5.271 -3.4162  1.2254 -1.2726
  478MOL0     H64508  14.274   6.908   5.562  2.3664  2.0631  1.7148
  478MOL0     H64509  14.241   7.021   5.428  3.2427  1.8839 -0.6096
  478MOL0     H64510  14.495   6.921   5.560 -1.4702 -0.0060  2.1013
  478MOL0     H64511  14.423   7.080   5.571  1.6150  0.0176 -0.6614
  478MOL0     H64512  13.725   6.760   5.747 -2.4932  1.2356  2.2155
  478MOL0     H64513  13.510   6.847   5.782 -1.1416  0.1585 -0.2428
  478MOL0     H64514  13.073   6.850   5.600 -0.4406  0.5941 -0.5599
  478MOL0     H64515  12.841   6.913   5.600  2.6273  0.8073 -1.0253
  478MOL0     H64516  11.609   7.930   6.015  0.4721  0.7137  0.4731
  478MOL0     H64517  11.432   8.100   5.992  2.4063 -1.2007 -0.0596
  478MOL0     H64518  11.154   8.428   6.073  0.6025  0.0839  0.3012
  478MOL0     H64519  11.045   8.605   5.940  3.3898  0.7644 -1.3565
  478MOL0     H64520  10.883   8.452   5.520  1.1897  1.0795 -1.4184
  478MOL0     H64521  10.750   8.531   5.609 -0.1699  0.4659 -0.3508
  478MOL0     H64522  10.825   8.747   5.533  1.4262 -0.0616 -0.0702
  478MOL0     H64523  10.745   8.639   5.411 -0.3445 -1.1717  0.8335
  478MOL0     H64524  10.940   8.736   5.296 -3.5820  1.5960  1.6455
  478MOL0     H64525  10.982   8.573   5.339 -0.3395 -0.2485  2.2655
  478MOL0     H64526  11.106   8.675   5.543  1.4004  2.4083  0.6523
  478MOL0     H64527  11.060   8.832   5.484  4.7070 -0.2142  2.3654
  478MOL0     H64528  11.356   8.762   5.214  3.6757 -1.4350  5.4181
  478MOL0     H64529  10.955   8.289   5.639  0.9582  0.4122 -1.3888
  478MOL0     H64530  11.069   8.142   5.770  2.0746  0.3934  0.5629
  479MOL0     O64531   3.147   4.221   2.823 -0.1896  0.0541  0.0287
  479MOL0     C64532   3.152   4.310   2.909  0.4432 -0.3739 -0.2003
  479MOL0     O64533   3.038   4.376   2.962  0.1883 -0.2907 -0.4239
  479MOL0     C64534   2.917   4.331   2.916  0.5971 -0.2608  0.5318
  479MOL0     C64535   2.864   4.387   2.799 -0.1997 -0.0886 -0.1416
  479MOL0     C64536   2.733   4.361   2.756 -0.0034 -0.5316 -0.2285
  479MOL0     C64537   2.656   4.276   2.830 -0.0306 -0.0221 -0.4008
  479MOL0     O64538   2.515   4.256   2.804  0.0313 -0.0850  0.1075
  479MOL0     C64539   2.500   4.203   2.676 -0.2760  0.4659  0.1170
  479MOL0     C64540   2.420   4.072   2.690  0.9301 -0.9689 -0.5346
  479MOL0     C64541   2.499   3.980   2.781 -0.3757 -0.2782 -1.1600
  479MOL0     C64542   2.450   3.838   2.778  0.2623  0.3607  0.8647
  479MOL0     C64543   2.507   3.741   2.871 -0.1113  0.3755 -0.4700
  479MOL0     C64544   2.440   3.743   3.012  0.4624  1.1975  0.2031
  479MOL0     C64545   2.475   3.622   3.096  0.9196  0.4765 -0.2173
  479MOL0     C64546   2.619   3.602   3.166  0.3626  0.4000  0.2795
  479MOL0     N64547   2.650   3.722   3.261  0.3481  0.3678  0.8241
  479MOL0     C64548   2.577   3.743   3.379 -0.5366  0.1911 -0.3676
  479MOL0     C64549   2.643   3.860   3.429 -0.7215  0.6585  0.2852
  479MOL0     C64550   2.606   3.924   3.558  0.2584 -0.8371  1.1163
  479MOL0     C64551   2.698   3.897   3.677 -0.7707 -0.4862  0.2201
  479MOL0     C64552   2.682   3.747   3.731 -0.6690 -0.5584 -0.1498
  479MOL0     C64553   2.732   3.725   3.871  0.7207 -0.1564 -0.0402
  479MOL0     O64554   2.667   3.796   3.975  0.1747 -0.0578 -0.4100
  479MOL0     C64555   2.738   3.897   4.030 -0.4181 -0.8993  0.5885
  479MOL0     C64556   2.691   4.032   4.023 -0.9279  1.1116 -0.6429
  479MOL0     C64557   2.755   4.139   4.093 -0.1224  0.5394  0.3292
  479MOL0     C64558   2.691   4.281   4.090 -0.7364  0.3075  0.6304
  479MOL0     C64559   2.881   4.117   4.160 -0.4468  0.0401 -0.2778
  479MOL0     C64560   2.951   4.214   4.239  0.4107  0.5709 -0.1513
  479MOL0     O64561   3.044   4.300   4.192  0.1506 -0.0131 -0.9284
  479MOL0     C64562   3.111   4.274   4.074 -0.1717  1.3729  0.0438
  479MOL0     C64563   3.176   4.153   4.058 -0.1659  0.1669  0.9100
  479MOL0     C64564   3.228   4.117   3.930 -0.6157  0.5992 -0.2405
  479MOL0     C64565   3.215   4.208   3.826 -0.3766 -0.1996 -0.0263
  479MOL0     O64566   3.264   4.163   3.706 -0.5868  0.5725 -0.0788
  479MOL0     C64567   3.211   4.216   3.580  0.3129  0.4714 -0.8229
  479MOL0     C64568   3.249   4.128   3.456 -0.2061  0.0163 -0.1961
  479MOL0     C64569   3.147   4.023   3.424  0.6779  1.4747  0.4031
  479MOL0     C64570   3.190   3.880   3.462 -0.0182 -0.8282 -0.3659
  479MOL0     C64571   3.095   3.783   3.411 -0.1352 -0.0423  0.2787
  479MOL0     C64572   3.145   3.647   3.446  0.1413 -1.0643  0.3998
  479MOL0     C64573   3.042   3.534   3.436  0.9090  0.1043  0.3268
  479MOL0     C64574   2.976   3.519   3.299  1.2539 -1.0590  0.6704
  479MOL0    Cl64575   2.929   3.355   3.252  0.1908  0.6546 -0.2303
  479MOL0     C64576   3.160   4.341   3.852 -0.7887 -0.2627 -0.8781
  479MOL0     C64577   3.121   4.372   3.980 -0.1378  0.8035  0.8592
  479MOL0     O64578   2.917   4.207   4.361  0.0437  0.5275 -0.6959
  479MOL0     C64579   2.935   3.990   4.152 -0.3718 -0.0652 -0.5615
  479MOL0     C64580   2.860   3.884   4.102  0.8005 -0.1542  1.3884
  479MOL0     N64581   2.732   3.905   3.335  0.3936 -1.3620  0.8791
  479MOL0     N64582   2.739   3.819   3.236  0.0676 -0.1230 -0.3678
  479MOL0     C64583   2.712   4.207   2.932 -0.2031  0.7576  0.0411
  479MOL0     C64584   2.846   4.234   2.981  0.6375  0.8155 -0.1604
  479MOL0     C64585   3.279   4.377   2.952 -0.0919  0.2165  0.2001
  479MOL0     C64586   3.395   4.370   2.869 -1.1427 -0.5877  0.5432
  479MOL0     C64587   3.517   4.429   2.900 -0.0977 -0.4812  1.1832
  479MOL0     C64588   3.543   4.496   3.020  0.3489 -0.6136  0.0774
  479MOL0     O64589   3.662   4.566   3.045  0.1974  0.2420  0.7842
  479MOL0     C64590   3.748   4.601   2.939  0.0708  0.1786  0.7057
  479MOL0     C64591   3.881   4.672   2.998 -0.2889  0.3120  0.8472
  479MOL0     C64592   3.990   4.580   3.073  0.0121 -0.0526  0.2470
  479MOL0     C64593   4.111   4.530   2.989 -0.0950  0.9270  1.0862
  479MOL0     C64594   4.189   4.637   2.936 -0.7008 -0.8172 -0.1774
  479MOL0     C64595   4.242   4.727   2.873 -0.7858 -0.4914 -1.1082
  479MOL0     C64596   3.429   4.492   3.115 -0.1557  0.4458 -0.3707
  479MOL0     C64597   3.303   4.434   3.084 -0.2204 -0.4325  0.4464
  479MOL0     H64598   2.928   4.458   2.746  0.8095  0.8898  2.2510
  479MOL0     H64599   2.700   4.418   2.670 -0.2216  1.1478  0.9085
  479MOL0     H64600   2.442   4.280   2.624  1.0187  3.4403  2.7071
  479MOL0     H64601   2.592   4.189   2.619  1.0140  0.5807  2.0700
  479MOL0     H64602   2.323   4.080   2.740  0.7016 -2.2234 -0.7492
  479MOL0     H64603   2.412   4.028   2.590  1.3189  0.1306 -1.0650
  479MOL0     H64604   2.605   3.989   2.756  0.0826 -2.9887 -0.4353
  479MOL0     H64605   2.474   4.019   2.880 -0.2650 -1.5827 -0.6039
  479MOL0     H64606   2.342   3.834   2.791  0.5823 -1.9591  4.2900
  479MOL0     H64607   2.470   3.805   2.676  2.3061 -0.4843  1.4807
  479MOL0     H64608   2.502   3.640   2.830 -2.8703 -0.0519  0.7153
  479MOL0     H64609   2.616   3.752   2.880 -0.0991 -0.6376  0.8891
  479MOL0     H64610   2.448   3.830   3.078 -1.1014 -1.5274  4.3889
  479MOL0     H64611   2.332   3.746   2.999  0.4193 -1.1524 -0.3741
  479MOL0     H64612   2.396   3.605   3.169 -0.5478 -2.9934 -2.3318
  479MOL0     H64613   2.473   3.537   3.027  1.0332 -0.7278  1.2161
  479MOL0     H64614   2.697   3.597   3.090  1.3502 -0.0133  1.3048
  479MOL0     H64615   2.626   3.518   3.235 -0.5847  0.0635 -0.0230
  479MOL0     H64616   2.497   3.678   3.411 -0.7905 -0.4560 -2.1906
  479MOL0     H64617   2.589   4.030   3.538 -0.7813 -1.0040  1.0642
  479MOL0     H64618   2.505   3.896   3.590 -0.1815  1.9084  2.4171
  479MOL0     H64619   2.673   3.964   3.759 -1.1620 -1.0059  0.5376
  479MOL0     H64620   2.800   3.910   3.642 -0.2530 -3.2269  0.5041
  479MOL0     H64621   2.726   3.677   3.659 -1.7442 -2.2150  0.7266
  479MOL0     H64622   2.575   3.725   3.725 -0.9571  1.1221 -2.3281
  479MOL0     H64623   2.841   3.740   3.868  0.6524  0.5052  0.4844
  479MOL0     H64624   2.717   3.624   3.908  2.7621  0.1650  1.9154
  479MOL0     H64625   2.604   4.046   3.959  1.1183  2.9077 -3.2921
  479MOL0     H64626   2.763   4.346   4.040  0.3578 -1.3265  0.0092
  479MOL0     H64627   2.593   4.282   4.040 -1.2536 -1.5780  1.4987
  479MOL0     H64628   2.664   4.320   4.189 -0.4101  3.2073 -0.3308
  479MOL0     H64629   3.187   4.087   4.143  0.7460 -1.9383 -0.7438
  479MOL0     H64630   3.289   4.033   3.900  2.7786  2.9783 -0.5282
  479MOL0     H64631   3.104   4.217   3.602  0.1921 -1.3162 -1.1720
  479MOL0     H64632   3.244   4.320   3.580  2.0644 -0.0291  0.1407
  479MOL0     H64633   3.282   4.195   3.376  0.8017 -0.3435 -0.0975
  479MOL0     H64634   3.344   4.073   3.465 -0.1439  0.1912  0.2148
  479MOL0     H64635   3.111   4.028   3.321 -2.5750 -3.6617  0.9320
  479MOL0     H64636   3.062   4.048   3.488  2.5623  0.4180  3.5512
  479MOL0     H64637   3.288   3.868   3.415 -0.9172  0.3373 -2.7077
  479MOL0     H64638   3.215   3.874   3.568  3.2113  0.5946 -0.9311
  479MOL0     H64639   3.077   3.784   3.303 -3.6820 -1.2382  0.7423
  479MOL0     H64640   3.000   3.792   3.464  0.6677 -0.9750  1.9778
  479MOL0     H64641   3.233   3.613   3.392 -2.1589 -1.0917 -3.7171
  479MOL0     H64642   3.158   3.634   3.554 -2.1543 -1.2381  0.7011
  479MOL0     H64643   2.964   3.540   3.512 -0.3274 -2.0735 -0.6700
  479MOL0     H64644   3.097   3.446   3.470  1.6586  1.2142  2.0936
  479MOL0     H64645   3.054   3.555   3.231 -1.3905  1.9565 -1.0350
  479MOL0     H64646   2.887   3.581   3.290 -0.1282 -2.8633  1.3012
  479MOL0     H64647   3.153   4.418   3.776  0.9522  2.4303  1.4787
  479MOL0     H64648   3.079   4.471   3.999 -1.6437  0.5282 -0.8043
  479MOL0     H64649   3.033   3.973   4.195 -0.1085  1.4528 -0.4745
  479MOL0     H64650   2.892   3.782   4.120 -1.5969 -1.2310 -0.0055
  479MOL0     H64651   2.656   4.140   2.997  2.5416 -2.1560 -0.3672
  479MOL0     H64652   2.860   4.186   3.077 -2.5448  0.5967  0.3025
  479MOL0     H64653   3.395   4.315   2.775 -1.4997 -1.9688  1.3179
  479MOL0     H64654   3.585   4.425   2.816 -4.6583 -1.0075 -2.9104
  479MOL0     H64655   3.782   4.511   2.887  0.1832  1.1011 -0.8597
  479MOL0     H64656   3.708   4.674   2.868  0.3511 -0.3808 -0.0373
  479MOL0     H64657   3.845   4.751   3.064 -0.9571  2.0984 -1.5147
  479MOL0     H64658   3.928   4.723   2.913 -0.5730  1.6889  1.5021
  479MOL0     H64659   3.936   4.497   3.120  2.5179 -1.7647  0.3412
  479MOL0     H64660   4.022   4.639   3.159 -0.2874 -4.0451  3.4006
  479MOL0     H64661   4.066   4.472   2.908  0.7477 -0.2475  1.4264
  479MOL0     H64662   4.172   4.470   3.057 -0.8744 -0.5169  0.5481
  479MOL0     H64663   4.289   4.797   2.806  1.3747 -0.8451 -0.0499
  479MOL0     H64664   3.443   4.529   3.216 -0.0390  0.0805 -0.2537
  479MOL0     H64665   3.230   4.424   3.165 -2.4194  0.4694 -1.3070
  480MOL0     O64666   6.787   7.364   8.763  1.2183  0.6678  0.6680
  480MOL0     C64667   6.896   7.309   8.754 -0.0398  0.1260 -0.8975
  480MOL0     O64668   6.969   7.250   8.847  0.7091 -0.6417  0.2520
  480MOL0     C64669   6.937   7.271   8.977  0.8686  1.0577 -0.1039
  480MOL0     C64670   6.897   7.399   9.033 -0.4383 -0.8218  0.0870
  480MOL0     C64671   6.886   7.415   9.162  0.6530 -0.1776  0.9462
  480MOL0     C64672   6.903   7.313   9.248 -0.4294 -0.3294 -0.4426
  480MOL0     O64673   6.884   7.339   9.389 -0.1426  0.8436  0.4068
  480MOL0     C64674   6.791   7.260   9.461 -0.3732  0.0305  0.4943
  480MOL0     C64675   6.831   7.277   9.602 -0.4181 -1.6679  0.5448
  480MOL0     C64676   6.738   7.193   9.696 -0.5010 -0.2369  0.1227
  480MOL0     C64677   6.763   7.206   9.845  0.3469  0.2202  0.0936
  480MOL0     C64678   6.896   7.132   9.890  0.1421 -0.5356 -0.2003
  480MOL0     C64679   6.902   7.132  10.039 -1.1004 -0.3180 -0.7549
  480MOL0     C64680   7.044   7.104  10.102  0.6687 -0.6918  0.0362
  480MOL0     C64681   7.143   7.219  10.079 -1.2870  0.0791 -0.1230
  480MOL0     N64682   7.279   7.215  10.137  0.8124  0.2307  0.6945
  480MOL0     C64683   7.374   7.308  10.114 -0.3263  0.8824  0.5139
  480MOL0     C64684   7.483   7.263  10.182 -0.6945  0.5746 -0.1704
  480MOL0     C64685   7.625   7.326  10.213  1.4397 -0.0452  0.2085
  480MOL0     C64686   7.634   7.464  10.160 -0.7070 -0.6227 -0.3435
  480MOL0     C64687   7.709   7.562  10.243 -0.3647  0.3906  0.1127
  480MOL0     C64688   7.857   7.516  10.267 -0.5317 -0.4424  0.5241
  480MOL0     O64689   7.925   7.583  10.375  0.3417 -0.2489  0.0866
  480MOL0     C64690   7.998   7.699  10.354 -0.3858 -0.2451 -0.8961
  480MOL0     C64691   8.039   7.757  10.472  0.0800  0.6755 -0.5019
  480MOL0     C64692   8.133   7.862  10.488  0.2016 -0.3113  0.8093
  480MOL0     C64693   8.175   7.907  10.627  0.6465  0.2185  0.1896
  480MOL0     C64694   8.186   7.909  10.358  0.0413  0.2054 -0.5033
  480MOL0     C64695   8.307   8.005  10.353  1.3530 -0.3251 -0.4395
  480MOL0     O64696   8.325   8.057  10.231  0.6835 -0.1451 -0.5278
  480MOL0     C64697   8.422   8.157  10.226 -0.4904  0.2871 -0.5538
  480MOL0     C64698   8.390   8.289  10.242  0.8100  0.6402  0.9122
  480MOL0     C64699   8.491   8.386  10.236  0.4464  0.1170  0.3186
  480MOL0     C64700   8.623   8.341  10.210 -0.6124 -0.0425  1.3157
  480MOL0     O64701   8.714   8.448  10.213 -0.2922 -0.5257  0.7227
  480MOL0     C64702   8.853   8.417  10.190  0.4286  0.3060 -0.8600
  480MOL0     C64703   8.958   8.525  10.188 -0.4258 -0.2602  0.3884
  480MOL0     C64704   8.931   8.610  10.060 -0.7996  0.1821 -0.1841
  480MOL0     C64705   9.033   8.722  10.039 -0.0678 -0.1247  0.3641
  480MOL0     C64706   9.030   8.862  10.107  0.4633  0.9323 -0.1322
  480MOL0     C64707   9.072   8.983  10.020 -0.4072 -0.8312 -0.4540
  480MOL0     C64708   9.030   9.110  10.103  0.3026 -0.0919 -0.2495
  480MOL0     C64709   9.098   9.234  10.050 -0.0024  0.3406 -0.4453
  480MOL0    Cl64710   9.274   9.239  10.036 -0.2145  0.0700 -0.0077
  480MOL0     C64711   8.659   8.206  10.183  0.1265 -1.6236 -0.3444
  480MOL0     C64712   8.551   8.117  10.193 -1.1478  0.1999  0.7002
  480MOL0     O64713   8.373   8.042  10.453  0.8879  0.4475 -0.7794
  480MOL0     C64714   8.127   7.856  10.236 -0.7530 -0.4887 -0.2309
  480MOL0     C64715   8.045   7.747  10.239  0.6188  1.4801 -0.4408
  480MOL0     N64716   7.447   7.137  10.236  0.6467  0.0840  0.3284
  480MOL0     N64717   7.323   7.114  10.214 -0.6913 -0.4913  0.1167
  480MOL0     C64718   6.936   7.187   9.197 -0.7556 -0.4408 -0.7527
  480MOL0     C64719   6.962   7.161   9.062  0.2394  0.6822  1.3397
  480MOL0     C64720   6.959   7.308   8.623 -0.8549 -0.4843 -0.5278
  480MOL0     C64721   6.916   7.388   8.521 -1.2501 -0.8984  0.1353
  480MOL0     C64722   6.980   7.394   8.401  0.9621 -0.0487 -0.1028
  480MOL0     C64723   7.085   7.310   8.371 -0.0637 -0.7330  0.3542
  480MOL0     O64724   7.150   7.320   8.251  0.3670  0.2229 -0.0411
  480MOL0     C64725   7.142   7.196   8.169 -0.2865 -0.4656 -0.9215
  480MOL0     C64726   6.992   7.170   8.124 -0.0580  0.3315  0.4430
  480MOL0     C64727   6.954   7.029   8.154  1.0283  0.1222  0.3584
  480MOL0     C64728   6.832   6.975   8.079 -0.0906 -0.0992  0.9881
  480MOL0     C64729   6.712   7.057   8.084  0.0684  0.1375  1.6220
  480MOL0     C64730   6.606   7.114   8.094  0.1772 -0.9877  0.4120
  480MOL0     C64731   7.138   7.226   8.473 -0.3258  0.0534  0.3927
  480MOL0     C64732   7.068   7.220   8.596 -1.2409  0.4312  0.0971
  480MOL0     H64733   6.876   7.482   8.966 -1.1338  0.8163  2.2293
  480MOL0     H64734   6.857   7.518   9.179 -2.5356 -0.7596 -0.2177
  480MOL0     H64735   6.688   7.293   9.446  0.2113  0.6094 -2.8384
  480MOL0     H64736   6.802   7.156   9.429  0.7680 -0.1013  1.2502
  480MOL0     H64737   6.933   7.240   9.620  1.3519  1.1758 -2.5553
  480MOL0     H64738   6.824   7.380   9.637  1.3445 -2.2676  2.9405
  480MOL0     H64739   6.636   7.231   9.685 -1.3186 -1.5510  2.5473
  480MOL0     H64740   6.729   7.096   9.646 -2.4683 -0.7346  1.3546
  480MOL0     H64741   6.770   7.314   9.855 -1.0329  0.9038 -4.2896
  480MOL0     H64742   6.677   7.161   9.897 -0.2252  2.1514  0.8838
  480MOL0     H64743   6.895   7.030   9.851  1.0661 -1.2041  1.3970
  480MOL0     H64744   6.971   7.192   9.838  1.5888 -3.2288 -1.4605
  480MOL0     H64745   6.890   7.236  10.069  4.3794  0.4494 -0.1461
  480MOL0     H64746   6.836   7.058  10.086  0.5180 -1.0771  0.4362
  480MOL0     H64747   7.025   7.095  10.209 -1.0028  0.8771 -0.0783
  480MOL0     H64748   7.079   7.015  10.048  0.4975  0.2692 -1.7218
  480MOL0     H64749   7.096   7.311  10.116 -3.1954 -0.4452 -1.1377
  480MOL0     H64750   7.154   7.220   9.970  2.3162 -3.8614 -0.0517
  480MOL0     H64751   7.376   7.386  10.038  2.7991 -0.6634 -1.2043
  480MOL0     H64752   7.617   7.323  10.322  2.1971  0.0004  0.2703
  480MOL0     H64753   7.699   7.261  10.166 -1.6641 -0.1633 -5.4387
  480MOL0     H64754   7.539   7.502  10.123  0.2376  1.1684 -1.0808
  480MOL0     H64755   7.686   7.463  10.063  3.6212 -0.9196  1.7201
  480MOL0     H64756   7.653   7.593  10.333 -0.6027  3.4854 -0.9744
  480MOL0     H64757   7.706   7.651  10.179  1.3599  0.2171 -0.2570
  480MOL0     H64758   7.906   7.527  10.169 -0.1580 -2.6992  0.3879
  480MOL0     H64759   7.864   7.410  10.294  0.0862 -1.3679 -2.7123
  480MOL0     H64760   7.998   7.708  10.560  0.4362  0.2980 -0.5452
  480MOL0     H64761   8.220   8.007  10.636  0.1995  0.7815 -2.7764
  480MOL0     H64762   8.086   7.895  10.689 -1.4905 -1.1828 -2.8848
  480MOL0     H64763   8.248   7.836  10.665  0.1783  0.9309  2.5405
  480MOL0     H64764   8.285   8.306  10.266 -0.1697 -2.8349 -0.4180
  480MOL0     H64765   8.465   8.491  10.248 -1.7173 -0.0412 -1.9841
  480MOL0     H64766   8.872   8.348  10.272  0.9971 -0.3331 -1.5158
  480MOL0     H64767   8.862   8.353  10.102 -0.2773 -2.2297  0.8327
  480MOL0     H64768   8.943   8.593  10.272 -1.5819 -1.1915  0.9776
  480MOL0     H64769   9.061   8.487  10.189 -0.3071  0.0323  2.3081
  480MOL0     H64770   8.837   8.662  10.081 -0.9893 -0.1231 -0.2868
  480MOL0     H64771   8.925   8.562   9.962  0.4968  0.8228 -0.6051
  480MOL0     H64772   9.137   8.693  10.053  0.7804  2.3552 -0.1955
  480MOL0     H64773   9.021   8.751   9.934  1.6754 -5.2214 -1.5697
  480MOL0     H64774   9.084   8.871  10.201 -0.5228  1.1509  0.4258
  480MOL0     H64775   8.923   8.866  10.131  0.1819  1.3329 -1.3793
  480MOL0     H64776   9.179   8.982   9.996  0.4992  5.6518  1.2767
  480MOL0     H64777   9.006   8.990   9.933 -0.2345 -0.5465 -0.5629
  480MOL0     H64778   9.058   9.096  10.208  3.1048  2.6175 -0.4837
  480MOL0     H64779   8.921   9.123  10.100  0.5261  3.2505  1.1182
  480MOL0     H64780   9.063   9.306  10.125 -2.5652 -2.4854  1.2903
  480MOL0     H64781   9.054   9.269   9.955  1.0469 -2.0890 -1.9252
  480MOL0     H64782   8.761   8.167  10.189  0.1863 -1.2767  2.4879
  480MOL0     H64783   8.559   8.010  10.184 -0.5593  0.2552  0.5726
  480MOL0     H64784   8.166   7.899  10.144  2.9431 -2.4604  0.2078
  480MOL0     H64785   8.022   7.701  10.143  0.6069 -0.4849  0.4576
  480MOL0     H64786   6.944   7.105   9.268 -0.8716  0.3748  0.2142
  480MOL0     H64787   7.007   7.071   9.022  0.5670  2.0639 -1.6739
  480MOL0     H64788   6.830   7.454   8.526 -1.2476 -0.9080  0.3089
  480MOL0     H64789   6.956   7.464   8.321 -0.0640 -2.0896 -1.6796
  480MOL0     H64790   7.196   7.215   8.076 -0.4057  2.6511 -0.4706
  480MOL0     H64791   7.187   7.113   8.224  1.9760  0.9596 -0.4946
  480MOL0     H64792   6.993   7.179   8.015  0.1095 -1.8466  0.2160
  480MOL0     H64793   6.928   7.235   8.184  1.1849  1.3239  0.7568
  480MOL0     H64794   6.917   7.010   8.255  1.1389 -1.3410  0.1506
  480MOL0     H64795   7.039   6.962   8.137  2.0837  1.6800 -0.8208
  480MOL0     H64796   6.804   6.881   8.126  1.3858 -0.5786  0.9681
  480MOL0     H64797   6.856   6.941   7.978 -1.3689 -1.7695  1.2093
  480MOL0     H64798   6.515   7.170   8.103  0.0556 -1.0138 -0.5600
  480MOL0     H64799   7.231   7.173   8.456  2.1682  4.1649  0.0703
  480MOL0     H64800   7.109   7.165   8.680 -1.7312 -0.4574 -0.2351
  481MOL0     O64801   3.695   0.074   6.463  0.4632  0.6880 -0.0612
  481MOL0     C64802   3.659   0.188   6.437 -0.0289 -0.1391 -0.7702
  481MOL0     O64803   3.543   0.218   6.367  0.0122  1.0023 -0.5489
  481MOL0     C64804   3.455   0.112   6.370 -0.5548 -0.9579 -0.2823
  481MOL0     C64805   3.463   0.010   6.276  0.0258  0.5988  0.0710
  481MOL0     C64806   3.359  -0.088   6.283  0.4632 -0.0998  0.5290
  481MOL0     C64807   3.253  -0.093   6.383  0.6055 -0.3339  0.3027
  481MOL0     O64808   3.151  -0.184   6.391  0.1186 -0.0696 -0.4033
  481MOL0     C64809   3.155  -0.305   6.319 -0.8670 -0.4595 -0.1620
  481MOL0     C64810   3.047  -0.293   6.216 -0.2751  0.6566 -0.8589
  481MOL0     C64811   3.025  -0.432   6.161 -0.3397  0.7011  0.2356
  481MOL0     C64812   2.946  -0.426   6.030  0.5835  0.8793  0.5361
  481MOL0     C64813   2.907  -0.569   5.978 -0.1616  0.4831  0.2627
  481MOL0     C64814   2.814  -0.634   6.084 -0.1507 -0.7000  0.1014
  481MOL0     C64815   2.722  -0.744   6.036  0.3501 -0.1463  1.3434
  481MOL0     C64816   2.635  -0.779   6.148 -0.2623  0.0442 -0.0517
  481MOL0     N64817   2.640  -0.924   6.171 -0.2272  0.5738 -0.3225
  481MOL0     C64818   2.729  -0.972   6.262  0.4555 -1.2238  0.5679
  481MOL0     C64819   2.688  -1.097   6.290 -0.5619 -0.6781 -0.4733
  481MOL0     C64820   2.755  -1.188   6.376 -0.3962  0.0154 -0.5513
  481MOL0     C64821   2.699  -1.329   6.373 -0.8161 -1.2039  0.2443
  481MOL0     C64822   2.772  -1.420   6.472  0.1066 -0.7093  0.7770
  481MOL0     C64823   2.892  -1.498   6.410  0.9376  0.8351  0.1737
  481MOL0     O64824   2.873  -1.532   6.269 -0.3087 -0.1810  0.3891
  481MOL0     C64825   2.786  -1.636   6.239  0.6021  0.0155  0.4013
  481MOL0     C64826   2.712  -1.626   6.119 -0.3550  0.2027  0.9438
  481MOL0     C64827   2.604  -1.708   6.092 -0.8887  0.3577  0.3728
  481MOL0     C64828   2.537  -1.679   5.959  0.4168  0.0324  0.0183
  481MOL0     C64829   2.559  -1.803   6.190  0.1452 -0.4871 -0.7314
  481MOL0     C64830   2.434  -1.895   6.168  0.1631  0.5114  0.2905
  481MOL0     O64831   2.417  -1.991   6.272  0.5186  0.2158  0.0144
  481MOL0     C64832   2.306  -2.052   6.268 -0.7648 -1.0348  0.6831
  481MOL0     C64833   2.259  -2.071   6.395 -0.3628  0.9562 -0.1526
  481MOL0     C64834   2.145  -2.144   6.426 -0.4180 -0.8141  0.1107
  481MOL0     C64835   2.084  -2.219   6.331  0.4666  0.6757 -0.3119
  481MOL0     O64836   1.999  -2.327   6.353  0.1986  0.7328 -0.1528
  481MOL0     C64837   1.995  -2.387   6.485  0.4450  0.5030 -0.9202
  481MOL0     C64838   1.914  -2.519   6.498  0.4334 -0.6629 -0.1480
  481MOL0     C64839   1.766  -2.483   6.474 -0.1746  0.4017  0.1072
  481MOL0     C64840   1.669  -2.597   6.489 -0.2979 -1.3140  0.2605
  481MOL0     C64841   1.525  -2.557   6.480 -0.1234 -0.0513 -0.1219
  481MOL0     C64842   1.418  -2.649   6.541  0.3797 -0.1292  0.2891
  481MOL0     C64843   1.416  -2.789   6.483 -0.3541  1.3704  0.5867
  481MOL0     C64844   1.382  -2.792   6.334 -0.6925  1.2585 -1.1937
  481MOL0    Cl64845   1.362  -2.961   6.282  0.1556 -0.5224 -0.4029
  481MOL0     C64846   2.119  -2.191   6.199 -0.2974  0.2315 -0.3497
  481MOL0     C64847   2.230  -2.114   6.165  0.4658  0.0472  0.9418
  481MOL0     O64848   2.365  -1.882   6.064  0.1094 -0.4416 -0.7614
  481MOL0     C64849   2.637  -1.819   6.298 -0.4740 -0.2224  0.5493
  481MOL0     C64850   2.741  -1.734   6.323 -0.1950  0.8359  0.7207
  481MOL0     N64851   2.578  -1.116   6.219  0.3324 -0.7932  0.6089
  481MOL0     N64852   2.542  -1.014   6.135  0.1406 -0.8905 -0.0416
  481MOL0     C64853   3.258   0.020   6.471  0.5544 -0.1818 -0.0104
  481MOL0     C64854   3.354   0.121   6.465  0.4038  0.0726  0.1529
  481MOL0     C64855   3.745   0.304   6.459  0.2280  0.2901 -0.3638
  481MOL0     C64856   3.696   0.434   6.459 -0.2194 -0.2488  0.0909
  481MOL0     C64857   3.787   0.536   6.492 -0.3333 -0.1553 -0.2781
  481MOL0     C64858   3.923   0.511   6.512 -0.3116  1.0148 -0.2111
  481MOL0     O64859   4.015   0.617   6.518  0.5518  0.9466 -0.3474
  481MOL0     C64860   4.162   0.599   6.514 -0.0056  0.3821  0.6630
  481MOL0     C64861   4.207   0.576   6.368  0.1096 -0.5869 -0.0845
  481MOL0     C64862   4.173   0.705   6.295 -0.5275 -0.1444  0.7398
  481MOL0     C64863   4.203   0.704   6.149  0.0725  0.4040 -0.0243
  481MOL0     C64864   4.155   0.817   6.068  0.5620  0.2467 -0.2816
  481MOL0     C64865   4.103   0.909   6.013  0.7428 -0.2764  0.0835
  481MOL0     C64866   3.968   0.378   6.503  0.8078  0.0534  0.1099
  481MOL0     C64867   3.874   0.274   6.487 -0.5055  0.9721  1.6514
  481MOL0     H64868   3.529   0.018   6.190 -1.4353  2.1914 -0.9851
  481MOL0     H64869   3.363  -0.162   6.204  2.0373  2.3406 -1.8930
  481MOL0     H64870   3.249  -0.316   6.265 -0.5660  1.9679 -0.2399
  481MOL0     H64871   3.148  -0.392   6.384 -0.3213 -0.2542  0.1810
  481MOL0     H64872   2.952  -0.255   6.255 -1.6127 -3.5951  0.5458
  481MOL0     H64873   3.072  -0.225   6.134 -2.0920  0.0218 -2.0158
  481MOL0     H64874   3.118  -0.482   6.132 -1.8771 -1.9784 -0.3935
  481MOL0     H64875   2.980  -0.495   6.239  0.4129  0.2667  0.3329
  481MOL0     H64876   2.862  -0.359   6.049  0.2153  0.9580 -1.2094
  481MOL0     H64877   3.013  -0.377   5.960  0.0072  1.3388  0.2987
  481MOL0     H64878   2.861  -0.568   5.879  2.1142  0.0136 -0.8800
  481MOL0     H64879   3.003  -0.620   5.970  0.5354  1.5914  1.1363
  481MOL0     H64880   2.878  -0.675   6.163  0.6826  1.7302  0.7794
  481MOL0     H64881   2.757  -0.556   6.134 -0.6163 -2.6888  2.9475
  481MOL0     H64882   2.662  -0.728   5.946  0.7253 -1.0036  0.9210
  481MOL0     H64883   2.779  -0.836   6.015  2.2892  1.4292 -0.8613
  481MOL0     H64884   2.533  -0.779   6.110 -1.2266 -0.4928  2.3595
  481MOL0     H64885   2.651  -0.710   6.232 -1.6207  2.2144 -1.4751
  481MOL0     H64886   2.808  -0.914   6.307  1.2114 -1.8221  0.0378
  481MOL0     H64887   2.864  -1.194   6.374 -0.4052  0.1473 -1.6453
  481MOL0     H64888   2.733  -1.153   6.478  3.0201 -1.7281  0.9455
  481MOL0     H64889   2.704  -1.360   6.268 -2.3266 -1.1185  0.1188
  481MOL0     H64890   2.593  -1.328   6.401 -0.7344 -0.4516  0.5597
  481MOL0     H64891   2.701  -1.489   6.517  1.7220 -2.0443  1.3968
  481MOL0     H64892   2.816  -1.363   6.555 -0.6421 -1.8613  1.9969
  481MOL0     H64893   2.894  -1.580   6.483 -2.0032  2.7259  2.6688
  481MOL0     H64894   2.981  -1.436   6.418  0.4385  1.9134 -1.8518
  481MOL0     H64895   2.726  -1.540   6.056  0.1715 -0.3081  0.3452
  481MOL0     H64896   2.441  -1.629   5.971 -0.5273 -1.8316  0.6420
  481MOL0     H64897   2.598  -1.610   5.899 -2.3055  2.7756  0.1691
  481MOL0     H64898   2.533  -1.767   5.893 -2.3589 -0.8527  1.2400
  481MOL0     H64899   2.310  -2.034   6.483 -0.1119  0.9675 -0.3024
  481MOL0     H64900   2.111  -2.147   6.530  0.1686  1.0654  0.3988
  481MOL0     H64901   2.095  -2.422   6.512  0.7404 -0.3618 -2.9569
  481MOL0     H64902   1.963  -2.320   6.565 -0.4730 -2.7629  1.7189
  481MOL0     H64903   1.960  -2.602   6.444  2.1423 -1.2138  2.0029
  481MOL0     H64904   1.928  -2.555   6.601 -1.4934 -0.2894  0.2910
  481MOL0     H64905   1.752  -2.442   6.374  1.7486 -2.5402 -1.4858
  481MOL0     H64906   1.741  -2.409   6.551  2.4479 -0.2956  1.7772
  481MOL0     H64907   1.682  -2.678   6.417 -2.2862 -2.2570  0.8753
  481MOL0     H64908   1.677  -2.639   6.590  1.2632  0.1751  0.8030
  481MOL0     H64909   1.496  -2.536   6.377 -0.1508 -2.1356 -0.5850
  481MOL0     H64910   1.516  -2.473   6.549  0.2986 -0.7804  0.8459
  481MOL0     H64911   1.446  -2.655   6.647  1.5286  0.7090  0.0483
  481MOL0     H64912   1.319  -2.602   6.536  0.3802 -0.2511 -0.9932
  481MOL0     H64913   1.345  -2.846   6.545  0.5608 -1.1080 -0.5072
  481MOL0     H64914   1.511  -2.833   6.515 -1.9891 -1.3457  2.1086
  481MOL0     H64915   1.469  -2.749   6.282  1.4550 -0.8634  0.4120
  481MOL0     H64916   1.293  -2.736   6.304 -0.2936  2.1880 -0.6844
  481MOL0     H64917   2.072  -2.239   6.114  0.7855 -0.1249 -0.7669
  481MOL0     H64918   2.251  -2.085   6.063  1.1738  1.5096  1.4680
  481MOL0     H64919   2.621  -1.889   6.379  0.7438  1.8054  2.6849
  481MOL0     H64920   2.784  -1.755   6.421 -1.6632  0.5622  1.3245
  481MOL0     H64921   3.192   0.022   6.558  0.2428  0.2922 -0.2560
  481MOL0     H64922   3.341   0.195   6.543  1.0520 -0.6317  0.9618
  481MOL0     H64923   3.590   0.449   6.440 -0.0163  0.8920 -0.1755
  481MOL0     H64924   3.780   0.644   6.489  0.4515 -0.0627  0.7374
  481MOL0     H64925   4.205   0.694   6.546 -1.9397  0.5315  3.0989
  481MOL0     H64926   4.205   0.517   6.573  0.2536  0.5832  0.7534
  481MOL0     H64927   4.144   0.503   6.317 -0.4435 -0.5192  0.4933
  481MOL0     H64928   4.313   0.549   6.374  0.1950 -0.3086 -0.3567
  481MOL0     H64929   4.240   0.782   6.334  0.0066 -1.3810  2.3679
  481MOL0     H64930   4.069   0.733   6.316 -0.9415 -1.1040  0.0421
  481MOL0     H64931   4.155   0.615   6.107  1.7690 -1.3116  1.4906
  481MOL0     H64932   4.310   0.707   6.125  0.4150  2.6775  1.4764
  481MOL0     H64933   4.070   0.991   5.952  0.4752  1.6777  2.6551
  481MOL0     H64934   4.072   0.348   6.506  1.1430  0.9413 -1.3789
  481MOL0     H64935   3.914   0.173   6.480  1.9461  1.9834 -0.1833
  482MOL0     O64936   5.910   4.454   3.255 -0.6362 -0.2363  0.3003
  482MOL0     C64937   6.027   4.454   3.287 -0.3430  0.5371 -0.1872
  482MOL0     O64938   6.095   4.555   3.351  0.1430  0.2228 -0.4958
  482MOL0     C64939   6.036   4.673   3.401 -0.1806  0.4465  0.2862
  482MOL0     C64940   6.124   4.774   3.424 -0.5242  0.0328 -0.1376
  482MOL0     C64941   6.077   4.892   3.469 -1.0535 -0.8033 -0.2373
  482MOL0     C64942   5.938   4.916   3.493  0.0631 -0.1718  0.4465
  482MOL0     O64943   5.886   5.029   3.548 -0.0623 -0.1536 -0.0248
  482MOL0     C64944   5.912   5.145   3.464 -0.5706  0.0469 -0.4152
  482MOL0     C64945   5.787   5.230   3.478 -0.4418  0.2320 -0.1501
  482MOL0     C64946   5.812   5.351   3.379  0.2369 -0.0766  0.4765
  482MOL0     C64947   5.684   5.441   3.362 -0.0628  0.7372  0.2254
  482MOL0     C64948   5.712   5.583   3.401  0.1816  0.4298 -0.1732
  482MOL0     C64949   5.615   5.683   3.344  0.0120  0.2402 -0.5430
  482MOL0     C64950   5.623   5.821   3.423 -0.3591  0.9764  0.0458
  482MOL0     C64951   5.757   5.881   3.449 -0.8393  0.2145  0.7711
  482MOL0     N64952   5.734   6.009   3.499  0.0621 -0.9194 -0.0087
  482MOL0     C64953   5.670   6.042   3.617  0.5486  0.5244  0.0801
  482MOL0     C64954   5.641   6.175   3.605  0.3114 -1.0648 -0.4896
  482MOL0     C64955   5.572   6.261   3.719 -0.1578 -0.2785 -0.0459
  482MOL0     C64956   5.427   6.205   3.749  0.4363 -0.1410 -0.2451
  482MOL0     C64957   5.409   6.094   3.849 -1.0545 -0.7715  1.1685
  482MOL0     C64958   5.366   6.139   3.981 -0.0957 -0.2761 -0.2630
  482MOL0     O64959   5.333   6.022   4.050  0.0870 -0.3345  0.3511
  482MOL0     C64960   5.418   5.940   4.112 -0.2546  0.4335 -0.0729
  482MOL0     C64961   5.557   5.948   4.126 -0.0804 -0.3028  0.3184
  482MOL0     C64962   5.636   5.850   4.191 -0.3254 -1.1747  0.2564
  482MOL0     C64963   5.786   5.873   4.197  0.4384 -0.8174 -0.9650
  482MOL0     C64964   5.585   5.734   4.246 -0.7285 -0.6720 -0.1853
  482MOL0     C64965   5.660   5.634   4.316  0.6192 -0.7267 -0.1059
  482MOL0     O64966   5.616   5.502   4.311  0.6002 -0.0746 -0.1616
  482MOL0     C64967   5.666   5.412   4.399 -0.6608 -0.8125 -0.5362
  482MOL0     C64968   5.802   5.391   4.444  0.2660 -0.1036  0.1709
  482MOL0     C64969   5.842   5.291   4.525 -0.4275 -0.3053  0.0210
  482MOL0     C64970   5.749   5.200   4.580 -0.1000  1.0082  0.9948
  482MOL0     O64971   5.767   5.079   4.643  0.4885  0.9560 -0.1433
  482MOL0     C64972   5.889   5.010   4.630 -0.6953  1.5591  0.5828
  482MOL0     C64973   5.889   4.871   4.696  0.0689  0.1849 -0.6466
  482MOL0     C64974   5.772   4.782   4.647  0.4342  0.1576  0.0229
  482MOL0     C64975   5.799   4.643   4.685 -0.9125 -0.8975  0.6040
  482MOL0     C64976   5.699   4.534   4.660 -0.6490 -0.3825 -0.8960
  482MOL0     C64977   5.644   4.520   4.516  0.5158  0.3863  0.4151
  482MOL0     C64978   5.748   4.444   4.433 -0.4044 -0.2993 -0.2731
  482MOL0     C64979   5.717   4.435   4.282 -0.7099  0.2393  0.4543
  482MOL0    Cl64980   5.752   4.591   4.201  0.2699 -0.0174 -0.3241
  482MOL0     C64981   5.614   5.222   4.546  0.6827 -0.1368  0.0413
  482MOL0     C64982   5.577   5.321   4.448  0.6061 -1.1520 -0.3826
  482MOL0     O64983   5.742   5.677   4.398 -0.1502  0.2067  0.6713
  482MOL0     C64984   5.448   5.719   4.217 -0.0492  0.4884 -0.1771
  482MOL0     C64985   5.366   5.815   4.155 -0.1561  0.3668 -0.1599
  482MOL0     N64986   5.712   6.230   3.498 -0.1702  0.6905  0.6437
  482MOL0     N64987   5.770   6.129   3.432  0.2328  0.9061 -0.5500
  482MOL0     C64988   5.846   4.817   3.461 -0.0071  0.6307 -0.1021
  482MOL0     C64989   5.896   4.688   3.428  0.0743 -0.4554  0.3877
  482MOL0     C64990   6.105   4.337   3.235 -0.0201  0.1111  0.4929
  482MOL0     C64991   6.040   4.229   3.177 -0.0377  0.2195 -0.0002
  482MOL0     C64992   6.110   4.110   3.148  0.5268 -0.5348 -0.2336
  482MOL0     C64993   6.252   4.110   3.153 -0.3176  0.6637  0.5173
  482MOL0     O64994   6.333   4.006   3.111 -0.0100  0.1472  0.7397
  482MOL0     C64995   6.270   3.881   3.073  0.0901  1.2785 -0.7976
  482MOL0     C64996   6.389   3.801   3.005 -0.3418 -0.1050 -0.2628
  482MOL0     C64997   6.361   3.650   2.992  0.1893  0.4141  0.1168
  482MOL0     C64998   6.479   3.577   2.921  0.7132  0.3446 -0.1792
  482MOL0     C64999   6.459   3.436   2.940 -0.4936  0.7889 -0.1696
  482MOL0     C65000   6.445   3.316   2.978  0.7234  0.5009 -0.4037
  482MOL0     C65001   6.316   4.220   3.205 -0.0951  0.3476 -0.2472
  482MOL0     C65002   6.246   4.332   3.244  0.9373  0.3370  1.0059
  482MOL0     H65003   6.231   4.785   3.408 -0.2273  1.9477  2.3871
  482MOL0     H65004   6.143   4.977   3.477  2.0817 -3.0736 -0.1312
  482MOL0     H65005   6.003   5.196   3.499  0.5831 -0.4702 -2.4730
  482MOL0     H65006   5.932   5.121   3.359 -0.0476  0.2640 -0.3698
  482MOL0     H65007   5.700   5.166   3.467 -1.2733 -0.6002  6.7109
  482MOL0     H65008   5.767   5.274   3.576  0.7061  2.5627 -0.8675
  482MOL0     H65009   5.904   5.406   3.401  1.7225 -2.3679  0.2777
  482MOL0     H65010   5.837   5.307   3.282 -1.2471 -1.5148  0.7166
  482MOL0     H65011   5.660   5.449   3.255 -1.2670 -2.4151  0.1678
  482MOL0     H65012   5.593   5.391   3.396 -0.2918 -1.0308 -2.6199
  482MOL0     H65013   5.725   5.591   3.509  4.9269  0.4855 -0.5452
  482MOL0     H65014   5.811   5.612   3.365  1.4772 -1.1276  1.9063
  482MOL0     H65015   5.621   5.683   3.234 -2.2152  1.9127 -0.7175
  482MOL0     H65016   5.522   5.637   3.377  1.7074 -1.9695  1.5979
  482MOL0     H65017   5.553   5.890   3.375 -1.4670  0.9888  1.5779
  482MOL0     H65018   5.569   5.792   3.514  2.4088 -3.0397  0.6592
  482MOL0     H65019   5.816   5.890   3.357 -1.0030  1.7486  0.7895
  482MOL0     H65020   5.816   5.820   3.518 -1.6252  0.1478  1.3857
  482MOL0     H65021   5.636   5.974   3.694 -0.6825  1.7304  0.6369
  482MOL0     H65022   5.635   6.252   3.808 -0.1267 -2.1102 -0.2103
  482MOL0     H65023   5.566   6.364   3.683  0.0948 -0.2622 -0.0412
  482MOL0     H65024   5.391   6.175   3.651 -0.6327 -1.4910  0.5259
  482MOL0     H65025   5.357   6.288   3.766 -0.1049 -0.8070  0.9188
  482MOL0     H65026   5.508   6.048   3.861  1.4242  3.4270 -0.7474
  482MOL0     H65027   5.342   6.020   3.805 -1.2425 -0.2382  0.5563
  482MOL0     H65028   5.289   6.217   3.977  2.3067  2.2439 -0.4768
  482MOL0     H65029   5.436   6.201   4.038 -4.8405  1.4996  4.5689
  482MOL0     H65030   5.605   6.044   4.109 -0.2098  0.3933  3.3128
  482MOL0     H65031   5.804   5.959   4.132 -2.9200  0.2373 -0.6918
  482MOL0     H65032   5.814   5.902   4.298 -2.6969  1.0489 -0.5039
  482MOL0     H65033   5.843   5.782   4.175  1.7222  0.2306 -2.1440
  482MOL0     H65034   5.884   5.453   4.410 -2.6220  3.1848 -1.4755
  482MOL0     H65035   5.949   5.278   4.530 -0.0996  0.5714 -2.9496
  482MOL0     H65036   5.919   4.999   4.526 -0.2619 -1.3618  0.9171
  482MOL0     H65037   5.973   5.072   4.662  1.0466 -0.1392 -0.4554
  482MOL0     H65038   5.980   4.810   4.684  0.8484  1.1588  0.1699
  482MOL0     H65039   5.873   4.884   4.803 -1.7303  0.7551 -0.9540
  482MOL0     H65040   5.771   4.781   4.537 -0.3427 -1.3317  0.0191
  482MOL0     H65041   5.678   4.821   4.687  0.6851  3.3385 -2.0897
  482MOL0     H65042   5.889   4.616   4.630 -1.7542  0.2623 -1.4707
  482MOL0     H65043   5.827   4.637   4.791 -0.5196 -1.0186  0.4925
  482MOL0     H65044   5.621   4.546   4.736 -1.0293 -0.1080 -1.3236
  482MOL0     H65045   5.747   4.438   4.682 -1.6658 -0.3767  1.6389
  482MOL0     H65046   5.550   4.465   4.527  1.1821 -0.4906  1.9418
  482MOL0     H65047   5.622   4.617   4.470  0.0695 -1.8000 -4.6922
  482MOL0     H65048   5.766   4.341   4.466  2.6790  0.0702 -0.4488
  482MOL0     H65049   5.843   4.494   4.455 -1.7008  0.6680  3.9299
  482MOL0     H65050   5.612   4.402   4.276 -0.1530 -1.8490  1.1825
  482MOL0     H65051   5.772   4.358   4.227  0.7318 -0.3766  2.6309
  482MOL0     H65052   5.539   5.168   4.603  0.4447  2.5331  2.4982
  482MOL0     H65053   5.474   5.339   4.417  1.5243  2.3022 -1.8003
  482MOL0     H65054   5.389   5.634   4.250 -0.2954 -0.4563 -2.7857
  482MOL0     H65055   5.261   5.792   4.145  0.1197 -1.0646  0.0459
  482MOL0     H65056   5.742   4.833   3.487  0.3906  0.6451  1.6144
  482MOL0     H65057   5.834   4.603   3.401  0.7434 -0.4801 -1.2373
  482MOL0     H65058   5.933   4.225   3.161  0.1414 -2.3797 -0.9444
  482MOL0     H65059   6.066   4.026   3.096  1.6985 -1.2628 -0.1042
  482MOL0     H65060   6.243   3.825   3.163  0.4244  0.5555 -1.1435
  482MOL0     H65061   6.178   3.880   3.014 -1.6667 -0.3751  1.7882
  482MOL0     H65062   6.482   3.818   3.059  0.4092  0.1550 -1.5893
  482MOL0     H65063   6.391   3.829   2.899  2.4792 -1.2564 -0.5807
  482MOL0     H65064   6.270   3.634   2.933 -0.9865  2.5925  1.2258
  482MOL0     H65065   6.352   3.604   3.091  1.8646 -1.4019 -0.5108
  482MOL0     H65066   6.571   3.593   2.976  1.9759 -2.6447 -1.2228
  482MOL0     H65067   6.488   3.616   2.819 -2.3819 -1.7514 -1.4085
  482MOL0     H65068   6.431   3.221   3.027 -1.1346  0.3572 -1.1117
  482MOL0     H65069   6.425   4.219   3.213 -0.2138  0.8134  2.0758
  482MOL0     H65070   6.293   4.425   3.275  2.9768 -0.3311  0.0377
  483MOL0     O65071   2.310   1.706   4.910 -0.0716  0.0541 -0.2426
  483MOL0     C65072   2.230   1.747   5.005  0.4352  0.5521  0.5813
  483MOL0     O65073   2.267   1.827   5.108  0.1751 -0.0958  0.1248
  483MOL0     C65074   2.397   1.867   5.112  0.3849 -0.6405 -0.5979
  483MOL0     C65075   2.491   1.792   5.182  0.0929 -0.3112 -0.3146
  483MOL0     C65076   2.620   1.846   5.205 -0.1444  0.1265 -0.4233
  483MOL0     C65077   2.663   1.969   5.154  0.8758 -0.4235  0.8131
  483MOL0     O65078   2.792   2.007   5.169  1.0929 -0.1635 -0.7715
  483MOL0     C65079   2.847   2.113   5.082 -0.3410 -0.3921 -0.3419
  483MOL0     C65080   2.995   2.124   5.122 -0.2291  0.0906  0.7770
  483MOL0     C65081   3.071   2.207   5.017  0.2161 -0.0017  0.1264
  483MOL0     C65082   3.210   2.195   5.067 -0.3125 -0.0170  0.2227
  483MOL0     C65083   3.309   2.267   4.968  0.1617  0.0191 -0.5001
  483MOL0     C65084   3.311   2.420   4.989 -0.2290  1.0446  0.3165
  483MOL0     C65085   3.446   2.489   4.959  0.7577 -0.3932  0.2585
  483MOL0     C65086   3.482   2.483   4.809 -0.0794 -0.1247 -0.1689
  483MOL0     N65087   3.625   2.503   4.772 -0.5501  0.0796 -0.2985
  483MOL0     C65088   3.731   2.550   4.840 -0.6361  0.4997  0.5137
  483MOL0     C65089   3.844   2.525   4.769 -0.2405  0.1235  0.7315
  483MOL0     C65090   3.988   2.524   4.809  0.4129 -0.5240  0.5649
  483MOL0     C65091   4.077   2.628   4.738 -0.0357  0.6721 -0.2868
  483MOL0     C65092   4.206   2.662   4.817  0.2034 -0.3214 -0.2183
  483MOL0     C65093   4.315   2.739   4.736  0.1581  0.2601 -0.1837
  483MOL0     O65094   4.342   2.860   4.802 -0.2872  0.1032 -0.8325
  483MOL0     C65095   4.461   2.927   4.773  0.1580  0.3886  0.2517
  483MOL0     C65096   4.517   2.913   4.646 -0.4318 -0.3415 -1.0829
  483MOL0     C65097   4.642   2.976   4.624  0.0780 -0.8262  0.2466
  483MOL0     C65098   4.712   2.954   4.487 -0.1613  0.1564 -0.1626
  483MOL0     C65099   4.708   3.058   4.730  0.2537 -0.2435 -0.1717
  483MOL0     C65100   4.846   3.126   4.722 -0.2332  0.6705  0.7156
  483MOL0     O65101   4.916   3.143   4.836  0.6271 -1.0643 -0.0683
  483MOL0     C65102   5.044   3.168   4.821  0.5879  0.3174  0.0889
  483MOL0     C65103   5.091   3.297   4.838  0.2626  0.0496  0.6610
  483MOL0     C65104   5.232   3.320   4.814 -1.2362 -0.1073  0.4793
  483MOL0     C65105   5.312   3.222   4.759  0.2813 -0.5670  0.5854
  483MOL0     O65106   5.441   3.258   4.730 -0.7146  0.7062  0.0596
  483MOL0     C65107   5.512   3.158   4.651 -0.6179 -0.3395  0.4965
  483MOL0     C65108   5.650   3.210   4.609 -0.9853 -0.5399  0.2068
  483MOL0     C65109   5.648   3.288   4.481  0.2463  0.5366 -0.0658
  483MOL0     C65110   5.776   3.378   4.471  0.3290  0.5026  0.5363
  483MOL0     C65111   5.801   3.484   4.572  0.2028  0.4911 -0.4712
  483MOL0     C65112   5.919   3.574   4.532  0.1847 -0.1232  0.4725
  483MOL0     C65113   5.904   3.629   4.387 -0.1992 -0.0095 -0.0855
  483MOL0     C65114   5.992   3.752   4.365 -0.1661  0.2431  0.3183
  483MOL0    Cl65115   5.980   3.826   4.186 -0.1243  0.1612 -0.6002
  483MOL0     C65116   5.258   3.089   4.747  0.2275 -0.5175  0.3786
  483MOL0     C65117   5.125   3.060   4.780  1.4902  0.2571 -1.0081
  483MOL0     O65118   4.883   3.138   4.608 -0.5471 -0.3834  0.3024
  483MOL0     C65119   4.643   3.066   4.853 -0.0346  0.0438 -0.8162
  483MOL0     C65120   4.521   3.005   4.874 -0.4215  0.0061 -1.0403
  483MOL0     N65121   3.798   2.454   4.654 -0.1569  0.0496 -0.5262
  483MOL0     N65122   3.673   2.434   4.664 -0.5718 -0.4920 -0.1547
  483MOL0     C65123   2.564   2.044   5.083  0.9463 -0.2123 -0.1611
  483MOL0     C65124   2.429   1.999   5.069 -0.0204  0.4008  0.8131
  483MOL0     C65125   2.088   1.700   5.016 -0.1331 -0.5846 -0.0957
  483MOL0     C65126   2.042   1.598   4.937  0.7142 -0.2530  0.5252
  483MOL0     C65127   1.903   1.568   4.940 -0.5400  0.2930 -0.6223
  483MOL0     C65128   1.818   1.639   5.029  0.4129  1.4845  1.3798
  483MOL0     O65129   1.684   1.615   5.048 -0.4647  0.1424 -0.0308
  483MOL0     C65130   1.619   1.501   4.992  0.1419  0.1350  0.4854
  483MOL0     C65131   1.479   1.494   5.045 -0.0741 -0.8802  0.4903
  483MOL0     C65132   1.479   1.449   5.189  1.5847 -0.0794  0.1067
  483MOL0     C65133   1.380   1.335   5.220  0.4527 -0.3456  0.3772
  483MOL0     C65134   1.384   1.296   5.361  0.7641 -0.2254 -1.2293
  483MOL0     C65135   1.398   1.242   5.468 -0.3798  1.2426 -0.2990
  483MOL0     C65136   1.863   1.738   5.107 -0.1916  0.3495  0.6372
  483MOL0     C65137   1.998   1.772   5.091 -0.6022  0.1894  0.1356
  483MOL0     H65138   2.462   1.697   5.227  1.0958  0.0858  1.2697
  483MOL0     H65139   2.696   1.791   5.260 -0.4557  1.2263  1.1884
  483MOL0     H65140   2.835   2.077   4.979 -0.3855 -1.2876 -0.0343
  483MOL0     H65141   2.801   2.212   5.087 -0.7771 -0.5833 -0.5341
  483MOL0     H65142   3.007   2.178   5.216  0.4961 -0.1911  0.8561
  483MOL0     H65143   3.029   2.020   5.124  0.5039  0.2865  4.0403
  483MOL0     H65144   3.060   2.166   4.916 -0.5969 -0.0195  0.2177
  483MOL0     H65145   3.035   2.309   5.000 -1.4337 -0.2416  1.8746
  483MOL0     H65146   3.222   2.227   5.171  0.6154  2.4247 -0.5647
  483MOL0     H65147   3.245   2.091   5.069  0.0849  0.1282  0.8432
  483MOL0     H65148   3.406   2.228   4.999 -1.0576  1.1388  6.5099
  483MOL0     H65149   3.291   2.260   4.860  2.3527  2.3321 -1.1295
  483MOL0     H65150   3.232   2.457   4.922  1.2529  2.5468 -0.6635
  483MOL0     H65151   3.281   2.439   5.092  1.1241  2.5789  0.4511
  483MOL0     H65152   3.439   2.595   4.986 -0.7660 -0.3106 -0.3316
  483MOL0     H65153   3.518   2.428   5.014 -1.1380 -0.6776  2.6466
  483MOL0     H65154   3.441   2.573   4.763  0.6535  0.2209 -0.1640
  483MOL0     H65155   3.449   2.392   4.759  0.2312  0.1112 -0.8037
  483MOL0     H65156   3.733   2.611   4.930 -2.7950  2.6677 -0.7932
  483MOL0     H65157   3.988   2.548   4.915  0.1232 -1.0883  0.6977
  483MOL0     H65158   4.028   2.423   4.794 -1.2447 -0.9839 -1.0888
  483MOL0     H65159   4.037   2.730   4.734  0.7903  1.0121  0.0111
  483MOL0     H65160   4.107   2.594   4.639  3.0574 -1.3225  1.2051
  483MOL0     H65161   4.241   2.573   4.869 -0.0510 -0.0026  0.5040
  483MOL0     H65162   4.184   2.728   4.901  1.1842  1.4598 -1.2783
  483MOL0     H65163   4.282   2.763   4.635  1.0735 -0.9349 -0.7961
  483MOL0     H65164   4.398   2.670   4.719 -1.8211 -2.6444  1.1798
  483MOL0     H65165   4.480   2.870   4.553  2.8103  2.0383 -3.7079
  483MOL0     H65166   4.704   3.051   4.436  1.6850 -1.2525 -3.4529
  483MOL0     H65167   4.817   2.927   4.499 -0.1087  0.9394  1.3769
  483MOL0     H65168   4.657   2.880   4.428 -0.1737 -1.0137  1.2551
  483MOL0     H65169   5.036   3.387   4.862  1.7838  0.9307  1.0233
  483MOL0     H65170   5.277   3.417   4.829  1.1994 -1.2686  1.1369
  483MOL0     H65171   5.538   3.065   4.702  3.4697 -2.3279 -4.2844
  483MOL0     H65172   5.454   3.133   4.561 -0.8549 -0.2944  0.6358
  483MOL0     H65173   5.683   3.281   4.686 -0.3714  0.1312 -0.6472
  483MOL0     H65174   5.718   3.126   4.592 -0.7170 -0.0335 -1.4461
  483MOL0     H65175   5.560   3.353   4.475  1.7589  2.6993 -0.2536
  483MOL0     H65176   5.657   3.209   4.405  0.4508  0.9267 -0.4543
  483MOL0     H65177   5.863   3.312   4.480  0.8317  0.8982 -1.0796
  483MOL0     H65178   5.769   3.426   4.373 -3.0129  1.4671  1.1309
  483MOL0     H65179   5.809   3.443   4.673 -2.0354 -0.9141 -0.8065
  483MOL0     H65180   5.719   3.556   4.579  2.2836  3.3346 -2.8585
  483MOL0     H65181   5.918   3.662   4.596 -0.3016 -2.2887  3.7058
  483MOL0     H65182   6.014   3.523   4.545 -0.2938 -1.8170 -1.9896
  483MOL0     H65183   5.798   3.655   4.376  0.2624  2.2203  0.2466
  483MOL0     H65184   5.942   3.553   4.319  1.7477 -0.7267  1.7379
  483MOL0     H65185   6.094   3.714   4.367 -0.3336 -0.1762  1.2040
  483MOL0     H65186   5.960   3.834   4.429 -1.4218  1.6546 -1.9666
  483MOL0     H65187   5.328   3.015   4.711  2.4206  1.6654 -0.0498
  483MOL0     H65188   5.087   2.959   4.773  4.0887 -0.7743 -1.5169
  483MOL0     H65189   4.683   3.126   4.934  1.8070  0.6124 -2.0982
  483MOL0     H65190   4.458   3.029   4.960 -0.1886 -2.6715 -0.0472
  483MOL0     H65191   2.581   2.143   5.041 -1.8024  1.1474  1.6072
  483MOL0     H65192   2.348   2.053   5.020  2.3960  3.0381 -0.5128
  483MOL0     H65193   2.110   1.563   4.859  0.2183  0.9016 -0.4730
  483MOL0     H65194   1.859   1.490   4.880 -1.1122  0.1664 -0.0455
  483MOL0     H65195   1.616   1.506   4.883  1.7113  0.5321  0.4386
  483MOL0     H65196   1.673   1.413   5.027  1.3781  0.6361 -0.0982
  483MOL0     H65197   1.424   1.424   4.981 -0.5914  0.4414 -0.5471
  483MOL0     H65198   1.436   1.594   5.038 -1.4393 -1.4088  0.9148
  483MOL0     H65199   1.437   1.532   5.246 -1.6006  0.4695 -2.7620
  483MOL0     H65200   1.579   1.417   5.221  0.6653 -2.8719  0.4529
  483MOL0     H65201   1.423   1.260   5.152 -0.0668  0.3630 -0.7568
  483MOL0     H65202   1.273   1.351   5.205  0.2813 -2.9572 -2.0436
  483MOL0     H65203   1.422   1.191   5.559 -1.3531 -0.1626 -0.7938
  483MOL0     H65204   1.807   1.791   5.183 -0.3402  2.0679 -0.6096
  483MOL0     H65205   2.042   1.849   5.153 -0.7875  0.6706 -0.3216
  484MOL0     O65206   7.118   7.141   6.070 -0.6695  0.2237  0.3175
  484MOL0     C65207   7.189   7.246   6.102  0.1453 -0.1479 -0.3973
  484MOL0     O65208   7.174   7.371   6.046  0.1782  0.3906 -0.5796
  484MOL0     C65209   7.089   7.386   5.942 -0.1842  0.6629  0.2006
  484MOL0     C65210   7.102   7.305   5.833 -0.7506 -0.6888 -0.8041
  484MOL0     C65211   7.033   7.335   5.719  0.3474 -0.3287 -0.8597
  484MOL0     C65212   6.956   7.448   5.699 -0.8143  0.1517 -0.4351
  484MOL0     O65213   6.897   7.460   5.573  0.0140 -0.0989 -0.6349
  484MOL0     C65214   6.765   7.425   5.580  0.3196  0.3141  0.7230
  484MOL0     C65215   6.697   7.419   5.445 -0.0376  0.5346  0.4797
  484MOL0     C65216   6.699   7.561   5.386  0.0824  0.5104  1.0572
  484MOL0     C65217   6.650   7.555   5.237 -0.9569 -0.0841  0.3864
  484MOL0     C65218   6.749   7.510   5.131  0.2930 -0.3319  0.5303
  484MOL0     C65219   6.684   7.474   5.001 -0.2590  0.0635  0.5582
  484MOL0     C65220   6.579   7.571   4.939 -0.8729  0.5341  0.1369
  484MOL0     C65221   6.524   7.524   4.803  0.3063 -0.2415 -0.6320
  484MOL0     N65222   6.437   7.403   4.808 -0.1327  0.1081  0.0155
  484MOL0     C65223   6.492   7.273   4.808  0.5352 -0.5081 -0.1471
  484MOL0     C65224   6.389   7.200   4.861 -0.8766 -0.0295  0.2759
  484MOL0     C65225   6.384   7.048   4.855 -0.7725 -1.3378 -0.1850
  484MOL0     C65226   6.341   6.995   4.713 -0.8197  0.1183 -0.3215
  484MOL0     C65227   6.349   6.844   4.691  0.0622  0.4787  0.0176
  484MOL0     C65228   6.448   6.763   4.785  0.7496 -0.0276  0.2318
  484MOL0     O65229   6.585   6.777   4.747 -0.5441 -0.4123  0.2243
  484MOL0     C65230   6.674   6.703   4.820 -0.3592 -0.3507 -0.3489
  484MOL0     C65231   6.800   6.750   4.819 -0.0432 -0.0427 -0.5257
  484MOL0     C65232   6.911   6.686   4.883 -0.2118 -0.2928  0.2526
  484MOL0     C65233   7.038   6.753   4.902 -0.1622 -1.0059  0.8163
  484MOL0     C65234   6.891   6.560   4.941  0.5720  0.6281 -0.5939
  484MOL0     C65235   6.994   6.474   5.006  0.0465  0.2522  0.8912
  484MOL0     O65236   6.953   6.374   5.090 -0.7644 -1.6276  0.4216
  484MOL0     C65237   7.026   6.345   5.202 -0.0581  0.5730  0.7656
  484MOL0     C65238   7.007   6.208   5.246 -0.7210 -0.5054 -0.2762
  484MOL0     C65239   7.057   6.177   5.376 -0.8538 -0.0631  0.6533
  484MOL0     C65240   7.138   6.267   5.444 -1.1206 -0.0030 -0.4241
  484MOL0     O65241   7.225   6.242   5.551  0.0342  0.1586  0.4826
  484MOL0     C65242   7.224   6.117   5.622 -0.1002  0.3288  0.2216
  484MOL0     C65243   7.337   6.125   5.728 -1.1131 -0.0678 -0.3399
  484MOL0     C65244   7.480   6.078   5.674  0.1548  0.0562  0.3390
  484MOL0     C65245   7.488   5.935   5.606  0.5383  1.0174 -0.2192
  484MOL0     C65246   7.623   5.866   5.630  0.6164  0.6287  0.5810
  484MOL0     C65247   7.757   5.949   5.600  0.4325  0.1022  0.0196
  484MOL0     C65248   7.881   5.863   5.611 -0.5518  0.9210  0.4537
  484MOL0     C65249   7.999   5.950   5.567 -0.3489  0.4994  0.4356
  484MOL0    Cl65250   8.016   6.113   5.637 -0.3162  0.3862 -0.3828
  484MOL0     C65251   7.153   6.403   5.401 -0.0068 -0.1948  0.3798
  484MOL0     C65252   7.088   6.437   5.282  0.8981 -0.4460 -0.0495
  484MOL0     O65253   7.112   6.495   4.981  0.0328  0.5471  0.5912
  484MOL0     C65254   6.752   6.506   4.944 -0.2378 -0.6562  0.3096
  484MOL0     C65255   6.650   6.575   4.877 -0.6284  0.4545 -0.6412
  484MOL0     N65256   6.278   7.283   4.884 -0.0471  1.1848  0.1428
  484MOL0     N65257   6.302   7.402   4.853 -0.2986  0.8752 -0.3459
  484MOL0     C65258   6.949   7.538   5.811  0.6618 -0.5979  0.0664
  484MOL0     C65259   7.016   7.505   5.932  0.1866 -0.0091  0.3774
  484MOL0     C65260   7.308   7.239   6.194 -0.3891 -0.1392  0.1506
  484MOL0     C65261   7.349   7.104   6.243 -0.1933 -0.9233 -0.3049
  484MOL0     C65262   7.461   7.109   6.325 -0.1725  0.1683  0.1535
  484MOL0     C65263   7.542   7.225   6.347  0.4664  0.3396  0.9133
  484MOL0     O65264   7.635   7.247   6.435 -0.6513  0.2491  1.1320
  484MOL0     C65265   7.739   7.137   6.444  0.3083  0.6102  0.1871
  484MOL0     C65266   7.857   7.194   6.526 -0.1936 -0.2255 -0.2113
  484MOL0     C65267   7.961   7.253   6.433  0.2244  0.8097 -0.5568
  484MOL0     C65268   8.048   7.155   6.368 -0.1547 -1.0497  0.0451
  484MOL0     C65269   8.156   7.240   6.312 -0.3428 -0.3247  0.1614
  484MOL0     C65270   8.238   7.314   6.257 -0.9780  1.0499 -1.1142
  484MOL0     C65271   7.505   7.349   6.288 -0.3619  0.9861  0.3444
  484MOL0     C65272   7.391   7.350   6.211  0.2163  0.1398  0.0517
  484MOL0     H65273   7.166   7.217   5.839 -2.0001 -1.5492  1.3339
  484MOL0     H65274   7.044   7.272   5.631 -2.5969 -0.5490 -1.1968
  484MOL0     H65275   6.748   7.327   5.626 -1.3354  0.2199 -0.0052
  484MOL0     H65276   6.717   7.512   5.626 -3.6321 -0.0310 -2.1493
  484MOL0     H65277   6.751   7.349   5.381 -0.5101  0.4355  0.1847
  484MOL0     H65278   6.596   7.379   5.455 -1.1419  1.5213 -4.3138
  484MOL0     H65279   6.641   7.637   5.439 -1.0457  4.7713 -5.1441
  484MOL0     H65280   6.804   7.589   5.380 -0.2364  1.4414 -1.2644
  484MOL0     H65281   6.555   7.500   5.234 -1.0711  0.0266  1.4951
  484MOL0     H65282   6.629   7.659   5.212  1.7748  0.5009  0.1867
  484MOL0     H65283   6.824   7.588   5.121  0.2962 -0.3483  0.4169
  484MOL0     H65284   6.820   7.433   5.164  1.3416 -1.6625 -4.0031
  484MOL0     H65285   6.768   7.447   4.936 -1.3878 -0.4034 -0.7558
  484MOL0     H65286   6.623   7.383   4.999 -4.3839  2.5515 -1.4070
  484MOL0     H65287   6.494   7.576   5.008  1.2980 -1.0030  3.1343
  484MOL0     H65288   6.632   7.666   4.925  2.9515 -0.8953  3.1997
  484MOL0     H65289   6.601   7.503   4.728 -0.8891 -3.9562 -1.0445
  484MOL0     H65290   6.460   7.609   4.776  0.5469  0.3915  0.6822
  484MOL0     H65291   6.580   7.237   4.756  0.7676 -0.7082  0.3852
  484MOL0     H65292   6.480   7.002   4.883  0.9514  1.6253 -0.7327
  484MOL0     H65293   6.306   7.009   4.921 -1.2967  0.8359  0.5678
  484MOL0     H65294   6.414   7.040   4.646 -0.8672  0.2849 -0.2615
  484MOL0     H65295   6.247   7.039   4.680 -0.9128 -0.5887 -1.0343
  484MOL0     H65296   6.365   6.820   4.585 -2.1703 -2.9484  0.3041
  484MOL0     H65297   6.255   6.788   4.698  1.4898 -2.1192 -0.3443
  484MOL0     H65298   6.420   6.657   4.786  0.4227  0.0321 -1.0958
  484MOL0     H65299   6.418   6.792   4.886 -2.6715 -1.4159 -0.2441
  484MOL0     H65300   6.819   6.833   4.753  0.0653 -0.4499 -1.0120
  484MOL0     H65301   7.120   6.697   4.859 -2.5220 -4.6109  0.5955
  484MOL0     H65302   7.045   6.852   4.856  2.4150 -0.2114  2.6700
  484MOL0     H65303   7.043   6.781   5.008 -1.1201  2.3101  0.1305
  484MOL0     H65304   6.951   6.134   5.189 -1.4065 -0.1403 -0.0890
  484MOL0     H65305   7.053   6.074   5.410 -1.0965 -0.9398 -1.8231
  484MOL0     H65306   7.131   6.114   5.681  1.2270  1.3688  2.4965
  484MOL0     H65307   7.215   6.026   5.562 -0.4686  1.4318 -1.4514
  484MOL0     H65308   7.351   6.231   5.751  0.7303 -0.7772  2.2897
  484MOL0     H65309   7.305   6.062   5.812 -6.0288  1.3493 -0.8820
  484MOL0     H65310   7.550   6.066   5.757  1.2724 -0.9371 -0.7081
  484MOL0     H65311   7.519   6.149   5.601  1.6199 -0.4277  0.6055
  484MOL0     H65312   7.415   5.865   5.647 -0.3636  0.4142 -2.6999
  484MOL0     H65313   7.479   5.956   5.499  0.6727  0.2377 -0.3904
  484MOL0     H65314   7.637   5.769   5.581 -1.1366 -0.9505  2.9545
  484MOL0     H65315   7.628   5.843   5.737  2.7860 -2.1152 -0.0012
  484MOL0     H65316   7.755   5.986   5.496  2.4176 -3.0826 -1.2899
  484MOL0     H65317   7.766   6.034   5.668 -0.5280  1.1287 -1.0855
  484MOL0     H65318   7.880   5.776   5.545 -1.9895  2.2713 -1.4073
  484MOL0     H65319   7.894   5.821   5.711 -0.2235 -1.4639 -0.5155
  484MOL0     H65320   7.991   5.954   5.458 -3.6121  0.5510  0.5883
  484MOL0     H65321   8.082   5.892   5.610 -1.7796 -1.3141  0.8914
  484MOL0     H65322   7.223   6.477   5.440  2.9952 -0.7644 -3.3227
  484MOL0     H65323   7.082   6.541   5.251 -0.1295 -0.7872 -1.1001
  484MOL0     H65324   6.731   6.414   4.997  2.7201 -1.5586  0.0570
  484MOL0     H65325   6.550   6.538   4.891  0.3245 -1.0024  3.8079
  484MOL0     H65326   6.890   7.628   5.800  0.3268 -0.9031 -0.6784
  484MOL0     H65327   7.007   7.562   6.024 -2.2238  4.9635 -2.5097
  484MOL0     H65328   7.295   7.010   6.239  2.9633 -2.8678 -0.5424
  484MOL0     H65329   7.493   7.024   6.384  2.1469  1.9699  1.6845
  484MOL0     H65330   7.699   7.049   6.495  1.1964  0.9500  1.5253
  484MOL0     H65331   7.771   7.103   6.345 -1.3340 -0.4429 -0.0176
  484MOL0     H65332   7.906   7.124   6.595  2.4903  2.9088  1.3429
  484MOL0     H65333   7.830   7.274   6.595 -1.3112 -0.6149 -0.1730
  484MOL0     H65334   8.017   7.314   6.505  0.1490 -2.1242  2.2444
  484MOL0     H65335   7.905   7.321   6.368  0.7010 -0.4287 -2.3313
  484MOL0     H65336   8.000   7.097   6.288 -0.1573 -1.1591  0.1263
  484MOL0     H65337   8.093   7.078   6.431  1.5740 -0.7112 -0.7049
  484MOL0     H65338   8.323   7.369   6.221  1.5908 -1.8708 -0.0536
  484MOL0     H65339   7.555   7.444   6.307 -1.1603  2.0973 -2.6426
  484MOL0     H65340   7.370   7.443   6.160  3.8655  1.7612  1.1927
  485MOL0     O65341   0.746   1.624   6.451 -0.7837  0.5860  0.1076
  485MOL0     C65342   0.686   1.734   6.475 -0.3405  0.2384 -1.1014
  485MOL0     O65343   0.605   1.800   6.394  0.1538 -0.0629 -0.1693
  485MOL0     C65344   0.580   1.760   6.263 -0.1392 -1.0312  0.2675
  485MOL0     C65345   0.591   1.627   6.208  0.2714 -0.5231  0.2880
  485MOL0     C65346   0.574   1.600   6.075  0.3301  0.2516 -1.0831
  485MOL0     C65347   0.541   1.704   5.991 -0.3054  0.2197 -0.1448
  485MOL0     O65348   0.539   1.671   5.856 -0.0366 -0.9577 -0.5119
  485MOL0     C65349   0.471   1.768   5.778  0.1936 -0.0702  0.6180
  485MOL0     C65350   0.321   1.778   5.798 -0.4060  0.2456  0.7634
  485MOL0     C65351   0.255   1.915   5.780  0.7667 -0.8461 -0.6155
  485MOL0     C65352   0.230   1.949   5.637  0.2319  0.1884 -0.6083
  485MOL0     C65353   0.125   1.854   5.584 -0.6344 -0.2633  0.0506
  485MOL0     C65354   0.063   1.932   5.462  0.1483 -0.4896 -0.3437
  485MOL0     C65355  -0.035   1.847   5.380  0.1415 -0.1192  0.1947
  485MOL0     C65356   0.011   1.723   5.308 -0.7668 -0.2770  0.8757
  485MOL0     N65357   0.103   1.763   5.194  0.3232  0.2174  0.0394
  485MOL0     C65358   0.240   1.744   5.187  0.5029  0.6099  0.6444
  485MOL0     C65359   0.271   1.759   5.057 -0.2589 -0.2799  0.9267
  485MOL0     C65360   0.414   1.741   5.008 -0.0689 -0.6161  1.4397
  485MOL0     C65361   0.416   1.644   4.887 -0.2440  0.1686  0.6433
  485MOL0     C65362   0.385   1.492   4.920  0.3250  0.0820 -0.0805
  485MOL0     C65363   0.484   1.442   5.022 -0.7479  0.6584  0.7141
  485MOL0     O65364   0.615   1.441   4.953  0.7453  0.0133 -0.0665
  485MOL0     C65365   0.719   1.488   5.024 -0.7399 -0.3499  0.5716
  485MOL0     C65366   0.800   1.591   4.957 -0.1613 -0.4564  1.0060
  485MOL0     C65367   0.914   1.638   5.026  0.5313 -0.3262 -0.1032
  485MOL0     C65368   0.984   1.755   4.966  0.4180  0.1069 -0.1570
  485MOL0     C65369   0.949   1.592   5.153  0.6014 -0.3959  0.2520
  485MOL0     C65370   1.064   1.651   5.228  0.0224 -0.1593  0.1729
  485MOL0     O65371   1.062   1.630   5.359  0.4199 -0.5253 -0.1854
  485MOL0     C65372   1.185   1.639   5.427  0.4685  0.5963  0.5549
  485MOL0     C65373   1.212   1.541   5.518 -0.5987  0.0171  0.5557
  485MOL0     C65374   1.333   1.537   5.593 -0.2935  0.2452 -0.5139
  485MOL0     C65375   1.429   1.639   5.584 -0.0867  0.4742  0.2724
  485MOL0     O65376   1.537   1.617   5.657  0.3356 -0.0110 -0.1637
  485MOL0     C65377   1.653   1.697   5.642 -0.3177 -0.3348  0.2419
  485MOL0     C65378   1.628   1.820   5.724 -0.6537 -0.4526  0.8881
  485MOL0     C65379   1.764   1.909   5.706  0.7455 -0.9336  0.3374
  485MOL0     C65380   1.765   2.041   5.784  0.2761  0.6007 -1.1275
  485MOL0     C65381   1.900   2.108   5.806 -0.7136  0.4263 -0.2934
  485MOL0     C65382   1.969   2.058   5.936 -0.2358 -0.7466  0.2329
  485MOL0     C65383   2.112   2.122   5.967 -0.9728 -0.2021  0.2128
  485MOL0     C65384   2.103   2.260   6.029  0.0019  0.1769 -0.1533
  485MOL0    Cl65385   2.023   2.257   6.195 -0.2430  0.3939  0.4681
  485MOL0     C65386   1.408   1.733   5.485 -0.4583 -0.6073  0.9998
  485MOL0     C65387   1.277   1.738   5.414 -0.4893 -0.7398  0.2708
  485MOL0     O65388   1.159   1.695   5.160 -1.1825  0.0163 -0.2237
  485MOL0     C65389   0.873   1.494   5.212 -0.5153 -0.8348  0.1852
  485MOL0     C65390   0.769   1.436   5.151 -0.7614  0.8801  0.1969
  485MOL0     N65391   0.150   1.781   4.990 -0.7752 -0.3097 -0.0813
  485MOL0     N65392   0.054   1.796   5.069 -0.7368  0.3275  0.3119
  485MOL0     C65393   0.524   1.835   6.043  0.9512  1.2151  0.1168
  485MOL0     C65394   0.544   1.860   6.175 -0.7272  0.2973 -0.0382
  485MOL0     C65395   0.727   1.809   6.598 -0.0051  0.4387  0.5879
  485MOL0     C65396   0.826   1.759   6.686 -0.0671 -0.9699  0.2051
  485MOL0     C65397   0.851   1.822   6.809 -0.6440  0.0073 -0.2512
  485MOL0     C65398   0.789   1.939   6.839  0.0663  0.5758  0.6927
  485MOL0     O65399   0.830   1.989   6.967  0.3525  0.1818 -0.4658
  485MOL0     C65400   0.742   2.090   7.030  0.0806  1.3466  0.8769
  485MOL0     C65401   0.800   2.101   7.170  1.2920  0.0280  0.9373
  485MOL0     C65402   0.931   2.178   7.188 -0.2808 -0.2744 -0.3285
  485MOL0     C65403   0.890   2.324   7.156 -0.3808 -1.3105 -0.2256
  485MOL0     C65404   1.010   2.407   7.143  0.1524  0.4257  0.6546
  485MOL0     C65405   1.114   2.468   7.133 -0.3998  0.0020 -0.6882
  485MOL0     C65406   0.687   1.995   6.759 -0.3066 -0.5058 -0.1362
  485MOL0     C65407   0.660   1.924   6.637  0.0850 -0.1744 -0.8549
  485MOL0     H65408   0.610   1.544   6.275  0.8474 -0.6202  0.0096
  485MOL0     H65409   0.596   1.506   6.026  0.1610 -0.5219  0.2543
  485MOL0     H65410   0.524   1.864   5.782  4.9713 -2.4528  1.2520
  485MOL0     H65411   0.487   1.736   5.674 -0.3703 -0.8700  0.7680
  485MOL0     H65412   0.279   1.699   5.736 -0.7859 -0.8593  2.3747
  485MOL0     H65413   0.292   1.745   5.898  1.2818 -3.2845  0.2360
  485MOL0     H65414   0.160   1.933   5.832  0.5434  1.7971 -1.7629
  485MOL0     H65415   0.327   1.986   5.821 -1.6485  0.6427  1.4093
  485MOL0     H65416   0.189   2.050   5.632 -1.3806 -0.4504 -0.8640
  485MOL0     H65417   0.316   1.943   5.570 -0.5014 -2.2308 -1.4396
  485MOL0     H65418   0.173   1.763   5.547 -1.1615 -1.1133  1.3667
  485MOL0     H65419   0.044   1.833   5.654  0.2333 -0.8522  0.8874
  485MOL0     H65420   0.007   2.021   5.496  0.4439 -0.4288 -0.0170
  485MOL0     H65421   0.141   1.981   5.404  0.2573  0.9573  0.9398
  485MOL0     H65422  -0.120   1.808   5.437  1.1165 -2.3802  0.2030
  485MOL0     H65423  -0.075   1.911   5.300  0.6622 -0.9062 -0.7251
  485MOL0     H65424  -0.075   1.674   5.261 -0.6557 -0.4654  0.8716
  485MOL0     H65425   0.055   1.653   5.379 -1.4037 -0.3524  1.2085
  485MOL0     H65426   0.303   1.730   5.275  1.1346 -1.7822 -0.1152
  485MOL0     H65427   0.464   1.834   4.978  2.8289 -1.9070  1.9276
  485MOL0     H65428   0.475   1.708   5.093 -1.4996  2.0368  3.6651
  485MOL0     H65429   0.508   1.647   4.828 -0.9186  3.4146 -0.4894
  485MOL0     H65430   0.347   1.672   4.806  1.6546 -1.0489 -1.5067
  485MOL0     H65431   0.388   1.429   4.831 -4.0970 -0.9776  0.2903
  485MOL0     H65432   0.281   1.484   4.953 -0.1153  0.3001 -1.3760
  485MOL0     H65433   0.448   1.342   5.045  0.6111  0.4271  2.0101
  485MOL0     H65434   0.487   1.498   5.116 -0.9456  1.0127  0.5134
  485MOL0     H65435   0.760   1.623   4.861  0.4487 -0.0055  0.8970
  485MOL0     H65436   1.001   1.830   5.044  0.5419 -2.0695  2.0321
  485MOL0     H65437   1.082   1.727   4.927 -0.3103 -2.8629 -0.0568
  485MOL0     H65438   0.915   1.799   4.894  3.9860  2.5891 -2.4075
  485MOL0     H65439   1.129   1.472   5.530 -1.1340  0.3914 -0.7632
  485MOL0     H65440   1.357   1.446   5.648  0.3457  2.0836  2.5236
  485MOL0     H65441   1.734   1.639   5.688 -4.5058 -3.8184  4.2066
  485MOL0     H65442   1.675   1.717   5.537  0.4101  0.8160  0.5963
  485MOL0     H65443   1.537   1.872   5.690 -0.6584 -0.8162  0.3147
  485MOL0     H65444   1.624   1.787   5.828  0.8748 -1.3043  0.7052
  485MOL0     H65445   1.774   1.927   5.599 -0.8309 -3.1883 -0.2488
  485MOL0     H65446   1.861   1.865   5.732 -0.2714 -2.3076  2.0202
  485MOL0     H65447   1.707   2.115   5.729 -0.1151 -0.1253 -1.7071
  485MOL0     H65448   1.713   2.025   5.879  1.1905 -3.8471 -1.1478
  485MOL0     H65449   1.885   2.217   5.806  0.4736  0.6076  0.6661
  485MOL0     H65450   1.963   2.079   5.722 -2.4230  0.0521 -1.4834
  485MOL0     H65451   1.908   2.077   6.025  0.8283 -1.3403  1.1143
  485MOL0     H65452   1.976   1.949   5.930 -1.9667 -0.9208  0.8433
  485MOL0     H65453   2.171   2.109   5.876 -0.6894 -0.8462  0.4824
  485MOL0     H65454   2.165   2.063   6.042 -1.3308 -0.0165  0.6180
  485MOL0     H65455   2.035   2.322   5.970  0.8739 -0.2775 -1.6854
  485MOL0     H65456   2.203   2.303   6.030  0.1276 -0.1200  0.0660
  485MOL0     H65457   1.473   1.819   5.472 -2.4747  0.9047  0.5512
  485MOL0     H65458   1.259   1.818   5.342 -1.5800 -1.7655 -0.6196
  485MOL0     H65459   0.897   1.443   5.305 -0.8654 -3.8736 -1.2406
  485MOL0     H65460   0.726   1.354   5.208  2.4461  0.5919  2.4872
  485MOL0     H65461   0.505   1.922   5.982  1.4781  0.1053 -1.7191
  485MOL0     H65462   0.550   1.954   6.229 -1.0797 -1.4372  3.2806
  485MOL0     H65463   0.885   1.677   6.648 -1.0421 -1.0131 -1.3220
  485MOL0     H65464   0.931   1.785   6.872 -1.9023 -0.7484  0.9412
  485MOL0     H65465   0.753   2.176   6.964  1.2105  0.6376  0.0829
  485MOL0     H65466   0.637   2.063   7.041  0.4088 -0.7969 -0.6451
  485MOL0     H65467   0.805   2.002   7.216 -2.6255 -1.9610 -2.3794
  485MOL0     H65468   0.721   2.153   7.225  1.5040  1.3749  0.0168
  485MOL0     H65469   1.006   2.148   7.114 -0.7428 -2.3440 -0.0172
  485MOL0     H65470   0.973   2.177   7.288  0.1364 -0.5012 -0.5036
  485MOL0     H65471   0.835   2.346   7.249 -1.6586 -5.4662  0.1857
  485MOL0     H65472   0.823   2.328   7.069 -1.1236 -0.0447  0.3566
  485MOL0     H65473   1.205   2.520   7.111  0.5397 -0.4043  1.9542
  485MOL0     H65474   0.635   2.086   6.790  2.3042  1.0663 -0.0960
  485MOL0     H65475   0.577   1.963   6.579 -1.1640  0.8663  1.4906
  486MOL0     O65476   9.221  10.151   9.720  0.1718  0.1426 -0.0742
  486MOL0     C65477   9.323  10.198   9.674 -0.5346  0.4234 -0.4703
  486MOL0     O65478   9.378  10.166   9.552 -0.1310  0.4557  0.6267
  486MOL0     C65479   9.309  10.086   9.466 -0.9864  0.3345 -0.0498
  486MOL0     C65480   9.167  10.095   9.437 -0.4710  0.0981  1.3916
  486MOL0     C65481   9.114  10.007   9.351 -0.2882  0.3672  0.4612
  486MOL0     C65482   9.178   9.911   9.275  0.2055 -0.7404  0.1327
  486MOL0     O65483   9.120   9.826   9.185 -0.6346 -0.8603  0.1377
  486MOL0     C65484   8.976   9.835   9.156 -0.6062 -0.7216 -0.6102
  486MOL0     C65485   8.955   9.737   9.040  0.5740  0.2114  0.2755
  486MOL0     C65486   9.017   9.771   8.901  0.4998  0.6848  0.4927
  486MOL0     C65487   9.034   9.652   8.802 -0.2264 -0.7268 -0.4945
  486MOL0     C65488   9.100   9.695   8.658  0.3518 -0.4010  0.0006
  486MOL0     C65489   9.048   9.827   8.586  0.1459  0.3293  0.2526
  486MOL0     C65490   9.127   9.873   8.461  0.5262  0.0956 -0.4351
  486MOL0     C65491   9.271   9.905   8.494  0.3715 -0.3235  0.8236
  486MOL0     N65492   9.320  10.003   8.399  0.4552  0.6869  1.0319
  486MOL0     C65493   9.328   9.974   8.265  0.7218 -0.3077 -0.2465
  486MOL0     C65494   9.414  10.066   8.225 -1.0063 -0.2763 -0.1679
  486MOL0     C65495   9.449  10.086   8.077  0.0076 -1.0474 -0.3001
  486MOL0     C65496   9.327  10.054   7.986 -0.0546  0.1651 -0.0704
  486MOL0     C65497   9.359  10.106   7.851  0.9489 -0.3968  0.1347
  486MOL0     C65498   9.227  10.090   7.758 -0.1549 -0.6266 -0.2702
  486MOL0     O65499   9.126  10.177   7.796  0.0734 -0.5491  0.3128
  486MOL0     C65500   8.996  10.135   7.774  0.2843 -0.5089 -0.7196
  486MOL0     C65501   8.914  10.169   7.662  0.4069 -0.1356 -0.6475
  486MOL0     C65502   8.778  10.129   7.660 -0.1390 -0.1312  0.1086
  486MOL0     C65503   8.703  10.164   7.542  0.7651  0.3503 -0.6227
  486MOL0     C65504   8.731  10.044   7.759 -0.2234  0.6503  0.0044
  486MOL0     C65505   8.597   9.975   7.751  0.1160  0.2943  0.0877
  486MOL0     O65506   8.502  10.058   7.698  0.4770  0.1992  0.2198
  486MOL0     C65507   8.388   9.992   7.670  0.5708 -0.8898  0.0322
  486MOL0     C65508   8.327   9.982   7.546  0.0809  1.0105 -0.7374
  486MOL0     C65509   8.191   9.923   7.542 -0.5923 -0.0729  1.2428
  486MOL0     C65510   8.128   9.874   7.652  0.2908 -0.0319  0.6960
  486MOL0     O65511   8.006   9.809   7.646 -0.5165 -0.2591 -0.0127
  486MOL0     C65512   7.931   9.790   7.524 -0.9608  0.2175  0.5512
  486MOL0     C65513   7.788   9.744   7.552  0.4279 -0.9653  0.3466
  486MOL0     C65514   7.727   9.729   7.413  0.5380  0.0969 -0.0838
  486MOL0     C65515   7.671   9.592   7.382  0.1612  0.0652 -0.1702
  486MOL0     C65516   7.593   9.598   7.251  0.3126 -0.0850  0.9034
  486MOL0     C65517   7.552   9.464   7.181 -0.6414  0.2070 -0.3930
  486MOL0     C65518   7.440   9.392   7.254  0.2602 -0.3117 -0.1201
  486MOL0     C65519   7.374   9.274   7.184  0.1964 -0.4344 -0.2428
  486MOL0    Cl65520   7.279   9.325   7.052  0.3114 -0.7338 -0.1756
  486MOL0     C65521   8.189   9.890   7.778  0.1540  0.4537 -0.5374
  486MOL0     C65522   8.320   9.933   7.786  0.1565  0.3088  0.8986
  486MOL0     O65523   8.595   9.851   7.767  0.4679  0.1608 -0.1692
  486MOL0     C65524   8.811  10.008   7.868 -0.1903  0.3695 -0.2153
  486MOL0     C65525   8.943  10.054   7.878  0.4998  0.4773 -0.1467
  486MOL0     N65526   9.452  10.147   8.328  0.2433  0.8908  0.2519
  486MOL0     N65527   9.403  10.106   8.435  0.4082 -0.1209 -0.0721
  486MOL0     C65528   9.318   9.913   9.292  0.1926  0.0902 -0.0913
  486MOL0     C65529   9.381   9.985   9.394  0.4495 -0.5376  0.0928
  486MOL0     C65530   9.398  10.282   9.768 -0.1694  0.1853 -0.0414
  486MOL0     C65531   9.336  10.343   9.880 -0.7650 -1.0852 -0.0076
  486MOL0     C65532   9.415  10.427   9.965  0.1487 -0.3727 -0.1056
  486MOL0     C65533   9.551  10.451   9.939  0.0386  0.0644 -0.3805
  486MOL0     O65534   9.627  10.522  10.026 -0.4681  0.4098  0.7988
  486MOL0     C65535   9.771  10.526  10.006  0.3365 -0.5747  0.1824
  486MOL0     C65536   9.824  10.614  10.117 -0.5819 -0.8794  0.3694
  486MOL0     C65537   9.804  10.767  10.105  0.1084  1.1779 -1.0035
  486MOL0     C65538   9.836  10.848  10.229 -0.2212 -0.7128 -0.4690
  486MOL0     C65539   9.800  10.988  10.212  0.2713 -0.1627  0.2885
  486MOL0     C65540   9.737  11.089  10.184 -0.2661 -0.0753 -1.1940
  486MOL0     C65541   9.611  10.394   9.826  0.1409  0.3200 -0.3874
  486MOL0     C65542   9.530  10.322   9.743  0.1887 -0.6801  0.9016
  486MOL0     H65543   9.100  10.177   9.460 -2.5894 -1.4671  1.0484
  486MOL0     H65544   9.007  10.017   9.335 -0.3242 -1.9263 -1.1891
  486MOL0     H65545   8.923   9.789   9.239  1.6539  0.3911  1.6032
  486MOL0     H65546   8.940   9.934   9.126  0.3104  1.1724  3.7040
  486MOL0     H65547   8.985   9.638   9.074 -1.7092 -1.1076 -1.2360
  486MOL0     H65548   8.848   9.719   9.021  0.7753 -2.2658  1.1673
  486MOL0     H65549   8.960   9.850   8.851  1.6319  1.7956  0.9107
  486MOL0     H65550   9.120   9.802   8.920  2.0148 -3.0138 -0.6901
  486MOL0     H65551   9.108   9.592   8.855 -0.3104  0.3174  0.8730
  486MOL0     H65552   8.936   9.604   8.798 -1.6053  1.8009  0.3176
  486MOL0     H65553   9.210   9.696   8.665  0.3833  2.2044  0.1435
  486MOL0     H65554   9.068   9.609   8.600 -2.0840 -0.3845  1.2166
  486MOL0     H65555   8.940   9.820   8.569 -0.1622  0.2305  1.9852
  486MOL0     H65556   9.051   9.899   8.669 -2.1244  1.1113 -0.2793
  486MOL0     H65557   9.114   9.815   8.368  0.7663  0.9308 -1.0005
  486MOL0     H65558   9.078   9.967   8.436  0.1483 -0.9108 -4.2438
  486MOL0     H65559   9.332   9.814   8.489  1.0431  0.1725 -0.5329
  486MOL0     H65560   9.284   9.943   8.596  3.1406  1.2548  0.0058
  486MOL0     H65561   9.267   9.903   8.210 -0.6197 -2.2660  3.4148
  486MOL0     H65562   9.492  10.184   8.054 -0.3439 -0.9068 -0.3631
  486MOL0     H65563   9.522  10.008   8.053 -0.6222 -1.5152 -0.7284
  486MOL0     H65564   9.226  10.076   8.022 -0.1962  0.0682 -0.4008
  486MOL0     H65565   9.334   9.945   7.972 -0.4632 -0.1117  1.6843
  486MOL0     H65566   9.430  10.037   7.805  2.0762 -0.5756  2.0681
  486MOL0     H65567   9.384  10.212   7.857 -1.9783  0.5820 -2.2514
  486MOL0     H65568   9.199   9.984   7.757 -0.4773 -0.7128 -5.1189
  486MOL0     H65569   9.249  10.117   7.654 -0.5129  1.5922  0.1836
  486MOL0     H65570   8.949  10.230   7.579  1.3154  0.6325  0.2799
  486MOL0     H65571   8.764  10.216   7.467  1.1190 -1.8503 -1.9861
  486MOL0     H65572   8.652  10.087   7.483 -2.4730  0.1918  2.1265
  486MOL0     H65573   8.623  10.232   7.572  1.6429  0.6405  1.1935
  486MOL0     H65574   8.364  10.017   7.450  0.8135 -1.1440 -1.2914
  486MOL0     H65575   8.148   9.911   7.442  0.1359  1.5734  0.6951
  486MOL0     H65576   7.933   9.886   7.471  2.0703  0.6394  1.2467
  486MOL0     H65577   7.994   9.726   7.461 -0.4267  1.7118 -0.4768
  486MOL0     H65578   7.799   9.655   7.615  0.6602  0.8005  2.9570
  486MOL0     H65579   7.721   9.821   7.591 -1.3618 -0.0794 -3.9195
  486MOL0     H65580   7.795   9.747   7.329  0.3331 -2.2544 -0.8281
  486MOL0     H65581   7.650   9.803   7.389 -0.1870 -1.3112 -2.4752
  486MOL0     H65582   7.752   9.519   7.380 -1.0964 -1.3647 -0.5384
  486MOL0     H65583   7.593   9.573   7.457  1.9391 -0.1968  1.7023
  486MOL0     H65584   7.657   9.646   7.177  1.1743 -2.0936  0.2911
  486MOL0     H65585   7.503   9.661   7.262  0.1242  0.5599 -2.9642
  486MOL0     H65586   7.520   9.495   7.081 -1.9251  1.3262  0.3175
  486MOL0     H65587   7.647   9.411   7.174  1.1104  2.4536  3.3779
  486MOL0     H65588   7.356   9.458   7.278  1.0490 -0.1255  2.4579
  486MOL0     H65589   7.477   9.357   7.351 -1.7126 -1.8657  0.1408
  486MOL0     H65590   7.318   9.205   7.248  1.0068 -1.4922 -0.6459
  486MOL0     H65591   7.459   9.222   7.140  1.7132  2.1313 -0.5920
  486MOL0     H65592   8.143   9.846   7.866 -0.2005  0.9097 -0.4886
  486MOL0     H65593   8.371   9.941   7.882 -1.0449  0.8393  1.5112
  486MOL0     H65594   8.781   9.938   7.945 -1.4513  0.1338 -0.8839
  486MOL0     H65595   8.998  10.038   7.970 -0.3542 -2.0581  0.0132
  486MOL0     H65596   9.371   9.840   9.231  0.9075 -0.1739  0.8412
  486MOL0     H65597   9.485   9.995   9.420 -0.3705  0.5033  3.4725
  486MOL0     H65598   9.230  10.323   9.896 -0.5145 -4.2471 -1.4676
  486MOL0     H65599   9.370  10.459  10.058  3.1256 -0.1539  1.3790
  486MOL0     H65600   9.821  10.429  10.010 -0.4043 -1.0276 -1.0255
  486MOL0     H65601   9.796  10.571   9.909 -1.0004  2.9666  1.3116
  486MOL0     H65602   9.933  10.601  10.118 -0.2856  1.1917  0.3538
  486MOL0     H65603   9.789  10.588  10.217  0.6825 -0.6952  0.8875
  486MOL0     H65604   9.699  10.786  10.081 -0.9160 -0.8997  1.3245
  486MOL0     H65605   9.870  10.799  10.023  0.5665  1.3320 -0.5831
  486MOL0     H65606   9.944  10.846  10.245 -0.3681 -1.7808  0.5869
  486MOL0     H65607   9.779  10.819  10.318 -2.6420 -0.9725 -2.0078
  486MOL0     H65608   9.697  11.175  10.135  1.4466 -0.0859 -2.7091
  486MOL0     H65609   9.714  10.415   9.799 -0.3282  0.6509 -2.0806
  486MOL0     H65610   9.561  10.281   9.648 -0.4805 -1.8490  1.1640
  487MOL0     O65611   5.245   0.714   4.000 -0.1113 -0.2138 -0.2513
  487MOL0     C65612   5.322   0.792   4.060  0.3817  0.6194 -0.0119
  487MOL0     O65613   5.381   0.776   4.186  0.4323 -0.1988 -0.2633
  487MOL0     C65614   5.365   0.654   4.244 -0.2971  0.5492 -0.0426
  487MOL0     C65615   5.276   0.630   4.344 -0.2884  0.0639 -0.7250
  487MOL0     C65616   5.266   0.502   4.407 -0.2753 -1.0279 -0.0717
  487MOL0     C65617   5.341   0.391   4.354  0.4548  0.1858 -0.4875
  487MOL0     O65618   5.337   0.274   4.423 -0.6620  0.2020 -0.1336
  487MOL0     C65619   5.311   0.163   4.338  0.9746 -0.1912 -0.1156
  487MOL0     C65620   5.295   0.038   4.429  0.2684 -0.0706 -0.2026
  487MOL0     C65621   5.152   0.001   4.466 -0.1128  0.8375  0.0623
  487MOL0     C65622   5.133  -0.109   4.574 -0.8667 -0.0601 -0.0468
  487MOL0     C65623   4.990  -0.138   4.606 -0.0198 -0.0218 -0.1747
  487MOL0     C65624   4.976  -0.236   4.727  0.6255 -0.2007  0.9190
  487MOL0     C65625   4.833  -0.216   4.769 -1.0414 -0.1273 -0.5630
  487MOL0     C65626   4.798  -0.320   4.872  0.1236 -0.2665  0.6264
  487MOL0     N65627   4.777  -0.455   4.811  0.2480 -0.4550  0.6809
  487MOL0     C65628   4.693  -0.489   4.706  0.8274 -1.2681  0.1766
  487MOL0     C65629   4.727  -0.614   4.688 -0.4966 -0.3419  0.1743
  487MOL0     C65630   4.689  -0.711   4.581 -0.8292 -1.0757 -0.0175
  487MOL0     C65631   4.781  -0.680   4.458 -1.1409 -0.0812  0.1315
  487MOL0     C65632   4.736  -0.776   4.342 -0.2779  0.3912 -0.1215
  487MOL0     C65633   4.780  -0.705   4.212 -0.5891 -0.2673 -0.1970
  487MOL0     O65634   4.927  -0.719   4.203  0.3434  0.4841  0.7481
  487MOL0     C65635   4.986  -0.715   4.080  0.4850  0.0656  0.7404
  487MOL0     C65636   4.926  -0.667   3.967  0.6064  0.2467 -0.2694
  487MOL0     C65637   4.992  -0.664   3.837  0.0613  0.0819 -0.0573
  487MOL0     C65638   4.910  -0.621   3.722 -0.1205  0.7126  0.9096
  487MOL0     C65639   5.124  -0.714   3.823  0.2109  0.0844  0.2935
  487MOL0     C65640   5.207  -0.707   3.695  0.6135 -0.3048  0.3764
  487MOL0     O65641   5.309  -0.792   3.684 -0.4025 -0.3016  0.1683
  487MOL0     C65642   5.405  -0.753   3.588  0.0207  0.3215 -0.4325
  487MOL0     C65643   5.400  -0.795   3.454 -0.8823 -0.6559 -0.9961
  487MOL0     C65644   5.495  -0.752   3.355 -0.2513  0.5943  0.4505
  487MOL0     C65645   5.599  -0.670   3.384  0.2553 -0.8387  0.1398
  487MOL0     O65646   5.691  -0.650   3.287 -0.6860  0.0151  0.8703
  487MOL0     C65647   5.824  -0.623   3.328  0.2710 -0.0901  0.8760
  487MOL0     C65648   5.911  -0.667   3.214 -0.0196 -0.3472 -0.0522
  487MOL0     C65649   6.050  -0.707   3.260 -0.6429  0.3659 -0.5123
  487MOL0     C65650   6.124  -0.588   3.324 -0.2631  0.4909 -0.7027
  487MOL0     C65651   6.265  -0.621   3.359  0.3963  0.3366  1.1914
  487MOL0     C65652   6.334  -0.519   3.470  0.0648 -0.4086 -0.0335
  487MOL0     C65653   6.482  -0.540   3.478  0.8743  0.3847  0.5146
  487MOL0     C65654   6.564  -0.473   3.585  0.6615  0.3934  0.4408
  487MOL0    Cl65655   6.515  -0.530   3.747 -0.4139 -0.3973  0.0715
  487MOL0     C65656   5.605  -0.626   3.517  0.0720  0.2277 -0.3000
  487MOL0     C65657   5.513  -0.672   3.622  0.9581  0.2657  0.6725
  487MOL0     O65658   5.180  -0.614   3.616 -0.3148  0.0964  0.1511
  487MOL0     C65659   5.187  -0.769   3.943 -0.1268  0.2267 -0.3443
  487MOL0     C65660   5.122  -0.762   4.073  0.0756 -0.1600 -0.4500
  487MOL0     N65661   4.832  -0.656   4.769  0.4817 -0.5611 -0.7452
  487MOL0     N65662   4.859  -0.556   4.840  0.2967 -0.1356  0.2047
  487MOL0     C65663   5.434   0.431   4.251 -0.6110 -0.8474  0.2737
  487MOL0     C65664   5.454   0.561   4.207  0.5682 -0.3497 -0.6449
  487MOL0     C65665   5.360   0.917   3.991  1.1283 -1.1944 -0.5408
  487MOL0     C65666   5.310   0.946   3.856 -0.2999 -0.1118  0.2355
  487MOL0     C65667   5.354   1.059   3.781 -0.9929  0.1096 -0.9720
  487MOL0     C65668   5.436   1.152   3.847 -0.2488  0.7448 -0.9921
  487MOL0     O65669   5.474   1.264   3.776  0.1577 -0.2504 -0.3278
  487MOL0     C65670   5.617   1.278   3.762 -0.5321  0.0697 -0.9048
  487MOL0     C65671   5.650   1.421   3.718  0.1304 -0.6301 -0.9632
  487MOL0     C65672   5.676   1.434   3.567  0.9092 -0.3545  0.1480
  487MOL0     C65673   5.819   1.401   3.514 -0.5738  0.3397  0.5946
  487MOL0     C65674   5.919   1.506   3.549  0.1013 -0.4310  0.0743
  487MOL0     C65675   6.004   1.581   3.593 -0.5091 -0.2875  0.2583
  487MOL0     C65676   5.479   1.134   3.984  0.6140 -1.2212 -1.5115
  487MOL0     C65677   5.445   1.008   4.044 -0.6886  0.2008  0.7581
  487MOL0     H65678   5.221   0.720   4.369  1.5233 -0.0233  5.1874
  487MOL0     H65679   5.190   0.493   4.485 -0.1372 -1.1172  0.0542
  487MOL0     H65680   5.213   0.178   4.293  0.5123  1.8542  1.4121
  487MOL0     H65681   5.393   0.151   4.267  1.8451 -0.6949  0.9412
  487MOL0     H65682   5.347  -0.043   4.377  2.4443  1.5474 -0.7142
  487MOL0     H65683   5.349   0.067   4.520  0.5694 -0.8919 -0.1100
  487MOL0     H65684   5.093   0.092   4.484  2.4619  2.7795 -0.7900
  487MOL0     H65685   5.109  -0.048   4.379 -0.5051  0.6491  0.3558
  487MOL0     H65686   5.182  -0.195   4.527  0.4014  0.4194  0.3498
  487MOL0     H65687   5.188  -0.072   4.662 -2.2279 -0.9486  1.2259
  487MOL0     H65688   4.941  -0.043   4.628 -0.1017 -0.3390  1.0988
  487MOL0     H65689   4.946  -0.183   4.517 -2.7504  1.0221  0.5658
  487MOL0     H65690   5.005  -0.335   4.692  0.1317  0.3055 -1.0365
  487MOL0     H65691   5.035  -0.209   4.815  0.3551  1.2581  0.6794
  487MOL0     H65692   4.828  -0.123   4.826  0.2289 -1.3966  1.7286
  487MOL0     H65693   4.766  -0.213   4.682 -0.3310  2.0690 -1.1220
  487MOL0     H65694   4.702  -0.293   4.918  0.7119  1.2885  1.0096
  487MOL0     H65695   4.881  -0.329   4.942  0.3142 -3.1375  0.1537
  487MOL0     H65696   4.611  -0.440   4.655  2.0938  0.9319  0.1178
  487MOL0     H65697   4.705  -0.812   4.618  0.4855 -0.5366  0.9898
  487MOL0     H65698   4.585  -0.711   4.549 -1.3351 -0.1972  1.5102
  487MOL0     H65699   4.887  -0.697   4.479 -0.4843 -0.5241 -2.9397
  487MOL0     H65700   4.770  -0.576   4.427 -0.7698 -0.2598 -0.6393
  487MOL0     H65701   4.627  -0.774   4.333 -0.1592  1.0599 -1.6926
  487MOL0     H65702   4.774  -0.878   4.345 -2.4749 -0.5360 -1.1450
  487MOL0     H65703   4.734  -0.606   4.214 -1.6701 -0.7620  1.7866
  487MOL0     H65704   4.737  -0.758   4.126 -1.3129  1.8117 -1.1741
  487MOL0     H65705   4.835  -0.610   3.982  1.2792  1.1293  0.6058
  487MOL0     H65706   4.804  -0.636   3.745 -0.2204 -1.9301 -0.8265
  487MOL0     H65707   4.930  -0.517   3.694  1.8403 -0.0930 -0.9824
  487MOL0     H65708   4.934  -0.684   3.636  1.7830 -0.2024  2.0528
  487MOL0     H65709   5.314  -0.853   3.422 -1.9451 -0.6888  1.6925
  487MOL0     H65710   5.482  -0.793   3.255  2.7121  1.2896 -0.3182
  487MOL0     H65711   5.838  -0.515   3.337  2.9701 -0.3509  0.6301
  487MOL0     H65712   5.850  -0.672   3.422 -0.1436 -2.8951 -0.3625
  487MOL0     H65713   5.871  -0.748   3.153 -2.4801  2.2963 -2.2073
  487MOL0     H65714   5.921  -0.584   3.144  0.9801 -2.6103 -2.7679
  487MOL0     H65715   6.102  -0.728   3.166 -0.2801  1.7878 -0.6570
  487MOL0     H65716   6.046  -0.799   3.319 -1.8646 -1.9822 -3.9235
  487MOL0     H65717   6.125  -0.500   3.259 -0.9357 -0.3505 -1.9018
  487MOL0     H65718   6.078  -0.564   3.420  2.3762 -2.0939  1.4204
  487MOL0     H65719   6.302  -0.617   3.256 -1.7345 -3.2939  0.0873
  487MOL0     H65720   6.283  -0.724   3.391  1.6204  0.3461  0.6073
  487MOL0     H65721   6.305  -0.416   3.446 -1.3829 -1.3508 -2.8521
  487MOL0     H65722   6.277  -0.538   3.561 -1.8824 -0.3921 -1.1733
  487MOL0     H65723   6.524  -0.512   3.381  0.5663  0.2976  0.3532
  487MOL0     H65724   6.487  -0.648   3.495 -2.4112  0.5451  3.6346
  487MOL0     H65725   6.541  -0.368   3.565 -2.6472 -0.4410 -0.9702
  487MOL0     H65726   6.670  -0.501   3.582 -0.2471 -3.9922  1.6847
  487MOL0     H65727   5.691  -0.564   3.538  0.7616 -1.6216  2.9225
  487MOL0     H65728   5.515  -0.634   3.723  0.3478  0.1408  0.7370
  487MOL0     H65729   5.291  -0.794   3.928 -0.3568  0.1621 -1.9133
  487MOL0     H65730   5.171  -0.784   4.168 -0.9010 -2.5152 -0.4219
  487MOL0     H65731   5.511   0.358   4.226  0.9223  0.9057 -0.3169
  487MOL0     H65732   5.532   0.580   4.133 -0.2511 -0.5184 -1.5748
  487MOL0     H65733   5.246   0.869   3.815  2.6671 -3.0075  0.6525
  487MOL0     H65734   5.318   1.075   3.679 -4.2375 -1.1319 -0.1341
  487MOL0     H65735   5.669   1.249   3.854  1.3881 -0.5912 -2.1510
  487MOL0     H65736   5.663   1.209   3.691  2.6875  1.6169 -0.5283
  487MOL0     H65737   5.739   1.465   3.763 -1.1731 -1.0027  2.2284
  487MOL0     H65738   5.573   1.490   3.754  4.6187  4.3976  0.3520
  487MOL0     H65739   5.660   1.539   3.539 -2.8254 -1.3054 -1.9730
  487MOL0     H65740   5.600   1.365   3.529 -0.6512  1.3245  0.0943
  487MOL0     H65741   5.824   1.405   3.405  0.9418  3.0865  0.6865
  487MOL0     H65742   5.869   1.306   3.538 -0.7016  0.5115  1.5921
  487MOL0     H65743   6.065   1.652   3.646 -0.1107 -1.9556  2.1572
  487MOL0     H65744   5.549   1.206   4.025  2.4468 -3.2358 -0.9401
  487MOL0     H65745   5.481   0.994   4.145  0.6520  0.6825  0.3721
  488MOL0     O65746   6.781   7.331   4.455  0.1775  0.0461 -0.3656
  488MOL0     C65747   6.872   7.254   4.420  0.4830  0.9643  0.2969
  488MOL0     O65748   6.958   7.187   4.499  0.5171 -0.2458  0.4089
  488MOL0     C65749   6.937   7.205   4.638  0.8616 -0.2997 -1.2658
  488MOL0     C65750   7.033   7.259   4.719  0.2650  0.6916  0.8725
  488MOL0     C65751   7.026   7.237   4.852 -1.0383  0.3013 -0.1509
  488MOL0     C65752   6.929   7.162   4.916 -0.0556  1.1992 -0.1043
  488MOL0     O65753   6.920   7.136   5.050  0.0100  0.4043  0.1054
  488MOL0     C65754   7.025   7.186   5.131  0.2432 -0.0828 -0.0040
  488MOL0     C65755   6.983   7.144   5.266  0.2948 -0.0210  0.4336
  488MOL0     C65756   7.014   6.999   5.282 -0.2353  1.5008  0.4946
  488MOL0     C65757   6.884   6.919   5.311 -0.9126  0.2306 -0.7802
  488MOL0     C65758   6.911   6.768   5.312  0.0003 -0.4059 -0.2419
  488MOL0     C65759   6.780   6.705   5.354  0.8078 -0.3447 -1.4084
  488MOL0     C65760   6.661   6.707   5.257 -0.2040 -0.3936  0.1315
  488MOL0     C65761   6.561   6.594   5.276 -0.0963  0.6264 -0.5803
  488MOL0     N65762   6.446   6.604   5.195 -0.0626  0.2667 -0.0828
  488MOL0     C65763   6.359   6.706   5.200 -0.2532 -0.1469  0.6684
  488MOL0     C65764   6.262   6.682   5.124 -0.5701  0.8233 -0.0344
  488MOL0     C65765   6.143   6.769   5.120  0.1900 -1.0316  0.3739
  488MOL0     C65766   6.039   6.709   5.218 -0.2809 -0.8830  0.2235
  488MOL0     C65767   5.903   6.763   5.204  0.6751 -0.7631 -0.9595
  488MOL0     C65768   5.900   6.912   5.240  0.7130  0.6056 -0.5447
  488MOL0     O65769   5.954   6.990   5.132  0.9245 -0.3024 -0.8753
  488MOL0     C65770   5.884   7.047   5.034  0.1466 -0.2730 -0.3407
  488MOL0     C65771   5.951   7.152   4.961 -0.4147  0.1678 -0.2657
  488MOL0     C65772   5.897   7.217   4.850 -0.5445 -0.2207  0.8788
  488MOL0     C65773   5.977   7.313   4.769 -0.3169 -0.5215 -0.3953
  488MOL0     C65774   5.764   7.184   4.822 -0.2708  0.3367 -0.1045
  488MOL0     C65775   5.695   7.253   4.703 -0.1733 -0.1760 -0.2559
  488MOL0     O65776   5.742   7.213   4.580 -0.4727 -1.4995 -0.0777
  488MOL0     C65777   5.725   7.288   4.463 -0.5618  1.1306 -0.5896
  488MOL0     C65778   5.732   7.432   4.457  0.0208 -0.5165 -0.0269
  488MOL0     C65779   5.714   7.501   4.339 -0.7629  0.0972 -0.4426
  488MOL0     C65780   5.684   7.429   4.220  0.1424 -0.0822  0.2792
  488MOL0     O65781   5.650   7.498   4.105 -0.1321 -0.1481 -0.3112
  488MOL0     C65782   5.763   7.558   4.038  0.9047 -0.0865  0.1314
  488MOL0     C65783   5.706   7.613   3.900  0.0245  0.5900 -0.8781
  488MOL0     C65784   5.800   7.720   3.853  0.0547 -0.0392 -0.4625
  488MOL0     C65785   5.752   7.791   3.723  0.2272 -0.3559  0.5336
  488MOL0     C65786   5.803   7.932   3.706  0.1450  0.1277 -0.2578
  488MOL0     C65787   5.748   8.009   3.583 -0.8098  0.3141  0.5039
  488MOL0     C65788   5.811   8.148   3.564 -0.5982  0.2826  0.7603
  488MOL0     C65789   5.749   8.215   3.449  0.1434 -1.4223  0.0030
  488MOL0    Cl65790   5.814   8.137   3.301  0.3159  0.1934  0.1074
  488MOL0     C65791   5.679   7.297   4.218  0.4545  0.4911  0.9443
  488MOL0     C65792   5.701   7.226   4.342  0.2956 -0.6601  1.2508
  488MOL0     O65793   5.600   7.331   4.721 -0.4546 -0.6056  0.2895
  488MOL0     C65794   5.692   7.080   4.890 -0.8151 -0.5110  0.2185
  488MOL0     C65795   5.751   7.017   4.999 -0.0083  0.5015 -0.3655
  488MOL0     N65796   6.287   6.567   5.049 -0.5418  0.0802  0.4517
  488MOL0     N65797   6.405   6.524   5.093 -0.0979  0.4824 -0.3369
  488MOL0     C65798   6.824   7.108   4.836 -0.3594 -0.3886 -0.0384
  488MOL0     C65799   6.826   7.143   4.697 -0.2483  0.6323  0.0748
  488MOL0     C65800   6.896   7.262   4.278  0.8457  1.0812  0.1096
  488MOL0     C65801   6.822   7.339   4.194  0.6963 -0.0313  0.6692
  488MOL0     C65802   6.855   7.352   4.052  0.1944  0.1274 -0.4171
  488MOL0     C65803   6.969   7.286   3.997 -0.5268  0.4281  0.0542
  488MOL0     O65804   7.017   7.275   3.867 -0.0656  0.3469  0.4935
  488MOL0     C65805   6.951   7.369   3.786 -0.2104 -0.0237  0.1397
  488MOL0     C65806   7.010   7.363   3.648  0.5604 -0.2097 -0.0416
  488MOL0     C65807   7.154   7.401   3.654 -1.0196 -0.9236 -0.1197
  488MOL0     C65808   7.255   7.324   3.565  0.3020  0.8129  0.3922
  488MOL0     C65809   7.390   7.363   3.571 -0.2006  0.6507 -0.7674
  488MOL0     C65810   7.508   7.376   3.552 -0.7188  0.0866  0.8159
  488MOL0     C65811   7.040   7.206   4.087  0.0241  1.1436 -0.0624
  488MOL0     C65812   7.008   7.191   4.225 -0.8680  0.4687 -0.3663
  488MOL0     H65813   7.116   7.317   4.681  1.9067 -1.2579  1.2556
  488MOL0     H65814   7.116   7.262   4.906  0.1604  0.8002 -2.2976
  488MOL0     H65815   7.123   7.147   5.103  1.2411  0.6389  2.2637
  488MOL0     H65816   7.030   7.295   5.139  1.8092 -0.2252  1.6016
  488MOL0     H65817   7.042   7.209   5.332  2.9766  0.3836 -2.1302
  488MOL0     H65818   6.881   7.175   5.288  1.5262  4.7271  0.6627
  488MOL0     H65819   7.060   6.942   5.201 -2.1760  0.6435 -0.0923
  488MOL0     H65820   7.070   6.978   5.374 -2.2439  2.9785  2.1643
  488MOL0     H65821   6.833   6.946   5.404 -0.1975  2.2227 -0.9158
  488MOL0     H65822   6.805   6.951   5.244  0.0695  2.2763 -1.0438
  488MOL0     H65823   6.935   6.724   5.215 -1.4456 -1.2357 -0.2566
  488MOL0     H65824   6.978   6.744   5.396 -1.2213 -0.8256  0.6504
  488MOL0     H65825   6.816   6.602   5.357 -0.9949 -1.0184  2.0704
  488MOL0     H65826   6.746   6.744   5.450  0.0103 -3.3070 -0.3920
  488MOL0     H65827   6.614   6.806   5.258  0.0075 -0.2703 -0.9227
  488MOL0     H65828   6.703   6.681   5.159 -2.6821 -3.7465 -0.2501
  488MOL0     H65829   6.527   6.596   5.380  1.1832 -1.6187 -0.0668
  488MOL0     H65830   6.612   6.500   5.258  1.0402  0.6549  2.0476
  488MOL0     H65831   6.363   6.790   5.269  0.0331  2.5243 -2.3714
  488MOL0     H65832   6.188   6.865   5.148 -0.7624  0.3992 -2.5486
  488MOL0     H65833   6.090   6.773   5.024  0.7838  0.9131  0.0796
  488MOL0     H65834   6.074   6.726   5.320 -2.3059 -1.3686  1.0464
  488MOL0     H65835   6.045   6.600   5.207 -2.9568 -0.8525 -2.9543
  488MOL0     H65836   5.835   6.720   5.278  3.3520 -1.0359  1.5156
  488MOL0     H65837   5.862   6.735   5.106  0.9978 -3.2670 -0.4503
  488MOL0     H65838   5.932   6.945   5.340  0.8635 -3.2684  0.8885
  488MOL0     H65839   5.793   6.929   5.256  0.4031 -2.0490  0.7486
  488MOL0     H65840   6.054   7.172   4.989 -2.2076  4.7642  5.0370
  488MOL0     H65841   5.920   7.382   4.707  0.2331 -0.0931 -0.4368
  488MOL0     H65842   6.039   7.377   4.832  1.4180 -2.9872  0.5751
  488MOL0     H65843   6.043   7.259   4.700  0.3546 -1.1794  0.7233
  488MOL0     H65844   5.747   7.485   4.551 -1.2971  0.4420 -0.3208
  488MOL0     H65845   5.713   7.609   4.343  1.6360  0.1498  0.1094
  488MOL0     H65846   5.806   7.637   4.099 -0.1752  1.7828 -1.3981
  488MOL0     H65847   5.852   7.499   4.016  1.5027  0.8585 -0.0620
  488MOL0     H65848   5.699   7.539   3.819 -1.4341 -2.6073  1.9467
  488MOL0     H65849   5.607   7.654   3.920 -1.2920 -1.3721 -2.8285
  488MOL0     H65850   5.897   7.672   3.835 -0.1435 -1.5098  2.0415
  488MOL0     H65851   5.809   7.786   3.939  0.3686 -0.8902  0.1685
  488MOL0     H65852   5.781   7.736   3.633  0.9295 -0.2131  0.6699
  488MOL0     H65853   5.644   7.784   3.740 -0.3650  1.9632 -1.6725
  488MOL0     H65854   5.912   7.934   3.711  0.1489  2.7628 -0.0001
  488MOL0     H65855   5.776   8.001   3.786 -1.4994 -0.5959 -0.1436
  488MOL0     H65856   5.757   7.949   3.492 -0.6324  1.9930 -0.6374
  488MOL0     H65857   5.640   8.021   3.596 -1.0154  0.5290 -1.1177
  488MOL0     H65858   5.921   8.147   3.563 -0.5246 -3.0348  0.1256
  488MOL0     H65859   5.783   8.216   3.645 -1.4274  0.5326  0.2726
  488MOL0     H65860   5.784   8.318   3.460  1.9662 -2.1010  1.1495
  488MOL0     H65861   5.643   8.192   3.458  0.0703 -0.7619  1.1091
  488MOL0     H65862   5.640   7.252   4.127 -0.0377 -1.7646  2.1915
  488MOL0     H65863   5.703   7.117   4.335 -0.4834 -0.8043  2.9022
  488MOL0     H65864   5.593   7.043   4.864  0.0852 -1.5258 -2.0497
  488MOL0     H65865   5.694   6.940   5.050  0.5655  0.7529  0.6888
  488MOL0     H65866   6.738   7.055   4.877  0.1776 -1.5042 -0.3204
  488MOL0     H65867   6.748   7.095   4.639  1.2660 -1.6469 -0.2396
  488MOL0     H65868   6.741   7.404   4.225  0.4817 -0.2017  0.4662
  488MOL0     H65869   6.806   7.424   3.987 -1.8628 -0.5816  0.2650
  488MOL0     H65870   6.843   7.362   3.774 -0.5249  0.5421  2.2473
  488MOL0     H65871   6.969   7.470   3.824  0.4899 -0.1728  0.2231
  488MOL0     H65872   6.945   7.433   3.595 -7.0764 -2.6685  4.5342
  488MOL0     H65873   6.999   7.270   3.591 -1.1449 -0.8566  1.2619
  488MOL0     H65874   7.186   7.386   3.758  0.3774 -0.8095 -0.5181
  488MOL0     H65875   7.169   7.508   3.638  0.6670 -0.8159  1.7598
  488MOL0     H65876   7.237   7.341   3.458 -0.3896 -0.2129  0.3255
  488MOL0     H65877   7.254   7.220   3.598  3.8322  0.2427 -0.9392
  488MOL0     H65878   7.609   7.407   3.534 -0.6335 -0.7148 -0.1342
  488MOL0     H65879   7.129   7.156   4.053  0.4355  0.6964  1.5966
  488MOL0     H65880   7.086   7.146   4.284  0.6288 -2.6072 -4.2525
  489MOL0     O65881   0.270   7.639   2.921 -0.0921  0.3927 -0.0199
  489MOL0     C65882   0.339   7.738   2.917  0.2586 -0.9695  0.1165
  489MOL0     O65883   0.364   7.816   2.811 -0.8001  0.0529 -0.0015
  489MOL0     C65884   0.347   7.762   2.685  0.6571 -0.2555 -0.0679
  489MOL0     C65885   0.459   7.712   2.625 -0.0336  0.9576 -0.6101
  489MOL0     C65886   0.451   7.666   2.498  0.2074  1.0335  0.3425
  489MOL0     C65887   0.332   7.684   2.424  0.0285 -0.1915  0.4577
  489MOL0     O65888   0.317   7.678   2.290  0.6767 -0.2500  0.7099
  489MOL0     C65889   0.431   7.710   2.209 -0.6778 -0.6298  0.2081
  489MOL0     C65890   0.378   7.726   2.068 -0.5270 -0.1713 -0.2807
  489MOL0     C65891   0.270   7.833   2.046  0.9357 -0.3509 -0.5168
  489MOL0     C65892   0.225   7.843   1.896 -0.0096  0.6989 -0.4530
  489MOL0     C65893   0.153   7.974   1.854 -0.3670 -0.3966  0.6414
  489MOL0     C65894   0.213   8.104   1.882 -0.8549 -0.6476  0.7970
  489MOL0     C65895   0.173   8.219   1.782 -0.6204 -0.0894 -0.0721
  489MOL0     C65896   0.238   8.355   1.796 -0.0219 -1.0062 -0.7826
  489MOL0     N65897   0.235   8.388   1.937 -1.1395 -0.3570  0.0787
  489MOL0     C65898   0.125   8.433   2.008  0.7443  0.3005 -0.2030
  489MOL0     C65899   0.161   8.439   2.145 -0.3358 -0.2958  0.6924
  489MOL0     C65900   0.075   8.466   2.266  1.1541 -0.1224  0.5236
  489MOL0     C65901   0.000   8.601   2.250 -0.2129 -0.6254  0.3428
  489MOL0     C65902  -0.092   8.630   2.368 -0.7568  0.0727  0.7225
  489MOL0     C65903  -0.019   8.664   2.493  0.0299  0.2928  0.3235
  489MOL0     O65904   0.041   8.794   2.476 -0.4477  0.1599  0.2654
  489MOL0     C65905   0.068   8.867   2.591 -0.7289 -0.0260 -0.1253
  489MOL0     C65906   0.066   9.010   2.578 -0.3884  0.0761 -0.5158
  489MOL0     C65907   0.106   9.095   2.681  0.0949  0.3207 -0.5013
  489MOL0     C65908   0.109   9.237   2.650 -0.6922 -0.0502 -0.0620
  489MOL0     C65909   0.142   9.036   2.801 -0.2907 -0.6000 -0.6920
  489MOL0     C65910   0.172   9.107   2.926  1.6018 -0.4069 -0.5227
  489MOL0     O65911   0.066   9.153   3.006  0.4601 -0.1014 -0.5124
  489MOL0     C65912   0.086   9.164   3.141  0.0753  0.0915 -2.0413
  489MOL0     C65913   0.118   9.055   3.227  0.3236  0.3408 -0.4345
  489MOL0     C65914   0.110   9.066   3.372  0.7618  0.0851  0.1197
  489MOL0     C65915   0.073   9.190   3.426 -0.2726 -0.7053  0.9146
  489MOL0     O65916   0.038   9.210   3.559  0.0443  0.3258  0.2833
  489MOL0     C65917   0.091   9.113   3.652 -0.2198 -0.1482 -0.4428
  489MOL0     C65918   0.081   9.179   3.785 -0.7219 -0.5681 -0.6234
  489MOL0     C65919   0.042   9.091   3.903  0.0826  0.3490 -0.3859
  489MOL0     C65920  -0.012   9.173   4.019  0.5189  0.5511 -0.6127
  489MOL0     C65921  -0.016   9.102   4.158 -0.3838  0.5992  0.0575
  489MOL0     C65922  -0.022   9.216   4.256  1.2601  0.6380  0.1198
  489MOL0     C65923   0.121   9.264   4.300 -0.2458 -0.7773  0.0657
  489MOL0     C65924   0.103   9.388   4.397  0.1645  0.3961  0.7246
  489MOL0    Cl65925  -0.010   9.358   4.534  0.0665 -0.5003 -0.1187
  489MOL0     C65926   0.038   9.300   3.339 -0.2012  0.3981 -0.7644
  489MOL0     C65927   0.048   9.290   3.201 -0.1971  0.7448  0.4585
  489MOL0     O65928   0.290   9.138   2.949 -0.0754 -0.3362 -0.0229
  489MOL0     C65929   0.144   8.900   2.828 -0.6820  0.3801  1.0995
  489MOL0     C65930   0.111   8.818   2.721  0.6776 -1.1104  0.0271
  489MOL0     N65931   0.297   8.406   2.146  0.0798 -0.2990  1.5554
  489MOL0     N65932   0.345   8.379   2.024  0.2134 -0.3169 -0.5813
  489MOL0     C65933   0.215   7.721   2.483 -0.0820  0.4080 -0.2618
  489MOL0     C65934   0.218   7.759   2.618  0.3951 -0.1101  0.3545
  489MOL0     C65935   0.393   7.786   3.056  0.7176  0.1499  1.1986
  489MOL0     C65936   0.491   7.884   3.051 -0.2520  0.9585  0.7729
  489MOL0     C65937   0.532   7.943   3.171 -0.8164  0.3150  0.7230
  489MOL0     C65938   0.477   7.904   3.292  0.0915 -0.5954  0.5273
  489MOL0     O65939   0.521   7.968   3.403  0.1556  0.1853  0.2810
  489MOL0     C65940   0.460   7.926   3.529 -0.2536  0.2738  0.3513
  489MOL0     C65941   0.498   7.786   3.579  0.2565 -0.2229  0.2059
  489MOL0     C65942   0.660   7.762   3.582  0.1951  0.1698 -0.3274
  489MOL0     C65943   0.736   7.794   3.714  0.6637  1.2603  0.8546
  489MOL0     C65944   0.846   7.704   3.738 -0.4265 -0.0830  0.3412
  489MOL0     C65945   0.929   7.616   3.761  0.3083 -0.0077 -0.2327
  489MOL0     C65946   0.368   7.823   3.289 -0.4267  0.4474  0.1980
  489MOL0     C65947   0.333   7.749   3.175  0.3920 -0.8543 -0.0937
  489MOL0     H65948   0.555   7.713   2.676 -0.7943 -3.4328  1.3411
  489MOL0     H65949   0.545   7.651   2.445 -1.1126 -0.0512 -1.8569
  489MOL0     H65950   0.480   7.805   2.233  1.1798 -1.3848 -0.3777
  489MOL0     H65951   0.498   7.625   2.224 -2.9873 -2.3742  1.3431
  489MOL0     H65952   0.473   7.750   2.019 -1.1677 -0.6587 -1.8014
  489MOL0     H65953   0.345   7.626   2.040  1.5024 -0.8042 -0.6072
  489MOL0     H65954   0.186   7.797   2.106 -0.1937 -0.2146 -1.9800
  489MOL0     H65955   0.286   7.933   2.086 -0.1511  1.1442 -3.5202
  489MOL0     H65956   0.315   7.831   1.836  1.2991  3.1156  0.8845
  489MOL0     H65957   0.156   7.759   1.884  1.4125 -1.0857  2.6707
  489MOL0     H65958   0.147   7.963   1.745  1.2887  1.3316  0.3105
  489MOL0     H65959   0.055   7.973   1.901 -0.6845 -0.1855 -0.0083
  489MOL0     H65960   0.181   8.136   1.982 -0.2950  1.4038  0.3682
  489MOL0     H65961   0.323   8.103   1.884 -0.8231  1.0325  1.7348
  489MOL0     H65962   0.197   8.185   1.681 -0.4628  0.0726 -0.0892
  489MOL0     H65963   0.065   8.234   1.788 -0.5662  0.4057 -0.2658
  489MOL0     H65964   0.182   8.431   1.741  1.4280  1.3961  0.8592
  489MOL0     H65965   0.343   8.362   1.767  0.1966  2.2345  0.3799
  489MOL0     H65966   0.024   8.439   1.969  0.0630  0.2760  1.4369
  489MOL0     H65967  -0.000   8.391   2.293  1.8689 -0.0490  2.9215
  489MOL0     H65968   0.135   8.477   2.357 -0.2354  0.8849  1.3566
  489MOL0     H65969  -0.054   8.610   2.156 -0.3950  1.0686  0.5747
  489MOL0     H65970   0.079   8.675   2.237  0.7134 -1.6689 -0.1689
  489MOL0     H65971  -0.165   8.549   2.373 -1.1421  0.2125 -1.4160
  489MOL0     H65972  -0.148   8.719   2.340  1.3330  0.6308 -2.1433
  489MOL0     H65973   0.057   8.591   2.520  2.0469  1.6357 -1.4187
  489MOL0     H65974  -0.092   8.673   2.574 -0.4869 -0.8784  0.0178
  489MOL0     H65975   0.062   9.055   2.479 -0.5285  0.8759 -0.1467
  489MOL0     H65976   0.007   9.275   2.638 -1.2918 -1.7055 -0.4737
  489MOL0     H65977   0.154   9.296   2.730 -1.6566  3.0909 -1.6593
  489MOL0     H65978   0.147   9.265   2.552 -0.2782  1.3829  0.4735
  489MOL0     H65979   0.142   8.959   3.182 -3.7709 -1.0522 -0.0501
  489MOL0     H65980   0.136   8.983   3.437 -3.4224 -2.8652 -1.5130
  489MOL0     H65981   0.022   9.029   3.644  0.8886 -1.4044  2.0207
  489MOL0     H65982   0.192   9.086   3.619 -0.0839  0.7440 -0.7962
  489MOL0     H65983   0.166   9.239   3.818  0.1672 -0.9369 -2.1723
  489MOL0     H65984  -0.005   9.247   3.772 -0.4764 -0.5755 -2.6884
  489MOL0     H65985   0.119   9.023   3.941 -0.6883 -0.3869 -0.1201
  489MOL0     H65986  -0.037   9.019   3.881  0.5153 -0.1805 -0.2208
  489MOL0     H65987   0.034   9.272   4.019  0.5128  0.5904 -2.4479
  489MOL0     H65988  -0.117   9.188   3.990 -0.1672 -1.7440  0.4911
  489MOL0     H65989   0.076   9.045   4.177 -0.3049  1.1830  1.4610
  489MOL0     H65990  -0.104   9.038   4.162  1.0482 -1.5260 -0.6477
  489MOL0     H65991  -0.087   9.297   4.222 -1.4372 -2.5473 -3.2626
  489MOL0     H65992  -0.079   9.175   4.340 -0.3396  1.4164 -0.5366
  489MOL0     H65993   0.175   9.292   4.209 -2.4602 -2.7360 -1.9934
  489MOL0     H65994   0.172   9.187   4.359 -0.3229 -0.5782  0.3944
  489MOL0     H65995   0.078   9.471   4.331  0.6463 -1.9454 -2.6938
  489MOL0     H65996   0.201   9.411   4.441  1.2603  1.0832 -1.8774
  489MOL0     H65997   0.003   9.391   3.386  1.8659  0.0354  1.6601
  489MOL0     H65998   0.017   9.380   3.148  0.7367  0.3458 -0.8100
  489MOL0     H65999   0.169   8.853   2.922  1.3889 -1.4519 -0.2429
  489MOL0     H66000   0.117   8.711   2.734 -1.7049 -1.1615  1.3328
  489MOL0     H66001   0.126   7.712   2.422  0.9340 -0.2998 -1.6914
  489MOL0     H66002   0.132   7.796   2.674  3.2380  2.1578  3.6282
  489MOL0     H66003   0.536   7.890   2.953  1.8655 -1.7158  1.4362
  489MOL0     H66004   0.615   8.012   3.174 -0.2853  0.1943 -3.9396
  489MOL0     H66005   0.498   7.987   3.611 -2.4098 -0.4515  1.9845
  489MOL0     H66006   0.351   7.938   3.534 -0.3353  1.5811 -2.5142
  489MOL0     H66007   0.451   7.707   3.520  2.6227 -0.4196 -1.5678
  489MOL0     H66008   0.451   7.784   3.677 -0.7416 -1.3201 -0.2641
  489MOL0     H66009   0.714   7.829   3.515  2.3555  0.4953  1.5901
  489MOL0     H66010   0.668   7.659   3.545 -0.9306  0.5056 -1.5823
  489MOL0     H66011   0.680   7.763   3.803  1.6019  1.2042  1.4435
  489MOL0     H66012   0.773   7.898   3.712 -1.4904  2.1109  1.9460
  489MOL0     H66013   1.007   7.543   3.771  0.1673  0.1283  3.8182
  489MOL0     H66014   0.301   7.823   3.374  2.4076 -0.5409  2.6434
  489MOL0     H66015   0.246   7.684   3.180 -1.4386  1.5301  3.8568
  490MOL0     O66016   7.724   2.735   8.528  0.1712 -0.0128  0.0286
  490MOL0     C66017   7.753   2.635   8.603 -0.1624  0.2406 -0.2064
  490MOL0     O66018   7.850   2.638   8.698 -0.6931 -0.6662  0.0675
  490MOL0     C66019   7.942   2.741   8.694 -0.0856 -1.1976  0.5986
  490MOL0     C66020   7.948   2.828   8.802  0.3063 -1.1162  0.3697
  490MOL0     C66021   8.032   2.946   8.800  0.0321  0.4262 -0.7884
  490MOL0     C66022   8.123   2.959   8.698 -0.6569  0.1753 -0.6133
  490MOL0     O66023   8.209   3.069   8.716 -0.3850  0.4002 -1.0511
  490MOL0     C66024   8.278   3.120   8.604 -0.5264 -0.0398  0.4481
  490MOL0     C66025   8.394   3.215   8.657  0.1551  0.1780 -1.1616
  490MOL0     C66026   8.429   3.339   8.567 -1.4363 -0.0038 -0.0274
  490MOL0     C66027   8.532   3.423   8.637  0.3423  0.1876  0.7079
  490MOL0     C66028   8.576   3.540   8.549  0.4220  0.1645  0.7838
  490MOL0     C66029   8.684   3.624   8.606 -0.3432  1.0275 -0.7474
  490MOL0     C66030   8.730   3.732   8.505  0.8080 -0.6861 -0.1421
  490MOL0     C66031   8.837   3.825   8.564 -0.2160 -0.5782 -0.9396
  490MOL0     N66032   8.890   3.917   8.456  0.5295  0.3048 -0.5333
  490MOL0     C66033   8.968   3.873   8.355 -0.2108 -0.6260  0.1884
  490MOL0     C66034   8.959   3.971   8.264  0.1670 -0.2037 -0.9931
  490MOL0     C66035   9.017   3.987   8.131  0.1819  0.8609 -0.1315
  490MOL0     C66036   8.958   3.876   8.032  1.0644 -0.5215 -1.3280
  490MOL0     C66037   8.807   3.886   7.991 -0.0649 -0.7910  0.5590
  490MOL0     C66038   8.691   3.843   8.089 -0.1584  0.8052 -0.2186
  490MOL0     O66039   8.575   3.803   8.022 -0.0672 -0.0238 -0.0535
  490MOL0     C66040   8.465   3.743   8.079 -1.0885  0.2143  0.1276
  490MOL0     C66041   8.372   3.708   7.982 -0.0297  0.0373 -0.3427
  490MOL0     C66042   8.253   3.640   8.018 -0.4919 -0.4498 -0.3059
  490MOL0     C66043   8.165   3.608   7.906 -0.4854  0.5339 -0.8691
  490MOL0     C66044   8.226   3.590   8.151 -1.1360 -0.7416 -0.1049
  490MOL0     C66045   8.108   3.510   8.190  0.3967 -0.0036 -0.3043
  490MOL0     O66046   8.153   3.416   8.271  0.2687  0.8506 -0.5002
  490MOL0     C66047   8.066   3.373   8.362  0.5595  0.7481  0.0637
  490MOL0     C66048   8.038   3.237   8.366  0.5258 -0.1409  0.1834
  490MOL0     C66049   7.932   3.185   8.443 -0.0487  0.0439  0.3356
  490MOL0     C66050   7.875   3.270   8.549 -0.1170 -0.0943  0.7052
  490MOL0     O66051   7.769   3.239   8.631 -0.5232  0.5151  0.0173
  490MOL0     C66052   7.700   3.111   8.596  0.6437 -0.8860  0.2786
  490MOL0     C66053   7.581   3.113   8.687 -0.0366 -0.2411 -0.1619
  490MOL0     C66054   7.487   3.002   8.646 -0.2893  0.3008  0.5067
  490MOL0     C66055   7.365   2.978   8.738  0.2755  0.4323  0.2418
  490MOL0     C66056   7.290   2.845   8.731 -0.0637  0.4179 -0.5132
  490MOL0     C66057   7.350   2.717   8.794 -0.1858  0.3375 -0.4329
  490MOL0     C66058   7.297   2.688   8.935 -0.3203 -0.7533  0.2081
  490MOL0     C66059   7.351   2.555   8.981  0.2727 -0.3694  0.5978
  490MOL0    Cl66060   7.244   2.432   8.901  0.0279 -0.4184 -0.0523
  490MOL0     C66061   7.909   3.409   8.548 -1.3818 -0.1476 -0.0005
  490MOL0     C66062   7.999   3.466   8.454 -0.3814  0.9528 -0.3728
  490MOL0     O66063   7.986   3.537   8.160 -0.3555 -0.1303  0.5751
  490MOL0     C66064   8.317   3.632   8.248 -0.6112 -0.2571  0.2123
  490MOL0     C66065   8.434   3.697   8.208 -0.5795 -0.0950 -1.0708
  490MOL0     N66066   8.884   4.067   8.320  0.8932 -0.1692 -0.9332
  490MOL0     N66067   8.842   4.038   8.432 -0.0515  0.1589 -0.9481
  490MOL0     C66068   8.109   2.876   8.588  1.4060  0.0891  0.4536
  490MOL0     C66069   8.029   2.763   8.591 -0.5934 -0.7911 -0.2310
  490MOL0     C66070   7.671   2.516   8.599 -0.4567 -0.5147 -0.2887
  490MOL0     C66071   7.658   2.428   8.713 -0.0260 -1.6448 -0.3010
  490MOL0     C66072   7.567   2.327   8.716 -0.8543  0.0463 -1.0941
  490MOL0     C66073   7.475   2.318   8.618 -0.4105 -0.4766  0.5137
  490MOL0     O66074   7.396   2.210   8.627 -0.4411  0.5574 -0.4383
  490MOL0     C66075   7.256   2.229   8.605 -0.2406  0.7815  0.0961
  490MOL0     C66076   7.225   2.156   8.471 -0.3752 -0.4018 -0.2049
  490MOL0     C66077   7.291   2.017   8.460 -1.3140 -0.4300  0.2599
  490MOL0     C66078   7.208   1.955   8.346  0.5771 -0.1417 -0.8090
  490MOL0     C66079   7.254   1.825   8.302  0.1754 -0.8190  0.6104
  490MOL0     C66080   7.310   1.720   8.258 -0.4992  0.4569 -0.0859
  490MOL0     C66081   7.482   2.397   8.504  0.0921  0.0666  0.6074
  490MOL0     C66082   7.588   2.490   8.494  0.8374  0.5404  0.6484
  490MOL0     H66083   7.882   2.810   8.886  0.5469 -3.9085  0.0556
  490MOL0     H66084   8.031   3.018   8.881 -1.8523 -0.7103  0.2872
  490MOL0     H66085   8.309   3.045   8.532  0.5434 -0.2354  1.1001
  490MOL0     H66086   8.201   3.175   8.548  0.5721  0.3907 -0.7050
  490MOL0     H66087   8.364   3.247   8.757 -2.1592  2.4622 -2.4337
  490MOL0     H66088   8.487   3.158   8.655 -0.2253 -0.4511 -2.4149
  490MOL0     H66089   8.458   3.302   8.469 -1.1016 -2.5465  0.9418
  490MOL0     H66090   8.342   3.406   8.559 -0.1884  1.8819  1.2982
  490MOL0     H66091   8.482   3.464   8.725  0.7130 -0.9161  1.4632
  490MOL0     H66092   8.613   3.356   8.667 -0.7112 -0.7316  1.5993
  490MOL0     H66093   8.618   3.508   8.453  2.7947  1.5974  1.2588
  490MOL0     H66094   8.501   3.618   8.532  1.7181  1.2799 -0.0499
  490MOL0     H66095   8.647   3.667   8.700 -2.9011 -6.2157  2.2405
  490MOL0     H66096   8.773   3.570   8.638 -1.0587 -0.4705 -1.1926
  490MOL0     H66097   8.767   3.678   8.418 -1.6441  1.2816 -2.5667
  490MOL0     H66098   8.650   3.798   8.472  0.1333 -1.9789 -1.1672
  490MOL0     H66099   8.927   3.772   8.593  2.1109  2.2332 -2.4663
  490MOL0     H66100   8.801   3.879   8.652 -0.5982 -2.3674  0.0494
  490MOL0     H66101   9.030   3.783   8.351 -0.4812 -0.7741 -1.2465
  490MOL0     H66102   9.005   4.086   8.086  2.4179 -0.4042 -3.9668
  490MOL0     H66103   9.126   3.975   8.137  0.4203  1.9556 -1.6658
  490MOL0     H66104   8.984   3.775   8.064 -3.2853 -1.4801 -0.1603
  490MOL0     H66105   9.015   3.890   7.940  0.3798 -0.6203 -1.7708
  490MOL0     H66106   8.804   3.828   7.898  0.2944  0.3580 -0.1979
  490MOL0     H66107   8.793   3.990   7.961  0.6383 -1.0889 -0.8801
  490MOL0     H66108   8.667   3.925   8.158 -3.5836 -0.7078  0.5657
  490MOL0     H66109   8.725   3.757   8.148  0.5924  0.3482 -1.2941
  490MOL0     H66110   8.386   3.743   7.881 -2.8998  0.6845 -0.5984
  490MOL0     H66111   8.151   3.500   7.907 -2.1901  0.7383 -0.6424
  490MOL0     H66112   8.072   3.661   7.926  0.6139  1.9398  0.8173
  490MOL0     H66113   8.191   3.635   7.803  1.2093  2.2019 -0.0632
  490MOL0     H66114   8.090   3.169   8.300  0.1187  1.2996 -1.7232
  490MOL0     H66115   7.910   3.079   8.447  1.8712 -0.3513  1.5499
  490MOL0     H66116   7.669   3.118   8.492 -0.6447 -1.5852  0.5938
  490MOL0     H66117   7.762   3.020   8.599 -0.2288 -1.5993 -1.6208
  490MOL0     H66118   7.620   3.100   8.788  1.8621 -1.1547 -0.9634
  490MOL0     H66119   7.524   3.206   8.675 -1.3838 -1.0800 -0.5765
  490MOL0     H66120   7.546   2.913   8.624  0.5428  0.9491  0.0650
  490MOL0     H66121   7.441   3.044   8.556 -1.7509  0.2362  1.1935
  490MOL0     H66122   7.400   2.995   8.841 -3.3731 -0.1492  1.7088
  490MOL0     H66123   7.288   3.055   8.734 -1.1138 -0.9629 -2.1251
  490MOL0     H66124   7.261   2.833   8.627 -2.4227  0.3820  0.0749
  490MOL0     H66125   7.200   2.874   8.788  1.5882 -0.2185  2.6724
  490MOL0     H66126   7.316   2.630   8.737  1.0008 -2.0833  2.2945
  490MOL0     H66127   7.459   2.723   8.791 -0.0205 -2.0658 -1.4567
  490MOL0     H66128   7.189   2.674   8.945 -0.4363 -1.1731 -1.3428
  490MOL0     H66129   7.331   2.767   9.002  0.0491  1.6290 -2.5911
  490MOL0     H66130   7.342   2.542   9.090 -0.6752  1.1523  0.7332
  490MOL0     H66131   7.454   2.547   8.945 -0.1111  0.7030 -0.8074
  490MOL0     H66132   7.859   3.464   8.628 -1.1710  3.0783 -1.8828
  490MOL0     H66133   8.023   3.571   8.462  3.1680  0.1551  1.9647
  490MOL0     H66134   8.296   3.608   8.351 -1.3196  0.5491  0.2614
  490MOL0     H66135   8.504   3.731   8.285  0.0383  1.6228 -2.3279
  490MOL0     H66136   8.173   2.885   8.500 -2.0267  2.4351 -2.0447
  490MOL0     H66137   8.026   2.711   8.496 -0.0748  0.9147 -1.2171
  490MOL0     H66138   7.716   2.448   8.803 -2.5723  0.3011  1.0464
  490MOL0     H66139   7.566   2.250   8.792 -4.6148  2.1428  1.2974
  490MOL0     H66140   7.210   2.179   8.691 -0.4207 -3.1599 -2.0662
  490MOL0     H66141   7.219   2.332   8.604 -1.0648  0.5030  0.7324
  490MOL0     H66142   7.279   2.209   8.391  0.7295 -0.8341  0.2290
  490MOL0     H66143   7.117   2.167   8.456 -0.5668  2.7091  2.3270
  490MOL0     H66144   7.278   1.948   8.544 -2.1766 -0.8676 -0.2216
  490MOL0     H66145   7.394   2.026   8.422 -1.5952 -0.5869 -0.5557
  490MOL0     H66146   7.210   2.019   8.257  0.7445  0.3592 -0.4457
  490MOL0     H66147   7.106   1.942   8.384  1.9685 -3.3500  2.3658
  490MOL0     H66148   7.361   1.635   8.219  0.5098  1.0083  0.0122
  490MOL0     H66149   7.416   2.380   8.420  0.6093 -2.1120  0.5623
  490MOL0     H66150   7.589   2.546   8.401  1.4454  0.1415  0.4124
  491MOL0     O66151   2.254   5.846  11.266  0.2635  0.3174 -1.3351
  491MOL0     C66152   2.295   5.947  11.212  0.4272 -1.0645  0.3779
  491MOL0     O66153   2.220   6.026  11.134  0.1589  0.6191  0.4938
  491MOL0     C66154   2.099   5.988  11.083  0.1928  0.5117 -0.1915
  491MOL0     C66155   1.994   6.079  11.063  0.4925  0.2600 -0.2592
  491MOL0     C66156   1.874   6.037  11.004  0.3814 -0.2250  0.4724
  491MOL0     C66157   1.849   5.902  10.957  0.0066 -0.5026 -0.4480
  491MOL0     O66158   1.739   5.872  10.884 -0.0744  0.2480 -0.1355
  491MOL0     C66159   1.718   5.729  10.856  0.9531 -0.0967  0.9340
  491MOL0     C66160   1.571   5.707  10.810 -0.3164 -0.3177  0.4438
  491MOL0     C66161   1.535   5.564  10.756  0.4507  0.2572  0.5559
  491MOL0     C66162   1.599   5.549  10.611 -0.3274 -0.5579  0.5150
  491MOL0     C66163   1.518   5.456  10.522  0.0648 -0.1125  0.6424
  491MOL0     C66164   1.563   5.311  10.540  0.7017  0.4340 -0.5401
  491MOL0     C66165   1.471   5.219  10.458  1.1090 -0.5259 -0.4156
  491MOL0     C66166   1.515   5.079  10.464  0.0950 -0.3544 -0.4616
  491MOL0     N66167   1.410   4.984  10.428  0.1084 -0.0522 -0.3812
  491MOL0     C66168   1.412   4.888  10.318 -0.6843 -0.8814 -0.1509
  491MOL0     C66169   1.312   4.805  10.345  0.0647 -0.2167 -0.6747
  491MOL0     C66170   1.265   4.686  10.267 -0.1619 -1.1653 -0.7304
  491MOL0     C66171   1.113   4.677  10.244  0.6258  0.6567  0.1828
  491MOL0     C66172   1.060   4.538  10.209 -0.6936  0.3256  0.6713
  491MOL0     C66173   0.901   4.548  10.194 -0.6965  0.0578  0.6020
  491MOL0     O66174   0.836   4.414  10.176 -0.5793  0.3577  0.0641
  491MOL0     C66175   0.743   4.381  10.077 -0.7765  0.6203  0.8296
  491MOL0     C66176   0.749   4.266  10.007 -0.0982 -0.0199 -0.4914
  491MOL0     C66177   0.676   4.236   9.893  0.2939  0.6305  0.0828
  491MOL0     C66178   0.697   4.105   9.818  0.0344  0.1931 -0.1995
  491MOL0     C66179   0.569   4.329   9.859  0.4202  1.3199 -0.1543
  491MOL0     C66180   0.468   4.283   9.762  0.1863 -0.4730 -0.2622
  491MOL0     O66181   0.384   4.384   9.716 -0.7934  0.2678  0.2472
  491MOL0     C66182   0.255   4.351   9.688  0.4048  0.3532  0.4116
  491MOL0     C66183   0.165   4.325   9.792 -0.4362  0.7045 -0.5136
  491MOL0     C66184   0.036   4.290   9.761 -0.2005 -0.5579  0.6499
  491MOL0     C66185  -0.012   4.289   9.631  0.1855 -1.3129  0.0816
  491MOL0     O66186  -0.147   4.258   9.614  0.1736  0.9386  0.0251
  491MOL0     C66187  -0.199   4.270   9.479 -0.4673  1.0422 -0.6227
  491MOL0     C66188  -0.346   4.250   9.470  0.8523  0.1499 -0.3961
  491MOL0     C66189  -0.390   4.225   9.316  0.0803 -0.0174 -0.9717
  491MOL0     C66190  -0.333   4.087   9.255 -0.0899 -0.2482  0.4666
  491MOL0     C66191  -0.309   4.112   9.106  0.9338  0.5253 -0.3522
  491MOL0     C66192  -0.263   3.992   9.029  0.0120 -0.4426 -0.0001
  491MOL0     C66193  -0.112   3.988   9.000 -0.4988 -0.5866  0.2555
  491MOL0     C66194  -0.068   3.875   8.910  0.4890 -0.6878  0.4721
  491MOL0    Cl66195  -0.109   3.912   8.746 -0.0514  0.0621  0.5289
  491MOL0     C66196   0.082   4.331   9.537  0.2559 -0.2019 -0.4653
  491MOL0     C66197   0.218   4.345   9.561  0.1010 -0.7708 -0.8047
  491MOL0     O66198   0.436   4.167   9.758 -0.4650 -0.0486 -0.3288
  491MOL0     C66199   0.575   4.454   9.922 -0.1069 -0.2026 -0.1824
  491MOL0     C66200   0.668   4.480  10.030  0.1986 -0.0865  0.2701
  491MOL0     N66201   1.244   4.852  10.459 -0.4236  0.6882 -0.0426
  491MOL0     N66202   1.307   4.951  10.510 -0.2878 -0.3519 -0.7595
  491MOL0     C66203   1.966   5.820  10.975  0.5479  0.0427 -0.0042
  491MOL0     C66204   2.083   5.859  11.032  1.1781  0.2262 -0.5449
  491MOL0     C66205   2.401   6.017  11.276  0.3294  0.1924  0.0286
  491MOL0     C66206   2.421   6.153  11.288 -0.2514 -0.1126 -0.7447
  491MOL0     C66207   2.536   6.196  11.357 -0.6345 -0.2995 -0.0003
  491MOL0     C66208   2.628   6.113  11.420  0.2827  0.2270  0.3247
  491MOL0     O66209   2.739   6.167  11.487 -0.5795 -0.5768  0.1988
  491MOL0     C66210   2.851   6.077  11.511 -0.4011  0.2285 -0.2521
  491MOL0     C66211   2.923   6.037  11.378  0.6224  0.0461  0.2190
  491MOL0     C66212   3.031   5.927  11.398 -0.7529 -0.1875 -0.0270
  491MOL0     C66213   3.108   5.900  11.265 -0.1315 -0.0862 -0.0623
  491MOL0     C66214   3.201   6.008  11.232 -0.2909  0.1578  0.7450
  491MOL0     C66215   3.272   6.098  11.199  0.1041  0.0982 -0.2713
  491MOL0     C66216   2.604   5.975  11.410 -0.3374  0.0431 -0.3384
  491MOL0     C66217   2.487   5.927  11.347  0.0497 -0.3612 -0.2883
  491MOL0     H66218   2.010   6.184  11.084  1.0409  0.6644 -2.4497
  491MOL0     H66219   1.794   6.111  10.994 -1.4681 -2.1252  0.4686
  491MOL0     H66220   1.785   5.699  10.775  1.0652  0.8090  0.6777
  491MOL0     H66221   1.726   5.659  10.939 -0.2195  0.8601  1.8961
  491MOL0     H66222   1.503   5.723  10.895 -1.3319  2.5226 -0.7820
  491MOL0     H66223   1.551   5.791  10.742 -0.7467  1.5376  2.7106
  491MOL0     H66224   1.576   5.490  10.825 -0.5462 -0.1442  0.7363
  491MOL0     H66225   1.426   5.558  10.750  0.5795 -1.7200 -0.7057
  491MOL0     H66226   1.599   5.648  10.564 -0.1663 -0.3702  0.9083
  491MOL0     H66227   1.704   5.518  10.612 -0.7566 -2.7408 -2.8830
  491MOL0     H66228   1.412   5.472  10.544  0.0189  0.6217 -0.0578
  491MOL0     H66229   1.533   5.485  10.418  1.0988  1.2478  1.1503
  491MOL0     H66230   1.666   5.311  10.504  1.6101  1.0150  1.8638
  491MOL0     H66231   1.564   5.291  10.647 -2.7621 -0.1629 -0.4966
  491MOL0     H66232   1.370   5.228  10.500  0.3744  0.4244 -2.2659
  491MOL0     H66233   1.470   5.260  10.357  3.6913  2.3173  0.5692
  491MOL0     H66234   1.542   5.058  10.568 -0.4847  1.9172  0.1857
  491MOL0     H66235   1.604   5.071  10.400  0.1450  0.3046 -0.4820
  491MOL0     H66236   1.480   4.882  10.234  1.6120  0.3944  1.5281
  491MOL0     H66237   1.329   4.711  10.182  2.5375 -0.9199  1.2482
  491MOL0     H66238   1.293   4.594  10.318 -0.3678 -1.1455 -0.5824
  491MOL0     H66239   1.094   4.757  10.172  0.3094  1.3149  0.9813
  491MOL0     H66240   1.059   4.701  10.336 -1.0206 -0.3174 -0.4972
  491MOL0     H66241   1.084   4.465  10.286 -0.9762 -0.8732 -0.3288
  491MOL0     H66242   1.106   4.500  10.117 -3.5914 -0.3826 -0.6355
  491MOL0     H66243   0.883   4.620  10.114  0.1042  0.2980  0.6337
  491MOL0     H66244   0.847   4.589  10.280 -3.2997 -0.1890 -0.7929
  491MOL0     H66245   0.823   4.190  10.030  2.2268  1.5072 -2.3796
  491MOL0     H66246   0.621   4.030   9.838 -1.1482  1.8873  2.1141
  491MOL0     H66247   0.692   4.136   9.713  0.1692  2.4007  0.3850
  491MOL0     H66248   0.790   4.052   9.841  0.4874  1.0208 -0.0769
  491MOL0     H66249   0.202   4.324   9.894  0.5402 -0.0984 -0.8545
  491MOL0     H66250  -0.029   4.258   9.841  0.9413  1.8303  2.6913
  491MOL0     H66251  -0.179   4.371   9.442 -1.0537  0.9109 -1.3097
  491MOL0     H66252  -0.144   4.187   9.434 -1.1390 -0.4133  1.1168
  491MOL0     H66253  -0.370   4.159   9.526 -0.1464 -1.5504 -3.3378
  491MOL0     H66254  -0.394   4.343   9.501 -2.6922 -1.4417 -0.5902
  491MOL0     H66255  -0.366   4.307   9.247 -1.2704  0.3669 -1.0119
  491MOL0     H66256  -0.499   4.219   9.307  0.0406  1.3588 -1.6103
  491MOL0     H66257  -0.238   4.061   9.302  1.0975  2.7860 -0.0431
  491MOL0     H66258  -0.409   4.008   9.254 -0.5465  0.1099 -2.9165
  491MOL0     H66259  -0.229   4.186   9.099  0.6236  1.5873  4.1498
  491MOL0     H66260  -0.403   4.147   9.061  0.3614 -1.9675 -1.2406
  491MOL0     H66261  -0.288   3.906   9.091  1.0011 -2.6078 -2.4075
  491MOL0     H66262  -0.325   3.981   8.940  0.9708 -1.3919 -0.5815
  491MOL0     H66263  -0.069   3.968   9.099 -2.3191  1.1521  1.4928
  491MOL0     H66264  -0.077   4.080   8.952 -4.5692  0.1130 -1.8766
  491MOL0     H66265  -0.129   3.788   8.935  2.6755 -3.0241 -1.7854
  491MOL0     H66266   0.038   3.853   8.924  1.4069  1.1701 -2.5171
  491MOL0     H66267   0.049   4.346   9.435  0.7263 -3.5218 -1.2116
  491MOL0     H66268   0.292   4.349   9.481 -1.7731 -0.0269 -2.5965
  491MOL0     H66269   0.508   4.538   9.903  1.7508  1.3825 -0.0286
  491MOL0     H66270   0.674   4.582  10.066  2.6171  1.2080 -3.2894
  491MOL0     H66271   1.953   5.719  10.936  0.4295  0.6959 -1.7203
  491MOL0     H66272   2.175   5.801  11.040  0.4693 -0.6760  1.7695
  491MOL0     H66273   2.366   6.222  11.224 -3.3541 -1.8137 -0.1298
  491MOL0     H66274   2.558   6.301  11.342  0.2789 -0.3633  0.7939
  491MOL0     H66275   2.921   6.132  11.575 -1.3179 -0.8398  1.7573
  491MOL0     H66276   2.821   5.995  11.576 -2.8531 -0.0393 -1.5874
  491MOL0     H66277   2.974   6.123  11.335 -2.5144  2.9209  1.7894
  491MOL0     H66278   2.843   6.004  11.311  0.0460  2.5324 -0.3986
  491MOL0     H66279   2.990   5.833  11.435 -1.1029 -0.6199 -1.4518
  491MOL0     H66280   3.094   5.980  11.470 -0.8204  1.7417 -1.3277
  491MOL0     H66281   3.044   5.891  11.177 -3.3996  1.9612  1.8775
  491MOL0     H66282   3.166   5.808  11.281 -1.0273 -0.8266 -0.9327
  491MOL0     H66283   3.328   6.181  11.161  0.3025 -0.7736 -1.9727
  491MOL0     H66284   2.682   5.906  11.440 -0.0859 -0.5545 -2.2330
  491MOL0     H66285   2.476   5.819  11.343 -2.0689 -0.1882 -0.0837
  492MOL0     O66286   4.849   1.869   0.615 -0.1516 -0.3219 -0.3227
  492MOL0     C66287   4.734   1.896   0.637  1.2462  0.7096 -0.4314
  492MOL0     O66288   4.661   1.984   0.565  0.2888 -0.6469 -0.1756
  492MOL0     C66289   4.741   2.059   0.478 -0.7958  0.3506 -0.7543
  492MOL0     C66290   4.768   2.198   0.499  0.1882  0.0774  0.8596
  492MOL0     C66291   4.841   2.261   0.404  0.3127  0.2549 -0.3672
  492MOL0     C66292   4.874   2.202   0.276  0.6883 -0.0714  0.0644
  492MOL0     O66293   4.954   2.276   0.191 -0.7203  0.2247 -0.2297
  492MOL0     C66294   4.919   2.280   0.049  0.8085 -0.3006 -0.0305
  492MOL0     C66295   4.937   2.418  -0.000  0.3225 -0.3873 -1.2622
  492MOL0     C66296   4.814   2.494   0.040  0.2659 -0.3489  0.1758
  492MOL0     C66297   4.833   2.637  -0.004  0.8052 -0.4182 -0.3055
  492MOL0     C66298   4.726   2.737   0.053 -0.2649  0.1971  0.8337
  492MOL0     C66299   4.574   2.709   0.011 -0.4447  0.5573 -0.0076
  492MOL0     C66300   4.551   2.762  -0.132 -0.5202  0.3257 -0.3818
  492MOL0     C66301   4.402   2.820  -0.133  0.9542  1.3816  1.0275
  492MOL0     N66302   4.377   2.905  -0.254  0.4805  0.2032 -0.5113
  492MOL0     C66303   4.439   3.026  -0.270 -0.9745  0.2770  0.4361
  492MOL0     C66304   4.409   3.069  -0.401  0.2610  1.0307 -0.1472
  492MOL0     C66305   4.426   3.198  -0.468  0.6706 -0.5138  0.2204
  492MOL0     C66306   4.308   3.296  -0.462  0.1493  0.2033  0.3666
  492MOL0     C66307   4.298   3.400  -0.571 -0.2770  0.2192 -0.2599
  492MOL0     C66308   4.163   3.467  -0.569  0.0531 -0.3271  0.1973
  492MOL0     O66309   4.169   3.587  -0.653 -0.9977 -0.1019 -0.2809
  492MOL0     C66310   4.230   3.708  -0.616 -0.2163  0.7288 -0.4241
  492MOL0     C66311   4.265   3.736  -0.483  0.8227  0.6934  0.3571
  492MOL0     C66312   4.358   3.836  -0.456  0.7393  0.7357  0.0241
  492MOL0     C66313   4.448   3.820  -0.328  0.3322 -0.2498  0.1728
  492MOL0     C66314   4.388   3.938  -0.544 -0.4577  0.3041  1.3641
  492MOL0     C66315   4.482   4.055  -0.518  0.7918  0.7323 -0.5061
  492MOL0     O66316   4.455   4.165  -0.597 -1.0114 -0.2024 -0.3608
  492MOL0     C66317   4.513   4.290  -0.584  0.5949  0.3140  0.1504
  492MOL0     C66318   4.429   4.405  -0.599 -0.7599  0.1894 -0.5178
  492MOL0     C66319   4.484   4.537  -0.595 -0.2147 -0.8408 -0.4458
  492MOL0     C66320   4.625   4.555  -0.568 -0.5179  1.0768  0.2705
  492MOL0     O66321   4.677   4.681  -0.560  0.0330 -0.0879  0.1025
  492MOL0     C66322   4.732   4.709  -0.430 -0.6135 -0.4532 -0.6753
  492MOL0     C66323   4.708   4.848  -0.383 -0.1961 -0.0671  0.6744
  492MOL0     C66324   4.780   4.939  -0.471 -0.0533 -0.0795 -0.7939
  492MOL0     C66325   4.734   5.083  -0.468  0.4470 -0.2608  0.1798
  492MOL0     C66326   4.728   5.131  -0.317  0.7814 -0.2081  0.7540
  492MOL0     C66327   4.708   5.282  -0.303 -0.0857 -0.0507 -0.0149
  492MOL0     C66328   4.702   5.336  -0.163  1.1406  1.1352  0.0559
  492MOL0     C66329   4.696   5.488  -0.176 -0.3036 -0.8948 -0.3086
  492MOL0    Cl66330   4.671   5.555  -0.008 -0.0538  0.1092 -0.1355
  492MOL0     C66331   4.703   4.439  -0.562 -0.5342 -0.6511  0.8646
  492MOL0     C66332   4.654   4.306  -0.576 -0.0595 -0.6992  0.3131
  492MOL0     O66333   4.559   4.052  -0.423  0.4273  0.1306 -0.2412
  492MOL0     C66334   4.334   3.930  -0.673 -0.9069  0.4802  0.1295
  492MOL0     C66335   4.257   3.813  -0.709  0.9124 -0.3744  1.2811
  492MOL0     N66336   4.329   2.964  -0.450  0.3261  0.3210  0.1431
  492MOL0     N66337   4.306   2.868  -0.366  0.0642 -0.6198 -0.5031
  492MOL0     C66338   4.837   2.071   0.257 -0.2504  0.7921  0.0302
  492MOL0     C66339   4.782   1.992   0.361  0.4304 -0.3719  0.5201
  492MOL0     C66340   4.655   1.827   0.748  0.6080  0.2844 -0.4176
  492MOL0     C66341   4.720   1.725   0.831 -0.1092  0.3013  0.6580
  492MOL0     C66342   4.643   1.656   0.928  0.2811  0.4298  0.0703
  492MOL0     C66343   4.506   1.693   0.960 -0.6802 -0.9635  0.5353
  492MOL0     O66344   4.422   1.640   1.048 -1.0249  0.1405 -0.6663
  492MOL0     C66345   4.467   1.523   1.122 -0.2441  0.6842  1.1579
  492MOL0     C66346   4.451   1.397   1.047  0.3078  0.1140  0.1685
  492MOL0     C66347   4.306   1.356   1.012  0.5613  0.0927 -0.5034
  492MOL0     C66348   4.207   1.347   1.133 -0.1072  0.0775 -0.2950
  492MOL0     C66349   4.252   1.251   1.245 -0.2343 -0.1888  0.7152
  492MOL0     C66350   4.281   1.180   1.336  0.3070 -0.2196 -0.8460
  492MOL0     C66351   4.446   1.795   0.881 -0.2456  0.5579 -0.3157
  492MOL0     C66352   4.519   1.863   0.779  0.0667  0.3982  0.0170
  492MOL0     H66353   4.726   2.235   0.592 -0.5813 -4.8710  2.8102
  492MOL0     H66354   4.866   2.364   0.429 -3.6172  0.9023  1.7347
  492MOL0     H66355   4.980   2.205  -0.003  0.6919 -0.3490 -0.1005
  492MOL0     H66356   4.820   2.238   0.027  1.0222 -0.2275 -1.2172
  492MOL0     H66357   5.024   2.479   0.026 -0.6781  0.6902 -0.3155
  492MOL0     H66358   4.935   2.418  -0.110 -1.2983  0.5553 -1.2670
  492MOL0     H66359   4.728   2.449  -0.011 -0.6158  4.1721 -2.8981
  492MOL0     H66360   4.803   2.488   0.149  2.2503 -0.4679  0.4055
  492MOL0     H66361   4.934   2.668   0.025  0.1676  1.2338  0.2672
  492MOL0     H66362   4.826   2.651  -0.112 -1.5684 -0.0386 -0.1640
  492MOL0     H66363   4.733   2.724   0.161  1.7136 -0.4520  0.6561
  492MOL0     H66364   4.749   2.841   0.032  2.4845 -0.1144  1.9331
  492MOL0     H66365   4.536   2.607   0.005 -0.2319  0.4973 -0.4473
  492MOL0     H66366   4.514   2.757   0.088 -1.6106 -0.7725 -0.0491
  492MOL0     H66367   4.619   2.847  -0.142  1.3285 -1.0460 -0.1225
  492MOL0     H66368   4.570   2.678  -0.199  1.0218 -1.5387  2.1945
  492MOL0     H66369   4.380   2.880  -0.044  0.4188  1.0666  1.1161
  492MOL0     H66370   4.338   2.732  -0.142  2.6342  0.1466  0.6231
  492MOL0     H66371   4.500   3.075  -0.196  0.3183 -0.9260  0.1970
  492MOL0     H66372   4.495   3.258  -0.409 -2.2336  2.1203  1.2029
  492MOL0     H66373   4.457   3.185  -0.573 -1.6680 -0.6760 -0.5127
  492MOL0     H66374   4.307   3.345  -0.364 -3.2885  2.8013 -0.7862
  492MOL0     H66375   4.219   3.233  -0.463 -1.1272  1.9507  0.1137
  492MOL0     H66376   4.306   3.356  -0.671  1.4475  0.3927 -0.2327
  492MOL0     H66377   4.385   3.466  -0.571  0.1315 -0.3037 -0.9548
  492MOL0     H66378   4.122   3.484  -0.469 -2.1867  2.9764 -1.1313
  492MOL0     H66379   4.097   3.391  -0.612  2.8592 -2.3737 -0.8014
  492MOL0     H66380   4.258   3.652  -0.415 -3.4697 -1.9169 -2.7788
  492MOL0     H66381   4.428   3.898  -0.255  0.8330  0.2280 -0.1974
  492MOL0     H66382   4.436   3.724  -0.277  0.6897  0.0607  0.8445
  492MOL0     H66383   4.550   3.819  -0.369  1.6527  1.5424  3.1456
  492MOL0     H66384   4.321   4.397  -0.604 -1.0675  3.2910 -0.7603
  492MOL0     H66385   4.423   4.625  -0.609 -0.2707 -0.2054  3.0351
  492MOL0     H66386   4.689   4.647  -0.351 -0.7080 -2.1279 -1.9817
  492MOL0     H66387   4.840   4.689  -0.429 -1.0025 -2.9739  0.4250
  492MOL0     H66388   4.600   4.863  -0.396  0.2009  1.3502 -1.3787
  492MOL0     H66389   4.726   4.862  -0.276  1.4562 -0.2633  0.4395
  492MOL0     H66390   4.767   4.913  -0.577  1.8216 -0.4673 -0.9587
  492MOL0     H66391   4.885   4.929  -0.444 -0.5080  2.6851  2.6302
  492MOL0     H66392   4.799   5.148  -0.528  2.1945 -0.2650  1.9465
  492MOL0     H66393   4.633   5.093  -0.508 -0.0378 -0.3835  1.3533
  492MOL0     H66394   4.816   5.090  -0.267  1.5270 -0.0597 -0.3887
  492MOL0     H66395   4.641   5.076  -0.280 -1.5613  1.2488 -2.2165
  492MOL0     H66396   4.795   5.323  -0.355  1.4288 -2.1135  0.7640
  492MOL0     H66397   4.624   5.324  -0.359  1.2132  2.1701 -0.4340
  492MOL0     H66398   4.787   5.310  -0.101  0.1693  0.2884  1.0756
  492MOL0     H66399   4.605   5.319  -0.115  2.1504 -0.7879  1.5231
  492MOL0     H66400   4.622   5.537  -0.242  2.1515  0.6897 -2.0590
  492MOL0     H66401   4.787   5.535  -0.214 -1.5422  0.1481 -2.2075
  492MOL0     H66402   4.809   4.461  -0.549 -0.3882 -0.2432 -0.7902
  492MOL0     H66403   4.708   4.212  -0.571 -0.9446 -1.2716 -0.4216
  492MOL0     H66404   4.362   3.997  -0.753 -0.4175  0.6343  0.4222
  492MOL0     H66405   4.221   3.800  -0.810 -0.6216  2.2197  1.4266
  492MOL0     H66406   4.867   2.026   0.163  0.4312  2.4989 -0.5917
  492MOL0     H66407   4.758   1.887   0.349 -1.8800 -0.3700  3.7419
  492MOL0     H66408   4.820   1.692   0.805  0.1793  2.3510 -1.0656
  492MOL0     H66409   4.703   1.582   0.980  0.1736  2.3633  3.2111
  492MOL0     H66410   4.574   1.537   1.142 -0.2404  0.8874  0.9996
  492MOL0     H66411   4.411   1.525   1.216  1.3951 -1.2310  2.2611
  492MOL0     H66412   4.506   1.321   1.102 -0.5993  1.6439  3.4450
  492MOL0     H66413   4.499   1.410   0.949  0.0237  2.3972  0.2812
  492MOL0     H66414   4.299   1.252   0.980  2.0830 -0.9301  2.1561
  492MOL0     H66415   4.270   1.425   0.936 -3.7442 -2.6594 -1.2954
  492MOL0     H66416   4.113   1.301   1.104 -0.1897  0.2269 -0.2689
  492MOL0     H66417   4.184   1.445   1.178 -2.3102 -0.1390 -0.8781
  492MOL0     H66418   4.290   1.113   1.420 -3.3637 -1.0171 -0.9177
  492MOL0     H66419   4.344   1.829   0.902 -0.0345  1.9315 -1.3496
  492MOL0     H66420   4.474   1.947   0.728 -0.5255  1.7369  2.5838
  493MOL0     O66421   1.233   6.290   1.398 -0.5068 -0.0330 -0.0118
  493MOL0     C66422   1.177   6.260   1.505 -0.1656  0.0373  0.2190
  493MOL0     O66423   1.188   6.317   1.624 -0.4314  0.1601 -0.6498
  493MOL0     C66424   1.246   6.446   1.618 -0.2901  0.5581  0.4359
  493MOL0     C66425   1.170   6.541   1.683  1.0505  0.1163  0.9310
  493MOL0     C66426   1.219   6.669   1.711 -0.5843  0.5248 -0.6454
  493MOL0     C66427   1.355   6.704   1.678  0.3453 -0.2394  0.0805
  493MOL0     O66428   1.402   6.828   1.715  0.5187  0.1130 -0.6217
  493MOL0     C66429   1.476   6.901   1.625 -0.3114 -0.6861 -0.4860
  493MOL0     C66430   1.483   7.038   1.698  0.3178  0.2118  0.3619
  493MOL0     C66431   1.341   7.108   1.730 -0.0885 -0.5567 -0.3594
  493MOL0     C66432   1.356   7.238   1.805 -0.0636 -0.5228 -0.3794
  493MOL0     C66433   1.247   7.279   1.896  1.0233  0.2038 -0.4084
  493MOL0     C66434   1.127   7.329   1.813 -0.0201 -0.3215  0.9586
  493MOL0     C66435   1.025   7.383   1.903 -0.1187 -0.8565  1.4688
  493MOL0     C66436   0.895   7.414   1.825  0.6988  0.2565  0.3916
  493MOL0     N66437   0.860   7.562   1.853  0.0869  0.3299 -0.5385
  493MOL0     C66438   0.936   7.658   1.804  0.4895 -0.0850  0.3553
  493MOL0     C66439   0.850   7.768   1.813  0.0742  0.0920  0.1966
  493MOL0     C66440   0.904   7.904   1.789 -0.1739 -0.8899  0.2616
  493MOL0     C66441   0.917   7.975   1.925 -0.0731 -0.4917  0.2268
  493MOL0     C66442   0.933   8.129   1.908  0.4192  0.5095  0.0722
  493MOL0     C66443   0.886   8.222   2.024  0.3364 -0.6870 -0.3614
  493MOL0     O66444   0.971   8.202   2.137  0.0485 -0.2013 -0.3853
  493MOL0     C66445   0.947   8.257   2.254 -0.4962 -0.2629 -0.0874
  493MOL0     C66446   0.993   8.192   2.368  0.8682 -0.3932 -0.0371
  493MOL0     C66447   0.985   8.247   2.497 -0.1396  0.7044  0.2913
  493MOL0     C66448   1.008   8.150   2.612  0.4304  0.0473 -0.2455
  493MOL0     C66449   0.930   8.378   2.513  0.6119 -0.2170 -0.7131
  493MOL0     C66450   0.922   8.448   2.648  1.6372  0.1015  0.0242
  493MOL0     O66451   0.993   8.419   2.746  0.0276  0.2423 -0.6720
  493MOL0     C66452   0.979   8.481   2.872 -0.0014 -0.6634  1.0877
  493MOL0     C66453   0.852   8.520   2.922  0.2024 -0.4666 -0.9551
  493MOL0     C66454   0.848   8.611   3.026 -0.3015  0.2694 -1.1149
  493MOL0     C66455   0.959   8.634   3.098 -1.2400  0.0623 -0.7583
  493MOL0     O66456   0.940   8.709   3.213  0.0348 -1.2748  0.4272
  493MOL0     C66457   0.985   8.847   3.186 -0.3670 -0.1816  0.3123
  493MOL0     C66458   1.114   8.877   3.264 -0.1663  0.5020 -0.4525
  493MOL0     C66459   1.175   9.014   3.233 -0.1229  0.6786 -0.5952
  493MOL0     C66460   1.304   9.029   3.323  0.8096 -0.7808  0.4971
  493MOL0     C66461   1.417   9.120   3.260 -0.1923 -0.7945 -0.0590
  493MOL0     C66462   1.556   9.077   3.317  0.2019  0.4081  0.1195
  493MOL0     C66463   1.669   9.153   3.251  0.2149 -0.0534  0.2478
  493MOL0     C66464   1.667   9.168   3.102  0.5338 -0.6332  0.9198
  493MOL0    Cl66465   1.819   9.235   3.036 -0.3548 -0.1256  0.0157
  493MOL0     C66466   1.086   8.580   3.066  0.4141  0.1485  0.3206
  493MOL0     C66467   1.096   8.504   2.943  0.1434  0.1145  0.4916
  493MOL0     O66468   0.830   8.537   2.651  0.0913 -0.3062  0.6160
  493MOL0     C66469   0.894   8.442   2.395  0.4874 -0.4654 -0.2914
  493MOL0     C66470   0.890   8.378   2.270  1.0645 -0.8811 -0.0951
  493MOL0     N66471   0.731   7.735   1.858  0.3646  0.4535 -0.1787
  493MOL0     N66472   0.739   7.605   1.890 -0.1639  0.1326  0.0219
  493MOL0     C66473   1.428   6.607   1.608 -0.3858 -0.1838 -0.7132
  493MOL0     C66474   1.375   6.476   1.577  0.2983 -0.2952  0.3270
  493MOL0     C66475   1.077   6.155   1.499  0.4577  0.5124  0.0195
  493MOL0     C66476   1.067   6.058   1.389 -0.0279 -0.6876  0.6265
  493MOL0     C66477   0.968   5.966   1.390  0.8431  0.7399  0.0934
  493MOL0     C66478   0.864   5.976   1.492  0.2351 -0.4178  0.3564
  493MOL0     O66479   0.753   5.905   1.496 -0.0830  0.0039  0.6545
  493MOL0     C66480   0.714   5.814   1.385 -0.2434 -1.5271 -0.3019
  493MOL0     C66481   0.562   5.793   1.375  0.6391 -0.0764 -0.4655
  493MOL0     C66482   0.498   5.784   1.514 -0.9843  0.4953  0.1410
  493MOL0     C66483   0.350   5.770   1.499 -0.2025  0.9512  0.5666
  493MOL0     C66484   0.295   5.726   1.630  0.1888  0.8412  0.0162
  493MOL0     C66485   0.254   5.695   1.742 -0.2670  1.1847 -1.0406
  493MOL0     C66486   0.872   6.066   1.598 -0.0122 -0.3920 -0.2958
  493MOL0     C66487   0.973   6.166   1.594  0.0765  0.8155 -0.4201
  493MOL0     H66488   1.068   6.532   1.720  0.3313  5.6644  1.0874
  493MOL0     H66489   1.163   6.741   1.770  2.7658  3.3074 -0.5394
  493MOL0     H66490   1.580   6.872   1.607  0.4841  0.9925  1.0561
  493MOL0     H66491   1.423   6.910   1.530 -0.2895  0.7957 -0.3855
  493MOL0     H66492   1.544   7.027   1.788 -0.6029 -1.2383  0.8444
  493MOL0     H66493   1.538   7.107   1.633  1.0469  1.8074  2.5613
  493MOL0     H66494   1.280   7.116   1.640  1.0590  0.5014 -1.0765
  493MOL0     H66495   1.282   7.038   1.790  2.6787 -1.7248  1.2205
  493MOL0     H66496   1.431   7.215   1.880 -1.1594 -1.3747  0.4953
  493MOL0     H66497   1.395   7.310   1.732 -0.3748  0.1781  0.1294
  493MOL0     H66498   1.216   7.191   1.952  2.2387 -0.7580 -1.2047
  493MOL0     H66499   1.273   7.360   1.964 -3.1761  2.8289 -1.4885
  493MOL0     H66500   1.158   7.404   1.739 -1.2141 -3.3088 -2.9117
  493MOL0     H66501   1.089   7.246   1.753  0.5892  0.0779 -0.0064
  493MOL0     H66502   1.017   7.305   1.978 -0.8857 -1.5792  0.6606
  493MOL0     H66503   1.061   7.478   1.944  0.3997 -0.5479  0.3488
  493MOL0     H66504   0.818   7.347   1.865  1.5077 -0.2114  1.2049
  493MOL0     H66505   0.900   7.394   1.718  0.9306 -0.4081  0.5169
  493MOL0     H66506   1.037   7.654   1.764 -0.5240 -2.7764 -2.3076
  493MOL0     H66507   0.998   7.899   1.734  0.1131  0.4488  0.5808
  493MOL0     H66508   0.832   7.951   1.721  0.5959 -1.1522 -0.7505
  493MOL0     H66509   1.007   7.948   1.980  0.4025  0.8887  0.1723
  493MOL0     H66510   0.828   7.947   1.983 -0.0007 -0.9208  0.1349
  493MOL0     H66511   0.864   8.155   1.827 -0.9745  1.2587  1.4350
  493MOL0     H66512   1.038   8.149   1.886  0.3810  2.1904  1.2197
  493MOL0     H66513   0.781   8.201   2.045  0.2446 -0.1106 -0.2091
  493MOL0     H66514   0.905   8.326   1.993  0.8216 -0.3482  1.0033
  493MOL0     H66515   1.030   8.091   2.351 -1.5092 -1.6574  1.6770
  493MOL0     H66516   1.046   8.056   2.571 -0.8784 -1.1556  1.1707
  493MOL0     H66517   1.054   8.197   2.698 -0.8490 -3.4663  2.6286
  493MOL0     H66518   0.904   8.131   2.640  0.7684 -2.0335 -0.2012
  493MOL0     H66519   0.758   8.505   2.869 -1.6165 -2.3742  2.4559
  493MOL0     H66520   0.753   8.653   3.059  1.4712  0.6812  4.5699
  493MOL0     H66521   1.018   8.862   3.083  0.5624  2.8790  0.9671
  493MOL0     H66522   0.908   8.921   3.209 -1.4048 -0.8209 -0.9181
  493MOL0     H66523   1.086   8.879   3.370 -0.7730  2.9620 -0.6166
  493MOL0     H66524   1.194   8.802   3.256 -1.5897 -1.6758  2.9834
  493MOL0     H66525   1.104   9.097   3.239 -0.5723  0.3604 -1.3470
  493MOL0     H66526   1.209   9.012   3.129  1.1129  0.6839 -0.2061
  493MOL0     H66527   1.261   9.079   3.409 -2.3640 -1.7263 -0.4091
  493MOL0     H66528   1.352   8.936   3.355  0.7136  0.3578  4.4039
  493MOL0     H66529   1.397   9.223   3.290 -0.3430 -1.3510  1.8865
  493MOL0     H66530   1.421   9.107   3.152  3.7928 -1.2236 -0.0065
  493MOL0     H66531   1.570   9.080   3.426 -0.3822 -0.1023  0.2133
  493MOL0     H66532   1.567   8.970   3.295 -0.3438  0.0938  1.3182
  493MOL0     H66533   1.760   9.098   3.275  1.0521  0.0254 -2.4193
  493MOL0     H66534   1.669   9.256   3.288 -2.3061  0.9428 -2.1302
  493MOL0     H66535   1.583   9.231   3.073 -1.2451 -2.5394  1.7347
  493MOL0     H66536   1.643   9.072   3.056 -1.3456 -0.2425  1.0189
  493MOL0     H66537   1.179   8.596   3.120  2.9346 -0.5424 -3.4445
  493MOL0     H66538   1.187   8.452   2.916  0.7275  0.3761  1.8690
  493MOL0     H66539   0.860   8.545   2.399 -1.2038 -1.0173  0.3218
  493MOL0     H66540   0.850   8.433   2.186 -0.4718  1.9364  2.2675
  493MOL0     H66541   1.525   6.624   1.564 -0.9610 -3.6283 -3.8114
  493MOL0     H66542   1.430   6.395   1.529  1.6725  0.5851  0.3402
  493MOL0     H66543   1.134   6.064   1.304 -0.5613 -2.3343  0.0642
  493MOL0     H66544   0.971   5.899   1.305 -0.4986  1.3878 -0.4988
  493MOL0     H66545   0.727   5.850   1.282  1.3270  1.0213  0.6910
  493MOL0     H66546   0.749   5.712   1.399 -0.6935 -1.3834  2.3703
  493MOL0     H66547   0.542   5.704   1.315  0.1290  0.8442 -1.6949
  493MOL0     H66548   0.501   5.874   1.333 -1.0288 -0.4477  1.1120
  493MOL0     H66549   0.514   5.885   1.552 -2.6478  1.8738 -2.5029
  493MOL0     H66550   0.548   5.703   1.568  0.2828  0.7983 -0.5425
  493MOL0     H66551   0.330   5.702   1.416  1.5467  0.1589  0.7655
  493MOL0     H66552   0.304   5.868   1.486 -0.4075  0.7751 -0.0642
  493MOL0     H66553   0.238   5.655   1.840  0.5905  0.7341 -1.0728
  493MOL0     H66554   0.798   6.066   1.677 -0.8041  3.4188 -0.8553
  493MOL0     H66555   0.957   6.241   1.671  1.4721  1.2033 -0.4793
  494MOL0     O66556   3.931  10.758   4.090 -0.9281  0.3114  0.4815
  494MOL0     C66557   3.853  10.841   4.116  0.2770 -0.0614 -0.9024
  494MOL0     O66558   3.720  10.826   4.115  0.1272  0.5678  0.3485
  494MOL0     C66559   3.666  10.724   4.058  0.1852  0.5558 -0.1131
  494MOL0     C66560   3.548  10.671   4.106  0.1430 -0.7983  0.0134
  494MOL0     C66561   3.473  10.592   4.020  0.4164 -0.0716 -0.3432
  494MOL0     C66562   3.520  10.547   3.900  0.0009 -0.3338  0.2886
  494MOL0     O66563   3.430  10.457   3.841 -0.3614  0.2867  0.1912
  494MOL0     C66564   3.470  10.400   3.712 -0.2177 -0.9029  0.2170
  494MOL0     C66565   3.381  10.282   3.680 -0.9670  0.0184  0.6778
  494MOL0     C66566   3.449  10.169   3.602 -1.0514 -1.2889  0.2631
  494MOL0     C66567   3.574  10.109   3.665 -0.5756 -0.7660 -0.5268
  494MOL0     C66568   3.564  10.084   3.815 -0.4206  0.2489  0.3925
  494MOL0     C66569   3.698  10.051   3.878 -0.3444 -0.0911  0.7216
  494MOL0     C66570   3.692   9.976   4.013 -0.0721  0.9330  0.1070
  494MOL0     C66571   3.681   9.832   3.993 -0.9154 -0.0151  0.0276
  494MOL0     N66572   3.593   9.791   4.100 -0.0807  0.6509  1.3206
  494MOL0     C66573   3.628   9.784   4.230 -0.6470  0.8800 -0.1389
  494MOL0     C66574   3.535   9.699   4.290 -0.3565 -0.4270  0.6117
  494MOL0     C66575   3.523   9.665   4.439  0.1725 -0.0025 -0.3030
  494MOL0     C66576   3.442   9.545   4.477  0.1714 -0.4569  0.3898
  494MOL0     C66577   3.446   9.534   4.634  0.2120 -0.4596 -0.1498
  494MOL0     C66578   3.373   9.408   4.680  0.5041  0.0708  0.2618
  494MOL0     O66579   3.437   9.372   4.797 -0.4593  0.4705 -0.3242
  494MOL0     C66580   3.475   9.232   4.810  0.9634 -0.2092 -0.2232
  494MOL0     C66581   3.580   9.204   4.899  0.2035  0.7019 -0.5866
  494MOL0     C66582   3.600   9.074   4.946 -1.2106 -0.2764  0.5312
  494MOL0     C66583   3.720   9.049   5.037 -0.6615 -0.0001 -0.4110
  494MOL0     C66584   3.514   8.967   4.908 -0.7077  0.0962 -0.2207
  494MOL0     C66585   3.537   8.827   4.946  0.1274 -0.0006 -0.1280
  494MOL0     O66586   3.670   8.782   4.961 -0.5318 -0.4281 -0.0848
  494MOL0     C66587   3.685   8.655   5.003  0.0538 -0.8918  0.6741
  494MOL0     C66588   3.750   8.627   5.120 -0.5072 -0.5863  0.3617
  494MOL0     C66589   3.760   8.500   5.179  0.2783 -1.5251  0.2363
  494MOL0     C66590   3.697   8.396   5.100 -0.3198 -0.2386 -0.9243
  494MOL0     O66591   3.692   8.274   5.163  0.4443  0.3178  0.2787
  494MOL0     C66592   3.764   8.163   5.116 -0.2916  0.0951  0.3415
  494MOL0     C66593   3.687   8.043   5.064 -0.3548  0.4860 -0.3160
  494MOL0     C66594   3.764   7.910   5.035 -0.1643  0.0263  0.5273
  494MOL0     C66595   3.719   7.782   5.098 -0.3229 -0.0260  0.2279
  494MOL0     C66596   3.781   7.745   5.231  0.2832  0.0416  0.1787
  494MOL0     C66597   3.740   7.616   5.288 -0.5418  0.2377 -0.8819
  494MOL0     C66598   3.780   7.503   5.189 -0.1893  0.3158 -0.1900
  494MOL0     C66599   3.794   7.378   5.266 -0.9146  0.3253  0.7940
  494MOL0    Cl66600   3.639   7.310   5.332 -0.3186  0.3663 -0.1946
  494MOL0     C66601   3.622   8.416   4.985  0.1693 -0.0830 -0.9162
  494MOL0     C66602   3.619   8.544   4.936  0.3612  1.0662 -0.7215
  494MOL0     O66603   3.439   8.755   4.957 -0.0394  0.2420 -0.2704
  494MOL0     C66604   3.397   9.006   4.838  0.1732 -0.4433  0.3483
  494MOL0     C66605   3.385   9.140   4.784 -0.0333  0.5860 -1.6029
  494MOL0     N66606   3.455   9.659   4.192  0.1929 -0.2303 -0.7208
  494MOL0     N66607   3.492   9.711   4.083  0.3778  0.0418 -0.0774
  494MOL0     C66608   3.645  10.587   3.856  0.0589 -0.6845  0.6678
  494MOL0     C66609   3.712  10.685   3.930  0.5768  0.4531 -0.5148
  494MOL0     C66610   3.894  10.981   4.156 -0.0909 -0.8655 -0.0755
  494MOL0     C66611   4.032  11.017   4.150  0.8411 -0.4168 -0.3036
  494MOL0     C66612   4.069  11.137   4.205  0.0291  0.8728 -1.1817
  494MOL0     C66613   3.981  11.229   4.264 -0.0478 -0.6074 -0.5539
  494MOL0     O66614   4.032  11.341   4.323 -0.0690 -0.3245  0.3186
  494MOL0     C66615   4.158  11.403   4.281 -0.7509 -0.8368 -0.1359
  494MOL0     C66616   4.135  11.489   4.164  0.6728 -0.2517  0.6036
  494MOL0     C66617   4.003  11.568   4.172 -0.1471  0.2870 -0.0063
  494MOL0     C66618   4.000  11.701   4.088 -0.7712  0.0446  0.4521
  494MOL0     C66619   3.990  11.688   3.939  0.3975  0.6483 -0.3385
  494MOL0     C66620   3.967  11.678   3.821  0.0500  0.1168 -0.2610
  494MOL0     C66621   3.851  11.193   4.283 -0.4631 -0.3717 -0.3081
  494MOL0     C66622   3.805  11.068   4.228 -1.0436  0.3118 -0.2084
  494MOL0     H66623   3.521  10.691   4.209 -2.9640  1.5973 -1.1105
  494MOL0     H66624   3.373  10.565   4.049  0.2030  3.5317  3.1665
  494MOL0     H66625   3.464  10.483   3.641  0.1723 -3.1923 -2.6472
  494MOL0     H66626   3.576  10.373   3.707  0.4505  1.0697  1.8720
  494MOL0     H66627   3.347  10.241   3.776 -2.7411 -1.4417 -0.4898
  494MOL0     H66628   3.296  10.314   3.619 -1.9836  0.6545  2.3647
  494MOL0     H66629   3.382  10.083   3.597 -0.0861 -2.0137 -0.9477
  494MOL0     H66630   3.463  10.206   3.500  0.2093 -1.8939  0.2008
  494MOL0     H66631   3.594  10.010   3.622  2.1144 -1.6147  2.3496
  494MOL0     H66632   3.662  10.168   3.638 -1.3446 -0.3128 -2.1895
  494MOL0     H66633   3.534  10.172   3.874 -0.4904  0.7900 -0.4277
  494MOL0     H66634   3.496  10.000   3.830  0.9751 -1.2351 -1.1512
  494MOL0     H66635   3.768   9.991   3.820  0.6271 -1.0838  2.8242
  494MOL0     H66636   3.740  10.150   3.898  0.2390 -0.8025  3.5286
  494MOL0     H66637   3.779  10.005   4.073  1.5284  0.2245 -1.7536
  494MOL0     H66638   3.608  10.009   4.075 -0.3357 -1.0423  0.8659
  494MOL0     H66639   3.783   9.794   3.994 -1.4201 -1.4345 -0.6920
  494MOL0     H66640   3.634   9.804   3.899  1.0287  2.9149 -1.9665
  494MOL0     H66641   3.703   9.840   4.285  0.8356 -0.0669 -1.1081
  494MOL0     H66642   3.619   9.643   4.487 -2.1275 -3.0450  3.4612
  494MOL0     H66643   3.495   9.760   4.485  0.0867 -1.3838  2.7087
  494MOL0     H66644   3.494   9.459   4.432  0.9599  0.1682  0.0842
  494MOL0     H66645   3.335   9.551   4.455 -0.4167 -3.2994  1.9543
  494MOL0     H66646   3.403   9.621   4.684  1.5761  0.1961 -0.0640
  494MOL0     H66647   3.552   9.524   4.662  0.5500  0.8784 -0.8784
  494MOL0     H66648   3.376   9.326   4.608  1.5516  0.5776 -0.2862
  494MOL0     H66649   3.268   9.438   4.682  0.5588  0.5012 -1.5155
  494MOL0     H66650   3.631   9.290   4.942  1.7165 -0.7024  0.5614
  494MOL0     H66651   3.689   8.968   5.103 -1.8424 -1.2577 -2.3933
  494MOL0     H66652   3.820   9.028   4.997 -0.1082  0.3965  0.7249
  494MOL0     H66653   3.724   9.138   5.099 -2.1697 -0.0782 -0.1766
  494MOL0     H66654   3.790   8.720   5.161  1.8012 -0.4883 -1.8376
  494MOL0     H66655   3.808   8.491   5.276 -0.3608  0.8304  0.8453
  494MOL0     H66656   3.836   8.209   5.048  0.0291 -0.1893  0.4816
  494MOL0     H66657   3.822   8.124   5.201 -0.4748 -0.2147  0.3264
  494MOL0     H66658   3.612   8.021   5.141 -1.3405 -0.3360 -1.4687
  494MOL0     H66659   3.632   8.081   4.977  0.3132  1.8287 -0.1716
  494MOL0     H66660   3.868   7.932   5.062  0.1162  0.2080 -0.6610
  494MOL0     H66661   3.767   7.890   4.928  0.6429 -1.0984  0.7490
  494MOL0     H66662   3.610   7.779   5.094 -0.8086  1.1088  5.5015
  494MOL0     H66663   3.746   7.699   5.032  1.0156 -1.9784  3.0116
  494MOL0     H66664   3.741   7.816   5.303 -0.8796 -0.8541  0.4531
  494MOL0     H66665   3.888   7.737   5.208  0.2630  1.6432 -0.5765
  494MOL0     H66666   3.776   7.603   5.391  1.0929 -0.9373 -1.5509
  494MOL0     H66667   3.632   7.616   5.303 -0.2451 -2.1720  2.1356
  494MOL0     H66668   3.880   7.516   5.145  0.5820 -2.7652  0.4026
  494MOL0     H66669   3.705   7.491   5.111 -0.9949  3.5327 -0.0614
  494MOL0     H66670   3.859   7.396   5.352 -1.3765 -1.1117  1.4782
  494MOL0     H66671   3.846   7.305   5.203 -1.8925 -1.1462  1.6270
  494MOL0     H66672   3.568   8.330   4.948 -0.2233 -0.0939 -0.3156
  494MOL0     H66673   3.562   8.571   4.848 -3.0712 -0.0462  0.9440
  494MOL0     H66674   3.309   8.945   4.817  1.1972 -1.6798 -0.5384
  494MOL0     H66675   3.289   9.165   4.740  0.1509  1.1516 -1.6919
  494MOL0     H66676   3.670  10.564   3.753 -0.8361 -1.5608  0.6318
  494MOL0     H66677   3.798  10.733   3.885  1.1252  2.5809  2.4979
  494MOL0     H66678   4.112  10.957   4.107 -1.0487 -1.8185 -2.1327
  494MOL0     H66679   4.175  11.159   4.203  0.5918 -1.2455  0.6408
  494MOL0     H66680   4.188  11.470   4.362 -0.3959  0.3976 -1.2468
  494MOL0     H66681   4.242  11.335   4.271 -0.2827 -0.4721  1.0710
  494MOL0     H66682   4.135  11.422   4.078 -1.4179 -1.3493  1.3966
  494MOL0     H66683   4.213  11.564   4.145 -3.7859  5.0558  0.9112
  494MOL0     H66684   3.972  11.581   4.276  0.9130 -1.4117  0.5703
  494MOL0     H66685   3.926  11.496   4.143 -1.1689  1.2537  0.2237
  494MOL0     H66686   4.098  11.743   4.114  0.1620 -2.2832  0.9414
  494MOL0     H66687   3.924  11.769   4.127 -0.8603 -0.8288  1.9023
  494MOL0     H66688   3.924  11.682   3.723  0.5207 -0.4269 -0.4943
  494MOL0     H66689   3.775  11.256   4.329 -0.5001  1.9645 -3.2933
  494MOL0     H66690   3.709  11.026   4.254 -1.6904 -1.0886 -4.0882
  495MOL0     O66691   6.959   3.831   9.399 -0.5591 -0.1551  0.6577
  495MOL0     C66692   7.056   3.894   9.441 -0.0899  0.0909 -0.6951
  495MOL0     O66693   7.130   3.986   9.378 -0.0542 -0.5884  0.8571
  495MOL0     C66694   7.085   4.036   9.252 -0.3835  0.3072  0.2417
  495MOL0     C66695   7.069   4.169   9.237 -0.4304  0.5661 -1.2389
  495MOL0     C66696   7.015   4.228   9.120 -0.5006 -0.1347 -0.1561
  495MOL0     C66697   6.979   4.148   9.013 -0.7852  0.0867  0.8828
  495MOL0     O66698   6.947   4.211   8.894  0.5164 -0.4475 -0.2566
  495MOL0     C66699   6.808   4.196   8.836 -0.5929  1.1917 -1.4065
  495MOL0     C66700   6.800   4.187   8.686  0.5000 -0.0930 -0.1529
  495MOL0     C66701   6.875   4.075   8.628  0.3926 -0.2499  0.4693
  495MOL0     C66702   6.869   4.059   8.476  0.4667 -0.1688 -0.2122
  495MOL0     C66703   6.737   4.002   8.428  0.0499  0.6684 -0.1923
  495MOL0     C66704   6.743   4.002   8.275  0.7741 -0.4313 -0.3604
  495MOL0     C66705   6.628   3.938   8.203  0.4288  0.5548  0.4380
  495MOL0     C66706   6.618   3.782   8.214 -0.9171 -0.3545  0.4886
  495MOL0     N66707   6.757   3.725   8.180  1.2126  0.5492  0.2783
  495MOL0     C66708   6.785   3.695   8.052 -1.0376  0.5441  0.2598
  495MOL0     C66709   6.888   3.608   8.061 -0.5044  0.6219  0.5189
  495MOL0     C66710   6.960   3.568   7.936 -0.2288 -0.0606  0.0151
  495MOL0     C66711   6.870   3.498   7.829  0.1299 -0.1875 -0.1890
  495MOL0     C66712   6.910   3.487   7.679 -0.4824  0.1681  0.4679
  495MOL0     C66713   6.861   3.359   7.611 -1.4319  0.0560 -0.4439
  495MOL0     O66714   6.873   3.377   7.468 -0.3824  0.2903 -0.3776
  495MOL0     C66715   6.858   3.257   7.414 -0.6889  0.8425 -0.8712
  495MOL0     C66716   6.969   3.178   7.386 -0.3901  0.0928 -0.8366
  495MOL0     C66717   6.961   3.066   7.317  0.6672  1.2818 -0.4001
  495MOL0     C66718   7.092   2.982   7.309  1.2374  0.0364 -0.0433
  495MOL0     C66719   6.834   3.019   7.264 -0.8904  0.7090 -1.1489
  495MOL0     C66720   6.811   2.900   7.177 -0.0654  0.0786 -0.1777
  495MOL0     O66721   6.687   2.893   7.120  0.2822  0.6618  0.3991
  495MOL0     C66722   6.666   2.801   7.024 -0.8574  0.3491 -0.0125
  495MOL0     C66723   6.645   2.663   7.056 -0.0974 -0.2645 -0.6111
  495MOL0     C66724   6.632   2.567   6.951  0.8988 -1.7834 -0.4569
  495MOL0     C66725   6.647   2.613   6.824  0.4528  0.6075 -0.1508
  495MOL0     O66726   6.640   2.516   6.726 -0.1214  0.0617  0.0389
  495MOL0     C66727   6.719   2.533   6.605 -0.3124 -0.1721 -0.9923
  495MOL0     C66728   6.643   2.553   6.471 -0.0045  0.1845  0.9730
  495MOL0     C66729   6.512   2.471   6.452 -0.4149 -0.4713  0.0886
  495MOL0     C66730   6.535   2.316   6.443  0.1624 -0.5013  0.6675
  495MOL0     C66731   6.406   2.233   6.429  0.3595  0.3697  0.4890
  495MOL0     C66732   6.322   2.231   6.555  0.5563  0.4107 -0.1426
  495MOL0     C66733   6.402   2.170   6.670  0.4936  0.6475 -0.0442
  495MOL0     C66734   6.327   2.116   6.799 -0.4087 -0.0764  0.6307
  495MOL0    Cl66735   6.231   1.979   6.758 -0.2579 -0.1098 -0.6541
  495MOL0     C66736   6.679   2.743   6.793  0.3458 -0.4995 -0.5320
  495MOL0     C66737   6.678   2.843   6.890  0.2640  0.6529  0.4070
  495MOL0     O66738   6.908   2.834   7.139  0.2179 -0.5695  0.1742
  495MOL0     C66739   6.724   3.094   7.300 -0.1508  0.6477  0.3001
  495MOL0     C66740   6.738   3.214   7.364  0.2508 -0.0545  0.1082
  495MOL0     N66741   6.910   3.578   8.190  0.1970 -0.5093 -0.0070
  495MOL0     N66742   6.822   3.639   8.262 -0.3707 -0.3701 -0.5678
  495MOL0     C66743   6.996   4.007   9.022  0.3003 -0.0298 -0.6785
  495MOL0     C66744   7.051   3.957   9.140 -0.1129  0.5696 -0.7511
  495MOL0     C66745   7.085   3.868   9.587  0.4591  0.6260  0.1212
  495MOL0     C66746   7.216   3.846   9.630  0.1707 -1.0649 -1.0011
  495MOL0     C66747   7.243   3.797   9.759  0.8322  0.4225 -0.3170
  495MOL0     C66748   7.138   3.794   9.857 -0.2679  0.1275 -0.3035
  495MOL0     O66749   7.168   3.772   9.991 -0.1021  0.1958 -0.2588
  495MOL0     C66750   7.109   3.863  10.078 -0.3673  0.2620  0.5071
  495MOL0     C66751   7.168   3.831  10.221  0.4016 -0.0763 -0.3848
  495MOL0     C66752   7.183   3.683  10.261 -0.1985 -0.0138  0.6316
  495MOL0     C66753   7.038   3.615  10.267  0.2095  0.6958 -0.6803
  495MOL0     C66754   6.967   3.676  10.384 -0.5416 -0.2868  0.1260
  495MOL0     C66755   6.922   3.736  10.483  0.0058  0.0245  0.0309
  495MOL0     C66756   7.011   3.827   9.811 -0.4289 -0.3351  0.1339
  495MOL0     C66757   6.984   3.859   9.680  0.3725 -0.4698 -0.2536
  495MOL0     H66758   7.095   4.230   9.323  0.9022 -0.8920 -0.5471
  495MOL0     H66759   7.019   4.336   9.113 -0.3945 -0.1854 -1.0717
  495MOL0     H66760   6.762   4.107   8.879 -0.8552  0.7922 -2.4890
  495MOL0     H66761   6.743   4.280   8.863 -0.0267  0.6691  2.1447
  495MOL0     H66762   6.694   4.196   8.658 -0.3929 -1.6314  2.4307
  495MOL0     H66763   6.839   4.278   8.640 -1.1879  0.7479 -0.0141
  495MOL0     H66764   6.982   4.078   8.650 -0.1960  1.1594  3.5587
  495MOL0     H66765   6.830   3.987   8.676 -0.0025 -1.0545 -1.2859
  495MOL0     H66766   6.902   4.146   8.418  1.1212  0.9317  1.7265
  495MOL0     H66767   6.946   3.984   8.455 -0.6456 -0.7480 -2.6846
  495MOL0     H66768   6.723   3.901   8.469  3.3074 -0.5562 -1.6818
  495MOL0     H66769   6.660   4.074   8.456 -3.5597 -2.2388 -1.7829
  495MOL0     H66770   6.753   4.103   8.234  0.0551 -1.2504 -2.6937
  495MOL0     H66771   6.831   3.941   8.252 -0.1132 -1.2546 -1.6653
  495MOL0     H66772   6.533   3.984   8.232  1.2347  0.4995  3.5072
  495MOL0     H66773   6.649   3.972   8.101 -0.6252  0.6180  0.2276
  495MOL0     H66774   6.541   3.746   8.145  2.3994 -1.9530 -2.6506
  495MOL0     H66775   6.591   3.764   8.319 -2.8173 -1.3822 -0.1352
  495MOL0     H66776   6.734   3.739   7.967  0.7776 -1.8359 -2.2360
  495MOL0     H66777   7.000   3.660   7.893 -1.7713  0.5772 -0.1311
  495MOL0     H66778   7.046   3.507   7.964 -0.2097 -0.0803 -0.0862
  495MOL0     H66779   6.780   3.561   7.833 -0.9405 -1.7061  3.4712
  495MOL0     H66780   6.853   3.398   7.869 -2.5875  0.9080  1.7440
  495MOL0     H66781   7.019   3.492   7.666 -0.7554  1.3905 -2.0014
  495MOL0     H66782   6.865   3.569   7.623  0.7092  0.4327 -0.1472
  495MOL0     H66783   6.755   3.341   7.629 -1.2362 -1.2234 -0.4714
  495MOL0     H66784   6.919   3.275   7.651 -0.7078  1.1605  0.9127
  495MOL0     H66785   7.064   3.220   7.415  0.4856 -3.3518  1.8941
  495MOL0     H66786   7.173   3.027   7.368 -0.6746  1.1199  1.8985
  495MOL0     H66787   7.068   2.877   7.328  1.2549 -0.0806 -0.6612
  495MOL0     H66788   7.123   2.985   7.204  0.9979 -1.7616 -0.1998
  495MOL0     H66789   6.641   2.638   7.161 -1.3689 -0.6369 -0.7290
  495MOL0     H66790   6.624   2.466   6.990  1.3697 -1.1970  1.2758
  495MOL0     H66791   6.789   2.616   6.618  0.3166 -0.2534 -3.2712
  495MOL0     H66792   6.781   2.443   6.599 -2.9898 -2.3434  1.4712
  495MOL0     H66793   6.610   2.657   6.463  2.3382  0.8373 -1.8896
  495MOL0     H66794   6.712   2.523   6.391 -2.5274 -0.2022 -1.2262
  495MOL0     H66795   6.475   2.515   6.359  2.1685  0.0124 -0.8074
  495MOL0     H66796   6.445   2.495   6.535  0.5680 -1.1434  1.1041
  495MOL0     H66797   6.601   2.305   6.356 -1.1307 -0.0733 -0.4056
  495MOL0     H66798   6.593   2.281   6.529  0.7065  0.8193  0.8560
  495MOL0     H66799   6.427   2.128   6.405  2.6001  0.9613 -0.4295
  495MOL0     H66800   6.339   2.275   6.353  1.4954  0.9410 -0.2204
  495MOL0     H66801   6.303   2.337   6.578  0.0556  1.1903 -3.6839
  495MOL0     H66802   6.231   2.174   6.532  1.1677  0.2918 -2.4654
  495MOL0     H66803   6.463   2.256   6.700  0.7771  1.5266 -2.9154
  495MOL0     H66804   6.463   2.086   6.636  0.2938 -0.0119  1.1409
  495MOL0     H66805   6.282   2.200   6.852 -0.3729 -1.8298  3.6482
  495MOL0     H66806   6.393   2.073   6.876  2.2500 -0.7761 -1.8463
  495MOL0     H66807   6.697   2.777   6.691  0.7665 -1.1814 -0.6920
  495MOL0     H66808   6.696   2.947   6.863 -2.5821  0.8596 -1.0881
  495MOL0     H66809   6.622   3.062   7.281  0.2926  0.5021 -2.1916
  495MOL0     H66810   6.655   3.273   7.401 -1.2652 -2.0192  0.0200
  495MOL0     H66811   6.989   3.934   8.941 -0.4001 -0.2960 -0.3830
  495MOL0     H66812   7.061   3.850   9.159 -2.1277  0.5934  0.7573
  495MOL0     H66813   7.300   3.862   9.563 -0.2443 -0.1085 -1.3114
  495MOL0     H66814   7.345   3.792   9.797  1.1060  4.5604 -0.0137
  495MOL0     H66815   7.141   3.967  10.060 -0.3180 -0.0208 -1.2517
  495MOL0     H66816   7.002   3.846  10.083 -1.0360  3.8950  1.6398
  495MOL0     H66817   7.112   3.882  10.299 -2.0606 -2.5848 -0.3252
  495MOL0     H66818   7.265   3.879  10.231  0.3207 -0.2372  1.6673
  495MOL0     H66819   7.240   3.683  10.355 -0.1575  5.7363  0.9574
  495MOL0     H66820   7.252   3.649  10.183  0.5407  3.8013 -0.5794
  495MOL0     H66821   7.026   3.507  10.282  3.4839  0.0659 -1.7970
  495MOL0     H66822   6.976   3.641  10.181 -1.7656  1.3483  0.8699
  495MOL0     H66823   6.882   3.794  10.564  1.9207 -2.3172  2.8654
  495MOL0     H66824   6.937   3.841   9.890 -3.5118 -1.2016 -2.3948
  495MOL0     H66825   6.884   3.885   9.646  1.2779  0.8080 -2.1675
  496MOL0     O66826   9.593   1.206   2.006 -1.0255 -0.1053 -0.0456
  496MOL0     C66827   9.535   1.213   1.899 -0.5123  0.8284 -0.1893
  496MOL0     O66828   9.436   1.118   1.855 -0.3712 -0.0835 -0.4238
  496MOL0     C66829   9.365   1.041   1.952 -0.2640 -0.6256  1.0656
  496MOL0     C66830   9.415   0.915   2.000 -0.5851 -0.4680 -0.8555
  496MOL0     C66831   9.357   0.854   2.107 -0.0369 -0.6712 -0.7581
  496MOL0     C66832   9.228   0.893   2.147  0.5918  0.0295 -0.5006
  496MOL0     O66833   9.157   0.831   2.249 -0.1481 -0.2102  0.7584
  496MOL0     C66834   9.213   0.844   2.378  0.2522  1.0783 -0.3591
  496MOL0     C66835   9.223   0.984   2.441  0.4102  0.0152 -0.0765
  496MOL0     C66836   9.229   0.987   2.601  0.4069 -0.0006 -0.7831
  496MOL0     C66837   9.257   1.120   2.666 -0.0239 -0.4194 -0.0785
  496MOL0     C66838   9.196   1.127   2.801 -0.1201  0.6755 -0.3565
  496MOL0     C66839   9.223   1.014   2.899  0.5532 -0.5262  0.1511
  496MOL0     C66840   9.372   0.992   2.912  0.2561  0.0522 -1.4982
  496MOL0     C66841   9.409   0.878   3.018  0.9170  0.1498  0.4098
  496MOL0     N66842   9.547   0.876   3.052 -0.2827 -0.1220  0.3863
  496MOL0     C66843   9.591   0.836   3.180  0.0946 -0.3419  0.3342
  496MOL0     C66844   9.724   0.831   3.175  0.3514 -0.7938 -0.7813
  496MOL0     C66845   9.806   0.806   3.294  0.3436  0.7670 -0.3463
  496MOL0     C66846   9.862   0.665   3.315  0.2626 -0.8978 -0.1717
  496MOL0     C66847   9.758   0.555   3.357  0.8383 -0.0207  0.3261
  496MOL0     C66848   9.810   0.413   3.325  0.0064 -0.2535  0.3340
  496MOL0     O66849   9.866   0.395   3.196 -0.5402 -0.2847  0.6363
  496MOL0     C66850   9.788   0.344   3.107  0.2671 -0.4151 -0.1987
  496MOL0     C66851   9.695   0.431   3.047 -0.5912  0.2005  1.2253
  496MOL0     C66852   9.608   0.389   2.946 -0.2668 -0.4703 -0.2219
  496MOL0     C66853   9.506   0.485   2.900  0.6935 -0.1527 -0.7890
  496MOL0     C66854   9.614   0.244   2.910 -0.3425 -1.3926  0.3843
  496MOL0     C66855   9.508   0.172   2.829  0.3539 -0.5565 -0.2289
  496MOL0     O66856   9.531   0.030   2.820 -0.6676 -0.8528 -0.0073
  496MOL0     C66857   9.467  -0.043   2.723 -0.2118 -1.0511 -0.7609
  496MOL0     C66858   9.374  -0.142   2.759  0.1955  0.0594 -0.6176
  496MOL0     C66859   9.321  -0.224   2.669  0.7792  0.6263 -0.3302
  496MOL0     C66860   9.332  -0.187   2.531  0.4254  0.1555  0.4583
  496MOL0     O66861   9.267  -0.276   2.448 -0.8364  0.1483 -0.0103
  496MOL0     C66862   9.318  -0.273   2.310  0.4085 -0.3542 -0.3328
  496MOL0     C66863   9.223  -0.346   2.209  1.0726 -0.1267  0.2759
  496MOL0     C66864   9.229  -0.491   2.212  0.8995  0.5238 -0.1483
  496MOL0     C66865   9.144  -0.560   2.098 -0.0097 -0.2333 -0.0168
  496MOL0     C66866   9.164  -0.716   2.094  0.4099 -1.2174 -0.0995
  496MOL0     C66867   9.293  -0.754   2.036  0.3061 -0.0978  1.1455
  496MOL0     C66868   9.331  -0.895   2.067  0.7423  0.7591  0.4510
  496MOL0     C66869   9.262  -1.007   1.989 -0.0824 -0.4756  0.0948
  496MOL0    Cl66870   9.095  -1.033   2.043  0.1583 -0.2856 -0.4646
  496MOL0     C66871   9.411  -0.082   2.495  0.6881  0.2566 -0.4150
  496MOL0     C66872   9.483  -0.014   2.591 -0.1964 -0.3590 -0.2089
  496MOL0     O66873   9.411   0.237   2.790  0.0743  0.3940  0.1674
  496MOL0     C66874   9.718   0.173   2.965 -0.5920 -0.1572  0.0947
  496MOL0     C66875   9.806   0.220   3.062 -0.5025  0.9666 -0.3725
  496MOL0     N66876   9.764   0.855   3.042  0.1300 -0.0620  0.1314
  496MOL0     N66877   9.661   0.878   2.970 -0.0724  0.0242  0.1690
  496MOL0     C66878   9.166   1.006   2.093 -0.2753 -0.8504 -0.2458
  496MOL0     C66879   9.239   1.087   2.002 -0.4601  0.3842 -0.0328
  496MOL0     C66880   9.572   1.335   1.819 -0.6967  0.0476 -0.3221
  496MOL0     C66881   9.711   1.365   1.794 -0.1854 -0.0121 -0.3821
  496MOL0     C66882   9.752   1.491   1.732  0.0168  0.0668  0.9572
  496MOL0     C66883   9.655   1.585   1.700 -1.2748  0.7444 -0.6488
  496MOL0     O66884   9.716   1.704   1.664  0.1532 -0.3270  0.3145
  496MOL0     C66885   9.630   1.792   1.591  0.0607  0.1542  0.8874
  496MOL0     C66886   9.604   1.734   1.450 -0.4425 -0.1326 -0.3111
  496MOL0     C66887   9.730   1.758   1.359  0.7661  0.3679 -0.1306
  496MOL0     C66888   9.737   1.891   1.296  0.3188  0.4761  0.6320
  496MOL0     C66889   9.744   2.013   1.363 -0.1291  0.2456 -0.0480
  496MOL0     C66890   9.760   2.127   1.416 -0.1359 -0.2820  0.2254
  496MOL0     C66891   9.519   1.556   1.728 -0.0019 -0.3083 -0.4999
  496MOL0     C66892   9.480   1.433   1.772  0.5799 -0.0433 -0.2154
  496MOL0     H66893   9.513   0.884   1.967  1.2666  1.1810  2.5325
  496MOL0     H66894   9.412   0.767   2.142  0.4878 -0.1593 -0.2858
  496MOL0     H66895   9.168   0.771   2.446  2.3278 -0.1493 -0.2138
  496MOL0     H66896   9.318   0.813   2.375 -0.2928 -0.8596 -2.0068
  496MOL0     H66897   9.316   1.033   2.409  1.6903 -1.3486  1.3690
  496MOL0     H66898   9.139   1.041   2.400 -0.3279 -1.6477 -0.9447
  496MOL0     H66899   9.136   0.944   2.638  0.9423  0.7523  1.6104
  496MOL0     H66900   9.310   0.924   2.637  0.3373  1.5987  2.5023
  496MOL0     H66901   9.365   1.137   2.670 -0.3330  1.5084  1.1307
  496MOL0     H66902   9.213   1.207   2.617  0.7105 -0.6413 -1.1892
  496MOL0     H66903   9.231   1.217   2.854  0.6969 -0.2462  0.7268
  496MOL0     H66904   9.087   1.128   2.795 -0.4506  2.5417  3.0418
  496MOL0     H66905   9.187   1.029   3.002  0.9824 -2.2927  0.5930
  496MOL0     H66906   9.171   0.923   2.865  0.7221 -1.8230  3.0159
  496MOL0     H66907   9.417   0.956   2.819 -0.8815 -0.2368 -1.9444
  496MOL0     H66908   9.420   1.087   2.939 -0.3132 -0.5423  2.2131
  496MOL0     H66909   9.384   0.781   2.974 -3.2893  1.5614 -0.8539
  496MOL0     H66910   9.367   0.899   3.117  1.8069 -1.6451  1.2104
  496MOL0     H66911   9.538   0.825   3.274 -0.4735  1.2211  0.2218
  496MOL0     H66912   9.899   0.864   3.300  1.1933 -0.5959 -0.0773
  496MOL0     H66913   9.751   0.850   3.377  2.1013  0.0587  1.2658
  496MOL0     H66914   9.944   0.672   3.387  0.4324  3.2890 -0.5468
  496MOL0     H66915   9.908   0.624   3.225 -0.7266 -1.2695 -0.5237
  496MOL0     H66916   9.665   0.572   3.301  1.7758  0.8907 -0.9910
  496MOL0     H66917   9.734   0.567   3.463  2.4312  0.1728  0.6883
  496MOL0     H66918   9.729   0.340   3.336 -1.1364  0.6941 -1.3934
  496MOL0     H66919   9.883   0.401   3.406 -1.6017  1.2696  2.1111
  496MOL0     H66920   9.704   0.538   3.061  1.4908 -0.1517  3.0202
  496MOL0     H66921   9.526   0.586   2.937  2.4008 -0.4769 -0.7563
  496MOL0     H66922   9.498   0.498   2.792 -0.6372 -2.5369 -1.0388
  496MOL0     H66923   9.408   0.467   2.945  0.8040  3.5625  1.4163
  496MOL0     H66924   9.344  -0.149   2.863 -1.6208 -1.7442 -1.2114
  496MOL0     H66925   9.244  -0.294   2.700  0.2592  0.4328 -1.9543
  496MOL0     H66926   9.327  -0.168   2.282  0.6805 -0.2434  0.1482
  496MOL0     H66927   9.413  -0.326   2.313  0.6195  0.0371  0.9949
  496MOL0     H66928   9.118  -0.317   2.208  1.4477  1.4551 -1.8764
  496MOL0     H66929   9.263  -0.319   2.110  2.7983  0.6074  1.1372
  496MOL0     H66930   9.197  -0.529   2.309 -0.3968 -2.8550 -1.7439
  496MOL0     H66931   9.334  -0.521   2.212  0.6606 -0.3333  0.3533
  496MOL0     H66932   9.039  -0.533   2.114 -0.4154 -1.9055  0.3707
  496MOL0     H66933   9.176  -0.525   2.000 -1.9798 -1.3056 -1.1133
  496MOL0     H66934   9.074  -0.747   2.041 -1.5739  2.9330  0.4774
  496MOL0     H66935   9.157  -0.752   2.197  1.0813  2.2416  1.2850
  496MOL0     H66936   9.293  -0.726   1.930 -1.2683 -2.1912  0.5105
  496MOL0     H66937   9.375  -0.692   2.072  0.7074  0.8167 -1.1653
  496MOL0     H66938   9.304  -0.910   2.172 -1.7170  0.0793 -0.2126
  496MOL0     H66939   9.439  -0.912   2.063  0.4605 -3.2051  3.0759
  496MOL0     H66940   9.318  -1.100   2.005 -0.9402 -0.6608  2.4888
  496MOL0     H66941   9.268  -0.980   1.884 -0.6580  1.7251  0.5637
  496MOL0     H66942   9.424  -0.052   2.392 -1.7491  0.7897 -0.6321
  496MOL0     H66943   9.554   0.064   2.568 -1.6449  1.3117  0.7839
  496MOL0     H66944   9.729   0.067   2.944 -3.8828 -0.4748 -0.5676
  496MOL0     H66945   9.887   0.159   3.102 -3.0574 -1.3141  1.6648
  496MOL0     H66946   9.068   1.046   2.119  0.3525 -0.2369  1.3025
  496MOL0     H66947   9.210   1.183   1.961  1.8686  1.2485  0.1634
  496MOL0     H66948   9.766   1.285   1.842 -0.9731 -0.5656 -0.3772
  496MOL0     H66949   9.852   1.526   1.710 -0.5571 -0.2772 -2.7983
  496MOL0     H66950   9.528   1.802   1.631  0.0978  1.8845  0.6273
  496MOL0     H66951   9.679   1.889   1.598 -1.1920  0.7347  2.1653
  496MOL0     H66952   9.509   1.769   1.408 -0.5584 -1.8828 -1.6102
  496MOL0     H66953   9.600   1.626   1.466  0.7296 -0.0995  0.2929
  496MOL0     H66954   9.708   1.684   1.282 -2.2131  0.6313  0.3616
  496MOL0     H66955   9.824   1.751   1.416  1.8487  0.6860 -1.8064
  496MOL0     H66956   9.658   1.893   1.221 -2.4998 -3.5015  3.0765
  496MOL0     H66957   9.827   1.895   1.234  2.4632 -2.3017  3.2438
  496MOL0     H66958   9.770   2.208   1.485 -0.4749 -0.6894  0.7586
  496MOL0     H66959   9.442   1.630   1.711  2.5856  2.3695 -1.4609
  496MOL0     H66960   9.374   1.421   1.794  1.0449  1.2876  3.5445
  497MOL0     O66961   2.969   7.888   3.759  0.2333  0.3449 -0.1025
  497MOL0     C66962   2.889   7.821   3.682 -0.8270  0.4152 -0.5089
  497MOL0     O66963   2.819   7.877   3.577  0.3018 -0.1235  0.3603
  497MOL0     C66964   2.806   8.011   3.565  1.2931 -0.8911 -0.8079
  497MOL0     C66965   2.808   8.065   3.435 -1.0003 -0.4140  0.3582
  497MOL0     C66966   2.768   8.200   3.418 -1.1923  0.6235  0.3303
  497MOL0     C66967   2.747   8.290   3.525  0.7459 -0.3570 -0.9024
  497MOL0     O66968   2.742   8.425   3.512 -0.1248  0.2303  0.0477
  497MOL0     C66969   2.750   8.489   3.384  0.7343 -0.6353  1.3080
  497MOL0     C66970   2.888   8.497   3.316 -0.3505  0.2140 -0.5117
  497MOL0     C66971   2.942   8.641   3.318 -0.4637  0.4337  0.4528
  497MOL0     C66972   3.079   8.663   3.259 -0.3335 -0.1068  0.0586
  497MOL0     C66973   3.176   8.726   3.360  0.6518  1.2187  0.6685
  497MOL0     C66974   3.324   8.737   3.299 -1.0431  0.7064  0.2142
  497MOL0     C66975   3.401   8.794   3.416  0.2145 -0.8663 -0.0749
  497MOL0     C66976   3.553   8.831   3.386  0.6818 -0.5313 -0.0608
  497MOL0     N66977   3.628   8.895   3.496  0.1773  0.6047  0.3503
  497MOL0     C66978   3.710   8.825   3.580 -0.5443  0.6874 -0.5222
  497MOL0     C66979   3.749   8.918   3.676 -0.5524 -0.6351  0.1382
  497MOL0     C66980   3.838   8.900   3.800  0.5066 -0.3212 -0.2147
  497MOL0     C66981   3.785   8.861   3.942 -0.6780  0.1979  0.7027
  497MOL0     C66982   3.904   8.823   4.031  0.3162  0.7310  0.1435
  497MOL0     C66983   3.843   8.788   4.171  0.5370 -0.4112 -0.1628
  497MOL0     O66984   3.909   8.853   4.284  0.5456 -0.0102  0.0730
  497MOL0     C66985   4.036   8.800   4.321 -0.1229 -0.1672  0.6900
  497MOL0     C66986   4.093   8.688   4.259 -0.8241 -0.0441 -0.2362
  497MOL0     C66987   4.213   8.640   4.320 -0.6490  0.3722 -0.5494
  497MOL0     C66988   4.260   8.515   4.248 -0.0430 -0.1515 -0.6398
  497MOL0     C66989   4.291   8.700   4.417  0.1279  0.7056  0.2685
  497MOL0     C66990   4.406   8.632   4.490  0.3878  0.4038  0.8644
  497MOL0     O66991   4.425   8.499   4.475 -0.0415  0.3122  0.2011
  497MOL0     C66992   4.527   8.449   4.562  0.2349 -0.5947 -0.1562
  497MOL0     C66993   4.660   8.489   4.555 -0.6295  0.6850  0.4213
  497MOL0     C66994   4.751   8.461   4.656  0.4247  0.6687 -1.1697
  497MOL0     C66995   4.710   8.384   4.764  0.2673  0.2329  0.5913
  497MOL0     O66996   4.809   8.349   4.853 -0.5077 -0.0532 -0.5301
  497MOL0     C66997   4.783   8.244   4.951 -1.0488 -0.2610  0.3364
  497MOL0     C66998   4.889   8.219   5.042 -0.2618  0.5065  0.1847
  497MOL0     C66999   4.924   8.336   5.146 -0.2830 -0.4381  0.1507
  497MOL0     C67000   5.056   8.314   5.212  0.9150  0.4958  0.6376
  497MOL0     C67001   5.088   8.396   5.337 -0.3860  0.6005  0.8255
  497MOL0     C67002   5.017   8.336   5.462  0.2608  0.2256  0.6313
  497MOL0     C67003   5.062   8.400   5.593  0.2899  0.1641 -0.3658
  497MOL0     C67004   5.019   8.543   5.637  0.3867 -0.1671 -0.5118
  497MOL0    Cl67005   5.062   8.557   5.810 -0.0698 -0.4892  0.2442
  497MOL0     C67006   4.576   8.343   4.770  0.6470 -0.2317  0.1270
  497MOL0     C67007   4.490   8.399   4.681  0.4861  0.7777  0.8409
  497MOL0     O67008   4.473   8.709   4.560  0.1909  0.4495  0.2081
  497MOL0     C67009   4.235   8.812   4.470 -0.7149  0.4494  0.5234
  497MOL0     C67010   4.107   8.860   4.424 -0.1329 -0.4760  1.4129
  497MOL0     N67011   3.697   9.038   3.635 -0.5786  0.0488  0.4586
  497MOL0     N67012   3.622   9.023   3.528 -0.0815  0.1770  0.3017
  497MOL0     C67013   2.743   8.240   3.653  0.1919 -0.2621  0.3537
  497MOL0     C67014   2.764   8.107   3.674 -0.9453 -0.5259 -0.1700
  497MOL0     C67015   2.873   7.679   3.707  0.2748 -0.5251 -0.9703
  497MOL0     C67016   2.828   7.593   3.607  0.0898 -0.1146  0.5200
  497MOL0     C67017   2.828   7.461   3.629 -0.9499 -0.1250 -0.5450
  497MOL0     C67018   2.839   7.414   3.762  0.1263  0.2555 -0.9472
  497MOL0     O67019   2.819   7.280   3.784  0.2123  0.0388 -0.7355
  497MOL0     C67020   2.889   7.177   3.712  0.6143 -0.1545  0.5270
  497MOL0     C67021   2.824   7.124   3.579  1.0220  0.1879  0.6364
  497MOL0     C67022   2.680   7.066   3.617  0.2095 -0.9156  0.1432
  497MOL0     C67023   2.620   6.965   3.531 -0.4986 -0.6650  0.0328
  497MOL0     C67024   2.705   6.844   3.521 -0.6602 -0.8959 -0.4364
  497MOL0     C67025   2.783   6.748   3.529  0.0950  0.6710  0.7721
  497MOL0     C67026   2.868   7.502   3.866  1.0469  0.9645 -0.3584
  497MOL0     C67027   2.897   7.638   3.836  0.2781 -1.6154  0.1579
  497MOL0     H67028   2.832   8.012   3.344 -2.8445 -0.7529  0.0329
  497MOL0     H67029   2.775   8.234   3.315 -0.4656  2.6589  1.0173
  497MOL0     H67030   2.691   8.431   3.313  2.8164  2.9938 -4.1079
  497MOL0     H67031   2.712   8.592   3.387  0.1099 -0.8278  0.4171
  497MOL0     H67032   2.965   8.423   3.339  0.3165  0.5130 -1.7024
  497MOL0     H67033   2.855   8.478   3.213 -1.4017 -2.1909  0.1964
  497MOL0     H67034   2.873   8.692   3.251 -2.3959 -2.2369  0.3025
  497MOL0     H67035   2.925   8.677   3.420 -3.6000 -0.7096  0.4326
  497MOL0     H67036   3.125   8.572   3.218 -1.4871 -1.3501  1.3887
  497MOL0     H67037   3.093   8.732   3.176 -2.2076 -0.2959 -0.4653
  497MOL0     H67038   3.141   8.827   3.383 -3.3121 -0.0518  0.8678
  497MOL0     H67039   3.191   8.668   3.452  2.1590  1.8484  0.8595
  497MOL0     H67040   3.352   8.632   3.284  0.1048  0.3281  3.9672
  497MOL0     H67041   3.329   8.798   3.209  2.1290  0.2396 -0.0182
  497MOL0     H67042   3.346   8.881   3.453  1.8883 -0.1655  0.8703
  497MOL0     H67043   3.400   8.718   3.495 -1.5094 -0.4319  0.3729
  497MOL0     H67044   3.543   8.902   3.304  2.2997  1.3319  1.2875
  497MOL0     H67045   3.601   8.733   3.378  0.6574 -0.4895 -0.6918
  497MOL0     H67046   3.741   8.722   3.566 -0.2942  0.9700 -2.2359
  497MOL0     H67047   3.910   8.822   3.775 -0.9810 -1.5149 -0.8920
  497MOL0     H67048   3.893   8.992   3.820  1.2733 -1.0252  1.0330
  497MOL0     H67049   3.720   8.773   3.948  2.0622 -1.9606  0.4937
  497MOL0     H67050   3.724   8.941   3.986 -0.6298 -0.7006  2.4830
  497MOL0     H67051   3.978   8.904   4.034  0.4944  0.5561  2.6864
  497MOL0     H67052   3.954   8.735   3.991 -1.5073 -0.8694  1.2209
  497MOL0     H67053   3.839   8.682   4.196 -1.5928  0.2884  3.1381
  497MOL0     H67054   3.738   8.820   4.170 -0.6993 -3.8441  1.9900
  497MOL0     H67055   4.065   8.635   4.169  0.0805 -3.5651  1.4007
  497MOL0     H67056   4.209   8.496   4.153 -2.2689  1.1787  0.2054
  497MOL0     H67057   4.364   8.542   4.228  0.1725  1.1385  1.8896
  497MOL0     H67058   4.239   8.432   4.316  2.0849  0.4108  0.7670
  497MOL0     H67059   4.696   8.555   4.476 -0.1545 -1.4874 -1.2948
  497MOL0     H67060   4.855   8.492   4.656  1.1863 -1.6858 -0.1935
  497MOL0     H67061   4.687   8.257   5.003 -1.4884 -3.2471  0.4517
  497MOL0     H67062   4.781   8.150   4.894  2.8712 -2.9953  4.0773
  497MOL0     H67063   4.858   8.130   5.097 -0.6969  0.0890 -0.7283
  497MOL0     H67064   4.975   8.197   4.978  2.1776  0.3095  3.2474
  497MOL0     H67065   4.846   8.332   5.222 -2.0436 -3.2370 -1.6254
  497MOL0     H67066   4.923   8.435   5.100 -1.5356  0.3522  1.7617
  497MOL0     H67067   5.061   8.208   5.238 -4.2470 -0.3255 -0.6413
  497MOL0     H67068   5.132   8.334   5.135 -1.0181  1.3087 -1.1465
  497MOL0     H67069   5.057   8.499   5.319 -1.5549  0.4386  1.7281
  497MOL0     H67070   5.196   8.402   5.355  0.4706 -1.6501 -2.6483
  497MOL0     H67071   4.909   8.339   5.450  0.3291  0.8842  0.1626
  497MOL0     H67072   5.048   8.231   5.461 -0.8072 -0.1116 -1.0598
  497MOL0     H67073   5.170   8.387   5.603  0.7890  1.5126 -3.0382
  497MOL0     H67074   5.013   8.332   5.664 -2.2783 -2.6219 -4.3561
  497MOL0     H67075   4.913   8.557   5.615 -0.2015 -0.9641  1.6201
  497MOL0     H67076   5.081   8.616   5.584  0.7197  0.5390  0.8212
  497MOL0     H67077   4.538   8.284   4.854  3.3479  0.0573  1.6769
  497MOL0     H67078   4.382   8.399   4.691  0.5885  0.7201  2.1104
  497MOL0     H67079   4.275   8.865   4.555 -2.1046 -0.9512  2.1347
  497MOL0     H67080   4.060   8.934   4.487 -1.6206  1.2638 -1.4893
  497MOL0     H67081   2.733   8.300   3.743  4.1667 -0.2535  0.9939
  497MOL0     H67082   2.745   8.067   3.773  0.2060  1.3500  0.8658
  497MOL0     H67083   2.831   7.625   3.503 -1.6150 -0.7857  0.2295
  497MOL0     H67084   2.819   7.397   3.541  0.8001 -0.9994 -0.1343
  497MOL0     H67085   2.987   7.221   3.693  0.7264 -0.4297  0.4643
  497MOL0     H67086   2.898   7.092   3.779 -2.0805  0.5580  1.9336
  497MOL0     H67087   2.885   7.041   3.541 -0.7148 -1.4402  1.2229
  497MOL0     H67088   2.816   7.203   3.503  1.4709 -0.5686 -0.2240
  497MOL0     H67089   2.605   7.146   3.625 -0.5607 -1.3995 -1.6062
  497MOL0     H67090   2.685   7.037   3.722 -1.3462  0.7957  0.7546
  497MOL0     H67091   2.613   7.012   3.433  1.7366  0.9485  0.5760
  497MOL0     H67092   2.527   6.935   3.581  0.6915 -0.7311  2.3255
  497MOL0     H67093   2.843   6.660   3.539 -2.2627 -0.9534  1.1846
  497MOL0     H67094   2.877   7.448   3.959  3.6807  2.3520  0.2682
  497MOL0     H67095   2.933   7.701   3.916 -1.0492  1.0941 -1.2174
  498MOL0     O67096   6.883   9.897   9.117 -0.1844  0.3050  0.7813
  498MOL0     C67097   6.976   9.862   9.183 -0.3288  1.1235  0.0584
  498MOL0     O67098   7.039   9.936   9.285  0.2151  0.2300  0.0263
  498MOL0     C67099   7.011  10.068   9.297 -0.2459  0.6254 -0.2302
  498MOL0     C67100   6.996  10.116   9.424  0.3392 -0.6969  0.6786
  498MOL0     C67101   6.967  10.249   9.447 -0.2175  0.6456  0.5801
  498MOL0     C67102   6.949  10.339   9.340 -0.0986  0.1999 -0.2821
  498MOL0     O67103   6.894  10.464   9.358 -0.1143 -0.3409  0.1101
  498MOL0     C67104   6.985  10.569   9.317  0.2916  0.9801  0.1855
  498MOL0     C67105   6.918  10.702   9.340  0.2335  0.1052 -0.7546
  498MOL0     C67106   6.837  10.735   9.220 -1.5405 -0.4761  0.6531
  498MOL0     C67107   6.807  10.889   9.197 -0.5558 -0.9247  0.5115
  498MOL0     C67108   6.720  10.930   9.078 -0.5982  0.0292 -0.1475
  498MOL0     C67109   6.572  10.881   9.097 -0.3662  0.5156  0.1158
  498MOL0     C67110   6.484  10.957   9.000 -0.3429  0.2777  0.5957
  498MOL0     C67111   6.454  11.109   9.035 -0.7331 -0.1716 -0.5388
  498MOL0     N67112   6.416  11.186   8.917 -0.2968 -0.1662 -0.4327
  498MOL0     C67113   6.490  11.272   8.841  0.3403  0.2405 -1.3000
  498MOL0     C67114   6.407  11.308   8.741 -0.6714 -1.2688 -1.0092
  498MOL0     C67115   6.445  11.406   8.625 -1.5222  0.3239  0.2432
  498MOL0     C67116   6.333  11.478   8.553  0.2495  0.1364 -0.5919
  498MOL0     C67117   6.256  11.387   8.466 -0.7417 -0.0792  0.2034
  498MOL0     C67118   6.170  11.469   8.386 -0.1552  0.3837  0.3843
  498MOL0     O67119   6.096  11.403   8.284  0.9368  0.7724  0.2515
  498MOL0     C67120   5.983  11.463   8.250 -0.0648  0.8680 -0.0610
  498MOL0     C67121   5.888  11.390   8.194  0.1606 -0.5535  0.6810
  498MOL0     C67122   5.769  11.442   8.141  0.0592  0.2597 -0.2000
  498MOL0     C67123   5.666  11.344   8.088 -0.2173  0.4727  0.2379
  498MOL0     C67124   5.742  11.586   8.152  0.0060 -0.0667 -0.0445
  498MOL0     C67125   5.633  11.658   8.080  0.3949 -0.2395 -0.1490
  498MOL0     O67126   5.556  11.588   7.984  0.0632 -0.1376 -0.3939
  498MOL0     C67127   5.454  11.641   7.917  0.6824  0.2587 -0.1474
  498MOL0     C67128   5.473  11.762   7.861 -0.0309 -0.9468  0.0554
  498MOL0     C67129   5.384  11.824   7.782 -0.4385  0.6424  0.1209
  498MOL0     C67130   5.270  11.745   7.738 -1.1244  0.3963 -0.3443
  498MOL0     O67131   5.199  11.787   7.623  0.0776 -0.2875  0.7230
  498MOL0     C67132   5.116  11.692   7.552  0.1243  0.2747  0.3640
  498MOL0     C67133   5.051  11.772   7.432 -0.4027  0.3901  0.4314
  498MOL0     C67134   5.156  11.786   7.324  0.2502 -0.8175 -1.2923
  498MOL0     C67135   5.100  11.847   7.196 -0.5818 -0.7651 -0.2373
  498MOL0     C67136   5.065  11.750   7.080 -0.7212  0.1189 -0.1286
  498MOL0     C67137   5.034  11.821   6.945 -0.1262  0.0318  0.8483
  498MOL0     C67138   5.167  11.898   6.896  0.2232  0.3021 -0.8076
  498MOL0     C67139   5.114  12.005   6.798 -0.8898  0.0006  0.0798
  498MOL0    Cl67140   5.028  12.141   6.887 -0.5583  0.2202  0.3580
  498MOL0     C67141   5.247  11.620   7.791 -0.1071  1.5968  0.2702
  498MOL0     C67142   5.336  11.571   7.890  0.0815  0.4157  0.0604
  498MOL0     O67143   5.616  11.771   8.126  0.1856  0.5015 -0.1760
  498MOL0     C67144   5.836  11.657   8.229  0.0506  0.2084 -0.0727
  498MOL0     C67145   5.955  11.596   8.269  0.7583 -0.2257 -0.4280
  498MOL0     N67146   6.299  11.234   8.742  0.2022  0.1194  0.2169
  498MOL0     N67147   6.308  11.150   8.837 -0.0921 -0.2944 -0.5644
  498MOL0     C67148   6.971  10.288   9.207  0.9160 -1.3441  0.2328
  498MOL0     C67149   7.007  10.159   9.190  0.0320 -0.0762 -0.1237
  498MOL0     C67150   7.045   9.732   9.131  1.0529  0.2389  0.9674
  498MOL0     C67151   7.168   9.694   9.182 -0.4490  0.4044 -0.9292
  498MOL0     C67152   7.244   9.585   9.127 -0.6552  0.5700  1.5523
  498MOL0     C67153   7.187   9.509   9.022 -0.5867  0.8843  0.1396
  498MOL0     O67154   7.252   9.394   8.965  0.0840 -0.6023 -0.4484
  498MOL0     C67155   7.387   9.365   9.014  0.4384 -0.1406  0.0387
  498MOL0     C67156   7.432   9.244   8.930 -0.1600 -0.9134  0.2005
  498MOL0     C67157   7.573   9.190   8.966 -0.3406  0.4120 -0.7287
  498MOL0     C67158   7.686   9.239   8.875 -0.3942  0.2974  0.9081
  498MOL0     C67159   7.748   9.364   8.920 -0.3445 -0.3611 -1.0199
  498MOL0     C67160   7.799   9.467   8.971  0.9662 -0.2901 -1.0847
  498MOL0     C67161   7.054   9.547   8.974 -0.5504  0.7468  0.6190
  498MOL0     C67162   6.983   9.658   9.023  1.4322  1.3983 -0.2024
  498MOL0     H67163   7.001  10.045   9.507  2.5417 -1.4402 -0.0353
  498MOL0     H67164   6.959  10.289   9.548 -1.8318  2.8968 -0.3761
  498MOL0     H67165   7.077  10.562   9.375  0.8417  3.2142 -0.2950
  498MOL0     H67166   7.020  10.567   9.213 -0.4461  2.1328 -0.1102
  498MOL0     H67167   6.861  10.702   9.433  2.4359  3.1186  0.7755
  498MOL0     H67168   6.994  10.781   9.346  1.1879 -0.7105 -1.7215
  498MOL0     H67169   6.894  10.702   9.132 -0.6860 -0.5956  1.2323
  498MOL0     H67170   6.735  10.696   9.226 -1.7769  0.2124  1.2230
  498MOL0     H67171   6.774  10.933   9.292 -0.8062 -1.2276  0.5663
  498MOL0     H67172   6.907  10.929   9.175 -0.5797 -0.7548  0.6997
  498MOL0     H67173   6.728  11.039   9.073 -0.6762  0.0676  0.4933
  498MOL0     H67174   6.762  10.910   8.979 -1.5386  0.8541 -0.7389
  498MOL0     H67175   6.569  10.775   9.071 -1.8569  0.6096 -0.1930
  498MOL0     H67176   6.527  10.890   9.197 -3.0359 -2.0914 -0.7140
  498MOL0     H67177   6.531  10.948   8.902  1.2446 -0.8153  1.4205
  498MOL0     H67178   6.385  10.910   9.013  0.3852 -0.9240  2.1097
  498MOL0     H67179   6.539  11.162   9.078 -0.9459  0.6099 -1.0696
  498MOL0     H67180   6.364  11.104   9.098 -3.1462  0.3049 -3.6680
  498MOL0     H67181   6.597  11.292   8.842 -0.1498  3.2136 -0.2627
  498MOL0     H67182   6.498  11.489   8.673  0.5541 -0.7765 -0.0433
  498MOL0     H67183   6.525  11.369   8.561 -0.2117  1.2920  1.2657
  498MOL0     H67184   6.376  11.559   8.493 -1.8558  2.4186  0.7827
  498MOL0     H67185   6.266  11.518   8.629  1.1367 -1.6768  1.2205
  498MOL0     H67186   6.204  11.308   8.521  1.8544 -3.4681 -1.8457
  498MOL0     H67187   6.330  11.335   8.405 -1.3232 -0.3774 -0.2611
  498MOL0     H67188   6.241  11.536   8.337  2.4662 -0.3012  2.9766
  498MOL0     H67189   6.108  11.517   8.462 -1.4038  1.0803 -1.0186
  498MOL0     H67190   5.905  11.282   8.190  1.1023 -0.4383  1.2649
  498MOL0     H67191   5.654  11.350   7.980 -1.0896  0.7758  0.3396
  498MOL0     H67192   5.709  11.247   8.112 -0.5059  0.4088  0.5032
  498MOL0     H67193   5.578  11.365   8.150  0.8183 -0.4355  2.1258
  498MOL0     H67194   5.568  11.809   7.881 -1.2257  1.2134  0.9749
  498MOL0     H67195   5.424  11.917   7.743  0.1070  1.0258  1.5060
  498MOL0     H67196   5.176  11.605   7.525  1.2811  0.8816  0.9251
  498MOL0     H67197   5.039  11.649   7.618  1.7233  1.5556  3.2398
  498MOL0     H67198   4.978  11.705   7.385  1.3999  0.9773 -3.6201
  498MOL0     H67199   5.004  11.869   7.448  1.4196  1.4423 -0.2926
  498MOL0     H67200   5.200  11.689   7.298 -0.2900 -1.8444  1.3049
  498MOL0     H67201   5.225  11.857   7.371 -1.1490 -0.4223  0.2281
  498MOL0     H67202   5.012  11.910   7.208 -1.1671 -1.3652 -1.2980
  498MOL0     H67203   5.183  11.912   7.166  1.5338 -2.8629  0.6638
  498MOL0     H67204   4.973  11.694   7.098 -0.7806 -0.2086 -1.3332
  498MOL0     H67205   5.144  11.676   7.066 -2.5750 -1.4597 -3.3657
  498MOL0     H67206   5.011  11.741   6.874  1.4449 -0.4084  0.8005
  498MOL0     H67207   4.952  11.893   6.951 -0.6165 -0.2835 -1.3916
  498MOL0     H67208   5.233  11.826   6.847  1.1568  0.6753 -0.1247
  498MOL0     H67209   5.214  11.962   6.972  0.1528  1.6731 -1.8752
  498MOL0     H67210   5.041  11.961   6.730 -1.3142 -0.8822  1.0767
  498MOL0     H67211   5.192  12.041   6.730  0.5237 -1.6565  0.7491
  498MOL0     H67212   5.163  11.559   7.761  0.6410  0.1474  1.0211
  498MOL0     H67213   5.313  11.472   7.929  2.8124 -0.8408 -1.2610
  498MOL0     H67214   5.835  11.765   8.240 -0.9710  0.6007 -3.2061
  498MOL0     H67215   6.016  11.662   8.330 -2.3623  0.1284  2.6525
  498MOL0     H67216   6.956  10.349   9.119  0.4407 -1.8314 -0.0315
  498MOL0     H67217   7.019  10.115   9.091  1.9057 -0.6131  0.3033
  498MOL0     H67218   7.193   9.748   9.272 -0.3530  0.0072 -0.7128
  498MOL0     H67219   7.336   9.543   9.167 -1.6563 -0.0874  3.2862
  498MOL0     H67220   7.445   9.453   8.985 -0.0380 -0.4580 -2.0200
  498MOL0     H67221   7.385   9.339   9.120  1.8647  0.3958  0.2210
  498MOL0     H67222   7.426   9.262   8.822  0.2676  0.1871  0.3417
  498MOL0     H67223   7.363   9.160   8.936 -0.5151 -0.9085 -2.5676
  498MOL0     H67224   7.561   9.082   8.963 -3.1717  0.6497 -0.5525
  498MOL0     H67225   7.597   9.210   9.071 -0.0565  0.6074 -0.8294
  498MOL0     H67226   7.652   9.254   8.772 -1.2135 -2.0228  0.7793
  498MOL0     H67227   7.759   9.158   8.869  0.6167  1.2614 -0.6426
  498MOL0     H67228   7.825   9.552   9.031  0.7191  1.2790 -3.0701
  498MOL0     H67229   7.007   9.477   8.906 -1.0799  0.2065  1.5236
  498MOL0     H67230   6.884   9.677   8.984 -0.1527 -3.1557  0.9526
  499MOL0     O67231   8.280   4.576   7.318 -0.3123  0.3073  0.4817
  499MOL0     C67232   8.359   4.660   7.270 -0.2561 -1.2277  0.0633
  499MOL0     O67233   8.365   4.704   7.143  0.0128  0.6639  0.0805
  499MOL0     C67234   8.295   4.640   7.040  0.1532  0.7159  0.7129
  499MOL0     C67235   8.288   4.496   7.026 -0.6549 -0.1881  0.1553
  499MOL0     C67236   8.217   4.438   6.917 -0.3298 -0.2169 -0.0396
  499MOL0     C67237   8.137   4.510   6.835 -0.2504  0.4639  0.1682
  499MOL0     O67238   8.074   4.453   6.727 -0.8896 -0.9243 -0.5426
  499MOL0     C67239   7.936   4.484   6.711 -0.0033  0.2505  0.5245
  499MOL0     C67240   7.859   4.364   6.646 -0.1088 -0.0182  0.6314
  499MOL0     C67241   7.755   4.413   6.547 -0.4766 -0.3374  0.4401
  499MOL0     C67242   7.710   4.289   6.463  0.6675 -0.2618  0.8491
  499MOL0     C67243   7.604   4.332   6.358 -1.0856  0.0090 -0.2615
  499MOL0     C67244   7.547   4.220   6.280 -0.2462 -0.4079 -0.1018
  499MOL0     C67245   7.529   4.263   6.133  0.3875  0.5652 -0.0538
  499MOL0     C67246   7.454   4.402   6.114 -0.2116 -0.0532 -0.9033
  499MOL0     N67247   7.336   4.429   6.193  0.2348  0.0111  0.2017
  499MOL0     C67248   7.209   4.412   6.138 -0.1408  0.7341  0.1840
  499MOL0     C67249   7.118   4.478   6.215  0.1217 -0.3566 -0.3761
  499MOL0     C67250   6.974   4.505   6.189  0.7617 -0.4413 -1.0612
  499MOL0     C67251   6.890   4.512   6.323  0.0317  0.0553  0.2962
  499MOL0     C67252   6.746   4.553   6.284 -0.1687  0.3098  0.3901
  499MOL0     C67253   6.661   4.571   6.407 -0.4548  0.5585 -0.1139
  499MOL0     O67254   6.733   4.631   6.518  0.1530  0.2381  0.6950
  499MOL0     C67255   6.721   4.571   6.640 -0.2468  0.0085  0.3614
  499MOL0     C67256   6.828   4.584   6.723 -0.2319  0.0036  0.5457
  499MOL0     C67257   6.834   4.532   6.859 -0.5819  0.2088  0.3265
  499MOL0     C67258   6.970   4.567   6.934 -0.0804 -0.5923  0.4433
  499MOL0     C67259   6.729   4.453   6.904  0.4660 -0.4984  0.2252
  499MOL0     C67260   6.706   4.397   7.045 -0.7119 -0.5394  0.4507
  499MOL0     O67261   6.594   4.334   7.071 -0.2291 -1.0426 -0.3184
  499MOL0     C67262   6.525   4.354   7.198  0.2549 -0.1445 -0.1900
  499MOL0     C67263   6.459   4.243   7.260 -0.2823 -0.2264 -0.0317
  499MOL0     C67264   6.374   4.262   7.371 -0.6777  0.0964  0.4008
  499MOL0     C67265   6.349   4.389   7.411 -0.1111  0.0034  0.4083
  499MOL0     O67266   6.266   4.422   7.516  0.0354  0.5330  0.6014
  499MOL0     C67267   6.147   4.497   7.484 -0.2238  0.8213 -0.7677
  499MOL0     C67268   6.025   4.462   7.582 -0.1166 -0.3362 -0.7104
  499MOL0     C67269   5.984   4.312   7.593 -0.7660  0.2994  0.0693
  499MOL0     C67270   5.829   4.295   7.591 -0.2255  0.1174  0.6440
  499MOL0     C67271   5.794   4.302   7.440 -0.0917 -0.5374  0.0055
  499MOL0     C67272   5.804   4.174   7.354  0.0259 -0.1763  0.5477
  499MOL0     C67273   5.823   4.221   7.197 -0.2685  1.0390 -0.5607
  499MOL0     C67274   5.965   4.255   7.164 -0.5142 -0.4643 -0.8414
  499MOL0    Cl67275   6.056   4.108   7.178 -0.2137 -0.0358  0.7118
  499MOL0     C67276   6.423   4.494   7.360 -0.8754  0.7527 -0.1625
  499MOL0     C67277   6.501   4.480   7.246  0.6792 -0.3470 -0.3002
  499MOL0     O67278   6.796   4.407   7.122  0.1572  0.4867 -0.5621
  499MOL0     C67279   6.623   4.432   6.812 -0.7274  0.1347 -0.2732
  499MOL0     C67280   6.619   4.489   6.689  0.5459 -0.7252 -0.0701
  499MOL0     N67281   7.193   4.548   6.302 -0.5851 -0.2133 -0.4913
  499MOL0     N67282   7.315   4.518   6.297 -0.3715 -0.0943 -0.0406
  499MOL0     C67283   8.126   4.649   6.859  0.5424 -1.3397 -0.5096
  499MOL0     C67284   8.210   4.718   6.960  0.2138  0.7991 -0.8604
  499MOL0     C67285   8.461   4.719   7.354  0.1956  0.1286  0.1693
  499MOL0     C67286   8.550   4.823   7.312 -0.5454  0.7588  0.4250
  499MOL0     C67287   8.657   4.870   7.390  0.0047 -0.5362  0.0928
  499MOL0     C67288   8.680   4.811   7.512 -0.2007 -1.2773 -0.4108
  499MOL0     O67289   8.776   4.851   7.599 -0.2132 -0.0771 -0.4976
  499MOL0     C67290   8.883   4.932   7.563  0.1317 -0.7569 -0.5437
  499MOL0     C67291   9.002   4.907   7.654  0.3084 -0.1172  0.0477
  499MOL0     C67292   9.036   4.758   7.664 -0.1176  0.5892 -0.7523
  499MOL0     C67293   9.090   4.723   7.805 -0.3749  0.3637 -0.3895
  499MOL0     C67294   9.210   4.803   7.842  0.1717 -0.4716  0.7592
  499MOL0     C67295   9.304   4.877   7.876  0.2105 -0.1911 -0.2125
  499MOL0     C67296   8.604   4.701   7.556  0.3139  0.3806 -0.8443
  499MOL0     C67297   8.498   4.650   7.476 -0.2924 -0.0298 -0.4015
  499MOL0     H67298   8.349   4.440   7.096  0.8134  2.6350  1.2948
  499MOL0     H67299   8.225   4.332   6.897  2.7293 -0.2669  0.9185
  499MOL0     H67300   7.891   4.527   6.801  0.1876 -0.4256  0.9479
  499MOL0     H67301   7.940   4.573   6.647  0.4392  2.4013  3.3473
  499MOL0     H67302   7.926   4.301   6.587 -0.5723  0.8997 -0.9348
  499MOL0     H67303   7.801   4.311   6.722  1.0856 -1.9810  0.2357
  499MOL0     H67304   7.673   4.462   6.600 -0.0774 -0.8879  1.5953
  499MOL0     H67305   7.797   4.499   6.494 -0.2125 -1.2620 -0.9071
  499MOL0     H67306   7.794   4.248   6.408  1.2037  1.0545  0.6380
  499MOL0     H67307   7.660   4.219   6.531 -2.0282  1.2835  0.6243
  499MOL0     H67308   7.518   4.381   6.406 -1.0568 -0.3225  0.1366
  499MOL0     H67309   7.661   4.403   6.296  0.4481  0.5199  1.6338
  499MOL0     H67310   7.620   4.139   6.284  0.4726  0.1100 -1.6600
  499MOL0     H67311   7.453   4.182   6.321 -1.0564 -1.4746 -2.7598
  499MOL0     H67312   7.630   4.267   6.092  1.2313 -2.4339  1.4746
  499MOL0     H67313   7.469   4.176   6.102  0.1892  0.3124  1.0068
  499MOL0     H67314   7.428   4.421   6.010 -2.2154  1.4731 -0.1844
  499MOL0     H67315   7.525   4.483   6.133 -0.6589  0.4222 -1.2284
  499MOL0     H67316   7.184   4.348   6.054  0.4663  1.2776 -0.4300
  499MOL0     H67317   6.979   4.604   6.143  2.0748 -1.5866 -3.5912
  499MOL0     H67318   6.930   4.428   6.125  0.6715 -2.2725  1.1014
  499MOL0     H67319   6.934   4.577   6.400 -2.6851  0.3243  1.7427
  499MOL0     H67320   6.880   4.408   6.356  2.1800 -1.8175 -4.1381
  499MOL0     H67321   6.693   4.497   6.207  3.0369 -1.8895 -0.3994
  499MOL0     H67322   6.738   4.657   6.248 -0.7491 -0.0893 -0.7048
  499MOL0     H67323   6.600   4.483   6.431 -3.3765  1.9596 -1.9209
  499MOL0     H67324   6.597   4.656   6.385  0.9692  2.2459  1.8594
  499MOL0     H67325   6.911   4.645   6.691  0.2640 -0.8459  0.1944
  499MOL0     H67326   7.009   4.476   6.979 -0.7685 -0.0598  2.1918
  499MOL0     H67327   7.043   4.611   6.865  0.9905 -2.3408  0.3923
  499MOL0     H67328   6.961   4.636   7.018 -0.6334  0.1455 -0.2078
  499MOL0     H67329   6.474   4.141   7.227  2.3690  0.8197 -2.5117
  499MOL0     H67330   6.317   4.183   7.419 -1.2789 -0.4794 -1.2094
  499MOL0     H67331   6.172   4.603   7.497  2.3388 -0.0619  3.6822
  499MOL0     H67332   6.120   4.475   7.380  1.8341 -1.1028 -0.9772
  499MOL0     H67333   6.061   4.497   7.680  1.4311 -2.7787 -0.3277
  499MOL0     H67334   5.953   4.532   7.538  0.9485  1.0792 -0.3003
  499MOL0     H67335   6.023   4.280   7.690  1.9444  3.2402  0.1039
  499MOL0     H67336   6.041   4.263   7.513  1.7039  3.3466 -0.2276
  499MOL0     H67337   5.801   4.196   7.630  2.4020  0.4628  3.8682
  499MOL0     H67338   5.787   4.376   7.651 -0.1376  3.1322 -3.0306
  499MOL0     H67339   5.836   4.389   7.388  0.2853  0.3800  1.7830
  499MOL0     H67340   5.686   4.318   7.433 -0.0389 -0.7830 -1.9371
  499MOL0     H67341   5.895   4.121   7.384  0.3876  1.5191  2.7714
  499MOL0     H67342   5.723   4.101   7.354  0.4918 -0.7728 -1.8832
  499MOL0     H67343   5.759   4.307   7.172 -0.9452  0.8323  0.4134
  499MOL0     H67344   5.785   4.141   7.133 -2.1715  0.8619  0.7081
  499MOL0     H67345   5.996   4.333   7.234 -1.9064 -1.1004  0.5399
  499MOL0     H67346   5.975   4.295   7.062  1.2546  0.7865 -0.2266
  499MOL0     H67347   6.423   4.591   7.410  2.0740 -1.7337  5.5792
  499MOL0     H67348   6.544   4.563   7.191  3.0121  0.5597  2.5815
  499MOL0     H67349   6.541   4.367   6.840  0.0995 -0.2878  1.3089
  499MOL0     H67350   6.526   4.458   6.641 -0.0391 -1.4593  1.4499
  499MOL0     H67351   8.054   4.704   6.800 -3.1896 -1.9618  2.9965
  499MOL0     H67352   8.194   4.824   6.978  0.0316  1.0804 -2.5409
  499MOL0     H67353   8.524   4.860   7.213  1.1205 -0.3733 -0.4801
  499MOL0     H67354   8.726   4.947   7.357  1.5088 -0.4856  2.9990
  499MOL0     H67355   8.911   4.932   7.458  0.4406 -0.0214 -0.4697
  499MOL0     H67356   8.854   5.035   7.588 -1.9003 -2.0021  2.8622
  499MOL0     H67357   8.984   4.935   7.759  4.0390 -1.2002  1.1330
  499MOL0     H67358   9.095   4.951   7.617 -0.8296  1.1850 -1.3327
  499MOL0     H67359   9.106   4.742   7.581 -0.3124  1.3729 -1.0721
  499MOL0     H67360   8.946   4.698   7.646 -1.8132  2.2128  1.6342
  499MOL0     H67361   9.121   4.619   7.800  1.1814  0.8431 -1.9714
  499MOL0     H67362   9.015   4.745   7.881  1.8357 -2.7694  3.0148
  499MOL0     H67363   9.394   4.933   7.892 -0.2382 -0.1183  2.5500
  499MOL0     H67364   8.630   4.661   7.654  3.9884  1.5500 -1.1747
  499MOL0     H67365   8.447   4.559   7.504  0.0673 -0.1833 -0.2384
  500MOL0     O67366   0.297   8.646   4.352  0.9341 -0.8553  0.3766
  500MOL0     C67367   0.196   8.712   4.349  0.3338  0.4013 -0.9555
  500MOL0     O67368   0.118   8.751   4.235 -0.0413  0.3848 -0.2750
  500MOL0     C67369   0.140   8.711   4.103  0.1614 -1.1568  0.5095
  500MOL0     C67370   0.258   8.663   4.051  0.2573  0.1892 -1.2248
  500MOL0     C67371   0.270   8.610   3.918  0.2370  0.2352  0.5003
  500MOL0     C67372   0.154   8.625   3.832  0.1346  0.2282 -0.6769
  500MOL0     O67373   0.160   8.591   3.699  0.0638 -0.0242  0.1033
  500MOL0     C67374   0.045   8.624   3.613 -0.4380  0.1307  0.1416
  500MOL0     C67375   0.076   8.596   3.468 -0.2025  0.1157 -1.1084
  500MOL0     C67376   0.217   8.614   3.426 -0.4180  0.2582 -0.0685
  500MOL0     C67377   0.250   8.624   3.281 -0.4734 -0.4496  0.2476
  500MOL0     C67378   0.398   8.630   3.258 -0.1113 -0.4280  0.6250
  500MOL0     C67379   0.474   8.498   3.249 -0.6865 -0.4184 -0.1602
  500MOL0     C67380   0.444   8.432   3.111 -0.0650 -0.0402  0.3219
  500MOL0     C67381   0.521   8.298   3.113  0.5340  0.3700  0.3502
  500MOL0     N67382   0.567   8.237   2.983  0.0519 -0.0490 -0.9642
  500MOL0     C67383   0.502   8.221   2.865  1.3008  0.8036  0.0258
  500MOL0     C67384   0.584   8.167   2.775  0.1384 -0.6726  0.4023
  500MOL0     C67385   0.554   8.129   2.635  0.2574  0.2852  0.1299
  500MOL0     C67386   0.615   8.223   2.525  0.1023  0.2549 -0.2185
  500MOL0     C67387   0.569   8.180   2.383 -0.1644 -0.4834  0.9185
  500MOL0     C67388   0.652   8.064   2.315  1.0334  0.0129  0.2106
  500MOL0     O67389   0.673   7.963   2.417 -0.6394  0.3785  0.2025
  500MOL0     C67390   0.768   7.871   2.382  0.1951 -0.2651 -0.1457
  500MOL0     C67391   0.840   7.839   2.496  0.6574 -0.3368  0.1537
  500MOL0     C67392   0.955   7.760   2.495  0.7865  0.1975 -0.8924
  500MOL0     C67393   1.034   7.716   2.623 -0.0196  0.8128  0.4931
  500MOL0     C67394   0.989   7.699   2.371 -0.5268  0.2367  0.2725
  500MOL0     C67395   1.116   7.633   2.344  0.7716 -0.2437 -0.0600
  500MOL0     O67396   1.108   7.540   2.251  0.2408  0.5488  0.0841
  500MOL0     C67397   1.223   7.460   2.231  0.6003 -1.0168  0.5050
  500MOL0     C67398   1.192   7.325   2.255 -0.4473  0.4660  0.3713
  500MOL0     C67399   1.308   7.243   2.258  0.0407  0.5056  0.6383
  500MOL0     C67400   1.442   7.281   2.257  0.5456  0.7266  0.8527
  500MOL0     O67401   1.534   7.193   2.301 -0.2938  0.3859  0.1867
  500MOL0     C67402   1.678   7.228   2.282 -0.7202  1.0185 -0.2240
  500MOL0     C67403   1.767   7.099   2.299 -0.0824 -0.6384 -0.0911
  500MOL0     C67404   1.714   6.987   2.201 -0.1781 -0.0974  0.1201
  500MOL0     C67405   1.825   6.884   2.176 -0.3873  0.1901 -0.7276
  500MOL0     C67406   1.816   6.809   2.044 -0.6275 -0.7688 -0.0216
  500MOL0     C67407   1.880   6.886   1.928  0.1658  0.2708  0.5838
  500MOL0     C67408   1.819   6.822   1.803  0.2006 -0.2961  1.3036
  500MOL0     C67409   1.871   6.868   1.662  0.1196  0.0709 -0.2265
  500MOL0    Cl67410   1.831   7.038   1.669  0.1281  0.1301  0.0758
  500MOL0     C67411   1.463   7.415   2.219  0.0843  0.5092  0.2571
  500MOL0     C67412   1.356   7.499   2.203  0.8680  0.4544  0.5639
  500MOL0     O67413   1.209   7.684   2.398 -0.3740  0.4229  0.4452
  500MOL0     C67414   0.907   7.725   2.258  0.4804 -0.5562  0.5679
  500MOL0     C67415   0.796   7.804   2.264  0.2095 -1.3119  0.1227
  500MOL0     N67416   0.705   8.142   2.849 -0.7083  0.7554  0.0328
  500MOL0     N67417   0.697   8.187   2.969 -0.1860 -0.3138  0.0708
  500MOL0     C67418   0.049   8.699   3.883  0.4016 -0.2565 -0.3490
  500MOL0     C67419   0.039   8.721   4.017  0.4965 -0.9740 -0.9215
  500MOL0     C67420   0.142   8.732   4.487 -0.2873  0.1487  0.6643
  500MOL0     C67421   0.196   8.663   4.596  1.1043 -0.5630  0.3329
  500MOL0     C67422   0.140   8.686   4.719 -0.1246 -0.0612 -0.3147
  500MOL0     C67423   0.041   8.780   4.738  0.1713  0.4735  1.1600
  500MOL0     O67424  -0.009   8.799   4.863 -0.4125  0.0916  0.7250
  500MOL0     C67425  -0.120   8.882   4.915 -0.1929  0.3076  0.2404
  500MOL0     C67426  -0.251   8.813   4.897 -1.0710 -0.3185  0.2822
  500MOL0     C67427  -0.364   8.918   4.910 -1.1059  0.2569  0.2623
  500MOL0     C67428  -0.493   8.867   4.846  0.3640  0.2432  0.0378
  500MOL0     C67429  -0.599   8.967   4.861 -0.0690 -0.3270 -0.4762
  500MOL0     C67430  -0.693   9.036   4.872  0.7883 -0.6646  0.2396
  500MOL0     C67431  -0.007   8.854   4.634 -0.0785 -0.5802 -0.6399
  500MOL0     C67432   0.051   8.834   4.513  0.5692  0.6409 -0.6099
  500MOL0     H67433   0.349   8.670   4.109 -1.5555  2.7177  1.6295
  500MOL0     H67434   0.351   8.541   3.891  1.2739  1.7455 -0.4061
  500MOL0     H67435  -0.039   8.568   3.655  0.6806 -0.9168  1.0656
  500MOL0     H67436   0.019   8.728   3.633 -0.5244 -0.0646  1.1041
  500MOL0     H67437   0.036   8.502   3.429 -3.0640  1.8111 -2.5528
  500MOL0     H67438   0.020   8.668   3.408 -0.7707 -2.1480 -3.4972
  500MOL0     H67439   0.251   8.700   3.484 -0.4684 -0.1719  0.6166
  500MOL0     H67440   0.283   8.539   3.471 -4.2726 -1.8106  2.7336
  500MOL0     H67441   0.206   8.534   3.239 -2.6725  0.5304  0.3168
  500MOL0     H67442   0.200   8.708   3.232 -0.6180  1.2340  3.0318
  500MOL0     H67443   0.414   8.687   3.165  1.8265 -1.5451  0.2207
  500MOL0     H67444   0.460   8.678   3.334  4.0133 -1.8991 -1.4827
  500MOL0     H67445   0.579   8.528   3.245 -0.0832 -2.4176 -0.4523
  500MOL0     H67446   0.453   8.430   3.332  0.6693 -0.2078  0.3665
  500MOL0     H67447   0.338   8.423   3.089  0.2699 -0.9982 -0.9844
  500MOL0     H67448   0.489   8.488   3.029  1.9073 -1.3117  0.4663
  500MOL0     H67449   0.458   8.226   3.168  1.3865 -0.7319 -0.0745
  500MOL0     H67450   0.613   8.307   3.171  1.6218 -3.6839 -0.4251
  500MOL0     H67451   0.401   8.251   2.842  1.6425  2.5999  0.7067
  500MOL0     H67452   0.586   8.025   2.623 -2.2489 -0.2924 -2.5765
  500MOL0     H67453   0.446   8.141   2.623  0.2813 -0.5812 -1.1143
  500MOL0     H67454   0.724   8.218   2.520  0.0529  0.0781 -2.3106
  500MOL0     H67455   0.581   8.326   2.543  3.7395  1.5520  0.1318
  500MOL0     H67456   0.557   8.253   2.302  0.1645 -1.7447 -0.2977
  500MOL0     H67457   0.469   8.137   2.387 -1.2566  1.3695 -2.2111
  500MOL0     H67458   0.740   8.100   2.261 -0.7213  0.8175 -2.3092
  500MOL0     H67459   0.590   8.009   2.243 -1.4745  2.0387  0.6543
  500MOL0     H67460   0.813   7.882   2.592 -1.8807  2.0864 -1.4800
  500MOL0     H67461   1.009   7.767   2.717  0.8250  1.2315  0.4976
  500MOL0     H67462   1.021   7.610   2.648  0.0190  0.8050  0.4809
  500MOL0     H67463   1.140   7.741   2.614  0.3643 -0.2665  1.6903
  500MOL0     H67464   1.088   7.298   2.271  0.3122 -2.2250  1.2101
  500MOL0     H67465   1.294   7.137   2.278 -3.0628 -0.1719 -3.6738
  500MOL0     H67466   1.681   7.250   2.175 -2.2341 -0.4858 -0.6140
  500MOL0     H67467   1.721   7.311   2.339  2.1024 -1.3323  1.3653
  500MOL0     H67468   1.870   7.131   2.281  0.4389 -3.2770 -2.5024
  500MOL0     H67469   1.764   7.056   2.400 -2.9723  0.7578  0.5472
  500MOL0     H67470   1.687   7.030   2.104 -0.8392  0.2972  0.4770
  500MOL0     H67471   1.640   6.930   2.258 -0.6843 -0.3606 -0.7781
  500MOL0     H67472   1.926   6.925   2.184  0.3214 -1.6486  0.2890
  500MOL0     H67473   1.826   6.814   2.260  1.1760 -1.6319 -2.2086
  500MOL0     H67474   1.710   6.792   2.023 -1.0112 -0.8864  1.8134
  500MOL0     H67475   1.867   6.712   2.056  1.8317  0.3171 -0.9542
  500MOL0     H67476   1.854   6.992   1.928 -2.2163 -0.2380 -0.8805
  500MOL0     H67477   1.988   6.883   1.914  0.3958 -0.1959  2.2678
  500MOL0     H67478   1.709   6.822   1.804 -0.0767 -4.4067 -1.3278
  500MOL0     H67479   1.837   6.715   1.814  0.9960 -0.7567 -2.7254
  500MOL0     H67480   1.816   6.819   1.581 -1.6246 -2.6548  2.3854
  500MOL0     H67481   1.980   6.862   1.653 -0.0685 -2.9217 -1.8716
  500MOL0     H67482   1.554   7.473   2.211  0.7573 -0.2010  2.1238
  500MOL0     H67483   1.367   7.606   2.190 -0.2175  1.0288  3.4999
  500MOL0     H67484   0.936   7.690   2.159 -1.2076 -0.5221  0.0219
  500MOL0     H67485   0.731   7.837   2.183 -0.3696  0.7297  1.3425
  500MOL0     H67486  -0.040   8.719   3.824  0.3282  2.8907  0.6518
  500MOL0     H67487  -0.050   8.771   4.055  1.1580  2.1139 -3.0397
  500MOL0     H67488   0.275   8.589   4.601  1.9450  0.3419  0.8449
  500MOL0     H67489   0.185   8.626   4.798  0.9481  0.0227 -0.8442
  500MOL0     H67490  -0.108   8.900   5.022 -1.6964 -1.5968  0.7743
  500MOL0     H67491  -0.116   8.974   4.855  1.0121 -0.1728 -0.4436
  500MOL0     H67492  -0.265   8.735   4.972  1.6146 -2.0482 -0.8623
  500MOL0     H67493  -0.254   8.774   4.795  2.5137  2.8857 -1.2969
  500MOL0     H67494  -0.337   9.017   4.873  1.4131  0.1392  1.5890
  500MOL0     H67495  -0.380   8.921   5.018 -4.4242 -1.1543 -0.0681
  500MOL0     H67496  -0.523   8.776   4.898 -0.9045 -0.9492 -2.6056
  500MOL0     H67497  -0.475   8.845   4.741  0.8047 -2.5707  0.6443
  500MOL0     H67498  -0.776   9.103   4.883  0.9422 -0.1242 -1.6054
  500MOL0     H67499  -0.083   8.932   4.639  0.4372  0.0497 -2.0920
  500MOL0     H67500   0.016   8.876   4.419 -1.8760 -1.8694 -0.9487
  501MOL0     O67501   0.172   9.918   1.134  0.1140  0.4632 -0.5290
  501MOL0     C67502   0.133   9.847   1.227  0.0783  0.4918 -0.5866
  501MOL0     O67503   0.102   9.713   1.216  0.9181 -0.4749 -0.0161
  501MOL0     C67504   0.152   9.627   1.124  0.9578 -0.0210  0.2597
  501MOL0     C67505   0.084   9.505   1.114 -0.3837  0.8189 -0.7403
  501MOL0     C67506   0.131   9.409   1.040  0.6139 -0.5139 -0.0006
  501MOL0     C67507   0.252   9.415   0.971  0.0451 -0.0271 -0.0599
  501MOL0     O67508   0.307   9.311   0.898 -0.1468 -0.0907  0.6122
  501MOL0     C67509   0.225   9.251   0.804  0.3104  0.1893 -0.5477
  501MOL0     C67510   0.315   9.184   0.699 -0.4844 -0.5424  0.0942
  501MOL0     C67511   0.239   9.100   0.591  0.6061 -0.9619 -0.6971
  501MOL0     C67512   0.334   9.069   0.485  0.3652 -0.8747 -0.3882
  501MOL0     C67513   0.259   8.966   0.392 -0.1440  0.5076  0.3616
  501MOL0     C67514   0.190   9.034   0.275  0.3073 -0.7794 -0.2016
  501MOL0     C67515   0.151   8.927   0.178  0.0993 -0.6526  0.3876
  501MOL0     C67516   0.046   8.974   0.085  0.0770 -0.7370 -0.3668
  501MOL0     N67517  -0.090   9.001   0.149 -1.3173  0.3316  0.3905
  501MOL0     C67518  -0.165   8.917   0.224  0.0439 -0.3917  0.3088
  501MOL0     C67519  -0.263   8.988   0.276 -0.2911 -0.3409  0.2877
  501MOL0     C67520  -0.355   8.939   0.383 -0.7564 -0.9195 -0.2303
  501MOL0     C67521  -0.408   9.052   0.468  0.5704 -0.1864  0.0736
  501MOL0     C67522  -0.324   9.071   0.598 -0.1738  0.6304  0.4285
  501MOL0     C67523  -0.178   9.098   0.565  0.0667 -0.5324 -0.0035
  501MOL0     O67524  -0.102   9.129   0.685  0.1495  0.6377 -0.0555
  501MOL0     C67525  -0.081   9.019   0.774 -0.2475 -0.2995  0.3959
  501MOL0     C67526  -0.079   9.070   0.901 -0.3700  1.0808 -0.6085
  501MOL0     C67527  -0.057   8.973   1.002  1.0227 -0.8871  0.8576
  501MOL0     C67528  -0.076   9.027   1.145 -0.5684 -0.0914 -0.1929
  501MOL0     C67529  -0.011   8.843   0.972 -1.0790  0.6375 -0.3106
  501MOL0     C67530   0.034   8.738   1.061  0.3428  0.1936  0.0838
  501MOL0     O67531   0.036   8.605   1.020  0.4159  0.1825 -0.5300
  501MOL0     C67532   0.096   8.504   1.090 -0.2833 -0.8411  0.5249
  501MOL0     C67533   0.091   8.486   1.231 -0.3247 -0.6358 -0.5995
  501MOL0     C67534   0.157   8.377   1.291 -0.4569  0.6604  0.3487
  501MOL0     C67535   0.229   8.291   1.215 -0.4674 -0.1098  0.7826
  501MOL0     O67536   0.275   8.188   1.292 -0.0581  0.4224  0.5691
  501MOL0     C67537   0.307   8.075   1.214 -0.0250  0.4997 -0.9957
  501MOL0     C67538   0.350   7.972   1.304  0.3278  0.1669 -0.0902
  501MOL0     C67539   0.482   8.019   1.378  0.7810  0.5765 -0.4857
  501MOL0     C67540   0.539   7.890   1.434 -0.2877  0.2826 -0.2231
  501MOL0     C67541   0.444   7.818   1.540  0.4900  0.1766  0.2235
  501MOL0     C67542   0.494   7.672   1.571  0.2781  0.8213  0.4548
  501MOL0     C67543   0.441   7.570   1.466  0.3217 -0.0019  0.4349
  501MOL0     C67544   0.503   7.431   1.496  0.1198 -0.7974  0.2896
  501MOL0    Cl67545   0.441   7.383   1.652 -0.0341 -0.0813  0.1346
  501MOL0     C67546   0.236   8.316   1.075 -0.9934  1.2115 -0.8975
  501MOL0     C67547   0.177   8.419   1.017 -0.4740 -0.8814  0.3255
  501MOL0     O67548   0.063   8.770   1.180  1.0576  0.3083 -0.2463
  501MOL0     C67549   0.004   8.800   0.836  0.1252  0.8436  1.1334
  501MOL0     C67550  -0.038   8.889   0.739 -0.6126 -0.3771  1.0218
  501MOL0     N67551  -0.245   9.121   0.231 -0.2980  0.5426  0.5071
  501MOL0     N67552  -0.141   9.126   0.158 -0.3627 -0.7352 -0.4672
  501MOL0     C67553   0.321   9.530   0.985  1.2651  0.0572 -0.1869
  501MOL0     C67554   0.275   9.639   1.064 -0.4364 -0.3525 -0.2455
  501MOL0     C67555   0.106   9.908   1.361 -0.4674  0.7287  0.6578
  501MOL0     C67556   0.131  10.042   1.387 -0.5165  0.8263 -0.6465
  501MOL0     C67557   0.123  10.096   1.514  0.0099 -1.3944 -0.4729
  501MOL0     C67558   0.079  10.018   1.620  0.9179  0.0023 -0.3146
  501MOL0     O67559   0.084  10.080   1.747  0.4063 -0.1675 -0.2108
  501MOL0     C67560   0.008  10.026   1.856  0.5631 -1.1027 -0.5497
  501MOL0     C67561  -0.140  10.040   1.849 -0.5705  0.0897 -0.6925
  501MOL0     C67562  -0.183  10.187   1.857 -0.7278  0.6778  0.5059
  501MOL0     C67563  -0.318  10.194   1.942  0.3405 -0.5640  1.0818
  501MOL0     C67564  -0.423  10.122   1.874 -0.7747  0.5765 -0.1704
  501MOL0     C67565  -0.507  10.058   1.823  0.8357  0.3648 -0.5544
  501MOL0     C67566   0.048   9.881   1.600  0.1973 -0.5445  0.9221
  501MOL0     C67567   0.063   9.824   1.468  0.4876  0.2416 -0.2620
  501MOL0     H67568  -0.007   9.485   1.170 -0.5470 -1.5036 -1.7460
  501MOL0     H67569   0.075   9.315   1.042  0.7106 -0.5655  0.5076
  501MOL0     H67570   0.159   9.192   0.868  0.0482  3.4824  2.5368
  501MOL0     H67571   0.161   9.329   0.762  0.0185  0.9471  1.1977
  501MOL0     H67572   0.371   9.259   0.641 -2.0909  1.6920  1.2786
  501MOL0     H67573   0.384   9.119   0.753  0.1890 -0.0607 -0.1682
  501MOL0     H67574   0.204   9.009   0.641  1.2659 -1.5341 -1.2611
  501MOL0     H67575   0.152   9.148   0.547  1.9383  1.1599 -1.1757
  501MOL0     H67576   0.356   9.162   0.431  0.8000  0.3653  1.8075
  501MOL0     H67577   0.427   9.028   0.526 -0.2403 -0.7637  1.1459
  501MOL0     H67578   0.326   8.889   0.355 -0.6117 -0.0280  0.6109
  501MOL0     H67579   0.179   8.918   0.450 -0.9369  1.2196 -0.1083
  501MOL0     H67580   0.105   9.082   0.325  2.3136  1.0868  1.6079
  501MOL0     H67581   0.254   9.116   0.239  1.8380 -0.6368  2.5816
  501MOL0     H67582   0.236   8.911   0.111  0.7021  2.6568  0.2085
  501MOL0     H67583   0.119   8.830   0.218  1.6037 -1.9737 -1.4625
  501MOL0     H67584   0.036   8.888   0.019  0.2908 -1.1079  0.0761
  501MOL0     H67585   0.080   9.059   0.024 -0.6811 -1.9979 -2.6444
  501MOL0     H67586  -0.145   8.814   0.253  0.8116 -1.2765 -2.9302
  501MOL0     H67587  -0.438   8.894   0.329 -1.2796  1.0264 -1.1472
  501MOL0     H67588  -0.317   8.867   0.455 -2.4497 -1.3599  0.2632
  501MOL0     H67589  -0.504   9.011   0.500 -0.4219  0.7901 -1.5241
  501MOL0     H67590  -0.428   9.149   0.422 -1.8328 -0.8944 -0.5129
  501MOL0     H67591  -0.343   8.986   0.664 -0.5445 -0.2054 -0.7156
  501MOL0     H67592  -0.359   9.157   0.656  4.1817  1.8492  1.6557
  501MOL0     H67593  -0.169   9.189   0.505 -0.0891 -0.3342  0.2713
  501MOL0     H67594  -0.141   9.017   0.502 -3.6428 -2.7681  0.4156
  501MOL0     H67595  -0.087   9.178   0.915  1.7424  1.0761  1.2376
  501MOL0     H67596  -0.146   8.959   1.194  0.3637 -2.8005 -2.3509
  501MOL0     H67597   0.018   9.021   1.200 -1.4032 -1.8219  1.1337
  501MOL0     H67598  -0.115   9.128   1.161 -1.5903 -0.2141 -1.6805
  501MOL0     H67599   0.015   8.534   1.291 -1.6299 -1.5768 -1.4422
  501MOL0     H67600   0.136   8.357   1.395  3.0790  1.0564  1.2647
  501MOL0     H67601   0.218   8.039   1.160  0.6121  1.2678 -2.6075
  501MOL0     H67602   0.384   8.091   1.138  1.7001  1.3734  0.8875
  501MOL0     H67603   0.280   7.943   1.382  0.1932  0.4658 -0.0987
  501MOL0     H67604   0.378   7.880   1.251 -1.7536  0.6368 -2.1898
  501MOL0     H67605   0.460   8.090   1.458  0.0077 -2.1741  1.9366
  501MOL0     H67606   0.555   8.059   1.307  2.5441  0.3934  1.1444
  501MOL0     H67607   0.568   7.825   1.352 -0.6001  0.0990 -0.1888
  501MOL0     H67608   0.633   7.909   1.487 -1.7593  2.8825  1.7301
  501MOL0     H67609   0.339   7.800   1.516  0.0514 -2.8125  3.5531
  501MOL0     H67610   0.447   7.873   1.635  1.0856 -1.0538  0.9417
  501MOL0     H67611   0.602   7.661   1.587  0.2674  0.1823  0.1065
  501MOL0     H67612   0.439   7.642   1.661 -0.8472 -4.0538 -1.5330
  501MOL0     H67613   0.465   7.616   1.370  1.3381 -2.6619 -0.6829
  501MOL0     H67614   0.332   7.568   1.476  0.3915 -1.8910  1.4059
  501MOL0     H67615   0.611   7.450   1.500 -0.3333  2.1374  2.5680
  501MOL0     H67616   0.459   7.365   1.421 -2.0548  1.0633 -0.1716
  501MOL0     H67617   0.307   8.258   1.017  2.0119  0.6122  2.9478
  501MOL0     H67618   0.202   8.430   0.912  0.1723 -2.1621  0.3272
  501MOL0     H67619   0.020   8.701   0.796 -5.0318  0.1256  0.2078
  501MOL0     H67620  -0.048   8.866   0.633 -2.8162  1.1842  0.8151
  501MOL0     H67621   0.417   9.530   0.934  0.5588 -0.8028 -1.5809
  501MOL0     H67622   0.333   9.729   1.084  0.5217 -0.1378 -3.4112
  501MOL0     H67623   0.188  10.101   1.315 -0.0027  1.0472 -0.0697
  501MOL0     H67624   0.153  10.197   1.541 -0.7096 -1.2661 -0.1266
  501MOL0     H67625   0.028   9.919   1.867 -0.5412 -1.6549 -3.1980
  501MOL0     H67626   0.046  10.072   1.948  2.5780  2.2088 -2.8211
  501MOL0     H67627  -0.178   9.996   1.942  2.9796 -1.2098  0.3340
  501MOL0     H67628  -0.188   9.995   1.762  1.2534  0.9789 -2.2385
  501MOL0     H67629  -0.192  10.226   1.756 -2.6292 -2.0522 -0.5112
  501MOL0     H67630  -0.107  10.238   1.917  0.7236 -1.2946  0.4340
  501MOL0     H67631  -0.344  10.298   1.964  0.0540 -0.6915  1.3494
  501MOL0     H67632  -0.303  10.141   2.037 -2.2645 -1.3167  1.1506
  501MOL0     H67633  -0.577  10.005   1.761 -1.1131 -1.0957  2.6243
  501MOL0     H67634   0.007   9.814   1.675 -1.0722 -3.3135 -2.0091
  501MOL0     H67635   0.048   9.717   1.463  1.9169  0.0388 -0.4649
  502MOL0     O67636   8.640   5.178   7.913  0.2815  0.3484  0.3944
  502MOL0     C67637   8.728   5.214   7.834  0.2279  0.0887 -0.1315
  502MOL0     O67638   8.714   5.251   7.696 -0.2701 -0.1396  0.2559
  502MOL0     C67639   8.601   5.211   7.628 -0.1794 -0.1532  0.7689
  502MOL0     C67640   8.527   5.101   7.653  0.3461 -0.3333  0.2916
  502MOL0     C67641   8.424   5.063   7.565  0.2134 -0.2951 -0.8293
  502MOL0     C67642   8.392   5.142   7.447  0.0234 -0.3740 -0.2108
  502MOL0     O67643   8.297   5.124   7.352 -0.0145 -0.0265 -0.2135
  502MOL0     C67644   8.223   5.002   7.362  0.2325  0.3407 -0.7187
  502MOL0     C67645   8.135   4.977   7.243  0.0512  0.3063  0.7623
  502MOL0     C67646   8.038   4.858   7.265 -0.6295  0.1901  0.7052
  502MOL0     C67647   7.930   4.864   7.155  0.9748 -0.7192 -0.6533
  502MOL0     C67648   7.838   4.741   7.159  0.7826 -0.3079  0.4153
  502MOL0     C67649   7.902   4.601   7.162  1.2757 -1.0064  0.5512
  502MOL0     C67650   7.804   4.493   7.121  0.3550 -0.9460  0.4470
  502MOL0     C67651   7.831   4.353   7.176 -0.3041  0.2041 -1.0363
  502MOL0     N67652   7.713   4.273   7.152  0.5865  0.2676  0.7976
  502MOL0     C67653   7.599   4.266   7.230  0.8790 -0.7261 -0.1672
  502MOL0     C67654   7.518   4.177   7.166  0.1855 -1.1068  0.3288
  502MOL0     C67655   7.374   4.148   7.200  0.1213  0.1916 -0.8520
  502MOL0     C67656   7.264   4.166   7.090  0.0772 -0.2360 -0.0156
  502MOL0     C67657   7.123   4.130   7.138  0.1961 -1.3953  0.1652
  502MOL0     C67658   7.030   4.098   7.026 -0.2702  0.1074 -0.6843
  502MOL0     O67659   6.897   4.099   7.043 -0.2791  0.2946 -1.0414
  502MOL0     C67660   6.840   3.987   7.091  0.2176 -0.6914  0.2131
  502MOL0     C67661   6.699   3.986   7.087 -0.7429 -1.0515  0.7358
  502MOL0     C67662   6.622   3.869   7.130  0.3039  0.3089 -0.2369
  502MOL0     C67663   6.468   3.875   7.136  0.0617  0.2730 -0.4235
  502MOL0     C67664   6.692   3.757   7.170  0.4093 -0.3125  0.2253
  502MOL0     C67665   6.632   3.621   7.219  0.8115 -0.0946  0.2035
  502MOL0     O67666   6.503   3.589   7.186  0.1177 -0.9519 -0.1233
  502MOL0     C67667   6.468   3.456   7.196  0.4506  0.5556  0.6259
  502MOL0     C67668   6.527   3.352   7.112  0.5628 -0.6923 -0.3127
  502MOL0     C67669   6.478   3.219   7.111 -0.5148 -0.8142 -0.6465
  502MOL0     C67670   6.361   3.188   7.188  0.2780 -0.5412 -0.1537
  502MOL0     O67671   6.304   3.061   7.195 -0.1220 -0.2464  0.8215
  502MOL0     C67672   6.351   2.960   7.093 -1.1690 -0.0245 -1.1282
  502MOL0     C67673   6.229   2.890   7.032 -0.0119  0.0049  0.6587
  502MOL0     C67674   6.152   2.816   7.143 -0.5062  0.3916  0.4161
  502MOL0     C67675   6.050   2.724   7.078  0.5980 -0.1774 -0.5120
  502MOL0     C67676   6.109   2.578   7.035  0.0049  0.7821  0.0489
  502MOL0     C67677   6.007   2.503   6.955 -0.2556  0.7065 -0.0866
  502MOL0     C67678   6.052   2.364   6.904 -0.1981 -0.2565  0.3969
  502MOL0     C67679   5.960   2.285   6.813  0.1091 -0.6859 -0.9194
  502MOL0    Cl67680   5.917   2.387   6.675 -0.7018 -0.5511  0.1951
  502MOL0     C67681   6.308   3.285   7.272 -0.6026  1.0439 -0.4870
  502MOL0     C67682   6.364   3.413   7.276 -0.1884 -0.0175  0.2606
  502MOL0     O67683   6.708   3.554   7.287  0.6369 -0.4738 -0.9817
  502MOL0     C67684   6.833   3.766   7.184  0.1063  0.2594 -0.4831
  502MOL0     C67685   6.902   3.882   7.149  0.0084  0.5729  0.2443
  502MOL0     N67686   7.586   4.142   7.049  0.5090  0.2923  0.1223
  502MOL0     N67687   7.700   4.193   7.042  0.2772  0.2286 -0.3736
  502MOL0     C67688   8.456   5.256   7.425  0.0849 -1.3211  0.0849
  502MOL0     C67689   8.564   5.295   7.516  0.8668 -1.0530  0.1531
  502MOL0     C67690   8.860   5.220   7.888  0.8836  0.1077  1.0022
  502MOL0     C67691   8.961   5.296   7.830 -0.8118  0.0389  0.6179
  502MOL0     C67692   9.093   5.300   7.886  0.2988 -0.1947  0.6770
  502MOL0     C67693   9.128   5.212   7.994 -0.1594  0.0967 -0.6601
  502MOL0     O67694   9.263   5.226   8.034 -0.1970 -0.8922  0.0606
  502MOL0     C67695   9.293   5.180   8.170 -0.6872  0.1259 -0.3006
  502MOL0     C67696   9.430   5.235   8.229 -0.0492  0.1343 -0.3076
  502MOL0     C67697   9.478   5.158   8.343 -2.0236 -0.3680  0.0286
  502MOL0     C67698   9.617   5.196   8.379  1.2694 -0.2347 -0.5663
  502MOL0     C67699   9.668   5.109   8.488  0.0250 -0.3029  0.4318
  502MOL0     C67700   9.720   5.045   8.579 -0.2131  1.1482 -0.6113
  502MOL0     C67701   9.023   5.135   8.048 -0.1004 -0.0396 -0.1712
  502MOL0     C67702   8.889   5.138   7.997 -0.4559 -0.1311 -0.0945
  502MOL0     H67703   8.550   5.034   7.735 -0.6575 -2.0967 -0.8049
  502MOL0     H67704   8.373   4.969   7.584  1.0316 -0.4963  0.4727
  502MOL0     H67705   8.281   4.910   7.374  0.1853  0.1144 -2.0468
  502MOL0     H67706   8.153   5.006   7.447 -1.8268 -0.3107 -2.2855
  502MOL0     H67707   8.069   5.064   7.235  2.6232  2.2800 -0.3272
  502MOL0     H67708   8.205   4.975   7.159  1.6373 -0.1614  2.0361
  502MOL0     H67709   8.103   4.770   7.269  0.0369  0.7209  2.6162
  502MOL0     H67710   7.990   4.856   7.364  0.9484  1.0872  1.5354
  502MOL0     H67711   7.873   4.955   7.174  1.2326 -1.0174  1.7487
  502MOL0     H67712   7.972   4.864   7.053  1.6276  0.6254 -0.4024
  502MOL0     H67713   7.776   4.751   7.249  3.6503 -0.5220  2.5556
  502MOL0     H67714   7.765   4.750   7.078 -0.2666  1.9068  1.5223
  502MOL0     H67715   7.992   4.613   7.101 -1.0027  1.4511 -2.6880
  502MOL0     H67716   7.927   4.599   7.268 -0.7140  0.2635  1.1009
  502MOL0     H67717   7.705   4.519   7.161 -0.2295 -1.8079 -0.3926
  502MOL0     H67718   7.804   4.499   7.012  4.7566  0.7529  0.3180
  502MOL0     H67719   7.870   4.352   7.278  0.7538  2.8191 -1.3450
  502MOL0     H67720   7.911   4.295   7.130 -0.6244 -1.5017  0.4207
  502MOL0     H67721   7.591   4.315   7.327  2.9895 -2.0658  0.7536
  502MOL0     H67722   7.375   4.045   7.236 -1.3514  0.6972  0.8167
  502MOL0     H67723   7.343   4.212   7.284  0.9685 -1.3670  0.7075
  502MOL0     H67724   7.284   4.102   7.003  0.0804  0.8919 -0.8622
  502MOL0     H67725   7.260   4.267   7.048 -2.0552  0.0506  0.7349
  502MOL0     H67726   7.081   4.216   7.191 -2.1346 -1.6396 -1.1634
  502MOL0     H67727   7.126   4.049   7.211 -1.9564 -0.4671  1.3979
  502MOL0     H67728   7.060   3.997   6.995  1.0799  0.6631 -1.2256
  502MOL0     H67729   7.058   4.171   6.950  2.4307 -0.9478 -0.8042
  502MOL0     H67730   6.653   4.077   7.051 -0.0076 -1.8454 -2.5220
  502MOL0     H67731   6.437   3.852   7.238  4.0883  0.9497  1.1556
  502MOL0     H67732   6.422   3.970   7.107 -0.9825 -0.8478 -2.7208
  502MOL0     H67733   6.432   3.802   7.063 -0.4623  0.5572 -0.4518
  502MOL0     H67734   6.617   3.376   7.055 -0.4891  0.0897 -1.7121
  502MOL0     H67735   6.531   3.140   7.061  0.2592 -0.4009 -0.4988
  502MOL0     H67736   6.402   3.001   7.006  1.3085 -0.5331  0.0105
  502MOL0     H67737   6.410   2.884   7.145 -1.0938 -0.5847 -2.0276
  502MOL0     H67738   6.161   2.956   6.978 -0.9523 -0.8499  0.7793
  502MOL0     H67739   6.264   2.809   6.967 -0.6132 -0.6919  1.1880
  502MOL0     H67740   6.094   2.887   7.202  1.5050  3.2410 -0.7851
  502MOL0     H67741   6.214   2.752   7.207 -1.7155 -1.7749 -0.4497
  502MOL0     H67742   5.969   2.719   7.151 -0.2024  1.6631 -1.2213
  502MOL0     H67743   6.004   2.771   6.991  1.8864 -1.0693 -1.7230
  502MOL0     H67744   6.132   2.518   7.124 -1.1540  2.3730  1.4803
  502MOL0     H67745   6.200   2.586   6.975  1.4023  2.3725  2.2124
  502MOL0     H67746   5.913   2.490   7.009 -1.1088 -0.5761 -1.7542
  502MOL0     H67747   5.983   2.571   6.873  1.9448  0.3011 -1.1451
  502MOL0     H67748   6.077   2.308   6.994  0.6155 -0.5878 -0.0221
  502MOL0     H67749   6.152   2.376   6.861 -0.7671  0.7075 -0.7168
  502MOL0     H67750   5.880   2.250   6.879 -0.0537 -0.0744 -0.7841
  502MOL0     H67751   6.009   2.199   6.766  0.9281 -1.6118  1.4475
  502MOL0     H67752   6.245   3.255   7.355  1.5408 -2.2924  0.1335
  502MOL0     H67753   6.313   3.484   7.340 -1.2822 -0.1014 -0.4816
  502MOL0     H67754   6.893   3.688   7.230  2.7691  1.8945 -0.9423
  502MOL0     H67755   7.008   3.882   7.175 -0.2938 -1.1910  1.6137
  502MOL0     H67756   8.435   5.323   7.341  0.4789 -0.6652  0.5040
  502MOL0     H67757   8.630   5.380   7.500  2.0385 -1.8355  0.6347
  502MOL0     H67758   8.936   5.362   7.748 -1.3482  1.4134  1.8366
  502MOL0     H67759   9.171   5.357   7.838  0.5064 -1.8764 -1.1252
  502MOL0     H67760   9.207   5.209   8.231 -0.6626 -0.3230 -0.0545
  502MOL0     H67761   9.301   5.072   8.160  0.9766  0.0958  0.9162
  502MOL0     H67762   9.426   5.341   8.257  0.9548  0.6332 -1.8907
  502MOL0     H67763   9.509   5.227   8.153 -0.7842 -1.6343 -0.9421
  502MOL0     H67764   9.476   5.048   8.335 -1.4899 -0.3879  0.1301
  502MOL0     H67765   9.422   5.192   8.430  1.4218  1.2730  1.7897
  502MOL0     H67766   9.618   5.297   8.422 -4.9092 -0.3461  0.7280
  502MOL0     H67767   9.680   5.175   8.293  0.1075  0.7999 -1.7093
  502MOL0     H67768   9.780   4.993   8.651 -0.6482 -0.4065 -1.3329
  502MOL0     H67769   9.050   5.062   8.124 -3.2281 -0.9099  0.2411
  502MOL0     H67770   8.815   5.068   8.036 -0.9024  0.5052  0.2053
  503MOL0     O67771   5.392   9.716   8.106  0.6060 -0.1193 -0.3947
  503MOL0     C67772   5.491   9.782   8.069  0.1462 -0.6026  1.2612
  503MOL0     O67773   5.592   9.822   8.147 -0.1284 -0.3924  0.8540
  503MOL0     C67774   5.607   9.791   8.284  1.2448 -0.8674  1.2974
  503MOL0     C67775   5.556   9.673   8.337 -0.2107 -0.9380 -0.2607
  503MOL0     C67776   5.553   9.644   8.472  0.4219 -0.2248 -0.6696
  503MOL0     C67777   5.606   9.744   8.561  0.3519 -0.0024  0.6251
  503MOL0     O67778   5.600   9.731   8.697  0.3210 -0.3271 -0.0136
  503MOL0     C67779   5.473   9.705   8.746  0.0417  0.1752  0.1399
  503MOL0     C67780   5.375   9.823   8.743 -0.6041  0.2255 -0.1521
  503MOL0     C67781   5.244   9.790   8.802 -0.2039  0.3500 -0.4206
  503MOL0     C67782   5.153   9.913   8.859 -1.0064  0.2475  0.3414
  503MOL0     C67783   5.010   9.859   8.851  0.8962  0.8309 -0.8002
  503MOL0     C67784   4.911   9.962   8.909  0.3540 -0.7155  0.0575
  503MOL0     C67785   4.764   9.912   8.944 -0.9248  0.7417  0.0850
  503MOL0     C67786   4.701   9.997   9.048  0.2564  0.6388  0.2970
  503MOL0     N67787   4.743   9.978   9.182  0.2422 -0.5991 -0.7408
  503MOL0     C67788   4.747   9.854   9.249 -0.5208 -0.0593 -0.4933
  503MOL0     C67789   4.833   9.874   9.348 -0.0851  0.2566  0.4314
  503MOL0     C67790   4.894   9.774   9.442 -0.3418  0.6142 -0.2025
  503MOL0     C67791   5.009   9.701   9.371  0.5078  0.1833  0.6173
  503MOL0     C67792   5.135   9.787   9.356  0.5107  0.3272  0.6726
  503MOL0     C67793   5.267   9.708   9.363 -0.2281 -0.4087  0.3118
  503MOL0     O67794   5.287   9.652   9.492 -0.1766  0.6716  0.3748
  503MOL0     C67795   5.401   9.712   9.548  0.9696  0.2095 -0.7977
  503MOL0     C67796   5.507   9.633   9.593 -0.4875 -0.4262 -0.7055
  503MOL0     C67797   5.625   9.692   9.652  0.2672  0.2764  0.0054
  503MOL0     C67798   5.743   9.595   9.683  0.1094  0.4200 -0.1721
  503MOL0     C67799   5.630   9.827   9.668  0.2706  0.0341  0.2014
  503MOL0     C67800   5.749   9.900   9.728 -1.1643  0.5539  0.8494
  503MOL0     O67801   5.710  10.025   9.767  0.3959  0.4679 -1.2824
  503MOL0     C67802   5.813  10.101   9.815 -0.2638 -0.3864 -0.3448
  503MOL0     C67803   5.851  10.223   9.763 -0.4037 -0.0066  0.0098
  503MOL0     C67804   5.966  10.293   9.797  0.0835  0.0220  0.1936
  503MOL0     C67805   6.050  10.243   9.897 -0.2552  0.9734  0.2813
  503MOL0     O67806   6.182  10.284   9.927  0.9185  0.3300  0.3139
  503MOL0     C67807   6.250  10.344   9.820 -0.7295  0.1470  1.0429
  503MOL0     C67808   6.213  10.491   9.817 -1.0327  0.4292  0.2513
  503MOL0     C67809   6.296  10.578   9.914 -0.0981 -0.8148 -0.6329
  503MOL0     C67810   6.258  10.727   9.877  0.7807 -0.7968  0.1681
  503MOL0     C67811   6.265  10.818  10.003  0.0192  0.1073  0.5580
  503MOL0     C67812   6.139  10.801  10.087 -0.7325 -0.1585  0.7270
  503MOL0     C67813   6.122  10.895  10.200  0.0157  0.1255 -1.1115
  503MOL0     C67814   6.000  10.892  10.299 -0.2685  0.3199  0.0348
  503MOL0    Cl67815   5.851  10.932  10.213 -0.1885 -0.3421  0.2173
  503MOL0     C67816   6.006  10.135   9.970 -0.0912  0.0182 -1.4369
  503MOL0     C67817   5.890  10.062   9.927  1.1701 -0.6588 -0.0427
  503MOL0     O67818   5.854   9.843   9.752  0.5896 -0.1591  0.1540
  503MOL0     C67819   5.523   9.912   9.630  0.3394  0.8258  0.7506
  503MOL0     C67820   5.406   9.853   9.573  0.1978 -0.3063 -0.0841
  503MOL0     N67821   4.874  10.008   9.350  0.4296  1.1556 -0.2240
  503MOL0     N67822   4.818  10.070   9.251 -0.0024  0.3756  0.0018
  503MOL0     C67823   5.652   9.865   8.510  1.0484 -0.1014  0.3636
  503MOL0     C67824   5.664   9.880   8.375 -0.5871 -0.3169  0.8765
  503MOL0     C67825   5.490   9.843   7.935 -0.0332  0.5542 -0.8787
  503MOL0     C67826   5.598   9.892   7.867 -0.2981  1.2013  0.0352
  503MOL0     C67827   5.579   9.969   7.757 -0.0556 -0.5200  0.7865
  503MOL0     C67828   5.457   9.993   7.699  0.0372 -0.0668 -0.1661
  503MOL0     O67829   5.457  10.071   7.582 -0.1245  0.3843  0.1148
  503MOL0     C67830   5.336  10.130   7.535  0.9783 -0.6082 -0.4687
  503MOL0     C67831   5.312  10.266   7.603  0.4111 -0.4161 -0.2861
  503MOL0     C67832   5.429  10.357   7.557 -0.3423 -1.4988  0.2810
  503MOL0     C67833   5.429  10.501   7.612 -0.1603  1.0507  0.1688
  503MOL0     C67834   5.552  10.570   7.569  0.9928  1.0286 -0.7830
  503MOL0     C67835   5.658  10.615   7.545 -0.1044  0.1898 -0.9101
  503MOL0     C67836   5.346   9.937   7.756 -0.8692 -0.0975  0.8285
  503MOL0     C67837   5.362   9.861   7.876 -0.5341 -0.4614  0.8718
  503MOL0     H67838   5.516   9.598   8.270 -0.6252 -1.6657  0.7793
  503MOL0     H67839   5.511   9.554   8.518 -0.7342  0.9889  0.7747
  503MOL0     H67840   5.417   9.626   8.695 -2.5168 -0.2625  3.3207
  503MOL0     H67841   5.505   9.675   8.846  2.2577 -1.5970 -0.9840
  503MOL0     H67842   5.414   9.909   8.799 -0.5768  1.0458 -1.3980
  503MOL0     H67843   5.354   9.849   8.639  2.6374 -2.5112 -1.6752
  503MOL0     H67844   5.188   9.743   8.721 -2.1376  0.9256  0.5429
  503MOL0     H67845   5.269   9.726   8.887 -0.9083  1.9504  1.0432
  503MOL0     H67846   5.188   9.928   8.961  0.5902 -2.4197  0.2790
  503MOL0     H67847   5.173  10.000   8.796 -1.7536 -1.1697 -1.9975
  503MOL0     H67848   4.987   9.826   8.750  3.0464 -0.9559 -0.7613
  503MOL0     H67849   5.000   9.769   8.912  1.7220  0.7359 -0.7932
  503MOL0     H67850   4.948  10.004   9.003  0.6163  0.4287 -0.5360
  503MOL0     H67851   4.898  10.039   8.832  2.0663 -1.6855 -1.2861
  503MOL0     H67852   4.702   9.922   8.855 -0.8414  0.9272  0.0481
  503MOL0     H67853   4.783   9.810   8.980 -0.0117  0.9070  0.0996
  503MOL0     H67854   4.593   9.980   9.041  0.5389 -0.8339 -0.8495
  503MOL0     H67855   4.714  10.103   9.025 -2.0225  0.2839 -3.3742
  503MOL0     H67856   4.699   9.769   9.204 -1.8234  1.6389 -2.5037
  503MOL0     H67857   4.926   9.827   9.532  3.4755 -2.4006  0.4919
  503MOL0     H67858   4.813   9.711   9.479  0.8175 -0.4140  0.6670
  503MOL0     H67859   4.974   9.652   9.279 -2.4864  1.6112  0.8586
  503MOL0     H67860   5.045   9.616   9.430  0.4345 -1.0308 -1.0047
  503MOL0     H67861   5.144   9.860   9.437  0.2291 -0.0703  1.0726
  503MOL0     H67862   5.132   9.854   9.270  1.5938  0.1647  0.5011
  503MOL0     H67863   5.344   9.783   9.343 -1.1380  0.5936  0.4444
  503MOL0     H67864   5.273   9.633   9.283 -0.3416  1.4189 -1.5005
  503MOL0     H67865   5.487   9.527   9.582  1.7944 -1.2221  1.6940
  503MOL0     H67866   5.819   9.602   9.604  1.7578  2.8910  1.5013
  503MOL0     H67867   5.787   9.617   9.780  0.6427 -2.8012  0.3995
  503MOL0     H67868   5.701   9.494   9.685  0.6204  0.2017 -0.2706
  503MOL0     H67869   5.792  10.250   9.676  0.6386  2.2163 -0.0732
  503MOL0     H67870   5.984  10.379   9.733  0.0876  2.2126  2.9544
  503MOL0     H67871   6.359  10.338   9.834 -0.9983 -3.3113  2.6493
  503MOL0     H67872   6.237  10.289   9.726 -1.1709 -0.4588  1.4545
  503MOL0     H67873   6.221  10.546   9.723  2.1651 -0.3131 -0.0097
  503MOL0     H67874   6.105  10.496   9.833 -1.6417 -1.9650 -2.2309
  503MOL0     H67875   6.403  10.557   9.927 -0.0028 -0.4082 -0.7654
  503MOL0     H67876   6.255  10.557  10.013 -0.7667  1.2218 -0.4299
  503MOL0     H67877   6.331  10.752   9.800  2.4282  1.0284  2.1818
  503MOL0     H67878   6.158  10.734   9.835  0.3859 -1.4025  0.9759
  503MOL0     H67879   6.284  10.922   9.975 -0.3986  0.3304  1.0907
  503MOL0     H67880   6.345  10.771  10.060  0.4457 -1.1742 -1.0247
  503MOL0     H67881   6.052  10.809  10.022  2.1197  2.2003 -3.2043
  503MOL0     H67882   6.145  10.701  10.132 -1.1157 -0.5592 -0.1020
  503MOL0     H67883   6.126  10.997  10.160 -0.9411  1.0814  1.0493
  503MOL0     H67884   6.209  10.887  10.267  0.4208  2.2713 -1.3222
  503MOL0     H67885   6.015  10.951  10.390 -0.6761  0.3317  0.0979
  503MOL0     H67886   5.985  10.787  10.323  3.4498 -0.1218  1.0203
  503MOL0     H67887   6.069  10.100  10.052 -2.3465  1.1607  0.9150
  503MOL0     H67888   5.853   9.971   9.972 -1.6707  0.8445  0.9563
  503MOL0     H67889   5.522  10.017   9.658  3.0790  0.2065  3.9625
  503MOL0     H67890   5.316   9.908   9.544  2.5276  1.5621 -4.9215
  503MOL0     H67891   5.676   9.947   8.577 -3.8050  1.0489  1.0550
  503MOL0     H67892   5.695   9.973   8.330 -0.2702 -1.7281 -2.0743
  503MOL0     H67893   5.697   9.864   7.901  0.0574  2.5968  0.2013
  503MOL0     H67894   5.675  10.000   7.715 -0.5055 -0.4312 -0.2086
  503MOL0     H67895   5.355  10.161   7.432 -1.5476  2.1376 -0.2458
  503MOL0     H67896   5.246  10.067   7.536  1.9757 -2.1277  1.6756
  503MOL0     H67897   5.323  10.256   7.711  0.8921  0.6041 -0.2327
  503MOL0     H67898   5.215  10.316   7.590  0.8485  0.6683  0.5207
  503MOL0     H67899   5.437  10.368   7.449 -0.2931  2.6095  0.5137
  503MOL0     H67900   5.526  10.317   7.588 -0.6875 -0.6844  2.6346
  503MOL0     H67901   5.448  10.493   7.720  1.9292  1.0495 -0.1554
  503MOL0     H67902   5.335  10.548   7.583 -0.4976 -0.4033 -1.2649
  503MOL0     H67903   5.754  10.661   7.537  0.0323  0.2389  0.7264
  503MOL0     H67904   5.251   9.931   7.704  0.7380 -1.9113 -2.2422
  503MOL0     H67905   5.275   9.812   7.919  0.7142 -2.5988  1.0970
  504MOL0     O67906   3.231   1.307   6.546  0.6946  0.3222 -0.0883
  504MOL0     C67907   3.316   1.281   6.468 -0.1680 -0.3965 -0.1407
  504MOL0     O67908   3.319   1.179   6.378 -0.1583 -0.5506 -0.2258
  504MOL0     C67909   3.215   1.093   6.370 -0.0997 -0.0499  0.0078
  504MOL0     C67910   3.218   0.970   6.437 -0.3537  0.1828  0.0521
  504MOL0     C67911   3.109   0.887   6.434  0.8881  0.9928 -0.3793
  504MOL0     C67912   2.992   0.922   6.369 -0.8878 -0.4096  0.9910
  504MOL0     O67913   2.867   0.862   6.387 -0.0220 -0.7637 -0.3846
  504MOL0     C67914   2.869   0.721   6.388  0.5807  0.8290 -0.8088
  504MOL0     C67915   2.850   0.662   6.253 -0.4803 -0.3168  0.9151
  504MOL0     C67916   2.804   0.517   6.253  0.4227 -0.3112  0.4028
  504MOL0     C67917   2.786   0.458   6.105  0.3485  1.2635 -0.4101
  504MOL0     C67918   2.738   0.315   6.114  0.2679 -1.2332 -0.6451
  504MOL0     C67919   2.730   0.243   5.975 -1.0331  0.2323  0.1757
  504MOL0     C67920   2.688   0.096   6.011  0.3699  0.3002  0.5149
  504MOL0     C67921   2.585   0.056   5.904  0.6741  0.2449  0.5535
  504MOL0     N67922   2.579  -0.082   5.858 -0.1401  0.6800  0.3655
  504MOL0     C67923   2.639  -0.147   5.751  0.2352  0.8015  0.5515
  504MOL0     C67924   2.591  -0.274   5.755 -0.8908 -0.3457 -0.9126
  504MOL0     C67925   2.625  -0.371   5.650  0.2347 -0.3241 -0.2565
  504MOL0     C67926   2.547  -0.353   5.509 -0.4738  0.3110 -1.0550
  504MOL0     C67927   2.601  -0.464   5.425 -0.0907 -0.3872  0.1136
  504MOL0     C67928   2.515  -0.491   5.296 -0.1295  0.1363  0.5402
  504MOL0     O67929   2.576  -0.609   5.234  0.0306  0.0190 -0.0124
  504MOL0     C67930   2.510  -0.726   5.255  1.1240 -0.7076 -1.5802
  504MOL0     C67931   2.372  -0.738   5.279 -0.3499  0.1896 -0.0152
  504MOL0     C67932   2.308  -0.865   5.295 -0.1525  0.4171  0.5071
  504MOL0     C67933   2.165  -0.867   5.348 -0.6067  0.4448 -0.5042
  504MOL0     C67934   2.384  -0.985   5.247  0.2160 -0.2126 -0.1992
  504MOL0     C67935   2.329  -1.117   5.278 -0.1062  0.2966  0.5548
  504MOL0     O67936   2.417  -1.211   5.304  0.2857  0.1359  0.5282
  504MOL0     C67937   2.376  -1.342   5.300 -1.5721 -0.7098  0.2354
  504MOL0     C67938   2.414  -1.414   5.181  0.4990  0.6586 -0.5131
  504MOL0     C67939   2.386  -1.549   5.175 -0.6409  0.0454  0.5952
  504MOL0     C67940   2.330  -1.616   5.285 -0.0563 -0.2198  0.0319
  504MOL0     O67941   2.288  -1.742   5.292  0.0005  0.1997 -0.5012
  504MOL0     C67942   2.314  -1.839   5.183  0.0500  0.3349 -0.3096
  504MOL0     C67943   2.263  -1.976   5.221 -0.4970 -0.2211  0.1838
  504MOL0     C67944   2.116  -1.989   5.238  0.4355  0.0989  0.5003
  504MOL0     C67945   2.037  -1.989   5.103 -0.3180 -0.6024 -0.5715
  504MOL0     C67946   1.894  -2.040   5.132 -0.3144  0.4133  0.4434
  504MOL0     C67947   1.795  -2.008   5.026 -0.1237 -0.2924  1.2622
  504MOL0     C67948   1.755  -1.847   5.000 -0.2947  0.6799 -0.1188
  504MOL0     C67949   1.607  -1.820   5.052 -0.5235  0.6612  0.3199
  504MOL0    Cl67950   1.474  -1.915   4.972  0.1219 -0.8956 -0.3219
  504MOL0     C67951   2.314  -1.547   5.407 -1.6037  0.1627  0.4800
  504MOL0     C67952   2.352  -1.413   5.417 -0.1088  1.2871  0.6464
  504MOL0     O67953   2.208  -1.139   5.264  0.3355 -0.3262 -0.4062
  504MOL0     C67954   2.511  -0.967   5.200 -0.2396 -0.2020 -0.7998
  504MOL0     C67955   2.575  -0.835   5.207 -0.1479  0.7791  0.3201
  504MOL0     N67956   2.531  -0.292   5.876 -0.4200  0.6858 -0.4527
  504MOL0     N67957   2.518  -0.176   5.940 -0.1066 -0.7836  0.1758
  504MOL0     C67958   2.997   1.039   6.295 -0.8711 -0.2142 -0.0008
  504MOL0     C67959   3.105   1.125   6.295 -0.1558 -0.1300 -0.6130
  504MOL0     C67960   3.446   1.348   6.484 -1.0193 -0.4010 -1.0053
  504MOL0     C67961   3.547   1.366   6.386  0.8051  0.8115  0.0254
  504MOL0     C67962   3.646   1.465   6.405 -0.2887 -0.4484  0.5772
  504MOL0     C67963   3.662   1.535   6.520  0.1958  0.0209  0.4264
  504MOL0     O67964   3.766   1.625   6.505  0.2132 -0.3260  0.2878
  504MOL0     C67965   3.809   1.701   6.616  0.0977 -1.2537 -0.1330
  504MOL0     C67966   3.950   1.756   6.605 -0.1230 -0.1614 -1.3987
  504MOL0     C67967   3.997   1.818   6.472  0.1712 -0.2734  0.5167
  504MOL0     C67968   3.890   1.904   6.399 -0.7675 -0.5766 -0.6489
  504MOL0     C67969   3.844   2.008   6.488  1.0278  0.0263 -0.6479
  504MOL0     C67970   3.796   2.064   6.588  0.5603  0.6459 -0.3403
  504MOL0     C67971   3.567   1.525   6.623 -0.4152 -0.2844 -0.6945
  504MOL0     C67972   3.454   1.438   6.597 -0.3032 -0.3000  0.3745
  504MOL0     H67973   3.315   0.943   6.478  0.9110  0.0183 -2.7426
  504MOL0     H67974   3.113   0.811   6.512 -2.5099 -1.2719 -2.1778
  504MOL0     H67975   2.959   0.679   6.433  1.0470  3.0347  0.4630
  504MOL0     H67976   2.781   0.697   6.448  1.1271  1.8083  0.4128
  504MOL0     H67977   2.768   0.717   6.206 -0.3313  0.0020  1.0236
  504MOL0     H67978   2.946   0.670   6.200 -0.9424 -5.0242 -1.1481
  504MOL0     H67979   2.848   0.452   6.329  0.5479 -1.1736 -0.3916
  504MOL0     H67980   2.702   0.516   6.292  0.5380 -0.1882  0.7092
  504MOL0     H67981   2.716   0.523   6.053 -1.0850  0.2416  0.1788
  504MOL0     H67982   2.876   0.466   6.043 -1.0459  2.3549 -2.3662
  504MOL0     H67983   2.803   0.261   6.184 -0.2155 -1.3236 -0.2614
  504MOL0     H67984   2.639   0.319   6.159  1.2891  1.2969  1.7029
  504MOL0     H67985   2.659   0.302   5.917  0.0253 -1.1969 -2.7369
  504MOL0     H67986   2.823   0.241   5.917 -1.8084 -0.1476 -1.0794
  504MOL0     H67987   2.776   0.032   6.000  1.2188  1.4343  0.5455
  504MOL0     H67988   2.644   0.079   6.110 -1.9730 -0.7121 -0.6200
  504MOL0     H67989   2.609   0.117   5.817  2.4347 -0.1055  0.7505
  504MOL0     H67990   2.482   0.086   5.925 -0.1091 -2.5490  1.1285
  504MOL0     H67991   2.697  -0.092   5.678 -1.3790  3.7320  1.2968
  504MOL0     H67992   2.734  -0.360   5.644  0.2594  1.6351  2.0874
  504MOL0     H67993   2.605  -0.475   5.678  1.5125 -0.6219 -0.4008
  504MOL0     H67994   2.590  -0.266   5.459 -0.4352  0.9507  0.0697
  504MOL0     H67995   2.440  -0.351   5.529  0.2948  0.7210  4.5096
  504MOL0     H67996   2.596  -0.556   5.485  1.0807 -1.3177 -1.1617
  504MOL0     H67997   2.705  -0.442   5.402  0.7883  0.9235  4.3442
  504MOL0     H67998   2.525  -0.403   5.232 -0.3661 -0.0206  0.2860
  504MOL0     H67999   2.408  -0.502   5.315  0.2081 -3.4012  0.9800
  504MOL0     H68000   2.310  -0.654   5.305 -0.4860 -0.2526  1.1179
  504MOL0     H68001   2.094  -0.887   5.267 -0.8449  0.5607 -0.3281
  504MOL0     H68002   2.146  -0.947   5.421 -2.0616 -2.2602 -3.6080
  504MOL0     H68003   2.137  -0.768   5.386  1.7245  1.0813 -0.3048
  504MOL0     H68004   2.461  -1.360   5.100  0.4501  1.2270 -0.1704
  504MOL0     H68005   2.400  -1.614   5.089 -3.0371  0.0726  0.1169
  504MOL0     H68006   2.262  -1.808   5.093  1.1945  1.4434 -0.6150
  504MOL0     H68007   2.421  -1.838   5.157 -0.1877 -2.5393 -1.7680
  504MOL0     H68008   2.297  -2.045   5.144 -2.5191 -1.6352  0.4856
  504MOL0     H68009   2.315  -2.006   5.312  0.8483  2.2237  0.3199
  504MOL0     H68010   2.091  -1.911   5.310  0.6672 -2.4572  3.5942
  504MOL0     H68011   2.102  -2.088   5.282 -1.5526  0.1963  0.1572
  504MOL0     H68012   2.034  -1.889   5.059  0.8547 -0.5869 -0.6686
  504MOL0     H68013   2.080  -2.059   5.031 -2.0344 -2.1298 -0.1845
  504MOL0     H68014   1.853  -1.991   5.220 -2.1883  0.8977 -0.6519
  504MOL0     H68015   1.898  -2.148   5.151 -5.7716  0.0015  0.8691
  504MOL0     H68016   1.826  -2.040   4.926 -0.6106  0.8166  0.7281
  504MOL0     H68017   1.705  -2.070   5.033 -0.0451 -1.0033 -2.2900
  504MOL0     H68018   1.770  -1.828   4.893  4.4307 -0.6123  0.0542
  504MOL0     H68019   1.826  -1.785   5.055 -0.0830 -0.7007  1.2507
  504MOL0     H68020   1.591  -1.712   5.047  2.0498  1.1220  0.5371
  504MOL0     H68021   1.603  -1.849   5.158  0.7648  1.3528  0.5825
  504MOL0     H68022   2.279  -1.591   5.500 -0.3745  0.2127  0.9848
  504MOL0     H68023   2.336  -1.369   5.515 -1.1226  2.6370 -0.0859
  504MOL0     H68024   2.557  -1.057   5.161 -2.0560 -0.9953 -1.1924
  504MOL0     H68025   2.677  -0.821   5.173 -0.3344  1.7686  0.1478
  504MOL0     H68026   2.906   1.073   6.247 -0.8425  1.0642  0.7951
  504MOL0     H68027   3.110   1.221   6.244  0.4695 -0.0787 -0.4509
  504MOL0     H68028   3.551   1.315   6.290  1.9223  0.7853  0.0714
  504MOL0     H68029   3.719   1.489   6.328  0.9930  0.2556  1.9541
  504MOL0     H68030   3.743   1.788   6.625 -0.5073 -1.4895 -1.9884
  504MOL0     H68031   3.798   1.644   6.709 -2.5165 -0.9906 -0.2082
  504MOL0     H68032   4.004   1.662   6.618 -1.8291 -1.3009 -2.0913
  504MOL0     H68033   3.979   1.817   6.691 -0.4278  0.0721 -1.4574
  504MOL0     H68034   4.007   1.742   6.393 -0.4715  1.8150 -1.6930
  504MOL0     H68035   4.089   1.876   6.480 -0.3205  0.5333  0.3701
  504MOL0     H68036   3.811   1.841   6.358  0.0827 -4.5175  3.0566
  504MOL0     H68037   3.945   1.969   6.330 -0.6495  0.7905  0.6704
  504MOL0     H68038   3.765   2.099   6.684  2.2664 -0.9909  0.8866
  504MOL0     H68039   3.569   1.576   6.718  1.3406 -3.7051  1.2886
  504MOL0     H68040   3.370   1.442   6.666 -1.0423  0.1217 -0.5426
  505MOL0     O68041   5.030   8.591   1.035  0.2313 -0.3081 -0.3319
  505MOL0     C68042   5.125   8.545   0.969  0.2086  1.0550 -0.8355
  505MOL0     O68043   5.206   8.449   1.010  0.4168 -0.2155 -0.2363
  505MOL0     C68044   5.172   8.390   1.127  0.1162  0.0885 -0.0007
  505MOL0     C68045   5.097   8.272   1.123 -0.5494  0.5375  0.4549
  505MOL0     C68046   5.074   8.208   1.242  0.4451  0.3179  0.3219
  505MOL0     C68047   5.114   8.265   1.360  0.2340  0.0261  0.1045
  505MOL0     O68048   5.085   8.207   1.482 -0.2677 -0.2211  0.0331
  505MOL0     C68049   5.029   8.290   1.584  0.8390  0.5550 -0.3002
  505MOL0     C68050   4.941   8.209   1.668  1.2721 -0.7680  0.1048
  505MOL0     C68051   4.857   8.303   1.760 -0.0977  0.3890  0.9611
  505MOL0     C68052   4.752   8.222   1.831  0.0914  0.3972  0.9950
  505MOL0     C68053   4.648   8.323   1.896  0.4974 -0.3725 -0.4179
  505MOL0     C68054   4.530   8.253   1.969  0.3236  0.1330 -0.0730
  505MOL0     C68055   4.441   8.156   1.890 -0.4207 -0.0773  0.3247
  505MOL0     C68056   4.338   8.071   1.960  0.4674  0.0196 -0.5502
  505MOL0     N68057   4.329   8.088   2.105 -0.1364 -0.3230 -0.5722
  505MOL0     C68058   4.420   8.032   2.200  0.4540 -0.0695  0.0257
  505MOL0     C68059   4.378   8.078   2.321  0.3783 -0.5317 -0.1048
  505MOL0     C68060   4.444   8.028   2.451  0.0626  0.7859  0.7630
  505MOL0     C68061   4.566   8.122   2.480  0.7298 -0.6172 -0.6691
  505MOL0     C68062   4.690   8.068   2.409 -0.0594 -0.5388 -0.4312
  505MOL0     C68063   4.790   8.083   2.528  0.2075  0.2765  1.5666
  505MOL0     O68064   4.930   8.095   2.475  0.3588 -0.6557 -0.1732
  505MOL0     C68065   5.004   7.986   2.466 -0.4066 -0.1292  1.1662
  505MOL0     C68066   5.138   8.007   2.435  0.3270  0.6453  0.6975
  505MOL0     C68067   5.224   7.896   2.445  0.2723  0.6958  0.0970
  505MOL0     C68068   5.368   7.925   2.427  0.3160 -0.6027  1.9534
  505MOL0     C68069   5.176   7.765   2.454 -0.3060  0.0120 -0.2515
  505MOL0     C68070   5.250   7.642   2.428 -0.1958  0.2868  0.2180
  505MOL0     O68071   5.201   7.537   2.496 -0.2552 -0.2340  0.0456
  505MOL0     C68072   5.239   7.410   2.462 -0.5225 -0.4449 -0.3043
  505MOL0     C68073   5.358   7.363   2.497 -0.3645  0.8176  0.1808
  505MOL0     C68074   5.388   7.228   2.493 -0.4319 -0.0723 -0.8333
  505MOL0     C68075   5.298   7.140   2.446  0.7916  0.2367 -0.2015
  505MOL0     O68076   5.325   7.005   2.441 -0.1651 -0.3650 -0.0199
  505MOL0     C68077   5.444   6.940   2.386  0.1643 -1.3510 -0.1347
  505MOL0     C68078   5.438   6.909   2.237 -0.1120 -0.6978  0.5945
  505MOL0     C68079   5.386   7.014   2.134 -0.0229 -0.8687 -0.2132
  505MOL0     C68080   5.361   6.953   2.003 -0.4729 -0.1099 -0.1035
  505MOL0     C68081   5.356   7.056   1.895 -0.1206 -0.3367 -0.3041
  505MOL0     C68082   5.247   7.165   1.918 -0.4895  0.0056 -0.4155
  505MOL0     C68083   5.105   7.096   1.930 -0.5808 -0.1848 -0.5827
  505MOL0     C68084   5.005   7.202   1.986 -0.2433  0.4641  0.4201
  505MOL0    Cl68085   4.926   7.300   1.856  0.4943 -0.4962  0.2617
  505MOL0     C68086   5.169   7.187   2.419 -0.4066 -0.3438  1.5352
  505MOL0     C68087   5.144   7.325   2.414  0.5119 -0.1441  0.6517
  505MOL0     O68088   5.351   7.646   2.356  0.5629 -0.2758 -0.2261
  505MOL0     C68089   5.036   7.745   2.471  0.5267 -1.0935 -0.3206
  505MOL0     C68090   4.955   7.856   2.494  0.0437  0.2296  0.9154
  505MOL0     N68091   4.268   8.159   2.297  0.2289  0.4600 -0.2250
  505MOL0     N68092   4.233   8.162   2.166  0.4510 -0.4062  0.6521
  505MOL0     C68093   5.190   8.388   1.369  0.1527 -0.0414 -2.0456
  505MOL0     C68094   5.213   8.443   1.247  0.1603 -0.9855 -0.2778
  505MOL0     C68095   5.142   8.604   0.838 -0.2951  0.0509 -1.6685
  505MOL0     C68096   5.246   8.555   0.755  0.1549 -0.2130  0.4228
  505MOL0     C68097   5.263   8.599   0.620 -0.5315  0.5756  0.6970
  505MOL0     C68098   5.179   8.709   0.576 -0.9703  0.2023  0.2182
  505MOL0     O68099   5.191   8.772   0.457 -0.2975  0.0870  0.2547
  505MOL0     C68100   5.248   8.702   0.342  0.1652 -0.2806 -0.7841
  505MOL0     C68101   5.216   8.787   0.221 -0.3532 -0.7922 -0.2097
  505MOL0     C68102   5.071   8.776   0.171 -0.5876 -0.7125  0.4275
  505MOL0     C68103   5.041   8.872   0.056 -0.2684  0.3289  0.8868
  505MOL0     C68104   5.128   8.838  -0.067 -0.4962  0.7718 -0.7562
  505MOL0     C68105   5.189   8.792  -0.163 -0.1231  0.9418 -0.2138
  505MOL0     C68106   5.083   8.759   0.668  0.0329  1.2877  0.2714
  505MOL0     C68107   5.062   8.706   0.791  0.5494  0.3427  0.0458
  505MOL0     H68108   5.046   8.229   1.037 -2.0002  0.4170  1.3527
  505MOL0     H68109   5.016   8.117   1.252 -0.1179  0.4086 -1.7193
  505MOL0     H68110   5.112   8.316   1.650  1.5077 -1.7529 -0.1265
  505MOL0     H68111   4.971   8.376   1.551 -3.0994 -1.3177  1.2186
  505MOL0     H68112   4.881   8.156   1.594  2.7509 -0.8316 -1.0825
  505MOL0     H68113   4.999   8.134   1.722  1.7971 -0.4132  0.0415
  505MOL0     H68114   4.922   8.351   1.834 -0.9210  0.6788  1.5106
  505MOL0     H68115   4.809   8.384   1.704 -1.6721  0.6872  2.6272
  505MOL0     H68116   4.705   8.142   1.774 -1.3561  0.6359  1.8080
  505MOL0     H68117   4.790   8.170   1.920  0.1641 -0.8195  0.2692
  505MOL0     H68118   4.700   8.390   1.965  2.1983  0.1008 -2.0450
  505MOL0     H68119   4.612   8.391   1.818  2.7070  1.0135 -0.3391
  505MOL0     H68120   4.571   8.203   2.057  1.8789  0.0182 -0.8271
  505MOL0     H68121   4.474   8.334   2.017  1.6783  0.3211  1.2715
  505MOL0     H68122   4.391   8.222   1.818  1.0456  0.1877 -0.4876
  505MOL0     H68123   4.505   8.086   1.836 -0.5292 -1.9601  2.5067
  505MOL0     H68124   4.365   7.969   1.933  0.3623 -0.2257  0.2574
  505MOL0     H68125   4.246   8.083   1.902 -3.0784  0.3479  4.5167
  505MOL0     H68126   4.486   7.948   2.182 -1.9052 -1.8948 -0.4512
  505MOL0     H68127   4.374   8.041   2.534  1.8178 -0.1739  2.4725
  505MOL0     H68128   4.479   7.924   2.452 -2.5237 -0.1807  1.9212
  505MOL0     H68129   4.573   8.120   2.589 -2.1557  0.2290 -0.4074
  505MOL0     H68130   4.548   8.229   2.474  0.2436 -0.6236  0.5151
  505MOL0     H68131   4.724   8.132   2.327 -0.4769  0.6985  0.3355
  505MOL0     H68132   4.689   7.965   2.371  0.7852 -1.4741  1.8832
  505MOL0     H68133   4.778   8.006   2.606 -0.5954 -1.5517 -0.2782
  505MOL0     H68134   4.770   8.182   2.570 -0.2403  0.8676  0.0045
  505MOL0     H68135   5.175   8.106   2.410 -1.0197  1.1727  0.7006
  505MOL0     H68136   5.385   7.913   2.320  0.1675 -0.9565  1.9701
  505MOL0     H68137   5.390   8.028   2.458 -0.3251 -0.0934  0.7756
  505MOL0     H68138   5.433   7.864   2.490  0.9189 -1.0057  0.9568
  505MOL0     H68139   5.419   7.448   2.529  0.7456 -0.0707  0.4880
  505MOL0     H68140   5.490   7.206   2.522 -0.9514  0.3091  1.4539
  505MOL0     H68141   5.538   6.993   2.405  0.3151 -1.4031 -0.7060
  505MOL0     H68142   5.454   6.846   2.442 -1.0737 -0.5225  1.5617
  505MOL0     H68143   5.546   6.897   2.221  0.5076 -1.0939  4.1579
  505MOL0     H68144   5.385   6.813   2.236  1.1247 -1.4034  0.1213
  505MOL0     H68145   5.466   7.089   2.133 -2.3348  1.8485  2.2013
  505MOL0     H68146   5.297   7.063   2.172  2.2016  3.1846  0.3324
  505MOL0     H68147   5.452   6.894   1.990 -0.5002  0.0244 -0.9196
  505MOL0     H68148   5.269   6.894   2.001  1.1230 -2.6990 -1.1744
  505MOL0     H68149   5.331   6.997   1.806  0.4697 -0.6605 -0.2613
  505MOL0     H68150   5.454   7.093   1.865 -0.4834  2.7849  1.8360
  505MOL0     H68151   5.269   7.232   2.002  1.9650  1.2831 -1.9591
  505MOL0     H68152   5.265   7.222   1.827  1.7050  1.1508  0.6556
  505MOL0     H68153   5.095   7.010   1.995  4.7888  0.3888  1.4823
  505MOL0     H68154   5.062   7.070   1.832 -2.6148  1.0755 -0.0816
  505MOL0     H68155   5.062   7.255   2.062  0.4715  0.9181 -0.4023
  505MOL0     H68156   4.925   7.151   2.039 -0.6546 -0.0358 -0.6407
  505MOL0     H68157   5.103   7.109   2.384  0.3022 -0.8422  1.2936
  505MOL0     H68158   5.050   7.359   2.371  0.1487 -0.8270  0.8833
  505MOL0     H68159   4.995   7.645   2.460  0.6582 -1.1247 -0.5079
  505MOL0     H68160   4.856   7.833   2.533  0.3496 -0.8657  1.0938
  505MOL0     H68161   5.233   8.429   1.459  1.1962 -1.1583 -2.0042
  505MOL0     H68162   5.269   8.536   1.242 -0.6628 -0.2258  2.7548
  505MOL0     H68163   5.306   8.471   0.789  0.5604 -0.1966 -0.2474
  505MOL0     H68164   5.335   8.559   0.549  0.6663  1.1612  1.5423
  505MOL0     H68165   5.355   8.699   0.360  0.1543  2.3489  0.0986
  505MOL0     H68166   5.209   8.601   0.325 -2.6447  0.9083 -1.9697
  505MOL0     H68167   5.284   8.769   0.137  0.7741  3.3822 -0.4376
  505MOL0     H68168   5.227   8.892   0.249 -2.8416 -0.0709 -1.5989
  505MOL0     H68169   4.997   8.801   0.247  0.2642  5.0298 -0.2269
  505MOL0     H68170   5.051   8.679   0.124 -1.0972  0.8879 -3.0182
  505MOL0     H68171   5.075   8.971   0.086  1.2195 -0.4508  1.9245
  505MOL0     H68172   4.936   8.873   0.024 -0.6879  4.1329  1.9005
  505MOL0     H68173   5.261   8.765  -0.237  0.3038  2.4967 -0.4012
  505MOL0     H68174   5.022   8.839   0.628 -1.9035  0.2209  0.9560
  505MOL0     H68175   4.985   8.746   0.855  0.1368 -1.7916  0.9805
  506MOL0     O68176   7.488   1.485   5.397 -0.2790 -0.2568  0.0647
  506MOL0     C68177   7.443   1.559   5.487 -1.7268  0.8384 -0.8381
  506MOL0     O68178   7.315   1.565   5.539 -0.1591 -0.8731 -0.1816
  506MOL0     C68179   7.216   1.473   5.535  0.6800 -0.0817  0.3741
  506MOL0     C68180   7.214   1.344   5.476 -0.4225 -0.2324  0.0623
  506MOL0     C68181   7.091   1.278   5.481 -0.4425  0.4056  0.0067
  506MOL0     C68182   6.975   1.330   5.540 -0.0222 -0.7020  0.4177
  506MOL0     O68183   6.858   1.259   5.535 -0.2724  0.0001  0.3524
  506MOL0     C68184   6.760   1.275   5.633 -0.4021  0.0209  0.0858
  506MOL0     C68185   6.742   1.136   5.703 -0.4845 -0.8836 -1.1553
  506MOL0     C68186   6.662   1.030   5.634 -0.5550  0.8597 -0.0939
  506MOL0     C68187   6.529   1.006   5.707 -0.3427  0.5087 -0.7279
  506MOL0     C68188   6.445   0.927   5.618  1.0703  0.4638  0.4239
  506MOL0     C68189   6.319   0.872   5.693  0.5005  0.0172 -1.0847
  506MOL0     C68190   6.335   0.753   5.793  0.2229 -0.1904 -0.5273
  506MOL0     C68191   6.200   0.725   5.862  0.3312  0.3425 -0.2388
  506MOL0     N68192   6.196   0.584   5.906  0.6743  0.4454  0.1957
  506MOL0     C68193   6.210   0.469   5.831 -1.0395  0.7345 -0.1813
  506MOL0     C68194   6.182   0.361   5.906  0.3020  0.0139 -0.7888
  506MOL0     C68195   6.158   0.214   5.858  1.5257  0.2485  0.9369
  506MOL0     C68196   6.245   0.118   5.942  1.3321 -0.8566 -0.6873
  506MOL0     C68197   6.187  -0.025   5.937  0.4655 -0.6573 -0.2500
  506MOL0     C68198   6.228  -0.094   5.808 -0.3051  0.7263 -0.0169
  506MOL0     O68199   6.264  -0.228   5.841 -0.0432  0.0946 -0.7710
  506MOL0     C68200   6.379  -0.254   5.914  0.9745 -0.9105  0.8546
  506MOL0     C68201   6.490  -0.181   5.944 -0.4193 -0.7290  0.1690
  506MOL0     C68202   6.596  -0.215   6.018  0.5773  0.7932  0.4041
  506MOL0     C68203   6.720  -0.131   6.039  0.0699  0.1829  0.6193
  506MOL0     C68204   6.600  -0.353   6.061  0.0402 -0.0014 -0.3803
  506MOL0     C68205   6.733  -0.409   6.112 -0.2584  0.0929  0.7725
  506MOL0     O68206   6.738  -0.466   6.238  0.5121  0.6907  0.8007
  506MOL0     C68207   6.857  -0.521   6.281 -0.6989 -0.1983 -0.3832
  506MOL0     C68208   6.860  -0.664   6.301  0.9252  0.0758 -1.0800
  506MOL0     C68209   6.978  -0.724   6.350 -0.5632 -0.2090 -0.7316
  506MOL0     C68210   7.099  -0.655   6.361  0.1633  0.8949  0.0749
  506MOL0     O68211   7.209  -0.726   6.398 -0.0491  0.6624  0.4917
  506MOL0     C68212   7.334  -0.677   6.346 -0.1501  0.1039  0.6212
  506MOL0     C68213   7.420  -0.801   6.335 -0.0395 -0.7265 -0.2243
  506MOL0     C68214   7.417  -0.884   6.216  0.3566  0.3430 -0.8106
  506MOL0     C68215   7.405  -1.023   6.256 -0.0024 -0.4033  0.3240
  506MOL0     C68216   7.419  -1.118   6.134 -0.2003 -0.0081  0.4928
  506MOL0     C68217   7.466  -1.255   6.188 -0.3502 -0.6248 -0.2688
  506MOL0     C68218   7.416  -1.361   6.083  0.0185 -0.4704  0.0487
  506MOL0     C68219   7.469  -1.505   6.107  0.3199  0.6779  0.9258
  506MOL0    Cl68220   7.371  -1.617   6.009 -0.0874  0.1199 -0.1514
  506MOL0     C68221   7.098  -0.517   6.323  0.0951  0.9797  1.7963
  506MOL0     C68222   6.981  -0.447   6.290  0.5228 -0.4508 -0.3004
  506MOL0     O68223   6.830  -0.410   6.034 -0.1508  0.6181 -0.2953
  506MOL0     C68224   6.497  -0.438   6.027  0.0942  0.0175  0.6685
  506MOL0     C68225   6.386  -0.390   5.958 -0.4972 -0.1911  0.4404
  506MOL0     N68226   6.152   0.409   6.030  0.4476  0.4864 -0.3721
  506MOL0     N68227   6.172   0.534   6.030  0.5322 -0.2411  0.3226
  506MOL0     C68228   6.979   1.462   5.609 -0.1677  0.3121 -0.6655
  506MOL0     C68229   7.106   1.526   5.605  1.0780 -0.8268  0.8052
  506MOL0     C68230   7.548   1.634   5.567 -0.1726  0.3727 -0.1749
  506MOL0     C68231   7.517   1.728   5.663 -0.1968 -0.3849 -0.6065
  506MOL0     C68232   7.615   1.804   5.737  0.4423 -0.6260 -0.0588
  506MOL0     C68233   7.743   1.759   5.717 -0.4773  0.5062  0.4082
  506MOL0     O68234   7.839   1.822   5.787 -0.4046  0.3225 -0.1831
  506MOL0     C68235   7.926   1.732   5.866 -0.0950  0.4073  0.3780
  506MOL0     C68236   8.003   1.810   5.967  0.2396 -0.4680  0.3727
  506MOL0     C68237   8.091   1.706   6.039  0.6582  0.1182 -1.2162
  506MOL0     C68238   8.191   1.760   6.142 -0.1776 -0.7870 -0.5147
  506MOL0     C68239   8.138   1.773   6.279 -0.5238 -0.5576  0.4055
  506MOL0     C68240   8.096   1.756   6.394  0.1632 -0.5014  0.3740
  506MOL0     C68241   7.781   1.673   5.617 -0.0498 -0.0528  0.2329
  506MOL0     C68242   7.682   1.604   5.540  1.0033  0.5935 -0.4946
  506MOL0     H68243   7.303   1.292   5.442 -1.4938 -1.9461 -0.2234
  506MOL0     H68244   7.086   1.175   5.447  1.2714  0.0277  0.8222
  506MOL0     H68245   6.782   1.340   5.717 -1.2968 -0.5311  0.7688
  506MOL0     H68246   6.666   1.298   5.582 -0.1688 -3.1004 -2.0574
  506MOL0     H68247   6.841   1.094   5.724 -1.2088 -2.3402 -0.4723
  506MOL0     H68248   6.703   1.164   5.802  0.7279  2.6623 -1.5414
  506MOL0     H68249   6.627   1.051   5.533 -2.0044  1.4589  0.4937
  506MOL0     H68250   6.700   0.927   5.636 -3.9106 -0.5321  1.4282
  506MOL0     H68251   6.552   0.936   5.788  0.3560  1.3933 -0.1499
  506MOL0     H68252   6.482   1.100   5.736 -0.7466  0.2415 -0.5033
  506MOL0     H68253   6.397   0.988   5.541 -2.9666 -0.9630  1.5622
  506MOL0     H68254   6.510   0.855   5.569  2.7289  3.2118 -1.7563
  506MOL0     H68255   6.284   0.960   5.747  0.1374 -2.0365  2.3515
  506MOL0     H68256   6.241   0.839   5.623 -1.5584 -0.8020  1.4429
  506MOL0     H68257   6.368   0.665   5.738 -0.4814 -1.5411  1.1139
  506MOL0     H68258   6.414   0.775   5.865  0.9765 -1.1802 -1.0308
  506MOL0     H68259   6.122   0.742   5.787 -1.4931  0.0677  1.5053
  506MOL0     H68260   6.199   0.798   5.944 -0.8212 -0.5486  0.5822
  506MOL0     H68261   6.220   0.475   5.723  0.2327  2.1017 -0.0245
  506MOL0     H68262   6.052   0.191   5.865  1.4837 -0.9608 -2.1017
  506MOL0     H68263   6.193   0.198   5.755 -0.7350 -1.4253  0.3628
  506MOL0     H68264   6.241   0.150   6.046 -0.0989 -2.3090 -0.2560
  506MOL0     H68265   6.351   0.113   5.912  1.8365  4.2314 -0.6068
  506MOL0     H68266   6.079  -0.035   5.952  0.9464 -1.9256  3.8171
  506MOL0     H68267   6.224  -0.082   6.023 -2.9911 -3.1961 -0.2532
  506MOL0     H68268   6.314  -0.038   5.771  0.8147  0.9109  2.6534
  506MOL0     H68269   6.150  -0.081   5.732 -1.8030  2.4615  1.7064
  506MOL0     H68270   6.504  -0.094   5.881 -3.0539 -1.5341 -1.7014
  506MOL0     H68271   6.691  -0.026   6.025 -2.4546 -0.3104  1.6769
  506MOL0     H68272   6.761  -0.145   6.140  3.2174  0.5065 -0.4949
  506MOL0     H68273   6.791  -0.169   5.965 -0.4148 -2.7705  1.5620
  506MOL0     H68274   6.768  -0.721   6.307 -0.4881  2.3177  3.2406
  506MOL0     H68275   6.971  -0.829   6.374 -3.6745  0.2166  0.7103
  506MOL0     H68276   7.322  -0.622   6.253 -1.6634  1.8609  1.7801
  506MOL0     H68277   7.370  -0.604   6.419 -2.4422 -0.3049  2.2678
  506MOL0     H68278   7.526  -0.776   6.338 -0.1998 -0.1786  1.7328
  506MOL0     H68279   7.390  -0.849   6.429  0.2072  1.6284  1.1128
  506MOL0     H68280   7.506  -0.871   6.153  0.2069  1.0588 -0.8826
  506MOL0     H68281   7.329  -0.859   6.157 -0.4981 -0.9498 -0.1151
  506MOL0     H68282   7.493  -1.047   6.317  1.3645  1.2837 -0.8649
  506MOL0     H68283   7.318  -1.056   6.314 -0.6544  1.1009  0.2587
  506MOL0     H68284   7.489  -1.085   6.056 -0.9385 -2.0471 -1.1439
  506MOL0     H68285   7.318  -1.120   6.091 -1.1076 -1.1005  2.5565
  506MOL0     H68286   7.575  -1.261   6.191 -0.2440  0.2907 -1.6513
  506MOL0     H68287   7.422  -1.272   6.287  0.3470 -2.4765 -0.2369
  506MOL0     H68288   7.443  -1.322   5.984 -0.4283 -1.2124 -0.3821
  506MOL0     H68289   7.307  -1.368   6.091  0.0718  0.0182  1.5566
  506MOL0     H68290   7.464  -1.535   6.212  3.0890 -0.8332  0.7123
  506MOL0     H68291   7.576  -1.515   6.087  0.2527 -0.6975  1.1767
  506MOL0     H68292   7.190  -0.461   6.331  0.7525  1.6027 -4.7383
  506MOL0     H68293   6.977  -0.339   6.280 -1.7922 -0.3841  0.7892
  506MOL0     H68294   6.493  -0.543   6.054  3.4298 -0.9790 -2.0113
  506MOL0     H68295   6.309  -0.466   5.957  1.4182 -2.2188 -0.2526
  506MOL0     H68296   6.894   1.490   5.670 -1.2511 -3.4756 -0.2175
  506MOL0     H68297   7.123   1.623   5.649 -1.7372 -0.7668  1.9915
  506MOL0     H68298   7.414   1.763   5.660  0.1508  0.6425 -2.0270
  506MOL0     H68299   7.590   1.884   5.807 -0.0730 -2.5858  2.1263
  506MOL0     H68300   7.860   1.664   5.922 -1.0131  0.1485 -0.9591
  506MOL0     H68301   7.986   1.670   5.798 -2.8104  0.3343 -2.1751
  506MOL0     H68302   7.926   1.841   6.038 -2.0333 -2.4507 -1.0690
  506MOL0     H68303   8.061   1.892   5.925  0.3587  1.2611  3.6217
  506MOL0     H68304   8.157   1.661   5.964  0.4534  1.5470 -2.2908
  506MOL0     H68305   8.040   1.622   6.087  0.9486  1.4123  1.5409
  506MOL0     H68306   8.244   1.850   6.108  0.2587 -2.2215 -4.0047
  506MOL0     H68307   8.273   1.688   6.147 -0.6239 -1.4055 -1.6891
  506MOL0     H68308   8.060   1.736   6.493 -1.0852  0.2876  0.0990
  506MOL0     H68309   7.884   1.646   5.596 -0.5273 -0.0231 -2.6408
  506MOL0     H68310   7.709   1.521   5.476  0.4752 -1.2971  1.6008
  507MOL0     O68311   8.669   0.791   6.284  0.3811  1.0207 -0.6061
  507MOL0     C68312   8.601   0.889   6.268  0.0569  0.3960 -0.0286
  507MOL0     O68313   8.518   0.945   6.361  0.0103 -0.1627  0.0738
  507MOL0     C68314   8.534   0.892   6.486 -0.2916  1.0106 -0.1745
  507MOL0     C68315   8.423   0.825   6.543  0.3814  0.6015 -0.3748
  507MOL0     C68316   8.424   0.770   6.669  0.1232  0.6768  0.3029
  507MOL0     C68317   8.542   0.791   6.751  0.0617  0.0208  0.7066
  507MOL0     O68318   8.535   0.735   6.879 -0.3555 -0.2118  0.1137
  507MOL0     C68319   8.656   0.734   6.958 -0.5991  0.2624 -0.0258
  507MOL0     C68320   8.630   0.645   7.075 -0.1213 -0.6025 -0.2397
  507MOL0     C68321   8.621   0.494   7.051  0.3924  1.1301 -0.8303
  507MOL0     C68322   8.662   0.410   7.177 -0.6103 -0.5524 -0.2556
  507MOL0     C68323   8.660   0.261   7.140  0.0417 -0.8157  0.7088
  507MOL0     C68324   8.701   0.169   7.253 -0.1053  0.3116 -0.6127
  507MOL0     C68325   8.685   0.019   7.223 -0.7041 -0.2333 -0.0001
  507MOL0     C68326   8.725  -0.064   7.339  0.4499  0.1309  0.6431
  507MOL0     N68327   8.643  -0.044   7.466 -0.1017 -0.4102 -0.0821
  507MOL0     C68328   8.516   0.003   7.478  0.4018 -0.0410 -0.1139
  507MOL0     C68329   8.501   0.018   7.613  0.2599  0.0629  0.6132
  507MOL0     C68330   8.382   0.078   7.675 -0.1748  0.1759 -0.7916
  507MOL0     C68331   8.356   0.037   7.818  0.7164 -0.3310  0.5482
  507MOL0     C68332   8.228   0.119   7.862 -0.6413 -0.0285  1.5811
  507MOL0     C68333   8.194   0.114   8.007 -0.2424  0.3924  0.0521
  507MOL0     O68334   8.117  -0.007   8.016  0.5489 -0.7880 -0.1085
  507MOL0     C68335   8.119  -0.095   8.125  0.0235  0.0551  0.4338
  507MOL0     C68336   8.175  -0.066   8.257  1.5674  0.3429  0.2981
  507MOL0     C68337   8.172  -0.163   8.348 -0.1212  0.4174 -0.6169
  507MOL0     C68338   8.224  -0.138   8.485 -0.0893  0.0055  0.1733
  507MOL0     C68339   8.106  -0.288   8.325  0.8771 -0.2405 -0.2505
  507MOL0     C68340   8.092  -0.391   8.427 -0.6315 -0.3479  0.1713
  507MOL0     O68341   8.190  -0.405   8.525  0.3804  0.6045 -0.3274
  507MOL0     C68342   8.154  -0.489   8.630 -0.7733  0.1965 -0.0814
  507MOL0     C68343   8.104  -0.442   8.753  1.0003  0.4613  0.4194
  507MOL0     C68344   8.053  -0.535   8.850  0.6699  0.4894  0.4505
  507MOL0     C68345   8.062  -0.671   8.826  0.5193 -0.1906 -0.6746
  507MOL0     O68346   8.027  -0.769   8.922  0.3078 -0.5754 -0.5613
  507MOL0     C68347   8.122  -0.879   8.941 -0.1094  0.6037  0.5408
  507MOL0     C68348   8.103  -0.927   9.091  0.5048 -0.2910  0.7989
  507MOL0     C68349   8.196  -1.039   9.134 -0.7305  0.5433 -0.2456
  507MOL0     C68350   8.180  -1.056   9.285 -0.0246  0.4228 -1.4586
  507MOL0     C68351   8.281  -1.155   9.327 -0.3349  0.1107 -0.6914
  507MOL0     C68352   8.260  -1.171   9.479 -0.2380 -0.3869 -0.1980
  507MOL0     C68353   8.366  -1.235   9.557  0.3216 -1.0787  0.5054
  507MOL0     C68354   8.310  -1.267   9.693  0.5559 -0.6680 -0.2120
  507MOL0    Cl68355   8.426  -1.371   9.800  0.2140  0.2895  0.6019
  507MOL0     C68356   8.116  -0.717   8.706  1.4120  0.1775  0.4345
  507MOL0     C68357   8.159  -0.634   8.606  0.2587  0.2617 -0.4956
  507MOL0     O68358   7.998  -0.473   8.414 -0.2039 -0.0862  0.2490
  507MOL0     C68359   8.055  -0.314   8.195  0.1510 -0.0169 -0.3313
  507MOL0     C68360   8.072  -0.220   8.103  0.2968 -0.3900 -0.3835
  507MOL0     N68361   8.612  -0.026   7.679  0.2833 -0.6208 -0.0859
  507MOL0     N68362   8.698  -0.059   7.591  0.1767 -0.2580  0.5747
  507MOL0     C68363   8.652   0.851   6.696  0.1888 -0.5493  0.3155
  507MOL0     C68364   8.642   0.909   6.567 -0.0651  0.2337  0.0385
  507MOL0     C68365   8.611   0.945   6.133  0.0777  0.2784 -0.5263
  507MOL0     C68366   8.696   0.876   6.032 -0.3109  1.5720  0.2234
  507MOL0     C68367   8.731   0.931   5.910 -0.7914  0.0450  0.4757
  507MOL0     C68368   8.672   1.048   5.871  0.1589 -0.7400  1.0068
  507MOL0     O68369   8.689   1.112   5.749  0.4864 -0.2113  0.1629
  507MOL0     C68370   8.808   1.108   5.673  0.1228 -0.0540 -0.6838
  507MOL0     C68371   8.866   1.239   5.647 -0.1169  0.1292 -0.4010
  507MOL0     C68372   8.768   1.340   5.574  0.2725  0.7117  0.1802
  507MOL0     C68373   8.823   1.484   5.565  0.7633 -0.6384 -0.2021
  507MOL0     C68374   8.808   1.547   5.694  0.5151  0.4678  0.1509
  507MOL0     C68375   8.775   1.589   5.801 -0.1711 -0.4915 -0.1497
  507MOL0     C68376   8.588   1.123   5.953 -0.3931  0.2273  0.3497
  507MOL0     C68377   8.556   1.071   6.083  0.3574  0.3906  0.0166
  507MOL0     H68378   8.334   0.825   6.480  0.8437 -0.3822 -1.0350
  507MOL0     H68379   8.334   0.720   6.704  2.4223 -2.8657  1.6746
  507MOL0     H68380   8.741   0.688   6.906 -0.5606  1.2053 -0.8231
  507MOL0     H68381   8.680   0.836   6.989 -0.4064 -0.7595  3.6612
  507MOL0     H68382   8.713   0.667   7.143  0.3068  1.4639 -1.3484
  507MOL0     H68383   8.540   0.682   7.125  0.2561  3.7679 -2.3169
  507MOL0     H68384   8.514   0.476   7.039  0.3424 -0.2718  1.2625
  507MOL0     H68385   8.678   0.450   6.969  0.6847 -0.2627  0.0916
  507MOL0     H68386   8.764   0.439   7.203 -1.0295 -0.1446  1.0075
  507MOL0     H68387   8.594   0.435   7.259  3.0104  1.3907  2.4126
  507MOL0     H68388   8.554   0.232   7.138 -0.0241 -0.7499 -3.0918
  507MOL0     H68389   8.714   0.239   7.047  0.8222  1.3443  0.5865
  507MOL0     H68390   8.809   0.184   7.265 -0.3018  0.0154  2.0486
  507MOL0     H68391   8.651   0.201   7.344 -0.4699  0.7302 -0.9568
  507MOL0     H68392   8.581   0.004   7.191 -0.5365 -1.2921 -0.0839
  507MOL0     H68393   8.744  -0.006   7.134  0.7091  2.0486  0.1927
  507MOL0     H68394   8.831  -0.051   7.360  1.3085 -1.1610 -2.3626
  507MOL0     H68395   8.717  -0.172   7.329 -0.3773 -0.1135  3.1285
  507MOL0     H68396   8.458   0.041   7.395  0.6615 -3.5147 -2.0803
  507MOL0     H68397   8.389   0.186   7.661 -0.1736  0.8407  3.0947
  507MOL0     H68398   8.304   0.045   7.606  0.8447 -0.9103 -1.4689
  507MOL0     H68399   8.433   0.049   7.895 -1.7502  3.2169  2.7459
  507MOL0     H68400   8.325  -0.067   7.829 -2.0887  0.4458  0.8430
  507MOL0     H68401   8.148   0.097   7.791  0.1150  0.7519  0.4651
  507MOL0     H68402   8.242   0.227   7.852  0.2694 -0.2687 -0.0961
  507MOL0     H68403   8.152   0.209   8.043  0.5702  1.4049 -1.5537
  507MOL0     H68404   8.282   0.099   8.070  1.1054 -0.7147 -2.0160
  507MOL0     H68405   8.216   0.032   8.279 -0.2089  0.9283  1.2203
  507MOL0     H68406   8.314  -0.197   8.500 -0.8831 -1.0738  0.7995
  507MOL0     H68407   8.253  -0.033   8.501 -0.9571 -0.1078  3.1693
  507MOL0     H68408   8.147  -0.162   8.559 -1.5804 -2.5987 -2.0488
  507MOL0     H68409   8.101  -0.336   8.773  0.6396  0.3230  1.1037
  507MOL0     H68410   7.985  -0.507   8.930  0.9304 -0.7903  1.1391
  507MOL0     H68411   8.089  -0.959   8.876 -0.3391  2.5214 -1.8327
  507MOL0     H68412   8.225  -0.849   8.918  0.4639 -1.9008 -0.4125
  507MOL0     H68413   8.121  -0.839   9.154  4.3144  0.4998 -1.1238
  507MOL0     H68414   7.997  -0.955   9.094 -0.4127  1.5149 -4.4717
  507MOL0     H68415   8.300  -1.013   9.114 -0.6521 -1.1829 -2.3895
  507MOL0     H68416   8.160  -1.120   9.070  0.3566  0.3225 -0.5902
  507MOL0     H68417   8.193  -0.958   9.332 -3.8222  0.5531 -0.3883
  507MOL0     H68418   8.080  -1.089   9.314  0.7004 -0.0196  0.7619
  507MOL0     H68419   8.380  -1.117   9.302  0.1763 -0.6298  0.1631
  507MOL0     H68420   8.268  -1.258   9.291 -1.3862 -0.6618  1.6503
  507MOL0     H68421   8.257  -1.073   9.526  3.2522  0.7223 -1.8974
  507MOL0     H68422   8.164  -1.219   9.499  0.5958 -1.1314  2.4985
  507MOL0     H68423   8.448  -1.162   9.559 -0.3206 -0.3542  2.8984
  507MOL0     H68424   8.395  -1.334   9.521 -0.4551 -0.9255 -0.6036
  507MOL0     H68425   8.215  -1.320   9.690  0.5961 -0.7685  0.1458
  507MOL0     H68426   8.287  -1.176   9.749 -0.9330 -1.9220  1.3510
  507MOL0     H68427   8.089  -0.817   8.675 -3.2800  1.2721  0.2791
  507MOL0     H68428   8.208  -0.664   8.514  0.2117  1.8016 -1.0511
  507MOL0     H68429   8.007  -0.408   8.169 -0.5662 -0.5530  2.5939
  507MOL0     H68430   8.037  -0.254   8.006 -1.2605 -0.1379  0.0779
  507MOL0     H68431   8.746   0.857   6.750  0.4563  0.7887 -0.2581
  507MOL0     H68432   8.730   0.969   6.544 -0.2925  1.2849  1.7736
  507MOL0     H68433   8.729   0.773   6.049  2.2482  1.6950 -2.8678
  507MOL0     H68434   8.784   0.879   5.831 -2.0746  0.7841 -0.9303
  507MOL0     H68435   8.883   1.047   5.725 -3.4162 -2.4964  2.0994
  507MOL0     H68436   8.789   1.064   5.575  1.6051 -2.2871 -0.0522
  507MOL0     H68437   8.949   1.220   5.577  0.0714 -3.0300  0.5326
  507MOL0     H68438   8.902   1.285   5.739 -0.5903 -1.3494  0.5580
  507MOL0     H68439   8.661   1.346   5.595 -0.6410 -0.5298 -3.3595
  507MOL0     H68440   8.765   1.306   5.469 -0.4573  1.6594 -0.1136
  507MOL0     H68441   8.763   1.536   5.490  1.0056  0.1526  0.1391
  507MOL0     H68442   8.927   1.487   5.531  1.6075  0.4964  2.2672
  507MOL0     H68443   8.760   1.618   5.903  1.1856 -0.1575 -0.0194
  507MOL0     H68444   8.541   1.211   5.911 -0.2662  0.2363  0.2264
  507MOL0     H68445   8.490   1.121   6.153 -0.3333 -0.2756 -0.1451
  508MOL0     O68446   1.947  11.304   4.007 -0.1106 -0.8623  0.9391
  508MOL0     C68447   2.063  11.270   4.019  0.1864 -1.2711 -0.0047
  508MOL0     O68448   2.162  11.350   4.086 -0.1877  0.3316 -0.1388
  508MOL0     C68449   2.145  11.469   4.139 -0.0548  0.4980  0.7166
  508MOL0     C68450   2.251  11.553   4.139  0.3255 -0.9782 -0.0876
  508MOL0     C68451   2.237  11.688   4.179  0.3047 -0.2954 -0.6986
  508MOL0     C68452   2.121  11.734   4.240 -0.0032 -0.3233  0.4002
  508MOL0     O68453   2.081  11.865   4.270  0.4148  0.4966 -0.1781
  508MOL0     C68454   2.114  11.908   4.401  0.1483  0.9086 -0.2417
  508MOL0     C68455   2.197  12.044   4.384  0.7400 -1.3173 -0.5956
  508MOL0     C68456   2.136  12.143   4.285 -1.1018  0.1149 -0.4926
  508MOL0     C68457   2.203  12.280   4.316 -0.1471 -0.1210  0.7794
  508MOL0     C68458   2.181  12.398   4.212  0.5023  0.3902  0.2991
  508MOL0     C68459   2.226  12.537   4.252  0.1489  0.1630  0.5516
  508MOL0     C68460   2.258  12.632   4.136 -1.0833 -0.2170 -0.8153
  508MOL0     C68461   2.330  12.758   4.179  0.5113 -0.2513 -0.6318
  508MOL0     N68462   2.376  12.823   4.053 -0.0493 -0.6981 -0.4996
  508MOL0     C68463   2.296  12.862   3.946  0.4735  0.4397 -0.8043
  508MOL0     C68464   2.375  12.939   3.869  0.0914  0.1170 -0.5635
  508MOL0     C68465   2.331  12.999   3.737  0.4504 -0.3256 -0.2393
  508MOL0     C68466   2.310  13.154   3.725  0.1725  0.0491 -0.4957
  508MOL0     C68467   2.432  13.247   3.741  0.0206 -0.3919  0.4209
  508MOL0     C68468   2.539  13.202   3.652 -0.4134 -0.5510  0.4144
  508MOL0     O68469   2.507  13.240   3.519  0.2315 -1.1259  0.5869
  508MOL0     C68470   2.572  13.349   3.460  0.3568 -0.2708  0.4792
  508MOL0     C68471   2.599  13.456   3.538  0.3970  0.2023 -0.4126
  508MOL0     C68472   2.658  13.568   3.482 -0.0274  0.4886 -0.6157
  508MOL0     C68473   2.680  13.682   3.577 -0.5625  0.0268 -0.4056
  508MOL0     C68474   2.686  13.582   3.351  0.5707  1.4941  1.5775
  508MOL0     C68475   2.739  13.703   3.295  1.3145  0.0101  0.4053
  508MOL0     O68476   2.855  13.759   3.346  0.3562 -0.9270 -0.2615
  508MOL0     C68477   2.894  13.892   3.318 -0.3624 -0.6910  0.6480
  508MOL0     C68478   2.975  13.964   3.410 -0.7815  0.6856  0.2515
  508MOL0     C68479   3.048  14.075   3.377 -1.2346 -0.1374  1.2104
  508MOL0     C68480   3.037  14.123   3.245  0.6612  0.3318 -0.5062
  508MOL0     O68481   3.115  14.232   3.204  0.2815  0.0360 -0.0181
  508MOL0     C68482   3.250  14.231   3.255  0.2060 -0.5984 -0.2478
  508MOL0     C68483   3.327  14.332   3.177 -0.5945  1.0378 -0.3172
  508MOL0     C68484   3.468  14.359   3.213  0.3170  0.0897  0.1928
  508MOL0     C68485   3.523  14.463   3.113 -0.3445  0.4707 -0.6434
  508MOL0     C68486   3.678  14.479   3.139  0.1670  0.3205 -0.9233
  508MOL0     C68487   3.728  14.616   3.095 -0.2596 -0.5036  0.3325
  508MOL0     C68488   3.875  14.618   3.096 -0.0430 -0.4064 -0.2799
  508MOL0     C68489   3.936  14.733   3.034 -0.0414 -0.6219  0.3903
  508MOL0    Cl68490   4.104  14.699   3.024  0.0538  0.0280  0.4950
  508MOL0     C68491   2.965  14.046   3.153  0.1084 -0.3278  0.3269
  508MOL0     C68492   2.891  13.935   3.188  0.5083 -0.3221  0.5392
  508MOL0     O68493   2.667  13.750   3.208 -0.0488 -0.1347 -0.1976
  508MOL0     C68494   2.655  13.477   3.265 -0.3367 -0.2677  0.0938
  508MOL0     C68495   2.605  13.356   3.321  0.4759 -0.0755 -0.1809
  508MOL0     N68496   2.494  12.948   3.933 -0.8370  0.3497  0.4742
  508MOL0     N68497   2.500  12.877   4.043 -0.4555  0.3926 -0.0259
  508MOL0     C68498   2.012  11.636   4.246 -0.3358 -1.1326 -0.2284
  508MOL0     C68499   2.027  11.517   4.188  0.1794  1.0054 -0.4724
  508MOL0     C68500   2.100  11.141   3.951 -0.3411  0.2790  0.3128
  508MOL0     C68501   2.006  11.075   3.866  1.1515  0.2074  0.1882
  508MOL0     C68502   2.035  10.953   3.810 -0.1132 -0.5289  0.1430
  508MOL0     C68503   2.169  10.906   3.812  0.1664 -0.0411  0.6157
  508MOL0     O68504   2.206  10.800   3.737 -0.0247  0.7666  0.1526
  508MOL0     C68505   2.268  10.698   3.826  0.1334  0.2220 -0.6008
  508MOL0     C68506   2.186  10.661   3.960  1.1500  0.3615  0.4040
  508MOL0     C68507   2.263  10.575   4.053  0.1649 -0.5922 -1.5405
  508MOL0     C68508   2.314  10.438   4.010  0.4286  0.0556  0.0009
  508MOL0     C68509   2.225  10.326   4.038 -0.7461  0.6216 -0.0770
  508MOL0     C68510   2.172  10.231   4.093  0.5378 -0.3286 -0.4533
  508MOL0     C68511   2.264  10.985   3.877  0.2161 -0.6137 -0.4600
  508MOL0     C68512   2.232  11.096   3.952 -0.1443  0.0138  0.1089
  508MOL0     H68513   2.349  11.531   4.096  0.7828 -2.7481  1.7199
  508MOL0     H68514   2.328  11.746   4.173  0.3009 -0.0534  1.2194
  508MOL0     H68515   2.032  11.917   4.473  1.1856  1.8013  0.8779
  508MOL0     H68516   2.184  11.846   4.458 -1.0658  2.4636  3.2432
  508MOL0     H68517   2.211  12.091   4.482  0.9192  1.7477 -1.9805
  508MOL0     H68518   2.298  12.017   4.352 -0.3389 -5.6428 -0.9181
  508MOL0     H68519   2.177  12.112   4.188  1.1692  0.7818  0.2022
  508MOL0     H68520   2.026  12.144   4.287 -1.2072 -1.7613  3.5341
  508MOL0     H68521   2.182  12.313   4.418 -1.5439  0.7120  0.2608
  508MOL0     H68522   2.310  12.257   4.313  0.1333  1.1406 -0.2760
  508MOL0     H68523   2.234  12.374   4.119 -0.7592 -1.6805  0.0368
  508MOL0     H68524   2.078  12.404   4.174  0.1722  1.4263  1.3122
  508MOL0     H68525   2.158  12.589   4.319  1.3368  0.4028  1.6018
  508MOL0     H68526   2.315  12.525   4.315  1.3581  5.6869  0.3878
  508MOL0     H68527   2.329  12.582   4.069 -0.8408 -0.3651 -0.4498
  508MOL0     H68528   2.169  12.660   4.080 -1.3689 -2.2528 -1.4766
  508MOL0     H68529   2.426  12.737   4.226  0.3053 -3.0853 -1.3248
  508MOL0     H68530   2.261  12.825   4.231  0.6009 -0.8325  0.2477
  508MOL0     H68531   2.190  12.855   3.926  0.4237  1.1970 -0.8379
  508MOL0     H68532   2.388  12.973   3.647 -0.5235 -2.0751 -0.3965
  508MOL0     H68533   2.231  12.962   3.716  0.7371  0.1485 -2.7538
  508MOL0     H68534   2.232  13.178   3.797  1.0489 -1.7958  1.1509
  508MOL0     H68535   2.277  13.173   3.622  3.4092 -1.4259 -1.9516
  508MOL0     H68536   2.459  13.221   3.844 -0.6138 -0.4838  0.5690
  508MOL0     H68537   2.403  13.351   3.720  0.7727 -0.1291  0.6582
  508MOL0     H68538   2.558  13.094   3.658 -0.0996 -0.4265  2.7315
  508MOL0     H68539   2.639  13.240   3.677 -0.8366  1.8928 -1.2589
  508MOL0     H68540   2.589  13.452   3.646  1.5763 -3.9834 -0.2661
  508MOL0     H68541   2.656  13.783   3.542 -1.0805  0.3438  0.8204
  508MOL0     H68542   2.620  13.668   3.668  1.3389  1.0186  1.0833
  508MOL0     H68543   2.784  13.676   3.611  0.4431 -0.3225 -3.2893
  508MOL0     H68544   2.985  13.918   3.508  3.0073 -1.8818 -1.0801
  508MOL0     H68545   3.111  14.131   3.446 -1.2378  2.0797 -0.4620
  508MOL0     H68546   3.239  14.263   3.359 -4.1205 -2.3095  0.0354
  508MOL0     H68547   3.296  14.133   3.261 -1.3070 -1.3996 -1.1089
  508MOL0     H68548   3.327  14.298   3.073  0.0735 -3.6766  0.9902
  508MOL0     H68549   3.272  14.423   3.204 -2.1088 -0.3251  1.3373
  508MOL0     H68550   3.506  14.257   3.202 -3.1336 -1.2448 -0.6531
  508MOL0     H68551   3.485  14.390   3.316 -0.2032  0.6014  0.1321
  508MOL0     H68552   3.510  14.434   3.009  0.0252  0.3102 -0.6491
  508MOL0     H68553   3.473  14.559   3.129  4.0257  3.0364 -0.5433
  508MOL0     H68554   3.723  14.398   3.080 -0.9799 -0.6158 -0.5546
  508MOL0     H68555   3.688  14.476   3.248  1.0644  0.6002 -0.9903
  508MOL0     H68556   3.692  14.651   2.998 -1.3757 -5.2879 -1.2917
  508MOL0     H68557   3.680  14.689   3.161  0.0242 -1.1193  1.2453
  508MOL0     H68558   3.913  14.523   3.057  2.1991 -0.7306  2.3793
  508MOL0     H68559   3.906  14.611   3.201  4.3350 -0.1414 -1.3646
  508MOL0     H68560   3.931  14.823   3.096  3.5715  1.2013 -1.6402
  508MOL0     H68561   3.899  14.756   2.933  4.1375 -1.0034 -1.4532
  508MOL0     H68562   2.980  14.079   3.051 -0.8810  1.0294  0.5931
  508MOL0     H68563   2.847  13.872   3.110  1.0267  1.0439 -0.9059
  508MOL0     H68564   2.676  13.484   3.159 -1.9597 -0.9966 -0.3084
  508MOL0     H68565   2.602  13.273   3.251  2.4409  0.3496 -0.8339
  508MOL0     H68566   1.914  11.650   4.291  0.2516 -2.7204  1.6728
  508MOL0     H68567   1.942  11.449   4.196  0.2034  0.6932 -2.4103
  508MOL0     H68568   1.902  11.103   3.866  0.8260 -0.9314  0.0694
  508MOL0     H68569   1.961  10.885   3.770  1.0246 -1.4287 -0.5070
  508MOL0     H68570   2.273  10.616   3.754 -0.0970 -1.5670  1.2969
  508MOL0     H68571   2.368  10.739   3.844  0.6723 -0.4556 -1.9402
  508MOL0     H68572   2.102  10.598   3.929  1.3467 -0.3361  1.2596
  508MOL0     H68573   2.131  10.750   3.993 -1.8747 -0.6810 -1.3817
  508MOL0     H68574   2.199  10.554   4.139  0.9614  1.4345 -0.3801
  508MOL0     H68575   2.348  10.625   4.101 -2.1814 -0.6357  3.1455
  508MOL0     H68576   2.407  10.420   4.065 -0.4713  0.6092  1.7754
  508MOL0     H68577   2.337  10.449   3.903 -0.9283 -0.4596 -0.3700
  508MOL0     H68578   2.132  10.141   4.133  1.3864 -2.0202 -3.1308
  508MOL0     H68579   2.367  10.963   3.852  0.5952  2.5896 -2.3833
  508MOL0     H68580   2.304  11.145   4.016  0.5206 -0.0811 -0.5600
  509MOL0     O68581   3.343   8.648   0.324 -0.6788 -0.6315 -0.3171
  509MOL0     C68582   3.395   8.643   0.210  0.1172  0.1969 -0.2577
  509MOL0     O68583   3.353   8.724   0.103 -0.0893  0.2649 -0.5560
  509MOL0     C68584   3.246   8.818   0.114 -1.5638  0.6031 -0.2085
  509MOL0     C68585   3.177   8.824  -0.007  0.5684  0.2308  0.0738
  509MOL0     C68586   3.073   8.902  -0.019 -0.1390  0.2648  0.0322
  509MOL0     C68587   3.038   8.992   0.082 -0.0679 -0.5043 -0.4318
  509MOL0     O68588   2.935   9.083   0.057  0.5611 -0.1830  0.2429
  509MOL0     C68589   2.890   9.167   0.160 -0.5189  0.3688  0.1303
  509MOL0     C68590   2.778   9.232   0.094  0.4370  0.0104  0.3954
  509MOL0     C68591   2.819   9.375   0.041 -1.4453 -0.3136  0.5096
  509MOL0     C68592   2.819   9.473   0.151  0.1096  0.1366  0.3878
  509MOL0     C68593   2.859   9.617   0.100  1.0745 -0.3145 -0.0288
  509MOL0     C68594   2.859   9.719   0.209  0.3570  0.8844  0.2478
  509MOL0     C68595   2.719   9.784   0.219  0.5045 -0.6983 -0.4023
  509MOL0     C68596   2.703   9.887   0.325 -0.8209 -0.1092 -0.7671
  509MOL0     N68597   2.701   9.832   0.467 -0.3917 -0.5847  0.0087
  509MOL0     C68598   2.790   9.873   0.569  0.1157 -0.7506  0.1609
  509MOL0     C68599   2.753   9.812   0.674 -0.0090  0.3528 -0.9810
  509MOL0     C68600   2.827   9.825   0.810  0.8815 -0.5773  1.2380
  509MOL0     C68601   2.970   9.778   0.835 -0.1109  0.4330 -0.4294
  509MOL0     C68602   3.017   9.779   0.983 -0.2582  0.4089 -0.1601
  509MOL0     C68603   3.153   9.715   0.996  1.2698  0.9051 -0.4595
  509MOL0     O68604   3.145   9.572   0.982 -0.2940 -0.2093 -0.4632
  509MOL0     C68605   3.251   9.483   1.014  0.3463  0.7696 -0.8700
  509MOL0     C68606   3.374   9.522   1.064 -0.6399 -0.1918  0.2831
  509MOL0     C68607   3.476   9.429   1.101  0.6546 -0.0613  0.0000
  509MOL0     C68608   3.616   9.487   1.128  0.2638  1.2479 -0.4205
  509MOL0     C68609   3.443   9.288   1.093 -0.3853 -0.1514 -0.4762
  509MOL0     C68610   3.523   9.172   1.154  0.3637  0.8344 -0.2925
  509MOL0     O68611   3.470   9.048   1.145 -1.4177  0.3427  0.6770
  509MOL0     C68612   3.529   8.941   1.208  1.3456  0.7056 -0.9156
  509MOL0     C68613   3.435   8.849   1.258 -0.1731  0.0877  0.3066
  509MOL0     C68614   3.477   8.744   1.343  0.5454  1.3276 -0.2153
  509MOL0     C68615   3.617   8.717   1.367  0.2736 -0.0363 -0.2407
  509MOL0     O68616   3.667   8.605   1.440 -0.0317 -0.3661  0.2119
  509MOL0     C68617   3.580   8.550   1.546  1.2133  0.2785 -0.1236
  509MOL0     C68618   3.651   8.422   1.581  0.4341  0.9390 -0.8486
  509MOL0     C68619   3.601   8.349   1.699 -0.4851 -0.4167  0.1727
  509MOL0     C68620   3.669   8.399   1.835  0.2250  0.2370  0.1430
  509MOL0     C68621   3.630   8.307   1.945  0.1112 -0.7481 -0.2815
  509MOL0     C68622   3.481   8.298   1.960  0.7704 -0.1854  0.1153
  509MOL0     C68623   3.440   8.251   2.105  0.6803 -0.5330 -0.8507
  509MOL0     C68624   3.276   8.260   2.124  0.7606 -0.0187  0.0565
  509MOL0    Cl68625   3.222   8.423   2.152 -0.1846 -0.2059 -0.0463
  509MOL0     C68626   3.709   8.807   1.311 -0.3736  0.3130  0.5827
  509MOL0     C68627   3.664   8.919   1.234  0.1549 -0.1692 -0.1396
  509MOL0     O68628   3.624   9.206   1.215 -0.2741 -0.8694  0.4016
  509MOL0     C68629   3.314   9.248   1.051  1.0188  0.0404 -0.0022
  509MOL0     C68630   3.223   9.345   1.004  0.9069 -0.2261  0.1597
  509MOL0     N68631   2.636   9.732   0.639  0.7059  0.7609  0.4393
  509MOL0     N68632   2.606   9.757   0.518 -0.0774 -0.2728 -0.2238
  509MOL0     C68633   3.104   8.980   0.203  0.5119  0.1378 -1.0249
  509MOL0     C68634   3.214   8.899   0.215  0.4075 -0.2409  0.0869
  509MOL0     C68635   3.510   8.551   0.186  0.9754 -0.2597  1.0373
  509MOL0     C68636   3.535   8.506   0.058 -0.4739  1.0173  0.1771
  509MOL0     C68637   3.632   8.413   0.028  0.9192 -0.4996  0.5631
  509MOL0     C68638   3.706   8.352   0.132  0.6138  0.2154 -0.5516
  509MOL0     O68639   3.809   8.277   0.103 -0.6864 -0.7066 -0.1393
  509MOL0     C68640   3.784   8.159   0.036 -0.0274  0.5583  0.3644
  509MOL0     C68641   3.809   8.040   0.125  0.4544  0.4868 -0.4210
  509MOL0     C68642   3.939   8.054   0.203 -0.4849  0.5633 -0.4629
  509MOL0     C68643   4.066   8.051   0.112  0.3092 -0.6778  0.1630
  509MOL0     C68644   4.189   8.026   0.194  0.1231 -0.4607  0.2263
  509MOL0     C68645   4.272   8.006   0.277 -0.7298  0.0720 -0.0800
  509MOL0     C68646   3.666   8.382   0.266  0.0670  0.2323  0.2301
  509MOL0     C68647   3.570   8.481   0.286 -0.6122  0.1878 -0.3703
  509MOL0     H68648   3.200   8.759  -0.091  0.3471 -0.7293  0.7400
  509MOL0     H68649   3.028   8.913  -0.117 -1.0905  5.6183  0.7590
  509MOL0     H68650   2.855   9.114   0.249 -1.7478  3.9553  1.9732
  509MOL0     H68651   2.966   9.237   0.194 -0.1500 -0.9300  2.2074
  509MOL0     H68652   2.737   9.166   0.016 -1.3095 -1.0139  2.1000
  509MOL0     H68653   2.686   9.234   0.154  0.2712 -1.5802  0.2447
  509MOL0     H68654   2.915   9.374  -0.010 -2.3988  0.8457 -1.4189
  509MOL0     H68655   2.759   9.412  -0.042 -1.2512  0.6938  0.8074
  509MOL0     H68656   2.727   9.476   0.211 -1.0655  1.3572 -1.3971
  509MOL0     H68657   2.892   9.439   0.226  0.0730  3.0691  1.8812
  509MOL0     H68658   2.959   9.623   0.055  1.2786 -2.4552  0.0381
  509MOL0     H68659   2.782   9.642   0.026 -0.0109  1.1100  1.5043
  509MOL0     H68660   2.892   9.674   0.302  5.6788  0.7733 -1.3764
  509MOL0     H68661   2.943   9.788   0.193  0.7613  0.1149 -1.1171
  509MOL0     H68662   2.689   9.827   0.123 -2.6208  2.0596  1.5834
  509MOL0     H68663   2.635   9.717   0.239 -2.4253  2.8696  0.1223
  509MOL0     H68664   2.612   9.945   0.306 -1.1365 -0.6336 -0.8544
  509MOL0     H68665   2.785   9.959   0.326  1.4906 -2.6088 -0.1254
  509MOL0     H68666   2.871   9.946   0.562 -2.2842  1.9457 -2.7055
  509MOL0     H68667   2.820   9.935   0.804  0.7042 -0.6486 -0.4022
  509MOL0     H68668   2.758   9.794   0.890 -0.8089 -0.5108 -0.1208
  509MOL0     H68669   3.038   9.841   0.777  1.3156 -1.3951 -0.8253
  509MOL0     H68670   2.979   9.677   0.793  0.2489  0.3441 -0.1361
  509MOL0     H68671   2.948   9.726   1.048  0.2268 -2.9914 -2.1493
  509MOL0     H68672   3.025   9.883   1.016  0.8110 -0.0664  1.1577
  509MOL0     H68673   3.209   9.735   1.088 -0.8020 -2.0071  1.6429
  509MOL0     H68674   3.210   9.753   0.911 -2.5225  3.7470 -2.0118
  509MOL0     H68675   3.402   9.627   1.060 -0.2765 -0.1124  2.9561
  509MOL0     H68676   3.613   9.586   1.081 -0.2036  0.5542 -1.9221
  509MOL0     H68677   3.626   9.494   1.237 -0.1814 -3.6012  0.1710
  509MOL0     H68678   3.697   9.429   1.081 -0.2147  1.1257 -1.1126
  509MOL0     H68679   3.327   8.858   1.264 -0.1224 -0.0100  1.7341
  509MOL0     H68680   3.401   8.681   1.390 -1.4991  5.2717  2.2474
  509MOL0     H68681   3.576   8.614   1.634  1.1681 -0.3306  0.3195
  509MOL0     H68682   3.480   8.524   1.510  1.1024 -2.0940  1.6459
  509MOL0     H68683   3.633   8.360   1.492 -0.3155 -0.5060  0.2795
  509MOL0     H68684   3.758   8.441   1.597  0.7702 -0.9160 -0.6023
  509MOL0     H68685   3.633   8.245   1.690  0.1301 -0.2289  0.1548
  509MOL0     H68686   3.493   8.351   1.712 -0.5784 -0.4977 -0.5404
  509MOL0     H68687   3.777   8.409   1.814  0.4876 -2.3223  0.0303
  509MOL0     H68688   3.622   8.495   1.860  0.0762  0.6230 -1.4829
  509MOL0     H68689   3.678   8.351   2.032 -0.9245 -1.6279  0.7749
  509MOL0     H68690   3.674   8.207   1.935  3.1944  0.4998 -0.2271
  509MOL0     H68691   3.436   8.397   1.954 -0.1721 -0.3862  2.5637
  509MOL0     H68692   3.438   8.223   1.893 -4.0399  0.9244  1.5405
  509MOL0     H68693   3.484   8.298   2.193 -0.9180 -2.8937  1.3606
  509MOL0     H68694   3.464   8.144   2.111 -0.6914 -0.7512  2.6941
  509MOL0     H68695   3.240   8.201   2.210  1.0195 -1.0924 -0.5517
  509MOL0     H68696   3.229   8.218   2.034  1.9469 -0.2869 -0.4521
  509MOL0     H68697   3.812   8.779   1.332 -1.0115 -2.4006  0.4626
  509MOL0     H68698   3.734   8.986   1.185 -0.4852  0.0854 -0.7147
  509MOL0     H68699   3.269   9.149   1.048 -1.5547  0.9941  2.5254
  509MOL0     H68700   3.136   9.307   0.950  2.2502 -6.5710  1.6586
  509MOL0     H68701   3.076   9.036   0.292 -1.2255 -0.8750 -0.8855
  509MOL0     H68702   3.257   8.896   0.314 -0.9863  0.7784  0.7472
  509MOL0     H68703   3.473   8.538  -0.025  1.8697  0.4246 -1.8832
  509MOL0     H68704   3.649   8.371  -0.071 -1.3876 -0.1297 -0.0464
  509MOL0     H68705   3.678   8.144   0.010 -0.3567 -2.3856  2.8537
  509MOL0     H68706   3.848   8.147  -0.052 -0.3843  2.8196 -0.2773
  509MOL0     H68707   3.813   7.946   0.069 -0.6161 -0.7681  1.5144
  509MOL0     H68708   3.722   8.038   0.191  2.1782 -0.4181  1.9396
  509MOL0     H68709   3.945   7.964   0.265  0.3993 -0.7464 -2.3452
  509MOL0     H68710   3.943   8.143   0.266  0.7985 -0.5237  1.0858
  509MOL0     H68711   4.062   8.151   0.068  0.4871 -0.3682  0.8320
  509MOL0     H68712   4.053   7.969   0.040 -0.4268 -0.0136 -0.4686
  509MOL0     H68713   4.343   8.019   0.356 -0.0665 -1.8876 -0.2988
  509MOL0     H68714   3.721   8.335   0.347  2.0973 -0.3299 -1.3937
  509MOL0     H68715   3.534   8.498   0.387  0.2727  0.4349 -0.0844
  510MOL0     O68716   3.191   6.028   8.982 -0.3886 -0.1034  0.4596
  510MOL0     C68717   3.077   6.037   9.006 -0.3523 -0.2196  1.0589
  510MOL0     O68718   3.007   6.159   8.999  0.0328  0.1212 -0.5808
  510MOL0     C68719   3.093   6.278   8.981  0.7116  0.4263  0.3670
  510MOL0     C68720   3.182   6.327   9.077 -0.3609 -0.6069 -0.2689
  510MOL0     C68721   3.251   6.440   9.062 -0.6917  0.5787  0.8484
  510MOL0     C68722   3.219   6.517   8.950  0.0108  0.1799  0.1512
  510MOL0     O68723   3.277   6.645   8.941  0.3998  0.0712  0.5498
  510MOL0     C68724   3.352   6.674   8.827  0.2597 -0.4315  0.6463
  510MOL0     C68725   3.441   6.799   8.861 -1.0769  0.2414  0.2034
  510MOL0     C68726   3.514   6.764   8.987 -0.6574  0.6056 -1.3708
  510MOL0     C68727   3.637   6.857   9.021  0.8629 -0.4271 -0.1149
  510MOL0     C68728   3.737   6.847   8.907 -0.7759  0.0633  0.7757
  510MOL0     C68729   3.886   6.852   8.954 -0.2991 -0.5122  0.0160
  510MOL0     C68730   3.936   6.959   9.057 -0.3392 -0.0142  1.0767
  510MOL0     C68731   3.988   7.082   8.979  0.2639  0.3699  0.5367
  510MOL0     N68732   3.878   7.162   8.919 -0.6723  0.3753 -0.0512
  510MOL0     C68733   3.753   7.172   8.976  0.4454 -0.6519  0.1453
  510MOL0     C68734   3.677   7.215   8.871 -1.1120  0.9101 -0.4831
  510MOL0     C68735   3.537   7.228   8.877 -0.2881  0.5712 -0.1718
  510MOL0     C68736   3.507   7.372   8.838  0.2571 -0.8901 -0.1614
  510MOL0     C68737   3.364   7.409   8.850  1.6878 -0.5568  0.4399
  510MOL0     C68738   3.328   7.560   8.820 -0.1243 -0.2897  0.0473
  510MOL0     O68739   3.190   7.580   8.845  0.9733 -0.6477  0.3963
  510MOL0     C68740   3.141   7.706   8.797  0.6304  1.1719  1.5696
  510MOL0     C68741   3.220   7.811   8.750  0.3099 -0.1004  0.3954
  510MOL0     C68742   3.166   7.935   8.726 -0.0623  1.5598  0.7922
  510MOL0     C68743   3.256   8.041   8.667 -0.0241 -0.3460 -0.6148
  510MOL0     C68744   3.025   7.959   8.754 -0.1677 -0.5231  0.6087
  510MOL0     C68745   2.964   8.093   8.746  0.6500  0.9443  0.0701
  510MOL0     O68746   2.824   8.099   8.745 -0.2859 -0.1448  0.4674
  510MOL0     C68747   2.762   8.222   8.721 -1.1192  0.4071 -0.1872
  510MOL0     C68748   2.768   8.331   8.815  0.9526  0.2993  0.0524
  510MOL0     C68749   2.713   8.451   8.778 -0.7623  0.8777 -0.6913
  510MOL0     C68750   2.643   8.466   8.661 -0.1970  1.4817  1.1833
  510MOL0     O68751   2.569   8.568   8.631 -0.1535 -0.6349 -0.7086
  510MOL0     C68752   2.641   8.694   8.635 -0.4627 -0.0911 -0.0089
  510MOL0     C68753   2.545   8.819   8.610 -0.4450  0.3584  0.3498
  510MOL0     C68754   2.443   8.787   8.501  0.1932  0.0060  0.4110
  510MOL0     C68755   2.405   8.909   8.422 -0.4235  0.5906 -0.2006
  510MOL0     C68756   2.309   8.860   8.307  0.6020 -0.1317  0.1423
  510MOL0     C68757   2.162   8.872   8.344 -0.1341  0.7023 -0.1936
  510MOL0     C68758   2.063   8.820   8.249 -0.2371  0.6410  0.4312
  510MOL0     C68759   1.918   8.859   8.280 -0.8692 -0.1094 -0.4474
  510MOL0    Cl68760   1.898   9.027   8.203  0.1582 -0.0726 -0.1310
  510MOL0     C68761   2.620   8.359   8.577  0.0667  0.3418 -0.4631
  510MOL0     C68762   2.684   8.242   8.598 -0.2511 -0.1369 -0.6620
  510MOL0     O68763   3.036   8.193   8.729 -0.0432  0.1993 -0.0619
  510MOL0     C68764   2.942   7.851   8.802 -0.0932  0.3866  0.0970
  510MOL0     C68765   3.003   7.723   8.814  0.6460  1.0469  0.8578
  510MOL0     N68766   3.752   7.214   8.760 -0.5263 -0.5565 -0.8455
  510MOL0     N68767   3.874   7.179   8.784  0.3380 -0.0515  0.3214
  510MOL0     C68768   3.127   6.481   8.855 -0.1348  0.5707  0.3348
  510MOL0     C68769   3.069   6.347   8.859 -0.5056 -0.0481 -0.1887
  510MOL0     C68770   3.007   5.918   9.058  0.8443  0.2274 -0.0291
  510MOL0     C68771   3.040   5.790   9.011  0.2088  0.3360 -0.3637
  510MOL0     C68772   2.975   5.683   9.063 -0.4393 -0.6540 -0.8910
  510MOL0     C68773   2.855   5.696   9.144  0.2751 -0.3054 -0.6010
  510MOL0     O68774   2.790   5.583   9.194 -0.5089 -0.0525  0.3453
  510MOL0     C68775   2.725   5.513   9.092 -0.1209  0.8353 -0.4928
  510MOL0     C68776   2.643   5.394   9.138 -0.2126  0.8588 -0.6330
  510MOL0     C68777   2.528   5.439   9.234  0.9097  0.2131  0.6780
  510MOL0     C68778   2.449   5.319   9.291 -0.8448  0.6875  0.5592
  510MOL0     C68779   2.380   5.252   9.179  0.7134 -0.2531 -0.7117
  510MOL0     C68780   2.338   5.205   9.072 -0.2105  0.5403 -0.3353
  510MOL0     C68781   2.813   5.822   9.179  0.2194 -0.2576 -0.4314
  510MOL0     C68782   2.886   5.934   9.129 -0.8219  0.4997 -0.9477
  510MOL0     H68783   3.188   6.279   9.174  2.5302  0.7565  0.3280
  510MOL0     H68784   3.316   6.483   9.137  0.0665 -2.4877  2.1152
  510MOL0     H68785   3.421   6.591   8.806  0.6329  0.5349 -2.5676
  510MOL0     H68786   3.289   6.685   8.738 -2.7983 -0.1343  2.7201
  510MOL0     H68787   3.511   6.819   8.778 -2.4737  1.7718 -0.6666
  510MOL0     H68788   3.379   6.889   8.867 -0.6377  0.4210  2.9870
  510MOL0     H68789   3.444   6.774   9.071 -2.4944  3.9520 -3.0735
  510MOL0     H68790   3.550   6.662   8.977  3.2077  1.8612 -1.8384
  510MOL0     H68791   3.605   6.961   9.029 -3.1947 -1.3343 -1.9569
  510MOL0     H68792   3.684   6.821   9.113 -1.2029 -3.2394 -0.0298
  510MOL0     H68793   3.729   6.758   8.845 -1.5615  1.7942 -1.7517
  510MOL0     H68794   3.724   6.932   8.840  2.8998  0.5063  0.3976
  510MOL0     H68795   3.905   6.760   9.010 -0.3635 -1.6780 -1.7922
  510MOL0     H68796   3.953   6.853   8.868  1.5600  0.1485  1.4075
  510MOL0     H68797   3.856   6.988   9.125 -0.2910 -0.0802  1.1624
  510MOL0     H68798   4.017   6.920   9.120  1.8332  2.1602 -0.1863
  510MOL0     H68799   4.057   7.054   8.899 -2.3831 -0.1923 -1.7087
  510MOL0     H68800   4.051   7.138   9.048  0.9686 -1.5326  1.5352
  510MOL0     H68801   3.714   7.161   9.077  3.2371  0.3895  1.4305
  510MOL0     H68802   3.481   7.161   8.812  0.8533 -1.0505  0.4609
  510MOL0     H68803   3.501   7.218   8.979  0.7423  5.3345  0.9146
  510MOL0     H68804   3.540   7.392   8.736 -2.6330  0.4318 -0.9167
  510MOL0     H68805   3.551   7.429   8.921  0.3086 -1.3734  0.1480
  510MOL0     H68806   3.337   7.388   8.954  0.5864  0.8047  0.4694
  510MOL0     H68807   3.293   7.342   8.801  0.0577  1.6996 -0.4446
  510MOL0     H68808   3.340   7.581   8.714 -1.7865  0.5657 -0.0036
  510MOL0     H68809   3.373   7.634   8.887  1.1620 -3.3696  2.8924
  510MOL0     H68810   3.327   7.799   8.752  0.7467  2.6692  3.7601
  510MOL0     H68811   3.216   8.084   8.575  0.5578 -2.0285 -1.6983
  510MOL0     H68812   3.260   8.115   8.747 -2.9648 -1.2193  0.5041
  510MOL0     H68813   3.357   8.001   8.652 -0.4061 -2.0488  0.9307
  510MOL0     H68814   2.808   8.302   8.912  1.0889  0.4134  0.0295
  510MOL0     H68815   2.717   8.518   8.863 -0.2471 -0.7130  0.5895
  510MOL0     H68816   2.704   8.708   8.722  1.4343  0.8813 -1.4631
  510MOL0     H68817   2.728   8.699   8.569  0.8767 -0.4227  1.6948
  510MOL0     H68818   2.494   8.829   8.706 -0.6454 -4.8680  1.0259
  510MOL0     H68819   2.615   8.895   8.573  0.9751 -0.9425  0.2402
  510MOL0     H68820   2.350   8.745   8.542 -1.4258  1.5718 -1.4760
  510MOL0     H68821   2.481   8.710   8.433 -0.1529  0.7720 -0.6748
  510MOL0     H68822   2.357   8.982   8.488  0.1117 -0.1573  1.0513
  510MOL0     H68823   2.493   8.953   8.374 -0.6439  0.3750 -0.8131
  510MOL0     H68824   2.335   8.758   8.278 -2.2353 -1.2191  1.1201
  510MOL0     H68825   2.324   8.928   8.222 -2.2448  0.0593 -0.3030
  510MOL0     H68826   2.154   8.830   8.444  1.9949 -1.0154 -0.6525
  510MOL0     H68827   2.137   8.977   8.363  4.1797  1.4456  2.9460
  510MOL0     H68828   2.083   8.713   8.255 -1.1488  0.3717 -0.8448
  510MOL0     H68829   2.082   8.852   8.146 -4.8837 -2.0296 -1.5669
  510MOL0     H68830   1.913   8.873   8.388  0.7752  0.5810 -0.4183
  510MOL0     H68831   1.849   8.783   8.242 -0.3403 -0.1813 -1.2859
  510MOL0     H68832   2.561   8.366   8.486  3.5900  1.8342 -2.8730
  510MOL0     H68833   2.662   8.155   8.538  1.3371 -0.8634 -0.2360
  510MOL0     H68834   2.837   7.865   8.823  0.5110  1.7739  2.6275
  510MOL0     H68835   2.954   7.638   8.860  0.5890 -0.7586 -2.2678
  510MOL0     H68836   3.097   6.543   8.771  2.5321 -2.6517 -3.3920
  510MOL0     H68837   2.994   6.308   8.790 -1.5829 -1.0785  1.4959
  510MOL0     H68838   3.125   5.773   8.945 -0.7248 -1.7237 -1.1035
  510MOL0     H68839   3.013   5.583   9.046 -0.9405 -0.5778 -2.6155
  510MOL0     H68840   2.660   5.573   9.027 -2.5501 -3.4341 -2.4684
  510MOL0     H68841   2.807   5.477   9.029 -0.7464  0.8451 -1.3362
  510MOL0     H68842   2.698   5.313   9.187 -1.9061  0.0847  0.0530
  510MOL0     H68843   2.613   5.339   9.048 -0.5470 -2.1619  1.1776
  510MOL0     H68844   2.459   5.503   9.180 -1.9102 -3.3560 -0.3326
  510MOL0     H68845   2.574   5.489   9.321 -1.7164  1.7125  1.3140
  510MOL0     H68846   2.384   5.339   9.377 -2.0986 -1.5039  0.2100
  510MOL0     H68847   2.512   5.234   9.322 -2.6795 -0.7225  0.6113
  510MOL0     H68848   2.311   5.160   8.978  0.2209  0.5588 -0.4700
  510MOL0     H68849   2.721   5.838   9.234  0.2678  0.0155 -0.4273
  510MOL0     H68850   2.841   6.030   9.154 -1.4499  0.6036 -2.3987
  511MOL0     O68851   7.874   5.487   5.838 -0.3107 -0.1850 -0.2606
  511MOL0     C68852   7.835   5.510   5.955  0.0600 -0.6282 -0.1082
  511MOL0     O68853   7.904   5.475   6.068  0.4770 -0.6853 -0.0711
  511MOL0     C68854   8.041   5.481   6.079 -0.4856  0.3814  0.3840
  511MOL0     C68855   8.121   5.371   6.060 -0.3239  0.3045 -0.1218
  511MOL0     C68856   8.259   5.384   6.060  1.0864  1.0448 -0.1703
  511MOL0     C68857   8.326   5.496   6.093  0.3948 -0.6639  0.4728
  511MOL0     O68858   8.467   5.492   6.080 -0.3634 -0.2248  0.1672
  511MOL0     C68859   8.544   5.616   6.090  0.2150 -0.0898  0.4431
  511MOL0     C68860   8.688   5.572   6.075 -0.2383  0.1556 -0.8085
  511MOL0     C68861   8.791   5.673   6.028 -0.1913 -0.6584  1.2411
  511MOL0     C68862   8.928   5.601   6.026 -0.1936  0.0114 -0.4199
  511MOL0     C68863   9.043   5.673   5.959  0.2217  0.0459 -0.4211
  511MOL0     C68864   9.176   5.606   5.984 -0.0460  0.2879 -0.5486
  511MOL0     C68865   9.291   5.647   5.879 -0.3923 -0.2706 -0.5805
  511MOL0     C68866   9.438   5.612   5.927  0.4107 -0.0811  0.6057
  511MOL0     N68867   9.493   5.724   6.010  1.1045  0.3080 -0.1318
  511MOL0     C68868   9.495   5.717   6.153  0.5990 -0.4680 -0.0087
  511MOL0     C68869   9.543   5.835   6.193  0.0636 -0.0921  0.1876
  511MOL0     C68870   9.566   5.870   6.345 -0.3482  0.3103  0.0168
  511MOL0     C68871   9.716   5.911   6.369 -0.1658 -0.7016 -0.9066
  511MOL0     C68872   9.804   5.788   6.416 -0.0497  0.4463 -0.5082
  511MOL0     C68873   9.944   5.829   6.459  0.1508 -0.0562  0.6703
  511MOL0     O68874  10.026   5.714   6.468  0.4183  0.6491  0.3183
  511MOL0     C68875  10.140   5.716   6.548  1.3336 -0.7940  0.2340
  511MOL0     C68876  10.185   5.841   6.582 -0.0864 -0.2378  0.3015
  511MOL0     C68877  10.285   5.860   6.677  0.3311  0.3607 -0.3176
  511MOL0     C68878  10.346   6.003   6.684  0.6636 -0.9166 -0.2288
  511MOL0     C68879  10.341   5.750   6.738  0.2998  0.1538 -0.3564
  511MOL0     C68880  10.453   5.758   6.838  0.4272  0.0327  0.5783
  511MOL0     O68881  10.572   5.823   6.800 -0.2714 -0.2348  0.4806
  511MOL0     C68882  10.678   5.802   6.880 -0.5392  0.2642  0.4316
  511MOL0     C68883  10.696   5.873   6.996 -0.9536  0.9012  0.6519
  511MOL0     C68884  10.809   5.845   7.073 -0.7162  0.3499  0.4828
  511MOL0     C68885  10.917   5.760   7.029 -0.0013  0.9571  0.1550
  511MOL0     O68886  11.029   5.749   7.097  0.6968  0.0423 -0.4767
  511MOL0     C68887  11.070   5.617   7.146 -0.1337 -0.1731  0.2589
  511MOL0     C68888  11.212   5.583   7.090  0.3341  0.2817 -0.5740
  511MOL0     C68889  11.275   5.446   7.133 -0.2041  0.2221  0.1430
  511MOL0     C68890  11.427   5.463   7.150  0.3414 -0.1689 -0.0081
  511MOL0     C68891  11.496   5.336   7.186  0.0873  0.0146 -0.5306
  511MOL0     C68892  11.505   5.235   7.070  0.5876 -0.1045 -0.0279
  511MOL0     C68893  11.544   5.089   7.108 -0.9613  0.9910  0.2685
  511MOL0     C68894  11.427   5.018   7.180 -0.0864  0.8472 -0.0877
  511MOL0    Cl68895  11.452   4.834   7.191 -0.5987  0.0860  0.4540
  511MOL0     C68896  10.891   5.675   6.916 -0.0469  0.1000 -0.6968
  511MOL0     C68897  10.771   5.709   6.844 -0.0357  0.8851 -0.3960
  511MOL0     O68898  10.427   5.704   6.944 -0.3768  0.6628 -0.3260
  511MOL0     C68899  10.293   5.614   6.702 -0.2849  0.0468 -0.2953
  511MOL0     C68900  10.189   5.601   6.611 -0.1691 -0.1077  0.6195
  511MOL0     N68901   9.583   5.898   6.074  0.5664 -0.5977  0.4402
  511MOL0     N68902   9.546   5.839   5.970  0.9818  0.0916 -0.3892
  511MOL0     C68903   8.249   5.606   6.130 -0.0845  0.4268 -0.6919
  511MOL0     C68904   8.107   5.599   6.129  0.2831  0.2268  0.3879
  511MOL0     C68905   7.697   5.552   5.956  0.3405  0.7788 -0.7770
  511MOL0     C68906   7.615   5.574   5.846  0.6719  0.0130  0.1370
  511MOL0     C68907   7.474   5.605   5.866 -1.3094 -0.8348  0.2446
  511MOL0     C68908   7.415   5.622   5.992 -0.9119 -0.0128  0.2515
  511MOL0     O68909   7.291   5.671   6.018  0.0340 -0.2199  0.7263
  511MOL0     C68910   7.204   5.675   5.907  0.3474 -0.2239  0.5764
  511MOL0     C68911   7.064   5.703   5.964  0.3486 -0.4335 -1.3977
  511MOL0     C68912   7.077   5.841   6.044 -0.2580  0.6872  0.5198
  511MOL0     C68913   6.953   5.922   6.076  0.1785 -0.7722  0.2932
  511MOL0     C68914   6.856   5.857   6.165  1.0006 -0.7931  0.5245
  511MOL0     C68915   6.766   5.811   6.236 -0.5201 -0.9418  0.1476
  511MOL0     C68916   7.507   5.607   6.104  0.2679 -0.1034  0.0977
  511MOL0     C68917   7.639   5.568   6.086 -0.7309 -0.5710  0.3956
  511MOL0     H68918   8.087   5.278   6.017  0.8975 -0.4278  0.4292
  511MOL0     H68919   8.314   5.303   6.015  1.2399  0.2526  1.3575
  511MOL0     H68920   8.520   5.691   6.014 -0.7181  3.0315  3.5247
  511MOL0     H68921   8.530   5.678   6.179 -1.0824  0.6959 -0.2675
  511MOL0     H68922   8.718   5.519   6.166 -0.4497  2.2007  0.5190
  511MOL0     H68923   8.664   5.498   5.998 -1.3205  0.4926 -0.8126
  511MOL0     H68924   8.766   5.696   5.924  0.2090 -2.8775  0.6110
  511MOL0     H68925   8.798   5.769   6.082 -0.2793 -1.2132  2.2740
  511MOL0     H68926   8.947   5.587   6.133  1.5663  4.0461 -0.0440
  511MOL0     H68927   8.916   5.496   5.998  1.6210 -0.4873  0.5032
  511MOL0     H68928   9.032   5.665   5.851 -1.3399  2.4466 -0.5038
  511MOL0     H68929   9.056   5.778   5.985  4.6666 -0.4222  0.1306
  511MOL0     H68930   9.207   5.646   6.080  0.7706 -1.7070  0.0853
  511MOL0     H68931   9.173   5.498   6.003  2.1596  0.7873  3.7578
  511MOL0     H68932   9.274   5.595   5.784 -3.9871  0.2816 -0.3973
  511MOL0     H68933   9.278   5.755   5.862  0.4296  0.0489  0.6521
  511MOL0     H68934   9.494   5.595   5.835 -0.2937  1.1354 -0.0698
  511MOL0     H68935   9.434   5.519   5.985 -2.2350  0.4035  1.3155
  511MOL0     H68936   9.448   5.643   6.217 -0.5425 -0.2382 -0.5539
  511MOL0     H68937   9.498   5.946   6.383  0.6426  0.4615  1.5668
  511MOL0     H68938   9.539   5.774   6.391  2.0275  0.0117  0.9177
  511MOL0     H68939   9.740   5.994   6.436  0.7843 -1.2790 -0.5235
  511MOL0     H68940   9.763   5.937   6.274 -0.7291  3.2858 -0.2390
  511MOL0     H68941   9.808   5.715   6.334 -0.6389 -0.2053  0.0389
  511MOL0     H68942   9.756   5.732   6.496  0.2551  0.8998 -0.0057
  511MOL0     H68943   9.930   5.884   6.552 -0.2093 -0.4345  0.8419
  511MOL0     H68944   9.997   5.888   6.383 -2.0248 -0.7607 -1.5352
  511MOL0     H68945  10.155   5.933   6.532 -0.6451 -0.0727  0.9304
  511MOL0     H68946  10.384   6.020   6.785  4.0890 -0.2632 -1.4661
  511MOL0     H68947  10.426   6.040   6.618 -0.2271  0.7544 -0.4329
  511MOL0     H68948  10.267   6.077   6.669  3.4121  2.2250 -0.5453
  511MOL0     H68949  10.631   5.958   7.011 -0.7069  1.5406 -1.5395
  511MOL0     H68950  10.821   5.899   7.167 -4.6893  4.3591 -1.0001
  511MOL0     H68951  11.083   5.628   7.254 -2.1553  2.8808  0.3269
  511MOL0     H68952  10.998   5.537   7.126  0.5406 -0.6772 -0.2026
  511MOL0     H68953  11.185   5.569   6.985 -0.0805  2.0472 -0.7467
  511MOL0     H68954  11.287   5.662   7.090  1.0264 -0.3667  0.2028
  511MOL0     H68955  11.252   5.372   7.056 -0.0805 -0.7447  1.0142
  511MOL0     H68956  11.230   5.429   7.231 -2.3357  2.4008 -0.3489
  511MOL0     H68957  11.468   5.517   7.064  1.5621 -0.5780  0.2977
  511MOL0     H68958  11.422   5.536   7.232 -1.9231  0.6747 -0.8238
  511MOL0     H68959  11.441   5.293   7.270 -0.7685  0.4180 -0.8753
  511MOL0     H68960  11.602   5.351   7.210 -0.1319  0.4667  0.1815
  511MOL0     H68961  11.409   5.230   7.018  0.2125  0.6299  0.5878
  511MOL0     H68962  11.583   5.278   7.008  3.2780  2.2802  4.5199
  511MOL0     H68963  11.626   5.099   7.180  0.0064 -1.1173 -0.4403
  511MOL0     H68964  11.577   5.022   7.028  0.6346 -0.3943  1.9691
  511MOL0     H68965  11.331   5.039   7.133  0.4634  2.3976 -0.5839
  511MOL0     H68966  11.436   5.065   7.278  2.4057 -0.6777  0.4949
  511MOL0     H68967  10.964   5.602   6.883 -0.3293  0.1243 -1.3810
  511MOL0     H68968  10.746   5.658   6.751  2.6189  0.4130 -0.9166
  511MOL0     H68969  10.331   5.532   6.762  1.1272  1.0303  0.2072
  511MOL0     H68970  10.140   5.510   6.577 -2.3294  1.4834 -0.7389
  511MOL0     H68971   8.291   5.699   6.168  3.1597 -1.6556  1.3068
  511MOL0     H68972   8.052   5.684   6.170  2.4700  1.3891  1.0451
  511MOL0     H68973   7.637   5.557   5.741 -2.9126  2.5759 -1.2519
  511MOL0     H68974   7.422   5.631   5.774 -0.8369  0.7996  0.3993
  511MOL0     H68975   7.233   5.752   5.836 -1.2913 -0.5636 -0.5273
  511MOL0     H68976   7.204   5.576   5.859  0.9180 -0.6759  1.4800
  511MOL0     H68977   7.019   5.629   6.031 -2.2200  1.6330 -0.6679
  511MOL0     H68978   6.991   5.707   5.883  0.1281 -0.5789 -1.2087
  511MOL0     H68979   7.147   5.910   5.997  0.4849  2.2645  3.6954
  511MOL0     H68980   7.122   5.829   6.143  1.7000 -1.6809 -0.5231
  511MOL0     H68981   6.897   5.938   5.984 -1.4581  0.2122  1.3961
  511MOL0     H68982   6.981   6.022   6.111  3.2107 -0.6511 -2.0137
  511MOL0     H68983   6.681   5.771   6.289 -1.8854 -0.2209 -1.4240
  511MOL0     H68984   7.464   5.610   6.204 -0.1883 -1.0761 -0.0611
  511MOL0     H68985   7.706   5.561   6.171 -0.1813  1.3174  0.1833
  512MOL0     O68986   8.248   4.902   6.380  0.1980  0.4245  0.8887
  512MOL0     C68987   8.278   5.020   6.364 -0.3379 -0.6620 -0.3343
  512MOL0     O68988   8.187   5.117   6.325 -0.0365  0.6953  0.1895
  512MOL0     C68989   8.057   5.076   6.284 -0.4159 -0.1878 -0.1279
  512MOL0     C68990   8.042   5.031   6.152  0.0863  0.0631 -0.6138
  512MOL0     C68991   7.928   4.970   6.123  0.5651 -0.4175  0.4380
  512MOL0     C68992   7.829   4.944   6.211  0.6541 -0.2929 -0.7931
  512MOL0     O68993   7.719   4.873   6.166  1.1090 -0.2795 -0.5612
  512MOL0     C68994   7.618   4.851   6.261 -0.1948 -0.3481 -0.9521
  512MOL0     C68995   7.496   4.791   6.180  0.1404  0.1763 -0.0435
  512MOL0     C68996   7.436   4.882   6.077 -0.3344 -0.0138 -0.0201
  512MOL0     C68997   7.314   4.819   6.009  0.0683  0.0966  0.0746
  512MOL0     C68998   7.254   4.894   5.884 -0.5696  0.7632  0.2051
  512MOL0     C68999   7.360   4.906   5.767 -0.3281  0.4348  0.2884
  512MOL0     C69000   7.475   4.803   5.759  0.9802 -0.2577  0.0304
  512MOL0     C69001   7.474   4.715   5.625 -1.3078 -0.2428  1.2239
  512MOL0     N69002   7.370   4.616   5.611  0.4504 -0.4845 -0.4625
  512MOL0     C69003   7.230   4.645   5.617  0.5039 -0.5276 -0.6586
  512MOL0     C69004   7.175   4.540   5.682  0.6366 -0.2004  0.2281
  512MOL0     C69005   7.022   4.529   5.700 -0.2516 -0.5785 -0.3136
  512MOL0     C69006   6.981   4.451   5.823 -0.3231  0.0083  0.6901
  512MOL0     C69007   6.934   4.313   5.778 -1.0077 -0.2138 -0.0474
  512MOL0     C69008   7.048   4.227   5.721 -0.3780 -0.0705 -0.0166
  512MOL0     O69009   6.983   4.116   5.670 -0.5594  0.1627  0.1541
  512MOL0     C69010   7.064   4.042   5.586 -0.4240  0.2701  0.1274
  512MOL0     C69011   7.207   4.051   5.583 -0.1575  0.3176 -0.6152
  512MOL0     C69012   7.279   3.975   5.499 -0.2206 -0.4271  1.0224
  512MOL0     C69013   7.426   4.012   5.464  0.2174 -0.3095  0.2975
  512MOL0     C69014   7.216   3.885   5.410 -0.1700 -0.5771  0.7778
  512MOL0     C69015   7.291   3.809   5.308 -0.2535 -0.0703 -0.0996
  512MOL0     O69016   7.394   3.744   5.358  0.2585 -0.0148  0.6520
  512MOL0     C69017   7.467   3.672   5.264 -0.1916 -0.7278 -0.1343
  512MOL0     C69018   7.540   3.740   5.159  0.9610  0.8653  0.5279
  512MOL0     C69019   7.617   3.668   5.066  0.3686 -0.5495 -0.8301
  512MOL0     C69020   7.624   3.534   5.083 -0.5312  0.5695  0.4114
  512MOL0     O69021   7.700   3.453   5.002 -0.3344  0.2477 -1.0212
  512MOL0     C69022   7.728   3.500   4.867  0.3329  0.2291  0.1993
  512MOL0     C69023   7.811   3.415   4.774  0.2429  0.6550  0.2030
  512MOL0     C69024   7.729   3.283   4.758 -0.3774  0.1532 -0.2379
  512MOL0     C69025   7.806   3.177   4.672 -0.6172  0.6844 -0.9737
  512MOL0     C69026   7.918   3.102   4.745 -0.0014 -0.1149 -0.3772
  512MOL0     C69027   7.979   2.994   4.664  0.0349 -0.2474 -0.0274
  512MOL0     C69028   8.113   2.950   4.718  0.2928 -0.2178  0.0022
  512MOL0     C69029   8.167   2.838   4.624  0.0596 -0.7200  0.4266
  512MOL0    Cl69030   8.228   2.933   4.485  0.3808  0.3229  0.1744
  512MOL0     C69031   7.550   3.466   5.181 -0.4950  0.5738  0.1123
  512MOL0     C69032   7.484   3.534   5.277 -0.0287  0.0778  0.8001
  512MOL0     O69033   7.249   3.807   5.196 -1.0135  0.2860  0.0925
  512MOL0     C69034   7.077   3.868   5.426 -0.3523 -0.0503 -0.0966
  512MOL0     C69035   6.999   3.946   5.504 -0.5896 -0.4285 -0.0644
  512MOL0     N69036   7.277   4.447   5.707  0.3589  0.7737  0.6481
  512MOL0     N69037   7.393   4.495   5.670  0.4830  0.5849 -0.0431
  512MOL0     C69038   7.842   4.992   6.342  0.1395 -0.0927 -0.2578
  512MOL0     C69039   7.960   5.064   6.377 -0.0768  0.1490  0.1051
  512MOL0     C69040   8.417   5.062   6.374  0.7696 -0.2699  0.0314
  512MOL0     C69041   8.471   5.171   6.303 -0.3981  0.7039  0.9652
  512MOL0     C69042   8.604   5.205   6.301 -0.6066  0.4027  0.0885
  512MOL0     C69043   8.701   5.124   6.372  0.8316 -0.5349  0.7516
  512MOL0     O69044   8.838   5.143   6.361  0.6563  0.1564 -0.3215
  512MOL0     C69045   8.898   5.261   6.299  0.2994 -0.1538 -0.3594
  512MOL0     C69046   9.065   5.255   6.293  0.3486 -0.3000 -0.4036
  512MOL0     C69047   9.113   5.249   6.438 -0.0499  0.6690  0.4025
  512MOL0     C69048   9.271   5.270   6.448  0.0630 -0.0349 -0.0073
  512MOL0     C69049   9.304   5.289   6.589 -0.4036 -0.1361 -0.2444
  512MOL0     C69050   9.338   5.307   6.707 -0.4526  0.2794  1.0073
  512MOL0     C69051   8.650   5.023   6.448 -0.1233  0.7515  0.1213
  512MOL0     C69052   8.516   4.990   6.451  0.4681 -0.1226  0.1231
  512MOL0     H69053   8.105   5.037   6.065 -0.1385  1.4824 -0.7066
  512MOL0     H69054   7.923   4.928   6.023 -2.3437  4.3027 -1.7322
  512MOL0     H69055   7.649   4.783   6.341 -1.8858 -0.8212 -0.6608
  512MOL0     H69056   7.585   4.941   6.313  1.1849 -0.1411 -0.3848
  512MOL0     H69057   7.523   4.699   6.129 -4.1983 -3.0455  2.7523
  512MOL0     H69058   7.424   4.750   6.251  1.0242 -1.7445 -0.1917
  512MOL0     H69059   7.411   4.976   6.126  3.3314 -0.7577  3.8482
  512MOL0     H69060   7.511   4.892   5.998  0.9899 -2.6468  0.7716
  512MOL0     H69061   7.333   4.711   6.002  2.4106  0.4904 -0.6448
  512MOL0     H69062   7.245   4.825   6.093  2.0367  2.8212  1.6300
  512MOL0     H69063   7.170   4.828   5.862 -0.3748  0.1402  1.2843
  512MOL0     H69064   7.215   4.992   5.913  3.5433  2.2694  1.4803
  512MOL0     H69065   7.303   4.902   5.673 -1.8260  0.9307  1.1454
  512MOL0     H69066   7.416   5.000   5.775  2.1757 -0.9092 -0.3069
  512MOL0     H69067   7.570   4.857   5.764  0.4286  0.7425  0.0089
  512MOL0     H69068   7.470   4.733   5.843  1.5640 -2.8512 -1.9375
  512MOL0     H69069   7.558   4.645   5.622 -0.2360  1.0253  1.1055
  512MOL0     H69070   7.469   4.775   5.534  0.1928 -1.0946  0.5512
  512MOL0     H69071   7.180   4.738   5.591 -0.0196 -0.3155  0.9853
  512MOL0     H69072   6.974   4.628   5.701  1.1872  0.1455  0.4448
  512MOL0     H69073   6.973   4.490   5.610 -0.4609  1.2116 -1.0168
  512MOL0     H69074   6.902   4.497   5.883  1.5444  0.6139  2.7859
  512MOL0     H69075   7.061   4.428   5.894 -0.0674  1.2395  0.8109
  512MOL0     H69076   6.852   4.326   5.706 -3.2289 -0.5808  2.2809
  512MOL0     H69077   6.894   4.262   5.866  2.2211  2.2931  3.1371
  512MOL0     H69078   7.128   4.212   5.795  0.3212 -0.5587 -0.8555
  512MOL0     H69079   7.098   4.287   5.645 -0.5826  0.6393  0.4083
  512MOL0     H69080   7.256   4.130   5.639 -0.1474 -1.0757  1.4317
  512MOL0     H69081   7.495   3.929   5.477  2.8457  1.6588 -0.2341
  512MOL0     H69082   7.419   4.043   5.359 -1.6517  0.5073  0.6110
  512MOL0     H69083   7.468   4.096   5.519  0.4348 -0.9654  1.1504
  512MOL0     H69084   7.542   3.848   5.161  2.0888  0.9775 -2.4365
  512MOL0     H69085   7.678   3.729   5.001  1.5075 -0.8395 -0.0591
  512MOL0     H69086   7.640   3.512   4.803  1.7204  1.4494 -1.6090
  512MOL0     H69087   7.779   3.597   4.875 -1.0751  1.2414 -2.2077
  512MOL0     H69088   7.831   3.457   4.675  1.8275 -1.3363 -0.3814
  512MOL0     H69089   7.898   3.391   4.835 -0.4537  0.1367  1.0213
  512MOL0     H69090   7.633   3.298   4.708 -0.5120  1.6977  0.4259
  512MOL0     H69091   7.711   3.242   4.858  3.4954 -1.3980  0.0066
  512MOL0     H69092   7.740   3.095   4.642 -2.3971  0.7413  2.2296
  512MOL0     H69093   7.845   3.226   4.583 -2.7283  1.8865 -1.3087
  512MOL0     H69094   7.892   3.051   4.837  1.5291 -0.4032 -0.0749
  512MOL0     H69095   7.998   3.175   4.763 -1.4629  1.2068  1.0678
  512MOL0     H69096   7.901   2.918   4.663 -0.8625  0.5837  1.5894
  512MOL0     H69097   8.006   3.017   4.560  2.2550 -0.1807  0.5061
  512MOL0     H69098   8.100   2.906   4.817 -0.8355  0.0261 -0.0182
  512MOL0     H69099   8.192   3.025   4.724  1.2377 -1.2019 -0.0649
  512MOL0     H69100   8.098   2.760   4.591  1.6891 -2.3871  0.7809
  512MOL0     H69101   8.253   2.784   4.666  1.4670 -1.5571 -3.1310
  512MOL0     H69102   7.543   3.358   5.175  0.1371  0.5197  0.2568
  512MOL0     H69103   7.426   3.489   5.357 -0.9347 -0.6043 -0.2219
  512MOL0     H69104   7.030   3.784   5.374  1.7037 -0.7500 -0.9271
  512MOL0     H69105   6.891   3.936   5.517 -0.2694 -1.0769  3.1056
  512MOL0     H69106   7.764   4.972   6.415  0.4608 -0.6215 -0.0573
  512MOL0     H69107   7.986   5.087   6.480  0.6697 -1.3849  0.2942
  512MOL0     H69108   8.401   5.226   6.240 -2.0472 -4.2212 -2.0391
  512MOL0     H69109   8.645   5.284   6.238  3.0450 -0.2701  1.4056
  512MOL0     H69110   8.883   5.276   6.191  1.9374  1.0865 -0.4599
  512MOL0     H69111   8.869   5.349   6.357  1.5681 -1.3888  2.3395
  512MOL0     H69112   9.114   5.347   6.263 -1.7822  0.8501 -0.5589
  512MOL0     H69113   9.108   5.170   6.238  2.2736 -0.8912  1.8853
  512MOL0     H69114   9.062   5.164   6.484  0.3630  1.1196  1.7161
  512MOL0     H69115   9.064   5.333   6.488  1.7591  2.0244  0.0045
  512MOL0     H69116   9.306   5.356   6.390 -0.1074  0.9024  1.2400
  512MOL0     H69117   9.322   5.175   6.425  0.9149  0.5822 -0.7541
  512MOL0     H69118   9.371   5.311   6.809  1.4801 -1.4005  0.5094
  512MOL0     H69119   8.720   4.956   6.497 -1.6063 -0.9363  0.0215
  512MOL0     H69120   8.498   4.897   6.504 -1.0647 -0.0469 -0.2089
  513MOL0     O69121   4.500   9.665   3.141 -0.1311  0.0838  0.4159
  513MOL0     C69122   4.577   9.608   3.222 -1.1141 -0.5759  0.3957
  513MOL0     O69123   4.707   9.602   3.212 -0.6789  0.6810  0.5207
  513MOL0     C69124   4.764   9.709   3.152 -0.8187 -0.4161  0.7301
  513MOL0     C69125   4.799   9.817   3.229 -0.3552  0.6393 -0.1482
  513MOL0     C69126   4.883   9.922   3.189  0.6838  0.3924  0.3886
  513MOL0     C69127   4.919   9.931   3.054 -0.7094  0.2240 -0.5858
  513MOL0     O69128   4.999  10.029   2.986 -0.0202 -0.2676 -0.9268
  513MOL0     C69129   5.009  10.157   3.041  0.4995  0.2473  0.6285
  513MOL0     C69130   4.892  10.241   2.993 -0.7262  0.6253  0.2764
  513MOL0     C69131   4.887  10.383   3.061 -0.8720  0.0915  0.7096
  513MOL0     C69132   4.980  10.486   2.987 -0.7844  0.6243  0.1774
  513MOL0     C69133   4.963  10.620   3.043  0.8554  0.0288 -0.0092
  513MOL0     C69134   5.036  10.726   2.955  0.8022 -0.9555  0.2355
  513MOL0     C69135   4.940  10.791   2.856  0.3900 -0.5834 -0.3805
  513MOL0     C69136   4.996  10.905   2.789  0.6704 -0.2076 -0.8919
  513MOL0     N69137   5.099  10.869   2.687 -0.0327  0.2743  0.4378
  513MOL0     C69138   5.232  10.836   2.696 -0.8956 -0.4302  0.2092
  513MOL0     C69139   5.281  10.804   2.566  0.5650  0.1121  0.2417
  513MOL0     C69140   5.428  10.781   2.537 -0.6385 -0.4198 -0.4920
  513MOL0     C69141   5.516  10.911   2.525  0.2205 -0.1589  0.4008
  513MOL0     C69142   5.664  10.875   2.539 -0.0428  0.0602 -0.0443
  513MOL0     C69143   5.755  10.968   2.450  0.8582 -0.3947 -0.1683
  513MOL0     O69144   5.730  11.096   2.499 -0.4712  0.3821 -0.5791
  513MOL0     C69145   5.794  11.134   2.617 -0.8439  0.3267 -0.7776
  513MOL0     C69146   5.900  11.061   2.674 -0.2771 -0.3188  0.5928
  513MOL0     C69147   5.962  11.115   2.790 -0.2800 -0.5227  0.3854
  513MOL0     C69148   6.078  11.039   2.840  1.0839  0.6261 -0.4023
  513MOL0     C69149   5.915  11.233   2.857 -0.1134  0.5409 -0.4791
  513MOL0     C69150   5.963  11.274   2.991 -0.3473 -1.2324  0.2062
  513MOL0     O69151   5.933  11.398   3.020 -0.3760 -0.3473 -0.2465
  513MOL0     C69152   5.996  11.454   3.127 -0.2862 -1.5431  0.8798
  513MOL0     C69153   6.111  11.530   3.097  0.1199 -0.0992 -0.0090
  513MOL0     C69154   6.176  11.586   3.196 -0.7870 -1.3778 -0.3447
  513MOL0     C69155   6.141  11.575   3.332 -0.0686  0.3139 -0.0482
  513MOL0     O69156   6.248  11.614   3.413  0.2230 -0.1143 -0.0580
  513MOL0     C69157   6.248  11.567   3.550 -1.0273  0.6356 -0.7578
  513MOL0     C69158   6.346  11.650   3.634  0.0707  0.3175 -0.3107
  513MOL0     C69159   6.491  11.603   3.596  0.4137 -0.3063  0.4589
  513MOL0     C69160   6.587  11.674   3.682  0.3820 -0.6799  0.0240
  513MOL0     C69161   6.569  11.639   3.830  0.2218  0.7859  0.6189
  513MOL0     C69162   6.659  11.711   3.934  0.2838  0.3518 -0.1562
  513MOL0     C69163   6.811  11.710   3.911  0.1163 -0.4305  0.0828
  513MOL0     C69164   6.880  11.824   3.982 -0.3141 -0.4962 -0.4605
  513MOL0    Cl69165   7.052  11.844   3.912  0.2238  0.2537  0.1017
  513MOL0     C69166   6.031  11.483   3.366 -0.6287 -0.1974 -0.5792
  513MOL0     C69167   5.957  11.441   3.259 -0.4469 -0.4369  0.4208
  513MOL0     O69168   6.020  11.200   3.072  0.4820  1.2097 -0.1381
  513MOL0     C69169   5.802  11.296   2.799 -0.3387  0.1394 -0.6075
  513MOL0     C69170   5.751  11.247   2.675  0.2037  0.5805  0.2033
  513MOL0     N69171   5.170  10.835   2.483 -0.2695 -0.2293  0.0492
  513MOL0     N69172   5.067  10.861   2.560 -0.3975  0.1126  0.2740
  513MOL0     C69173   4.885   9.821   2.968 -0.0693 -0.2897  0.8508
  513MOL0     C69174   4.818   9.706   3.022 -1.0250  0.3339  0.3007
  513MOL0     C69175   4.515   9.552   3.342  0.3356  0.6134 -0.4410
  513MOL0     C69176   4.583   9.512   3.457 -0.0406 -0.1677 -0.0032
  513MOL0     C69177   4.511   9.464   3.567 -0.2833  0.7492 -0.2346
  513MOL0     C69178   4.378   9.438   3.556  0.5114  0.0775 -0.1973
  513MOL0     O69179   4.326   9.370   3.665 -0.3199  0.2635  0.1875
  513MOL0     C69180   4.186   9.334   3.662 -0.0017  0.2123 -0.7295
  513MOL0     C69181   4.160   9.199   3.604 -0.7652 -0.3460  0.8934
  513MOL0     C69182   4.018   9.166   3.596 -0.2456  0.2373 -0.5468
  513MOL0     C69183   3.946   9.235   3.485  0.6689 -0.3846 -0.0316
  513MOL0     C69184   3.967   9.175   3.358  0.1571 -0.2033  0.3352
  513MOL0     C69185   3.958   9.121   3.251 -0.0639 -0.5113 -0.0589
  513MOL0     C69186   4.302   9.496   3.454 -0.1819  0.0248 -0.4043
  513MOL0     C69187   4.372   9.545   3.341 -0.4224  0.4246 -0.2836
  513MOL0     H69188   4.774   9.821   3.335  0.3472  0.7062  0.0258
  513MOL0     H69189   4.891  10.002   3.261 -0.0055  1.7171 -0.9728
  513MOL0     H69190   5.004  10.159   3.150 -0.7602  0.5999  0.5761
  513MOL0     H69191   5.099  10.206   3.002 -0.5925  0.2609 -2.1020
  513MOL0     H69192   4.882  10.236   2.884 -2.4102  1.9354  0.3280
  513MOL0     H69193   4.814  10.186   3.045 -1.2249 -1.9931 -2.9256
  513MOL0     H69194   4.788  10.417   3.031 -1.5279 -0.9571  1.5998
  513MOL0     H69195   4.894  10.370   3.169 -2.7881 -1.3561  0.7070
  513MOL0     H69196   5.084  10.454   2.990 -0.9114  0.2497  0.6231
  513MOL0     H69197   4.956  10.498   2.881  1.4927  1.2538 -0.3252
  513MOL0     H69198   4.857  10.645   3.038  1.0172  0.4784 -1.7698
  513MOL0     H69199   4.995  10.636   3.147 -2.5811  2.5044  0.8311
  513MOL0     H69200   5.074  10.793   3.032 -0.3584 -1.7848  1.5697
  513MOL0     H69201   5.121  10.688   2.897 -0.9379 -2.4840 -1.4713
  513MOL0     H69202   4.902  10.713   2.789  2.6835 -0.1189 -2.3477
  513MOL0     H69203   4.855  10.834   2.911  1.4322  1.0003  0.0432
  513MOL0     H69204   5.041  10.977   2.857 -2.5686 -2.3209  4.0703
  513MOL0     H69205   4.916  10.965   2.745  0.4413  0.3053  0.1968
  513MOL0     H69206   5.278  10.836   2.794 -2.6271  0.7797  1.0547
  513MOL0     H69207   5.466  10.717   2.618  1.4296 -0.3485 -1.3421
  513MOL0     H69208   5.429  10.726   2.443 -1.6729 -1.8391  0.2836
  513MOL0     H69209   5.512  10.967   2.619  1.8140 -0.7516  0.8535
  513MOL0     H69210   5.474  10.955   2.434 -0.9058 -3.3586 -0.7562
  513MOL0     H69211   5.681  10.775   2.500 -0.9996 -0.2704  0.3666
  513MOL0     H69212   5.696  10.878   2.643  1.1240  0.6620 -0.4035
  513MOL0     H69213   5.719  10.960   2.347  1.1474 -1.9157 -0.1699
  513MOL0     H69214   5.862  10.946   2.443  0.4798 -2.0342 -1.2121
  513MOL0     H69215   5.949  10.977   2.627  0.3594  2.3135 -4.0673
  513MOL0     H69216   6.157  11.109   2.868  0.2803  0.3436  3.0525
  513MOL0     H69217   6.041  10.974   2.919  0.9136  1.8545  0.5598
  513MOL0     H69218   6.126  10.974   2.767 -0.4758  2.2130 -3.0454
  513MOL0     H69219   6.140  11.563   2.997 -0.4363  1.4471  0.3311
  513MOL0     H69220   6.246  11.661   3.160 -3.6547  1.8845  0.4017
  513MOL0     H69221   6.154  11.589   3.600 -1.5133  0.3730 -1.5380
  513MOL0     H69222   6.285  11.465   3.566  0.6385  1.6107  2.4684
  513MOL0     H69223   6.330  11.758   3.629 -3.0666  0.0697  1.5096
  513MOL0     H69224   6.314  11.634   3.738 -3.6437 -1.1472 -1.5041
  513MOL0     H69225   6.515  11.630   3.493  0.2944  0.2589  0.5798
  513MOL0     H69226   6.499  11.495   3.613 -2.5424 -0.5522  0.8744
  513MOL0     H69227   6.689  11.645   3.657  1.3852  1.5169  1.3957
  513MOL0     H69228   6.574  11.782   3.670  2.0012 -0.5339 -0.6475
  513MOL0     H69229   6.576  11.530   3.834 -3.3808  0.3091 -1.3301
  513MOL0     H69230   6.466  11.665   3.855 -0.1974  1.9655 -1.9747
  513MOL0     H69231   6.623  11.814   3.938  0.6618  0.4603  1.4769
  513MOL0     H69232   6.626  11.667   4.029 -1.7704 -3.5032 -2.4170
  513MOL0     H69233   6.831  11.716   3.803  0.8161 -2.6252  0.0356
  513MOL0     H69234   6.856  11.615   3.941 -0.4743 -0.5176  0.6954
  513MOL0     H69235   6.862  11.837   4.089 -2.2432 -1.6718 -0.5982
  513MOL0     H69236   6.824  11.909   3.942 -1.0665  0.6434  2.7859
  513MOL0     H69237   6.004  11.462   3.469 -1.5646 -0.3486 -0.8454
  513MOL0     H69238   5.876  11.376   3.292  1.8082 -2.2820  2.6936
  513MOL0     H69239   5.752  11.374   2.856 -1.1921 -0.6035 -0.3286
  513MOL0     H69240   5.674  11.289   2.612 -0.5797  0.9741  1.3889
  513MOL0     H69241   4.921   9.817   2.866 -2.0363 -1.2937  0.1439
  513MOL0     H69242   4.793   9.622   2.958  1.4487  0.5030 -1.0078
  513MOL0     H69243   4.687   9.543   3.457 -0.8601  3.0653 -1.7372
  513MOL0     H69244   4.580   9.453   3.650  0.9279  2.9894 -0.8384
  513MOL0     H69245   4.169   9.330   3.770  3.2676 -0.7006 -0.1296
  513MOL0     H69246   4.121   9.413   3.623  0.2116  1.3078  1.0313
  513MOL0     H69247   4.229   9.132   3.656  0.3760  0.8817  0.9917
  513MOL0     H69248   4.196   9.217   3.502  2.0325  0.9812  2.0235
  513MOL0     H69249   3.977   9.190   3.695  1.8320  4.7345 -0.5290
  513MOL0     H69250   4.010   9.058   3.582  3.4932 -0.1865 -0.3998
  513MOL0     H69251   3.961   9.343   3.480 -1.7303 -0.0693 -2.7374
  513MOL0     H69252   3.840   9.221   3.510  1.0459 -1.8918  0.9095
  513MOL0     H69253   3.939   9.057   3.167 -0.9354 -2.9748  1.8984
  513MOL0     H69254   4.194   9.496   3.450 -0.2555 -2.8271 -0.4906
  513MOL0     H69255   4.315   9.569   3.252 -1.0648 -1.1331 -0.3296
  514MOL0     O69256   3.935   5.818   5.259 -0.2353 -0.4902  0.2338
  514MOL0     C69257   3.927   5.806   5.381  0.8065  0.4913  0.3546
  514MOL0     O69258   3.822   5.746   5.442 -0.6527  0.5595  0.2050
  514MOL0     C69259   3.716   5.694   5.370 -0.0222  0.1355  1.0328
  514MOL0     C69260   3.726   5.610   5.258 -0.3966  0.8480 -0.3816
  514MOL0     C69261   3.617   5.542   5.208 -0.1658 -0.4944 -0.1540
  514MOL0     C69262   3.492   5.563   5.268 -0.3986  0.2884  0.1689
  514MOL0     O69263   3.375   5.497   5.221  0.1368 -0.4074  0.5873
  514MOL0     C69264   3.382   5.382   5.136 -0.3071  0.0098 -0.3371
  514MOL0     C69265   3.246   5.301   5.133 -0.9527  0.1296  0.3216
  514MOL0     C69266   3.237   5.211   5.263  0.3702  0.2526  0.1512
  514MOL0     C69267   3.113   5.120   5.245  0.1325 -0.7020 -1.1971
  514MOL0     C69268   2.979   5.185   5.286  0.5705 -0.6388  0.5569
  514MOL0     C69269   2.853   5.107   5.327  0.4912 -1.1051  0.1103
  514MOL0     C69270   2.737   5.182   5.386  0.3600 -0.0269  0.0279
  514MOL0     C69271   2.633   5.083   5.448 -0.0456 -0.1619  0.4863
  514MOL0     N69272   2.668   5.033   5.583  0.8673  0.8324 -0.1453
  514MOL0     C69273   2.624   5.077   5.705  0.0208 -0.8492  0.3378
  514MOL0     C69274   2.692   5.012   5.804 -0.4348  0.9669  1.3515
  514MOL0     C69275   2.680   5.017   5.948  0.7502  0.2603 -0.1564
  514MOL0     C69276   2.615   4.898   6.025 -0.5812 -0.6286  0.4182
  514MOL0     C69277   2.613   4.911   6.179  0.3459 -0.6078 -0.5586
  514MOL0     C69278   2.522   4.811   6.248  0.0560 -0.2046  0.4798
  514MOL0     O69279   2.516   4.824   6.392  0.3271  0.2721  0.3788
  514MOL0     C69280   2.641   4.823   6.448 -0.6949  0.7657 -0.9612
  514MOL0     C69281   2.707   4.698   6.439 -0.4621  0.9269  0.6075
  514MOL0     C69282   2.833   4.685   6.495 -0.3635 -0.5930  0.8253
  514MOL0     C69283   2.901   4.548   6.492 -0.5369 -0.7822  0.1538
  514MOL0     C69284   2.894   4.790   6.563  0.4065 -0.5077 -0.6675
  514MOL0     C69285   3.031   4.802   6.623  0.0069  0.2878 -1.3537
  514MOL0     O69286   3.098   4.920   6.616  0.5937 -0.5110 -0.2476
  514MOL0     C69287   3.216   4.939   6.665 -0.8915  0.7999 -1.2361
  514MOL0     C69288   3.323   4.862   6.615 -0.3626 -0.0320 -0.0961
  514MOL0     C69289   3.451   4.904   6.654  0.1798 -0.1444 -0.4486
  514MOL0     C69290   3.470   5.001   6.753  0.2893 -0.9976  0.3130
  514MOL0     O69291   3.599   5.041   6.778 -0.1464 -0.1711 -0.8583
  514MOL0     C69292   3.632   5.153   6.694 -0.4959  0.8045  0.5325
  514MOL0     C69293   3.776   5.193   6.709  0.3468 -0.1298 -0.3709
  514MOL0     C69294   3.885   5.090   6.672  0.2783 -0.6556  0.9513
  514MOL0     C69295   4.027   5.149   6.657  1.2868 -0.2130 -0.1131
  514MOL0     C69296   4.131   5.054   6.599 -0.5860  0.4536  0.7236
  514MOL0     C69297   4.273   5.120   6.582  0.0152 -0.1878  0.5335
  514MOL0     C69298   4.384   5.012   6.538 -0.5865 -0.5981 -0.0732
  514MOL0     C69299   4.533   5.073   6.520  0.2027  0.1384 -0.0223
  514MOL0    Cl69300   4.516   5.187   6.373 -0.0713 -0.3300  0.4804
  514MOL0     C69301   3.360   5.070   6.806  0.2034 -0.3897  1.0275
  514MOL0     C69302   3.240   5.038   6.758  0.0463 -0.8716  1.0285
  514MOL0     O69303   3.067   4.698   6.689  0.2411 -0.4006 -0.6993
  514MOL0     C69304   2.828   4.916   6.558  0.6402  0.0518 -0.5544
  514MOL0     C69305   2.700   4.928   6.504 -0.2397 -0.3487  0.0122
  514MOL0     N69306   2.772   4.923   5.739 -0.9562 -0.6290  0.3425
  514MOL0     N69307   2.756   4.927   5.611 -0.0474  0.2963 -0.1279
  514MOL0     C69308   3.474   5.654   5.372 -0.8111  0.6312 -0.9908
  514MOL0     C69309   3.587   5.711   5.426  0.3352  0.0700  0.5545
  514MOL0     C69310   4.023   5.871   5.476 -0.4626  0.0465 -0.5307
  514MOL0     C69311   4.105   5.977   5.440  0.0124  0.7740 -0.3517
  514MOL0     C69312   4.185   6.052   5.529  0.0948 -0.3952  0.2552
  514MOL0     C69313   4.176   6.025   5.663 -0.5842  0.4060  0.2178
  514MOL0     O69314   4.229   6.104   5.762  0.0879  0.0146 -0.9107
  514MOL0     C69315   4.236   6.243   5.746  0.6043  0.0298 -0.3808
  514MOL0     C69316   4.261   6.325   5.879 -0.7631  1.1658  0.3190
  514MOL0     C69317   4.417   6.303   5.901  0.3112 -0.8102  1.1099
  514MOL0     C69318   4.470   6.351   6.037 -0.3322  0.5762 -1.0698
  514MOL0     C69319   4.467   6.492   6.072 -0.2126  0.2210 -0.5064
  514MOL0     C69320   4.446   6.599   6.121  0.8307  0.0566 -0.0698
  514MOL0     C69321   4.105   5.914   5.710 -0.5391 -0.9155  0.6293
  514MOL0     C69322   4.031   5.838   5.614 -0.2492  0.5522  0.0201
  514MOL0     H69323   3.821   5.594   5.208  1.1336  1.8094  2.0322
  514MOL0     H69324   3.632   5.473   5.126 -0.8738  0.1242 -0.8151
  514MOL0     H69325   3.400   5.413   5.033 -2.7168  1.0075 -0.5242
  514MOL0     H69326   3.461   5.310   5.161 -0.9350 -0.8286 -0.7197
  514MOL0     H69327   3.162   5.369   5.141 -2.2043 -1.2976 -0.1926
  514MOL0     H69328   3.242   5.238   5.043  1.1505  1.5425 -0.8612
  514MOL0     H69329   3.332   5.158   5.277 -0.6601 -1.4612  1.0447
  514MOL0     H69330   3.235   5.283   5.345 -0.7952 -0.4027  0.7235
  514MOL0     H69331   3.101   5.058   5.156  0.5851  0.3239 -1.9954
  514MOL0     H69332   3.118   5.036   5.315  0.4642  0.3931  0.1537
  514MOL0     H69333   2.998   5.254   5.368  0.5814  0.8706 -0.6585
  514MOL0     H69334   2.951   5.252   5.203 -1.3760 -3.0069 -0.8352
  514MOL0     H69335   2.813   5.061   5.236 -2.2917  4.2217 -1.7361
  514MOL0     H69336   2.893   5.042   5.406  1.2114 -0.4933  0.2618
  514MOL0     H69337   2.766   5.245   5.471 -2.7948  0.3036  1.0053
  514MOL0     H69338   2.686   5.246   5.313 -1.4245  1.1177  2.1302
  514MOL0     H69339   2.615   5.000   5.379 -2.2556 -1.0002  1.9714
  514MOL0     H69340   2.537   5.129   5.473 -0.6039 -1.6505  1.2464
  514MOL0     H69341   2.560   5.165   5.710  2.6117  1.1242  0.8482
  514MOL0     H69342   2.785   5.018   5.978  1.7117  0.6849 -3.2314
  514MOL0     H69343   2.622   5.104   5.981 -1.1734 -2.5083  4.9946
  514MOL0     H69344   2.672   4.806   6.008 -1.5658 -1.8089  2.9242
  514MOL0     H69345   2.515   4.886   5.983 -0.9198 -0.6753  1.2159
  514MOL0     H69346   2.582   5.006   6.225  0.7416 -1.4655  1.6374
  514MOL0     H69347   2.714   4.889   6.215  0.0953 -4.2924 -1.7170
  514MOL0     H69348   2.548   4.708   6.220  0.7591 -0.3885  1.7109
  514MOL0     H69349   2.419   4.832   6.217  0.4137  4.9461  1.8276
  514MOL0     H69350   2.667   4.616   6.380  1.5690 -0.2172  0.6928
  514MOL0     H69351   2.845   4.474   6.434  2.9693 -2.9217 -0.7506
  514MOL0     H69352   3.000   4.566   6.450  0.8741 -2.3665  2.5359
  514MOL0     H69353   2.912   4.496   6.588  0.1977  2.0951  1.7510
  514MOL0     H69354   3.304   4.787   6.538 -0.0222 -2.3842  1.9993
  514MOL0     H69355   3.537   4.852   6.614  0.2152  0.3882 -1.0886
  514MOL0     H69356   3.628   5.128   6.588 -2.5375  3.2694 -0.0832
  514MOL0     H69357   3.566   5.238   6.714  1.0830  1.5868  2.9242
  514MOL0     H69358   3.783   5.276   6.638  3.4241 -2.4045 -3.0420
  514MOL0     H69359   3.790   5.216   6.815 -2.6515 -4.0682  1.1499
  514MOL0     H69360   3.858   5.028   6.585  0.0642  0.1258  0.4509
  514MOL0     H69361   3.884   5.027   6.761 -3.7451  0.7595  2.1410
  514MOL0     H69362   4.005   5.233   6.591 -2.3689  0.9738  2.2945
  514MOL0     H69363   4.060   5.189   6.754  1.0785 -0.1839 -0.0531
  514MOL0     H69364   4.088   5.004   6.512  3.4715 -0.9744 -0.6877
  514MOL0     H69365   4.131   4.988   6.686 -3.7822  1.5660  1.6956
  514MOL0     H69366   4.259   5.203   6.513  0.7166 -0.1106  0.4768
  514MOL0     H69367   4.292   5.168   6.679 -2.2736  4.4083 -1.0185
  514MOL0     H69368   4.345   4.957   6.452 -1.9769 -0.3089  0.3566
  514MOL0     H69369   4.403   4.936   6.614  1.0485 -0.7424 -0.5715
  514MOL0     H69370   4.607   4.995   6.497  1.6228  2.1034 -2.8233
  514MOL0     H69371   4.561   5.118   6.616 -1.2135  1.6979 -0.3004
  514MOL0     H69372   3.387   5.154   6.869  1.4713  0.3551 -0.4435
  514MOL0     H69373   3.158   5.094   6.801 -2.0027 -2.4627 -0.5948
  514MOL0     H69374   2.881   4.999   6.603  2.1990 -0.4587 -1.3677
  514MOL0     H69375   2.655   5.026   6.500  1.0518  0.2461 -0.7051
  514MOL0     H69376   3.378   5.650   5.422 -1.0037  1.1464 -1.3150
  514MOL0     H69377   3.590   5.761   5.523 -1.4660  0.1721  0.5797
  514MOL0     H69378   4.100   6.009   5.337  2.1052  4.5873  0.5203
  514MOL0     H69379   4.244   6.139   5.504 -2.4203  1.0599 -1.1059
  514MOL0     H69380   4.305   6.278   5.668  0.8071  0.2404 -0.1105
  514MOL0     H69381   4.136   6.274   5.713 -0.9953 -4.6667 -0.6378
  514MOL0     H69382   4.196   6.278   5.953 -3.5175 -0.6638 -2.9313
  514MOL0     H69383   4.233   6.426   5.850 -0.9785  0.9736 -0.1550
  514MOL0     H69384   4.481   6.356   5.830 -0.9935  0.0978  0.5872
  514MOL0     H69385   4.437   6.198   5.879 -1.0504 -0.5001 -2.1695
  514MOL0     H69386   4.574   6.316   6.043 -0.3733  0.6207  0.3004
  514MOL0     H69387   4.412   6.290   6.108 -0.7528 -0.8138 -2.5577
  514MOL0     H69388   4.428   6.691   6.172  1.6397 -0.1102  0.5308
  514MOL0     H69389   4.090   5.896   5.816 -0.8332  0.5549  0.8625
  514MOL0     H69390   3.965   5.757   5.643 -2.3251  1.0425 -2.8872
  515MOL0     O69391   3.336   4.740   3.407 -0.4575  0.5317  0.3093
  515MOL0     C69392   3.346   4.861   3.371 -0.3603  0.5159 -0.4646
  515MOL0     O69393   3.467   4.934   3.377  0.0429  0.9274 -0.5295
  515MOL0     C69394   3.581   4.865   3.407 -1.0123  1.5918  0.3686
  515MOL0     C69395   3.667   4.935   3.489  1.0853 -0.5522  0.0555
  515MOL0     C69396   3.792   4.886   3.519  0.4718 -0.0955  0.1956
  515MOL0     C69397   3.834   4.768   3.452 -0.1261  0.6585 -0.0376
  515MOL0     O69398   3.957   4.703   3.475  0.2137 -0.5424  1.0415
  515MOL0     C69399   4.068   4.785   3.504 -0.9238  0.5450  0.3774
  515MOL0     C69400   4.200   4.704   3.523 -0.4121  0.0485  0.0833
  515MOL0     C69401   4.228   4.611   3.411 -1.1279 -0.4634 -0.7146
  515MOL0     C69402   4.362   4.542   3.444  0.3586  0.2594  0.5035
  515MOL0     C69403   4.432   4.479   3.324  0.4740 -0.4422 -1.0360
  515MOL0     C69404   4.350   4.355   3.281  0.9797  0.3514  1.0849
  515MOL0     C69405   4.413   4.301   3.151 -0.9219 -0.6853 -1.6185
  515MOL0     C69406   4.328   4.189   3.108 -0.3425  1.0824 -0.0495
  515MOL0     N69407   4.320   4.159   2.969  0.6501  0.4558  0.4314
  515MOL0     C69408   4.276   4.039   2.909 -0.5442  0.6633  0.2344
  515MOL0     C69409   4.277   4.071   2.777  0.5076  0.0189 -0.2276
  515MOL0     C69410   4.227   3.973   2.684  0.0793 -0.4950  0.8509
  515MOL0     C69411   4.339   3.917   2.594 -0.2352  0.3498 -1.0514
  515MOL0     C69412   4.289   3.821   2.482  0.1728 -0.0352  0.1986
  515MOL0     C69413   4.372   3.842   2.353  0.6465 -0.5480  0.0607
  515MOL0     O69414   4.520   3.846   2.375 -0.6380  0.8698  0.0917
  515MOL0     C69415   4.600   3.739   2.410 -0.2671  0.6888  1.1868
  515MOL0     C69416   4.572   3.606   2.387 -0.6023 -0.0586 -0.6720
  515MOL0     C69417   4.660   3.513   2.436 -0.7148  0.2526 -0.9162
  515MOL0     C69418   4.617   3.371   2.418  0.5947  0.8596 -0.8517
  515MOL0     C69419   4.793   3.544   2.488  0.3484 -0.6411  0.6050
  515MOL0     C69420   4.899   3.445   2.533  0.6646  0.3394  0.5777
  515MOL0     O69421   5.025   3.504   2.548  0.4702  0.0629 -0.4279
  515MOL0     C69422   5.130   3.421   2.571  0.7293 -0.5994  0.8427
  515MOL0     C69423   5.161   3.360   2.694 -0.1383  0.0550  0.1850
  515MOL0     C69424   5.271   3.273   2.686 -0.1136 -0.8211  0.6159
  515MOL0     C69425   5.349   3.245   2.567 -0.3174  0.8261 -0.2283
  515MOL0     O69426   5.444   3.157   2.555 -0.4604  0.6965  0.3320
  515MOL0     C69427   5.506   3.108   2.672  0.1664  0.1878  0.4450
  515MOL0     C69428   5.626   3.018   2.641  0.0843  0.6446 -0.4913
  515MOL0     C69429   5.617   2.915   2.526  0.2339  0.9009 -0.9259
  515MOL0     C69430   5.629   2.774   2.595  0.6727  0.7158  0.2204
  515MOL0     C69431   5.631   2.664   2.491 -0.1372 -0.1992 -0.5262
  515MOL0     C69432   5.751   2.678   2.398 -0.3670 -0.4533 -0.2741
  515MOL0     C69433   5.767   2.553   2.310 -1.0805 -0.2333 -0.7976
  515MOL0     C69434   5.887   2.562   2.220  0.5574  0.2832  0.0802
  515MOL0    Cl69435   6.030   2.474   2.282  0.4517  0.0002  0.0952
  515MOL0     C69436   5.314   3.314   2.449 -1.2079  0.6123 -0.0813
  515MOL0     C69437   5.215   3.409   2.459  0.2421  0.5553 -0.0895
  515MOL0     O69438   4.872   3.319   2.541 -1.2532 -0.3924 -0.0519
  515MOL0     C69439   4.824   3.677   2.504  0.0841 -0.1337 -0.7591
  515MOL0     C69440   4.733   3.773   2.456 -0.4938 -0.0147 -0.1295
  515MOL0     N69441   4.327   4.201   2.758  0.0428 -0.4581 -0.3483
  515MOL0     N69442   4.355   4.245   2.872  0.5766  0.4204 -0.2215
  515MOL0     C69443   3.745   4.697   3.370  0.1437 -0.4385 -0.0495
  515MOL0     C69444   3.623   4.752   3.339  0.2915 -0.1814 -0.5600
  515MOL0     C69445   3.222   4.932   3.344 -0.4542 -0.4618  0.1228
  515MOL0     C69446   3.223   5.060   3.296 -0.2917 -0.0898 -0.1431
  515MOL0     C69447   3.111   5.132   3.275 -0.1640 -0.2172 -0.2340
  515MOL0     C69448   2.987   5.079   3.288  0.5652 -0.3672 -0.2717
  515MOL0     O69449   2.880   5.149   3.236  0.4395 -0.2458 -0.4271
  515MOL0     C69450   2.779   5.170   3.333  0.0453 -0.2957  0.4573
  515MOL0     C69451   2.648   5.221   3.262  0.8595 -0.4512  0.5646
  515MOL0     C69452   2.595   5.108   3.173 -0.1043 -0.3244 -0.4214
  515MOL0     C69453   2.469   5.152   3.095 -0.0985  0.4986  0.1120
  515MOL0     C69454   2.345   5.168   3.171  1.1417 -0.1893 -0.4027
  515MOL0     C69455   2.242   5.180   3.236  0.4085 -1.2359  0.0903
  515MOL0     C69456   2.978   4.945   3.335 -0.0460  0.8697  0.4887
  515MOL0     C69457   3.094   4.875   3.367 -0.4029  0.7855  0.8565
  515MOL0     H69458   3.651   5.039   3.514 -0.9547 -0.2282 -2.2598
  515MOL0     H69459   3.852   4.946   3.586 -0.3248  0.5995  0.2908
  515MOL0     H69460   4.089   4.852   3.419 -0.1553  1.0001  0.9128
  515MOL0     H69461   4.045   4.832   3.600  1.0232 -1.9909  2.2297
  515MOL0     H69462   4.268   4.790   3.527 -1.5500  0.9273  1.3384
  515MOL0     H69463   4.211   4.651   3.618  2.0323 -2.9197 -1.6719
  515MOL0     H69464   4.148   4.537   3.400  0.5399 -2.2972 -1.1771
  515MOL0     H69465   4.234   4.666   3.316  1.7856 -0.4230 -0.6137
  515MOL0     H69466   4.427   4.616   3.492 -1.0519  1.3819  0.7619
  515MOL0     H69467   4.344   4.457   3.510  2.2894 -0.4888  0.1345
  515MOL0     H69468   4.441   4.553   3.244  2.1205  1.5035  0.7987
  515MOL0     H69469   4.529   4.445   3.363 -0.7488 -1.6133  1.1409
  515MOL0     H69470   4.369   4.286   3.364 -1.1043 -0.6856  0.7617
  515MOL0     H69471   4.244   4.376   3.267  1.2307  0.3030 -1.3469
  515MOL0     H69472   4.420   4.380   3.076 -3.2306 -2.0307 -3.3991
  515MOL0     H69473   4.516   4.265   3.154 -0.7511 -0.1830 -1.4327
  515MOL0     H69474   4.222   4.189   3.134  0.2056 -1.6509  2.7181
  515MOL0     H69475   4.351   4.105   3.173 -0.8836  2.4147  1.9833
  515MOL0     H69476   4.262   3.939   2.951 -4.0519  0.7621 -0.4150
  515MOL0     H69477   4.170   3.897   2.740 -2.0976  0.3036 -0.1784
  515MOL0     H69478   4.159   4.014   2.609  0.2145 -4.6248 -1.8626
  515MOL0     H69479   4.415   3.867   2.654  0.8103  3.1290  0.0720
  515MOL0     H69480   4.390   4.002   2.547 -0.8952  0.7133 -1.1233
  515MOL0     H69481   4.186   3.838   2.449 -0.0729 -0.1313  0.8821
  515MOL0     H69482   4.300   3.720   2.523 -1.1379 -1.0363 -1.7758
  515MOL0     H69483   4.352   3.940   2.310  0.1271 -1.4217 -1.7985
  515MOL0     H69484   4.345   3.761   2.285 -2.5055 -0.1517  0.6657
  515MOL0     H69485   4.473   3.580   2.351 -1.7863  2.1046  0.7688
  515MOL0     H69486   4.511   3.357   2.442  1.8337 -2.9542  4.1581
  515MOL0     H69487   4.652   3.318   2.329 -0.0293 -0.9814 -0.0581
  515MOL0     H69488   4.655   3.304   2.496 -1.3098 -0.6750 -1.1568
  515MOL0     H69489   5.093   3.378   2.777  0.0408 -3.2152  1.1560
  515MOL0     H69490   5.288   3.208   2.771  0.8234  0.4076  1.3945
  515MOL0     H69491   5.540   3.183   2.743 -0.7247  2.0577 -1.0234
  515MOL0     H69492   5.450   3.040   2.737  2.4812 -1.2644  1.0248
  515MOL0     H69493   5.714   3.079   2.618  1.6750 -0.6691  1.7394
  515MOL0     H69494   5.653   2.977   2.739  0.4101  0.1293 -0.7902
  515MOL0     H69495   5.705   2.941   2.467  2.2322 -0.8883  1.0579
  515MOL0     H69496   5.524   2.931   2.470 -0.3340  1.5293  0.1739
  515MOL0     H69497   5.716   2.764   2.660  0.5496  1.4863  0.5182
  515MOL0     H69498   5.543   2.762   2.661  0.4025 -2.6936 -0.5744
  515MOL0     H69499   5.547   2.672   2.421  2.3841 -1.1293 -3.9378
  515MOL0     H69500   5.630   2.562   2.529 -0.0966 -1.1622 -2.8998
  515MOL0     H69501   5.743   2.769   2.336  1.4184  0.1951  0.3726
  515MOL0     H69502   5.842   2.702   2.453  0.5798 -1.4228 -1.3490
  515MOL0     H69503   5.676   2.556   2.249 -0.7028  1.5574 -1.3349
  515MOL0     H69504   5.765   2.461   2.369  1.3842 -0.8967 -1.6398
  515MOL0     H69505   5.906   2.668   2.204  1.8028 -0.0967 -1.1610
  515MOL0     H69506   5.860   2.518   2.124  4.2927 -0.4161 -0.8151
  515MOL0     H69507   5.369   3.295   2.357 -0.0668 -0.9523  0.8745
  515MOL0     H69508   5.195   3.458   2.364  0.3966  0.9006  0.0553
  515MOL0     H69509   4.917   3.719   2.540 -1.6798  1.3793  2.4454
  515MOL0     H69510   4.740   3.880   2.473 -1.9625  0.5030 -2.4068
  515MOL0     H69511   3.758   4.597   3.329  0.0484 -0.5060  0.0850
  515MOL0     H69512   3.558   4.697   3.271 -0.8581 -3.9494  3.1573
  515MOL0     H69513   3.319   5.104   3.270  0.5098 -2.1272 -0.9050
  515MOL0     H69514   3.124   5.235   3.243 -1.3769  0.3100  0.8898
  515MOL0     H69515   2.748   5.083   3.393 -1.1303  0.3124  0.7674
  515MOL0     H69516   2.798   5.253   3.402  0.8633 -0.0046 -0.1123
  515MOL0     H69517   2.673   5.303   3.194 -0.7896  0.2398  0.7389
  515MOL0     H69518   2.570   5.256   3.331  2.1500  0.5588  1.5473
  515MOL0     H69519   2.579   5.025   3.243  1.6560 -1.5952 -1.4633
  515MOL0     H69520   2.673   5.074   3.104  2.8367  3.4084  0.7230
  515MOL0     H69521   2.434   5.072   3.029  0.4063  0.8414 -0.5777
  515MOL0     H69522   2.485   5.252   3.053  2.9981 -1.4679 -4.0868
  515MOL0     H69523   2.159   5.222   3.289  1.9507  3.1659 -0.5606
  515MOL0     H69524   2.882   4.900   3.357 -0.3918  1.4084  0.0960
  515MOL0     H69525   3.092   4.773   3.406  1.5399  1.4823  3.0063
  516MOL0     O69526  10.070   6.213   6.470  0.9552  0.0420 -0.6832
  516MOL0     C69527  10.028   6.220   6.356  0.6896  0.0035 -0.1483
  516MOL0     O69528  10.107   6.201   6.245 -0.6819 -0.8810  0.0628
  516MOL0     C69529  10.240   6.163   6.262 -0.1050  0.3480  0.4130
  516MOL0     C69530  10.349   6.261   6.277  0.4554 -0.2040 -0.6109
  516MOL0     C69531  10.481   6.211   6.307 -0.6480  0.3098 -0.2375
  516MOL0     C69532  10.509   6.076   6.324 -0.7159  0.4531  0.4976
  516MOL0     O69533  10.644   6.039   6.332 -0.1830 -0.0565  0.3233
  516MOL0     C69534  10.663   5.902   6.363 -0.2771 -0.7414  0.3268
  516MOL0     C69535  10.816   5.876   6.376 -0.0628 -0.0139  0.2062
  516MOL0     C69536  10.831   5.733   6.414 -0.5549 -0.2129 -0.2332
  516MOL0     C69537  10.975   5.715   6.453  0.0063 -0.0591 -0.4436
  516MOL0     C69538  10.999   5.578   6.507 -0.8666 -0.7462 -0.3266
  516MOL0     C69539  11.128   5.562   6.580 -0.0265 -0.2987  0.4059
  516MOL0     C69540  11.162   5.424   6.636  0.4405  0.5035 -0.6576
  516MOL0     C69541  11.178   5.325   6.523  0.0407 -0.3742 -0.6041
  516MOL0     N69542  11.212   5.187   6.568 -0.8470 -0.3442  0.1286
  516MOL0     C69543  11.291   5.101   6.502 -0.3596  0.2352  0.2063
  516MOL0     C69544  11.263   4.982   6.548  0.5053  0.3896  0.3083
  516MOL0     C69545  11.345   4.859   6.513  0.3937  0.1187 -0.0721
  516MOL0     C69546  11.487   4.865   6.575 -0.2981 -0.5491  0.4234
  516MOL0     C69547  11.488   4.814   6.718 -0.9131 -0.2835 -0.4633
  516MOL0     C69548  11.626   4.802   6.790 -0.0363  0.0482 -0.3470
  516MOL0     O69549  11.706   4.688   6.758  0.7681  0.3730  0.4462
  516MOL0     C69550  11.765   4.667   6.639  0.2146  0.3126 -0.0738
  516MOL0     C69551  11.793   4.546   6.596 -0.6377  0.8537 -0.0658
  516MOL0     C69552  11.862   4.516   6.477  0.3745 -1.0892  0.2501
  516MOL0     C69553  11.893   4.372   6.448 -0.0414 -0.4047 -0.4146
  516MOL0     C69554  11.882   4.625   6.382  0.2644 -0.6039 -0.6840
  516MOL0     C69555  11.921   4.606   6.246 -0.4043 -0.0180  0.8420
  516MOL0     O69556  11.983   4.711   6.189 -0.3241 -0.1155  0.3300
  516MOL0     C69557  12.019   4.702   6.052  0.1365 -0.4945  0.1883
  516MOL0     C69558  11.922   4.690   5.952 -0.0897 -0.0163 -0.6003
  516MOL0     C69559  11.953   4.714   5.817 -0.2443  0.3314 -0.0831
  516MOL0     C69560  12.089   4.728   5.770  0.5151 -0.1250  0.3294
  516MOL0     O69561  12.111   4.733   5.634 -0.8665 -0.7846 -0.1456
  516MOL0     C69562  12.228   4.802   5.592  0.2739 -1.0032 -0.8244
  516MOL0     C69563  12.264   4.763   5.449 -0.0720  0.0869 -0.5914
  516MOL0     C69564  12.386   4.853   5.409  0.9805 -0.6933 -0.3641
  516MOL0     C69565  12.517   4.778   5.408 -0.1940 -0.3613 -0.3304
  516MOL0     C69566  12.599   4.809   5.281 -0.7140 -0.6448 -0.2064
  516MOL0     C69567  12.559   4.716   5.161  0.0995 -0.2493  0.0131
  516MOL0     C69568  12.599   4.779   5.029 -0.4870  0.4278 -0.3416
  516MOL0     C69569  12.516   4.738   4.912 -0.2831 -0.7573  0.1240
  516MOL0    Cl69570  12.557   4.568   4.884  0.0608  0.3706  0.2058
  516MOL0     C69571  12.180   4.735   5.872 -0.8339  0.2315  0.0331
  516MOL0     C69572  12.154   4.725   6.006  0.0404  0.0196 -0.2060
  516MOL0     O69573  11.900   4.500   6.183  0.3727  0.6211  0.8286
  516MOL0     C69574  11.867   4.758   6.432 -0.1217 -0.1617 -1.0738
  516MOL0     C69575  11.809   4.774   6.558  0.8554 -0.0154 -0.5931
  516MOL0     N69576  11.161   4.990   6.639  0.4603 -0.8331 -0.3697
  516MOL0     N69577  11.132   5.114   6.650 -0.1059  0.1457  0.5244
  516MOL0     C69578  10.402   5.986   6.332  0.6055 -0.2276 -0.0472
  516MOL0     C69579  10.271   6.032   6.303 -0.3827 -0.2734 -0.8348
  516MOL0     C69580   9.889   6.232   6.316 -0.1805  0.1170 -0.1903
  516MOL0     C69581   9.787   6.241   6.409 -0.7088 -0.3402  0.0006
  516MOL0     C69582   9.652   6.240   6.378 -0.0269  1.3117 -0.5803
  516MOL0     C69583   9.619   6.236   6.242 -0.7630  0.0217  0.6678
  516MOL0     O69584   9.499   6.272   6.190  0.1808 -0.2362  0.6562
  516MOL0     C69585   9.430   6.390   6.243 -0.4949 -0.5679  0.1786
  516MOL0     C69586   9.283   6.411   6.198  0.3565 -0.6530 -0.3076
  516MOL0     C69587   9.203   6.284   6.227  0.1644  0.0317  0.3004
  516MOL0     C69588   9.051   6.301   6.196  0.3651  0.1869 -0.5746
  516MOL0     C69589   8.981   6.419   6.260 -0.1913  0.1669  0.7870
  516MOL0     C69590   8.938   6.510   6.328 -1.0786 -0.1840  0.0289
  516MOL0     C69591   9.720   6.221   6.145  0.1166 -0.1903  0.8299
  516MOL0     C69592   9.851   6.226   6.180  0.2556 -0.5788 -0.1946
  516MOL0     H69593  10.334   6.367   6.261 -0.9257 -0.1686  0.7424
  516MOL0     H69594  10.567   6.277   6.318 -0.5361  0.3873 -1.4593
  516MOL0     H69595  10.610   5.880   6.456  1.6324  0.7245  1.8478
  516MOL0     H69596  10.632   5.831   6.286  1.8980 -1.9846  0.5187
  516MOL0     H69597  10.873   5.880   6.283  2.0870 -2.0556  1.3226
  516MOL0     H69598  10.865   5.935   6.453  0.0975 -1.0967  0.9504
  516MOL0     H69599  10.757   5.703   6.489  0.8592 -1.0357  0.8913
  516MOL0     H69600  10.814   5.664   6.331  1.6874 -0.8777 -0.2018
  516MOL0     H69601  11.039   5.742   6.368  0.1484  3.7621  0.7167
  516MOL0     H69602  11.004   5.790   6.527  0.0710 -0.6246  0.1116
  516MOL0     H69603  10.918   5.563   6.580 -0.6170  2.2220  0.7030
  516MOL0     H69604  10.998   5.508   6.423  0.8312 -1.5349  0.2631
  516MOL0     H69605  11.210   5.582   6.511  1.0007 -3.1726  0.6496
  516MOL0     H69606  11.144   5.641   6.653 -0.7029  1.4267 -1.2298
  516MOL0     H69607  11.260   5.447   6.680 -0.6107  2.2464  0.9425
  516MOL0     H69608  11.102   5.382   6.718  1.7098  1.0147  0.5899
  516MOL0     H69609  11.253   5.368   6.456 -0.2399  1.1350 -0.0034
  516MOL0     H69610  11.080   5.323   6.474 -0.2078  0.2048 -0.1478
  516MOL0     H69611  11.368   5.113   6.426  3.0586 -1.2381  3.1202
  516MOL0     H69612  11.302   4.765   6.548  2.9219 -0.9050  0.4990
  516MOL0     H69613  11.339   4.854   6.404 -3.9524 -0.2157 -0.0162
  516MOL0     H69614  11.515   4.970   6.584 -1.6392 -0.2677  1.8668
  516MOL0     H69615  11.560   4.808   6.518  2.4376  3.1367 -0.0974
  516MOL0     H69616  11.446   4.713   6.724 -1.2110 -0.1367 -0.0360
  516MOL0     H69617  11.423   4.878   6.779 -0.2668 -3.0306  3.4826
  516MOL0     H69618  11.609   4.786   6.897 -0.0120  2.2892  0.0405
  516MOL0     H69619  11.684   4.895   6.791 -0.0935  0.0819  0.2983
  516MOL0     H69620  11.768   4.450   6.641  0.1523 -1.2320 -3.6053
  516MOL0     H69621  11.991   4.365   6.400 -0.1965  2.2402 -1.2869
  516MOL0     H69622  11.891   4.301   6.531  0.0767  1.0606  0.8830
  516MOL0     H69623  11.826   4.348   6.365  2.6225 -0.7830 -2.5833
  516MOL0     H69624  11.821   4.655   5.968  0.0123 -1.1339 -2.1186
  516MOL0     H69625  11.876   4.695   5.743  2.0512 -0.0896 -2.5027
  516MOL0     H69626  12.199   4.907   5.580  0.4797 -0.9047 -0.4547
  516MOL0     H69627  12.318   4.797   5.654 -0.4237 -0.9590  0.2045
  516MOL0     H69628  12.286   4.657   5.440 -0.7175  0.0857 -2.9934
  516MOL0     H69629  12.188   4.781   5.372  0.8490 -2.8533 -2.3507
  516MOL0     H69630  12.401   4.940   5.474 -0.2348 -1.3937  0.8870
  516MOL0     H69631  12.368   4.897   5.310  2.5551  2.8111  0.7272
  516MOL0     H69632  12.577   4.809   5.494 -0.0009  2.8440 -1.4672
  516MOL0     H69633  12.500   4.672   5.428  0.7198  0.0701  3.5001
  516MOL0     H69634  12.703   4.781   5.296 -0.9067 -0.4516  1.7277
  516MOL0     H69635  12.576   4.914   5.258  2.3282  0.2856  0.5497
  516MOL0     H69636  12.595   4.617   5.190  0.8666 -1.0052 -3.1452
  516MOL0     H69637  12.451   4.698   5.159 -0.3510  1.8971  1.3985
  516MOL0     H69638  12.699   4.737   5.014 -1.4793 -1.9492 -0.5583
  516MOL0     H69639  12.600   4.887   5.046  1.6424  0.2909  0.7791
  516MOL0     H69640  12.537   4.797   4.823 -0.0545  0.5115  0.9857
  516MOL0     H69641  12.413   4.754   4.946  0.3816  0.6308  1.6463
  516MOL0     H69642  12.284   4.743   5.843 -1.1415 -0.0988 -1.2095
  516MOL0     H69643  12.234   4.742   6.077 -0.4766 -2.1511  0.9661
  516MOL0     H69644  11.898   4.850   6.384  3.3207 -0.7746 -0.3149
  516MOL0     H69645  11.776   4.872   6.590  0.2991 -0.0860 -0.9374
  516MOL0     H69646  10.406   5.878   6.342 -2.6471 -0.3333  1.4239
  516MOL0     H69647  10.181   5.971   6.307 -0.8665  0.4536  1.5258
  516MOL0     H69648   9.809   6.233   6.515 -4.0055  1.0647  0.9305
  516MOL0     H69649   9.582   6.241   6.461 -0.7861  1.4232 -1.2173
  516MOL0     H69650   9.429   6.386   6.352 -0.1066 -0.7880  0.1753
  516MOL0     H69651   9.493   6.477   6.225 -1.2573 -0.5191 -2.8906
  516MOL0     H69652   9.278   6.439   6.092 -1.3677 -1.7545 -0.5623
  516MOL0     H69653   9.236   6.489   6.259 -1.6515 -2.6226  0.8353
  516MOL0     H69654   9.228   6.250   6.328 -0.4114  0.7137  0.6818
  516MOL0     H69655   9.236   6.207   6.156 -3.9990 -0.9429 -0.8444
  516MOL0     H69656   9.002   6.210   6.231  1.3515 -0.6398 -1.2781
  516MOL0     H69657   9.049   6.301   6.087  2.3516  1.0214 -0.6454
  516MOL0     H69658   8.915   6.603   6.378 -2.9480  0.6757 -2.2413
  516MOL0     H69659   9.705   6.215   6.038 -2.0464 -0.1096  1.0714
  516MOL0     H69660   9.921   6.220   6.098  0.8144  1.7508  0.0397
  517MOL0     O69661   4.708   4.000   6.887  0.3209  0.3622 -0.3336
  517MOL0     C69662   4.766   4.096   6.936  0.4902 -0.3474 -0.3847
  517MOL0     O69663   4.795   4.207   6.873  0.2525 -0.0307  0.1747
  517MOL0     C69664   4.745   4.240   6.746 -0.2120  0.0179 -0.1194
  517MOL0     C69665   4.612   4.219   6.715 -0.1387 -0.2215  0.0368
  517MOL0     C69666   4.558   4.225   6.586 -0.0355 -0.3737  0.0418
  517MOL0     C69667   4.647   4.247   6.482  0.6238  0.0867  0.0345
  517MOL0     O69668   4.604   4.239   6.351  0.0329  0.2646  0.7238
  517MOL0     C69669   4.478   4.172   6.321  0.7452 -0.6168 -0.1842
  517MOL0     C69670   4.480   4.110   6.187 -0.5545  0.2915 -0.1597
  517MOL0     C69671   4.514   4.207   6.077 -0.6792 -0.2560 -0.3277
  517MOL0     C69672   4.535   4.149   5.937  1.0223 -0.5938 -0.5026
  517MOL0     C69673   4.409   4.080   5.864 -0.0418  0.8336  0.2432
  517MOL0     C69674   4.299   4.177   5.805 -0.5644  0.0363 -0.1075
  517MOL0     C69675   4.196   4.077   5.742  0.7849 -0.1201  0.0564
  517MOL0     C69676   4.221   4.051   5.594  0.6707 -0.8967  0.5663
  517MOL0     N69677   4.111   3.968   5.553  0.6824 -0.0025 -0.0931
  517MOL0     C69678   3.980   3.977   5.590  0.1001  0.2310 -0.0942
  517MOL0     C69679   3.925   3.872   5.521  0.4072 -0.3647 -0.6013
  517MOL0     C69680   3.770   3.869   5.512  0.0658 -0.1765  0.8583
  517MOL0     C69681   3.703   3.735   5.534 -0.1744  0.5587 -0.8371
  517MOL0     C69682   3.615   3.706   5.421  0.3254 -0.1866 -0.1088
  517MOL0     C69683   3.550   3.568   5.429 -0.3819 -0.1516 -0.1853
  517MOL0     O69684   3.459   3.572   5.534  0.0978 -0.2430 -0.2438
  517MOL0     C69685   3.434   3.450   5.593 -0.0433  0.5183  0.4689
  517MOL0     C69686   3.381   3.472   5.717  0.6642  1.2058  0.3767
  517MOL0     C69687   3.337   3.364   5.795 -0.2503 -0.6870  0.9770
  517MOL0     C69688   3.271   3.394   5.927  0.9938 -0.0875 -0.2170
  517MOL0     C69689   3.342   3.232   5.745  0.6698  0.3366  0.9458
  517MOL0     C69690   3.282   3.105   5.821 -0.2753 -0.5382  0.0847
  517MOL0     O69691   3.334   2.995   5.762  0.2731  0.1454  0.4327
  517MOL0     C69692   3.314   2.867   5.813  0.7179 -0.2222  0.7060
  517MOL0     C69693   3.213   2.775   5.774 -1.3046  0.3177 -0.3612
  517MOL0     C69694   3.207   2.643   5.821  0.2394 -0.2805  0.4645
  517MOL0     C69695   3.299   2.605   5.915 -0.1314  0.5708 -0.6203
  517MOL0     O69696   3.277   2.483   5.974  0.7148  0.7942  0.3635
  517MOL0     C69697   3.371   2.429   6.058  0.5342 -0.4632  0.6763
  517MOL0     C69698   3.322   2.288   6.106 -1.4161 -0.7478 -0.1309
  517MOL0     C69699   3.430   2.221   6.187  0.1113 -0.5976  0.5687
  517MOL0     C69700   3.391   2.077   6.222 -0.7508 -0.4492  0.5046
  517MOL0     C69701   3.494   2.009   6.308  0.7024 -0.4358  0.0922
  517MOL0     C69702   3.438   1.886   6.383  0.4369 -0.8899  0.1875
  517MOL0     C69703   3.384   1.775   6.288  0.6317  0.3869 -0.3323
  517MOL0     C69704   3.273   1.695   6.359 -0.5000  0.1437  0.0123
  517MOL0    Cl69705   3.234   1.550   6.259  0.2865 -0.1659  0.1282
  517MOL0     C69706   3.399   2.696   5.965  1.0155 -0.3198  1.0035
  517MOL0     C69707   3.397   2.827   5.912  0.3454  0.6067  0.1828
  517MOL0     O69708   3.209   3.105   5.919 -0.2356  0.2779  0.2551
  517MOL0     C69709   3.398   3.214   5.615 -0.1373 -0.4603 -0.1676
  517MOL0     C69710   3.454   3.319   5.544  0.5906 -0.2849  0.6375
  517MOL0     N69711   4.025   3.795   5.471 -0.6130 -0.2524 -0.3692
  517MOL0     N69712   4.133   3.862   5.478  0.5750  0.5198 -0.3962
  517MOL0     C69713   4.774   4.292   6.512 -0.2013  0.2141  0.4190
  517MOL0     C69714   4.829   4.287   6.642  0.7761  0.0212  0.3899
  517MOL0     C69715   4.816   4.106   7.082  1.2177 -0.4049  0.3839
  517MOL0     C69716   4.906   4.204   7.128 -0.6104  0.8901  0.1941
  517MOL0     C69717   4.947   4.206   7.264 -1.2254  0.2177  0.1818
  517MOL0     C69718   4.904   4.112   7.356  0.7436 -0.8537 -0.2821
  517MOL0     O69719   4.943   4.144   7.484 -0.1108 -0.3919 -0.7445
  517MOL0     C69720   4.915   4.046   7.589 -0.5082 -0.5333 -0.8754
  517MOL0     C69721   5.019   3.930   7.583  1.3198  0.6476  0.2091
  517MOL0     C69722   5.005   3.812   7.693 -0.3326 -0.6132 -0.7666
  517MOL0     C69723   4.877   3.735   7.682 -0.6277  0.1361 -0.3725
  517MOL0     C69724   4.886   3.615   7.760 -0.0742 -0.4655  0.0119
  517MOL0     C69725   4.896   3.528   7.844 -1.4523  0.5073  0.4221
  517MOL0     C69726   4.825   4.005   7.305 -0.8202  0.4035  0.3387
  517MOL0     C69727   4.778   4.006   7.175  0.8743  0.8109  0.3754
  517MOL0     H69728   4.546   4.202   6.800 -1.4290 -1.9440 -1.2569
  517MOL0     H69729   4.450   4.211   6.576 -0.6856  1.3083  3.2962
  517MOL0     H69730   4.471   4.090   6.393  1.0668  1.3986  2.2675
  517MOL0     H69731   4.389   4.231   6.347  1.6005 -0.6677  3.3681
  517MOL0     H69732   4.554   4.030   6.189 -3.1897 -2.4228  4.0598
  517MOL0     H69733   4.389   4.052   6.175 -0.5938 -0.2373  2.1971
  517MOL0     H69734   4.426   4.272   6.068 -0.8354 -0.4436 -0.1617
  517MOL0     H69735   4.601   4.264   6.111 -2.1484  0.1649  3.1069
  517MOL0     H69736   4.590   4.230   5.887  2.2415 -0.3350  1.2012
  517MOL0     H69737   4.612   4.073   5.949  0.8553 -0.8694 -1.1239
  517MOL0     H69738   4.454   4.015   5.789  1.2764  2.1044 -0.0985
  517MOL0     H69739   4.366   4.001   5.926  1.0874 -0.8718 -1.0672
  517MOL0     H69740   4.244   4.236   5.879 -2.2071  0.2459 -1.4197
  517MOL0     H69741   4.335   4.248   5.730 -1.3133  1.5295  0.8927
  517MOL0     H69742   4.189   3.983   5.797 -2.0854 -1.5537 -2.5090
  517MOL0     H69743   4.095   4.117   5.750  0.1450 -1.6060 -0.3249
  517MOL0     H69744   4.322   4.012   5.576  0.2689 -0.5071 -3.1358
  517MOL0     H69745   4.217   4.147   5.541 -4.0429  0.0732  2.1942
  517MOL0     H69746   3.934   4.062   5.640  2.5538  0.8348  1.2825
  517MOL0     H69747   3.728   3.932   5.591 -0.3016 -0.7415  1.1171
  517MOL0     H69748   3.741   3.922   5.421 -0.5968  1.5896  2.0414
  517MOL0     H69749   3.663   3.723   5.635 -1.3015  1.2169 -1.1788
  517MOL0     H69750   3.772   3.651   5.528 -2.3501 -1.4049 -0.0047
  517MOL0     H69751   3.674   3.692   5.330 -2.2725  0.6651 -2.0372
  517MOL0     H69752   3.544   3.785   5.396  0.5555 -0.8822 -3.3827
  517MOL0     H69753   3.634   3.498   5.440 -0.9997 -1.5450 -3.1996
  517MOL0     H69754   3.518   3.540   5.328  0.3132 -2.8984  0.2649
  517MOL0     H69755   3.367   3.577   5.743 -2.1450  0.2464  3.4983
  517MOL0     H69756   3.337   3.363   6.009  0.4770  1.7321  0.9495
  517MOL0     H69757   3.249   3.501   5.936  1.2885  0.0666 -1.2200
  517MOL0     H69758   3.173   3.349   5.946  0.1077  1.0725 -1.8508
  517MOL0     H69759   3.127   2.801   5.713 -0.8385  1.0626 -0.7098
  517MOL0     H69760   3.125   2.578   5.793  0.6045 -0.2274 -0.7821
  517MOL0     H69761   3.465   2.426   6.001  1.4553 -3.6621  2.1778
  517MOL0     H69762   3.379   2.484   6.152 -1.7629  0.3187  0.4581
  517MOL0     H69763   3.239   2.296   6.176 -0.9236  4.3037  0.2342
  517MOL0     H69764   3.301   2.221   6.022 -3.0079 -0.4274 -0.0168
  517MOL0     H69765   3.449   2.282   6.276  0.3366  1.5879 -0.9149
  517MOL0     H69766   3.518   2.211   6.122  1.5896  0.1683  2.3376
  517MOL0     H69767   3.300   2.080   6.282  0.3830 -0.5121  2.2812
  517MOL0     H69768   3.376   2.016   6.132  0.6487  1.0782 -0.8347
  517MOL0     H69769   3.530   2.073   6.390 -2.6357  1.3210  0.3672
  517MOL0     H69770   3.584   1.974   6.256  0.1124 -1.6304 -0.1329
  517MOL0     H69771   3.518   1.845   6.444  0.9927  2.2415  1.7338
  517MOL0     H69772   3.356   1.921   6.447 -0.0675 -0.5377 -0.6279
  517MOL0     H69773   3.466   1.707   6.261  0.5089  1.2760 -3.3613
  517MOL0     H69774   3.346   1.815   6.194 -1.0706  1.1704  0.6645
  517MOL0     H69775   3.183   1.755   6.370 -1.1161 -0.9104  0.8752
  517MOL0     H69776   3.297   1.656   6.458 -0.3784 -2.6910 -1.0306
  517MOL0     H69777   3.466   2.655   6.040 -1.1331 -2.4856  1.8462
  517MOL0     H69778   3.474   2.891   5.953  2.4663 -0.9730 -1.1585
  517MOL0     H69779   3.402   3.121   5.560  2.4088 -1.5392  1.6246
  517MOL0     H69780   3.502   3.325   5.447 -2.1737  2.3250 -0.7570
  517MOL0     H69781   4.852   4.318   6.441  0.2045 -0.6646  0.5250
  517MOL0     H69782   4.937   4.288   6.657  1.2566 -1.5587 -2.4103
  517MOL0     H69783   4.944   4.279   7.059 -0.7410  0.7999  0.0224
  517MOL0     H69784   5.024   4.280   7.279  3.2335 -3.5055 -1.7429
  517MOL0     H69785   4.926   4.104   7.681 -0.3736  0.3652 -1.4396
  517MOL0     H69786   4.811   4.020   7.567 -0.8679  0.6486 -0.6624
  517MOL0     H69787   5.120   3.961   7.612  1.2159 -0.3302  1.7180
  517MOL0     H69788   5.037   3.882   7.486  3.6952  0.5405  0.6357
  517MOL0     H69789   5.015   3.835   7.799 -1.1980 -0.2309 -0.7568
  517MOL0     H69790   5.099   3.758   7.679 -0.8876 -1.5918 -0.7894
  517MOL0     H69791   4.868   3.702   7.578 -1.7507 -2.3143  0.4306
  517MOL0     H69792   4.784   3.785   7.710 -0.4723  0.2986 -0.1391
  517MOL0     H69793   4.919   3.443   7.906  0.0128 -0.8790 -1.8726
  517MOL0     H69794   4.793   3.915   7.356  1.5227 -0.1240  1.0252
  517MOL0     H69795   4.704   3.936   7.138  2.4892 -0.1026 -1.2575
  518MOL0     O69796   0.560   7.829   6.866  0.5387 -0.0624 -0.0583
  518MOL0     C69797   0.494   7.769   6.786  0.7268 -0.3470  0.0924
  518MOL0     O69798   0.362   7.761   6.787 -0.1852  0.5055 -0.1735
  518MOL0     C69799   0.286   7.813   6.890  0.3298 -0.0060  0.3262
  518MOL0     C69800   0.280   7.766   7.020  0.4849  0.1163 -0.0535
  518MOL0     C69801   0.188   7.821   7.112 -0.4898  1.0577 -0.1627
  518MOL0     C69802   0.087   7.912   7.074 -0.4599  1.3603  0.2737
  518MOL0     O69803   0.012   7.970   7.173 -0.1064  0.3400  0.1227
  518MOL0     C69804   0.051   8.100   7.209  0.6163  1.0016 -0.8482
  518MOL0     C69805  -0.081   8.171   7.265 -0.1122  0.5651 -1.4096
  518MOL0     C69806  -0.122   8.126   7.396 -0.2506 -0.0020  0.5852
  518MOL0     C69807  -0.245   8.210   7.428  0.8279 -0.0502  0.7774
  518MOL0     C69808  -0.316   8.168   7.555  0.8167 -1.3970 -0.0919
  518MOL0     C69809  -0.433   8.257   7.591  0.8112  0.3798  0.2130
  518MOL0     C69810  -0.550   8.158   7.625 -0.1822 -0.7214 -0.2330
  518MOL0     C69811  -0.678   8.224   7.667 -0.0306  0.0890  0.1879
  518MOL0     N69812  -0.786   8.135   7.701 -0.7576 -0.0902  0.1987
  518MOL0     C69813  -0.784   8.041   7.794  0.1172  0.5713  0.1841
  518MOL0     C69814  -0.885   7.952   7.764  0.9010  0.1362 -0.5097
  518MOL0     C69815  -0.909   7.830   7.849  0.1388  0.2857  0.2189
  518MOL0     C69816  -0.919   7.716   7.746 -0.3005  0.3228 -0.0392
  518MOL0     C69817  -1.066   7.704   7.698 -0.0398 -0.1266 -0.7166
  518MOL0     C69818  -1.074   7.672   7.554  0.0431  0.1592 -0.0443
  518MOL0     O69819  -1.204   7.618   7.536 -0.1892  0.6903  0.3546
  518MOL0     C69820  -1.239   7.570   7.414 -0.6241  0.5651 -0.7424
  518MOL0     C69821  -1.146   7.562   7.308 -0.4511  0.0015  0.2479
  518MOL0     C69822  -1.189   7.525   7.178  0.2782  0.3251 -0.2396
  518MOL0     C69823  -1.092   7.529   7.063  0.3332  0.1789 -0.2232
  518MOL0     C69824  -1.319   7.477   7.153  0.3530  0.1371 -0.3930
  518MOL0     C69825  -1.373   7.444   7.016  0.0628  0.3338 -0.9046
  518MOL0     O69826  -1.495   7.380   7.010  0.2678  0.2222 -0.5814
  518MOL0     C69827  -1.567   7.369   6.896 -0.1586 -0.5434  0.2404
  518MOL0     C69828  -1.554   7.451   6.781 -0.3244  0.0817  0.5582
  518MOL0     C69829  -1.614   7.416   6.659  0.3988 -0.1774 -0.5515
  518MOL0     C69830  -1.719   7.321   6.655  0.0424 -0.4665 -0.5147
  518MOL0     O69831  -1.776   7.301   6.529 -0.5258 -0.5892  1.0714
  518MOL0     C69832  -1.739   7.166   6.488  0.2593 -0.6228 -0.4546
  518MOL0     C69833  -1.804   7.123   6.350 -0.2022  0.5621  0.4367
  518MOL0     C69834  -1.959   7.120   6.342  0.7694  0.2582 -0.8896
  518MOL0     C69835  -2.020   7.008   6.416 -0.8152  0.0181 -0.0761
  518MOL0     C69836  -2.170   6.991   6.385  0.5937 -0.2866  0.4833
  518MOL0     C69837  -2.185   6.885   6.275 -0.6020 -0.0111 -0.2570
  518MOL0     C69838  -2.322   6.812   6.250  0.0062  0.5650  0.6293
  518MOL0     C69839  -2.419   6.894   6.181 -0.5274  0.1375  0.5906
  518MOL0    Cl69840  -2.592   6.844   6.204 -0.0322  0.2246  0.2149
  518MOL0     C69841  -1.739   7.236   6.767 -0.1869 -0.2130 -0.3783
  518MOL0     C69842  -1.668   7.272   6.883  0.2872  0.4113 -0.3701
  518MOL0     O69843  -1.305   7.455   6.914 -0.5316 -0.1116 -0.0267
  518MOL0     C69844  -1.415   7.478   7.266 -0.2502  0.9092 -0.0610
  518MOL0     C69845  -1.369   7.522   7.393 -0.1540 -0.8405 -0.9030
  518MOL0     N69846  -0.959   8.000   7.659  0.3169  0.1105 -0.0246
  518MOL0     N69847  -0.896   8.103   7.618 -1.7711 -0.9551 -0.1628
  518MOL0     C69848   0.093   7.955   6.943 -0.3403 -0.5074  0.7046
  518MOL0     C69849   0.193   7.913   6.849  0.3731 -0.0869 -0.8230
  518MOL0     C69850   0.561   7.684   6.696  0.2682  0.0447  0.3164
  518MOL0     C69851   0.504   7.647   6.572 -0.8063  0.2973  0.8970
  518MOL0     C69852   0.569   7.554   6.485  0.3309 -0.7869 -0.3194
  518MOL0     C69853   0.688   7.496   6.521  0.4349  0.3565 -0.8669
  518MOL0     O69854   0.743   7.395   6.450  0.5081  0.0169 -0.3662
  518MOL0     C69855   0.800   7.427   6.321 -0.9886 -0.4832  0.1580
  518MOL0     C69856   0.956   7.409   6.326 -0.8020 -0.8574 -0.3935
  518MOL0     C69857   1.013   7.473   6.207  0.1183 -0.7315 -0.4386
  518MOL0     C69858   1.163   7.481   6.196  0.3979  0.6617 -0.1857
  518MOL0     C69859   1.210   7.580   6.093 -0.9074 -0.7782  0.9003
  518MOL0     C69860   1.252   7.650   6.000 -0.5673  0.0100 -0.2604
  518MOL0     C69861   0.752   7.542   6.640  0.0033  0.2241 -1.1629
  518MOL0     C69862   0.684   7.627   6.731 -0.0284 -0.9520  0.5040
  518MOL0     H69863   0.361   7.694   7.034 -0.3850 -2.4034 -5.2699
  518MOL0     H69864   0.202   7.795   7.217 -2.7541 -0.4141 -0.1419
  518MOL0     H69865   0.121   8.098   7.293 -2.5602  0.9965  2.0323
  518MOL0     H69866   0.077   8.156   7.119  1.9308 -0.8244 -1.6722
  518MOL0     H69867  -0.069   8.280   7.272 -1.2288  0.6062  0.5326
  518MOL0     H69868  -0.154   8.135   7.192 -0.8383 -0.7458 -0.0636
  518MOL0     H69869  -0.140   8.018   7.395  0.2704 -0.0877  0.3264
  518MOL0     H69870  -0.041   8.144   7.466  2.5867  2.5946 -2.9863
  518MOL0     H69871  -0.204   8.310   7.447  0.4414  0.0311  1.1918
  518MOL0     H69872  -0.306   8.225   7.338  0.9941  1.9196  0.9405
  518MOL0     H69873  -0.336   8.067   7.517  1.7208 -1.1836 -1.1579
  518MOL0     H69874  -0.248   8.173   7.641 -1.1470  0.0813  1.4712
  518MOL0     H69875  -0.415   8.319   7.679 -1.3633 -1.1707  1.8547
  518MOL0     H69876  -0.471   8.309   7.502 -2.8496 -3.8498 -1.0247
  518MOL0     H69877  -0.567   8.084   7.546  0.2284 -0.0857 -0.9282
  518MOL0     H69878  -0.505   8.106   7.710 -0.0535  1.0402  0.8360
  518MOL0     H69879  -0.703   8.287   7.582  0.6494  2.6821  1.7767
  518MOL0     H69880  -0.660   8.295   7.749 -0.6388 -0.2419  0.6108
  518MOL0     H69881  -0.717   8.044   7.880  2.1345  1.2535 -1.3100
  518MOL0     H69882  -0.850   7.814   7.940  0.0115  2.1683  0.6680
  518MOL0     H69883  -1.005   7.863   7.889 -1.0446 -1.6997 -0.8400
  518MOL0     H69884  -0.895   7.622   7.797  0.5664  0.1012 -0.8240
  518MOL0     H69885  -0.838   7.734   7.674  0.2929  1.4555  0.8714
  518MOL0     H69886  -1.123   7.796   7.710 -2.0658 -1.5878  2.2633
  518MOL0     H69887  -1.105   7.617   7.752  2.6288 -1.1974 -0.3149
  518MOL0     H69888  -1.002   7.594   7.527 -0.2314 -0.9721  2.2332
  518MOL0     H69889  -1.062   7.763   7.496 -0.5380  1.1716  1.3529
  518MOL0     H69890  -1.045   7.591   7.336 -0.3021 -3.2152  3.9872
  518MOL0     H69891  -1.121   7.603   6.989  0.1965  0.2513 -0.0958
  518MOL0     H69892  -0.991   7.561   7.091 -0.5112  3.0116 -0.1432
  518MOL0     H69893  -1.075   7.427   7.027  0.8363 -0.3147  1.3099
  518MOL0     H69894  -1.479   7.528   6.770 -0.0750 -0.2582 -0.1807
  518MOL0     H69895  -1.589   7.459   6.562  1.6283 -1.5859 -0.9072
  518MOL0     H69896  -1.630   7.160   6.481  0.1689 -1.2025 -1.5527
  518MOL0     H69897  -1.776   7.088   6.557 -3.9119  1.4495 -0.0179
  518MOL0     H69898  -1.769   7.205   6.287  4.5263  0.1721  2.1351
  518MOL0     H69899  -1.762   7.026   6.319  0.6898  0.8833  0.6110
  518MOL0     H69900  -1.998   7.139   6.242  0.1719  0.8662 -0.5513
  518MOL0     H69901  -1.991   7.210   6.395  1.8332 -0.5400  1.2233
  518MOL0     H69902  -1.973   6.911   6.398 -0.3670  0.5334 -1.8585
  518MOL0     H69903  -2.015   7.027   6.524 -1.5470  1.6733 -0.3030
  518MOL0     H69904  -2.208   7.089   6.355  2.5778 -0.0051 -1.2845
  518MOL0     H69905  -2.232   6.976   6.474 -1.1280  4.0654  0.2546
  518MOL0     H69906  -2.153   6.943   6.188  1.7965 -0.3894  0.2820
  518MOL0     H69907  -2.122   6.796   6.280 -2.2733 -1.3333 -1.6241
  518MOL0     H69908  -2.370   6.765   6.336 -1.3852 -1.1526 -1.0093
  518MOL0     H69909  -2.309   6.734   6.175 -1.8394  1.1960 -0.4176
  518MOL0     H69910  -2.396   6.906   6.075 -0.0544 -0.7327  0.5803
  518MOL0     H69911  -2.407   6.993   6.225 -0.2640  0.2399  0.2931
  518MOL0     H69912  -1.792   7.141   6.776 -2.5898  1.2375  2.8728
  518MOL0     H69913  -1.681   7.202   6.964 -2.9541  1.5875  0.2549
  518MOL0     H69914  -1.517   7.443   7.256  0.4247 -0.5324 -3.3879
  518MOL0     H69915  -1.431   7.520   7.482  3.0617  1.9500  1.6995
  518MOL0     H69916   0.038   8.045   6.918  1.1294 -0.0170 -1.0158
  518MOL0     H69917   0.195   7.962   6.752  0.3886 -1.5843 -1.6232
  518MOL0     H69918   0.409   7.687   6.539 -0.1779  1.3493  0.3164
  518MOL0     H69919   0.524   7.519   6.393  0.5569  0.1227 -0.7971
  518MOL0     H69920   0.755   7.367   6.241  1.4485 -1.3679 -0.6272
  518MOL0     H69921   0.787   7.535   6.307  0.8818 -0.0630  1.3809
  518MOL0     H69922   0.987   7.305   6.331 -3.0479 -1.5347  1.8631
  518MOL0     H69923   0.991   7.458   6.418 -4.2617  1.1783  0.0440
  518MOL0     H69924   0.983   7.578   6.214  0.3438 -0.7044  0.0957
  518MOL0     H69925   0.974   7.419   6.120 -0.0100 -1.0721 -0.1674
  518MOL0     H69926   1.217   7.387   6.186  0.8902  0.6599  1.9916
  518MOL0     H69927   1.186   7.512   6.298  1.1592 -0.9982  0.1733
  518MOL0     H69928   1.272   7.718   5.919 -0.3415  2.5275  1.7745
  518MOL0     H69929   0.843   7.493   6.671 -1.1023 -0.8870  0.5148
  518MOL0     H69930   0.722   7.658   6.827 -1.8339  0.0995  0.9403
  519MOL0     O69931   4.407   5.652   3.641  1.0083  0.2742 -0.3453
  519MOL0     C69932   4.469   5.749   3.684 -0.2495  0.0239 -0.4149
  519MOL0     O69933   4.445   5.807   3.807  0.1681 -0.5081  0.4712
  519MOL0     C69934   4.371   5.757   3.914 -0.4285 -1.3379  0.6786
  519MOL0     C69935   4.316   5.631   3.923  0.0997 -0.3089 -1.1803
  519MOL0     C69936   4.232   5.607   4.033  0.0514 -0.1592  0.1207
  519MOL0     C69937   4.209   5.711   4.135 -0.1335 -0.1275  0.8506
  519MOL0     O69938   4.123   5.698   4.246  0.5562 -0.5020  0.4515
  519MOL0     C69939   4.022   5.597   4.218  0.0936 -0.1734  0.3992
  519MOL0     C69940   3.903   5.587   4.325 -0.3612 -1.0226 -0.5698
  519MOL0     C69941   3.877   5.717   4.406  0.6761  0.1989 -0.8696
  519MOL0     C69942   3.824   5.832   4.305  0.2406  0.0602 -0.4990
  519MOL0     C69943   3.793   5.964   4.386  0.3197  0.6674  0.5661
  519MOL0     C69944   3.658   5.977   4.449  0.0942 -0.7509 -0.1617
  519MOL0     C69945   3.653   6.110   4.527  0.4174  0.4898 -0.4372
  519MOL0     C69946   3.634   6.225   4.429 -0.3177 -0.0576  0.9659
  519MOL0     N69947   3.618   6.358   4.485 -0.2230  0.1403  0.7439
  519MOL0     C69948   3.503   6.395   4.548  0.6328 -1.0717  1.5931
  519MOL0     C69949   3.499   6.532   4.538 -0.5091  0.2323 -0.6370
  519MOL0     C69950   3.402   6.621   4.598  0.1512 -0.0335 -0.4715
  519MOL0     C69951   3.266   6.605   4.527 -0.5034 -0.1792  0.7007
  519MOL0     C69952   3.151   6.682   4.609  0.3911 -0.1955 -0.4729
  519MOL0     C69953   3.179   6.833   4.615  0.1245  0.6339  0.0722
  519MOL0     O69954   3.267   6.864   4.728  0.1705  0.5396  0.4002
  519MOL0     C69955   3.258   6.987   4.781  0.4503 -0.3590 -0.1610
  519MOL0     C69956   3.329   7.018   4.895  0.1897 -0.2954 -0.2193
  519MOL0     C69957   3.320   7.138   4.962  0.4912 -0.7034 -0.3956
  519MOL0     C69958   3.385   7.146   5.098  0.2453 -0.1588  0.4752
  519MOL0     C69959   3.249   7.247   4.900 -1.4789  0.7065  0.4179
  519MOL0     C69960   3.245   7.381   4.954 -0.4854 -0.3605  0.0576
  519MOL0     O69961   3.154   7.463   4.898  0.0977  0.4983 -0.3587
  519MOL0     C69962   3.138   7.588   4.942 -0.0090 -0.2780  0.4772
  519MOL0     C69963   3.080   7.630   5.069  0.1660 -0.4312  0.4422
  519MOL0     C69964   3.096   7.767   5.103 -0.8568 -0.7847  0.3809
  519MOL0     C69965   3.147   7.869   5.011 -0.9101  1.6310 -0.5364
  519MOL0     O69966   3.153   8.008   5.029 -0.3750  0.4511 -1.0144
  519MOL0     C69967   3.265   8.041   5.112 -1.1078  0.2657  0.0084
  519MOL0     C69968   3.275   8.194   5.113 -0.4350 -0.5705  0.0249
  519MOL0     C69969   3.148   8.253   5.162  0.2150 -0.3117 -0.4622
  519MOL0     C69970   3.136   8.407   5.139 -0.1451  0.3721 -0.3900
  519MOL0     C69971   3.015   8.456   5.213  0.5891  0.2286 -0.3264
  519MOL0     C69972   3.009   8.608   5.207 -0.3090  0.0324 -0.5447
  519MOL0     C69973   2.910   8.673   5.306 -0.7984  0.3537 -0.7694
  519MOL0     C69974   2.769   8.669   5.254  0.9276  1.0507 -0.1734
  519MOL0    Cl69975   2.677   8.714   5.391  0.0019  0.2621  0.0795
  519MOL0     C69976   3.180   7.823   4.881  0.7875 -0.7966  0.3227
  519MOL0     C69977   3.185   7.689   4.853 -0.7805 -0.2983 -0.5443
  519MOL0     O69978   3.314   7.409   5.051 -0.0651 -0.0880  0.0934
  519MOL0     C69979   3.185   7.220   4.774 -1.2225 -0.7689  1.3110
  519MOL0     C69980   3.187   7.093   4.717  0.2428  0.0188  0.1317
  519MOL0     N69981   3.615   6.572   4.469  0.2694 -0.0850 -0.1801
  519MOL0     N69982   3.679   6.466   4.431  0.0465  0.5874  0.6619
  519MOL0     C69983   4.258   5.839   4.117  0.0825  0.1111  0.2504
  519MOL0     C69984   4.346   5.855   4.005  0.2454  0.6200  0.0652
  519MOL0     C69985   4.569   5.811   3.603 -0.0936 -0.4714 -0.4577
  519MOL0     C69986   4.583   5.775   3.468  0.2189 -0.1890 -0.5609
  519MOL0     C69987   4.672   5.841   3.380  0.4262 -0.1934  0.7210
  519MOL0     C69988   4.744   5.951   3.414  0.4729 -0.4084 -0.5616
  519MOL0     O69989   4.842   6.018   3.337 -0.1664  0.1623 -0.2910
  519MOL0     C69990   4.835   6.007   3.191  0.4688 -0.5514 -0.3702
  519MOL0     C69991   4.970   6.053   3.140  0.9129 -0.0587  1.2247
  519MOL0     C69992   4.961   6.074   2.988 -0.6688  0.1168 -0.3417
  519MOL0     C69993   4.899   5.961   2.905 -0.4527 -0.1416  0.7558
  519MOL0     C69994   4.748   5.977   2.893 -0.2796 -0.0174  0.2706
  519MOL0     C69995   4.628   5.986   2.881  0.4951 -0.3962 -0.4606
  519MOL0     C69996   4.728   5.989   3.546 -0.3057 -0.1030  1.1946
  519MOL0     C69997   4.639   5.926   3.637 -0.7146 -0.7698 -0.2517
  519MOL0     H69998   4.329   5.551   3.851 -0.0580 -1.0512 -0.4053
  519MOL0     H69999   4.198   5.504   4.032 -2.4322  0.6115 -0.3985
  519MOL0     H70000   3.973   5.620   4.123 -1.1479  2.1429  1.5184
  519MOL0     H70001   4.077   5.504   4.202  1.1192  0.7073 -1.5905
  519MOL0     H70002   3.815   5.539   4.280 -0.1958  1.1688 -3.5422
  519MOL0     H70003   3.946   5.528   4.406  2.9014 -0.2987 -1.6281
  519MOL0     H70004   3.799   5.703   4.482  2.0538 -0.2887  0.5064
  519MOL0     H70005   3.971   5.758   4.443 -0.2414  2.5906 -0.9807
  519MOL0     H70006   3.902   5.850   4.231  0.0817 -1.2573 -1.0237
  519MOL0     H70007   3.737   5.790   4.254 -0.2726 -0.2256  0.5848
  519MOL0     H70008   3.871   5.987   4.458  2.1758  1.8246 -1.7070
  519MOL0     H70009   3.809   6.046   4.316  0.3594 -1.0327 -1.5007
  519MOL0     H70010   3.581   5.965   4.373  1.8144 -3.6424 -1.6210
  519MOL0     H70011   3.641   5.893   4.517 -2.0403  0.0789  0.4416
  519MOL0     H70012   3.566   6.113   4.593  1.3555  2.1042  0.7858
  519MOL0     H70013   3.744   6.129   4.585  0.2846  0.4205 -0.2053
  519MOL0     H70014   3.544   6.209   4.368 -1.3587  1.2281  2.1154
  519MOL0     H70015   3.718   6.226   4.359 -0.1294 -0.2038  1.1887
  519MOL0     H70016   3.432   6.335   4.604  1.3833 -2.6372  0.9269
  519MOL0     H70017   3.390   6.606   4.706  1.3943  0.7094 -0.2106
  519MOL0     H70018   3.431   6.725   4.582 -0.6103  0.0268 -1.6031
  519MOL0     H70019   3.234   6.501   4.545 -1.7771  0.4577  2.3838
  519MOL0     H70020   3.265   6.633   4.421  1.1259  2.1761  1.2476
  519MOL0     H70021   3.136   6.642   4.710 -2.4690 -1.2034 -1.2145
  519MOL0     H70022   3.053   6.662   4.566 -1.4483  2.8549  1.9042
  519MOL0     H70023   3.083   6.884   4.626 -0.7515 -1.0328  0.4317
  519MOL0     H70024   3.224   6.873   4.524 -2.4357  1.0067 -1.1108
  519MOL0     H70025   3.381   6.934   4.939  0.4817  0.4956  1.0052
  519MOL0     H70026   3.480   7.198   5.082 -0.4931  0.7804 -1.1489
  519MOL0     H70027   3.338   7.207   5.176  1.0185 -0.5034  1.2317
  519MOL0     H70028   3.401   7.052   5.152 -1.2787 -0.6168  0.1825
  519MOL0     H70029   3.030   7.566   5.141 -0.1578  0.8332  1.3708
  519MOL0     H70030   3.070   7.814   5.197  2.7577  0.7624  0.7806
  519MOL0     H70031   3.251   8.011   5.216  2.9240 -0.7679  0.4178
  519MOL0     H70032   3.352   7.995   5.064 -1.1643  1.9003 -1.8003
  519MOL0     H70033   3.358   8.233   5.172 -1.0753  3.7070 -1.5478
  519MOL0     H70034   3.290   8.234   5.012  2.2408 -1.4400 -0.0008
  519MOL0     H70035   3.146   8.231   5.269  1.2216  0.3802 -0.2873
  519MOL0     H70036   3.065   8.198   5.118 -1.0430  0.1479  1.2092
  519MOL0     H70037   3.219   8.461   5.185 -1.3383  0.9872  1.1437
  519MOL0     H70038   3.129   8.428   5.031 -3.4968 -4.0458 -1.3214
  519MOL0     H70039   3.023   8.426   5.318 -2.9892 -1.2793 -0.3421
  519MOL0     H70040   2.927   8.422   5.159 -0.1798  4.7445 -2.3799
  519MOL0     H70041   3.115   8.634   5.219 -0.1082 -0.7902 -0.4515
  519MOL0     H70042   2.991   8.641   5.105  3.0342 -2.2151 -2.0531
  519MOL0     H70043   2.934   8.779   5.318  1.6898 -0.2642  0.3136
  519MOL0     H70044   2.910   8.615   5.399  0.5477  0.3185 -0.7662
  519MOL0     H70045   2.741   8.568   5.222  1.7013  1.4855 -2.4406
  519MOL0     H70046   2.751   8.741   5.173  0.3298  0.3878 -0.6450
  519MOL0     H70047   3.219   7.897   4.813  2.6716  0.9209  3.0783
  519MOL0     H70048   3.230   7.647   4.763 -0.0402  0.8775 -0.7428
  519MOL0     H70049   3.112   7.286   4.727 -2.3686 -2.3205  0.8416
  519MOL0     H70050   3.126   7.084   4.628 -1.4714 -1.9926  1.3893
  519MOL0     H70051   4.242   5.920   4.187  0.6387 -0.4029  0.9886
  519MOL0     H70052   4.396   5.950   3.993 -1.8833  1.9133  0.8724
  519MOL0     H70053   4.539   5.683   3.432  0.9737  0.4344 -3.3665
  519MOL0     H70054   4.688   5.785   3.288  1.3779  0.8578  0.2133
  519MOL0     H70055   4.822   5.901   3.166  3.7413 -0.8934 -0.9743
  519MOL0     H70056   4.763   6.073   3.142  1.4341  4.1721  3.7199
  519MOL0     H70057   5.044   5.976   3.166  1.1907  0.5362  2.2434
  519MOL0     H70058   4.989   6.142   3.200  2.3539  0.2057  0.4274
  519MOL0     H70059   5.066   6.084   2.960 -0.6144  1.2332  0.2237
  519MOL0     H70060   4.922   6.175   2.974  2.8476  1.4375 -1.6082
  519MOL0     H70061   4.931   5.864   2.943  2.4901  1.0213  1.5171
  519MOL0     H70062   4.928   5.965   2.800 -0.9885 -1.7715  0.5151
  519MOL0     H70063   4.521   5.981   2.882  0.5103 -2.0952  1.4802
  519MOL0     H70064   4.774   6.082   3.577 -1.3627  1.4175 -1.4619
  519MOL0     H70065   4.625   5.948   3.742 -1.3430 -0.5301 -0.3787
  520MOL0     O70066   7.894   4.839   6.605  0.2865 -0.0958 -0.3570
  520MOL0     C70067   7.876   4.917   6.692  0.1679  0.4408 -0.3490
  520MOL0     O70068   7.770   4.928   6.766 -0.1951 -0.5838 -0.0509
  520MOL0     C70069   7.670   4.829   6.748 -0.1168  0.3300 -0.9701
  520MOL0     C70070   7.570   4.846   6.653 -0.0081  0.1747  0.5022
  520MOL0     C70071   7.467   4.753   6.649 -0.1444 -0.4695 -0.0762
  520MOL0     C70072   7.460   4.642   6.741 -0.6473  0.0431 -0.2613
  520MOL0     O70073   7.350   4.553   6.748 -0.4750  0.5957  0.3210
  520MOL0     C70074   7.249   4.542   6.641  0.2979 -0.0856  0.0271
  520MOL0     C70075   7.176   4.413   6.647 -0.0252  0.0459 -0.2584
  520MOL0     C70076   7.265   4.297   6.615 -1.3450  0.2053 -0.0631
  520MOL0     C70077   7.292   4.213   6.745  0.4202 -0.3315  0.6851
  520MOL0     C70078   7.392   4.100   6.724  0.4512  0.2333 -0.1329
  520MOL0     C70079   7.316   3.986   6.664 -0.1821  0.0545  0.1151
  520MOL0     C70080   7.395   3.855   6.664 -0.4368 -0.5639 -0.0353
  520MOL0     C70081   7.474   3.809   6.796  1.1096  0.2808 -0.3753
  520MOL0     N70082   7.385   3.748   6.892  0.9952 -0.0444  0.1930
  520MOL0     C70083   7.399   3.627   6.963  0.1935 -0.5056 -0.7959
  520MOL0     C70084   7.290   3.631   7.046  0.7880  0.9186 -0.2074
  520MOL0     C70085   7.283   3.541   7.169  0.2538  0.2436 -0.6735
  520MOL0     C70086   7.219   3.402   7.140  0.1900  0.4780  0.0739
  520MOL0     C70087   7.066   3.431   7.112  1.1251 -0.3334  0.5049
  520MOL0     C70088   6.999   3.313   7.056  0.1211  0.2363 -0.3792
  520MOL0     O70089   7.003   3.313   6.913  0.7270  0.0079 -0.4862
  520MOL0     C70090   7.064   3.206   6.844 -0.4137  0.1984 -0.3690
  520MOL0     C70091   7.038   3.065   6.861  0.6304  0.4137 -0.0189
  520MOL0     C70092   7.108   2.975   6.782  0.8028 -0.2957 -0.2304
  520MOL0     C70093   7.079   2.822   6.810 -0.2432 -0.5753 -0.9239
  520MOL0     C70094   7.200   3.014   6.693 -1.0003 -0.3195 -0.9066
  520MOL0     C70095   7.277   2.921   6.614  0.0716  0.5680  0.3716
  520MOL0     O70096   7.250   2.925   6.487  0.4729 -0.3285 -0.0920
  520MOL0     C70097   7.326   2.855   6.398 -0.0655  0.2616 -0.2828
  520MOL0     C70098   7.257   2.766   6.311  0.2230  0.0596 -0.4385
  520MOL0     C70099   7.340   2.695   6.222  0.3885  0.1865  0.6160
  520MOL0     C70100   7.483   2.691   6.217  0.0853  0.0507 -0.7110
  520MOL0     O70101   7.556   2.620   6.125 -0.4875  0.2554 -1.3382
  520MOL0     C70102   7.630   2.514   6.197  0.7263  0.7792  0.2042
  520MOL0     C70103   7.556   2.372   6.225  0.5828 -1.3984 -0.4465
  520MOL0     C70104   7.519   2.283   6.106 -0.2450  0.0904 -0.4995
  520MOL0     C70105   7.380   2.319   6.045 -0.1073  0.5684 -0.1815
  520MOL0     C70106   7.344   2.243   5.912 -0.4408 -0.3273 -0.4490
  520MOL0     C70107   7.414   2.280   5.771  0.5620 -0.0175 -0.8670
  520MOL0     C70108   7.455   2.422   5.748  0.7604  1.4202  0.3788
  520MOL0     C70109   7.574   2.457   5.649 -0.1862  1.5800  1.2825
  520MOL0    Cl70110   7.725   2.371   5.686  0.0655  0.2757  0.2662
  520MOL0     C70111   7.542   2.783   6.309  0.0985 -0.5420 -0.0242
  520MOL0     C70112   7.468   2.863   6.401  0.4516 -0.0962 -0.2183
  520MOL0     O70113   7.358   2.856   6.673  0.7498  0.5039  0.1089
  520MOL0     C70114   7.229   3.151   6.680  0.4891  0.3738 -0.2634
  520MOL0     C70115   7.166   3.249   6.753  0.7277 -1.8895 -0.8312
  520MOL0     N70116   7.203   3.731   7.008  0.0006  0.4410 -0.6236
  520MOL0     N70117   7.265   3.804   6.922 -0.0797  0.0330  0.4991
  520MOL0     C70118   7.569   4.617   6.824 -0.2514 -0.5275 -0.0856
  520MOL0     C70119   7.679   4.708   6.817  0.4816 -0.4295  0.0180
  520MOL0     C70120   7.998   4.987   6.745 -1.5415 -0.7580  0.2460
  520MOL0     C70121   8.126   4.967   6.689 -0.0579  0.1457 -0.3260
  520MOL0     C70122   8.236   5.039   6.738 -0.4436 -0.6298 -0.0006
  520MOL0     C70123   8.222   5.130   6.840  0.2493 -0.2936 -0.7211
  520MOL0     O70124   8.341   5.189   6.875  0.2517 -0.8437  0.5615
  520MOL0     C70125   8.388   5.161   7.002  1.0352  1.2307  0.4242
  520MOL0     C70126   8.542   5.164   6.985  1.0817 -0.1071 -0.6172
  520MOL0     C70127   8.616   5.155   7.113  0.0098 -0.2428  0.5546
  520MOL0     C70128   8.770   5.170   7.074  0.3618  0.4540  0.4093
  520MOL0     C70129   8.840   5.200   7.206  0.3327  0.6775 -0.1761
  520MOL0     C70130   8.909   5.220   7.302 -0.4263  0.0213 -0.2286
  520MOL0     C70131   8.088   5.155   6.890  1.1897  0.6941  0.9293
  520MOL0     C70132   7.980   5.083   6.843 -0.1872 -0.6875 -0.2329
  520MOL0     H70133   7.581   4.914   6.570 -1.6474 -1.6731 -1.3711
  520MOL0     H70134   7.387   4.752   6.575 -0.6731  2.8094  0.2769
  520MOL0     H70135   7.171   4.614   6.669 -0.2408 -0.9405  0.7730
  520MOL0     H70136   7.298   4.549   6.544 -1.7863 -1.0758 -1.1743
  520MOL0     H70137   7.122   4.392   6.740 -2.0510 -1.1148 -1.6105
  520MOL0     H70138   7.094   4.425   6.575  0.8342  1.5751 -1.0290
  520MOL0     H70139   7.222   4.232   6.538  3.3908 -2.3349 -0.9701
  520MOL0     H70140   7.363   4.324   6.573 -1.1578  1.5344  1.1671
  520MOL0     H70141   7.329   4.278   6.825 -3.1793  0.0775  2.1842
  520MOL0     H70142   7.198   4.166   6.775  0.6186 -0.3437  1.2935
  520MOL0     H70143   7.483   4.132   6.673 -0.1126 -0.7974 -1.8608
  520MOL0     H70144   7.424   4.080   6.827 -3.7979 -3.6834  0.7567
  520MOL0     H70145   7.219   3.967   6.713  0.0340  1.0655  0.9835
  520MOL0     H70146   7.281   4.011   6.563 -2.1299  0.5125  0.8459
  520MOL0     H70147   7.340   3.767   6.630 -0.4477 -1.0499  1.2106
  520MOL0     H70148   7.467   3.879   6.584 -0.2205 -1.0529  0.0086
  520MOL0     H70149   7.520   3.890   6.853  2.4162 -1.0606  0.5613
  520MOL0     H70150   7.550   3.741   6.757  1.3299 -0.2934  1.0096
  520MOL0     H70151   7.478   3.551   6.965  0.5198 -0.2573  2.7870
  520MOL0     H70152   7.386   3.524   7.201  0.1713  3.8344  2.1800
  520MOL0     H70153   7.235   3.605   7.243  1.4334  2.0448 -1.3941
  520MOL0     H70154   7.233   3.338   7.228 -0.8209  1.7984  1.2336
  520MOL0     H70155   7.271   3.358   7.054 -0.2634 -2.2176  1.0791
  520MOL0     H70156   7.039   3.509   7.041 -0.4738 -0.3069  1.1184
  520MOL0     H70157   7.018   3.449   7.208  1.7995 -2.7846  1.3829
  520MOL0     H70158   6.891   3.327   7.067 -1.1019 -4.1895 -3.8652
  520MOL0     H70159   7.028   3.215   7.096  4.5237  1.1757 -0.6918
  520MOL0     H70160   6.981   3.024   6.943 -0.0109  0.1990 -0.5563
  520MOL0     H70161   6.978   2.816   6.852 -0.7661  2.5364 -1.5101
  520MOL0     H70162   7.108   2.762   6.723 -0.2711  0.3849 -1.6024
  520MOL0     H70163   7.145   2.798   6.893 -2.2263  0.4061  1.0476
  520MOL0     H70164   7.149   2.759   6.314  0.2613 -0.2903  0.4294
  520MOL0     H70165   7.301   2.612   6.163  1.5953 -1.3313  1.8585
  520MOL0     H70166   7.723   2.500   6.142 -0.0508 -3.7093 -0.3249
  520MOL0     H70167   7.668   2.552   6.293  1.0312  0.4594  0.2096
  520MOL0     H70168   7.637   2.323   6.279  1.1233 -0.3788 -0.3062
  520MOL0     H70169   7.470   2.386   6.291  1.8462 -0.7015  1.1068
  520MOL0     H70170   7.524   2.176   6.129  3.0828 -0.2731 -2.2071
  520MOL0     H70171   7.597   2.291   6.029  0.8128 -0.0308  0.5259
  520MOL0     H70172   7.300   2.293   6.114 -0.3912 -2.8228 -1.5942
  520MOL0     H70173   7.392   2.426   6.023  0.0620  0.0970 -2.7721
  520MOL0     H70174   7.235   2.240   5.899 -1.2810 -1.0724  4.5869
  520MOL0     H70175   7.361   2.137   5.933 -3.5529 -0.6819  0.7613
  520MOL0     H70176   7.505   2.219   5.773  0.0389 -1.0302  3.3236
  520MOL0     H70177   7.341   2.252   5.695  0.3274  0.3011 -0.7592
  520MOL0     H70178   7.475   2.471   5.844  1.7165  0.7504  0.5226
  520MOL0     H70179   7.368   2.470   5.701  0.1329  0.7999  0.8933
  520MOL0     H70180   7.577   2.565   5.633 -1.2440  1.4139 -0.1951
  520MOL0     H70181   7.538   2.411   5.556  2.5549 -1.7555  1.6575
  520MOL0     H70182   7.649   2.793   6.294 -0.2994  0.9013 -2.3549
  520MOL0     H70183   7.519   2.927   6.472 -1.0232  2.2943 -1.1849
  520MOL0     H70184   7.302   3.172   6.602 -0.0303 -0.9290 -1.1199
  520MOL0     H70185   7.187   3.353   6.729  2.3821 -2.1494 -0.6056
  520MOL0     H70186   7.571   4.528   6.887  3.7405  0.7401  1.9462
  520MOL0     H70187   7.765   4.682   6.878  0.0174 -3.8640 -0.5699
  520MOL0     H70188   8.138   4.900   6.604  0.4956  3.5115 -3.1510
  520MOL0     H70189   8.338   5.028   6.702  1.0258  2.2351  2.8412
  520MOL0     H70190   8.358   5.242   7.069  0.4843  2.3112 -1.0852
  520MOL0     H70191   8.340   5.065   7.022  0.8584  1.1967 -0.1604
  520MOL0     H70192   8.577   5.252   6.930  2.7034  0.7761  1.6755
  520MOL0     H70193   8.585   5.084   6.923  1.2180 -1.3911  1.0658
  520MOL0     H70194   8.598   5.060   7.164  0.0954  0.2945  1.6215
  520MOL0     H70195   8.567   5.232   7.175 -0.5956  0.5222 -0.8195
  520MOL0     H70196   8.795   5.246   7.000  3.5008  0.2881  1.1495
  520MOL0     H70197   8.812   5.077   7.034 -0.9722 -1.0989  2.4027
  520MOL0     H70198   8.976   5.254   7.379 -1.6833  1.3833  0.3059
  520MOL0     H70199   8.053   5.227   6.964 -3.0774  1.5137 -1.5477
  520MOL0     H70200   7.879   5.106   6.876  0.6901  0.7600  1.6102
  521MOL0     O70201   5.812   9.213   8.391 -0.1405 -0.0116  0.7357
  521MOL0     C70202   5.929   9.243   8.407  0.2322  0.2960 -0.2184
  521MOL0     O70203   6.023   9.143   8.448 -0.0419 -0.0664 -0.6077
  521MOL0     C70204   5.973   9.022   8.491 -0.1050  0.7792  1.5382
  521MOL0     C70205   5.977   8.975   8.617 -0.2433 -0.1324 -0.5229
  521MOL0     C70206   5.936   8.849   8.663  0.1369  0.8119  0.3186
  521MOL0     C70207   5.873   8.764   8.571 -0.6030 -1.1661  0.5932
  521MOL0     O70208   5.834   8.637   8.611  0.0292 -0.4840 -0.0008
  521MOL0     C70209   5.711   8.587   8.567 -0.1888 -0.0152  0.3018
  521MOL0     C70210   5.712   8.431   8.556  0.8645  0.3286  0.0690
  521MOL0     C70211   5.565   8.388   8.509  0.5177 -0.3893  0.4586
  521MOL0     C70212   5.581   8.252   8.435 -0.1772  0.6357 -0.6447
  521MOL0     C70213   5.456   8.191   8.371  0.7392 -0.5041  0.0186
  521MOL0     C70214   5.488   8.054   8.310 -0.1812  0.0233 -0.2808
  521MOL0     C70215   5.350   8.018   8.239  0.2589  0.2097 -0.3040
  521MOL0     C70216   5.241   7.969   8.337 -0.4406 -0.6971  0.4781
  521MOL0     N70217   5.132   7.901   8.272 -0.2645  0.1400  0.0810
  521MOL0     C70218   5.120   7.762   8.282  0.7654  0.4866  0.9422
  521MOL0     C70219   4.995   7.738   8.225  0.0817 -0.4392  0.4809
  521MOL0     C70220   4.922   7.612   8.214 -0.1423  0.0590 -0.3085
  521MOL0     C70221   4.860   7.581   8.070 -0.1217  0.0130 -0.6366
  521MOL0     C70222   4.727   7.661   8.053 -0.5046  0.6515 -0.7018
  521MOL0     C70223   4.600   7.586   8.117  0.3914  0.4174  0.0577
  521MOL0     O70224   4.578   7.454   8.064 -0.2064 -0.3083 -0.3681
  521MOL0     C70225   4.449   7.413   8.041  0.0481 -0.1006  0.2663
  521MOL0     C70226   4.362   7.483   7.955 -0.0745 -0.3988 -0.1905
  521MOL0     C70227   4.225   7.462   7.956  0.1330 -0.0286 -0.9119
  521MOL0     C70228   4.142   7.536   7.846 -1.1895 -0.0300 -0.2229
  521MOL0     C70229   4.172   7.372   8.056  0.6149 -0.2577  0.8232
  521MOL0     C70230   4.026   7.335   8.066  0.2216 -1.2993 -0.2333
  521MOL0     O70231   3.984   7.290   8.188 -0.4871 -0.0351 -0.8266
  521MOL0     C70232   3.858   7.273   8.228  0.0735 -0.3955  0.0716
  521MOL0     C70233   3.825   7.311   8.355 -0.0591  0.1750 -0.2792
  521MOL0     C70234   3.700   7.297   8.417  0.6574 -0.5811  0.1311
  521MOL0     C70235   3.598   7.233   8.341  0.6850 -0.0981  0.3019
  521MOL0     O70236   3.466   7.242   8.372  0.3351 -0.2202  0.3067
  521MOL0     C70237   3.418   7.264   8.508  0.3951  0.0208 -0.8393
  521MOL0     C70238   3.267   7.233   8.520  0.3074 -0.8253  0.0725
  521MOL0     C70239   3.184   7.353   8.455  0.4298 -0.3779  0.3983
  521MOL0     C70240   3.039   7.338   8.507  0.4853 -0.5688 -0.3702
  521MOL0     C70241   2.941   7.458   8.492  0.5163  0.3500 -1.6143
  521MOL0     C70242   2.979   7.534   8.354 -0.0089 -0.2453 -0.6061
  521MOL0     C70243   2.878   7.653   8.329  0.0756  0.2910  0.4327
  521MOL0     C70244   2.892   7.761   8.435  0.3143  0.3759  0.8587
  521MOL0    Cl70245   3.059   7.838   8.417  0.0921 -0.0330 -0.5515
  521MOL0     C70246   3.627   7.199   8.210  0.1547 -0.5914  0.5176
  521MOL0     C70247   3.750   7.220   8.149  0.2381 -0.1839 -0.5983
  521MOL0     O70248   3.953   7.348   7.969 -0.5143  0.4975 -0.9223
  521MOL0     C70249   4.256   7.298   8.138  0.4006 -0.3034 -0.7951
  521MOL0     C70250   4.390   7.324   8.130 -0.6650 -0.6256 -0.0176
  521MOL0     N70251   4.948   7.862   8.175  0.5144  0.4493  0.4860
  521MOL0     N70252   5.032   7.953   8.193  0.3306  0.7740  0.5671
  521MOL0     C70253   5.879   8.803   8.434  0.8772  0.0213  0.5430
  521MOL0     C70254   5.928   8.934   8.392  0.0792 -0.1989 -0.0673
  521MOL0     C70255   5.983   9.382   8.409  0.8916 -0.5408  0.3795
  521MOL0     C70256   6.122   9.398   8.401 -0.5407  0.1365  0.0085
  521MOL0     C70257   6.189   9.521   8.409  0.2901 -0.0437  0.1712
  521MOL0     C70258   6.112   9.638   8.403  0.2611  0.9616  0.0439
  521MOL0     O70259   6.155   9.763   8.395  0.1914 -0.1813  0.3442
  521MOL0     C70260   6.257   9.786   8.302  0.4103 -0.2215 -0.3487
  521MOL0     C70261   6.260   9.928   8.275 -0.3389  0.2788 -0.6616
  521MOL0     C70262   6.395   9.969   8.208 -0.5690  0.1267 -0.1771
  521MOL0     C70263   6.416  10.117   8.150 -0.0363 -0.8043  0.0842
  521MOL0     C70264   6.518  10.134   8.051 -0.0160  0.8509 -0.1130
  521MOL0     C70265   6.586  10.128   7.945  0.3887  0.5525 -0.8499
  521MOL0     C70266   5.970   9.625   8.401 -0.3012 -0.2902 -1.0378
  521MOL0     C70267   5.908   9.496   8.405  0.3712 -0.7789 -0.2479
  521MOL0     H70268   6.029   9.034   8.692 -0.1348 -2.0235  0.9708
  521MOL0     H70269   5.923   8.817   8.766 -1.4353 -3.4674 -1.0271
  521MOL0     H70270   5.642   8.618   8.646 -0.7588  2.4669 -1.0680
  521MOL0     H70271   5.686   8.627   8.468  0.8814 -2.3628 -1.0010
  521MOL0     H70272   5.789   8.405   8.482  2.1427  2.0150  0.7461
  521MOL0     H70273   5.738   8.376   8.647  0.4661 -3.4603 -1.9074
  521MOL0     H70274   5.508   8.350   8.595 -1.9525 -3.2734 -2.2265
  521MOL0     H70275   5.516   8.470   8.457  2.2997  0.7837  0.5563
  521MOL0     H70276   5.661   8.265   8.361  2.0671  1.1594  1.7357
  521MOL0     H70277   5.613   8.175   8.505 -2.3892 -1.0287 -1.3519
  521MOL0     H70278   5.387   8.163   8.451  1.7500 -1.2964  0.6587
  521MOL0     H70279   5.416   8.263   8.301  1.3372  1.0656  1.2315
  521MOL0     H70280   5.566   8.044   8.235 -0.1627  0.5278 -0.3295
  521MOL0     H70281   5.512   7.980   8.388  0.0081 -0.2709 -0.6139
  521MOL0     H70282   5.314   8.109   8.190  1.5919  1.1240  0.3604
  521MOL0     H70283   5.369   7.939   8.166 -1.3072 -1.2275  0.7651
  521MOL0     H70284   5.211   8.054   8.397 -0.2561  1.0529 -1.7624
  521MOL0     H70285   5.283   7.894   8.405 -1.8400 -0.6964  1.3747
  521MOL0     H70286   5.186   7.688   8.327  0.1640 -0.6189  0.0376
  521MOL0     H70287   4.992   7.529   8.225 -0.2716 -0.2239 -1.4736
  521MOL0     H70288   4.849   7.600   8.295 -0.7454  0.5177 -0.7803
  521MOL0     H70289   4.854   7.473   8.055  2.9453 -0.3251 -0.2211
  521MOL0     H70290   4.932   7.627   8.001 -2.2091  1.2369 -2.1198
  521MOL0     H70291   4.705   7.674   7.946  0.1374 -1.1347 -1.0896
  521MOL0     H70292   4.756   7.757   8.096  1.9426  0.3570 -1.5346
  521MOL0     H70293   4.509   7.638   8.088  0.1631 -1.2248 -2.5154
  521MOL0     H70294   4.611   7.568   8.224  0.9220  1.3288  0.1669
  521MOL0     H70295   4.402   7.561   7.891  3.6262 -0.9703  1.2198
  521MOL0     H70296   4.202   7.575   7.763  1.4109  1.6621  2.2237
  521MOL0     H70297   4.072   7.465   7.802 -1.5196 -0.0765  0.3662
  521MOL0     H70298   4.083   7.618   7.888 -0.9460 -0.1796  0.4273
  521MOL0     H70299   3.891   7.365   8.422 -0.1527  0.8987 -0.7500
  521MOL0     H70300   3.670   7.326   8.517  0.0556  0.4514 -0.3300
  521MOL0     H70301   3.479   7.202   8.575  0.2808 -1.1132 -1.7566
  521MOL0     H70302   3.426   7.367   8.545 -2.6701 -0.0200  0.1947
  521MOL0     H70303   3.240   7.137   8.476 -2.1500 -0.6934  1.1309
  521MOL0     H70304   3.239   7.216   8.625  1.7164 -1.7334  0.3422
  521MOL0     H70305   3.181   7.347   8.346 -2.5519 -2.1637  0.4603
  521MOL0     H70306   3.238   7.443   8.484  2.9544 -0.7311 -2.6939
  521MOL0     H70307   2.999   7.251   8.453 -0.3187  0.0758 -0.8390
  521MOL0     H70308   3.027   7.315   8.613  1.2165 -1.4124 -0.4578
  521MOL0     H70309   2.955   7.523   8.579  1.0019 -1.4788 -0.2744
  521MOL0     H70310   2.836   7.430   8.484  0.4737  0.6233 -2.0591
  521MOL0     H70311   3.083   7.566   8.354 -0.3178  0.8383  0.5435
  521MOL0     H70312   2.959   7.462   8.274 -0.1269 -0.1858 -0.6300
  521MOL0     H70313   2.774   7.621   8.324 -0.7164  2.3704  2.0690
  521MOL0     H70314   2.898   7.708   8.236  2.8567 -2.8495 -1.0156
  521MOL0     H70315   2.861   7.713   8.529  0.0740  0.3578  0.7713
  521MOL0     H70316   2.809   7.830   8.416 -0.2605  0.1507  2.3526
  521MOL0     H70317   3.551   7.153   8.147 -0.4752  0.3684  0.5622
  521MOL0     H70318   3.773   7.194   8.047  4.7125  1.1220 -0.1253
  521MOL0     H70319   4.225   7.224   8.211  0.3326  1.3918  0.9473
  521MOL0     H70320   4.447   7.249   8.184 -0.9690 -3.2096 -2.9542
  521MOL0     H70321   5.846   8.735   8.356 -2.3516  1.9230  0.0836
  521MOL0     H70322   5.936   8.970   8.290  3.9994 -2.0804 -0.6250
  521MOL0     H70323   6.194   9.317   8.409 -0.6048 -0.1912 -2.0866
  521MOL0     H70324   6.297   9.524   8.410  0.2857  0.3133  1.7048
  521MOL0     H70325   6.350   9.753   8.351  0.3307  2.7736  2.1709
  521MOL0     H70326   6.218   9.740   8.211 -2.2635  0.1467  0.5186
  521MOL0     H70327   6.239   9.993   8.360 -0.0606  2.8199 -2.4199
  521MOL0     H70328   6.171   9.944   8.213  1.0949 -2.0816 -3.6305
  521MOL0     H70329   6.415   9.897   8.127  1.6493 -0.4405  0.8127
  521MOL0     H70330   6.475   9.943   8.277 -0.1624 -2.2490 -1.4447
  521MOL0     H70331   6.433  10.187   8.233 -1.3449  0.9623 -1.0808
  521MOL0     H70332   6.327  10.149   8.096  1.5764  1.4355 -1.4143
  521MOL0     H70333   6.637  10.121   7.851  0.0558 -0.5027 -0.9715
  521MOL0     H70334   5.916   9.718   8.392  0.1322  0.1722  0.7281
  521MOL0     H70335   5.800   9.499   8.393  0.1266 -4.1675  0.1620
  522MOL0     O70336   1.965  10.787   5.848 -0.5961 -0.3088  0.7923
  522MOL0     C70337   1.918  10.760   5.954 -0.5421 -0.7928  0.4625
  522MOL0     O70338   1.798  10.811   6.001  0.3711 -0.4436  0.5221
  522MOL0     C70339   1.741  10.918   5.928  0.3587  1.0690 -0.2236
  522MOL0     C70340   1.740  11.041   5.981  0.1850 -1.5709  0.4851
  522MOL0     C70341   1.687  11.154   5.911  0.1561  0.3615 -0.3819
  522MOL0     C70342   1.646  11.129   5.782 -0.7707 -0.3817 -0.2032
  522MOL0     O70343   1.599  11.233   5.705 -0.1718  0.2057 -0.3201
  522MOL0     C70344   1.456  11.235   5.690 -0.2600  0.1299  0.1021
  522MOL0     C70345   1.410  11.371   5.636 -0.2431  0.0588  0.5455
  522MOL0     C70346   1.386  11.467   5.765 -0.8029  1.0943 -0.3268
  522MOL0     C70347   1.242  11.525   5.765  0.2996  0.3930 -0.7011
  522MOL0     C70348   1.236  11.639   5.875 -0.2553 -0.3106  0.1538
  522MOL0     C70349   1.096  11.708   5.868  0.0306 -0.1554 -0.3730
  522MOL0     C70350   0.978  11.654   5.958  0.4585  0.9070  0.1933
  522MOL0     C70351   0.842  11.711   5.936  1.3273 -0.0618 -1.2902
  522MOL0     N70352   0.740  11.685   6.045 -0.0185 -0.7748  0.2781
  522MOL0     C70353   0.624  11.761   6.068  0.0199  0.0609 -0.5001
  522MOL0     C70354   0.553  11.677   6.155 -0.4854 -0.1032 -0.5464
  522MOL0     C70355   0.414  11.705   6.195 -0.7948 -0.5539 -0.5833
  522MOL0     C70356   0.410  11.731   6.349 -0.9820  0.1084 -0.4529
  522MOL0     C70357   0.264  11.749   6.395  0.9185  0.2017 -1.9203
  522MOL0     C70358   0.257  11.777   6.546 -0.1215 -0.2030 -0.1911
  522MOL0     O70359   0.232  11.650   6.609  0.2550 -0.3862  0.4421
  522MOL0     C70360   0.188  11.662   6.743  0.1770 -1.4814  0.4629
  522MOL0     C70361   0.101  11.566   6.785 -0.0909  0.0590  0.3612
  522MOL0     C70362   0.055  11.557   6.913  0.7337  0.5140 -0.3384
  522MOL0     C70363  -0.020  11.426   6.967 -0.7272 -1.5398 -0.2205
  522MOL0     C70364   0.084  11.660   7.005 -0.3228  0.6598  0.1866
  522MOL0     C70365   0.044  11.670   7.148 -0.1700 -0.3536  0.3008
  522MOL0     O70366  -0.071  11.609   7.193  0.8892  0.0889  0.6789
  522MOL0     C70367  -0.129  11.663   7.309 -0.1882  0.9171  0.4075
  522MOL0     C70368  -0.190  11.785   7.313  1.1489  0.2764  0.0605
  522MOL0     C70369  -0.249  11.830   7.430  0.0071  0.8552  0.3135
  522MOL0     C70370  -0.255  11.751   7.545 -0.3299 -0.2680  0.5659
  522MOL0     O70371  -0.327  11.777   7.661  0.3086 -0.5283 -0.0515
  522MOL0     C70372  -0.409  11.894   7.684 -0.7964  0.4056 -0.3904
  522MOL0     C70373  -0.429  11.904   7.832  0.6114 -0.3966  0.9682
  522MOL0     C70374  -0.305  11.916   7.921 -0.2606 -0.0006 -0.8317
  522MOL0     C70375  -0.330  11.870   8.067  0.2311  0.1040  0.1641
  522MOL0     C70376  -0.361  11.727   8.088 -0.5979 -0.2527  0.6722
  522MOL0     C70377  -0.359  11.715   8.234  0.6948  0.1628 -0.9739
  522MOL0     C70378  -0.373  11.565   8.283  0.2829  0.0825 -0.8316
  522MOL0     C70379  -0.513  11.514   8.270 -0.0142 -0.1151  0.0725
  522MOL0    Cl70380  -0.649  11.609   8.334 -0.1216  0.4174 -0.2645
  522MOL0     C70381  -0.188  11.625   7.543 -0.9626  0.1305 -0.1602
  522MOL0     C70382  -0.118  11.586   7.429 -0.4854  0.8163 -0.0468
  522MOL0     O70383   0.116  11.751   7.214  0.3687 -0.6541 -0.0675
  522MOL0     C70384   0.171  11.765   6.956 -0.0386  0.5055 -0.0625
  522MOL0     C70385   0.221  11.770   6.826 -0.4779 -0.6365 -0.3994
  522MOL0     N70386   0.631  11.569   6.195  1.0820 -0.7474  0.1846
  522MOL0     N70387   0.739  11.582   6.125  0.6046 -0.0982 -0.5808
  522MOL0     C70388   1.620  10.996   5.741 -0.5345  1.7111 -0.3796
  522MOL0     C70389   1.663  10.883   5.814 -0.0719  0.1121  0.7360
  522MOL0     C70390   1.964  10.645   6.022  0.4901 -0.5578  0.6498
  522MOL0     C70391   1.903  10.583   6.126  0.0464 -0.4110 -0.4266
  522MOL0     C70392   1.951  10.470   6.177  0.9237 -0.0786 -0.3890
  522MOL0     C70393   2.069  10.406   6.141  0.0451  0.0270  0.2807
  522MOL0     O70394   2.118  10.282   6.181 -0.0147  0.1548 -0.0825
  522MOL0     C70395   2.063  10.224   6.304 -0.3906  0.5775 -0.4296
  522MOL0     C70396   2.122  10.084   6.344  1.2466  0.0040  0.0055
  522MOL0     C70397   2.273  10.093   6.341  0.3558  0.0969  0.3931
  522MOL0     C70398   2.332   9.954   6.350 -0.4315  0.0345 -0.4261
  522MOL0     C70399   2.319   9.902   6.489  0.0134 -0.4722 -0.4902
  522MOL0     C70400   2.317   9.885   6.615  0.1457 -0.7623  0.1030
  522MOL0     C70401   2.124  10.453   6.029 -0.4585  0.5033  0.4303
  522MOL0     C70402   2.074  10.574   5.969 -0.0885  0.1157 -0.5715
  522MOL0     H70403   1.807  11.065   6.062  3.4771 -1.2340 -2.1029
  522MOL0     H70404   1.701  11.251   5.957  0.0537 -0.4153  1.3683
  522MOL0     H70405   1.430  11.145   5.633  1.3193 -0.3615  0.1011
  522MOL0     H70406   1.408  11.217   5.787  0.6343  2.4460  1.0273
  522MOL0     H70407   1.489  11.416   5.574 -0.1259  1.7412  1.8300
  522MOL0     H70408   1.323  11.369   5.570  0.8735  0.7839 -1.0252
  522MOL0     H70409   1.400  11.413   5.859  1.3504  2.1796  0.0157
  522MOL0     H70410   1.461  11.546   5.763  1.5496 -0.9364  1.1899
  522MOL0     H70411   1.211  11.573   5.671 -2.4283 -0.0563 -0.1172
  522MOL0     H70412   1.163  11.454   5.790  0.3756  1.0230  1.5512
  522MOL0     H70413   1.269  11.597   5.970 -0.0616  0.4072  0.4109
  522MOL0     H70414   1.307  11.720   5.857  1.8123 -1.4263  2.7314
  522MOL0     H70415   1.115  11.814   5.887  0.8836 -0.4619  0.5369
  522MOL0     H70416   1.058  11.696   5.766  1.4093 -2.7114 -0.6643
  522MOL0     H70417   0.976  11.548   5.932 -1.2068  1.3915 -1.9965
  522MOL0     H70418   1.010  11.665   6.062  0.4270 -4.5491  1.0467
  522MOL0     H70419   0.804  11.673   5.841 -0.0112 -1.4581 -0.2460
  522MOL0     H70420   0.863  11.818   5.934  2.2458 -0.0318  2.4639
  522MOL0     H70421   0.594  11.858   6.030  0.0100  0.7873  1.2213
  522MOL0     H70422   0.378  11.797   6.148 -0.3983  1.2244  2.3476
  522MOL0     H70423   0.365  11.620   6.147  0.8067 -1.5450 -0.5170
  522MOL0     H70424   0.480  11.804   6.390  4.0398 -3.4109 -1.8524
  522MOL0     H70425   0.454  11.642   6.394  1.0259 -0.6370 -3.5289
  522MOL0     H70426   0.196  11.666   6.371 -3.1579  1.5709  3.1990
  522MOL0     H70427   0.217  11.835   6.347  0.2843  0.4938 -0.8124
  522MOL0     H70428   0.178  11.846   6.577 -1.4184 -2.6664  2.4946
  522MOL0     H70429   0.345  11.834   6.578 -0.1249  0.5791 -1.5151
  522MOL0     H70430   0.082  11.487   6.713  2.8417  1.3286 -2.0403
  522MOL0     H70431  -0.124  11.439   6.997 -0.1191 -1.9634  2.3515
  522MOL0     H70432  -0.017  11.342   6.897  4.8487 -1.8188 -0.1440
  522MOL0     H70433   0.029  11.373   7.050  1.3513 -2.6637 -2.0565
  522MOL0     H70434  -0.191  11.834   7.217 -1.8702  0.3472  0.0308
  522MOL0     H70435  -0.298  11.927   7.435 -0.0267  0.7991  1.0708
  522MOL0     H70436  -0.338  11.971   7.651  2.7733 -1.3839  2.4043
  522MOL0     H70437  -0.499  11.910   7.625 -2.0035  1.6666  1.6939
  522MOL0     H70438  -0.492  11.991   7.853 -0.7342 -1.0559 -0.1642
  522MOL0     H70439  -0.495  11.823   7.867  1.4903 -1.6004 -0.0804
  522MOL0     H70440  -0.279  12.020   7.904 -0.8296  0.9554  3.1246
  522MOL0     H70441  -0.229  11.844   7.889 -1.8479 -1.6222 -1.1352
  522MOL0     H70442  -0.237  11.890   8.121  0.3431 -3.3676  1.4976
  522MOL0     H70443  -0.412  11.925   8.115  0.0761 -1.1983  1.4492
  522MOL0     H70444  -0.282  11.660   8.053 -2.2440 -0.9133 -2.1166
  522MOL0     H70445  -0.456  11.698   8.042  0.3804  0.7279 -2.2271
  522MOL0     H70446  -0.267  11.754   8.279  0.6289 -1.7553  1.0187
  522MOL0     H70447  -0.445  11.762   8.283  0.8676 -1.8228  1.4564
  522MOL0     H70448  -0.361  11.553   8.391 -0.2328  0.3523 -0.7413
  522MOL0     H70449  -0.304  11.487   8.247  1.2674 -0.1527  1.3798
  522MOL0     H70450  -0.524  11.410   8.302 -1.3508 -0.7729 -2.2696
  522MOL0     H70451  -0.514  11.498   8.161  2.3479  1.0252 -0.1674
  522MOL0     H70452  -0.205  11.559   7.627 -0.4806 -1.9812 -1.6500
  522MOL0     H70453  -0.069  11.490   7.417 -0.9635  0.6561 -0.8196
  522MOL0     H70454   0.191  11.848   7.023 -0.8752 -1.7344  3.1840
  522MOL0     H70455   0.299  11.842   6.802 -1.3871  0.7224  0.5566
  522MOL0     H70456   1.562  10.996   5.649 -1.0230  3.4808 -0.1083
  522MOL0     H70457   1.638  10.787   5.769  0.1124 -0.0067  0.8851
  522MOL0     H70458   1.815  10.638   6.156  1.1860  2.1703 -1.5571
  522MOL0     H70459   1.894  10.429   6.259  1.3701 -0.3535 -0.2084
  522MOL0     H70460   2.092  10.296   6.380  0.0539 -1.5672  1.5475
  522MOL0     H70461   1.954  10.218   6.296 -0.5132 -1.4761  1.8036
  522MOL0     H70462   2.086  10.008   6.274 -1.4349  1.7161 -0.6252
  522MOL0     H70463   2.094  10.041   6.441  1.3662 -0.9849 -0.3772
  522MOL0     H70464   2.301  10.152   6.429  0.5517 -1.2682  1.2821
  522MOL0     H70465   2.309  10.143   6.251 -0.3781 -0.6706 -0.3404
  522MOL0     H70466   2.435   9.962   6.313 -1.7677  3.2251 -4.0833
  522MOL0     H70467   2.280   9.885   6.284 -4.4008  0.5899  1.7690
  522MOL0     H70468   2.314   9.884   6.722 -1.9998 -0.1531  0.0876
  522MOL0     H70469   2.214  10.399   6.003 -1.2044 -2.3922  3.0801
  522MOL0     H70470   2.114  10.611   5.875  1.0287  0.2069 -0.0770
  523MOL0     O70471   0.444   4.810   8.270  0.0299  0.6651  0.4401
  523MOL0     C70472   0.453   4.717   8.349 -0.2145 -0.0870  0.2186
  523MOL0     O70473   0.544   4.617   8.343  1.1281 -0.2962  0.1991
  523MOL0     C70474   0.624   4.615   8.230  0.3021 -0.2229 -0.9037
  523MOL0     C70475   0.581   4.539   8.114  1.2649 -0.0150 -0.8108
  523MOL0     C70476   0.658   4.531   8.003 -0.2253 -0.8111 -0.9156
  523MOL0     C70477   0.789   4.585   7.997 -0.3051 -0.0301  0.1016
  523MOL0     O70478   0.879   4.567   7.885  0.2845 -0.7217 -0.0696
  523MOL0     C70479   0.823   4.522   7.759  0.7028  1.0373 -1.2465
  523MOL0     C70480   0.941   4.500   7.669  0.8256 -0.0525 -0.3766
  523MOL0     C70481   0.900   4.423   7.546  1.0897 -0.3601 -0.0198
  523MOL0     C70482   1.022   4.417   7.458  0.2101  0.0227  0.6993
  523MOL0     C70483   1.143   4.329   7.497  0.4605 -0.1630 -0.4360
  523MOL0     C70484   1.099   4.186   7.534 -0.1321  0.1884 -0.6944
  523MOL0     C70485   1.202   4.078   7.500 -0.4461  0.2873 -0.8122
  523MOL0     C70486   1.341   4.116   7.542  0.2868 -0.4866 -0.4853
  523MOL0     N70487   1.345   4.135   7.690  0.6677  0.1333  0.0415
  523MOL0     C70488   1.405   4.242   7.756  0.7270 -0.0274  0.1820
  523MOL0     C70489   1.415   4.195   7.883 -0.3701  0.0002  0.2404
  523MOL0     C70490   1.480   4.275   7.991 -0.5619 -0.0905 -0.3317
  523MOL0     C70491   1.389   4.354   8.086  0.0091  0.5153  0.2884
  523MOL0     C70492   1.317   4.475   8.014 -0.4971  0.1867  0.5944
  523MOL0     C70493   1.214   4.540   8.105  0.5104 -0.9909  0.6674
  523MOL0     O70494   1.137   4.464   8.203  0.2097  0.3082 -0.6532
  523MOL0     C70495   1.042   4.372   8.169  0.8152 -0.7124  0.2761
  523MOL0     C70496   1.044   4.302   8.054  0.4850 -0.6219 -0.7333
  523MOL0     C70497   0.950   4.206   8.026 -0.1710  0.1935 -1.1952
  523MOL0     C70498   0.975   4.133   7.894  1.4042 -0.2335  1.5433
  523MOL0     C70499   0.845   4.180   8.115  0.8420  1.0666  0.0797
  523MOL0     C70500   0.737   4.082   8.092  1.0965 -0.0458  0.3182
  523MOL0     O70501   0.693   4.017   8.199  0.3851 -1.4316 -0.1000
  523MOL0     C70502   0.559   4.011   8.220 -0.4344 -0.7016  0.0979
  523MOL0     C70503   0.493   3.895   8.238 -0.3403 -0.3840  0.0898
  523MOL0     C70504   0.354   3.894   8.251  0.3202  0.4198  0.8520
  523MOL0     C70505   0.270   4.012   8.239  0.2498 -0.0178  0.0137
  523MOL0     O70506   0.131   4.010   8.237  0.1538  0.1367 -0.1712
  523MOL0     C70507   0.065   3.886   8.208  0.4547 -0.2193  0.7377
  523MOL0     C70508  -0.083   3.904   8.246 -0.4999  0.0791  0.4872
  523MOL0     C70509  -0.176   3.823   8.161 -0.3082 -0.1848  0.4961
  523MOL0     C70510  -0.317   3.886   8.159 -0.1810 -0.2268 -0.1057
  523MOL0     C70511  -0.395   3.848   8.034  0.1458  0.6008 -1.2193
  523MOL0     C70512  -0.442   3.701   8.060 -0.7179  0.1802 -0.9042
  523MOL0     C70513  -0.560   3.666   7.956  0.7091  0.7821 -0.1690
  523MOL0     C70514  -0.527   3.569   7.836  0.0195 -0.4306 -1.0696
  523MOL0    Cl70515  -0.495   3.404   7.911  0.2073  0.3621  0.1507
  523MOL0     C70516   0.338   4.131   8.229  0.4767 -0.0111  0.0946
  523MOL0     C70517   0.476   4.127   8.220 -1.3976 -0.3636  0.3065
  523MOL0     O70518   0.685   4.089   7.981  0.1312  0.4177  0.6248
  523MOL0     C70519   0.848   4.253   8.242 -0.1741  0.8388  0.5316
  523MOL0     C70520   0.944   4.350   8.268 -1.5701 -0.2750 -0.4668
  523MOL0     N70521   1.375   4.062   7.901  1.2808  0.0875  0.3410
  523MOL0     N70522   1.339   4.028   7.778  0.6688  0.2364 -0.1938
  523MOL0     C70523   0.846   4.644   8.108 -0.2174  0.8075 -0.4370
  523MOL0     C70524   0.761   4.662   8.224 -0.1478  0.1282  0.3481
  523MOL0     C70525   0.374   4.722   8.480  0.0409  0.6724 -0.7074
  523MOL0     C70526   0.271   4.811   8.490  0.4237  0.3870 -0.7993
  523MOL0     C70527   0.201   4.829   8.612 -0.4731 -1.4261 -0.2441
  523MOL0     C70528   0.239   4.753   8.731 -0.1100  0.6021 -0.1054
  523MOL0     O70529   0.187   4.762   8.856 -0.3895  0.4289  0.5991
  523MOL0     C70530   0.068   4.832   8.882 -0.5892  0.7398  0.2996
  523MOL0     C70531   0.076   4.984   8.921  0.1920 -0.8406 -0.5904
  523MOL0     C70532   0.188   4.998   9.036 -0.1576 -0.2199  0.2055
  523MOL0     C70533   0.218   5.141   9.068  0.3989 -0.2441 -0.7170
  523MOL0     C70534   0.103   5.201   9.142  0.1206  1.2521 -0.3319
  523MOL0     C70535  -0.003   5.236   9.183 -0.9061 -0.6167 -1.3341
  523MOL0     C70536   0.327   4.656   8.701 -0.0568  0.1816  0.1749
  523MOL0     C70537   0.399   4.632   8.586 -0.0304  0.0993 -0.0880
  523MOL0     H70538   0.480   4.499   8.116  1.5782 -0.8890  1.9789
  523MOL0     H70539   0.629   4.470   7.918 -1.6199  1.3771 -2.1094
  523MOL0     H70540   0.783   4.421   7.769  0.7835  1.0423 -0.8218
  523MOL0     H70541   0.747   4.581   7.706 -0.4152  0.2203 -0.6077
  523MOL0     H70542   0.992   4.593   7.640  2.0004 -1.0259 -1.5817
  523MOL0     H70543   1.015   4.435   7.717  0.5512  0.1608  0.3472
  523MOL0     H70544   0.845   4.331   7.571  1.9327 -1.7509 -2.8334
  523MOL0     H70545   0.829   4.486   7.491  3.9731  1.7673 -1.5571
  523MOL0     H70546   0.974   4.389   7.363  0.5473 -1.4622  0.9416
  523MOL0     H70547   1.057   4.520   7.446 -1.0786  0.2948 -1.1781
  523MOL0     H70548   1.210   4.333   7.411  2.2807  3.0390  0.9401
  523MOL0     H70549   1.191   4.381   7.581 -0.3350 -1.8165  1.1203
  523MOL0     H70550   1.079   4.168   7.640 -0.0800 -0.9269 -0.8675
  523MOL0     H70551   1.003   4.155   7.493 -1.7586  0.1877  2.7449
  523MOL0     H70552   1.165   3.989   7.552  0.6071  0.9046  1.0787
  523MOL0     H70553   1.205   4.049   7.395  2.1270 -0.9326 -0.4785
  523MOL0     H70554   1.375   4.205   7.488  1.8019 -0.2089  0.8506
  523MOL0     H70555   1.404   4.027   7.530  1.9957 -0.5019  5.4682
  523MOL0     H70556   1.438   4.336   7.713 -0.4110  0.5070  0.4279
  523MOL0     H70557   1.542   4.210   8.053 -2.1677  0.1002  1.5485
  523MOL0     H70558   1.541   4.355   7.947  2.4385 -0.3800  2.8672
  523MOL0     H70559   1.456   4.390   8.165 -1.0221  1.1506  0.8809
  523MOL0     H70560   1.315   4.290   8.135  0.3183  0.8842  1.2519
  523MOL0     H70561   1.276   4.446   7.917  0.0190 -0.2084  0.4921
  523MOL0     H70562   1.395   4.545   7.985  1.9997 -2.8076 -0.4830
  523MOL0     H70563   1.144   4.591   8.040 -0.5789 -1.4728  1.4298
  523MOL0     H70564   1.262   4.610   8.175 -2.2347  1.5387  0.1871
  523MOL0     H70565   1.114   4.328   7.976  2.4793  0.0596  1.1846
  523MOL0     H70566   0.900   4.055   7.887  0.5225  0.4485  2.8984
  523MOL0     H70567   0.958   4.212   7.820 -0.7022 -1.7822  0.2565
  523MOL0     H70568   1.076   4.096   7.875  0.5121 -0.8012 -3.1344
  523MOL0     H70569   0.562   3.811   8.238 -0.0685 -0.2103  2.3716
  523MOL0     H70570   0.308   3.798   8.272 -0.5709  0.8786  1.0732
  523MOL0     H70571   0.077   3.859   8.102  3.3530 -0.5918  1.0724
  523MOL0     H70572   0.106   3.796   8.253  0.7156  0.7941  2.6282
  523MOL0     H70573  -0.083   3.881   8.353  2.1394 -2.9543 -0.0050
  523MOL0     H70574  -0.111   4.010   8.238 -1.7996 -0.3108 -0.4892
  523MOL0     H70575  -0.173   3.719   8.195  0.7208 -0.7979 -1.3272
  523MOL0     H70576  -0.144   3.822   8.057 -1.2405 -1.5105  0.1948
  523MOL0     H70577  -0.366   3.872   8.255  1.9407  1.1786  1.2891
  523MOL0     H70578  -0.316   3.995   8.147 -0.5929 -0.4678 -3.3809
  523MOL0     H70579  -0.343   3.860   7.938  1.8740  0.2340 -0.3600
  523MOL0     H70580  -0.485   3.910   8.036 -0.2671 -0.0219  0.5289
  523MOL0     H70581  -0.357   3.633   8.052  1.5087  2.5989  0.7202
  523MOL0     H70582  -0.465   3.694   8.166  2.2547  1.8877 -0.0346
  523MOL0     H70583  -0.597   3.763   7.922 -3.1888 -0.3758  0.3739
  523MOL0     H70584  -0.644   3.618   8.006 -0.7550  0.3270 -2.8742
  523MOL0     H70585  -0.446   3.606   7.772 -1.6872  2.0147 -1.9914
  523MOL0     H70586  -0.606   3.556   7.761  0.6997  1.3798 -2.1767
  523MOL0     H70587   0.283   4.224   8.221 -2.5562 -1.5541  1.5770
  523MOL0     H70588   0.528   4.219   8.196 -1.1780  0.7421  4.2920
  523MOL0     H70589   0.769   4.234   8.314 -0.7608 -1.2750 -0.5683
  523MOL0     H70590   0.944   4.408   8.359  0.6980 -0.3734 -0.3683
  523MOL0     H70591   0.951   4.670   8.118  0.2444 -1.0923  0.0364
  523MOL0     H70592   0.808   4.714   8.307 -0.1483  0.2480  0.2737
  523MOL0     H70593   0.242   4.862   8.398 -4.0921 -2.4000 -1.2587
  523MOL0     H70594   0.125   4.906   8.616 -1.9011 -2.7617 -0.7704
  523MOL0     H70595  -0.002   4.811   8.801  1.0169 -3.5435 -0.2506
  523MOL0     H70596   0.022   4.779   8.967 -0.6045  1.3225  0.6599
  523MOL0     H70597  -0.016   5.033   8.953  0.0529 -2.5029  1.8227
  523MOL0     H70598   0.106   5.035   8.829 -0.3152  0.7524  0.1125
  523MOL0     H70599   0.286   4.954   9.017  0.8658  0.1254  3.8849
  523MOL0     H70600   0.157   4.950   9.129 -0.7672 -1.4639 -0.5965
  523MOL0     H70601   0.220   5.201   8.977 -0.4123 -0.5913 -0.9772
  523MOL0     H70602   0.308   5.157   9.128 -1.3753  1.8363  1.6775
  523MOL0     H70603  -0.088   5.283   9.228  0.7901  2.0227 -0.6923
  523MOL0     H70604   0.337   4.591   8.787 -2.7941 -1.7080 -0.8135
  523MOL0     H70605   0.473   4.553   8.580  0.0387  0.2200 -1.1126
  524MOL0     O70606   8.068   5.227   4.916 -0.0246 -0.4475 -0.3537
  524MOL0     C70607   8.088   5.276   5.020  0.5618 -0.5642 -0.3201
  524MOL0     O70608   8.027   5.381   5.071 -1.1750  0.2009  0.5679
  524MOL0     C70609   7.924   5.432   5.003  0.2178 -0.1086 -0.2957
  524MOL0     C70610   7.793   5.372   4.976  0.0413  0.1356 -0.4849
  524MOL0     C70611   7.700   5.435   4.892 -0.6774 -0.7998  0.4865
  524MOL0     C70612   7.727   5.567   4.850 -0.3381  0.2460 -0.6731
  524MOL0     O70613   7.652   5.660   4.773 -0.1778  0.5199 -0.6068
  524MOL0     C70614   7.516   5.661   4.803  0.7051  0.2996 -0.0805
  524MOL0     C70615   7.443   5.784   4.728  0.9571  2.2519 -0.2658
  524MOL0     C70616   7.459   5.772   4.576 -0.0075 -0.3266 -0.2958
  524MOL0     C70617   7.425   5.892   4.494  0.0579 -0.8380  0.1131
  524MOL0     C70618   7.477   5.889   4.352  0.3457  0.2326 -0.0591
  524MOL0     C70619   7.407   5.779   4.262  0.8114 -0.5019  0.8473
  524MOL0     C70620   7.502   5.752   4.136  0.4354  0.3699  0.2950
  524MOL0     C70621   7.528   5.873   4.048 -0.5159 -0.5399  0.4422
  524MOL0     N70622   7.408   5.913   3.966  0.1069  0.1230  0.0715
  524MOL0     C70623   7.386   5.869   3.838  0.4783 -0.0115 -0.1726
  524MOL0     C70624   7.275   5.937   3.798  0.7393  0.4238 -1.1793
  524MOL0     C70625   7.187   5.890   3.680  0.5317  0.4815  0.3298
  524MOL0     C70626   7.048   5.843   3.730  1.0602 -0.2129  0.4501
  524MOL0     C70627   6.948   5.831   3.619  0.5228 -0.4985  0.9301
  524MOL0     C70628   6.994   5.760   3.497 -0.0535 -0.6847 -0.0333
  524MOL0     O70629   7.008   5.864   3.387  0.1701  0.2710 -1.0651
  524MOL0     C70630   6.915   5.879   3.284 -0.0691 -0.7327  0.6077
  524MOL0     C70631   6.916   6.009   3.239  0.5466 -0.0243  0.3060
  524MOL0     C70632   6.846   6.046   3.126  0.2826 -0.0448  0.3875
  524MOL0     C70633   6.862   6.185   3.071  0.4303  0.9274  0.2240
  524MOL0     C70634   6.772   5.947   3.056  0.4974  1.3662  0.4500
  524MOL0     C70635   6.696   5.965   2.922 -0.8753  0.3560  0.3622
  524MOL0     O70636   6.655   5.848   2.863  0.2897  0.8669  0.2930
  524MOL0     C70637   6.626   5.858   2.731  0.2223  0.0467 -0.1605
  524MOL0     C70638   6.493   5.829   2.693 -0.2918  0.1775  0.0101
  524MOL0     C70639   6.453   5.848   2.558 -0.1245  0.1090 -0.4731
  524MOL0     C70640   6.545   5.900   2.465  0.0738  0.0605 -0.7493
  524MOL0     O70641   6.517   5.926   2.329  0.8501 -0.5589 -0.5441
  524MOL0     C70642   6.379   5.948   2.292  0.4990 -0.7974 -0.0863
  524MOL0     C70643   6.384   5.991   2.144  0.8199  0.5554  0.1369
  524MOL0     C70644   6.246   6.020   2.097 -0.0756 -0.2894  0.4625
  524MOL0     C70645   6.212   5.975   1.953  0.6914 -0.7245  0.5136
  524MOL0     C70646   6.070   6.020   1.898  1.0824  0.5144 -0.6435
  524MOL0     C70647   5.962   5.918   1.953  1.3807  0.1522 -0.3657
  524MOL0     C70648   5.838   5.947   1.867  0.3308 -0.4373 -0.4837
  524MOL0     C70649   5.709   5.877   1.924 -0.5569  0.0758  1.6284
  524MOL0    Cl70650   5.745   5.702   1.953  0.3535 -0.2503 -0.1918
  524MOL0     C70651   6.677   5.915   2.506 -0.0737  0.0133  0.6610
  524MOL0     C70652   6.717   5.898   2.636 -0.0965  0.3168  0.6567
  524MOL0     O70653   6.667   6.071   2.880  0.0277 -0.9370  0.0074
  524MOL0     C70654   6.766   5.817   3.108  0.9184 -0.1637  0.8741
  524MOL0     C70655   6.840   5.783   3.218 -1.3889  0.1163  0.6258
  524MOL0     N70656   7.236   6.022   3.898  0.2211  0.2167  0.0651
  524MOL0     N70657   7.314   6.013   3.996  0.2644 -0.3063  0.1866
  524MOL0     C70658   7.854   5.630   4.887  1.0248 -0.1255 -0.3565
  524MOL0     C70659   7.943   5.565   4.966  0.3480  0.5452 -0.1039
  524MOL0     C70660   8.202   5.218   5.107 -0.2746 -0.4597 -0.2665
  524MOL0     C70661   8.310   5.130   5.074  0.3015  0.2298  0.3808
  524MOL0     C70662   8.407   5.083   5.164 -0.1132  0.1731 -0.4268
  524MOL0     C70663   8.392   5.127   5.296 -0.7378  0.6059 -0.6054
  524MOL0     O70664   8.478   5.088   5.404 -0.0721 -0.6247  0.1299
  524MOL0     C70665   8.600   5.152   5.387 -0.3227  0.3512 -0.4409
  524MOL0     C70666   8.672   5.210   5.509  0.4636 -0.3129 -0.3881
  524MOL0     C70667   8.732   5.099   5.591 -0.0888 -0.5656 -0.6508
  524MOL0     C70668   8.622   5.037   5.679 -0.8514 -0.0201  0.0416
  524MOL0     C70669   8.605   5.114   5.804  0.2562 -0.7104 -0.3915
  524MOL0     C70670   8.585   5.198   5.891  0.2695 -0.5956  0.8859
  524MOL0     C70671   8.290   5.212   5.329  0.6536 -0.0783 -0.5610
  524MOL0     C70672   8.200   5.267   5.240 -0.3879  0.4035 -0.5466
  524MOL0     H70673   7.754   5.287   5.031 -0.8380  1.9350  1.8801
  524MOL0     H70674   7.603   5.394   4.864 -0.2549  0.1701 -2.9271
  524MOL0     H70675   7.473   5.570   4.760 -0.8173  1.5173 -1.2675
  524MOL0     H70676   7.502   5.660   4.911  0.9916 -0.6736 -0.0427
  524MOL0     H70677   7.336   5.780   4.748  0.4832  0.3201 -2.7109
  524MOL0     H70678   7.479   5.880   4.767  2.2664  1.2190  1.2363
  524MOL0     H70679   7.563   5.744   4.557  1.0628  1.4535  2.2746
  524MOL0     H70680   7.401   5.686   4.542  1.0249 -1.0514 -0.2844
  524MOL0     H70681   7.316   5.895   4.497  0.0524 -1.0210  0.1268
  524MOL0     H70682   7.461   5.988   4.533  0.9209  0.0342 -2.5532
  524MOL0     H70683   7.458   5.993   4.323  0.7724  0.4185  0.3070
  524MOL0     H70684   7.587   5.891   4.354  0.3725  1.0580 -1.3335
  524MOL0     H70685   7.386   5.689   4.321 -0.3800  0.3024  1.7029
  524MOL0     H70686   7.311   5.828   4.247  1.8477  0.7509 -2.4414
  524MOL0     H70687   7.600   5.715   4.166  1.6005  1.7402 -1.6038
  524MOL0     H70688   7.451   5.672   4.082 -0.9372 -1.6907  4.2599
  524MOL0     H70689   7.601   5.842   3.972  0.1947 -0.0042  0.8954
  524MOL0     H70690   7.579   5.957   4.096 -2.6092  2.1785 -1.8217
  524MOL0     H70691   7.437   5.789   3.785 -1.5468 -0.0509 -2.2248
  524MOL0     H70692   7.182   5.972   3.608 -0.3295 -0.3449 -0.5694
  524MOL0     H70693   7.240   5.808   3.631 -0.4737 -1.0995  1.7613
  524MOL0     H70694   7.006   5.917   3.799 -0.6262 -0.6857 -0.0143
  524MOL0     H70695   7.059   5.745   3.776 -0.7229 -1.3416 -1.3463
  524MOL0     H70696   6.902   5.926   3.592 -2.6206 -1.9381  0.8153
  524MOL0     H70697   6.868   5.766   3.655  2.5624 -3.2216  0.9377
  524MOL0     H70698   6.915   5.690   3.468 -1.9340  0.8045  1.2590
  524MOL0     H70699   7.080   5.693   3.508  0.1706 -0.1304  2.0049
  524MOL0     H70700   6.988   6.078   3.283 -1.4945  1.1626  1.9693
  524MOL0     H70701   6.880   6.244   3.161 -2.0060  3.1813 -0.6627
  524MOL0     H70702   6.943   6.205   3.001 -0.4702 -1.4798 -1.6704
  524MOL0     H70703   6.768   6.220   3.029 -0.4908 -0.7577  0.7705
  524MOL0     H70704   6.408   5.802   2.755  0.5719 -1.4067  0.5615
  524MOL0     H70705   6.349   5.824   2.535 -0.3244  0.7554 -0.2859
  524MOL0     H70706   6.319   5.859   2.309 -2.3546  0.5072 -2.4235
  524MOL0     H70707   6.330   6.018   2.360 -0.7074 -2.9298  1.3526
  524MOL0     H70708   6.439   6.085   2.129 -1.7834  2.4547  1.6166
  524MOL0     H70709   6.421   5.907   2.086 -1.9931 -2.0722  1.8358
  524MOL0     H70710   6.227   6.128   2.101  1.7143  0.0114  2.3433
  524MOL0     H70711   6.173   5.967   2.160 -1.3234  1.8279  0.8963
  524MOL0     H70712   6.287   6.008   1.881  1.3817  0.1153  1.6009
  524MOL0     H70713   6.212   5.866   1.947  1.4069 -0.6458 -1.4873
  524MOL0     H70714   6.072   6.005   1.789  0.2445 -1.3960 -0.4293
  524MOL0     H70715   6.071   6.127   1.918  1.3095  0.7444 -1.8129
  524MOL0     H70716   5.996   5.815   1.940  0.5604 -0.1330 -0.2463
  524MOL0     H70717   5.952   5.941   2.060  3.7929  2.2175 -0.4645
  524MOL0     H70718   5.867   5.894   1.776  0.5026  3.6095 -3.0187
  524MOL0     H70719   5.825   6.055   1.862 -1.1708 -0.5658  0.1413
  524MOL0     H70720   5.625   5.897   1.857 -2.1858 -0.0598  3.5153
  524MOL0     H70721   5.682   5.925   2.019 -0.7901  0.4686  1.3703
  524MOL0     H70722   6.752   5.922   2.429  0.9821  0.0657  1.6561
  524MOL0     H70723   6.823   5.912   2.657  0.0213 -1.9729  1.8648
  524MOL0     H70724   6.709   5.735   3.066 -2.6612  4.1266 -3.7863
  524MOL0     H70725   6.852   5.681   3.254  0.8750  0.5001  1.1370
  524MOL0     H70726   7.874   5.734   4.862 -0.4170  0.3215  0.2413
  524MOL0     H70727   8.035   5.622   4.974 -0.3962  1.8476 -0.6553
  524MOL0     H70728   8.305   5.090   4.973  1.6369 -1.2775  0.8868
  524MOL0     H70729   8.485   5.017   5.128  1.0880 -0.4318  2.9274
  524MOL0     H70730   8.648   5.066   5.339 -3.3498 -0.7159 -1.8372
  524MOL0     H70731   8.593   5.228   5.309  3.4982  1.4744  0.1267
  524MOL0     H70732   8.591   5.261   5.563  0.8594  0.1487 -0.2238
  524MOL0     H70733   8.755   5.275   5.480  2.8883 -2.8819  0.3675
  524MOL0     H70734   8.811   5.142   5.653 -0.5782  0.2246 -0.5477
  524MOL0     H70735   8.769   5.027   5.517  3.1055  1.5164 -1.3197
  524MOL0     H70736   8.640   4.929   5.682  1.0753  0.2712  0.0871
  524MOL0     H70737   8.522   5.054   5.639 -0.4204  0.5275 -0.8155
  524MOL0     H70738   8.575   5.270   5.969 -0.8000 -2.1891  2.2747
  524MOL0     H70739   8.287   5.250   5.431  1.4815  0.2697 -0.6565
  524MOL0     H70740   8.115   5.326   5.273 -1.7551 -1.9889  0.4593
  525MOL0     O70741   1.013   9.293   9.905 -0.6040 -0.2317 -0.5301
  525MOL0     C70742   1.112   9.276   9.980 -0.7338  1.1854 -0.3114
  525MOL0     O70743   1.245   9.290   9.935 -0.3785  0.9168 -0.5881
  525MOL0     C70744   1.271   9.272   9.804 -0.3008 -0.9202 -0.0521
  525MOL0     C70745   1.233   9.147   9.755 -0.0876 -0.0561 -0.3574
  525MOL0     C70746   1.261   9.116   9.624  0.2639 -0.3068  0.2999
  525MOL0     C70747   1.329   9.208   9.543  0.6529 -0.6372 -0.9163
  525MOL0     O70748   1.370   9.174   9.421  0.1547 -0.1999  0.0016
  525MOL0     C70749   1.312   9.053   9.353 -0.9378 -0.1959  0.2108
  525MOL0     C70750   1.389   9.055   9.220  0.0813 -0.8180 -0.5394
  525MOL0     C70751   1.361   8.930   9.134  0.4225  0.7692  0.3767
  525MOL0     C70752   1.473   8.921   9.027  0.0514  0.0751  0.4102
  525MOL0     C70753   1.446   8.811   8.923 -0.4402  0.1587 -0.5845
  525MOL0     C70754   1.579   8.814   8.834  0.0224  1.0115  0.2206
  525MOL0     C70755   1.564   8.701   8.716 -0.1470 -0.7442 -1.4196
  525MOL0     C70756   1.680   8.738   8.625 -0.7433  0.5382  0.3140
  525MOL0     N70757   1.678   8.636   8.516 -0.9069  0.1515 -0.2917
  525MOL0     C70758   1.674   8.498   8.527  1.4170  0.3822  0.4442
  525MOL0     C70759   1.664   8.457   8.396 -0.5613  0.6353  0.1365
  525MOL0     C70760   1.653   8.319   8.337  0.6733  0.2035  0.0871
  525MOL0     C70761   1.786   8.241   8.315  0.3128 -0.1257 -1.1007
  525MOL0     C70762   1.754   8.095   8.277  0.4905  1.2517  1.0940
  525MOL0     C70763   1.881   8.007   8.295 -0.8461  0.9083 -0.4504
  525MOL0     O70764   1.990   8.046   8.206 -0.4480 -0.3362 -0.8618
  525MOL0     C70765   2.108   7.969   8.198 -0.0557 -0.2566 -0.5144
  525MOL0     C70766   2.205   8.008   8.104  0.0557  0.2785  0.7989
  525MOL0     C70767   2.320   7.939   8.072  0.3915  0.2222 -0.3164
  525MOL0     C70768   2.418   7.991   7.962  0.3936 -0.6394 -0.1149
  525MOL0     C70769   2.354   7.828   8.150 -0.3829 -0.3317 -0.2443
  525MOL0     C70770   2.483   7.760   8.127  0.1246  1.1617  0.2096
  525MOL0     O70771   2.482   7.687   8.004 -0.2406  0.2690 -0.2978
  525MOL0     C70772   2.602   7.631   7.977  0.6440  0.6896 -0.4119
  525MOL0     C70773   2.633   7.517   8.051  0.5004 -0.5041 -0.3435
  525MOL0     C70774   2.751   7.452   8.027 -0.6993  0.5292  0.6258
  525MOL0     C70775   2.827   7.488   7.915 -0.0789 -0.5726 -0.3216
  525MOL0     O70776   2.946   7.431   7.891  0.0382  0.6335  0.2888
  525MOL0     C70777   2.972   7.292   7.934 -0.4353  0.0257 -0.1548
  525MOL0     C70778   3.111   7.275   7.882 -0.7200  0.0103 -0.9806
  525MOL0     C70779   3.215   7.364   7.948  0.5892 -0.4279  1.0047
  525MOL0     C70780   3.353   7.304   7.907 -0.1171  0.0076  0.2871
  525MOL0     C70781   3.481   7.375   7.947  0.0154 -0.1749  0.6771
  525MOL0     C70782   3.503   7.507   7.866 -0.3813 -0.8426  0.6243
  525MOL0     C70783   3.633   7.575   7.922 -0.2883 -0.8514  0.0018
  525MOL0     C70784   3.639   7.734   7.901  0.0799 -0.0882 -0.2252
  525MOL0    Cl70785   3.815   7.786   7.896  0.0001 -0.0053 -0.5573
  525MOL0     C70786   2.797   7.609   7.847 -0.4130  0.2884  0.6366
  525MOL0     C70787   2.680   7.677   7.874  0.3112  0.2319 -1.1832
  525MOL0     O70788   2.568   7.754   8.215 -0.1481  0.3922 -0.3955
  525MOL0     C70789   2.263   7.784   8.244  0.6275  0.0521 -0.6077
  525MOL0     C70790   2.139   7.853   8.267 -0.0068  0.1892 -0.3884
  525MOL0     N70791   1.661   8.571   8.316 -0.7606  0.5343 -0.3395
  525MOL0     N70792   1.668   8.672   8.381 -0.7666 -1.0788 -0.0827
  525MOL0     C70793   1.367   9.331   9.597 -0.4828  0.0710 -1.3002
  525MOL0     C70794   1.337   9.370   9.724 -0.6294  0.3927  0.9108
  525MOL0     C70795   1.084   9.254  10.125  0.5440 -0.6777 -0.8271
  525MOL0     C70796   1.183   9.243  10.225  0.0419 -0.5020  0.2699
  525MOL0     C70797   1.159   9.228  10.361 -1.0024  0.2904  0.3275
  525MOL0     C70798   1.027   9.205  10.403 -0.5681 -0.1078  1.1419
  525MOL0     O70799   0.988   9.187  10.532  0.1571  0.1925  0.0569
  525MOL0     C70800   0.888   9.276  10.581  0.2630 -0.8777  0.1821
  525MOL0     C70801   0.763   9.196  10.621 -0.4690  0.6089  0.0324
  525MOL0     C70802   0.788   9.092  10.733  0.9368  0.4411 -0.0870
  525MOL0     C70803   0.651   9.032  10.783  0.3602  0.0238  0.4950
  525MOL0     C70804   0.678   8.984  10.917 -0.2255  0.0053  0.0782
  525MOL0     C70805   0.696   8.958  11.028  0.1810  1.1310 -0.0991
  525MOL0     C70806   0.927   9.199  10.308  0.0953 -0.4753 -0.4457
  525MOL0     C70807   0.948   9.241  10.177 -0.2539  0.7948 -0.8502
  525MOL0     H70808   1.183   9.073   9.816 -1.8550  0.3915 -1.1957
  525MOL0     H70809   1.224   9.019   9.594  0.5543 -0.7279  1.2470
  525MOL0     H70810   1.354   8.964   9.401  3.8779  1.8295  0.2685
  525MOL0     H70811   1.204   9.061   9.335 -0.4669  2.4910 -2.0411
  525MOL0     H70812   1.353   9.149   9.176  1.3997 -0.4430 -0.8423
  525MOL0     H70813   1.496   9.067   9.237 -0.2473 -1.3025  2.4734
  525MOL0     H70814   1.357   8.844   9.202 -0.3454 -1.6204 -2.4841
  525MOL0     H70815   1.258   8.936   9.097  0.0407  1.6659  1.5359
  525MOL0     H70816   1.473   9.011   8.965 -4.3134 -1.3016 -2.0169
  525MOL0     H70817   1.575   8.905   9.061  1.4672  1.6268 -2.6789
  525MOL0     H70818   1.432   8.712   8.967 -0.7549  0.8874  1.0477
  525MOL0     H70819   1.356   8.839   8.867 -2.3597 -1.1912  1.5891
  525MOL0     H70820   1.569   8.914   8.793 -2.8334  1.0030  0.6768
  525MOL0     H70821   1.678   8.814   8.881  2.4709 -0.4435 -4.3639
  525MOL0     H70822   1.577   8.597   8.745 -0.0623 -0.7686 -1.5423
  525MOL0     H70823   1.475   8.717   8.655  0.5748 -1.0045 -2.5774
  525MOL0     H70824   1.781   8.731   8.669  0.3748 -0.0901 -2.1962
  525MOL0     H70825   1.668   8.840   8.590 -3.5892  0.0978 -0.2148
  525MOL0     H70826   1.666   8.454   8.626 -2.9483  3.1854  1.6448
  525MOL0     H70827   1.592   8.257   8.403  0.5074  0.1739 -0.0943
  525MOL0     H70828   1.605   8.325   8.239  1.3313  4.0539 -0.1727
  525MOL0     H70829   1.836   8.250   8.412 -1.7136  0.3783 -0.0628
  525MOL0     H70830   1.861   8.286   8.249  0.2293 -0.8849 -1.7262
  525MOL0     H70831   1.726   8.094   8.171  1.0491 -0.3791  0.9348
  525MOL0     H70832   1.666   8.057   8.330 -1.0780 -0.2057 -2.2545
  525MOL0     H70833   1.857   7.904   8.267 -0.9160  0.0909  2.3442
  525MOL0     H70834   1.919   8.013   8.397 -3.4369  2.2102  0.5023
  525MOL0     H70835   2.168   8.098   8.056 -1.2586  0.2112  1.6537
  525MOL0     H70836   2.461   7.911   7.902  0.4679 -1.7513  1.3594
  525MOL0     H70837   2.366   8.061   7.895 -0.6230  1.8186  2.9971
  525MOL0     H70838   2.507   8.040   8.001 -0.0549  1.3522 -1.4285
  525MOL0     H70839   2.570   7.469   8.126 -2.6315  3.0829 -0.4023
  525MOL0     H70840   2.792   7.378   8.096  0.0391  1.0172  0.7218
  525MOL0     H70841   2.971   7.273   8.042 -1.8239  0.4125 -0.0760
  525MOL0     H70842   2.896   7.229   7.887 -1.1438  1.4015 -0.9520
  525MOL0     H70843   3.137   7.170   7.898 -1.2996  0.2568  2.1730
  525MOL0     H70844   3.110   7.293   7.774  2.9078  0.1230 -1.1440
  525MOL0     H70845   3.203   7.362   8.056 -5.3088 -1.3791  0.6967
  525MOL0     H70846   3.190   7.465   7.914 -1.7383 -2.1064 -3.1376
  525MOL0     H70847   3.352   7.204   7.952  0.7134 -1.1858 -2.1489
  525MOL0     H70848   3.347   7.296   7.798 -1.8037  0.3649  0.3352
  525MOL0     H70849   3.566   7.306   7.938 -0.3984 -0.6009 -0.0258
  525MOL0     H70850   3.481   7.399   8.054 -0.4277 -1.2262  0.9187
  525MOL0     H70851   3.518   7.500   7.758 -0.8415  3.6867  0.0786
  525MOL0     H70852   3.419   7.577   7.870  1.5827  1.7092 -0.2285
  525MOL0     H70853   3.723   7.534   7.876 -1.1625 -2.2420 -0.5184
  525MOL0     H70854   3.644   7.559   8.030  2.4034 -0.5441 -0.1488
  525MOL0     H70855   3.578   7.782   7.977 -0.0797 -1.1785  0.3655
  525MOL0     H70856   3.604   7.740   7.798 -0.9521  0.5040  0.1542
  525MOL0     H70857   2.853   7.644   7.761 -1.9154 -0.2232 -0.5938
  525MOL0     H70858   2.643   7.762   7.817 -3.2400  0.2485  0.8454
  525MOL0     H70859   2.277   7.698   8.309 -1.1853  0.3825  0.2592
  525MOL0     H70860   2.068   7.811   8.337  1.2849  0.3500  1.0709
  525MOL0     H70861   1.414   9.407   9.536 -1.7066 -1.2185 -4.0099
  525MOL0     H70862   1.361   9.471   9.757  2.0859  0.0528  0.2827
  525MOL0     H70863   1.285   9.229  10.189 -0.2019  0.2286 -0.7497
  525MOL0     H70864   1.232   9.228  10.441  0.6262  0.6637 -1.0944
  525MOL0     H70865   0.928   9.322  10.672 -3.1035  0.7728  0.9671
  525MOL0     H70866   0.874   9.364  10.518 -0.7593 -0.7053  0.6323
  525MOL0     H70867   0.721   9.146  10.533  0.3454  2.1876 -1.2984
  525MOL0     H70868   0.683   9.261  10.656  2.1295  2.1040  3.8360
  525MOL0     H70869   0.843   9.150  10.808  0.6835  2.9577 -1.7145
  525MOL0     H70870   0.853   9.013  10.693 -1.3824 -2.5428  1.6085
  525MOL0     H70871   0.620   8.948  10.719 -0.2375  0.6641 -0.0692
  525MOL0     H70872   0.576   9.111  10.783  0.4492  0.1146 -0.3217
  525MOL0     H70873   0.688   8.944  11.134 -1.9523  1.3229 -0.2081
  525MOL0     H70874   0.826   9.178  10.340  1.0230  1.3608  4.6801
  525MOL0     H70875   0.868   9.251  10.104 -0.3246  1.4598 -0.6874
  526MOL0     O70876   6.179   4.025  11.239 -0.9981  0.2877 -0.3556
  526MOL0     C70877   6.282   3.946  11.245  0.3965 -0.4091  0.0035
  526MOL0     O70878   6.384   3.968  11.329 -0.4011  0.1520 -0.0225
  526MOL0     C70879   6.371   4.073  11.418 -0.2843  1.1143 -0.0083
  526MOL0     C70880   6.253   4.099  11.495 -0.5095 -0.0094 -0.2039
  526MOL0     C70881   6.257   4.190  11.603 -0.0592  0.0294 -0.0001
  526MOL0     C70882   6.377   4.257  11.634 -0.5253 -0.8289  0.1604
  526MOL0     O70883   6.384   4.361  11.721 -0.2301  0.0964 -0.0651
  526MOL0     C70884   6.262   4.440  11.755 -0.8696  0.1542  0.5850
  526MOL0     C70885   6.299   4.571  11.824 -0.3609  0.2391 -0.3865
  526MOL0     C70886   6.191   4.655  11.891 -0.1286  0.4199  0.1392
  526MOL0     C70887   6.250   4.774  11.963  0.2384  0.1977 -0.4102
  526MOL0     C70888   6.145   4.863  12.034 -0.6542  0.1206 -0.1608
  526MOL0     C70889   6.212   4.967  12.112  0.6927 -0.4010  0.0728
  526MOL0     C70890   6.279   4.908  12.243 -0.4330  0.2808  0.9863
  526MOL0     C70891   6.380   5.008  12.301  0.1866 -0.5464 -0.5804
  526MOL0     N70892   6.316   5.130  12.347  0.0324 -0.7048 -0.3321
  526MOL0     C70893   6.273   5.125  12.478  0.4474  0.1442 -0.3581
  526MOL0     C70894   6.228   5.245  12.504  0.2866  0.1828  0.7657
  526MOL0     C70895   6.180   5.297  12.629 -0.3691 -1.0455  0.3142
  526MOL0     C70896   6.136   5.447  12.620 -0.0801  0.0876 -1.2274
  526MOL0     C70897   6.054   5.483  12.749  0.2662 -0.3089  0.0270
  526MOL0     C70898   6.156   5.488  12.868 -0.0937  0.0661  0.7943
  526MOL0     O70899   6.096   5.527  12.997  0.0873 -0.0482  0.5653
  526MOL0     C70900   6.019   5.633  12.997  1.1193  0.4524  0.1029
  526MOL0     C70901   5.886   5.620  13.040  0.2108  0.3886  1.2410
  526MOL0     C70902   5.800   5.731  13.039  0.0062  0.2809  0.5356
  526MOL0     C70903   5.657   5.710  13.086 -0.1197  0.1299 -0.6677
  526MOL0     C70904   5.848   5.859  13.012 -0.9586 -0.4154  0.3539
  526MOL0     C70905   5.764   5.984  12.992 -1.0166 -1.0123  0.3770
  526MOL0     O70906   5.835   6.093  12.944 -0.0922  0.9796 -1.2544
  526MOL0     C70907   5.784   6.224  12.942 -0.2540 -0.2912  0.1594
  526MOL0     C70908   5.838   6.301  12.838 -0.0441 -0.3400  0.6073
  526MOL0     C70909   5.803   6.430  12.811  0.1813  0.9656 -0.0595
  526MOL0     C70910   5.698   6.476  12.890 -0.0895 -0.8283  0.2462
  526MOL0     O70911   5.654   6.601  12.866 -0.3180  0.0334 -0.0772
  526MOL0     C70912   5.527   6.649  12.922  0.6530  0.4532  0.3737
  526MOL0     C70913   5.460   6.764  12.839 -0.0769 -1.0482  0.9805
  526MOL0     C70914   5.430   6.741  12.688  0.3556 -0.4341  0.3621
  526MOL0     C70915   5.366   6.873  12.632 -0.1812  0.0659  0.5246
  526MOL0     C70916   5.369   6.879  12.477  0.6161 -1.0320  0.6298
  526MOL0     C70917   5.311   7.013  12.426  0.3983 -0.5800 -0.9838
  526MOL0     C70918   5.317   7.018  12.268 -0.8276  0.1612 -0.3097
  526MOL0     C70919   5.227   7.135  12.219 -0.9084 -0.1757  0.1809
  526MOL0    Cl70920   5.290   7.275  12.299 -0.4904 -0.4048  0.4319
  526MOL0     C70921   5.649   6.404  13.002  0.1105  0.3341 -0.3992
  526MOL0     C70922   5.690   6.278  13.027 -0.0968 -0.2363 -0.3993
  526MOL0     O70923   5.643   5.982  13.021 -0.2202  0.3966 -0.2991
  526MOL0     C70924   5.993   5.873  12.993  0.7327 -0.0199  0.9742
  526MOL0     C70925   6.076   5.761  12.985  0.1689 -0.7301  0.2286
  526MOL0     N70926   6.221   5.314  12.386  0.4570  0.0870  0.7257
  526MOL0     N70927   6.272   5.244  12.289 -0.1129 -0.2948  0.5555
  526MOL0     C70928   6.495   4.225  11.560 -0.3880 -0.0523  0.0232
  526MOL0     C70929   6.501   4.129  11.459  0.5994  0.7249  0.2310
  526MOL0     C70930   6.285   3.818  11.173  0.1576 -0.8739  0.2258
  526MOL0     C70931   6.163   3.761  11.125  0.2796 -0.5249 -0.7103
  526MOL0     C70932   6.173   3.656  11.040  0.3849  0.6039 -0.0620
  526MOL0     C70933   6.297   3.591  11.017  0.7776 -1.0892 -0.2986
  526MOL0     O70934   6.302   3.491  10.930  0.1797  0.2266  0.0809
  526MOL0     C70935   6.334   3.357  10.982 -0.2536 -0.4998  0.8895
  526MOL0     C70936   6.278   3.244  10.900  0.2450  0.0462 -0.8080
  526MOL0     C70937   6.226   3.123  10.986  1.2184  0.1394 -0.3975
  526MOL0     C70938   6.146   3.027  10.894  0.2556 -0.3850 -0.7951
  526MOL0     C70939   6.234   2.927  10.836 -0.2173 -0.8521  0.6253
  526MOL0     C70940   6.296   2.832  10.796 -0.3891 -0.1446 -0.1193
  526MOL0     C70941   6.402   3.650  11.062 -0.5835 -0.4319  0.0998
  526MOL0     C70942   6.410   3.763  11.137  0.4711 -0.4000 -0.2261
  526MOL0     H70943   6.155   4.058  11.473  0.6217 -1.3475 -3.3847
  526MOL0     H70944   6.169   4.218  11.661 -0.1555  0.7412 -0.4807
  526MOL0     H70945   6.213   4.465  11.661 -0.2323 -0.0977  0.1742
  526MOL0     H70946   6.198   4.379  11.820 -2.3621 -0.1302 -1.0880
  526MOL0     H70947   6.370   4.558  11.906  0.8714  1.8624 -1.1539
  526MOL0     H70948   6.355   4.632  11.752 -0.9337  2.9739  1.3568
  526MOL0     H70949   6.128   4.693  11.811  0.5482  1.0514 -0.1054
  526MOL0     H70950   6.139   4.583  11.954  3.3521 -2.1497  0.4210
  526MOL0     H70951   6.321   4.737  12.038 -3.5162 -1.7346  2.5836
  526MOL0     H70952   6.295   4.839  11.888 -1.7033  3.6015  1.1608
  526MOL0     H70953   6.080   4.890  11.950  0.2542 -1.8824 -1.5995
  526MOL0     H70954   6.092   4.798  12.104 -0.2574  1.9638  1.9781
  526MOL0     H70955   6.278   5.033  12.055 -0.8309  1.9297  0.8268
  526MOL0     H70956   6.128   5.031  12.142 -0.2032 -1.1386 -0.7790
  526MOL0     H70957   6.217   4.870  12.325  3.7222 -0.8747  3.9466
  526MOL0     H70958   6.345   4.821  12.231  1.0952  1.5262 -0.0382
  526MOL0     H70959   6.463   5.025  12.232  0.8197 -1.3831 -0.0467
  526MOL0     H70960   6.426   4.963  12.390 -0.7956 -0.5054 -0.0378
  526MOL0     H70961   6.307   5.058  12.556  1.3286  0.4131 -0.4993
  526MOL0     H70962   6.091   5.240  12.655  0.4204 -2.8111 -0.6560
  526MOL0     H70963   6.260   5.284  12.702 -1.0945  0.5790  1.4491
  526MOL0     H70964   6.086   5.467  12.525  2.3107  1.1637 -2.3610
  526MOL0     H70965   6.221   5.516  12.618  0.4939 -0.4996 -5.0659
  526MOL0     H70966   5.974   5.410  12.763  1.2132 -1.2054  0.8688
  526MOL0     H70967   6.020   5.586  12.730 -1.0691 -0.3043  2.1209
  526MOL0     H70968   6.241   5.554  12.848  0.8112 -0.5548  2.3594
  526MOL0     H70969   6.193   5.385  12.871 -1.1113 -0.3668 -0.4860
  526MOL0     H70970   5.839   5.524  13.055 -0.8233  0.9025  1.4233
  526MOL0     H70971   5.630   5.605  13.072  1.1675  0.0395 -2.9920
  526MOL0     H70972   5.655   5.749  13.188 -3.3721  3.5368 -1.8306
  526MOL0     H70973   5.593   5.759  13.012  0.0768 -0.7381 -1.4495
  526MOL0     H70974   5.908   6.245  12.777 -3.9234 -3.3200 -1.5626
  526MOL0     H70975   5.839   6.488  12.726  1.5460  0.2457  0.0016
  526MOL0     H70976   5.454   6.567  12.926 -0.0695  1.1127  0.9427
  526MOL0     H70977   5.536   6.684  13.025 -0.0074 -1.9777  1.3316
  526MOL0     H70978   5.363   6.788  12.884 -0.8343 -0.8223 -0.6846
  526MOL0     H70979   5.536   6.842  12.851 -1.6541  0.3063  3.0120
  526MOL0     H70980   5.360   6.658  12.669 -0.0962  0.4069 -2.0133
  526MOL0     H70981   5.521   6.722  12.632 -0.6125 -2.6962 -0.5623
  526MOL0     H70982   5.261   6.871  12.663 -0.6457 -0.6862 -0.9994
  526MOL0     H70983   5.420   6.959  12.671  0.0770  1.0900 -1.9278
  526MOL0     H70984   5.297   6.804  12.441  1.8117 -0.7734 -2.6040
  526MOL0     H70985   5.467   6.864  12.430  0.1708 -1.8194 -0.0897
  526MOL0     H70986   5.217   7.042  12.473  0.9506 -2.2395  1.3261
  526MOL0     H70987   5.373   7.095  12.463 -0.6702  0.0276 -0.5131
  526MOL0     H70988   5.280   6.922  12.229  1.2278 -0.5169 -0.7156
  526MOL0     H70989   5.421   7.028  12.236 -1.2794  0.0904 -1.8682
  526MOL0     H70990   5.126   7.103  12.246 -0.7921  0.8233  2.0300
  526MOL0     H70991   5.239   7.140  12.111  5.9250  0.6020  0.4793
  526MOL0     H70992   5.577   6.448  13.069 -0.1856  0.8408 -1.0344
  526MOL0     H70993   5.669   6.225  13.119 -0.7750 -3.1841 -2.1154
  526MOL0     H70994   6.041   5.968  12.969  1.0089 -0.8913 -2.5051
  526MOL0     H70995   6.179   5.773  12.956 -0.0297 -0.5741 -0.4122
  526MOL0     H70996   6.585   4.272  11.598  0.5038  0.9664 -3.0301
  526MOL0     H70997   6.592   4.113  11.404  0.4083  1.9479 -0.4624
  526MOL0     H70998   6.071   3.817  11.133  0.7425  0.3412 -1.3229
  526MOL0     H70999   6.091   3.619  10.978  1.6957 -3.0305  0.1268
  526MOL0     H71000   6.442   3.337  10.991 -0.3641 -0.3473  3.1940
  526MOL0     H71001   6.283   3.355  11.079 -1.3149  1.8498  0.4441
  526MOL0     H71002   6.359   3.219  10.830  2.2044  2.2424  0.5413
  526MOL0     H71003   6.200   3.271  10.828  0.5716 -0.4993 -1.3814
  526MOL0     H71004   6.154   3.158  11.061  0.8656 -3.0147  0.8507
  526MOL0     H71005   6.309   3.070  11.032  0.2042  0.1411  1.4967
  526MOL0     H71006   6.077   3.079  10.826 -0.2273  0.3027  0.1926
  526MOL0     H71007   6.081   2.963  10.954  0.0019  1.0069  0.4652
  526MOL0     H71008   6.335   2.743  10.751  0.6112  1.2770 -2.2509
  526MOL0     H71009   6.495   3.606  11.026  0.2732  2.3647 -1.3828
  526MOL0     H71010   6.505   3.793  11.180  1.0632 -0.8544 -1.1923
  527MOL0     O71011   4.019   6.112  11.247 -1.0772 -0.6834 -0.6641
  527MOL0     C71012   4.111   6.180  11.191 -0.4512  0.1444 -1.0962
  527MOL0     O71013   4.114   6.315  11.154 -1.4335  0.0071  0.3802
  527MOL0     C71014   4.028   6.402  11.218 -0.3162 -0.9775 -0.2827
  527MOL0     C71015   3.891   6.380  11.252  0.3064  0.4736 -0.3421
  527MOL0     C71016   3.810   6.490  11.290 -0.6508  0.4741 -0.2456
  527MOL0     C71017   3.860   6.617  11.309 -0.2002 -0.4150 -0.2596
  527MOL0     O71018   3.775   6.704  11.364  0.7356 -0.5894 -0.7923
  527MOL0     C71019   3.774   6.841  11.307 -0.2975  0.4053 -0.2456
  527MOL0     C71020   3.691   6.843  11.175  0.4460  0.0599 -0.0501
  527MOL0     C71021   3.586   6.953  11.183  0.3274 -0.1017 -0.3442
  527MOL0     C71022   3.511   6.945  11.048 -0.1651 -0.4942  0.0841
  527MOL0     C71023   3.424   7.074  11.016  0.0040 -0.2828  0.5865
  527MOL0     C71024   3.312   7.012  10.929  0.7136  0.1413  0.0104
  527MOL0     C71025   3.208   7.113  10.888  0.9871 -0.7799 -0.0694
  527MOL0     C71026   3.074   7.030  10.850  0.4074 -0.0945 -0.9966
  527MOL0     N71027   2.961   7.115  10.792 -0.7685  0.1292 -0.2615
  527MOL0     C71028   2.831   7.068  10.792  0.4020  0.9083  1.0799
  527MOL0     C71029   2.764   7.145  10.700  0.0539  0.3770  0.8718
  527MOL0     C71030   2.623   7.120  10.648 -0.0364 -0.1389  0.1559
  527MOL0     C71031   2.532   7.232  10.689 -0.2771  0.3788 -0.0308
  527MOL0     C71032   2.393   7.213  10.621  0.8093  1.6954 -0.5010
  527MOL0     C71033   2.290   7.273  10.703  0.0040 -0.4513 -0.4905
  527MOL0     O71034   2.275   7.197  10.826 -0.2191 -0.7709 -0.2212
  527MOL0     C71035   2.147   7.152  10.845  0.5342 -1.3444 -0.1679
  527MOL0     C71036   2.126   7.019  10.819 -0.8882 -1.4242  0.2142
  527MOL0     C71037   1.993   6.983  10.824  0.2502  0.5343 -0.8113
  527MOL0     C71038   1.980   6.842  10.778  0.0642 -0.2119  0.4756
  527MOL0     C71039   1.887   7.068  10.868  0.5831 -0.3863 -0.0147
  527MOL0     C71040   1.738   7.038  10.877 -0.2454  0.0571  0.2224
  527MOL0     O71041   1.652   7.127  10.842  0.5659 -0.0063  0.5074
  527MOL0     C71042   1.558   7.186  10.929 -0.8157 -0.8547 -0.0411
  527MOL0     C71043   1.448   7.264  10.878  0.4426 -0.6420 -0.7734
  527MOL0     C71044   1.350   7.311  10.964 -0.0618 -0.9242  0.4839
  527MOL0     C71045   1.350   7.291  11.105 -0.2849  0.1680 -0.9908
  527MOL0     O71046   1.268   7.355  11.195  0.1446  0.3208  0.9388
  527MOL0     C71047   1.137   7.383  11.135 -0.1769  0.7718 -0.0953
  527MOL0     C71048   1.039   7.428  11.249  0.0690 -0.1391  0.1213
  527MOL0     C71049   1.006   7.303  11.331 -0.3858 -0.3379  0.0826
  527MOL0     C71050   0.879   7.227  11.290 -0.3544 -0.2804  0.0163
  527MOL0     C71051   0.842   7.109  11.379  1.4232 -0.1727  0.0398
  527MOL0     C71052   0.918   6.973  11.338 -0.4235 -0.1099  0.6754
  527MOL0     C71053   0.906   6.885  11.461 -0.2269 -0.6184  0.2718
  527MOL0     C71054   0.985   6.751  11.452 -0.1513 -0.3537 -1.0344
  527MOL0    Cl71055   1.152   6.775  11.409  0.3191 -0.1698  0.3726
  527MOL0     C71056   1.462   7.215  11.150  0.3592  0.0902 -0.6615
  527MOL0     C71057   1.555   7.158  11.065 -0.6868 -0.7512 -0.3896
  527MOL0     O71058   1.708   6.922  10.910 -0.6920 -0.3353 -0.4401
  527MOL0     C71059   1.927   7.196  10.906  0.5049 -1.2123  0.2044
  527MOL0     C71060   2.053   7.244  10.887 -0.2690  0.3873  0.7343
  527MOL0     N71061   2.851   7.248  10.655 -0.2441  0.3010  0.1026
  527MOL0     N71062   2.970   7.214  10.698 -0.6588 -0.0058  0.4155
  527MOL0     C71063   3.993   6.632  11.280 -0.8153 -0.5167  0.5007
  527MOL0     C71064   4.075   6.537  11.233  0.2934  0.9690  0.8866
  527MOL0     C71065   4.233   6.106  11.151  0.3687 -0.1544 -0.0095
  527MOL0     C71066   4.245   5.966  11.158 -0.5841  1.1430 -0.0773
  527MOL0     C71067   4.352   5.893  11.103  0.6318 -0.2122 -0.6228
  527MOL0     C71068   4.445   5.955  11.028 -0.5922  0.8915 -0.2212
  527MOL0     O71069   4.541   5.894  10.949 -0.4923 -0.4696  0.1308
  527MOL0     C71070   4.621   5.793  11.001 -0.9495  0.1368 -0.1938
  527MOL0     C71071   4.767   5.803  10.933 -0.2494 -0.1378 -0.8469
  527MOL0     C71072   4.858   5.680  10.962 -0.6070  0.8791 -0.5439
  527MOL0     C71073   4.959   5.693  11.074 -1.3274 -0.4476 -0.4138
  527MOL0     C71074   5.065   5.791  11.042  0.1000 -0.9216 -1.0828
  527MOL0     C71075   5.158   5.863  11.006  0.6259 -0.1869 -0.2977
  527MOL0     C71076   4.438   6.088  11.009 -0.8106 -0.0650 -0.7902
  527MOL0     C71077   4.339   6.169  11.074 -0.8216 -0.0259 -0.8521
  527MOL0     H71078   3.839   6.285  11.243 -3.2825  2.1848  0.7070
  527MOL0     H71079   3.708   6.475  11.323 -0.9318 -4.0811 -2.4013
  527MOL0     H71080   3.748   6.923  11.375  0.0590 -0.9730  1.6639
  527MOL0     H71081   3.877   6.860  11.276  0.7320 -0.4431  2.3462
  527MOL0     H71082   3.759   6.877  11.097  0.0505 -0.3177 -0.5678
  527MOL0     H71083   3.639   6.747  11.169  1.1203 -0.9460  5.3510
  527MOL0     H71084   3.516   6.938  11.266 -1.3725  7.3756  0.2762
  527MOL0     H71085   3.637   7.049  11.192  0.1782  0.1971 -2.4103
  527MOL0     H71086   3.583   6.935  10.967  1.5819  1.2815  1.3358
  527MOL0     H71087   3.455   6.851  11.049 -0.1127 -0.8362 -4.6561
  527MOL0     H71088   3.377   7.121  11.103 -0.2037  1.2191 -0.2988
  527MOL0     H71089   3.491   7.148  10.970  1.9480 -2.2649  0.0598
  527MOL0     H71090   3.360   6.970  10.840  3.5483  0.3417  1.3502
  527MOL0     H71091   3.258   6.936  10.987  1.7129 -1.1487 -0.7027
  527MOL0     H71092   3.197   7.187  10.968 -0.7459  1.5298 -2.2897
  527MOL0     H71093   3.237   7.180  10.807  0.2603 -1.8477 -1.2504
  527MOL0     H71094   3.044   6.985  10.945 -0.4361  2.7658  0.1979
  527MOL0     H71095   3.105   6.954  10.778 -0.6965 -0.4465 -1.1096
  527MOL0     H71096   2.800   6.977  10.843  0.8310 -0.1839 -0.5353
  527MOL0     H71097   2.622   7.109  10.540  4.1108 -0.3834  0.0117
  527MOL0     H71098   2.586   7.027  10.692 -1.9764 -0.0886 -1.2199
  527MOL0     H71099   2.573   7.327  10.652  0.0946  0.0383 -0.5074
  527MOL0     H71100   2.539   7.244  10.797 -0.1857 -0.4416  0.0585
  527MOL0     H71101   2.370   7.106  10.613 -0.5290  1.9178  0.0275
  527MOL0     H71102   2.398   7.252  10.519  3.7497  2.5494 -0.1162
  527MOL0     H71103   2.193   7.263  10.655 -0.6304  0.0680  0.6413
  527MOL0     H71104   2.306   7.381  10.711  2.6426 -0.8288  0.6543
  527MOL0     H71105   2.217   6.967  10.792  0.6559  0.9333  0.5128
  527MOL0     H71106   1.970   6.838  10.669  0.6884 -0.7120  0.4258
  527MOL0     H71107   2.077   6.795  10.797  1.1895  0.5480 -2.7194
  527MOL0     H71108   1.904   6.788  10.834  1.3425 -1.8565  0.7296
  527MOL0     H71109   1.417   7.293  10.779 -2.1611  2.4615  0.7448
  527MOL0     H71110   1.280   7.380  10.917  3.3812  0.6197 -2.8258
  527MOL0     H71111   1.147   7.468  11.066 -1.4412  0.1336 -1.1037
  527MOL0     H71112   1.095   7.291  11.094 -1.0452  1.1652 -0.1235
  527MOL0     H71113   1.094   7.502  11.307 -0.5828  0.1358  0.4016
  527MOL0     H71114   0.949   7.475  11.208  1.0277  0.8449 -0.9122
  527MOL0     H71115   1.001   7.344  11.433  3.3384 -1.6661  0.9448
  527MOL0     H71116   1.094   7.238  11.338  0.3864  0.6607 -0.1256
  527MOL0     H71117   0.798   7.300  11.293 -0.0860  0.0064  3.0882
  527MOL0     H71118   0.887   7.183  11.189  1.1042 -0.3807  0.1537
  527MOL0     H71119   0.733   7.095  11.375  1.5199 -1.0134  0.2819
  527MOL0     H71120   0.858   7.133  11.484 -0.8795 -2.7582  1.0889
  527MOL0     H71121   0.869   6.935  11.248 -1.5689  0.2286  1.1339
  527MOL0     H71122   1.025   6.984  11.319 -0.0038 -2.6543  1.1623
  527MOL0     H71123   0.801   6.860  11.479 -1.2519  1.8089 -1.6794
  527MOL0     H71124   0.942   6.940  11.548  1.2886 -0.2187 -0.5688
  527MOL0     H71125   0.950   6.672  11.384  0.7106 -3.1414  1.5189
  527MOL0     H71126   0.979   6.699  11.548  0.1544  3.8948  1.5438
  527MOL0     H71127   1.474   7.200  11.257  2.3920  1.6869 -0.6050
  527MOL0     H71128   1.638   7.110  11.116  0.2027  2.1532  1.1078
  527MOL0     H71129   1.862   7.274  10.943 -1.5777 -3.5342  1.8169
  527MOL0     H71130   2.083   7.348  10.900 -0.6718  0.4947  0.8307
  527MOL0     H71131   4.037   6.731  11.289 -0.6218 -0.5300 -0.2017
  527MOL0     H71132   4.180   6.548  11.206  0.0299 -0.3310 -0.8700
  527MOL0     H71133   4.167   5.912  11.211 -1.3842  0.6829 -1.6579
  527MOL0     H71134   4.345   5.786  11.118  3.0374 -0.0360  2.7598
  527MOL0     H71135   4.633   5.797  11.110  0.1274 -3.6417 -0.0400
  527MOL0     H71136   4.574   5.697  10.979 -2.2480  1.5181 -4.3885
  527MOL0     H71137   4.824   5.896  10.950 -0.6108 -0.3952  2.4137
  527MOL0     H71138   4.748   5.808  10.826  3.2924  1.5268 -1.5716
  527MOL0     H71139   4.911   5.649  10.871  1.4696  1.6509  0.3524
  527MOL0     H71140   4.788   5.602  10.993 -0.0883  0.5905 -0.0761
  527MOL0     H71141   5.008   5.596  11.087  0.7126  0.7806  2.3757
  527MOL0     H71142   4.900   5.720  11.162 -3.1744 -3.2323 -0.6840
  527MOL0     H71143   5.242   5.920  10.972  0.1236 -0.6725 -2.5280
  527MOL0     H71144   4.501   6.144  10.941 -4.9213  4.7613 -1.1913
  527MOL0     H71145   4.336   6.275  11.051 -0.1446 -0.1308 -1.4866
  528MOL0     O71146   0.202   4.685   0.320  0.3798 -0.6389  0.3108
  528MOL0     C71147   0.155   4.650   0.214 -0.4617 -0.4964 -0.5594
  528MOL0     O71148   0.218   4.673   0.098 -0.0405  0.1893 -0.3849
  528MOL0     C71149   0.327   4.755   0.080 -0.9567 -0.6132 -0.6121
  528MOL0     C71150   0.328   4.891   0.128 -0.2145 -1.1333 -0.0457
  528MOL0     C71151   0.443   4.970   0.106  1.3924  0.5194 -0.3778
  528MOL0     C71152   0.557   4.912   0.053 -0.7857 -0.4970 -0.6508
  528MOL0     O71153   0.666   4.992   0.061 -0.9410 -0.7855  0.5961
  528MOL0     C71154   0.778   4.959  -0.025 -0.5100 -0.6356 -0.0649
  528MOL0     C71155   0.860   5.083  -0.063 -0.2099  0.4950 -0.0636
  528MOL0     C71156   1.008   5.043  -0.088 -0.3234 -0.1556 -0.1518
  528MOL0     C71157   1.072   5.138  -0.189  0.7351 -0.2058 -0.2756
  528MOL0     C71158   1.200   5.102  -0.238 -0.8603 -0.1266  0.0530
  528MOL0     C71159   1.310   5.131  -0.129 -0.3027 -0.4289 -0.2853
  528MOL0     C71160   1.449   5.089  -0.184 -0.6081  0.4238 -0.2954
  528MOL0     C71161   1.569   5.114  -0.082 -0.2124  0.7176 -0.6839
  528MOL0     N71162   1.694   5.045  -0.114  0.5169  1.1329  0.0255
  528MOL0     C71163   1.800   5.119  -0.172  0.7176 -0.1005 -0.3701
  528MOL0     C71164   1.893   5.021  -0.189 -0.2774  0.1070 -0.6779
  528MOL0     C71165   2.030   5.017  -0.245 -0.5221  0.4445 -0.1947
  528MOL0     C71166   2.117   5.113  -0.174 -0.2320 -0.2946 -0.0546
  528MOL0     C71167   2.268   5.084  -0.202  1.1021  0.0498 -0.8961
  528MOL0     C71168   2.359   5.183  -0.132 -0.2166 -0.3629  0.3017
  528MOL0     O71169   2.388   5.139  -0.009  0.1869  0.1573 -0.1029
  528MOL0     C71170   2.364   5.225   0.096 -0.0710 -0.6088 -0.6225
  528MOL0     C71171   2.404   5.355   0.105 -0.4676  0.9440  0.5222
  528MOL0     C71172   2.369   5.433   0.217  0.4657  0.5615  0.0016
  528MOL0     C71173   2.398   5.582   0.201 -0.3942  0.3764 -0.6808
  528MOL0     C71174   2.287   5.378   0.320  0.4190  0.1593  0.4437
  528MOL0     C71175   2.253   5.452   0.441  0.6468 -0.2525  0.2367
  528MOL0     O71176   2.117   5.456   0.482  0.8690  0.4596  0.2873
  528MOL0     C71177   2.103   5.551   0.583  0.7068 -0.1107  0.6731
  528MOL0     C71178   2.150   5.679   0.577 -0.3383  0.0669 -0.2835
  528MOL0     C71179   2.110   5.772   0.680 -0.3112  0.4956  1.8987
  528MOL0     C71180   2.011   5.732   0.773  0.2780  0.0193  0.6620
  528MOL0     O71181   1.972   5.802   0.889 -0.5713 -0.6204 -0.1349
  528MOL0     C71182   2.034   5.926   0.913 -0.7263  0.2113  0.3942
  528MOL0     C71183   1.978   6.016   1.025  0.0511  0.4164 -1.2504
  528MOL0     C71184   1.855   6.095   0.981  0.0463  0.1083 -0.0438
  528MOL0     C71185   1.784   6.157   1.099 -0.0358 -0.0130 -0.6459
  528MOL0     C71186   1.675   6.250   1.056  0.2073 -0.1406 -0.4873
  528MOL0     C71187   1.569   6.301   1.152 -0.2304  0.0994 -1.0073
  528MOL0     C71188   1.622   6.415   1.248 -0.2418  0.4817 -0.6907
  528MOL0     C71189   1.722   6.379   1.353  0.8660 -0.2617  1.1877
  528MOL0    Cl71190   1.726   6.513   1.470  0.2890 -0.3149 -0.1802
  528MOL0     C71191   1.955   5.606   0.765  0.0562 -0.9046  0.0301
  528MOL0     C71192   1.999   5.512   0.669 -0.6148 -0.4191 -0.1876
  528MOL0     O71193   2.349   5.470   0.515  0.2957  0.1935 -0.0947
  528MOL0     C71194   2.254   5.242   0.313 -0.0877 -0.4994  0.9641
  528MOL0     C71195   2.290   5.165   0.195  0.3488 -0.0680 -0.2374
  528MOL0     N71196   1.841   4.898  -0.155 -0.0398  0.4748 -0.5685
  528MOL0     N71197   1.725   4.912  -0.105  0.5564  0.1723 -0.4412
  528MOL0     C71198   0.552   4.780   0.014  0.1789 -0.6314  0.5307
  528MOL0     C71199   0.442   4.703   0.020  0.5863 -1.0151 -0.2160
  528MOL0     C71200   0.034   4.569   0.210 -0.2989  0.1675  0.7720
  528MOL0     C71201  -0.017   4.515   0.327 -0.7687 -0.6720 -0.1014
  528MOL0     C71202  -0.138   4.443   0.324 -0.2426  0.0065  1.4299
  528MOL0     C71203  -0.210   4.413   0.204 -1.1096 -1.0715 -0.4506
  528MOL0     O71204  -0.330   4.350   0.208 -0.6737 -0.4419 -0.4266
  528MOL0     C71205  -0.317   4.209   0.240  1.0205 -0.3617  0.5161
  528MOL0     C71206  -0.392   4.169   0.361 -0.5135  0.0253 -0.0414
  528MOL0     C71207  -0.536   4.201   0.342  0.3930  0.3135  0.0967
  528MOL0     C71208  -0.635   4.140   0.441 -0.5293 -0.5432 -0.2228
  528MOL0     C71209  -0.633   3.991   0.443  0.0249 -0.4256  0.6175
  528MOL0     C71210  -0.619   3.872   0.418 -1.0975  0.2833 -0.4850
  528MOL0     C71211  -0.151   4.463   0.087  0.1792 -0.1851 -0.0070
  528MOL0     C71212  -0.037   4.543   0.091 -0.4082 -0.1036  0.1814
  528MOL0     H71213   0.237   4.933   0.171 -0.6516 -1.7214 -0.3891
  528MOL0     H71214   0.433   5.075   0.130  2.0855  0.2286  1.2877
  528MOL0     H71215   0.841   4.896   0.038 -3.2108 -0.3228  3.2348
  528MOL0     H71216   0.735   4.921  -0.118 -0.0628  1.3757 -1.1636
  528MOL0     H71217   0.823   5.117  -0.161  2.3419  0.5181 -1.0920
  528MOL0     H71218   0.854   5.165   0.009 -1.0339 -1.2147  1.9089
  528MOL0     H71219   1.058   5.053   0.009 -3.1900 -0.4508  1.4498
  528MOL0     H71220   1.018   4.944  -0.134 -3.1327 -0.5373 -0.0773
  528MOL0     H71221   1.012   5.132  -0.280  1.4629 -2.1462 -0.6706
  528MOL0     H71222   1.077   5.236  -0.141 -1.4937  0.8425 -2.0334
  528MOL0     H71223   1.191   4.996  -0.262 -0.2990  0.2770 -2.1973
  528MOL0     H71224   1.202   5.158  -0.333 -2.2336  1.4724  0.9176
  528MOL0     H71225   1.312   5.233  -0.090 -0.4637  0.0731 -1.5346
  528MOL0     H71226   1.284   5.084  -0.034 -2.2033  2.4488  0.7583
  528MOL0     H71227   1.433   4.986  -0.214 -1.2916  0.2761  0.5576
  528MOL0     H71228   1.464   5.145  -0.277 -0.3905  1.4406  0.3296
  528MOL0     H71229   1.540   5.082   0.018  1.0015 -2.2647 -1.1880
  528MOL0     H71230   1.580   5.223  -0.081  0.9673  0.6230  1.0504
  528MOL0     H71231   1.802   5.226  -0.189 -2.2493  0.0927 -0.0638
  528MOL0     H71232   2.072   4.919  -0.226 -0.5375 -0.2064 -3.0715
  528MOL0     H71233   2.021   5.029  -0.354 -1.2739 -0.6884 -0.2776
  528MOL0     H71234   2.099   5.102  -0.066 -1.3513 -0.0692 -0.2131
  528MOL0     H71235   2.090   5.211  -0.214 -1.2606  0.6186  2.6606
  528MOL0     H71236   2.269   5.083  -0.312 -0.0446 -4.3289 -1.0246
  528MOL0     H71237   2.282   4.984  -0.160  1.3712  1.4416  2.7208
  528MOL0     H71238   2.308   5.280  -0.137  2.0433  0.9884  1.3606
  528MOL0     H71239   2.456   5.190  -0.182  0.2777  3.0221  1.4394
  528MOL0     H71240   2.463   5.395   0.023 -0.6217  0.9089  0.3932
  528MOL0     H71241   2.342   5.653   0.262 -0.8550  3.4699 -4.3227
  528MOL0     H71242   2.504   5.600   0.222 -0.7278  1.0890  0.4782
  528MOL0     H71243   2.397   5.607   0.095  1.6716  0.3122 -0.7713
  528MOL0     H71244   2.237   5.712   0.520  0.4421 -0.1741  0.7554
  528MOL0     H71245   2.157   5.869   0.669  0.9910 -0.4012 -2.8816
  528MOL0     H71246   2.132   5.885   0.941 -1.7732 -3.1798 -0.4430
  528MOL0     H71247   2.034   5.980   0.818 -0.4877 -1.0196 -0.3308
  528MOL0     H71248   1.938   5.943   1.097 -3.8250  1.8743 -1.6865
  528MOL0     H71249   2.046   6.085   1.075 -0.1412  1.0620 -1.8644
  528MOL0     H71250   1.778   6.026   0.944 -2.5497  2.5597  0.4154
  528MOL0     H71251   1.886   6.162   0.901  1.3539 -1.2252 -0.7105
  528MOL0     H71252   1.739   6.088   1.171  2.4695  0.7985  1.8774
  528MOL0     H71253   1.861   6.216   1.151 -1.6149  1.4165  0.1827
  528MOL0     H71254   1.628   6.185   0.981 -2.3363  2.6786 -1.5204
  528MOL0     H71255   1.710   6.333   0.996  2.4713 -1.6100 -1.3216
  528MOL0     H71256   1.473   6.326   1.106 -1.8321 -1.1463  1.4504
  528MOL0     H71257   1.548   6.228   1.230 -0.3779  1.7166  0.5407
  528MOL0     H71258   1.534   6.461   1.294  1.9678  1.3725  3.0834
  528MOL0     H71259   1.668   6.495   1.189  1.8158  1.9483  2.6177
  528MOL0     H71260   1.814   6.353   1.299 -0.4485  1.1547 -1.9872
  528MOL0     H71261   1.688   6.285   1.397  1.1078 -0.4625  0.9541
  528MOL0     H71262   1.875   5.576   0.832 -1.8235  1.3361 -1.0381
  528MOL0     H71263   1.953   5.414   0.664  3.1550 -2.3422 -2.3683
  528MOL0     H71264   2.198   5.195   0.394  2.1372 -0.6601  2.5104
  528MOL0     H71265   2.247   5.066   0.182 -0.2306 -0.3373  2.9269
  528MOL0     H71266   0.640   4.729  -0.025 -0.7518 -2.5769  0.8432
  528MOL0     H71267   0.442   4.596   0.002  3.9826 -1.1204 -0.2364
  528MOL0     H71268   0.030   4.528   0.424 -1.0737  2.1416 -0.2395
  528MOL0     H71269  -0.187   4.399   0.410  0.0199  0.1179  1.6393
  528MOL0     H71270  -0.346   4.157   0.148  1.3290 -2.6849  1.6635
  528MOL0     H71271  -0.212   4.183   0.259  1.3738  1.1963  0.8003
  528MOL0     H71272  -0.365   4.229   0.448 -4.4331 -2.2375  3.1218
  528MOL0     H71273  -0.383   4.062   0.381  1.6581  0.3988  1.2555
  528MOL0     H71274  -0.564   4.156   0.247  0.1591 -1.1190  0.8256
  528MOL0     H71275  -0.545   4.310   0.347  2.0696  0.4450  0.9621
  528MOL0     H71276  -0.737   4.175   0.428 -0.0882  0.2430 -1.8441
  528MOL0     H71277  -0.589   4.171   0.535 -3.6752 -0.4996  1.4315
  528MOL0     H71278  -0.613   3.767   0.401 -3.8166 -0.2988  1.5204
  528MOL0     H71279  -0.200   4.445  -0.008  0.2844  0.9220 -0.2832
  528MOL0     H71280   0.002   4.576  -0.005  0.7119 -0.4879  0.4829
  529MOL0     O71281   1.323   8.408   5.492  0.2893  0.4035  0.8037
  529MOL0     C71282   1.365   8.494   5.566 -0.6468 -0.0753 -0.3850
  529MOL0     O71283   1.489   8.553   5.548 -0.4090 -0.6724  0.4584
  529MOL0     C71284   1.564   8.522   5.434 -0.7674 -0.4710 -0.4500
  529MOL0     C71285   1.521   8.566   5.310 -0.2468 -0.5234  0.6049
  529MOL0     C71286   1.610   8.552   5.200 -0.4952  0.5467 -0.0347
  529MOL0     C71287   1.728   8.471   5.211  0.6295  0.9267  0.3454
  529MOL0     O71288   1.819   8.443   5.111  0.1374 -0.2261 -0.2372
  529MOL0     C71289   1.796   8.519   4.995  0.1585  0.4315  0.2977
  529MOL0     C71290   1.915   8.490   4.901  0.0413 -0.3094 -0.5436
  529MOL0     C71291   1.874   8.562   4.769  0.1063 -0.1450  0.3989
  529MOL0     C71292   1.988   8.560   4.670 -0.7490  0.6349  0.5106
  529MOL0     C71293   1.948   8.644   4.547  0.1750  0.2416 -0.8876
  529MOL0     C71294   2.071   8.674   4.457 -0.4966 -0.1736 -0.0882
  529MOL0     C71295   2.030   8.752   4.337  0.1458  0.1389 -0.5475
  529MOL0     C71296   1.948   8.663   4.234  0.3083 -0.3419  0.1752
  529MOL0     N71297   1.940   8.719   4.101  0.0684 -0.1870 -0.3551
  529MOL0     C71298   2.035   8.798   4.027  0.1735  1.1581 -0.7848
  529MOL0     C71299   1.975   8.819   3.914 -0.0884  0.8882 -0.5839
  529MOL0     C71300   2.013   8.918   3.809 -0.3771  0.5684  0.7934
  529MOL0     C71301   2.168   8.939   3.800 -0.2783 -0.7193  0.8210
  529MOL0     C71302   2.207   9.037   3.695 -0.5711 -0.0882 -1.0268
  529MOL0     C71303   2.358   9.067   3.683  0.1964  1.4436 -0.0730
  529MOL0     O71304   2.413   8.947   3.628 -0.0071  1.2398  0.1876
  529MOL0     C71305   2.543   8.960   3.576  0.6866  0.2635  0.1560
  529MOL0     C71306   2.648   9.035   3.638  0.2523 -0.1077 -0.1866
  529MOL0     C71307   2.763   9.064   3.566  0.5104  0.5747  0.0107
  529MOL0     C71308   2.871   9.157   3.636  0.3788  0.5738 -1.1436
  529MOL0     C71309   2.788   8.994   3.444 -0.4959 -0.0676 -0.6886
  529MOL0     C71310   2.907   9.017   3.360 -0.8631 -0.5920  1.1041
  529MOL0     O71311   3.015   9.097   3.398  0.6008 -0.1187  0.1488
  529MOL0     C71312   3.128   9.106   3.325 -0.1204  0.0949 -0.5379
  529MOL0     C71313   3.250   9.103   3.394 -0.0699  0.0706  0.4564
  529MOL0     C71314   3.374   9.127   3.330  0.2232  0.9216 -0.1430
  529MOL0     C71315   3.369   9.123   3.193 -1.1272 -0.3584  0.7912
  529MOL0     O71316   3.497   9.124   3.137 -0.3092  0.2337 -0.7501
  529MOL0     C71317   3.524   9.186   3.005  0.4458  0.1321 -0.6348
  529MOL0     C71318   3.635   9.281   3.013 -0.5937 -0.8723  0.1041
  529MOL0     C71319   3.656   9.363   2.889  0.6328 -0.3143 -0.0301
  529MOL0     C71320   3.793   9.420   2.860  0.0364 -0.0837 -0.2719
  529MOL0     C71321   3.868   9.347   2.752  0.1225  0.0154 -0.5337
  529MOL0     C71322   4.024   9.384   2.773 -0.4073  0.3647  0.2455
  529MOL0     C71323   4.125   9.283   2.713 -0.7502 -0.3431  0.0670
  529MOL0     C71324   4.269   9.336   2.682 -0.6988 -0.7139 -0.0698
  529MOL0    Cl71325   4.392   9.215   2.685  0.1391 -0.2081  0.3642
  529MOL0     C71326   3.249   9.126   3.124  0.6487 -0.3281  0.6596
  529MOL0     C71327   3.124   9.118   3.186  0.5012  1.2241  0.0526
  529MOL0     O71328   2.906   8.952   3.260 -0.6453  1.0366  0.4189
  529MOL0     C71329   2.688   8.911   3.396  0.3298 -0.5185  0.2311
  529MOL0     C71330   2.568   8.883   3.460  0.8721  0.0016  0.4111
  529MOL0     N71331   1.870   8.740   3.901 -0.6190  0.9751  0.4749
  529MOL0     N71332   1.844   8.677   4.019 -0.2075  0.2946 -0.2305
  529MOL0     C71333   1.749   8.411   5.334 -0.5416 -0.4799 -0.8169
  529MOL0     C71334   1.677   8.449   5.449 -0.1340  1.0692 -0.0881
  529MOL0     C71335   1.289   8.539   5.681  0.2821  0.1999 -0.1158
  529MOL0     C71336   1.176   8.471   5.724  0.7939  1.1486 -0.5957
  529MOL0     C71337   1.101   8.503   5.838  0.8020 -0.0715 -0.0555
  529MOL0     C71338   1.138   8.608   5.920  0.2500 -1.2538  0.1355
  529MOL0     O71339   1.066   8.638   6.028 -1.0492  0.4339 -1.4267
  529MOL0     C71340   0.925   8.591   6.041  0.5032 -0.4686 -0.2132
  529MOL0     C71341   0.852   8.663   6.154  0.1740 -0.3424 -1.0700
  529MOL0     C71342   0.905   8.803   6.179  0.1311 -0.0099 -0.0598
  529MOL0     C71343   0.828   8.875   6.281  0.1866 -0.3279  0.1791
  529MOL0     C71344   0.852   8.849   6.426 -0.1986  0.6182 -0.8334
  529MOL0     C71345   0.895   8.820   6.541 -0.0122 -1.1740 -0.1012
  529MOL0     C71346   1.250   8.682   5.879 -0.0799 -0.4773  0.3788
  529MOL0     C71347   1.324   8.642   5.763 -1.0691 -0.4819  0.5310
  529MOL0     H71348   1.423   8.614   5.306 -0.1038  0.4164  4.4455
  529MOL0     H71349   1.587   8.578   5.098  0.9795  0.4908 -0.4054
  529MOL0     H71350   1.702   8.491   4.946 -0.3557  1.4202  0.6965
  529MOL0     H71351   1.793   8.623   5.028 -2.1025  0.2273  0.9380
  529MOL0     H71352   2.013   8.526   4.932  0.7656 -0.5042 -2.4918
  529MOL0     H71353   1.928   8.383   4.882 -1.1154 -0.3683 -1.1036
  529MOL0     H71354   1.778   8.532   4.725 -0.8953  0.0422  2.3388
  529MOL0     H71355   1.865   8.669   4.790  0.1223 -0.2980  1.2210
  529MOL0     H71356   2.083   8.590   4.715  0.9727 -4.4923  0.9322
  529MOL0     H71357   2.002   8.457   4.638 -0.8877  1.1867 -1.4215
  529MOL0     H71358   1.867   8.591   4.496 -0.4762 -0.8529  1.1590
  529MOL0     H71359   1.907   8.741   4.576  1.1035  0.9367 -1.8180
  529MOL0     H71360   2.144   8.730   4.515  0.0367  1.0756 -1.8675
  529MOL0     H71361   2.116   8.578   4.429  3.6238  1.5269  0.0368
  529MOL0     H71362   1.973   8.841   4.365  2.2548  1.4498 -0.1628
  529MOL0     H71363   2.123   8.790   4.292  3.0123 -0.4986  4.1642
  529MOL0     H71364   1.841   8.646   4.254 -0.0856  1.1502 -0.5418
  529MOL0     H71365   2.000   8.568   4.221 -1.3481 -1.0015 -2.3668
  529MOL0     H71366   2.127   8.828   4.075  1.1915 -0.6976 -1.4615
  529MOL0     H71367   1.972   8.892   3.711 -0.8645  0.8060  0.9310
  529MOL0     H71368   1.976   9.017   3.835  2.4633  1.1306  3.2544
  529MOL0     H71369   2.232   8.852   3.784  2.0887  0.3142  3.6949
  529MOL0     H71370   2.199   8.980   3.897  1.1445 -2.6188  1.2251
  529MOL0     H71371   2.150   9.130   3.708  1.7362  1.3801 -0.8358
  529MOL0     H71372   2.176   9.003   3.595 -1.1813  0.5555 -1.0699
  529MOL0     H71373   2.398   9.082   3.784 -3.2816 -1.9606  2.1136
  529MOL0     H71374   2.382   9.155   3.623  2.4232 -0.4044 -2.1392
  529MOL0     H71375   2.632   9.090   3.730 -0.4527  0.0268 -0.3878
  529MOL0     H71376   2.899   9.242   3.572 -3.9678  0.9750 -2.8772
  529MOL0     H71377   2.849   9.202   3.733 -0.2899 -2.3930  0.1844
  529MOL0     H71378   2.954   9.091   3.662  2.4788  4.6239  4.5819
  529MOL0     H71379   3.253   9.097   3.502 -1.0555  2.4615  0.6951
  529MOL0     H71380   3.451   9.123   3.406 -0.5764  0.3607  0.6653
  529MOL0     H71381   3.538   9.109   2.929 -1.7752 -3.0286  1.9033
  529MOL0     H71382   3.431   9.235   2.974  0.3745 -2.1596 -4.7687
  529MOL0     H71383   3.628   9.357   3.091 -1.3623 -0.9555  0.1172
  529MOL0     H71384   3.726   9.224   3.034 -0.4046 -0.8504 -0.6334
  529MOL0     H71385   3.593   9.451   2.907 -1.3767 -1.8318  0.6733
  529MOL0     H71386   3.615   9.312   2.801  1.3176  1.4520 -1.4376
  529MOL0     H71387   3.789   9.526   2.832 -2.8383  0.3484  1.4763
  529MOL0     H71388   3.844   9.419   2.957  2.3579 -1.3807 -1.4136
  529MOL0     H71389   3.830   9.375   2.653 -2.8719  2.2880  1.0652
  529MOL0     H71390   3.854   9.239   2.765  0.1708 -0.5394 -3.9785
  529MOL0     H71391   4.051   9.479   2.725  0.3514 -0.8713 -1.9127
  529MOL0     H71392   4.053   9.384   2.878 -0.8745 -1.1075  0.3898
  529MOL0     H71393   4.084   9.262   2.614 -1.0016  1.8209 -0.3380
  529MOL0     H71394   4.145   9.196   2.777  2.3508  0.5600  0.4819
  529MOL0     H71395   4.291   9.392   2.773 -0.0782 -2.8265  1.1644
  529MOL0     H71396   4.271   9.393   2.588  1.4620  1.2042  1.0445
  529MOL0     H71397   3.252   9.114   3.016  1.1433 -1.9015  0.8344
  529MOL0     H71398   3.028   9.126   3.136 -0.2746  1.3248  1.5084
  529MOL0     H71399   2.701   8.853   3.305 -1.9451 -1.0193  0.1697
  529MOL0     H71400   2.490   8.824   3.414 -0.6464  1.0330  1.5840
  529MOL0     H71401   1.827   8.335   5.340 -1.1335 -1.3292 -2.9847
  529MOL0     H71402   1.694   8.397   5.543 -0.7772  0.7451 -0.1481
  529MOL0     H71403   1.136   8.392   5.660  0.1184  2.9358 -2.5050
  529MOL0     H71404   1.015   8.442   5.867  0.4740 -0.2247 -1.2687
  529MOL0     H71405   0.868   8.621   5.953  0.6086  1.0990  0.2319
  529MOL0     H71406   0.914   8.483   6.057  1.5214 -0.8940 -2.0946
  529MOL0     H71407   0.877   8.604   6.243  2.7377  1.3451 -0.5487
  529MOL0     H71408   0.743   8.663   6.144  0.2681 -0.6584 -2.2551
  529MOL0     H71409   0.896   8.865   6.089 -3.0133 -1.0077 -0.5152
  529MOL0     H71410   1.013   8.802   6.197  1.1034  0.5582 -4.5156
  529MOL0     H71411   0.721   8.863   6.261  0.3185  1.1585 -1.6717
  529MOL0     H71412   0.867   8.974   6.258  2.9954 -1.6682 -1.3861
  529MOL0     H71413   0.922   8.786   6.638  0.7324  1.1220  0.5540
  529MOL0     H71414   1.292   8.761   5.940  1.9160 -2.3247  1.4888
  529MOL0     H71415   1.410   8.704   5.739 -0.9604 -0.5908  0.6375
  530MOL0     O71416  10.334   4.609   0.926 -0.0637  0.4448 -0.5107
  530MOL0     C71417  10.272   4.671   0.844  0.1160 -0.5182  0.0110
  530MOL0     O71418  10.331   4.754   0.760 -0.2179 -0.8674 -0.4987
  530MOL0     C71419  10.464   4.743   0.719  1.3388 -0.0443 -0.0499
  530MOL0     C71420  10.544   4.847   0.711 -0.6631 -0.0531 -0.0387
  530MOL0     C71421  10.682   4.833   0.678 -0.5447  0.2556 -0.0246
  530MOL0     C71422  10.729   4.701   0.653 -0.3816  0.2472  0.3173
  530MOL0     O71423  10.865   4.691   0.622  0.5755 -0.2096 -0.4278
  530MOL0     C71424  10.918   4.563   0.658  0.8834 -0.1414  0.1401
  530MOL0     C71425  11.059   4.570   0.592 -0.3369 -0.4555 -0.0649
  530MOL0     C71426  11.151   4.664   0.675  0.0243  0.2881 -0.7219
  530MOL0     C71427  11.272   4.699   0.593  0.3989 -0.1907 -0.3543
  530MOL0     C71428  11.349   4.823   0.647  0.1776 -0.2742  0.7364
  530MOL0     C71429  11.482   4.833   0.564  0.7206  0.0213  0.3778
  530MOL0     C71430  11.550   4.971   0.611  1.3000  1.3306 -0.0740
  530MOL0     C71431  11.663   4.999   0.518 -0.0147 -0.3619 -0.9065
  530MOL0     N71432  11.737   5.124   0.562  1.0102 -0.0814  0.8628
  530MOL0     C71433  11.781   5.152   0.691 -0.0067 -0.8467 -0.4965
  530MOL0     C71434  11.813   5.283   0.679  0.5048 -0.0347  0.2222
  530MOL0     C71435  11.859   5.387   0.772 -0.4083 -0.6858 -0.1268
  530MOL0     C71436  11.811   5.391   0.914 -0.1069  0.0193  0.4147
  530MOL0     C71437  11.666   5.452   0.915 -0.0931 -0.0684 -0.3131
  530MOL0     C71438  11.578   5.387   1.019  0.1155  0.7921 -1.0552
  530MOL0     O71439  11.503   5.284   0.956 -0.0032  0.6715 -0.0133
  530MOL0     C71440  11.374   5.267   1.000 -0.6159  0.2133 -0.8537
  530MOL0     C71441  11.314   5.188   0.913  0.3787  1.0052 -0.7857
  530MOL0     C71442  11.177   5.156   0.915 -0.7967  0.0674 -0.7604
  530MOL0     C71443  11.121   5.072   0.800  1.3393 -0.0616 -0.0650
  530MOL0     C71444  11.108   5.216   1.018  0.2300  0.3566 -0.4681
  530MOL0     C71445  10.966   5.187   1.033  0.1587  0.2189  0.0181
  530MOL0     O71446  10.922   5.065   0.989  0.7724  0.2566  0.2239
  530MOL0     C71447  10.793   5.035   1.013  0.2460 -0.3644  0.4500
  530MOL0     C71448  10.688   5.122   0.968 -0.1593  0.6070  0.5693
  530MOL0     C71449  10.554   5.076   0.984 -0.9543 -1.0395 -0.6992
  530MOL0     C71450  10.528   4.958   1.064  0.3221 -0.4350 -0.0137
  530MOL0     O71451  10.407   4.919   1.104  0.6271  0.9664  0.5305
  530MOL0     C71452  10.307   5.006   1.121  0.0803  0.3201 -0.1148
  530MOL0     C71453  10.308   5.096   1.244  0.3025  0.3747  0.8196
  530MOL0     C71454  10.183   5.194   1.255  0.2502 -0.1390  0.3250
  530MOL0     C71455  10.182   5.278   1.385 -0.5176 -0.2423  0.0820
  530MOL0     C71456  10.044   5.339   1.405  0.1487  0.1585  0.9992
  530MOL0     C71457  10.006   5.374   1.551 -0.1006  0.0339  0.5677
  530MOL0     C71458  10.092   5.477   1.609  0.2530 -1.1187 -0.1795
  530MOL0     C71459  10.091   5.484   1.767  0.0366 -0.1303  0.5692
  530MOL0    Cl71460   9.994   5.622   1.835 -0.3084 -0.6590  0.1228
  530MOL0     C71461  10.631   4.875   1.097 -0.2798  0.1267  0.2307
  530MOL0     C71462  10.763   4.914   1.074  0.5702  0.7882  0.1529
  530MOL0     O71463  10.902   5.266   1.108  0.1803 -0.5249 -0.9213
  530MOL0     C71464  11.174   5.312   1.109 -0.4950  0.0502 -0.2174
  530MOL0     C71465  11.305   5.338   1.094 -0.1794 -1.0270  0.0371
  530MOL0     N71466  11.778   5.331   0.557 -0.1465 -0.3041 -0.0157
  530MOL0     N71467  11.741   5.234   0.485  0.8075 -0.9615 -0.4548
  530MOL0     C71468  10.642   4.588   0.647 -0.3028  0.4262 -0.4811
  530MOL0     C71469  10.515   4.615   0.685 -0.4762 -0.1241  0.3381
  530MOL0     C71470  10.135   4.680   0.841  0.2101  0.9966 -0.3017
  530MOL0     C71471  10.065   4.782   0.767 -0.6420 -0.8072  0.4438
  530MOL0     C71472   9.935   4.816   0.796 -0.3342 -0.7548  0.5945
  530MOL0     C71473   9.856   4.746   0.884 -0.8122  0.3469 -0.2597
  530MOL0     O71474   9.721   4.766   0.913  0.6649  0.2702 -0.5702
  530MOL0     C71475   9.635   4.839   0.829  0.1448 -0.4029  0.3181
  530MOL0     C71476   9.515   4.871   0.920 -1.1280 -0.7288  0.2483
  530MOL0     C71477   9.430   4.969   0.846  0.4964  0.1439  0.5948
  530MOL0     C71478   9.344   5.058   0.935 -0.2827 -0.4453  0.8156
  530MOL0     C71479   9.331   5.199   0.877 -0.0630  0.7652 -0.3591
  530MOL0     C71480   9.339   5.315   0.825  0.3763 -0.8536  0.1971
  530MOL0     C71481   9.919   4.641   0.957 -0.3940  0.0841 -0.6446
  530MOL0     C71482  10.054   4.618   0.939 -0.1892  0.4137 -0.5195
  530MOL0     H71483  10.492   4.940   0.733 -1.1956 -0.5848  1.0597
  530MOL0     H71484  10.744   4.922   0.680 -1.5061  0.9214  1.5150
  530MOL0     H71485  10.925   4.548   0.766  6.1054  3.6921  0.7656
  530MOL0     H71486  10.865   4.478   0.616 -0.7342  0.0011  1.7665
  530MOL0     H71487  11.099   4.467   0.590  0.1170 -0.2775 -0.3790
  530MOL0     H71488  11.053   4.614   0.493  2.5280 -0.8194 -0.5086
  530MOL0     H71489  11.090   4.753   0.696 -0.1191 -0.0026  0.1444
  530MOL0     H71490  11.192   4.632   0.772 -2.2803  0.2406  0.3118
  530MOL0     H71491  11.343   4.618   0.577  0.1606 -0.4975  0.1049
  530MOL0     H71492  11.241   4.732   0.494  2.1408  0.3370 -0.7589
  530MOL0     H71493  11.295   4.917   0.632 -2.6185 -1.7430  0.9831
  530MOL0     H71494  11.373   4.814   0.753  0.7967  0.0334  0.6282
  530MOL0     H71495  11.546   4.745   0.563  0.1317 -0.4242 -0.9753
  530MOL0     H71496  11.460   4.827   0.457  2.0651 -1.1995  0.1581
  530MOL0     H71497  11.479   5.054   0.612  1.0738  1.1892  2.5269
  530MOL0     H71498  11.585   4.961   0.714  1.0192 -1.1566 -0.1620
  530MOL0     H71499  11.624   5.016   0.418  0.0197  1.5374 -0.6269
  530MOL0     H71500  11.730   4.913   0.523  0.3798 -0.1198 -1.8352
  530MOL0     H71501  11.788   5.095   0.783  1.4361  1.5310  0.9706
  530MOL0     H71502  11.964   5.362   0.785 -0.6729 -0.6824  2.5148
  530MOL0     H71503  11.851   5.489   0.732  2.4566  0.5432  2.0637
  530MOL0     H71504  11.878   5.449   0.979  0.0407  0.0142  0.2683
  530MOL0     H71505  11.811   5.289   0.953  0.8228 -0.0240  0.3430
  530MOL0     H71506  11.618   5.449   0.816  1.0563 -0.3436 -0.8796
  530MOL0     H71507  11.664   5.558   0.944 -0.6753 -0.0955 -0.2447
  530MOL0     H71508  11.517   5.462   1.070 -1.9395 -0.1973 -1.9446
  530MOL0     H71509  11.652   5.347   1.090 -1.5429  1.7948  1.3696
  530MOL0     H71510  11.367   5.143   0.830  1.3689 -0.6014  0.6420
  530MOL0     H71511  11.180   5.073   0.709 -0.8666  0.6614 -1.5534
  530MOL0     H71512  11.109   4.970   0.838  0.3779 -0.0602 -0.3226
  530MOL0     H71513  11.028   5.122   0.773  4.0131  4.3335 -2.1332
  530MOL0     H71514  10.721   5.202   0.903  2.9448 -0.2498  0.8855
  530MOL0     H71515  10.472   5.134   0.942  0.5683  0.0305 -2.3585
  530MOL0     H71516  10.280   5.056   1.027  1.0676 -1.5594 -1.4749
  530MOL0     H71517  10.225   4.933   1.128  0.2771 -0.2341 -2.5868
  530MOL0     H71518  10.311   5.040   1.338 -0.6265  0.0283  0.6502
  530MOL0     H71519  10.393   5.163   1.227 -1.0420  1.5967 -1.6781
  530MOL0     H71520  10.102   5.121   1.258  2.2609 -2.7269 -2.2900
  530MOL0     H71521  10.178   5.260   1.168 -0.2787  0.2002  0.6068
  530MOL0     H71522  10.211   5.215   1.470 -1.5029 -0.1155  0.5290
  530MOL0     H71523  10.260   5.351   1.364  1.5367 -2.9687 -2.8322
  530MOL0     H71524   9.964   5.272   1.372 -0.6501  1.3834  0.3416
  530MOL0     H71525  10.029   5.430   1.346 -2.2392 -1.1307 -0.4958
  530MOL0     H71526   9.905   5.413   1.565 -0.5648 -0.6727 -0.6746
  530MOL0     H71527  10.016   5.283   1.611 -1.1917 -1.0749 -0.8674
  530MOL0     H71528  10.072   5.576   1.568  0.2971 -1.1942 -0.3898
  530MOL0     H71529  10.198   5.468   1.582  0.3119  2.8049 -1.9432
  530MOL0     H71530  10.194   5.506   1.796  0.7039 -0.6940 -1.2804
  530MOL0     H71531  10.051   5.392   1.811  3.0552 -0.0328  4.0316
  530MOL0     H71532  10.612   4.777   1.139  0.3662 -1.2109 -2.3543
  530MOL0     H71533  10.857   4.870   1.107  0.3356 -0.6001 -0.9253
  530MOL0     H71534  11.116   5.374   1.177  0.9008  3.6680 -2.0978
  530MOL0     H71535  11.347   5.417   1.155  0.9881 -0.4722 -1.4219
  530MOL0     H71536  10.668   4.484   0.636  1.4086  0.5590  1.7353
  530MOL0     H71537  10.448   4.530   0.690  0.6200 -1.4375 -3.6805
  530MOL0     H71538  10.119   4.850   0.702 -2.2020  1.8578  1.8025
  530MOL0     H71539   9.892   4.903   0.748  0.6014  0.2654  1.5431
  530MOL0     H71540   9.689   4.930   0.801  0.3446 -1.3998 -3.0518
  530MOL0     H71541   9.608   4.802   0.729 -1.3390  2.4185 -0.4353
  530MOL0     H71542   9.552   4.913   1.015  0.1060 -0.7303 -0.2140
  530MOL0     H71543   9.454   4.783   0.941 -0.9324 -1.4168 -1.8569
  530MOL0     H71544   9.370   4.918   0.770  2.2520  0.1412 -0.8350
  530MOL0     H71545   9.484   5.032   0.775  0.1952  0.1923  0.4063
  530MOL0     H71546   9.383   5.053   1.037  1.6572 -0.1906  0.1295
  530MOL0     H71547   9.245   5.016   0.951 -1.1692 -0.1688 -2.9620
  530MOL0     H71548   9.332   5.411   0.777  0.6779 -0.8507  0.1552
  530MOL0     H71549   9.867   4.584   1.033 -0.5774  0.2617 -0.6358
  530MOL0     H71550  10.098   4.553   1.013 -2.0181  1.2601  1.4434
  531MOL0     O71551   2.323   8.028   9.741 -0.2171  0.8200  0.1219
  531MOL0     C71552   2.418   7.975   9.680 -0.3454 -0.3154 -0.1054
  531MOL0     O71553   2.522   8.040   9.615  0.1244  0.4087 -0.1526
  531MOL0     C71554   2.538   8.183   9.608  0.7244  0.1704 -0.0046
  531MOL0     C71555   2.645   8.229   9.536 -0.1020  1.0854  0.3839
  531MOL0     C71556   2.676   8.369   9.518  0.1971 -0.2069 -0.0452
  531MOL0     C71557   2.573   8.459   9.558 -0.6609 -0.8116 -0.4347
  531MOL0     O71558   2.576   8.592   9.539  0.3816 -1.3001 -0.2751
  531MOL0     C71559   2.665   8.651   9.446  0.5479  0.0842  0.5540
  531MOL0     C71560   2.651   8.804   9.423 -1.1145  0.0525 -0.0146
  531MOL0     C71561   2.702   8.893   9.529 -0.7637 -0.2555 -0.5809
  531MOL0     C71562   2.651   9.032   9.499 -0.8221 -0.1847 -0.4402
  531MOL0     C71563   2.698   9.144   9.590 -0.4410 -0.8121 -0.1564
  531MOL0     C71564   2.853   9.167   9.599  0.4004 -0.5204  0.0097
  531MOL0     C71565   2.896   9.284   9.683  0.1598  0.2711  0.1708
  531MOL0     C71566   2.835   9.419   9.631 -0.6276  0.4872 -0.7591
  531MOL0     N71567   2.886   9.446   9.497  0.4494 -0.9208 -0.5907
  531MOL0     C71568   3.014   9.482   9.471 -0.5830  0.2702 -0.8353
  531MOL0     C71569   3.022   9.491   9.334  0.7931  0.6529 -0.9456
  531MOL0     C71570   3.123   9.545   9.241  0.8071 -0.6399  0.2519
  531MOL0     C71571   3.115   9.702   9.251 -0.6335 -0.2021 -0.4341
  531MOL0     C71572   3.013   9.776   9.169 -0.3008 -1.4297  0.3002
  531MOL0     C71573   2.996   9.923   9.189 -0.7521 -0.3986 -0.6482
  531MOL0     O71574   3.119  10.002   9.177 -0.0519  0.3724 -0.1709
  531MOL0     C71575   3.105  10.134   9.199  0.7025 -0.4134 -0.2063
  531MOL0     C71576   2.984  10.206   9.206 -0.3904  0.5843  0.8342
  531MOL0     C71577   2.977  10.347   9.210 -0.0875 -0.4059 -0.9675
  531MOL0     C71578   2.843  10.416   9.195  0.3818  0.2169  0.0430
  531MOL0     C71579   3.098  10.425   9.222 -0.2179 -0.0364  0.7515
  531MOL0     C71580   3.104  10.572   9.201 -0.2604  0.3245  0.1046
  531MOL0     O71581   3.228  10.626   9.173 -0.3069  0.5047  0.4709
  531MOL0     C71582   3.250  10.762   9.176 -0.1416  0.3972 -0.7017
  531MOL0     C71583   3.208  10.853   9.076  0.2734  0.7767 -1.0376
  531MOL0     C71584   3.222  10.991   9.096 -0.4677  0.3281  0.0340
  531MOL0     C71585   3.272  11.043   9.211  0.1248 -0.0237 -0.4193
  531MOL0     O71586   3.277  11.175   9.209  0.7707  0.0909 -0.4363
  531MOL0     C71587   3.332  11.240   9.320  0.4026  0.2110  0.3778
  531MOL0     C71588   3.311  11.386   9.314  0.5272 -0.0752  0.5587
  531MOL0     C71589   3.409  11.448   9.218  0.2072 -0.1843  0.5027
  531MOL0     C71590   3.395  11.604   9.203  0.1182  1.5597  0.6715
  531MOL0     C71591   3.494  11.665   9.109 -0.7622 -0.3491  0.0279
  531MOL0     C71592   3.458  11.805   9.078 -0.0602 -0.3818  0.0329
  531MOL0     C71593   3.589  11.888   9.028  1.0926  0.7777 -0.6696
  531MOL0     C71594   3.678  11.934   9.142 -0.2269  0.1957 -0.6122
  531MOL0    Cl71595   3.599  12.058   9.241 -0.2828 -0.1560  0.0191
  531MOL0     C71596   3.321  10.956   9.308  1.1818 -0.1632  0.1934
  531MOL0     C71597   3.302  10.816   9.288  0.0140 -0.4691  0.1991
  531MOL0     O71598   2.999  10.644   9.215 -0.1665  0.2785 -0.0121
  531MOL0     C71599   3.215  10.347   9.241  0.3707  0.2136  0.7537
  531MOL0     C71600   3.217  10.207   9.241  0.5211 -0.6806 -0.3008
  531MOL0     N71601   2.901   9.454   9.279 -0.3216  0.0398 -0.0481
  531MOL0     N71602   2.820   9.433   9.377  0.1771 -0.8430 -0.0832
  531MOL0     C71603   2.472   8.415   9.645 -0.1767 -0.6838  0.2878
  531MOL0     C71604   2.452   8.285   9.669  0.5638 -1.0067  1.2673
  531MOL0     C71605   2.428   7.829   9.674  0.5884 -0.0098 -0.1705
  531MOL0     C71606   2.319   7.745   9.681 -0.7866 -0.2497 -0.4718
  531MOL0     C71607   2.334   7.607   9.652  0.1501  0.7656 -0.9293
  531MOL0     C71608   2.460   7.555   9.658  0.7351  0.7315 -0.3788
  531MOL0     O71609   2.462   7.418   9.656  0.4954  0.8124 -0.5148
  531MOL0     C71610   2.586   7.345   9.657 -0.8787 -0.7084  0.5967
  531MOL0     C71611   2.572   7.197   9.631  0.0409 -0.1227 -0.5395
  531MOL0     C71612   2.702   7.149   9.587 -0.3207 -0.6401 -0.3087
  531MOL0     C71613   2.691   7.044   9.471  0.8838 -0.1963  1.1025
  531MOL0     C71614   2.808   6.960   9.440  0.8451 -0.7021  0.3654
  531MOL0     C71615   2.909   6.895   9.444 -0.4971 -0.3136 -0.1746
  531MOL0     C71616   2.571   7.637   9.668 -0.0857 -0.6456 -0.0740
  531MOL0     C71617   2.559   7.770   9.672 -0.0962  0.5018 -0.4268
  531MOL0     H71618   2.718   8.151   9.517 -0.8148  0.5037 -0.0249
  531MOL0     H71619   2.759   8.386   9.451 -0.0904 -1.1914 -0.6823
  531MOL0     H71620   2.767   8.624   9.478  0.9077  1.5383  0.7375
  531MOL0     H71621   2.634   8.600   9.355  1.6411 -2.3582  1.4509
  531MOL0     H71622   2.707   8.823   9.331 -2.9834  0.0048 -1.2430
  531MOL0     H71623   2.548   8.837   9.406 -0.0054  2.8572 -2.1279
  531MOL0     H71624   2.675   8.856   9.628  0.1132 -2.6883 -1.1743
  531MOL0     H71625   2.810   8.907   9.524 -0.9350  1.4751  0.0966
  531MOL0     H71626   2.668   9.056   9.393  0.8987 -0.2686 -0.1999
  531MOL0     H71627   2.543   9.033   9.515 -0.6474  3.7205  1.5503
  531MOL0     H71628   2.661   9.236   9.543 -0.2052 -1.3733 -1.5039
  531MOL0     H71629   2.659   9.117   9.688 -0.6288  1.1668  0.3514
  531MOL0     H71630   2.910   9.079   9.630  0.2461 -1.0972 -1.2505
  531MOL0     H71631   2.889   9.176   9.496 -1.4495 -0.7478 -0.6923
  531MOL0     H71632   2.851   9.267   9.781  1.8996 -0.5523  0.8634
  531MOL0     H71633   3.005   9.294   9.691  0.4845 -2.3568 -0.2658
  531MOL0     H71634   2.875   9.494   9.699 -2.3360  0.2156  0.6057
  531MOL0     H71635   2.726   9.424   9.637 -0.4854  2.1148  2.5646
  531MOL0     H71636   3.099   9.484   9.539 -2.8771 -0.9365  2.3218
  531MOL0     H71637   3.220   9.502   9.266  1.7135  1.5201  0.7327
  531MOL0     H71638   3.101   9.511   9.140 -3.5983  2.9180 -0.3235
  531MOL0     H71639   3.219   9.734   9.239 -0.1844 -1.0784  0.9883
  531MOL0     H71640   3.089   9.732   9.353 -3.5887  2.4648 -1.7773
  531MOL0     H71641   2.918   9.724   9.164 -0.7796 -0.4588 -1.9317
  531MOL0     H71642   3.053   9.755   9.070 -0.0844 -3.7069  0.8236
  531MOL0     H71643   2.948   9.950   9.284  2.4613 -0.8138  1.2306
  531MOL0     H71644   2.927   9.960   9.113 -0.5474 -1.1539 -1.2178
  531MOL0     H71645   2.890  10.152   9.204  1.0646 -2.2604  2.5637
  531MOL0     H71646   2.827  10.467   9.290 -1.0707  0.9860 -0.5893
  531MOL0     H71647   2.840  10.491   9.116  2.6793 -0.4482 -0.7532
  531MOL0     H71648   2.767  10.337   9.197 -0.1937  0.7729  0.8829
  531MOL0     H71649   3.151  10.821   8.989 -2.3581  1.5764  0.2883
  531MOL0     H71650   3.195  11.062   9.017  0.4827  0.9594  0.2634
  531MOL0     H71651   3.294  11.212   9.419 -2.3966  0.4600 -0.5470
  531MOL0     H71652   3.439  11.222   9.310 -0.1211 -2.1200 -2.4348
  531MOL0     H71653   3.207  11.403   9.284 -0.1127  0.8043  3.0695
  531MOL0     H71654   3.315  11.434   9.412 -0.3832  0.5953  0.2907
  531MOL0     H71655   3.384  11.399   9.123 -1.7906  1.3829  0.1467
  531MOL0     H71656   3.513  11.423   9.244  1.2203  0.1963 -2.6504
  531MOL0     H71657   3.295  11.626   9.165  0.7212  0.0984 -1.9871
  531MOL0     H71658   3.395  11.658   9.299  0.1662  0.4776  1.2993
  531MOL0     H71659   3.502  11.611   9.014 -1.0961 -0.3698  0.0096
  531MOL0     H71660   3.592  11.667   9.158 -1.3805  1.7098  1.2708
  531MOL0     H71661   3.368  11.808   9.015 -0.8405 -1.1991  1.0916
  531MOL0     H71662   3.428  11.854   9.171 -3.0023  1.8667 -1.8884
  531MOL0     H71663   3.568  11.981   8.973  1.0601  2.1002  1.4539
  531MOL0     H71664   3.646  11.822   8.963 -0.7130 -1.2685 -0.3008
  531MOL0     H71665   3.772  11.961   9.093 -0.0817 -1.9595 -1.6644
  531MOL0     H71666   3.696  11.847   9.206 -2.3052 -1.6971 -2.4114
  531MOL0     H71667   3.364  10.993   9.400 -0.0334  2.5327 -0.2385
  531MOL0     H71668   3.326  10.751   9.372 -3.2470 -2.2418 -0.0929
  531MOL0     H71669   3.308  10.403   9.245 -0.2056  1.4087 -1.2063
  531MOL0     H71670   3.303  10.144   9.257  1.4576  0.7093  0.3335
  531MOL0     H71671   2.400   8.483   9.690  1.9734  2.1768 -0.2618
  531MOL0     H71672   2.366   8.267   9.732  1.2408 -1.3099  2.1336
  531MOL0     H71673   2.225   7.782   9.721 -2.0112 -1.2645 -2.2424
  531MOL0     H71674   2.258   7.532   9.636  1.7987 -1.1631 -0.1723
  531MOL0     H71675   2.648   7.404   9.590 -2.9553  0.1728 -0.6405
  531MOL0     H71676   2.627   7.353   9.758 -2.3520 -1.8685  1.3403
  531MOL0     H71677   2.492   7.175   9.560 -0.3143  1.4085 -0.6386
  531MOL0     H71678   2.543   7.156   9.728  1.0261  1.7751  0.6183
  531MOL0     H71679   2.739   7.096   9.674 -0.5588 -2.2000 -1.1197
  531MOL0     H71680   2.755   7.240   9.555 -2.0818  1.7222  2.9232
  531MOL0     H71681   2.657   7.099   9.383 -2.1562 -1.3145  1.4590
  531MOL0     H71682   2.606   6.978   9.494 -2.6517  3.5693  0.0538
  531MOL0     H71683   3.000   6.840   9.454 -3.0019 -4.7717  0.4992
  531MOL0     H71684   2.669   7.592   9.671  0.1037 -0.2170  0.2468
  531MOL0     H71685   2.646   7.835   9.676  0.8336 -0.7146 -0.1824
  532MOL0     O71686   0.922   6.176  10.952 -0.1305 -0.0468 -0.0135
  532MOL0     C71687   0.860   6.166  10.845  1.2862  1.5256  0.3020
  532MOL0     O71688   0.736   6.098  10.826 -0.0119  0.4854  0.2801
  532MOL0     C71689   0.675   6.086  10.942  0.3048  0.4317 -0.5650
  532MOL0     C71690   0.643   5.958  11.002  0.5347 -0.5581  0.0532
  532MOL0     C71691   0.577   5.953  11.133  0.1932  1.0923 -0.1143
  532MOL0     C71692   0.542   6.070  11.198  0.6329 -0.7543  0.0180
  532MOL0     O71693   0.481   6.080  11.323 -0.1403 -0.4306  0.3240
  532MOL0     C71694   0.416   5.977  11.400 -0.6208 -0.3008  0.4791
  532MOL0     C71695   0.272   5.943  11.388  0.2362  0.6761 -0.2430
  532MOL0     C71696   0.240   5.839  11.272 -1.0280 -0.7782 -0.0234
  532MOL0     C71697   0.188   5.904  11.139  0.1428 -0.0889 -0.2482
  532MOL0     C71698   0.160   5.799  11.041 -0.2422  0.3025  0.8461
  532MOL0     C71699   0.086   5.869  10.922  0.0695  0.1610 -0.6030
  532MOL0     C71700   0.037   5.765  10.822 -0.0658  0.6830  0.9440
  532MOL0     C71701  -0.055   5.814  10.713  0.9653 -0.4748  0.0382
  532MOL0     N71702  -0.096   5.707  10.620 -0.5686 -0.2781  0.9798
  532MOL0     C71703  -0.225   5.687  10.568  0.3951  0.4610 -0.1612
  532MOL0     C71704  -0.208   5.588  10.485 -0.6004  0.8965 -0.1192
  532MOL0     C71705  -0.307   5.527  10.388 -0.6739 -0.7872  0.1285
  532MOL0     C71706  -0.285   5.604  10.248  0.7756 -0.3574 -0.4095
  532MOL0     C71707  -0.391   5.590  10.140 -0.4223  0.1491 -0.9426
  532MOL0     C71708  -0.323   5.567  10.003  0.5398 -0.6086 -0.7760
  532MOL0     O71709  -0.299   5.429   9.975  0.6583  0.6887  0.7994
  532MOL0     C71710  -0.367   5.353   9.888 -0.0411  0.4657 -0.5600
  532MOL0     C71711  -0.457   5.400   9.794 -0.5489  0.1566 -0.2826
  532MOL0     C71712  -0.521   5.318   9.694 -0.5103  1.1414  0.4208
  532MOL0     C71713  -0.616   5.385   9.596  0.7697 -0.2429 -0.2370
  532MOL0     C71714  -0.489   5.177   9.710  0.6765  0.0526  0.6658
  532MOL0     C71715  -0.550   5.079   9.620  0.0026  1.1240  0.0755
  532MOL0     O71716  -0.548   4.942   9.664  0.3744 -0.1793  0.3561
  532MOL0     C71717  -0.615   4.864   9.567  0.2121  1.1741 -0.1179
  532MOL0     C71718  -0.746   4.871   9.539  0.1992 -0.5403 -1.0479
  532MOL0     C71719  -0.820   4.782   9.453  0.7122  0.5019 -0.4354
  532MOL0     C71720  -0.743   4.692   9.373 -0.0783  0.0284 -0.2742
  532MOL0     O71721  -0.784   4.597   9.280  0.9024 -0.3491  0.1613
  532MOL0     C71722  -0.922   4.614   9.243 -0.4097  0.4006 -0.2000
  532MOL0     C71723  -0.946   4.523   9.119  0.2202 -0.5038 -0.0875
  532MOL0     C71724  -0.890   4.591   9.001 -0.0282 -0.6024  1.0975
  532MOL0     C71725  -0.966   4.566   8.870 -0.6816  0.0605  0.2005
  532MOL0     C71726  -0.966   4.420   8.833 -0.5063 -0.6914 -0.2828
  532MOL0     C71727  -1.004   4.420   8.688 -0.0528 -0.2804 -0.0093
  532MOL0     C71728  -1.019   4.285   8.632 -0.8491  0.3680  0.3167
  532MOL0     C71729  -1.046   4.284   8.482  1.4976 -0.0328 -0.4444
  532MOL0    Cl71730  -1.166   4.405   8.427 -0.2624 -0.2071  0.6705
  532MOL0     C71731  -0.600   4.687   9.389  0.6183  0.2509 -0.2468
  532MOL0     C71732  -0.543   4.770   9.483  0.1385 -0.0984 -0.1985
  532MOL0     O71733  -0.596   5.112   9.517 -0.1090 -0.2551 -0.1538
  532MOL0     C71734  -0.386   5.121   9.792  0.4221  0.6217 -0.2269
  532MOL0     C71735  -0.333   5.212   9.878 -0.1307  0.0046  0.1480
  532MOL0     N71736  -0.074   5.554  10.475 -0.1705 -0.0461  0.2716
  532MOL0     N71737  -0.011   5.613  10.568 -0.3741  0.3085  0.0405
  532MOL0     C71738   0.570   6.196  11.133 -0.4402  0.5198  0.3858
  532MOL0     C71739   0.630   6.200  11.015 -0.4331 -0.6154  0.0232
  532MOL0     C71740   0.918   6.232  10.728 -0.5860 -0.5039 -0.3517
  532MOL0     C71741   0.831   6.276  10.622 -0.1894  0.6070 -0.4469
  532MOL0     C71742   0.870   6.348  10.514 -0.1439  0.3143  0.8786
  532MOL0     C71743   1.003   6.382  10.497 -0.9274  0.5805 -0.5885
  532MOL0     O71744   1.050   6.441  10.393 -0.0445 -0.3113 -0.0363
  532MOL0     C71745   0.966   6.486  10.285 -0.3707 -0.4604 -0.1161
  532MOL0     C71746   1.061   6.559  10.182  1.1329 -0.8415  0.7391
  532MOL0     C71747   1.145   6.462  10.109  0.4019  0.1883 -0.2172
  532MOL0     C71748   1.239   6.535  10.010 -0.3916  0.1867 -0.0751
  532MOL0     C71749   1.253   6.483   9.871  0.1103  0.5238  0.8113
  532MOL0     C71750   1.258   6.423   9.770 -0.6499 -0.6666  0.7586
  532MOL0     C71751   1.088   6.355  10.611  0.0536  0.0732  0.3886
  532MOL0     C71752   1.050   6.279  10.727  1.0694 -0.0049 -0.3088
  532MOL0     H71753   0.671   5.869  10.946 -0.6872 -0.6990 -0.3582
  532MOL0     H71754   0.559   5.862  11.188  0.0311  1.8150  1.0590
  532MOL0     H71755   0.477   5.886  11.401 -1.5288 -0.9433  2.0756
  532MOL0     H71756   0.427   6.006  11.505 -1.6114  1.1042  0.2273
  532MOL0     H71757   0.252   5.893  11.483 -0.2558  3.5927  1.2918
  532MOL0     H71758   0.217   6.037  11.390 -1.9085 -0.1671  6.6909
  532MOL0     H71759   0.338   5.791  11.258 -0.7346 -0.4252  0.7550
  532MOL0     H71760   0.166   5.765  11.303 -1.3867 -0.1622  0.6079
  532MOL0     H71761   0.096   5.957  11.167 -0.8227 -2.2335  0.9657
  532MOL0     H71762   0.258   5.976  11.097  1.0820 -1.0161 -0.3216
  532MOL0     H71763   0.258   5.758  11.016  0.0583  1.3826  0.2349
  532MOL0     H71764   0.093   5.724  11.085  1.2088 -0.9379  1.0029
  532MOL0     H71765  -0.005   5.906  10.970 -0.2633 -2.7512  1.2257
  532MOL0     H71766   0.148   5.949  10.880 -2.4951  2.0901 -0.9452
  532MOL0     H71767   0.122   5.723  10.767  0.5119  1.4816  1.2054
  532MOL0     H71768  -0.011   5.683  10.876  1.4487 -0.6831  0.2962
  532MOL0     H71769   0.010   5.876  10.650  1.4391 -0.4312  0.5621
  532MOL0     H71770  -0.130   5.874  10.764  0.8395 -1.9883  1.7369
  532MOL0     H71771  -0.317   5.740  10.588  0.3414 -0.2081  1.5549
  532MOL0     H71772  -0.280   5.421  10.378 -1.5987 -1.0543  0.4179
  532MOL0     H71773  -0.411   5.525  10.421 -0.4199  0.1700  1.0476
  532MOL0     H71774  -0.187   5.571  10.210  1.3393 -1.3077  1.7137
  532MOL0     H71775  -0.278   5.711  10.270 -2.5805 -0.2584  0.5993
  532MOL0     H71776  -0.456   5.678  10.137 -0.1422  0.5716  2.0636
  532MOL0     H71777  -0.448   5.498  10.158 -1.4923  1.2026  1.5198
  532MOL0     H71778  -0.231   5.625   9.989 -0.5496  1.2117 -0.7876
  532MOL0     H71779  -0.384   5.608   9.922  0.2957  2.7200  0.9235
  532MOL0     H71780  -0.499   5.499   9.785 -1.5539 -0.4638 -4.8844
  532MOL0     H71781  -0.626   5.492   9.619 -0.5706 -0.4434  0.1988
  532MOL0     H71782  -0.573   5.376   9.496  0.9310  1.3334 -0.3355
  532MOL0     H71783  -0.720   5.351   9.604  1.5247 -2.2151  2.4389
  532MOL0     H71784  -0.806   4.944   9.593  3.4565  1.0396  0.7351
  532MOL0     H71785  -0.927   4.781   9.471  1.0312  1.0244  1.6834
  532MOL0     H71786  -0.983   4.601   9.333  0.4930  2.0572  0.7107
  532MOL0     H71787  -0.930   4.720   9.217  1.1566  0.9318  1.3173
  532MOL0     H71788  -0.898   4.426   9.134 -0.1350 -0.1637  4.9916
  532MOL0     H71789  -1.054   4.512   9.104  0.1427 -0.5994  0.5376
  532MOL0     H71790  -0.783   4.569   8.992 -0.0317  0.1588 -2.3271
  532MOL0     H71791  -0.897   4.700   9.010 -1.3378 -0.8028  3.1348
  532MOL0     H71792  -1.069   4.604   8.874 -0.3293  0.9996  0.4049
  532MOL0     H71793  -0.912   4.619   8.791  0.6221 -0.7046  0.5539
  532MOL0     H71794  -1.030   4.363   8.901  0.3409  0.3859  1.4947
  532MOL0     H71795  -0.864   4.383   8.826 -1.2663 -3.0607  0.3958
  532MOL0     H71796  -1.095   4.479   8.676  0.4101 -0.0129 -2.5679
  532MOL0     H71797  -0.936   4.472   8.621 -1.6482 -1.1104 -2.4302
  532MOL0     H71798  -1.102   4.226   8.672  0.0130 -1.6713 -0.7337
  532MOL0     H71799  -0.930   4.223   8.644  0.1061  1.2462 -1.6517
  532MOL0     H71800  -1.090   4.187   8.458  2.3612 -0.0039 -2.2853
  532MOL0     H71801  -0.960   4.306   8.419  0.5320  1.8611 -1.1969
  532MOL0     H71802  -0.542   4.618   9.329 -0.0643 -1.0054  0.4979
  532MOL0     H71803  -0.436   4.758   9.495  0.0316 -2.8270 -1.3663
  532MOL0     H71804  -0.367   5.015   9.787 -2.4895 -0.0188  0.2596
  532MOL0     H71805  -0.243   5.169   9.921  0.5135 -1.8458 -2.7437
  532MOL0     H71806   0.539   6.282  11.191 -1.2064  1.6573 -1.6023
  532MOL0     H71807   0.640   6.290  10.956 -0.2016 -2.2163 -2.5656
  532MOL0     H71808   0.725   6.249  10.621 -0.1244 -0.6581  4.0535
  532MOL0     H71809   0.792   6.369  10.442 -0.1968  2.7439  1.5670
  532MOL0     H71810   0.919   6.398  10.241  1.2604 -0.8365 -1.1997
  532MOL0     H71811   0.892   6.562  10.313 -0.4190 -0.1669 -0.9843
  532MOL0     H71812   1.120   6.627  10.244 -2.3576  1.2514  2.0561
  532MOL0     H71813   1.004   6.614  10.107  0.5991 -3.0313 -0.5534
  532MOL0     H71814   1.067   6.412  10.049 -1.0103  2.0731 -0.0437
  532MOL0     H71815   1.186   6.393  10.183 -2.7414  0.5960  2.1261
  532MOL0     H71816   1.343   6.532  10.046  0.4448  5.1716 -1.2717
  532MOL0     H71817   1.196   6.635  10.003 -0.9233 -0.0708 -0.4826
  532MOL0     H71818   1.257   6.372   9.676  2.0560  2.8903 -1.4764
  532MOL0     H71819   1.188   6.399  10.615  0.3465 -0.3103 -1.6488
  532MOL0     H71820   1.119   6.251  10.806  0.3914 -1.7694 -0.3137
  533MOL0     O71821   4.969   9.647   1.280 -0.2477  0.4043 -1.0356
  533MOL0     C71822   4.905   9.575   1.200  0.1653 -0.3605  0.3181
  533MOL0     O71823   4.881   9.437   1.211  0.1205  0.3956  0.1770
  533MOL0     C71824   4.934   9.364   1.314 -1.6099  1.1990  0.3537
  533MOL0     C71825   5.024   9.395   1.417  0.0713 -0.0720  1.2093
  533MOL0     C71826   5.066   9.296   1.515 -1.1440  0.6252  0.0136
  533MOL0     C71827   5.010   9.169   1.503 -0.0013 -0.2635  0.0233
  533MOL0     O71828   5.038   9.084   1.611 -0.2271  0.9636 -0.1474
  533MOL0     C71829   4.941   8.988   1.655 -0.8667  0.3160 -0.0694
  533MOL0     C71830   4.967   8.842   1.617 -0.5043  0.0290 -0.9383
  533MOL0     C71831   4.914   8.805   1.478 -0.8509 -0.4813 -0.6919
  533MOL0     C71832   4.935   8.657   1.454 -0.1534 -0.0267 -0.6445
  533MOL0     C71833   4.893   8.609   1.313 -0.8367 -0.4262  0.2370
  533MOL0     C71834   4.738   8.586   1.291 -0.2657 -0.1931 -0.7453
  533MOL0     C71835   4.703   8.563   1.147 -0.8556 -0.2230  0.0879
  533MOL0     C71836   4.761   8.425   1.089  0.0748 -0.2244 -0.0587
  533MOL0     N71837   4.754   8.403   0.948  1.1885  0.0702  0.5001
  533MOL0     C71838   4.746   8.504   0.856  0.7387  1.0747  0.8262
  533MOL0     C71839   4.773   8.446   0.726 -0.0609  0.2402  0.2006
  533MOL0     C71840   4.757   8.509   0.592 -0.1846 -0.1705 -0.0216
  533MOL0     C71841   4.862   8.437   0.479  0.6498  0.9324  0.3157
  533MOL0     C71842   4.838   8.483   0.332  0.0341 -0.5870 -0.6328
  533MOL0     C71843   4.863   8.386   0.220  0.1325  0.5909 -0.7418
  533MOL0     O71844   4.744   8.309   0.217 -0.1751  0.6699 -0.4145
  533MOL0     C71845   4.693   8.278   0.095 -0.4482 -0.0008  0.1985
  533MOL0     C71846   4.767   8.280  -0.031  0.5782  0.0378  0.1079
  533MOL0     C71847   4.699   8.231  -0.146 -0.4534 -0.0500 -0.2535
  533MOL0     C71848   4.771   8.248  -0.275 -0.6421  0.0669  0.2523
  533MOL0     C71849   4.567   8.186  -0.137 -0.8494 -0.1584  0.4213
  533MOL0     C71850   4.494   8.151  -0.261  0.3460 -0.8493  0.0486
  533MOL0     O71851   4.531   8.051  -0.341 -0.1166 -0.5738  0.3234
  533MOL0     C71852   4.486   8.049  -0.468 -0.7743 -0.1238  0.7540
  533MOL0     C71853   4.433   7.932  -0.520 -0.5805  0.9004  0.9887
  533MOL0     C71854   4.384   7.919  -0.655  0.3003 -0.1845 -0.2973
  533MOL0     C71855   4.377   8.035  -0.734 -0.5953 -0.0594 -0.4053
  533MOL0     O71856   4.337   8.031  -0.863 -0.3947  1.1149  0.5471
  533MOL0     C71857   4.437   7.982  -0.957  0.1866  0.1906 -0.1732
  533MOL0     C71858   4.555   8.076  -0.994  0.6047 -0.2342  0.3823
  533MOL0     C71859   4.636   8.003  -1.106  0.1737  0.9994 -0.7422
  533MOL0     C71860   4.712   8.110  -1.178 -1.0504 -0.6220  0.0863
  533MOL0     C71861   4.787   8.066  -1.301 -0.8519  0.4791  1.0672
  533MOL0     C71862   4.899   7.960  -1.273 -0.9114 -0.5545  0.1998
  533MOL0     C71863   4.998   7.980  -1.153  0.0584 -0.5411  0.4665
  533MOL0     C71864   5.096   7.864  -1.104 -0.2348  0.1434 -0.6361
  533MOL0    Cl71865   5.243   7.951  -1.027  0.2516 -0.3418  0.0387
  533MOL0     C71866   4.439   8.142  -0.686 -0.0434 -1.2556 -0.9574
  533MOL0     C71867   4.493   8.152  -0.556 -0.5769 -0.3085  0.3311
  533MOL0     O71868   4.406   8.231  -0.288 -0.1909 -0.5702 -0.4518
  533MOL0     C71869   4.501   8.167  -0.013  0.9591 -0.7855 -0.3144
  533MOL0     C71870   4.574   8.209   0.099  0.9363  0.3603 -0.0918
  533MOL0     N71871   4.785   8.312   0.750  0.0846  0.2611 -0.4907
  533MOL0     N71872   4.774   8.289   0.881 -0.3341 -0.8187 -0.1101
  533MOL0     C71873   4.926   9.142   1.398  0.2918  0.5569 -0.4003
  533MOL0     C71874   4.886   9.238   1.312  1.0228  0.0459  0.7442
  533MOL0     C71875   4.855   9.647   1.078  1.0989 -0.6593  0.0813
  533MOL0     C71876   4.855   9.786   1.059 -0.0039  0.3291 -0.8954
  533MOL0     C71877   4.814   9.837   0.936  0.7860  0.0837  0.1759
  533MOL0     C71878   4.767   9.757   0.831  0.1681  0.0138  0.3312
  533MOL0     O71879   4.699   9.821   0.733 -0.1167  0.4364 -0.2445
  533MOL0     C71880   4.597   9.760   0.651 -0.2581 -0.0337  0.3213
  533MOL0     C71881   4.460   9.748   0.715 -0.7349  1.3218  0.1804
  533MOL0     C71882   4.423   9.873   0.795 -0.0507  0.5051 -0.2436
  533MOL0     C71883   4.422  10.007   0.715  0.1876  0.4782  0.6660
  533MOL0     C71884   4.299  10.023   0.624 -0.3915 -0.3515 -0.0792
  533MOL0     C71885   4.207  10.026   0.545  0.6384 -0.9972 -0.7011
  533MOL0     C71886   4.744   9.626   0.855 -0.1715 -0.4043 -0.3263
  533MOL0     C71887   4.793   9.575   0.972 -0.3391  0.6904  0.9007
  533MOL0     H71888   5.065   9.493   1.439  0.3760 -0.4454  2.3833
  533MOL0     H71889   5.133   9.315   1.598 -0.7460 -1.0151  0.1103
  533MOL0     H71890   4.937   9.005   1.763  0.6416  0.0677  0.0471
  533MOL0     H71891   4.843   9.017   1.618 -1.0801  0.4835  0.6076
  533MOL0     H71892   5.073   8.819   1.631 -0.7168 -1.6079 -1.7743
  533MOL0     H71893   4.900   8.783   1.680  0.4972 -1.2373 -1.0214
  533MOL0     H71894   4.813   8.846   1.467 -0.2230  2.0802  1.7373
  533MOL0     H71895   4.975   8.858   1.404  0.6983  1.7476  1.9679
  533MOL0     H71896   5.039   8.627   1.470 -0.2449 -0.8996 -1.5795
  533MOL0     H71897   4.865   8.608   1.523  0.5420 -0.8523 -0.5117
  533MOL0     H71898   4.920   8.685   1.239 -1.9402  1.4280  1.6497
  533MOL0     H71899   4.933   8.508   1.296  1.1420  0.3945 -0.1768
  533MOL0     H71900   4.726   8.497   1.355  1.6717  0.3201  0.4131
  533MOL0     H71901   4.676   8.664   1.336 -2.7565 -1.9738 -0.8073
  533MOL0     H71902   4.596   8.580   1.126 -0.7679 -0.6149 -0.7376
  533MOL0     H71903   4.754   8.641   1.090  0.5486 -2.8557 -2.5958
  533MOL0     H71904   4.726   8.337   1.145  1.9471 -1.9034 -1.3862
  533MOL0     H71905   4.867   8.430   1.114 -0.5553  1.4567  2.6523
  533MOL0     H71906   4.740   8.611   0.875  0.6858  1.0770  0.7951
  533MOL0     H71907   4.656   8.482   0.560 -0.1725 -0.3812  0.1177
  533MOL0     H71908   4.762   8.618   0.598 -0.1836  0.0378 -2.6289
  533MOL0     H71909   4.836   8.330   0.484  2.8674  0.3529  0.3728
  533MOL0     H71910   4.968   8.439   0.504  1.7000 -0.2206 -3.4934
  533MOL0     H71911   4.900   8.572   0.319 -0.3398 -0.3389 -0.7482
  533MOL0     H71912   4.738   8.524   0.312  0.6477  0.7729 -1.1073
  533MOL0     H71913   4.949   8.322   0.241  1.4112  1.8330 -2.0269
  533MOL0     H71914   4.882   8.440   0.127 -1.8233  0.1225 -1.4595
  533MOL0     H71915   4.864   8.328  -0.033  0.4209  0.3257 -0.7474
  533MOL0     H71916   4.876   8.278  -0.275  0.0129 -1.9958 -1.2222
  533MOL0     H71917   4.778   8.151  -0.325  2.5880 -1.3487  3.0911
  533MOL0     H71918   4.709   8.313  -0.339 -0.0546  1.4374  1.0390
  533MOL0     H71919   4.438   7.838  -0.466 -1.3445  1.2019  1.6009
  533MOL0     H71920   4.360   7.818  -0.688 -0.9032 -0.7749  2.0987
  533MOL0     H71921   4.480   7.883  -0.935  1.8397  0.8825 -0.1440
  533MOL0     H71922   4.373   7.971  -1.045 -0.9311  1.8743  0.3731
  533MOL0     H71923   4.513   8.167  -1.038  1.8169 -0.3872 -1.1814
  533MOL0     H71924   4.614   8.099  -0.906 -0.3431  2.0299  0.4864
  533MOL0     H71925   4.574   7.937  -1.168  1.3144  0.2479 -1.0974
  533MOL0     H71926   4.701   7.931  -1.055  0.7042  0.2748 -2.3826
  533MOL0     H71927   4.645   8.187  -1.218  1.6061  0.7471 -2.1112
  533MOL0     H71928   4.778   8.163  -1.108 -1.5774 -0.1231  0.2144
  533MOL0     H71929   4.831   8.154  -1.349  1.7742 -0.9611  0.6698
  533MOL0     H71930   4.714   8.044  -1.379 -1.0654  1.2826  1.0266
  533MOL0     H71931   4.853   7.862  -1.257  1.3396 -1.2985  3.0863
  533MOL0     H71932   4.964   7.978  -1.360  1.7768  1.9513  2.5112
  533MOL0     H71933   4.938   8.029  -1.076 -2.9360 -1.3340 -1.2401
  533MOL0     H71934   5.056   8.070  -1.177  1.0557 -0.8174  1.6968
  533MOL0     H71935   5.138   7.800  -1.181  3.7077  0.9901  0.5841
  533MOL0     H71936   5.038   7.808  -1.029 -2.6913 -0.0408 -2.5436
  533MOL0     H71937   4.448   8.227  -0.753  0.9518 -0.7027 -0.1485
  533MOL0     H71938   4.533   8.246  -0.519 -0.3917  0.1568 -0.9929
  533MOL0     H71939   4.403   8.121  -0.016 -1.3445  3.5632 -0.3994
  533MOL0     H71940   4.547   8.195   0.204  1.7398 -1.3941 -0.0754
  533MOL0     H71941   4.865   9.052   1.405  0.0439  0.7161 -0.5253
  533MOL0     H71942   4.814   9.209   1.236 -1.6442  0.8674  2.7908
  533MOL0     H71943   4.902   9.836   1.143 -1.2717 -3.7863  2.5890
  533MOL0     H71944   4.823   9.945   0.938  2.7568 -0.0062 -0.8412
  533MOL0     H71945   4.592   9.835   0.571  3.0355 -0.4219 -0.4044
  533MOL0     H71946   4.634   9.674   0.595  3.5072  2.8924 -2.1605
  533MOL0     H71947   4.456   9.661   0.782 -2.9162 -0.8363 -2.5184
  533MOL0     H71948   4.390   9.729   0.633 -2.0760 -2.8076  1.9920
  533MOL0     H71949   4.494   9.880   0.878  1.4571  1.4990 -1.5661
  533MOL0     H71950   4.322   9.866   0.836 -1.4028  3.0299 -2.8483
  533MOL0     H71951   4.509  10.020   0.650  1.5692  2.5337  2.7694
  533MOL0     H71952   4.432  10.094   0.780  0.5961 -0.6543  2.1711
  533MOL0     H71953   4.129  10.009   0.474  0.4894 -1.6371 -0.3843
  533MOL0     H71954   4.702   9.551   0.788 -2.4391  2.7608 -2.7903
  533MOL0     H71955   4.792   9.468   0.986 -0.3620  0.6224  0.4013
  534MOL0     O71956   8.808  10.618   0.563  0.2055 -0.2015 -0.1624
  534MOL0     C71957   8.792  10.719   0.506  0.9874  0.0897  0.4336
  534MOL0     O71958   8.790  10.737   0.366 -0.3743 -0.0764 -0.3268
  534MOL0     C71959   8.783  10.619   0.295 -0.6338 -0.4263  0.3989
  534MOL0     C71960   8.684  10.523   0.306  0.0796  0.1191  0.0686
  534MOL0     C71961   8.692  10.394   0.250 -0.3737  0.9175  0.2902
  534MOL0     C71962   8.805  10.358   0.181 -0.7193 -1.0754  0.4610
  534MOL0     O71963   8.824  10.241   0.115  0.6742  0.4708  0.1366
  534MOL0     C71964   8.739  10.128   0.154  0.0587  0.3067 -0.4872
  534MOL0     C71965   8.820  10.004   0.127  0.3632 -0.0761  0.5098
  534MOL0     C71966   8.931   9.984   0.232 -0.9506 -0.2684  0.3457
  534MOL0     C71967   8.867   9.919   0.353 -0.2262  1.2010  0.0469
  534MOL0     C71968   8.981   9.888   0.449  0.3569 -0.2348 -1.3181
  534MOL0     C71969   8.926   9.836   0.590 -0.2882 -0.3045 -0.1603
  534MOL0     C71970   8.843   9.704   0.573  0.1679 -0.1585  0.0809
  534MOL0     C71971   8.841   9.621   0.694  0.0821 -0.3717 -0.9409
  534MOL0     N71972   8.789   9.688   0.811  1.0047 -0.3847  0.0900
  534MOL0     C71973   8.863   9.741   0.913  0.6026  0.0159  0.2772
  534MOL0     C71974   8.767   9.778   1.005 -0.5523 -0.1442 -0.4860
  534MOL0     C71975   8.796   9.857   1.125 -1.1019 -0.2893 -0.4883
  534MOL0     C71976   8.697   9.964   1.141  0.6543 -0.2772  0.1003
  534MOL0     C71977   8.746  10.067   1.236 -0.0488 -0.6063  0.3640
  534MOL0     C71978   8.752  10.019   1.378 -0.7519 -0.8800 -0.5911
  534MOL0     O71979   8.752  10.137   1.468  0.5748 -0.7120  0.0747
  534MOL0     C71980   8.735  10.111   1.599  1.3720  0.5528 -0.4800
  534MOL0     C71981   8.724  10.224   1.676  0.4634 -0.8049 -0.0306
  534MOL0     C71982   8.696  10.226   1.813  0.2092 -0.1079 -0.1008
  534MOL0     C71983   8.717  10.357   1.889  0.6218 -0.9414 -0.3269
  534MOL0     C71984   8.688  10.105   1.883  1.0263  0.0924 -0.2836
  534MOL0     C71985   8.656  10.082   2.030 -0.1616 -0.1250 -0.3406
  534MOL0     O71986   8.713   9.973   2.098 -0.9687 -0.6745 -0.1001
  534MOL0     C71987   8.729   9.997   2.237  0.4787 -0.1960  0.4113
  534MOL0     C71988   8.842  10.056   2.299  0.0442  0.9048 -0.4499
  534MOL0     C71989   8.854  10.057   2.438  0.4212 -0.1028  0.4531
  534MOL0     C71990   8.759  10.001   2.524 -0.4203 -0.2996 -0.0391
  534MOL0     O71991   8.781  10.002   2.660 -0.6229  0.1493  0.0507
  534MOL0     C71992   8.666   9.984   2.741 -0.5848 -1.0291  0.5457
  534MOL0     C71993   8.674   9.853   2.813  0.7424  0.5272  0.2956
  534MOL0     C71994   8.659   9.741   2.710 -0.3825  0.1488 -0.1932
  534MOL0     C71995   8.658   9.599   2.778  0.0462  0.2989  0.1514
  534MOL0     C71996   8.732   9.502   2.685 -0.4522 -0.6743 -0.1507
  534MOL0     C71997   8.648   9.455   2.566  0.4230 -0.1034 -0.7811
  534MOL0     C71998   8.743   9.380   2.483  0.2477  0.3104 -0.0687
  534MOL0     C71999   8.827   9.477   2.386 -0.8027  1.0582 -0.4696
  534MOL0    Cl72000   8.909   9.380   2.245 -0.2579  0.3919 -0.0415
  534MOL0     C72001   8.642   9.953   2.457 -0.0144 -1.1272 -0.0742
  534MOL0     C72002   8.624   9.958   2.322 -0.3961  0.0566 -0.2513
  534MOL0     O72003   8.575  10.164   2.083 -0.8640  0.1062  0.1310
  534MOL0     C72004   8.704   9.982   1.806  0.5007 -0.2081 -0.3640
  534MOL0     C72005   8.719   9.989   1.668 -0.3635 -0.1991 -0.2406
  534MOL0     N72006   8.644   9.748   0.946  0.1207  0.1581 -0.5535
  534MOL0     N72007   8.659   9.685   0.836  0.0193 -0.4731  0.4062
  534MOL0     C72008   8.912  10.457   0.165  0.6305  0.1803  0.4231
  534MOL0     C72009   8.898  10.582   0.227  0.2917  0.6989 -0.1251
  534MOL0     C72010   8.780  10.830   0.598 -0.1995 -0.3083 -0.3038
  534MOL0     C72011   8.772  10.824   0.745  0.2515 -0.2121 -0.4099
  534MOL0     C72012   8.720  10.935   0.817 -0.0688  0.3789 -0.0653
  534MOL0     C72013   8.685  11.056   0.743 -0.6025  1.3721 -0.1559
  534MOL0     O72014   8.636  11.166   0.802 -0.2983 -0.2632 -0.1685
  534MOL0     C72015   8.738  11.216   0.893 -0.1035 -0.4904 -0.6270
  534MOL0     C72016   8.675  11.345   0.947  1.1847 -0.5406 -0.2417
  534MOL0     C72017   8.627  11.436   0.834  0.7610  0.3234  0.2234
  534MOL0     C72018   8.672  11.581   0.860 -0.6456 -0.4080  0.1861
  534MOL0     C72019   8.806  11.611   0.835 -0.2921  0.2527  0.3240
  534MOL0     C72020   8.921  11.640   0.811 -1.0853  1.0708  0.2602
  534MOL0     C72021   8.700  11.058   0.605  0.4128  0.2213 -0.7050
  534MOL0     C72022   8.749  10.952   0.534 -1.2115 -0.3865  0.2552
  534MOL0     H72023   8.590  10.558   0.347 -1.2230  0.4454 -2.9108
  534MOL0     H72024   8.607  10.327   0.259  1.3913 -1.7195 -1.2013
  534MOL0     H72025   8.716  10.128   0.261 -1.9943 -0.6162 -0.8851
  534MOL0     H72026   8.643  10.133   0.103  1.3703  0.2946 -3.1636
  534MOL0     H72027   8.750   9.920   0.124 -0.2293  0.3205  2.3149
  534MOL0     H72028   8.862  10.015   0.026  1.1215  0.4320  0.8803
  534MOL0     H72029   9.010   9.919   0.194  1.5393  1.5404  2.1388
  534MOL0     H72030   8.971  10.077   0.273  1.9034 -1.3842  0.3403
  534MOL0     H72031   8.794   9.986   0.399 -2.0173 -2.7175  3.5297
  534MOL0     H72032   8.818   9.828   0.319  0.2101  1.3848 -1.1098
  534MOL0     H72033   9.043   9.816   0.394  0.0031 -0.5515 -1.3040
  534MOL0     H72034   9.049   9.971   0.468 -0.3920  0.1835 -0.3671
  534MOL0     H72035   9.022   9.829   0.642  0.0114  2.3908 -0.1787
  534MOL0     H72036   8.859   9.906   0.641  1.7446  0.7600  1.2173
  534MOL0     H72037   8.742   9.726   0.538  0.0923 -2.7681 -1.6040
  534MOL0     H72038   8.879   9.645   0.488 -6.4024 -0.5523 -3.0640
  534MOL0     H72039   8.937   9.574   0.720 -0.0580  0.2732  0.8913
  534MOL0     H72040   8.774   9.537   0.672  1.6628 -2.1836  0.7260
  534MOL0     H72041   8.971   9.744   0.925  0.3688 -0.1286  2.7629
  534MOL0     H72042   8.788   9.785   1.207 -1.2179  0.4553  0.1586
  534MOL0     H72043   8.897   9.898   1.117 -1.6920  1.1259 -1.0651
  534MOL0     H72044   8.605   9.922   1.182  0.7745 -2.8857 -1.9438
  534MOL0     H72045   8.670  10.022   1.052  0.1660  3.8887  2.7097
  534MOL0     H72046   8.678  10.152   1.223  1.6297  0.9819  1.4060
  534MOL0     H72047   8.845  10.101   1.205 -1.3171  2.6706 -0.4979
  534MOL0     H72048   8.847   9.967   1.393  0.6092  1.1915 -1.5594
  534MOL0     H72049   8.669   9.954   1.406  0.6569 -2.5399 -0.1375
  534MOL0     H72050   8.729  10.318   1.622 -0.2828 -1.3736 -1.1123
  534MOL0     H72051   8.620  10.392   1.926  1.4926  2.3966 -0.9178
  534MOL0     H72052   8.782  10.333   1.974  2.1700 -1.2202 -1.5451
  534MOL0     H72053   8.772  10.431   1.831 -0.3343 -1.2567 -1.6909
  534MOL0     H72054   8.920  10.095   2.235  0.5280 -0.4625 -0.7310
  534MOL0     H72055   8.940  10.110   2.478  0.7718  0.1751 -0.6501
  534MOL0     H72056   8.675  10.067   2.811 -2.7448 -0.8350  0.6553
  534MOL0     H72057   8.569   9.996   2.692  0.9713  1.1417 -2.3522
  534MOL0     H72058   8.772   9.852   2.861  1.8938 -2.4121 -1.8232
  534MOL0     H72059   8.608   9.842   2.899  0.1716 -1.2797 -0.3251
  534MOL0     H72060   8.749   9.747   2.647  0.2949 -3.6107  0.1919
  534MOL0     H72061   8.570   9.762   2.649  0.7013 -1.1292 -2.3451
  534MOL0     H72062   8.717   9.603   2.871 -0.4840 -1.5290  0.6129
  534MOL0     H72063   8.556   9.563   2.792 -0.9525  2.6228 -0.6865
  534MOL0     H72064   8.750   9.416   2.749 -0.9016 -1.8562 -1.5632
  534MOL0     H72065   8.832   9.542   2.663 -0.6863  1.3906  2.1478
  534MOL0     H72066   8.567   9.396   2.608 -0.8444  1.7340 -0.5244
  534MOL0     H72067   8.611   9.540   2.506  1.3773 -0.3740 -1.7949
  534MOL0     H72068   8.680   9.320   2.416 -1.5515  2.9256 -0.8698
  534MOL0     H72069   8.809   9.311   2.536 -0.5841 -1.1335 -0.8366
  534MOL0     H72070   8.903   9.530   2.443 -0.1577 -0.2257 -0.0808
  534MOL0     H72071   8.767   9.561   2.350 -2.4296 -0.1270 -0.6427
  534MOL0     H72072   8.553   9.922   2.511  0.2796 -1.6561  0.1124
  534MOL0     H72073   8.528   9.938   2.276  0.5863  0.3300 -2.5557
  534MOL0     H72074   8.706   9.887   1.858  0.1852  0.1713  0.3547
  534MOL0     H72075   8.746   9.897   1.618 -2.0906 -1.5303  1.1105
  534MOL0     H72076   9.002  10.440   0.108  1.0641  1.2415  0.7640
  534MOL0     H72077   8.979  10.651   0.246 -1.3606  2.3828  1.3029
  534MOL0     H72078   8.798  10.730   0.791  0.5707  0.5381  1.0057
  534MOL0     H72079   8.724  10.946   0.924 -1.0305  0.3879 -0.0218
  534MOL0     H72080   8.757  11.143   0.972 -3.1541  0.2402  0.9467
  534MOL0     H72081   8.834  11.233   0.843  1.0185  0.9092  1.7964
  534MOL0     H72082   8.747  11.393   1.015  0.2708  2.3130 -1.1398
  534MOL0     H72083   8.585  11.319   1.003 -0.6624  4.0863 -0.5829
  534MOL0     H72084   8.518  11.427   0.829  0.5767  2.3013 -0.2182
  534MOL0     H72085   8.655  11.398   0.736 -1.8147  0.3418 -0.6013
  534MOL0     H72086   8.653  11.600   0.966 -1.9685  2.3041 -0.4515
  534MOL0     H72087   8.607  11.639   0.794  2.2826  1.2286 -1.4821
  534MOL0     H72088   9.024  11.662   0.790 -2.2262  6.0535 -1.4595
  534MOL0     H72089   8.688  11.158   0.565 -1.2375 -0.1551 -1.2319
  534MOL0     H72090   8.737  10.970   0.428 -4.2343 -1.2831  0.3444
  535MOL0     O72091   2.212   8.651   0.333  0.8731  0.8627 -0.7924
  535MOL0     C72092   2.175   8.639   0.448  0.1847  0.6776 -0.0100
  535MOL0     O72093   2.240   8.566   0.541 -0.6086  0.4652  0.0785
  535MOL0     C72094   2.340   8.480   0.504 -0.0951 -0.1535 -0.2191
  535MOL0     C72095   2.469   8.512   0.444  1.0267 -0.9204 -0.4721
  535MOL0     C72096   2.572   8.417   0.417  0.8921 -0.6320 -0.9357
  535MOL0     C72097   2.546   8.287   0.440 -0.3407  0.1142 -0.1232
  535MOL0     O72098   2.655   8.195   0.412  1.7465 -0.3790 -0.1067
  535MOL0     C72099   2.631   8.058   0.446  0.8097 -0.9505  0.0632
  535MOL0     C72100   2.768   7.995   0.469 -0.4325 -0.4813 -0.6345
  535MOL0     C72101   2.857   8.086   0.560  0.2087  0.5704 -0.4947
  535MOL0     C72102   3.008   8.068   0.548  0.3000  0.6026  1.2723
  535MOL0     C72103   3.100   8.132   0.658  0.1853  0.1720  0.4524
  535MOL0     C72104   3.101   8.038   0.786 -0.5966 -0.1356  0.5114
  535MOL0     C72105   3.222   7.949   0.793 -0.7924  0.6112  0.3730
  535MOL0     C72106   3.182   7.806   0.725  0.3731 -0.1025 -1.2325
  535MOL0     N72107   3.100   7.722   0.819  0.0510  1.1265  0.6763
  535MOL0     C72108   3.169   7.656   0.913 -0.4557  0.5162  0.3035
  535MOL0     C72109   3.077   7.609   0.998 -1.4290 -0.1224 -0.1147
  535MOL0     C72110   3.106   7.519   1.116 -0.7229 -0.4434  0.4582
  535MOL0     C72111   3.176   7.589   1.233  0.1279  0.4299  0.1958
  535MOL0     C72112   3.089   7.675   1.318  0.3144  0.5673 -0.6413
  535MOL0     C72113   3.063   7.830   1.271 -0.3699  0.4133  0.5647
  535MOL0     O72114   3.190   7.899   1.277  0.2301 -0.0773  0.4202
  535MOL0     C72115   3.198   8.026   1.226  0.1460  0.4184 -0.6812
  535MOL0     C72116   3.099   8.105   1.172 -0.1830  0.3408 -0.6546
  535MOL0     C72117   3.120   8.235   1.113 -0.0559 -0.3061 -0.1357
  535MOL0     C72118   2.988   8.297   1.069  0.1183  0.2931  0.2447
  535MOL0     C72119   3.243   8.294   1.111 -0.2145  0.2643 -0.5875
  535MOL0     C72120   3.272   8.428   1.059  0.0099 -0.7860 -0.1711
  535MOL0     O72121   3.212   8.465   0.941 -0.6580 -0.5643 -0.5693
  535MOL0     C72122   3.253   8.582   0.891  0.4524 -0.5080 -0.0173
  535MOL0     C72123   3.226   8.709   0.954  0.5011  0.8884 -1.6228
  535MOL0     C72124   3.281   8.825   0.892  0.5614 -0.6824  0.5256
  535MOL0     C72125   3.340   8.816   0.766 -0.2491 -0.5066 -0.2631
  535MOL0     O72126   3.384   8.936   0.712  0.1025 -0.0303  0.4115
  535MOL0     C72127   3.333   8.971   0.580  0.4226 -0.2782  0.2071
  535MOL0     C72128   3.254   9.105   0.587 -0.2742 -0.1457  0.3970
  535MOL0     C72129   3.347   9.235   0.635 -0.2588 -0.4703 -0.1866
  535MOL0     C72130   3.433   9.291   0.517 -0.3009  0.5394  0.4220
  535MOL0     C72131   3.523   9.405   0.565 -0.5409 -0.1411  0.4249
  535MOL0     C72132   3.576   9.404   0.712  0.3825  0.9739 -0.1143
  535MOL0     C72133   3.658   9.521   0.748 -1.0692 -0.4437 -0.8402
  535MOL0     C72134   3.584   9.651   0.747  0.8841  0.2712 -0.1931
  535MOL0    Cl72135   3.693   9.764   0.836 -0.6097  0.1274 -0.0064
  535MOL0     C72136   3.366   8.697   0.704  0.5992  0.7513 -0.5353
  535MOL0     C72137   3.322   8.582   0.765  0.1631 -0.3132 -0.1883
  535MOL0     O72138   3.342   8.495   1.126 -0.1452 -0.0086  0.0988
  535MOL0     C72139   3.342   8.218   1.174 -0.0106  0.1459  0.5236
  535MOL0     C72140   3.317   8.091   1.229 -0.5202 -0.2946  0.3541
  535MOL0     N72141   2.953   7.643   0.945  0.1619 -0.1149 -0.3171
  535MOL0     N72142   2.965   7.712   0.840 -0.7759  0.3259  0.7309
  535MOL0     C72143   2.419   8.251   0.484  1.0600 -1.0014 -0.4382
  535MOL0     C72144   2.318   8.343   0.508  0.1788  0.4487  0.1980
  535MOL0     C72145   2.058   8.718   0.487 -0.6006 -1.2211 -0.6467
  535MOL0     C72146   2.012   8.730   0.622 -0.4795 -0.5093  0.2972
  535MOL0     C72147   1.890   8.799   0.646  0.6409  0.4574  0.3982
  535MOL0     C72148   1.809   8.854   0.542 -0.1730 -0.6683 -1.1760
  535MOL0     O72149   1.695   8.931   0.564 -0.4378  0.5239  0.5585
  535MOL0     C72150   1.573   8.882   0.517 -0.1094 -0.1065  0.2324
  535MOL0     C72151   1.524   8.766   0.626 -0.2027  0.0544  1.2225
  535MOL0     C72152   1.499   8.822   0.764 -1.3350 -0.0217  0.0580
  535MOL0     C72153   1.360   8.887   0.765 -0.9172  0.2260 -0.2183
  535MOL0     C72154   1.273   8.829   0.867  0.1135  0.1181 -0.3442
  535MOL0     C72155   1.200   8.817   0.962 -0.1524 -0.2205  0.2381
  535MOL0     C72156   1.861   8.842   0.412 -0.4134 -0.6455 -1.0171
  535MOL0     C72157   1.983   8.786   0.391 -0.2803  0.0748  0.1187
  535MOL0     H72158   2.496   8.615   0.422  1.6760 -1.3800 -1.9464
  535MOL0     H72159   2.673   8.443   0.388  0.9763 -1.7790 -1.7421
  535MOL0     H72160   2.579   8.050   0.542  0.5315  0.7293  0.0803
  535MOL0     H72161   2.572   8.009   0.369 -1.8704  0.8892  0.7956
  535MOL0     H72162   2.759   7.900   0.522  0.7738  1.0003  2.4281
  535MOL0     H72163   2.808   7.984   0.367 -0.9798 -0.8744 -0.8074
  535MOL0     H72164   2.845   8.194   0.552  0.0960  0.4572 -2.4715
  535MOL0     H72165   2.824   8.055   0.660 -4.5543  0.5200 -1.8256
  535MOL0     H72166   3.026   7.960   0.540  1.3713  0.8474  0.0086
  535MOL0     H72167   3.033   8.122   0.456  1.8602 -3.1883 -0.7734
  535MOL0     H72168   3.200   8.141   0.615  1.9606 -1.1534  3.9446
  535MOL0     H72169   3.070   8.233   0.686 -2.7285 -0.5972  0.3953
  535MOL0     H72170   3.117   8.103   0.872 -0.4159  0.7749 -0.1995
  535MOL0     H72171   3.005   7.985   0.783 -2.3889  2.8989 -1.0051
  535MOL0     H72172   3.302   7.996   0.735 -1.7513 -0.9709 -2.4407
  535MOL0     H72173   3.249   7.942   0.898 -1.2082  0.4070  0.4649
  535MOL0     H72174   3.274   7.764   0.684  1.7730  1.0696  0.5649
  535MOL0     H72175   3.116   7.815   0.638 -2.8664  0.0979  1.0460
  535MOL0     H72176   3.273   7.644   0.942 -0.5747  0.6179  0.7823
  535MOL0     H72177   3.019   7.461   1.148  0.1887 -1.5800  0.9582
  535MOL0     H72178   3.183   7.456   1.071 -1.0048  1.0879 -2.3673
  535MOL0     H72179   3.263   7.647   1.201  2.4529 -1.4925  2.6417
  535MOL0     H72180   3.220   7.512   1.295  0.2344  0.7431  0.5118
  535MOL0     H72181   3.134   7.675   1.417  0.4158  0.3859 -0.6862
  535MOL0     H72182   2.990   7.630   1.333  0.9235 -1.7350 -2.7478
  535MOL0     H72183   2.994   7.881   1.339  0.0757  0.9943  0.5856
  535MOL0     H72184   3.024   7.844   1.170 -0.8902  3.1412  1.0672
  535MOL0     H72185   3.005   8.053   1.174  1.0580 -2.0346  1.8227
  535MOL0     H72186   2.994   8.318   0.962 -2.0459  1.3259  0.2719
  535MOL0     H72187   2.902   8.231   1.084 -0.3855  0.6570 -0.9182
  535MOL0     H72188   2.960   8.390   1.117 -0.0839  0.7248 -0.6908
  535MOL0     H72189   3.168   8.698   1.046 -1.5637 -0.4748 -3.0031
  535MOL0     H72190   3.276   8.921   0.943 -2.2457 -1.9543  2.9173
  535MOL0     H72191   3.416   8.990   0.511  2.2351  0.2753  2.4154
  535MOL0     H72192   3.259   8.898   0.545 -3.1656  1.6170  3.0607
  535MOL0     H72193   3.211   9.112   0.487 -0.1676 -0.5038  0.3259
  535MOL0     H72194   3.165   9.097   0.650 -1.2500  0.7925 -0.8028
  535MOL0     H72195   3.411   9.203   0.717 -0.3019  2.3495  1.0248
  535MOL0     H72196   3.283   9.308   0.684  0.7363 -2.3209  4.3842
  535MOL0     H72197   3.499   9.212   0.479 -1.0073 -0.8602  1.9665
  535MOL0     H72198   3.369   9.321   0.434 -0.7096  0.6577  0.7718
  535MOL0     H72199   3.459   9.493   0.554  2.1676  1.9218  0.0022
  535MOL0     H72200   3.615   9.411   0.506 -1.1851  1.6348 -0.4883
  535MOL0     H72201   3.492   9.420   0.780  1.1528  2.6751  0.5044
  535MOL0     H72202   3.637   9.316   0.734  1.4838  1.5117 -0.9033
  535MOL0     H72203   3.747   9.530   0.686 -0.2216 -0.3603  0.3650
  535MOL0     H72204   3.693   9.504   0.850 -0.1724  2.0789 -0.6670
  535MOL0     H72205   3.486   9.644   0.794  1.7704 -0.7837  1.6089
  535MOL0     H72206   3.567   9.685   0.644  0.8805 -1.1169 -0.6754
  535MOL0     H72207   3.412   8.687   0.607 -1.2633 -0.4439 -1.3618
  535MOL0     H72208   3.343   8.487   0.717  4.1921  0.5389 -0.5026
  535MOL0     H72209   3.445   8.249   1.191  1.4264 -1.7060 -3.6206
  535MOL0     H72210   3.409   8.048   1.268 -0.6762 -0.0980  0.9462
  535MOL0     H72211   2.396   8.145   0.486 -4.5458 -0.0670 -0.7165
  535MOL0     H72212   2.219   8.303   0.525 -0.2902  1.0980 -0.9042
  535MOL0     H72213   2.080   8.694   0.698 -0.1700 -0.9526 -0.1764
  535MOL0     H72214   1.842   8.796   0.743 -0.4271 -4.0011 -0.0590
  535MOL0     H72215   1.500   8.963   0.510 -0.9749 -0.7983  1.0203
  535MOL0     H72216   1.585   8.834   0.419  0.9123  1.5379 -0.4928
  535MOL0     H72217   1.601   8.689   0.629 -1.3822 -1.2021  0.5568
  535MOL0     H72218   1.432   8.720   0.587 -0.3048 -0.1092  1.6463
  535MOL0     H72219   1.582   8.881   0.803 -1.9239  1.2528 -0.5461
  535MOL0     H72220   1.501   8.739   0.835  2.3198  0.2025  0.4041
  535MOL0     H72221   1.306   8.867   0.672 -2.1656 -1.9290  0.8888
  535MOL0     H72222   1.381   8.994   0.773  1.3987 -0.0165 -2.0708
  535MOL0     H72223   1.124   8.817   1.038 -0.3763  2.6851  0.1114
  535MOL0     H72224   1.805   8.891   0.333 -1.4173  1.0296  0.6503
  535MOL0     H72225   2.011   8.779   0.286 -0.2470  1.5234  0.0158
  536MOL0     O72226   5.266   3.389   3.765 -0.1716  0.6137  0.6169
  536MOL0     C72227   5.208   3.385   3.870  0.3272 -0.3550  0.0630
  536MOL0     O72228   5.249   3.441   3.990  0.3628 -0.3996 -0.0579
  536MOL0     C72229   5.349   3.532   3.991 -0.8036 -0.1486  0.5983
  536MOL0     C72230   5.354   3.643   3.912 -0.0186  0.5332 -0.3191
  536MOL0     C72231   5.462   3.746   3.921  0.1226  0.3420 -0.3461
  536MOL0     C72232   5.544   3.725   4.029  0.3335 -0.1119  0.1584
  536MOL0     O72233   5.647   3.818   4.057  1.0912 -0.4555  0.6840
  536MOL0     C72234   5.622   3.954   4.008  0.0094  0.4688  0.1215
  536MOL0     C72235   5.514   4.013   4.100 -0.1007 -0.6563  0.2190
  536MOL0     C72236   5.508   4.164   4.084  0.1309  0.1175 -0.2874
  536MOL0     C72237   5.381   4.206   3.999 -0.5158 -1.2322 -0.8092
  536MOL0     C72238   5.356   4.359   3.995  0.3549  0.1741  0.4442
  536MOL0     C72239   5.333   4.423   4.138 -0.4480 -0.3812 -0.2548
  536MOL0     C72240   5.285   4.563   4.134  0.2986 -0.1053  0.2240
  536MOL0     C72241   5.143   4.575   4.071  0.0158 -0.1506 -0.5570
  536MOL0     N72242   5.055   4.491   4.151 -0.9779  0.3587 -0.3020
  536MOL0     C72243   4.992   4.526   4.269  0.1449 -0.0439  0.8804
  536MOL0     C72244   4.903   4.432   4.283 -0.0036  1.3066 -0.4998
  536MOL0     C72245   4.801   4.433   4.388  0.3067 -0.0122 -0.1856
  536MOL0     C72246   4.658   4.377   4.366  0.1851  0.3714  0.0862
  536MOL0     C72247   4.588   4.340   4.499  1.2211  0.0533 -0.1173
  536MOL0     C72248   4.563   4.470   4.579  0.2040  0.0585  0.0594
  536MOL0     O72249   4.482   4.445   4.693 -0.2449  1.2337 -0.9857
  536MOL0     C72250   4.455   4.539   4.793  0.4832  0.0327  1.2184
  536MOL0     C72251   4.526   4.667   4.800 -0.2771 -0.6149 -0.5138
  536MOL0     C72252   4.496   4.762   4.898  0.8998 -0.3939  0.3543
  536MOL0     C72253   4.569   4.891   4.906 -0.5329 -0.1356  1.1557
  536MOL0     C72254   4.390   4.737   4.993  0.6722  0.5589 -0.7537
  536MOL0     C72255   4.339   4.822   5.106 -0.3002  0.3873 -0.5529
  536MOL0     O72256   4.411   4.939   5.124 -1.1093 -0.4479  0.4517
  536MOL0     C72257   4.338   5.037   5.200 -0.3463  0.6560  0.5332
  536MOL0     C72258   4.372   5.062   5.335 -1.3988  0.2464  0.2775
  536MOL0     C72259   4.316   5.175   5.399 -0.1373  0.2964 -0.4154
  536MOL0     C72260   4.217   5.253   5.341 -0.5082 -0.7917 -0.0089
  536MOL0     O72261   4.146   5.344   5.413 -0.5950  0.3752  0.3216
  536MOL0     C72262   4.187   5.369   5.552  0.1611  0.8442  0.8116
  536MOL0     C72263   4.088   5.483   5.591  0.7823  1.1757  0.1989
  536MOL0     C72264   3.938   5.442   5.562 -0.1585  0.1184 -0.5145
  536MOL0     C72265   3.854   5.316   5.625  1.3996 -0.9227  0.3589
  536MOL0     C72266   3.708   5.349   5.590  1.0492 -0.4930  0.1398
  536MOL0     C72267   3.639   5.438   5.688  0.7705 -0.0206 -0.5265
  536MOL0     C72268   3.490   5.445   5.689  0.0045  0.1242 -0.4714
  536MOL0     C72269   3.444   5.507   5.826 -0.1686  0.6152  0.2609
  536MOL0    Cl72270   3.490   5.672   5.804  0.1821 -0.0030 -0.1076
  536MOL0     C72271   4.176   5.228   5.210 -0.1627  1.2335 -0.8680
  536MOL0     C72272   4.241   5.111   5.139 -0.2981  0.0773 -0.6130
  536MOL0     O72273   4.245   4.784   5.168  0.0775 -0.2348 -0.2856
  536MOL0     C72274   4.321   4.615   4.978  1.2325 -0.1650 -0.6953
  536MOL0     C72275   4.358   4.515   4.890  0.0166  0.5438  0.8108
  536MOL0     N72276   4.900   4.344   4.177  0.0395 -0.7786 -0.2851
  536MOL0     N72277   5.003   4.379   4.099 -0.1632  0.8523 -0.2294
  536MOL0     C72278   5.543   3.607   4.107 -1.3880  0.2645  0.4980
  536MOL0     C72279   5.453   3.506   4.082  0.6836  0.6786 -0.9688
  536MOL0     C72280   5.102   3.282   3.885 -0.7299 -0.9044 -0.6036
  536MOL0     C72281   5.052   3.223   3.772 -0.0965  0.2159  0.4459
  536MOL0     C72282   4.966   3.111   3.789 -0.2437 -0.8253  0.8975
  536MOL0     C72283   4.941   3.062   3.921  1.1790  0.4740 -0.3288
  536MOL0     O72284   4.871   2.951   3.958 -0.5049 -0.4832  0.6823
  536MOL0     C72285   4.781   2.899   3.861  0.2683 -0.4197  0.2988
  536MOL0     C72286   4.827   2.764   3.786  0.0397 -1.1368  1.3087
  536MOL0     C72287   4.745   2.634   3.766  0.2006 -0.2072 -0.6356
  536MOL0     C72288   4.610   2.668   3.689  0.1947  1.6839  0.6825
  536MOL0     C72289   4.510   2.735   3.779  0.6327  0.5650 -0.7268
  536MOL0     C72290   4.437   2.789   3.867 -0.4692 -0.1583 -0.1817
  536MOL0     C72291   4.995   3.126   4.023 -0.2011 -0.9315  0.4439
  536MOL0     C72292   5.071   3.237   4.013  0.1345 -0.4984 -0.4301
  536MOL0     H72293   5.277   3.663   3.837 -0.1338  0.9343 -0.0998
  536MOL0     H72294   5.443   3.836   3.862 -2.8778 -0.5344 -0.8746
  536MOL0     H72295   5.710   4.016   4.024 -0.7013  1.7193 -0.6410
  536MOL0     H72296   5.604   3.953   3.900 -3.0239  2.7005  0.4909
  536MOL0     H72297   5.419   3.967   4.073  1.7525 -3.4946 -1.9786
  536MOL0     H72298   5.538   3.993   4.205  1.5574  2.3010  0.5187
  536MOL0     H72299   5.493   4.207   4.183 -3.4316 -0.0861 -0.5752
  536MOL0     H72300   5.600   4.196   4.036  2.0792 -2.7820  1.2226
  536MOL0     H72301   5.399   4.172   3.896 -2.9217 -2.5458 -0.8686
  536MOL0     H72302   5.303   4.141   4.042  2.1740 -3.4864  0.9872
  536MOL0     H72303   5.425   4.420   3.936 -1.6142  1.0734 -1.0497
  536MOL0     H72304   5.260   4.364   3.942 -1.0443 -0.2771  2.7885
  536MOL0     H72305   5.260   4.366   4.195 -0.7449  1.8085  1.7336
  536MOL0     H72306   5.430   4.413   4.188  0.8105  0.4400 -2.4228
  536MOL0     H72307   5.281   4.611   4.232  0.9792  0.7569 -0.1566
  536MOL0     H72308   5.354   4.616   4.067 -1.6159 -0.7112 -2.3987
  536MOL0     H72309   5.153   4.533   3.971 -0.0968 -3.5022  0.7105
  536MOL0     H72310   5.117   4.682   4.069  0.5694  0.1977  3.0990
  536MOL0     H72311   5.004   4.615   4.330 -2.4377 -0.4718  2.1454
  536MOL0     H72312   4.851   4.381   4.471 -3.4766 -0.3016  2.1851
  536MOL0     H72313   4.790   4.536   4.423 -1.1411 -0.8121  1.9612
  536MOL0     H72314   4.674   4.285   4.309 -0.6985  1.0676 -1.3128
  536MOL0     H72315   4.593   4.434   4.300  1.4163  3.2846  1.2001
  536MOL0     H72316   4.660   4.282   4.559  1.7575 -0.0644 -0.8557
  536MOL0     H72317   4.496   4.283   4.480  0.7764  0.4375  0.8116
  536MOL0     H72318   4.506   4.537   4.515  2.0132  0.2988 -1.3859
  536MOL0     H72319   4.656   4.526   4.597 -1.2047  2.6187 -0.1371
  536MOL0     H72320   4.606   4.689   4.731 -0.3890  0.3968 -0.3386
  536MOL0     H72321   4.656   4.897   4.840 -0.8937  1.5948  0.7929
  536MOL0     H72322   4.509   4.981   4.889 -0.2149  0.7188  4.0342
  536MOL0     H72323   4.617   4.905   5.003  2.2591  0.0125 -0.1651
  536MOL0     H72324   4.436   5.003   5.399 -1.0553  0.8671  0.5161
  536MOL0     H72325   4.359   5.195   5.497  2.1339 -0.4431 -1.1833
  536MOL0     H72326   4.161   5.276   5.604 -0.5200  1.2997  1.3016
  536MOL0     H72327   4.293   5.395   5.563  0.6025 -1.1375  1.6612
  536MOL0     H72328   4.096   5.503   5.699 -3.5877 -5.1108  2.3019
  536MOL0     H72329   4.118   5.565   5.525  0.5221  2.0023  1.0864
  536MOL0     H72330   3.927   5.434   5.454  3.1466 -0.3710 -0.8976
  536MOL0     H72331   3.882   5.531   5.594 -2.3723 -0.1407 -3.3246
  536MOL0     H72332   3.899   5.230   5.575  1.1288  0.3873 -2.3322
  536MOL0     H72333   3.867   5.303   5.732  1.5530 -0.9609  0.3365
  536MOL0     H72334   3.654   5.254   5.602 -1.3870  0.7259 -0.5173
  536MOL0     H72335   3.694   5.383   5.487 -2.7208 -2.5935 -0.2364
  536MOL0     H72336   3.679   5.410   5.786 -2.4869  1.9117  1.6056
  536MOL0     H72337   3.664   5.542   5.666 -1.1221  0.5078 -0.4416
  536MOL0     H72338   3.452   5.344   5.675 -0.8895  0.6220 -1.8643
  536MOL0     H72339   3.458   5.511   5.608  4.3692 -0.2173 -2.7694
  536MOL0     H72340   3.491   5.479   5.920 -4.2794  1.0332  2.6819
  536MOL0     H72341   3.336   5.488   5.821 -1.1207  4.8781  0.6404
  536MOL0     H72342   4.101   5.296   5.171  3.0438  5.0223 -1.0353
  536MOL0     H72343   4.209   5.092   5.037 -1.8507 -0.8143 -0.0050
  536MOL0     H72344   4.249   4.581   5.052  0.9883 -1.5549 -1.5430
  536MOL0     H72345   4.307   4.420   4.876  2.2201 -0.5428 -0.3757
  536MOL0     H72346   5.609   3.592   4.192 -1.4701 -1.3604  0.3014
  536MOL0     H72347   5.459   3.416   4.143 -3.8983  1.2823  0.7392
  536MOL0     H72348   5.091   3.253   3.675  0.0533 -2.8141 -0.5397
  536MOL0     H72349   4.935   3.061   3.698 -0.0203  1.5664 -0.5964
  536MOL0     H72350   4.699   2.863   3.924  0.7366 -2.2051 -0.0422
  536MOL0     H72351   4.739   2.978   3.800  1.1040 -2.6022 -3.4206
  536MOL0     H72352   4.908   2.723   3.847  1.0182 -2.8179 -0.9467
  536MOL0     H72353   4.872   2.785   3.689 -4.3327 -0.6743 -0.8844
  536MOL0     H72354   4.711   2.598   3.864 -0.6826 -2.1647 -1.6263
  536MOL0     H72355   4.810   2.558   3.724  3.5288  0.5852  2.5222
  536MOL0     H72356   4.562   2.580   3.645 -0.2851  2.6052 -0.6980
  536MOL0     H72357   4.643   2.727   3.602  0.6118  0.3203 -0.1144
  536MOL0     H72358   4.386   2.827   3.953  0.3752 -0.0083  0.2581
  536MOL0     H72359   4.993   3.091   4.126  2.7828 -0.4909  0.7325
  536MOL0     H72360   5.108   3.296   4.096 -0.2995  2.7857 -2.3628
  537MOL0     O72361  11.201   8.589   0.333 -0.2048 -0.8107  0.4729
  537MOL0     C72362  11.228   8.545   0.444  1.2752  0.0045 -1.5170
  537MOL0     O72363  11.126   8.505   0.527 -0.2486 -0.1127  0.1295
  537MOL0     C72364  10.992   8.510   0.489  0.2063  0.4767 -0.2704
  537MOL0     C72365  10.902   8.578   0.576  0.0217  1.4822  0.1168
  537MOL0     C72366  10.768   8.562   0.535 -0.1948  0.6692 -0.2816
  537MOL0     C72367  10.711   8.514   0.416 -0.4271 -0.4111 -0.6517
  537MOL0     O72368  10.579   8.493   0.419  0.1100  0.5529 -0.1535
  537MOL0     C72369  10.516   8.431   0.307 -0.3699  0.2741  0.4314
  537MOL0     C72370  10.364   8.400   0.344 -1.0416  0.6027  0.3164
  537MOL0     C72371  10.361   8.294   0.458  0.4295 -0.2636 -0.7262
  537MOL0     C72372  10.352   8.352   0.605  0.2793 -1.3109  0.5778
  537MOL0     C72373  10.430   8.265   0.701 -0.4561  0.6902  0.5564
  537MOL0     C72374  10.374   8.131   0.713  0.5653  0.5355 -0.0044
  537MOL0     C72375  10.461   8.030   0.792 -0.9443 -0.0045  0.7276
  537MOL0     C72376  10.495   7.901   0.737 -0.9629  0.4068 -0.0600
  537MOL0     N72377  10.565   7.909   0.606 -0.9664  0.3866  0.3902
  537MOL0     C72378  10.680   7.988   0.595  0.7231 -0.2576 -0.1605
  537MOL0     C72379  10.714   7.970   0.463 -0.2187 -0.3463  0.8280
  537MOL0     C72380  10.829   8.048   0.394 -0.3759 -0.3290  0.7518
  537MOL0     C72381  10.932   8.128   0.478 -0.1529  0.0554  0.0202
  537MOL0     C72382  11.040   8.027   0.527  0.2882 -0.3264  0.5701
  537MOL0     C72383  11.134   7.962   0.426 -0.5185  0.3267 -0.5467
  537MOL0     O72384  11.264   8.027   0.446  1.0503  0.4514 -0.2895
  537MOL0     C72385  11.374   7.983   0.372 -0.4829 -0.6627 -0.0411
  537MOL0     C72386  11.389   7.851   0.316  0.1184 -0.5695 -0.1649
  537MOL0     C72387  11.495   7.814   0.231 -0.4066 -1.6352  0.5598
  537MOL0     C72388  11.497   7.682   0.155  0.6422  0.4409  0.9662
  537MOL0     C72389  11.591   7.916   0.210 -0.9388  0.5271  0.7176
  537MOL0     C72390  11.693   7.897   0.108  0.2377 -0.7865  0.0592
  537MOL0     O72391  11.729   8.013   0.039 -0.2091  0.2166 -0.0318
  537MOL0     C72392  11.807   8.003  -0.075  0.0560  0.3190 -0.0054
  537MOL0     C72393  11.785   7.909  -0.171  0.2056 -0.0640 -0.2430
  537MOL0     C72394  11.857   7.906  -0.288 -0.2957 -0.1879  0.4974
  537MOL0     C72395  11.960   7.995  -0.311 -0.4369 -0.6431  0.5261
  537MOL0     O72396  12.036   8.005  -0.427  0.0814 -0.2232 -0.0066
  537MOL0     C72397  11.993   7.933  -0.542  0.9565 -0.3144  1.6751
  537MOL0     C72398  12.109   7.931  -0.645 -0.2875 -0.0171 -0.0211
  537MOL0     C72399  12.164   8.068  -0.689  0.2412 -0.0650 -0.1056
  537MOL0     C72400  12.156   8.101  -0.842  0.3260  0.8288  0.5003
  537MOL0     C72401  12.281   8.160  -0.893  0.5100  0.7342  0.0554
  537MOL0     C72402  12.308   8.303  -0.840  0.2661  0.1165 -0.3195
  537MOL0     C72403  12.446   8.331  -0.903  0.0453 -0.8277 -0.0773
  537MOL0     C72404  12.510   8.459  -0.844 -0.2281  0.2888  0.0969
  537MOL0    Cl72405  12.379   8.589  -0.847  0.4337 -0.1272  0.6310
  537MOL0     C72406  11.979   8.093  -0.211  0.3151 -0.0680 -0.1630
  537MOL0     C72407  11.899   8.105  -0.094  0.4813 -0.3364 -0.0739
  537MOL0     O72408  11.731   7.785   0.085  0.0642 -0.0772  0.3406
  537MOL0     C72409  11.587   8.045   0.275 -0.4012  0.5684  0.8875
  537MOL0     C72410  11.476   8.078   0.345 -0.5814 -0.7031 -1.2517
  537MOL0     N72411  10.630   7.890   0.399  0.4453  0.3320  0.4962
  537MOL0     N72412  10.537   7.853   0.482 -0.4120 -0.2696  0.3397
  537MOL0     C72413  10.805   8.460   0.330  0.7054 -0.6457  1.1353
  537MOL0     C72414  10.945   8.455   0.369  0.4542  0.8740 -0.7533
  537MOL0     C72415  11.366   8.528   0.487  1.5259  0.0853 -0.7171
  537MOL0     C72416  11.400   8.452   0.605  0.0862 -0.4726 -0.3246
  537MOL0     C72417  11.536   8.438   0.646 -0.7473 -0.4962 -0.9223
  537MOL0     C72418  11.642   8.508   0.572 -0.0341 -0.2488 -0.4617
  537MOL0     O72419  11.768   8.487   0.615  0.0285  0.3607 -0.2084
  537MOL0     C72420  11.867   8.592   0.601 -0.4619 -0.2759  0.6730
  537MOL0     C72421  11.834   8.720   0.681  0.0427 -0.9358 -1.5407
  537MOL0     C72422  11.834   8.711   0.832 -0.1443 -0.2216  0.3551
  537MOL0     C72423  11.967   8.683   0.891  0.2925 -0.5474  0.2677
  537MOL0     C72424  11.958   8.649   1.032  0.0339  0.5344  0.7933
  537MOL0     C72425  11.949   8.651   1.145 -0.1728  0.3297 -0.2281
  537MOL0     C72426  11.606   8.594   0.468 -0.2532  0.2550  0.3117
  537MOL0     C72427  11.471   8.596   0.423 -0.2188 -0.6388  0.1806
  537MOL0     H72428  10.934   8.620   0.671  1.8399 -0.5507  0.4915
  537MOL0     H72429  10.690   8.587   0.607 -1.0113  0.2882 -1.0217
  537MOL0     H72430  10.525   8.509   0.232 -1.8217 -1.7762 -2.0465
  537MOL0     H72431  10.579   8.344   0.286 -0.0009  0.0385  2.3235
  537MOL0     H72432  10.305   8.492   0.357 -1.6045  0.4817 -1.1558
  537MOL0     H72433  10.313   8.358   0.257 -0.8895 -0.0273  0.5274
  537MOL0     H72434  10.273   8.230   0.447  0.1148 -0.6192  2.7331
  537MOL0     H72435  10.445   8.227   0.440 -0.2527 -1.5560  0.7312
  537MOL0     H72436  10.373   8.459   0.600 -4.4680 -0.1733 -0.8992
  537MOL0     H72437  10.249   8.345   0.642 -0.4059  1.5466 -0.4996
  537MOL0     H72438  10.534   8.263   0.667 -0.1230 -2.9961  1.3922
  537MOL0     H72439  10.434   8.308   0.802 -0.2522  0.0635  0.8175
  537MOL0     H72440  10.271   8.126   0.748 -0.0832 -4.2925 -1.7609
  537MOL0     H72441  10.359   8.092   0.611 -0.9388  1.3699 -0.1197
  537MOL0     H72442  10.554   8.080   0.823 -0.3626 -0.1041 -0.7853
  537MOL0     H72443  10.408   8.012   0.886  1.4967 -2.0587  1.8331
  537MOL0     H72444  10.408   7.835   0.737 -0.4141 -0.4581  2.4772
  537MOL0     H72445  10.560   7.850   0.810 -1.7190 -3.0226 -1.6062
  537MOL0     H72446  10.710   8.056   0.673 -0.3880 -1.7762  1.6654
  537MOL0     H72447  10.874   7.978   0.323  3.8815  1.1312  1.7143
  537MOL0     H72448  10.782   8.123   0.329  1.8470 -0.0230 -0.6088
  537MOL0     H72449  10.872   8.154   0.565  1.1604 -0.3933  1.0883
  537MOL0     H72450  10.977   8.222   0.444  4.5620 -0.5620  3.5930
  537MOL0     H72451  10.986   7.944   0.573  0.0251 -0.2992  0.3152
  537MOL0     H72452  11.095   8.076   0.608  0.1193  0.2983  0.3114
  537MOL0     H72453  11.106   7.977   0.322  2.0807  0.9496 -1.2374
  537MOL0     H72454  11.139   7.859   0.462  2.3226  1.4650  2.9062
  537MOL0     H72455  11.307   7.783   0.334  0.2516 -1.4846 -2.6800
  537MOL0     H72456  11.523   7.693   0.050  0.4969  0.5840  0.9449
  537MOL0     H72457  11.553   7.607   0.212 -1.6811 -1.1226  1.3606
  537MOL0     H72458  11.397   7.639   0.144 -0.3387  2.4136  1.6394
  537MOL0     H72459  11.708   7.834  -0.159  0.0974  0.0877  0.0340
  537MOL0     H72460  11.835   7.826  -0.357  0.5060  1.7443 -2.1811
  537MOL0     H72461  11.976   7.831  -0.506 -1.0986 -0.0896  1.4881
  537MOL0     H72462  11.892   7.963  -0.572 -0.1536 -4.7893  0.1196
  537MOL0     H72463  12.183   7.873  -0.588 -0.1592  2.1949  2.2394
  537MOL0     H72464  12.078   7.870  -0.730 -1.0995  0.2965  0.0411
  537MOL0     H72465  12.270   8.074  -0.659  0.7289  2.3785 -2.0219
  537MOL0     H72466  12.128   8.154  -0.632  0.9897  0.3387 -0.2194
  537MOL0     H72467  12.144   8.010  -0.901  1.0958  1.1707 -0.2004
  537MOL0     H72468  12.075   8.168  -0.869 -0.7553 -1.0498 -1.2055
  537MOL0     H72469  12.284   8.166  -1.002  1.0169  3.2751  0.1246
  537MOL0     H72470  12.360   8.094  -0.857  0.2220  1.0200  1.2614
  537MOL0     H72471  12.241   8.381  -0.878  1.6405  0.7796 -1.4654
  537MOL0     H72472  12.306   8.320  -0.732 -2.0770  0.5873 -0.3814
  537MOL0     H72473  12.448   8.332  -1.013  4.8017 -3.5052 -0.2908
  537MOL0     H72474  12.517   8.253  -0.873  2.0822  0.7109 -0.6594
  537MOL0     H72475  12.598   8.497  -0.896 -1.3147  1.7276 -0.7665
  537MOL0     H72476  12.547   8.442  -0.742 -1.3673 -1.4277  0.2690
  537MOL0     H72477  12.057   8.168  -0.213  0.0980  0.1340 -1.1587
  537MOL0     H72478  11.905   8.168  -0.005  1.2825 -3.3038  2.1426
  537MOL0     H72479  11.660   8.119   0.244 -0.3446  1.6104  3.2834
  537MOL0     H72480  11.465   8.180   0.380  1.1607 -0.2281 -1.9588
  537MOL0     H72481  10.774   8.409   0.239  0.5115 -3.2461  2.5758
  537MOL0     H72482  11.001   8.399   0.295 -1.9968 -0.1186 -1.9673
  537MOL0     H72483  11.328   8.393   0.660 -0.8963  0.7349 -0.2681
  537MOL0     H72484  11.559   8.378   0.734  0.8341  2.5134  0.8828
  537MOL0     H72485  11.956   8.543   0.640  0.8546  2.5757  1.5029
  537MOL0     H72486  11.882   8.604   0.493 -1.7407 -0.0769  0.5022
  537MOL0     H72487  11.737   8.748   0.640 -0.4731  1.0951  0.8668
  537MOL0     H72488  11.902   8.802   0.657  0.7409 -0.2020  2.3445
  537MOL0     H72489  11.760   8.633   0.854 -0.0904 -0.6236 -0.8456
  537MOL0     H72490  11.808   8.807   0.877  0.9156 -0.3676  1.3094
  537MOL0     H72491  12.034   8.768   0.876  0.0516 -0.8465 -3.3637
  537MOL0     H72492  12.009   8.600   0.834  0.8460  0.3444 -0.6615
  537MOL0     H72493  11.949   8.641   1.252  0.3564  1.3641 -0.1218
  537MOL0     H72494  11.679   8.656   0.419 -1.3414  2.9621  1.8809
  537MOL0     H72495  11.461   8.666   0.340  2.2388 -2.0503 -1.4550
  538MOL0     O72496   8.822   5.759   8.059 -0.6183  0.4208  0.4120
  538MOL0     C72497   8.943   5.780   8.031  0.3067  0.2542 -0.3406
  538MOL0     O72498   9.011   5.735   7.924  0.0189 -0.0790 -0.5059
  538MOL0     C72499   8.937   5.710   7.809 -0.7256 -0.7008  1.1395
  538MOL0     C72500   8.832   5.615   7.797  0.3791 -0.3600  0.3736
  538MOL0     C72501   8.792   5.569   7.671 -0.0274  0.0779  0.6275
  538MOL0     C72502   8.851   5.612   7.552 -0.0445 -0.3731  0.1092
  538MOL0     O72503   8.800   5.565   7.432 -1.3615 -0.3772  0.8621
  538MOL0     C72504   8.794   5.651   7.326  0.0572 -1.7807 -0.0314
  538MOL0     C72505   8.759   5.595   7.191 -0.4338 -0.9808 -0.1704
  538MOL0     C72506   8.610   5.558   7.176  0.8895 -0.0079  0.4090
  538MOL0     C72507   8.509   5.668   7.165 -0.1314  0.5007 -0.8918
  538MOL0     C72508   8.383   5.592   7.144 -0.0287  0.0371 -0.0942
  538MOL0     C72509   8.345   5.585   6.997 -0.4164  0.2285  0.2906
  538MOL0     C72510   8.194   5.551   6.982  0.5614 -0.0770  0.0336
  538MOL0     C72511   8.152   5.540   6.833 -0.1226  0.5780 -0.1813
  538MOL0     N72512   8.010   5.493   6.820  0.0514  1.1175 -0.6317
  538MOL0     C72513   7.953   5.407   6.732  0.5522  0.4893 -0.6628
  538MOL0     C72514   7.821   5.404   6.771  0.2298  0.6626  0.2345
  538MOL0     C72515   7.720   5.306   6.712  0.1708  0.0637 -0.2199
  538MOL0     C72516   7.679   5.327   6.563  0.2373  0.3595 -0.2680
  538MOL0     C72517   7.573   5.233   6.514 -0.5013 -1.0614 -0.0520
  538MOL0     C72518   7.495   5.268   6.383 -0.4286  0.2039  0.0148
  538MOL0     O72519   7.582   5.262   6.279 -0.3091 -0.4826 -0.5145
  538MOL0     C72520   7.531   5.255   6.152 -0.0344 -0.1894  1.0362
  538MOL0     C72521   7.396   5.283   6.115 -0.2101 -0.1896 -0.2907
  538MOL0     C72522   7.355   5.280   5.978  0.3060 -0.3114 -0.8541
  538MOL0     C72523   7.207   5.298   5.959 -0.0860  0.3872  0.2530
  538MOL0     C72524   7.454   5.239   5.880 -0.0053  0.1793 -0.5117
  538MOL0     C72525   7.437   5.257   5.735  0.1268 -0.8075  0.2376
  538MOL0     O72526   7.533   5.220   5.653  0.1667  0.1368 -0.1160
  538MOL0     C72527   7.517   5.227   5.520 -0.2191  0.2562 -0.2349
  538MOL0     C72528   7.491   5.349   5.461 -0.4665 -0.1219  0.3872
  538MOL0     C72529   7.460   5.362   5.326 -0.2401 -1.0681 -0.5936
  538MOL0     C72530   7.470   5.248   5.246  1.2774  0.0999  0.2783
  538MOL0     O72531   7.456   5.260   5.109 -0.2124  0.2731  0.4072
  538MOL0     C72532   7.427   5.145   5.028 -0.4890  0.1066 -0.0264
  538MOL0     C72533   7.374   5.218   4.896  0.1449  0.2153 -1.0516
  538MOL0     C72534   7.303   5.094   4.827  0.2843  0.0105  0.1437
  538MOL0     C72535   7.300   5.135   4.670 -0.3910  0.7989 -0.3129
  538MOL0     C72536   7.229   5.022   4.577  0.3265 -0.6857  0.8716
  538MOL0     C72537   7.260   4.871   4.598 -0.1257 -0.1652  0.2799
  538MOL0     C72538   7.204   4.806   4.470 -0.5564  0.0428  0.4411
  538MOL0     C72539   7.184   4.652   4.481 -0.1793  0.4365 -0.4811
  538MOL0    Cl72540   7.340   4.563   4.490 -0.3815  0.0387  0.0693
  538MOL0     C72541   7.502   5.125   5.300  0.0844  0.2533  0.4365
  538MOL0     C72542   7.519   5.112   5.441  0.1286 -0.5351 -0.4496
  538MOL0     O72543   7.343   5.330   5.702 -0.5375 -0.7936  0.2832
  538MOL0     C72544   7.577   5.199   5.927 -0.2227 -0.5852 -0.8738
  538MOL0     C72545   7.621   5.207   6.063  0.0634 -0.1067  0.6305
  538MOL0     N72546   7.794   5.491   6.877  0.6437 -0.1753 -0.1380
  538MOL0     N72547   7.908   5.534   6.906  0.4269  0.0776 -0.0882
  538MOL0     C72548   8.949   5.706   7.562  0.0453 -0.7151 -0.4312
  538MOL0     C72549   8.989   5.761   7.685 -0.0874 -0.0300 -0.1585
  538MOL0     C72550   9.008   5.857   8.132 -1.1551 -0.7037 -0.1395
  538MOL0     C72551   9.139   5.892   8.113 -1.3494 -0.3060  0.3306
  538MOL0     C72552   9.202   5.972   8.207 -0.0040  0.5269 -0.1643
  538MOL0     C72553   9.144   6.000   8.333  0.0074  0.2093 -0.6328
  538MOL0     O72554   9.218   6.069   8.427 -1.0599 -0.3828 -0.4046
  538MOL0     C72555   9.241   6.210   8.387 -0.7427 -0.2106 -0.7986
  538MOL0     C72556   9.135   6.302   8.444 -0.2155 -0.1619  0.6230
  538MOL0     C72557   9.161   6.453   8.404  0.3328 -0.1721  1.3578
  538MOL0     C72558   9.039   6.538   8.409 -0.9576 -0.8504  0.9313
  538MOL0     C72559   8.936   6.517   8.300  0.1252  0.5084 -0.2373
  538MOL0     C72560   8.861   6.500   8.211  0.1890  0.7463  0.4766
  538MOL0     C72561   9.013   5.950   8.363  0.1834 -0.2403  0.7826
  538MOL0     C72562   8.947   5.880   8.262  0.6789  0.8695 -0.6105
  538MOL0     H72563   8.786   5.581   7.889  0.2807  2.0657  1.2902
  538MOL0     H72564   8.713   5.495   7.670  0.0823 -0.1258 -2.2179
  538MOL0     H72565   8.722   5.731   7.346  0.6600 -1.1838 -0.1996
  538MOL0     H72566   8.898   5.681   7.309 -0.9398  2.4848  0.2360
  538MOL0     H72567   8.783   5.679   7.124 -1.1160 -2.6394 -2.6274
  538MOL0     H72568   8.820   5.509   7.160  0.1722  0.6073 -3.9584
  538MOL0     H72569   8.596   5.496   7.087 -3.3102  1.6662 -0.3435
  538MOL0     H72570   8.573   5.500   7.262 -0.7150 -1.0247 -0.9112
  538MOL0     H72571   8.520   5.727   7.257  2.2678 -1.0531 -0.0951
  538MOL0     H72572   8.543   5.731   7.082  1.1218 -0.0323 -0.8105
  538MOL0     H72573   8.379   5.492   7.189 -1.2435  0.5940  1.0908
  538MOL0     H72574   8.301   5.648   7.190  1.8810  2.5103  0.4635
  538MOL0     H72575   8.368   5.673   6.937 -1.4787  0.2567 -0.1019
  538MOL0     H72576   8.393   5.507   6.936  1.2750  1.4118  0.0513
  538MOL0     H72577   8.165   5.465   7.043  1.0882  0.7751  1.5452
  538MOL0     H72578   8.143   5.637   7.026  1.0240  0.2010  0.0264
  538MOL0     H72579   8.220   5.472   6.782  0.7530  1.4200 -0.1813
  538MOL0     H72580   8.164   5.637   6.782  1.5501  1.0856  1.0907
  538MOL0     H72581   8.010   5.361   6.652  0.8047 -3.7628  1.6708
  538MOL0     H72582   7.743   5.200   6.723 -1.0856 -0.0192  2.0901
  538MOL0     H72583   7.630   5.320   6.772 -0.5594  0.2546 -1.3198
  538MOL0     H72584   7.775   5.313   6.513 -0.1930  0.2386 -1.0823
  538MOL0     H72585   7.647   5.431   6.553 -0.9462  0.1841  1.3242
  538MOL0     H72586   7.496   5.231   6.591  1.0942  2.4932  1.8998
  538MOL0     H72587   7.605   5.129   6.511 -0.8678 -1.2011  0.6595
  538MOL0     H72588   7.459   5.371   6.395  1.3971  0.7334  1.3600
  538MOL0     H72589   7.409   5.204   6.365 -1.0786  1.2547 -0.7724
  538MOL0     H72590   7.331   5.323   6.191  1.0733  3.1909 -0.7898
  538MOL0     H72591   7.183   5.245   5.867 -3.1662 -0.8680  1.6648
  538MOL0     H72592   7.151   5.234   6.028  1.5790  0.7817  2.0551
  538MOL0     H72593   7.160   5.396   5.948 -1.0502 -0.0898  0.0184
  538MOL0     H72594   7.471   5.441   5.515  0.3817  0.1720  0.2097
  538MOL0     H72595   7.455   5.447   5.259  2.5982 -0.7616 -0.5727
  538MOL0     H72596   7.510   5.074   5.019  0.1293  0.9242 -1.1037
  538MOL0     H72597   7.344   5.094   5.076  1.5969  0.1257  4.0669
  538MOL0     H72598   7.305   5.295   4.930  0.1828  1.0243 -2.6950
  538MOL0     H72599   7.460   5.265   4.846  3.0910 -0.5975  2.7508
  538MOL0     H72600   7.206   5.064   4.868  0.6701 -2.7194 -0.7465
  538MOL0     H72601   7.366   5.007   4.848  1.1635  0.5987  0.0176
  538MOL0     H72602   7.257   5.234   4.651  0.0899  1.1603  0.4374
  538MOL0     H72603   7.404   5.139   4.637  0.0912 -0.6449  0.8861
  538MOL0     H72604   7.254   5.055   4.475 -1.2864 -2.2083 -0.0746
  538MOL0     H72605   7.121   5.034   4.590  0.5069 -0.0539  1.8738
  538MOL0     H72606   7.362   4.844   4.625  0.6403  1.3152 -0.9964
  538MOL0     H72607   7.199   4.843   4.684  0.6147  2.3823  1.7514
  538MOL0     H72608   7.278   4.829   4.393 -1.3700 -2.8861 -1.4045
  538MOL0     H72609   7.112   4.856   4.438  0.0664 -0.6895 -2.9583
  538MOL0     H72610   7.133   4.630   4.388 -0.0496 -2.1400 -0.0054
  538MOL0     H72611   7.122   4.631   4.569  0.8434 -1.8902 -0.2411
  538MOL0     H72612   7.512   5.042   5.231 -0.3432  1.7930 -1.5554
  538MOL0     H72613   7.524   5.018   5.494 -2.8300  0.5765  2.0912
  538MOL0     H72614   7.657   5.176   5.857  1.7231  3.1376 -0.1647
  538MOL0     H72615   7.724   5.195   6.095  0.0916  2.1019  1.5775
  538MOL0     H72616   9.009   5.741   7.478  1.2832 -2.8988 -0.5304
  538MOL0     H72617   9.072   5.831   7.686  1.4326 -1.7446  1.3011
  538MOL0     H72618   9.198   5.864   8.027  1.7732  2.0207  1.5231
  538MOL0     H72619   9.308   5.990   8.194 -0.2211  0.1825 -3.3481
  538MOL0     H72620   9.342   6.239   8.417  0.2654 -2.3886 -1.8219
  538MOL0     H72621   9.242   6.222   8.278  1.5731 -0.7445 -0.8779
  538MOL0     H72622   9.133   6.296   8.553 -0.2681 -0.1922  0.6210
  538MOL0     H72623   9.039   6.257   8.417  0.1996  0.4228 -2.1767
  538MOL0     H72624   9.205   6.451   8.304 -0.0826 -2.9389  1.1495
  538MOL0     H72625   9.236   6.488   8.475  3.8721 -1.4020 -1.4729
  538MOL0     H72626   9.068   6.643   8.402 -2.7852 -0.4048 -0.3822
  538MOL0     H72627   8.998   6.525   8.510 -0.0481 -1.1266  1.2788
  538MOL0     H72628   8.808   6.478   8.121  2.6843 -2.8958 -0.3432
  538MOL0     H72629   8.971   5.974   8.460 -2.1018  1.1734 -0.4432
  538MOL0     H72630   8.850   5.839   8.287  0.4775  1.5541 -0.2717
  539MOL0     O72631   5.542   9.201   4.429 -0.2399 -0.9943 -0.4924
  539MOL0     C72632   5.625   9.110   4.452 -0.2652  0.4475  0.1455
  539MOL0     O72633   5.661   9.066   4.579 -0.5636 -0.0444  0.8412
  539MOL0     C72634   5.593   9.120   4.687 -0.1442  0.4231 -0.2021
  539MOL0     C72635   5.452   9.131   4.705 -0.4975 -0.3632  0.0084
  539MOL0     C72636   5.395   9.197   4.815 -0.0050 -0.0090  0.3994
  539MOL0     C72637   5.476   9.262   4.909 -0.8237  1.3377  0.7474
  539MOL0     O72638   5.412   9.316   5.012 -0.0972 -0.6528 -0.1520
  539MOL0     C72639   5.482   9.313   5.141  0.1593 -0.9071  0.2399
  539MOL0     C72640   5.405   9.371   5.259  0.5028  0.1369  0.2762
  539MOL0     C72641   5.492   9.366   5.389  1.6387  0.2103  0.3947
  539MOL0     C72642   5.416   9.448   5.495 -0.1395 -0.7106 -0.6448
  539MOL0     C72643   5.515   9.510   5.593 -0.0965  0.4218  0.8907
  539MOL0     C72644   5.611   9.402   5.656 -0.1455  0.7762  0.1904
  539MOL0     C72645   5.681   9.461   5.780 -0.1811 -0.1713  0.5844
  539MOL0     C72646   5.760   9.361   5.864  0.0523  0.5363 -0.0478
  539MOL0     N72647   5.799   9.424   5.990 -0.2746  0.6122  0.3461
  539MOL0     C72648   5.913   9.494   6.005 -0.1140  0.7418 -0.8980
  539MOL0     C72649   5.920   9.528   6.136 -0.2387  0.8833 -0.2659
  539MOL0     C72650   6.033   9.594   6.214  0.0294 -0.9269  0.4821
  539MOL0     C72651   6.063   9.734   6.147 -0.0656 -0.3500  0.5252
  539MOL0     C72652   6.134   9.813   6.258  0.0237 -1.3284 -0.3309
  539MOL0     C72653   6.237   9.913   6.194  0.7579  0.6830 -0.6983
  539MOL0     O72654   6.181   9.983   6.085 -0.0485  0.2026 -0.6707
  539MOL0     C72655   6.103  10.093   6.121 -0.6935  0.1953  0.0970
  539MOL0     C72656   6.048  10.146   6.005 -0.1065  0.4493  0.9018
  539MOL0     C72657   5.962  10.261   6.008 -1.3022  1.2138 -0.1055
  539MOL0     C72658   5.892  10.288   5.875  0.0166 -0.0492  0.6860
  539MOL0     C72659   5.936  10.320   6.131  0.6711  0.3468  0.0799
  539MOL0     C72660   5.839  10.436   6.144  0.3728  0.2276 -0.1715
  539MOL0     O72661   5.754  10.433   6.244  0.2233 -0.2288 -0.1033
  539MOL0     C72662   5.712  10.557   6.303 -0.0380  0.1660  0.3273
  539MOL0     C72663   5.606  10.637   6.259 -0.2002 -0.6539  0.4816
  539MOL0     C72664   5.572  10.758   6.327 -0.0691  0.0307 -0.5873
  539MOL0     C72665   5.659  10.798   6.433  0.4596 -0.7034  0.5309
  539MOL0     O72666   5.629  10.909   6.504  0.2079 -0.3223 -0.0940
  539MOL0     C72667   5.638  10.908   6.651  0.0616  0.0542  0.6030
  539MOL0     C72668   5.658  11.052   6.706  0.1254 -0.1938 -0.3516
  539MOL0     C72669   5.802  11.096   6.673 -0.8601 -0.1954  0.1464
  539MOL0     C72670   5.897  11.145   6.780 -0.1041  0.5101 -0.0217
  539MOL0     C72671   6.012  11.211   6.717  0.4388 -0.0800 -0.1050
  539MOL0     C72672   6.096  11.293   6.824 -0.0373 -0.5787  0.3101
  539MOL0     C72673   6.195  11.390   6.745 -0.5490  0.0301 -0.1399
  539MOL0     C72674   6.293  11.316   6.655  0.1024  0.6618  0.7982
  539MOL0    Cl72675   6.378  11.178   6.735 -0.2576 -0.2483  0.2214
  539MOL0     C72676   5.768  10.720   6.469  0.6476  0.6155 -0.2531
  539MOL0     C72677   5.788  10.602   6.411 -0.8935  0.0660  0.7033
  539MOL0     O72678   5.842  10.526   6.054 -0.2841  0.5990  0.1630
  539MOL0     C72679   5.986  10.263   6.244  0.0222 -0.0787 -0.2442
  539MOL0     C72680   6.072  10.156   6.244 -0.2858 -0.2650 -0.0800
  539MOL0     N72681   5.813   9.476   6.198 -0.4618 -0.4892  0.5982
  539MOL0     N72682   5.739   9.431   6.106  0.7107  1.0634 -0.8471
  539MOL0     C72683   5.618   9.246   4.889  0.8951 -0.2062 -0.8391
  539MOL0     C72684   5.675   9.184   4.782 -0.1102  0.8019  0.3513
  539MOL0     C72685   5.698   9.047   4.335 -0.0859  0.6305 -0.2909
  539MOL0     C72686   5.784   8.937   4.349  0.4386  0.2309  0.0595
  539MOL0     C72687   5.843   8.877   4.242  0.4174  0.0022  0.4847
  539MOL0     C72688   5.821   8.930   4.115 -0.0968  0.1315 -1.0600
  539MOL0     O72689   5.878   8.871   4.011  0.9725  0.1456 -0.9274
  539MOL0     C72690   5.810   8.888   3.880  0.3641  0.0526 -0.1061
  539MOL0     C72691   5.899   8.980   3.791  0.4044  0.3882 -0.8852
  539MOL0     C72692   5.813   9.016   3.672 -0.2204 -0.2532  0.0859
  539MOL0     C72693   5.893   9.086   3.557  0.1705  0.4037  0.3459
  539MOL0     C72694   5.981   9.192   3.602  0.3772  0.2526 -0.2667
  539MOL0     C72695   6.035   9.295   3.652 -0.6967  0.2345 -1.0566
  539MOL0     C72696   5.744   9.045   4.107 -0.7512 -0.4970 -0.0871
  539MOL0     C72697   5.673   9.101   4.211 -0.9518  1.3960  0.2393
  539MOL0     H72698   5.382   9.083   4.636 -1.8830  1.1460  0.2970
  539MOL0     H72699   5.287   9.194   4.824 -0.0492  0.9793  0.3395
  539MOL0     H72700   5.517   9.211   5.159 -1.2259 -1.3296  0.6763
  539MOL0     H72701   5.564   9.384   5.131 -0.5643 -0.3394 -2.6538
  539MOL0     H72702   5.368   9.472   5.237 -0.8007  0.1215  2.1489
  539MOL0     H72703   5.313   9.318   5.282 -0.8799  2.0722 -0.5102
  539MOL0     H72704   5.522   9.265   5.419 -3.6215 -2.2186 -1.2820
  539MOL0     H72705   5.580   9.426   5.362  2.7160 -0.4534  2.3174
  539MOL0     H72706   5.375   9.538   5.449 -4.1633 -2.1864 -0.3593
  539MOL0     H72707   5.329   9.404   5.544 -0.2535 -0.9047 -1.0197
  539MOL0     H72708   5.577   9.579   5.533 -0.7821 -0.6993 -1.1964
  539MOL0     H72709   5.463   9.569   5.669  0.3461  3.1797 -0.8054
  539MOL0     H72710   5.570   9.302   5.674 -0.7459  0.7955 -0.9958
  539MOL0     H72711   5.684   9.382   5.578 -1.4733 -2.5621 -0.3728
  539MOL0     H72712   5.750   9.539   5.748  0.6128 -0.4015  1.7077
  539MOL0     H72713   5.597   9.503   5.836  1.4085  4.4000 -0.0331
  539MOL0     H72714   5.837   9.307   5.807  0.4724  1.7017 -0.6257
  539MOL0     H72715   5.684   9.287   5.890 -0.1210  0.5363 -0.5473
  539MOL0     H72716   5.996   9.516   5.938  1.2507 -2.6216 -0.5363
  539MOL0     H72717   6.005   9.615   6.317 -1.1606  1.2405 -0.2329
  539MOL0     H72718   6.131   9.546   6.207  1.9906  2.7707  0.2652
  539MOL0     H72719   5.984   9.806   6.125 -0.7205 -1.0855  0.4369
  539MOL0     H72720   6.130   9.720   6.062  0.2859  0.6093  0.6325
  539MOL0     H72721   6.197   9.751   6.323  0.4377 -2.4484 -1.7503
  539MOL0     H72722   6.057   9.862   6.319  1.7191  0.3305  0.5950
  539MOL0     H72723   6.325   9.859   6.158  1.0462  0.4500  0.3244
  539MOL0     H72724   6.267   9.993   6.261 -1.2082  2.3180 -1.6613
  539MOL0     H72725   6.057  10.088   5.913 -1.6136  2.0770 -0.3389
  539MOL0     H72726   5.840  10.384   5.865  0.6170  0.3226  1.0781
  539MOL0     H72727   5.966  10.273   5.796 -0.8692 -1.3137  0.0637
  539MOL0     H72728   5.815  10.212   5.862 -1.1722  1.3595 -0.9454
  539MOL0     H72729   5.549  10.615   6.170  1.9296 -0.5156 -0.9917
  539MOL0     H72730   5.485  10.813   6.294 -3.3249 -4.8631 -1.3370
  539MOL0     H72731   5.538  10.876   6.681  0.0632  0.1278  0.6866
  539MOL0     H72732   5.712  10.840   6.692 -0.2232  0.3837  1.6912
  539MOL0     H72733   5.577  11.116   6.667 -1.2242 -1.2630  0.5935
  539MOL0     H72734   5.643  11.049   6.814  1.3111  0.1799 -0.1644
  539MOL0     H72735   5.804  11.183   6.606  1.8903  1.3395  2.0127
  539MOL0     H72736   5.854  11.014   6.623  0.9295 -0.0747  1.7009
  539MOL0     H72737   5.860  11.210   6.860  2.4250  2.2496 -0.1649
  539MOL0     H72738   5.936  11.051   6.820  0.7419  0.7906 -0.1642
  539MOL0     H72739   5.976  11.279   6.639  2.8748  0.9948 -0.3813
  539MOL0     H72740   6.073  11.134   6.670  2.3798  1.5613 -0.3862
  539MOL0     H72741   6.037  11.351   6.895  1.9497  2.1857 -0.1156
  539MOL0     H72742   6.155  11.221   6.881  0.9982  1.5954  2.1357
  539MOL0     H72743   6.251  11.438   6.825 -1.5603 -3.1511  2.7174
  539MOL0     H72744   6.133  11.463   6.693  2.0391  1.1512 -1.8424
  539MOL0     H72745   6.366  11.386   6.614  1.3486 -0.3978  1.1430
  539MOL0     H72746   6.232  11.279   6.573  2.3844 -0.5174 -0.4615
  539MOL0     H72747   5.844  10.753   6.539  0.0079  0.9534  0.2871
  539MOL0     H72748   5.868  10.547   6.459 -1.4226  0.1125  1.6522
  539MOL0     H72749   5.972  10.314   6.339  0.0043  3.6881 -2.0920
  539MOL0     H72750   6.108  10.115   6.338  1.5359  4.0553  1.3616
  539MOL0     H72751   5.688   9.288   4.961  1.4624  0.7000 -1.8861
  539MOL0     H72752   5.782   9.177   4.766 -0.5825 -2.3560 -2.6934
  539MOL0     H72753   5.809   8.912   4.451 -0.4107  0.1400  0.2566
  539MOL0     H72754   5.921   8.801   4.239 -0.1897 -0.6315  0.5312
  539MOL0     H72755   5.803   8.790   3.832 -3.2000 -0.1696  0.5975
  539MOL0     H72756   5.710   8.931   3.883  1.0328  1.6150  0.6303
  539MOL0     H72757   5.990   8.931   3.753  0.4992 -1.1041  1.1270
  539MOL0     H72758   5.932   9.070   3.842  1.2086 -0.8141  0.8219
  539MOL0     H72759   5.737   9.091   3.699 -0.3690  0.1828 -1.4647
  539MOL0     H72760   5.777   8.930   3.616  2.6032  0.4915 -3.1718
  539MOL0     H72761   5.831   9.136   3.482  0.2407 -1.7116 -1.2142
  539MOL0     H72762   5.954   9.007   3.513  2.0860  0.8613  2.0256
  539MOL0     H72763   6.069   9.379   3.708 -1.7087 -1.6551  2.7126
  539MOL0     H72764   5.729   9.092   4.011  0.6930 -1.6801 -0.9401
  539MOL0     H72765   5.612   9.190   4.205  1.0434  2.8852  1.2079
  540MOL0     O72766   9.422   3.794   6.110 -0.3971 -0.6062 -0.1638
  540MOL0     C72767   9.546   3.817   6.107  0.6741 -0.0938  0.1760
  540MOL0     O72768   9.631   3.841   6.216  0.1905 -0.2193  0.6605
  540MOL0     C72769   9.569   3.860   6.338 -0.5848 -0.3990  0.2628
  540MOL0     C72770   9.547   3.742   6.416  0.9407  0.1051 -0.3969
  540MOL0     C72771   9.503   3.763   6.541  0.1168  0.3708 -1.0991
  540MOL0     C72772   9.480   3.885   6.600  0.2970 -0.7598 -0.0940
  540MOL0     O72773   9.428   3.903   6.724 -0.2345  0.7648  0.8930
  540MOL0     C72774   9.335   3.811   6.774 -1.3975 -0.0177  0.5643
  540MOL0     C72775   9.253   3.870   6.883 -0.7905 -0.1107 -0.4574
  540MOL0     C72776   9.345   3.886   7.008 -0.1334  0.2011  0.3674
  540MOL0     C72777   9.280   3.968   7.116 -0.1580  0.0253 -0.0295
  540MOL0     C72778   9.289   4.124   7.095 -0.6851 -0.4803 -0.3587
  540MOL0     C72779   9.262   4.203   7.219  0.5542  0.3787 -0.1013
  540MOL0     C72780   9.115   4.259   7.219 -1.0592 -0.1561 -0.5293
  540MOL0     C72781   9.005   4.147   7.226 -0.7704  0.1764 -0.4174
  540MOL0     N72782   8.945   4.112   7.098  0.0808  0.1966 -0.2433
  540MOL0     C72783   8.899   4.202   6.998  0.4876  0.4534 -0.6460
  540MOL0     C72784   8.854   4.122   6.891  0.1651 -0.6629  0.1807
  540MOL0     C72785   8.777   4.171   6.781  0.1249  0.4481 -0.3030
  540MOL0     C72786   8.644   4.101   6.763  0.4353 -0.0993  1.0671
  540MOL0     C72787   8.546   4.097   6.880 -0.3366 -0.0814 -0.0697
  540MOL0     C72788   8.457   4.229   6.889 -0.3833 -0.2536 -0.8512
  540MOL0     O72789   8.547   4.336   6.921  0.0668 -0.1535 -0.2348
  540MOL0     C72790   8.592   4.354   7.050 -0.2452  0.0822  0.6456
  540MOL0     C72791   8.682   4.458   7.075 -0.2435 -0.1881 -0.1136
  540MOL0     C72792   8.743   4.483   7.204 -0.0718  0.2657  0.1173
  540MOL0     C72793   8.850   4.602   7.223  0.2473  0.0946  0.6526
  540MOL0     C72794   8.719   4.392   7.307  0.8414 -0.6603 -0.2619
  540MOL0     C72795   8.787   4.392   7.438  0.2151  0.4282 -0.7646
  540MOL0     O72796   8.728   4.336   7.554 -0.7240 -0.4931 -0.1591
  540MOL0     C72797   8.810   4.334   7.666  1.5456  0.5231  1.1419
  540MOL0     C72798   8.814   4.446   7.746  0.2689  0.5060  0.3224
  540MOL0     C72799   8.875   4.449   7.861  0.3754 -0.3656 -0.1766
  540MOL0     C72800   8.937   4.338   7.913  1.3246  0.0149 -0.0343
  540MOL0     O72801   9.009   4.344   8.033  0.0999 -0.2304  0.6107
  540MOL0     C72802   8.923   4.378   8.138 -0.3045 -0.5442 -0.1956
  540MOL0     C72803   9.006   4.353   8.267 -0.1508  0.5150 -0.5062
  540MOL0     C72804   9.130   4.440   8.286 -0.8378  0.3395 -0.2024
  540MOL0     C72805   9.183   4.442   8.433 -0.0494  0.3895 -0.7129
  540MOL0     C72806   9.274   4.317   8.470  0.6557 -0.0752  0.2719
  540MOL0     C72807   9.378   4.358   8.575 -0.8552  0.1895 -0.3779
  540MOL0     C72808   9.471   4.239   8.604 -0.7858  0.6198 -0.0741
  540MOL0     C72809   9.592   4.297   8.692 -0.1589  0.9413  0.1551
  540MOL0    Cl72810   9.698   4.167   8.768 -0.4018  0.0050 -0.0950
  540MOL0     C72811   8.925   4.216   7.843 -0.0795  0.2732  1.2311
  540MOL0     C72812   8.860   4.214   7.714  0.3832  0.5705  1.1635
  540MOL0     O72813   8.900   4.437   7.434 -0.3350 -0.3795  0.0869
  540MOL0     C72814   8.622   4.288   7.281 -0.6989  0.4963 -0.0364
  540MOL0     C72815   8.568   4.267   7.157  1.0102 -0.0138 -0.1768
  540MOL0     N72816   8.861   3.991   6.931  0.3200  0.2385 -0.8106
  540MOL0     N72817   8.912   3.987   7.057  0.1284  0.2441 -0.2540
  540MOL0     C72818   9.503   3.995   6.523 -0.8751 -0.7003  0.8680
  540MOL0     C72819   9.558   3.986   6.395 -0.2240  0.0430  0.5804
  540MOL0     C72820   9.616   3.786   5.978  0.1595 -0.5990 -0.3647
  540MOL0     C72821   9.753   3.826   5.970 -0.2833  0.0271 -0.3652
  540MOL0     C72822   9.822   3.800   5.845  0.8418  0.6176 -0.3532
  540MOL0     C72823   9.757   3.742   5.732 -0.0337  0.5544  0.4081
  540MOL0     O72824   9.831   3.736   5.613  0.1665 -0.9402 -0.6388
  540MOL0     C72825   9.782   3.810   5.505 -0.3103 -0.0659  0.5437
  540MOL0     C72826   9.856   3.937   5.502  0.0765 -0.4658  0.2326
  540MOL0     C72827   9.859   3.998   5.356  0.0351  1.1357  0.2230
  540MOL0     C72828   9.913   4.140   5.331  0.1848  0.4261 -0.2738
  540MOL0     C72829   9.832   4.237   5.395 -0.7096  0.9654  0.7800
  540MOL0     C72830   9.760   4.315   5.446 -0.1953 -0.6225  0.4565
  540MOL0     C72831   9.619   3.710   5.743 -0.2109 -0.1980  0.3939
  540MOL0     C72832   9.556   3.730   5.863 -0.5267 -0.1785  0.3290
  540MOL0     H72833   9.569   3.645   6.372 -0.5398 -0.1697 -0.5685
  540MOL0     H72834   9.500   3.682   6.613  0.4056  0.9257 -0.4510
  540MOL0     H72835   9.265   3.798   6.691 -1.5201  1.3135  0.4279
  540MOL0     H72836   9.380   3.719   6.813  1.8442 -0.0099 -2.6049
  540MOL0     H72837   9.215   3.962   6.838 -5.1141 -1.4748 -0.0989
  540MOL0     H72838   9.166   3.807   6.906 -0.8969 -0.7548 -2.4213
  540MOL0     H72839   9.383   3.793   7.051  3.4737 -0.0822 -2.8443
  540MOL0     H72840   9.440   3.930   6.976  0.4604 -1.9290 -1.0580
  540MOL0     H72841   9.177   3.932   7.123 -0.8064  1.6828 -0.4530
  540MOL0     H72842   9.330   3.940   7.210 -2.5193  0.5973  1.4841
  540MOL0     H72843   9.391   4.152   7.068 -0.1405 -0.5549  1.5035
  540MOL0     H72844   9.224   4.158   7.013  0.6268  0.7685 -0.9158
  540MOL0     H72845   9.272   4.134   7.304 -0.9158 -1.9295 -1.6768
  540MOL0     H72846   9.334   4.285   7.228 -1.4617  2.2878 -0.7731
  540MOL0     H72847   9.103   4.315   7.312  4.0014  0.2023  0.1883
  540MOL0     H72848   9.095   4.329   7.137 -1.8352 -0.1287 -0.3292
  540MOL0     H72849   8.931   4.186   7.297 -2.1634 -3.1097  0.1123
  540MOL0     H72850   9.036   4.054   7.274 -2.2708  1.0270  2.4734
  540MOL0     H72851   8.904   4.310   7.005  0.7226  0.4117  0.0008
  540MOL0     H72852   8.762   4.279   6.795  1.7983  1.1644 -3.1940
  540MOL0     H72853   8.834   4.166   6.688 -0.8552  1.2375 -0.9762
  540MOL0     H72854   8.665   4.001   6.724 -0.0452 -0.0304  0.6183
  540MOL0     H72855   8.589   4.160   6.689 -2.6996  1.9601  4.6676
  540MOL0     H72856   8.617   4.093   6.963  1.8078  2.9252 -1.5893
  540MOL0     H72857   8.471   4.017   6.882 -0.0303 -0.3945  2.1230
  540MOL0     H72858   8.378   4.228   6.965  0.5207 -1.0347  0.0966
  540MOL0     H72859   8.405   4.253   6.796 -1.3644  2.2077  0.2309
  540MOL0     H72860   8.694   4.525   6.991  1.1736  0.4698  0.5725
  540MOL0     H72861   8.805   4.683   7.165 -1.4755 -2.7447 -2.3676
  540MOL0     H72862   8.868   4.645   7.322 -0.8583 -0.5796  1.1703
  540MOL0     H72863   8.943   4.583   7.169 -1.0587 -1.7947 -1.0860
  540MOL0     H72864   8.770   4.538   7.710  0.0000  0.1431 -0.2977
  540MOL0     H72865   8.880   4.544   7.913 -2.4157 -0.0099 -0.3945
  540MOL0     H72866   8.903   4.485   8.129  4.1504  0.2982 -4.9432
  540MOL0     H72867   8.833   4.316   8.139 -1.0218  0.2899  3.5308
  540MOL0     H72868   8.928   4.366   8.343  0.3511 -1.7561  0.4856
  540MOL0     H72869   9.042   4.250   8.264  2.0277  1.1973  0.1784
  540MOL0     H72870   9.111   4.543   8.252  1.6601  1.6916  2.1363
  540MOL0     H72871   9.217   4.418   8.223 -0.2545  1.7027  0.0863
  540MOL0     H72872   9.241   4.535   8.443  1.6718 -0.7139  0.0121
  540MOL0     H72873   9.106   4.459   8.508  0.2623  0.9550 -0.5094
  540MOL0     H72874   9.327   4.277   8.383 -0.8497  0.0636 -0.7551
  540MOL0     H72875   9.210   4.235   8.504  0.4069 -0.2076 -0.4818
  540MOL0     H72876   9.437   4.440   8.533  0.0283 -0.2674 -0.0356
  540MOL0     H72877   9.342   4.405   8.666 -1.7010  1.7972 -1.4844
  540MOL0     H72878   9.509   4.194   8.512  0.9829 -0.4466  1.1198
  540MOL0     H72879   9.421   4.165   8.666  0.7854  0.0811  0.6021
  540MOL0     H72880   9.575   4.371   8.770  3.6542  0.1908  1.9529
  540MOL0     H72881   9.648   4.345   8.610 -1.0813  1.5278 -0.1437
  540MOL0     H72882   8.980   4.140   7.897 -0.4790  0.1510  1.4727
  540MOL0     H72883   8.868   4.125   7.652 -0.7835  0.6042  0.9505
  540MOL0     H72884   8.604   4.212   7.356 -1.8384 -0.2819 -1.0615
  540MOL0     H72885   8.488   4.194   7.157 -1.1539  2.1952  0.0248
  540MOL0     H72886   9.493   4.094   6.566  2.4744 -0.4457  1.2704
  540MOL0     H72887   9.589   4.068   6.332  1.5078 -2.3553 -1.9286
  540MOL0     H72888   9.806   3.866   6.056 -2.9896  0.7346  1.0987
  540MOL0     H72889   9.927   3.824   5.833  0.8251  0.2369 -1.3451
  540MOL0     H72890   9.804   3.753   5.414  1.6447  1.2274  0.1315
  540MOL0     H72891   9.674   3.826   5.502 -0.2850  0.1281  0.6149
  540MOL0     H72892   9.957   3.912   5.537  0.7779  0.1965 -1.1897
  540MOL0     H72893   9.813   4.008   5.572 -1.3853 -1.9374  0.8964
  540MOL0     H72894   9.759   3.982   5.315  0.0726 -1.5957  0.9698
  540MOL0     H72895   9.914   3.935   5.286 -1.6484 -0.6019  0.3906
  540MOL0     H72896   9.933   4.161   5.225  3.1922 -1.3131 -0.1694
  540MOL0     H72897  10.014   4.139   5.374 -0.2859 -1.2338  0.9053
  540MOL0     H72898   9.684   4.386   5.472  0.6147  0.2143  0.6063
  540MOL0     H72899   9.568   3.688   5.650  0.7887  1.9916 -0.7466
  540MOL0     H72900   9.449   3.716   5.862 -0.7070  1.0842 -0.5128
  541MOL0     O72901   2.865   6.851   8.384  0.4231  0.0661  0.0365
  541MOL0     C72902   2.941   6.926   8.323  0.4468 -0.1599  0.3119
  541MOL0     O72903   2.904   7.036   8.253 -0.3295 -0.5292  0.5955
  541MOL0     C72904   2.774   7.080   8.254 -1.1686 -0.1689  0.2221
  541MOL0     C72905   2.703   7.116   8.142  0.4737  0.1285  0.7285
  541MOL0     C72906   2.574   7.185   8.141  0.0475  1.1762 -0.5088
  541MOL0     C72907   2.509   7.210   8.261  1.4677  0.0586 -0.7487
  541MOL0     O72908   2.381   7.275   8.269  0.5500  0.3515 -0.0576
  541MOL0     C72909   2.280   7.212   8.189  0.0156 -0.4982  0.1586
  541MOL0     C72910   2.149   7.289   8.221  0.4735 -0.2693  0.8065
  541MOL0     C72911   2.139   7.454   8.191 -0.0923 -0.0393 -1.2709
  541MOL0     C72912   1.985   7.497   8.178 -0.5916  0.0584 -0.0441
  541MOL0     C72913   1.902   7.527   8.304 -0.0386  1.4790  0.3807
  541MOL0     C72914   1.765   7.571   8.269 -0.5944  0.0170  0.6173
  541MOL0     C72915   1.660   7.580   8.384  0.5697  0.9173  0.3045
  541MOL0     C72916   1.708   7.594   8.531 -0.1871 -0.2912  0.1761
  541MOL0     N72917   1.741   7.734   8.564  0.8035  0.3241 -0.6423
  541MOL0     C72918   1.657   7.828   8.607  0.0333  0.0881 -0.3049
  541MOL0     C72919   1.726   7.931   8.656 -0.3063 -0.1387  0.7611
  541MOL0     C72920   1.678   8.060   8.710  0.0498 -0.5822  0.1748
  541MOL0     C72921   1.699   8.064   8.859 -0.2761  0.3173 -0.5026
  541MOL0     C72922   1.618   8.181   8.935 -0.7577 -0.1265  0.5622
  541MOL0     C72923   1.658   8.180   9.079 -0.3326  1.3312  0.4857
  541MOL0     O72924   1.565   8.266   9.145 -0.0499 -0.4518  0.0987
  541MOL0     C72925   1.592   8.304   9.267  0.4806 -0.2971  0.3336
  541MOL0     C72926   1.546   8.426   9.307  0.0933 -0.3783 -0.7436
  541MOL0     C72927   1.580   8.480   9.423 -0.0025 -0.4513  0.3615
  541MOL0     C72928   1.503   8.605   9.456 -0.5244 -0.5863  0.0389
  541MOL0     C72929   1.657   8.407   9.518 -0.0226  0.0834 -0.9025
  541MOL0     C72930   1.673   8.454   9.661 -0.2937 -0.1489  0.1393
  541MOL0     O72931   1.730   8.363   9.741  0.0170 -0.7624  0.2368
  541MOL0     C72932   1.691   8.366   9.877 -0.6283 -0.4177 -0.0381
  541MOL0     C72933   1.765   8.280   9.951  0.2954  0.5163  0.1105
  541MOL0     C72934   1.738   8.261  10.091 -0.3356 -0.5494  0.7936
  541MOL0     C72935   1.639   8.342  10.158  0.1306 -0.2054 -0.2446
  541MOL0     O72936   1.613   8.349  10.286 -0.4989 -0.9910  0.0304
  541MOL0     C72937   1.652   8.464  10.365 -0.4956 -0.9439 -0.1244
  541MOL0     C72938   1.781   8.533  10.323 -0.5379 -0.4701  0.4814
  541MOL0     C72939   1.827   8.638  10.423 -0.1625  1.1103 -0.1132
  541MOL0     C72940   1.934   8.728  10.373 -0.4500 -0.2533  0.4791
  541MOL0     C72941   1.971   8.841  10.477 -0.0700 -0.7184  0.0102
  541MOL0     C72942   2.071   8.930  10.411 -1.0173 -0.2872  0.5320
  541MOL0     C72943   2.164   8.989  10.512 -0.3882 -0.2593  0.5191
  541MOL0     C72944   2.286   9.066  10.458 -0.2658  0.3180  0.4834
  541MOL0    Cl72945   2.379   9.150  10.581  0.2139  0.4163 -0.0937
  541MOL0     C72946   1.566   8.430  10.075  0.6661  0.4883 -1.3286
  541MOL0     C72947   1.593   8.449   9.939  0.5355 -0.7653  0.5455
  541MOL0     O72948   1.645   8.571   9.690  0.0606 -0.5474  0.3577
  541MOL0     C72949   1.707   8.291   9.480 -0.7996  0.3179  0.9207
  541MOL0     C72950   1.674   8.232   9.359  0.3989 -0.4976 -0.7728
  541MOL0     N72951   1.856   7.888   8.646 -0.1495  0.3042 -1.0487
  541MOL0     N72952   1.867   7.775   8.591  1.0634  0.1569  0.8392
  541MOL0     C72953   2.582   7.179   8.382 -1.3674  0.0890 -0.1441
  541MOL0     C72954   2.708   7.103   8.378  0.0927 -0.9756 -0.0622
  541MOL0     C72955   3.086   6.892   8.334  0.8033  0.3418  0.0623
  541MOL0     C72956   3.124   6.783   8.417 -0.0531 -0.2755 -0.4401
  541MOL0     C72957   3.256   6.759   8.433  0.2880 -0.1696 -1.0601
  541MOL0     C72958   3.356   6.831   8.363 -0.1775 -0.1521 -0.4411
  541MOL0     O72959   3.478   6.771   8.356 -0.6888  0.2907 -0.3272
  541MOL0     C72960   3.594   6.856   8.367 -0.3623  0.5307 -0.1441
  541MOL0     C72961   3.692   6.811   8.482  0.1385  0.5367  0.2012
  541MOL0     C72962   3.832   6.867   8.469 -0.2967  0.5623 -0.4725
  541MOL0     C72963   3.914   6.810   8.355 -0.8682 -0.2623  0.1209
  541MOL0     C72964   4.055   6.867   8.341  0.2993 -0.7974 -0.1801
  541MOL0     C72965   4.168   6.905   8.325 -0.4648  0.1811 -0.6995
  541MOL0     C72966   3.314   6.941   8.288  0.2139 -0.3306 -0.2779
  541MOL0     C72967   3.183   6.966   8.278  0.4754 -0.0527 -0.4295
  541MOL0     H72968   2.754   7.097   8.048 -1.0864  0.0191 -0.1396
  541MOL0     H72969   2.524   7.213   8.049  1.8372  1.5794 -1.4099
  541MOL0     H72970   2.327   7.218   8.091  3.3146 -1.3492  1.5376
  541MOL0     H72971   2.285   7.109   8.228 -1.1924  0.1785  2.2679
  541MOL0     H72972   2.055   7.255   8.177  0.0835  2.5121 -0.7562
  541MOL0     H72973   2.141   7.284   8.330 -1.2322  1.6077  0.8383
  541MOL0     H72974   2.192   7.499   8.275 -0.6152 -1.1629 -0.3147
  541MOL0     H72975   2.196   7.463   8.098  0.6974 -0.1815 -0.8043
  541MOL0     H72976   1.978   7.589   8.119  2.5399 -0.6107 -1.6590
  541MOL0     H72977   1.934   7.417   8.123  1.4090 -0.5295 -1.1145
  541MOL0     H72978   1.896   7.435   8.362 -1.5085  2.1605  1.3471
  541MOL0     H72979   1.949   7.602   8.368  0.3156  1.4893  0.1099
  541MOL0     H72980   1.772   7.663   8.211 -2.0331 -0.0874  0.2439
  541MOL0     H72981   1.724   7.496   8.201  1.2003  1.1259 -1.8245
  541MOL0     H72982   1.587   7.661   8.371  0.3043  0.4937 -1.0374
  541MOL0     H72983   1.610   7.484   8.367 -1.9192  2.4105 -1.6510
  541MOL0     H72984   1.794   7.529   8.549 -1.8342 -2.8192 -0.4883
  541MOL0     H72985   1.628   7.557   8.596 -2.8411  2.6283 -1.1392
  541MOL0     H72986   1.549   7.830   8.612  0.0736  1.3813  0.4074
  541MOL0     H72987   1.736   8.144   8.672  0.3088  0.1133  1.9913
  541MOL0     H72988   1.571   8.064   8.691 -0.0460 -1.2114  0.5557
  541MOL0     H72989   1.802   8.084   8.892 -1.0132 -0.2611  2.4121
  541MOL0     H72990   1.659   7.971   8.899 -0.6440  1.6360  2.4482
  541MOL0     H72991   1.510   8.166   8.927 -0.5699 -1.9513  0.9896
  541MOL0     H72992   1.645   8.277   8.890 -2.1228  0.5564  1.1486
  541MOL0     H72993   1.761   8.203   9.106  0.4288 -1.7510  0.5522
  541MOL0     H72994   1.646   8.076   9.111  0.5155  1.6245  1.8300
  541MOL0     H72995   1.478   8.485   9.246  0.3827 -1.0632 -1.7465
  541MOL0     H72996   1.415   8.580   9.517 -0.0385  1.5845  1.8010
  541MOL0     H72997   1.565   8.678   9.509  0.9531 -0.6968 -1.4645
  541MOL0     H72998   1.472   8.663   9.369  0.2287 -0.9014 -0.4402
  541MOL0     H72999   1.831   8.220   9.889 -1.2309  0.3559 -1.4452
  541MOL0     H73000   1.801   8.196  10.151  1.7877 -3.4684 -3.9948
  541MOL0     H73001   1.569   8.535  10.355  1.0146  1.3159  2.0595
  541MOL0     H73002   1.661   8.429  10.468 -0.7510  0.9284  0.5679
  541MOL0     H73003   1.864   8.463  10.329 -1.6646 -1.7995  1.5419
  541MOL0     H73004   1.776   8.580  10.225  1.9381 -0.0819  0.4924
  541MOL0     H73005   1.864   8.584  10.511 -0.2074  3.2200  1.2660
  541MOL0     H73006   1.743   8.699  10.457  0.2501  1.4123  0.3644
  541MOL0     H73007   2.022   8.669  10.349 -0.5860  0.8714 -3.4069
  541MOL0     H73008   1.912   8.774  10.276  0.3114  0.9197  0.8461
  541MOL0     H73009   2.021   8.779  10.552 -1.0291 -0.0471  1.2561
  541MOL0     H73010   1.889   8.895  10.526  2.6155  1.0413  2.9147
  541MOL0     H73011   2.128   8.877  10.333 -2.4493  0.9026 -1.4163
  541MOL0     H73012   2.015   9.014  10.369 -0.6828 -0.2352  0.1738
  541MOL0     H73013   2.208   8.907  10.570  2.5995 -0.1202 -1.3278
  541MOL0     H73014   2.112   9.054  10.583 -0.1646  2.1534 -1.3979
  541MOL0     H73015   2.251   9.136  10.381  0.8294  3.6835  2.8388
  541MOL0     H73016   2.341   8.989  10.403 -1.1916 -1.8447  2.4156
  541MOL0     H73017   1.499   8.498  10.127  1.8361 -1.3890  3.1287
  541MOL0     H73018   1.524   8.505   9.877  0.1922 -1.7428  0.0364
  541MOL0     H73019   1.761   8.231   9.553  2.4882  2.6584  0.5974
  541MOL0     H73020   1.713   8.133   9.335  1.3529  0.4350 -3.4098
  541MOL0     H73021   2.539   7.202   8.479  0.1626 -0.2851  0.6522
  541MOL0     H73022   2.766   7.087   8.468 -0.8485  2.2276  1.2529
  541MOL0     H73023   3.048   6.714   8.452 -1.2190  0.9623 -0.4483
  541MOL0     H73024   3.297   6.676   8.490 -0.1946  1.9015  2.6883
  541MOL0     H73025   3.644   6.838   8.271 -1.2506 -1.3734 -0.2870
  541MOL0     H73026   3.570   6.963   8.373  2.3200  1.1407  0.9344
  541MOL0     H73027   3.692   6.702   8.474  0.3671  0.5398  0.1373
  541MOL0     H73028   3.643   6.849   8.572 -2.3374 -2.2356  0.1956
  541MOL0     H73029   3.896   6.859   8.558 -2.2596  0.9789  1.0408
  541MOL0     H73030   3.817   6.973   8.450 -2.0876  0.9115  2.2017
  541MOL0     H73031   3.874   6.816   8.254  2.5401 -0.1688 -1.3506
  541MOL0     H73032   3.929   6.702   8.367 -0.9897 -0.1713  1.3059
  541MOL0     H73033   4.271   6.937   8.325  0.3218 -1.9450  2.0929
  541MOL0     H73034   3.383   6.998   8.227 -0.8405  1.3414  0.0341
  541MOL0     H73035   3.156   7.054   8.220  1.1116  1.9528  2.1408
  542MOL0     O73036   2.792  11.076  10.387  0.0673 -0.0834 -0.1457
  542MOL0     C73037   2.778  11.097  10.507 -0.5334 -0.6070  0.6641
  542MOL0     O73038   2.820  11.007  10.605 -0.2146  0.2439 -0.3032
  542MOL0     C73039   2.889  10.885  10.577  1.4326  0.6337 -0.4476
  542MOL0     C73040   2.912  10.816  10.457  0.8020 -0.0780 -0.7696
  542MOL0     C73041   2.944  10.677  10.466  0.3889  0.2397 -0.1133
  542MOL0     C73042   2.958  10.619  10.590 -0.4755  0.3892 -0.3326
  542MOL0     O73043   2.985  10.482  10.572 -0.2464  0.0509 -0.2482
  542MOL0     C73044   2.951  10.397  10.684  0.9485  0.6682 -0.2617
  542MOL0     C73045   2.803  10.369  10.677 -0.5225  0.0478  0.2621
  542MOL0     C73046   2.727  10.461  10.765  0.4210 -0.0679  2.1152
  542MOL0     C73047   2.579  10.428  10.763  0.0710 -0.2931  0.5986
  542MOL0     C73048   2.508  10.508  10.876  0.7485 -0.2543 -0.5377
  542MOL0     C73049   2.354  10.491  10.875 -0.3001 -0.9794 -0.4751
  542MOL0     C73050   2.282  10.572  10.982 -0.0316 -0.1247  0.2584
  542MOL0     C73051   2.145  10.517  11.022 -0.3568 -0.4255  0.3323
  542MOL0     N73052   2.057  10.508  10.906 -0.0222 -1.2739 -0.1819
  542MOL0     C73053   2.066  10.432  10.794 -0.1286 -0.1266 -1.4068
  542MOL0     C73054   1.971  10.480  10.710  0.4203 -0.1254 -0.1158
  542MOL0     C73055   1.943  10.428  10.565 -0.1777 -0.5569  0.2828
  542MOL0     C73056   2.066  10.371  10.502  1.0100  0.1276 -0.5110
  542MOL0     C73057   2.184  10.469  10.499  0.0490 -0.3993  0.4006
  542MOL0     C73058   2.312  10.395  10.469 -0.0859 -0.5358 -0.0717
  542MOL0     O73059   2.338  10.286  10.555  0.2045  0.5646 -0.1223
  542MOL0     C73060   2.453  10.211  10.531  0.5179  0.5792 -0.1271
  542MOL0     C73061   2.500  10.112  10.623 -0.5141  0.8750  0.5861
  542MOL0     C73062   2.611  10.040  10.604 -1.2569 -0.2782  0.7604
  542MOL0     C73063   2.650   9.934  10.701 -0.4000 -0.5086  0.3796
  542MOL0     C73064   2.686  10.060  10.482 -0.1699 -0.3699  0.2542
  542MOL0     C73065   2.800   9.972  10.441 -0.1505  0.9539  0.8579
  542MOL0     O73066   2.799   9.830  10.463  1.0634  0.4439  0.3230
  542MOL0     C73067   2.926   9.771  10.451 -0.4165  0.4812 -0.8110
  542MOL0     C73068   3.057   9.833  10.471 -0.0835 -0.5432  0.4685
  542MOL0     C73069   3.174   9.756  10.447  0.2196  0.1321  0.2328
  542MOL0     C73070   3.170   9.617  10.427  0.9040  0.0011  0.1170
  542MOL0     O73071   3.275   9.536  10.394  0.2419  1.0963  0.8631
  542MOL0     C73072   3.398   9.568  10.444 -0.3632 -0.2430  0.0190
  542MOL0     C73073   3.437   9.476  10.564 -0.2245 -0.1458 -0.6081
  542MOL0     C73074   3.419   9.334  10.513 -0.2266  0.0491 -0.4763
  542MOL0     C73075   3.505   9.235  10.607 -0.1845  0.4512 -0.1679
  542MOL0     C73076   3.462   9.090  10.570 -0.4175  0.8427 -0.2583
  542MOL0     C73077   3.532   8.996  10.668 -0.6969  1.1605  0.2605
  542MOL0     C73078   3.490   8.848  10.662 -0.4461  0.3073  0.6441
  542MOL0     C73079   3.495   8.783  10.522 -0.6504  0.9190  0.1241
  542MOL0    Cl73080   3.471   8.609  10.556  0.0556  0.3363 -0.0719
  542MOL0     C73081   3.041   9.563  10.415 -0.6024  0.9312  0.0308
  542MOL0     C73082   2.922   9.632  10.426 -0.1359 -0.3029 -0.5082
  542MOL0     O73083   2.889  10.032  10.373 -0.2099 -0.6531 -0.6321
  542MOL0     C73084   2.636  10.155  10.390  0.5214  0.1237 -0.0922
  542MOL0     C73085   2.513  10.218  10.405 -0.1462  0.0541  0.1412
  542MOL0     N73086   1.904  10.587  10.771 -0.2244  0.7565  0.3523
  542MOL0     N73087   1.957  10.603  10.889  0.4012 -0.7507 -0.2680
  542MOL0     C73088   2.969  10.694  10.709  0.0310  0.1099  0.4342
  542MOL0     C73089   2.921  10.825  10.698 -0.3524  0.7503  1.1915
  542MOL0     C73090   2.729  11.230  10.530  0.5568 -0.9318  0.6375
  542MOL0     C73091   2.640  11.294  10.446 -0.4957  0.1301  0.0850
  542MOL0     C73092   2.595  11.418  10.480 -0.5960 -1.0741  0.8705
  542MOL0     C73093   2.623  11.487  10.603  0.2670 -0.6878  0.3752
  542MOL0     O73094   2.571  11.611  10.648 -0.1731 -0.3768 -0.1625
  542MOL0     C73095   2.559  11.726  10.558  0.2079  0.3536  0.7534
  542MOL0     C73096   2.690  11.804  10.563  1.0566 -0.9822  0.8233
  542MOL0     C73097   2.680  11.913  10.452 -0.5537 -0.2210  0.1233
  542MOL0     C73098   2.698  11.872  10.297 -0.0074 -0.5729 -0.0152
  542MOL0     C73099   2.687  11.997  10.225  0.0068 -1.0716  0.4631
  542MOL0     C73100   2.676  12.105  10.168  0.3381  1.0848  1.0439
  542MOL0     C73101   2.709  11.421  10.695 -1.2521  0.5870  0.7770
  542MOL0     C73102   2.762  11.297  10.653 -0.3613 -0.2628  0.3234
  542MOL0     H73103   2.883  10.867  10.365 -1.9527  1.0873  0.6306
  542MOL0     H73104   2.975  10.628  10.374  1.1249  0.0823  0.2077
  542MOL0     H73105   3.006  10.305  10.665 -0.6556  0.1349 -2.8616
  542MOL0     H73106   2.988  10.431  10.781  2.0240 -1.2425  0.0439
  542MOL0     H73107   2.758  10.380  10.578 -0.4769  1.1695  0.3560
  542MOL0     H73108   2.789  10.265  10.707 -0.8289  0.6339  2.2592
  542MOL0     H73109   2.759  10.449  10.869  0.9726  0.7907  2.0561
  542MOL0     H73110   2.745  10.566  10.740 -1.8107  0.0954  1.0069
  542MOL0     H73111   2.540  10.458  10.665 -0.3206 -0.9761  0.5448
  542MOL0     H73112   2.564  10.321  10.778 -0.7210 -0.3825 -0.6524
  542MOL0     H73113   2.548  10.466  10.968 -0.6409  0.1229  0.2676
  542MOL0     H73114   2.526  10.616  10.869 -2.8067  0.4337 -1.2655
  542MOL0     H73115   2.308  10.532  10.785  0.1620  0.6404 -0.0010
  542MOL0     H73116   2.327  10.385  10.874 -0.9299 -0.8182 -0.8621
  542MOL0     H73117   2.355  10.574  11.064  1.5767 -1.3923 -1.0700
  542MOL0     H73118   2.273  10.679  10.963 -0.3236 -0.3061 -0.6490
  542MOL0     H73119   2.102  10.583  11.097 -0.8918  0.7880 -0.9910
  542MOL0     H73120   2.142  10.416  11.064  0.2677 -1.2874 -1.5577
  542MOL0     H73121   2.144  10.357  10.789 -0.2940 -0.9254  3.2090
  542MOL0     H73122   1.859  10.358  10.563  0.1665 -0.9900 -2.1197
  542MOL0     H73123   1.912  10.514  10.504 -3.0533 -1.4299  0.3548
  542MOL0     H73124   2.044  10.349  10.397  0.0223 -1.2940 -0.0176
  542MOL0     H73125   2.079  10.270  10.542 -5.2917 -0.1774  1.7625
  542MOL0     H73126   2.200  10.527  10.590  0.9389  1.4871 -0.9028
  542MOL0     H73127   2.172  10.539  10.416 -0.8660 -0.0550  0.8154
  542MOL0     H73128   2.400  10.459  10.479  0.4109 -0.7997 -2.2536
  542MOL0     H73129   2.295  10.365  10.365 -1.1104  1.5669 -0.5838
  542MOL0     H73130   2.440  10.089  10.711 -0.5259 -1.2798  0.0604
  542MOL0     H73131   2.629   9.957  10.806  0.8583  0.1701  0.5083
  542MOL0     H73132   2.594   9.843  10.675 -3.7914  1.2977  0.7519
  542MOL0     H73133   2.757   9.914  10.691  0.2186  2.7540 -0.7433
  542MOL0     H73134   3.077   9.937  10.492  4.2113 -0.7043 -1.7056
  542MOL0     H73135   3.272   9.801  10.433  1.3410 -2.1898 -0.0216
  542MOL0     H73136   3.467   9.549  10.361 -0.3200  3.5659 -1.0037
  542MOL0     H73137   3.419   9.671  10.475 -0.9286 -0.1380  0.0758
  542MOL0     H73138   3.542   9.497  10.583  0.0603  0.3392 -2.4679
  542MOL0     H73139   3.372   9.504  10.647  1.1288 -0.6915  0.6746
  542MOL0     H73140   3.453   9.322  10.410  2.0206 -1.4351  0.3660
  542MOL0     H73141   3.315   9.305  10.530 -0.4303 -1.2129 -3.2426
  542MOL0     H73142   3.611   9.256  10.592  0.8916 -2.6975  2.0532
  542MOL0     H73143   3.481   9.246  10.713 -0.3295  5.3836 -0.4779
  542MOL0     H73144   3.492   9.065  10.468  0.5674  0.0710  0.2067
  542MOL0     H73145   3.353   9.075  10.571 -0.8876  2.9776 -3.6535
  542MOL0     H73146   3.640   9.009  10.662 -0.5877  0.6139  0.8699
  542MOL0     H73147   3.496   9.025  10.767 -0.4619  2.3976 -0.0096
  542MOL0     H73148   3.384   8.861  10.686 -1.1688 -2.6962 -0.5061
  542MOL0     H73149   3.531   8.779  10.736  1.1405  0.6734  0.1499
  542MOL0     H73150   3.594   8.809  10.484  0.1214  0.1733  1.5392
  542MOL0     H73151   3.414   8.820  10.459 -2.7435  0.3504  2.3194
  542MOL0     H73152   3.028   9.457  10.393 -1.5302  0.8274  0.9810
  542MOL0     H73153   2.830   9.575  10.415  0.9469 -2.7945  1.9780
  542MOL0     H73154   2.673  10.169  10.289  0.8742 -1.5498 -0.2378
  542MOL0     H73155   2.487  10.289  10.326  0.9858  0.1435 -0.1754
  542MOL0     H73156   2.996  10.646  10.802 -0.3878 -1.3520 -0.1545
  542MOL0     H73157   2.915  10.892  10.784  1.1579  3.6383 -0.7812
  542MOL0     H73158   2.615  11.246  10.352 -0.2852 -5.5447  2.5216
  542MOL0     H73159   2.518  11.455  10.413  1.7626 -0.2736 -1.5955
  542MOL0     H73160   2.532  11.699  10.456  0.0014  0.4844  0.7721
  542MOL0     H73161   2.477  11.787  10.597 -1.8390 -0.5633 -1.8573
  542MOL0     H73162   2.782  11.748  10.541  3.0516  1.3137  2.6438
  542MOL0     H73163   2.723  11.852  10.656  1.6724 -0.0517  0.1455
  542MOL0     H73164   2.752  11.989  10.483 -0.7112  0.3687 -0.9378
  542MOL0     H73165   2.588  11.971  10.464  1.3006  3.0175 -0.2258
  542MOL0     H73166   2.610  11.816  10.266 -0.0348  0.0401 -1.1025
  542MOL0     H73167   2.795  11.828  10.270  0.6905  0.9211 -0.0627
  542MOL0     H73168   2.665  12.178  10.091 -0.5123 -2.4909 -2.5102
  542MOL0     H73169   2.732  11.454  10.795  0.5946 -1.8381  1.2387
  542MOL0     H73170   2.838  11.252  10.716 -1.7330 -1.7852  0.9680
  543MOL0     O73171   9.616   5.055   9.581 -0.1220 -0.4221  0.2425
  543MOL0     C73172   9.568   5.173   9.588 -1.3898  0.5857 -0.6357
  543MOL0     O73173   9.458   5.219   9.527 -0.1990  0.4256 -0.1684
  543MOL0     C73174   9.390   5.122   9.459 -0.3316  0.1227  0.5260
  543MOL0     C73175   9.448   5.077   9.341  0.7759 -0.6716  1.0926
  543MOL0     C73176   9.370   4.995   9.262  0.4222  0.2801  0.2006
  543MOL0     C73177   9.244   4.950   9.296 -0.0653  0.8605  0.8472
  543MOL0     O73178   9.169   4.866   9.216 -0.2181 -0.5879 -0.2806
  543MOL0     C73179   9.197   4.835   9.083  0.9560 -0.0926 -0.2102
  543MOL0     C73180   9.129   4.701   9.047 -0.2719  0.3842  0.1117
  543MOL0     C73181   8.984   4.709   9.009 -0.0247  0.6596 -0.0677
  543MOL0     C73182   8.901   4.727   9.135 -1.0526  0.4328  0.8177
  543MOL0     C73183   8.750   4.752   9.102 -0.6777 -0.2353 -0.0415
  543MOL0     C73184   8.693   4.609   9.059 -0.3506  0.5256 -0.1294
  543MOL0     C73185   8.546   4.627   9.028 -0.8200  0.7050 -0.3630
  543MOL0     C73186   8.461   4.504   9.058 -0.2627  0.4413 -0.1839
  543MOL0     N73187   8.321   4.529   9.022  0.4254 -0.2147 -0.8963
  543MOL0     C73188   8.266   4.527   8.897 -0.3231  0.2581  0.0564
  543MOL0     C73189   8.133   4.516   8.917  0.8406  0.8573  0.0571
  543MOL0     C73190   8.022   4.506   8.811  0.3525 -0.0787  0.0860
  543MOL0     C73191   8.054   4.555   8.666  0.2517  0.1894  0.5627
  543MOL0     C73192   8.040   4.703   8.630 -0.1302  0.4139 -0.5114
  543MOL0     C73193   8.142   4.780   8.719  0.4483  0.2709  0.1547
  543MOL0     O73194   8.272   4.740   8.682 -0.4554 -0.0250  0.2589
  543MOL0     C73195   8.376   4.815   8.726  0.0707 -0.2201  0.2759
  543MOL0     C73196   8.368   4.884   8.852 -0.3487  0.2399 -0.0290
  543MOL0     C73197   8.473   4.957   8.897 -0.4233  0.3461 -0.8359
  543MOL0     C73198   8.478   4.982   9.046  0.3994 -0.3607 -0.6800
  543MOL0     C73199   8.594   4.984   8.815  0.2804 -0.1553  0.1939
  543MOL0     C73200   8.711   5.068   8.858 -0.1775  0.4219  0.2177
  543MOL0     O73201   8.821   5.053   8.775 -0.6251 -0.2803 -0.0394
  543MOL0     C73202   8.945   5.112   8.801 -0.6599  0.1518 -0.2798
  543MOL0     C73203   8.998   5.173   8.920 -0.8481  0.3458 -0.7746
  543MOL0     C73204   9.135   5.213   8.934  0.5379  0.8621  0.4900
  543MOL0     C73205   9.212   5.219   8.815 -0.1483  0.1580 -0.5884
  543MOL0     O73206   9.319   5.305   8.819 -0.1234  0.1452  0.3450
  543MOL0     C73207   9.381   5.340   8.950  0.5504  0.5173  0.6342
  543MOL0     C73208   9.530   5.359   8.931  0.1300 -0.0826 -0.3165
  543MOL0     C73209   9.554   5.454   8.815 -1.4664 -0.7200 -0.6333
  543MOL0     C73210   9.702   5.495   8.806  0.1475 -0.5471  0.0441
  543MOL0     C73211   9.711   5.554   8.664  0.4221 -0.6371  0.2935
  543MOL0     C73212   9.837   5.631   8.633 -0.4543 -0.2244 -0.3054
  543MOL0     C73213   9.855   5.667   8.485  0.6703 -0.0312 -0.3381
  543MOL0     C73214   9.858   5.811   8.446 -0.1870  0.2237  0.0845
  543MOL0    Cl73215   9.702   5.889   8.468  0.3591 -0.5179 -0.0313
  543MOL0     C73216   9.159   5.174   8.702  0.3839  0.2397  0.8662
  543MOL0     C73217   9.030   5.118   8.695  0.0609 -0.1283 -0.3640
  543MOL0     O73218   8.702   5.140   8.955 -0.5080  0.2844 -0.2943
  543MOL0     C73219   8.589   4.924   8.691  0.0404  0.7997 -0.2987
  543MOL0     C73220   8.489   4.835   8.647 -0.0195  0.4135 -1.3829
  543MOL0     N73221   8.110   4.521   9.053  0.0392  0.5163  0.5193
  543MOL0     N73222   8.224   4.523   9.118 -0.7639 -0.1631  0.3883
  543MOL0     C73223   9.187   5.005   9.406 -0.0999  0.4293 -0.1318
  543MOL0     C73224   9.259   5.082   9.493 -0.3432  0.4421 -0.4044
  543MOL0     C73225   9.657   5.276   9.649  0.2853 -0.2094  0.3122
  543MOL0     C73226   9.607   5.408   9.660  0.1231  0.7994  0.3541
  543MOL0     C73227   9.688   5.517   9.703 -0.7749  0.8750 -0.1592
  543MOL0     C73228   9.820   5.482   9.734 -0.2497  0.4645 -0.5627
  543MOL0     O73229   9.914   5.574   9.780  0.2111  0.6072 -0.4062
  543MOL0     C73230   9.881   5.638   9.906 -0.0992 -0.8574  1.0295
  543MOL0     C73231   9.978   5.588  10.020  0.3176  0.6686 -0.2516
  543MOL0     C73232   9.922   5.449  10.064  0.1542 -0.1770 -0.9844
  543MOL0     C73233  10.004   5.392  10.184  0.4268 -0.5740 -0.1301
  543MOL0     C73234   9.976   5.248  10.212  0.0947 -0.3453 -0.0583
  543MOL0     C73235   9.953   5.129  10.234  0.7156  0.0865  0.1050
  543MOL0     C73236   9.869   5.352   9.705  0.7780  1.1624 -0.4939
  543MOL0     C73237   9.790   5.254   9.670 -0.0151  0.1493 -0.5140
  543MOL0     H73238   9.548   5.107   9.311  0.1517  1.7923  1.2846
  543MOL0     H73239   9.425   4.958   9.176  0.7152  1.2266 -0.0270
  543MOL0     H73240   9.149   4.906   9.015  0.5553 -0.2553 -0.0930
  543MOL0     H73241   9.306   4.832   9.066  1.4173  4.5706  0.5000
  543MOL0     H73242   9.190   4.653   8.971 -0.3845  1.4465 -0.6740
  543MOL0     H73243   9.133   4.637   9.136  0.4643  0.3037  0.0212
  543MOL0     H73244   8.971   4.795   8.944  0.7104 -0.1363 -1.3007
  543MOL0     H73245   8.952   4.613   8.967 -0.8340  1.5955 -1.6920
  543MOL0     H73246   8.907   4.643   9.204 -3.4121 -1.7556 -1.4280
  543MOL0     H73247   8.941   4.820   9.177 -1.2793  1.2077 -0.5940
  543MOL0     H73248   8.695   4.795   9.187 -0.9314  0.2016 -0.4252
  543MOL0     H73249   8.753   4.827   9.023  0.2830  0.3908  0.5689
  543MOL0     H73250   8.738   4.561   8.972  0.4389  1.6696 -0.3657
  543MOL0     H73251   8.699   4.543   9.146 -0.4243 -1.1402 -1.3462
  543MOL0     H73252   8.505   4.708   9.088  2.4031  2.5183 -0.3693
  543MOL0     H73253   8.536   4.660   8.924 -0.9714  0.7061 -0.3478
  543MOL0     H73254   8.471   4.491   9.166  2.2986  2.4385 -0.0989
  543MOL0     H73255   8.505   4.422   9.000 -0.3594  1.5662 -1.9279
  543MOL0     H73256   8.322   4.538   8.804 -0.3693 -0.0501 -0.0048
  543MOL0     H73257   8.000   4.401   8.793  2.6247 -0.7591  0.9599
  543MOL0     H73258   7.932   4.555   8.850 -0.8436 -1.0396 -1.3471
  543MOL0     H73259   7.976   4.503   8.610  0.5198  0.1573  0.2155
  543MOL0     H73260   8.151   4.516   8.634 -0.2368 -1.8176  1.3918
  543MOL0     H73261   7.941   4.740   8.659 -1.1940  0.9726 -4.3239
  543MOL0     H73262   8.046   4.722   8.522  1.2561  0.0759 -0.5128
  543MOL0     H73263   8.124   4.771   8.826 -2.3096 -0.0557 -0.2639
  543MOL0     H73264   8.135   4.886   8.694 -2.7926  0.1292  0.1375
  543MOL0     H73265   8.288   4.857   8.921  0.8786  0.9307  1.7397
  543MOL0     H73266   8.486   5.090   9.062  1.2209 -0.1070 -2.5154
  543MOL0     H73267   8.393   4.951   9.108 -2.0270 -0.6185 -3.8640
  543MOL0     H73268   8.571   4.939   9.083  0.4171  0.7402  0.6352
  543MOL0     H73269   8.938   5.168   9.010 -1.6919 -5.6775 -1.2885
  543MOL0     H73270   9.152   5.256   9.033 -1.9202  2.4215  0.3177
  543MOL0     H73271   9.323   5.420   8.996 -2.3167 -2.8196  3.4377
  543MOL0     H73272   9.363   5.252   9.013  1.2314  0.0737  0.2258
  543MOL0     H73273   9.584   5.394   9.019  1.0137  2.4003 -1.7301
  543MOL0     H73274   9.567   5.263   8.896 -1.7696 -1.6010  1.5640
  543MOL0     H73275   9.497   5.545   8.840 -0.5327 -0.3052  0.0083
  543MOL0     H73276   9.507   5.409   8.727 -3.1233 -1.8129  0.7266
  543MOL0     H73277   9.712   5.583   8.871  2.0411 -0.0602 -0.8267
  543MOL0     H73278   9.778   5.417   8.817  0.4277 -0.4851 -1.2522
  543MOL0     H73279   9.632   5.628   8.647 -0.1036 -0.8715  1.6346
  543MOL0     H73280   9.698   5.471   8.593 -1.3472 -1.3343  1.3669
  543MOL0     H73281   9.834   5.731   8.677  1.9195  0.2892 -1.1668
  543MOL0     H73282   9.928   5.584   8.671 -0.3027  1.6095  1.8523
  543MOL0     H73283   9.772   5.623   8.428  1.6559 -0.5973 -1.3618
  543MOL0     H73284   9.949   5.616   8.465  0.0903 -1.7369  0.9490
  543MOL0     H73285   9.885   5.820   8.341 -0.1607  0.5980  0.1233
  543MOL0     H73286   9.930   5.868   8.505 -0.5272 -1.2245  1.9930
  543MOL0     H73287   9.201   5.198   8.605 -2.2979 -1.2087 -0.7655
  543MOL0     H73288   8.998   5.080   8.598 -0.5892  2.5673 -1.2663
  543MOL0     H73289   8.664   4.939   8.615  0.0729 -0.7026 -0.6079
  543MOL0     H73290   8.500   4.782   8.552 -0.8408  1.1427 -1.9023
  543MOL0     H73291   9.083   4.978   9.425 -0.8598  0.2303 -3.7484
  543MOL0     H73292   9.221   5.127   9.584  0.3492  3.5328 -1.5092
  543MOL0     H73293   9.511   5.429   9.613  0.2954 -3.1903 -2.1639
  543MOL0     H73294   9.662   5.622   9.708 -1.5115  0.6516  1.8099
  543MOL0     H73295   9.903   5.743   9.888 -0.6359 -1.0519 -0.9771
  543MOL0     H73296   9.777   5.626   9.938 -0.6638  2.2641  0.6913
  543MOL0     H73297   9.977   5.658  10.105 -2.0975 -0.4205  0.7269
  543MOL0     H73298  10.080   5.588   9.983  0.3720 -1.4153 -0.2456
  543MOL0     H73299   9.937   5.386   9.976  0.7307  0.3752 -1.2984
  543MOL0     H73300   9.814   5.460  10.077  0.2192  0.2270 -0.7709
  543MOL0     H73301   9.975   5.446  10.275  0.4998 -2.6829  1.2020
  543MOL0     H73302  10.106   5.422  10.159 -0.7785  2.2286 -2.3377
  543MOL0     H73303   9.925   5.026  10.233  0.1805  0.1851  1.6777
  543MOL0     H73304   9.975   5.335   9.718  0.1560 -2.6374  1.2793
  543MOL0     H73305   9.831   5.153   9.666  1.5015  0.7780 -1.5634
  544MOL0     O73306   3.259   7.860   5.439 -0.5470  0.9164 -0.2493
  544MOL0     C73307   3.359   7.914   5.483  0.1363  0.2843 -0.2276
  544MOL0     O73308   3.447   7.844   5.571  0.1932  0.6981 -0.2412
  544MOL0     C73309   3.417   7.709   5.601 -1.0358 -1.2804 -0.2474
  544MOL0     C73310   3.391   7.675   5.737  0.1961  0.0137 -0.7414
  544MOL0     C73311   3.363   7.544   5.767  0.6612  0.4419 -0.2957
  544MOL0     C73312   3.350   7.443   5.675  0.2992  0.7982  0.0656
  544MOL0     O73313   3.332   7.314   5.723  0.5358 -0.1782 -0.1040
  544MOL0     C73314   3.285   7.209   5.637 -0.0311  0.3178 -0.5157
  544MOL0     C73315   3.315   7.073   5.683  0.4657 -0.4161 -0.3950
  544MOL0     C73316   3.460   7.058   5.732  0.7826 -0.5938  0.1228
  544MOL0     C73317   3.501   6.917   5.740  0.4689 -0.1812 -0.5870
  544MOL0     C73318   3.642   6.899   5.815 -0.7216 -0.3492 -0.0238
  544MOL0     C73319   3.766   6.960   5.737  0.7753  0.1685 -0.2363
  544MOL0     C73320   3.905   6.918   5.787 -0.2681 -0.5278 -0.5467
  544MOL0     C73321   4.007   7.006   5.719  0.1805  0.2972 -0.1913
  544MOL0     N73322   4.009   7.014   5.572 -0.5391 -1.3179  0.0771
  544MOL0     C73323   4.043   6.916   5.476  0.6304  0.9665 -0.3359
  544MOL0     C73324   4.025   6.970   5.358 -0.0135  0.2847  0.3550
  544MOL0     C73325   4.074   6.908   5.226 -0.6737  0.2317  0.0565
  544MOL0     C73326   3.960   6.903   5.124  0.2875 -0.6143  0.0838
  544MOL0     C73327   3.907   7.047   5.087  0.1007  0.5799  0.5912
  544MOL0     C73328   3.828   7.046   4.955  0.3245  0.3527  0.3296
  544MOL0     O73329   3.742   7.159   4.954 -0.4647  0.2032 -0.2478
  544MOL0     C73330   3.672   7.187   4.841  0.6985 -0.6776  0.7605
  544MOL0     C73331   3.645   7.101   4.739 -0.6055  0.3494  0.6145
  544MOL0     C73332   3.564   7.127   4.631 -0.2163  0.3485  0.4301
  544MOL0     C73333   3.533   7.022   4.529 -0.3947  0.0202  0.1179
  544MOL0     C73334   3.511   7.262   4.617  0.0959 -0.5297 -0.3820
  544MOL0     C73335   3.441   7.315   4.503  0.4053 -0.1925 -0.0035
  544MOL0     O73336   3.490   7.288   4.380 -1.2700  0.1224 -0.4487
  544MOL0     C73337   3.429   7.328   4.267 -0.1654 -0.8460 -0.0186
  544MOL0     C73338   3.429   7.243   4.161 -0.0333  0.4821  0.2432
  544MOL0     C73339   3.402   7.283   4.034  0.6156  0.0082  1.0796
  544MOL0     C73340   3.374   7.417   4.001  0.3202  0.5339  0.5545
  544MOL0     O73341   3.348   7.448   3.874 -0.5182  0.1629 -0.4187
  544MOL0     C73342   3.228   7.514   3.838 -0.2234  0.2381 -0.5222
  544MOL0     C73343   3.228   7.538   3.695  0.2292  0.1817  0.5219
  544MOL0     C73344   3.223   7.402   3.613 -0.4432 -0.9163 -1.4024
  544MOL0     C73345   3.233   7.437   3.454  0.5034  0.5112 -0.1185
  544MOL0     C73346   3.106   7.489   3.396  0.3030  0.2872 -0.0857
  544MOL0     C73347   3.120   7.549   3.254 -0.0892 -0.0881  0.3087
  544MOL0     C73348   2.985   7.593   3.207  0.0090  0.6435 -0.3623
  544MOL0     C73349   3.007   7.679   3.078  0.1580 -0.3918 -0.0635
  544MOL0    Cl73350   2.848   7.707   2.999  0.0684 -0.1115 -0.4164
  544MOL0     C73351   3.377   7.506   4.107 -0.1477 -0.1421 -1.0409
  544MOL0     C73352   3.402   7.462   4.238 -0.3178  0.7988 -0.2223
  544MOL0     O73353   3.334   7.374   4.526 -1.0631  0.1818 -0.8017
  544MOL0     C73354   3.531   7.340   4.725 -0.1732 -0.0761  0.2915
  544MOL0     C73355   3.599   7.305   4.833 -1.7023  0.4556  0.9873
  544MOL0     N73356   3.988   7.099   5.377  1.0390 -0.7877  0.1796
  544MOL0     N73357   3.988   7.128   5.504  1.0933 -0.0907  0.0726
  544MOL0     C73358   3.361   7.477   5.540  0.7588 -0.5416 -1.0235
  544MOL0     C73359   3.402   7.610   5.505 -0.8549 -0.3572  0.3764
  544MOL0     C73360   3.367   8.061   5.468 -0.3055  1.0024  0.1801
  544MOL0     C73361   3.254   8.139   5.485 -0.1619 -0.7041 -0.8728
  544MOL0     C73362   3.268   8.280   5.501  1.1772  0.5948  0.2141
  544MOL0     C73363   3.390   8.341   5.478 -1.3188 -1.2716 -0.7047
  544MOL0     O73364   3.409   8.475   5.478  0.6241  0.0177 -0.1243
  544MOL0     C73365   3.379   8.532   5.603 -0.2314 -0.6406 -0.3253
  544MOL0     C73366   3.404   8.447   5.731 -0.2381 -0.6977  0.4354
  544MOL0     C73367   3.417   8.530   5.860 -0.2190  0.5243  0.2370
  544MOL0     C73368   3.403   8.450   5.990 -0.1188 -0.0151 -0.2707
  544MOL0     C73369   3.541   8.417   6.036 -0.1624  0.3744  0.0977
  544MOL0     C73370   3.651   8.392   6.077  0.1966  0.6088 -0.5146
  544MOL0     C73371   3.510   8.268   5.452 -0.2597  1.1041 -0.6043
  544MOL0     C73372   3.490   8.127   5.460 -0.1626 -0.0970  0.3096
  544MOL0     H73373   3.374   7.746   5.818 -2.9268 -3.8913  2.4509
  544MOL0     H73374   3.345   7.521   5.872 -3.4063 -2.3320 -1.3661
  544MOL0     H73375   3.179   7.220   5.611 -1.4019  0.6622  4.2705
  544MOL0     H73376   3.339   7.213   5.542  3.7076  0.3314  1.4440
  544MOL0     H73377   3.240   7.044   5.757 -0.7426  2.1713 -0.4897
  544MOL0     H73378   3.309   7.015   5.590  0.1105 -0.8098 -0.1290
  544MOL0     H73379   3.522   7.113   5.660 -2.8607  1.6602 -1.6081
  544MOL0     H73380   3.465   7.110   5.828 -2.8450  1.4280 -0.6100
  544MOL0     H73381   3.419   6.857   5.779  0.0059  0.0941 -1.1320
  544MOL0     H73382   3.520   6.881   5.638  1.6399 -1.0182 -0.0992
  544MOL0     H73383   3.637   6.933   5.919  2.4314 -0.6310  0.3250
  544MOL0     H73384   3.658   6.792   5.827  1.7531 -0.2909 -1.9451
  544MOL0     H73385   3.752   6.923   5.635 -2.2076 -0.0545  0.1430
  544MOL0     H73386   3.752   7.067   5.757  0.9578 -0.1055  1.5152
  544MOL0     H73387   3.917   6.917   5.896  1.3687 -1.5010 -0.7021
  544MOL0     H73388   3.929   6.818   5.750  1.9047 -1.3175  2.6118
  544MOL0     H73389   4.108   6.976   5.748 -0.0613  0.9520  1.4214
  544MOL0     H73390   3.992   7.107   5.759  0.0316  0.3295 -0.3236
  544MOL0     H73391   4.077   6.814   5.495 -1.0758  0.3345 -0.5106
  544MOL0     H73392   4.156   6.971   5.190  0.7171 -1.3861  0.2324
  544MOL0     H73393   4.127   6.813   5.241 -2.3659 -0.5593  1.2982
  544MOL0     H73394   3.880   6.854   5.179 -0.0200 -0.6045 -0.3462
  544MOL0     H73395   3.983   6.831   5.044 -1.5944 -0.5109 -0.5944
  544MOL0     H73396   3.981   7.127   5.096  0.1424  0.5795  0.2587
  544MOL0     H73397   3.834   7.067   5.166  0.1295  0.8681  0.5425
  544MOL0     H73398   3.766   6.957   4.940 -0.1891  0.9536 -1.2849
  544MOL0     H73399   3.892   7.052   4.867  1.4344 -1.2480  0.9832
  544MOL0     H73400   3.688   7.001   4.739 -1.8342 -0.2063  1.4458
  544MOL0     H73401   3.439   6.969   4.550 -0.7651  0.1570 -1.1067
  544MOL0     H73402   3.510   7.061   4.429 -0.2723  5.3490  1.8837
  544MOL0     H73403   3.614   6.949   4.531  1.0453  1.5509  2.1491
  544MOL0     H73404   3.466   7.143   4.182 -3.6905 -0.7472  1.7097
  544MOL0     H73405   3.409   7.213   3.952 -1.4519  0.7978  0.1826
  544MOL0     H73406   3.137   7.461   3.869 -1.7936  1.9018 -2.0206
  544MOL0     H73407   3.214   7.610   3.889  0.4133 -1.4163  3.0203
  544MOL0     H73408   3.143   7.604   3.681 -0.9718 -0.4384  3.9839
  544MOL0     H73409   3.313   7.601   3.667 -0.2920 -0.3303 -2.5993
  544MOL0     H73410   3.132   7.351   3.647 -2.9161  2.9103 -1.6880
  544MOL0     H73411   3.316   7.350   3.637  2.1827  3.2029 -1.6827
  544MOL0     H73412   3.300   7.517   3.419  0.4203 -0.3292 -2.3628
  544MOL0     H73413   3.270   7.342   3.415  0.3040  0.1281  0.6040
  544MOL0     H73414   3.074   7.559   3.474 -1.2956 -2.3192  1.7397
  544MOL0     H73415   3.032   7.410   3.410 -0.1800  0.8062  0.3571
  544MOL0     H73416   3.172   7.645   3.261  1.4802 -0.7811 -1.1054
  544MOL0     H73417   3.164   7.482   3.180  1.7979 -0.6698  1.8826
  544MOL0     H73418   2.922   7.655   3.271 -0.3936  0.8833 -0.9812
  544MOL0     H73419   2.929   7.508   3.168 -3.3802  2.3381  0.4243
  544MOL0     H73420   3.072   7.632   3.003 -1.6171 -1.4797 -0.9858
  544MOL0     H73421   3.041   7.779   3.108 -1.4844  0.5294 -1.1578
  544MOL0     H73422   3.364   7.610   4.077 -2.2695 -0.6263 -2.0122
  544MOL0     H73423   3.405   7.529   4.323 -2.1312 -0.3860  0.8227
  544MOL0     H73424   3.480   7.436   4.723 -1.3905 -0.7107 -1.1629
  544MOL0     H73425   3.612   7.379   4.912  0.4557  0.7686  0.3910
  544MOL0     H73426   3.348   7.409   5.457  1.9330  0.4364 -2.0496
  544MOL0     H73427   3.410   7.632   5.399  2.3465 -4.0013 -0.3852
  544MOL0     H73428   3.155   8.097   5.490 -0.3808 -0.5713 -2.9426
  544MOL0     H73429   3.181   8.345   5.496  2.3821  2.2531  0.2567
  544MOL0     H73430   3.444   8.618   5.620  1.4514 -2.0765  0.9091
  544MOL0     H73431   3.280   8.577   5.615  0.5396  1.6075 -1.7549
  544MOL0     H73432   3.505   8.403   5.731  0.3488  0.3529  4.0674
  544MOL0     H73433   3.334   8.364   5.744  0.2691 -0.8487  2.4903
  544MOL0     H73434   3.334   8.601   5.846 -0.5574 -0.2145 -1.7225
  544MOL0     H73435   3.508   8.591   5.861 -0.5529  1.0298  0.8021
  544MOL0     H73436   3.337   8.364   5.978  1.2248 -1.3409  1.3838
  544MOL0     H73437   3.363   8.506   6.074 -2.0194 -1.0269 -0.4624
  544MOL0     H73438   3.750   8.369   6.113 -2.1386 -3.0324  4.9296
  544MOL0     H73439   3.598   8.327   5.429 -0.0264  0.7794 -0.5588
  544MOL0     H73440   3.581   8.068   5.452 -1.3056 -2.3550  2.7142
  545MOL0     O73441   5.037   9.446   3.644 -0.1885 -0.2406 -0.4667
  545MOL0     C73442   4.982   9.335   3.643  0.9598  0.3762  0.2530
  545MOL0     O73443   4.917   9.288   3.528  0.1729  0.4634  0.3065
  545MOL0     C73444   4.962   9.333   3.408  0.1287 -0.1846  0.2509
  545MOL0     C73445   4.956   9.463   3.362  0.3129  0.5610 -0.6975
  545MOL0     C73446   5.002   9.484   3.230 -0.7634 -0.3593  0.2315
  545MOL0     C73447   5.029   9.383   3.135 -0.2988 -0.3208 -0.6197
  545MOL0     O73448   5.080   9.404   3.012 -0.3435 -0.7301  0.0476
  545MOL0     C73449   5.170   9.508   2.989 -0.1123  0.0377  0.1309
  545MOL0     C73450   5.214   9.474   2.851  0.2448 -1.0088  0.2852
  545MOL0     C73451   5.126   9.543   2.748  0.7155 -1.0619  0.6765
  545MOL0     C73452   5.202   9.546   2.611  0.4369 -0.6128  0.1724
  545MOL0     C73453   5.118   9.625   2.503 -0.1901 -0.7213 -0.5279
  545MOL0     C73454   5.189   9.646   2.369  0.5503 -0.0297  0.3708
  545MOL0     C73455   5.101   9.735   2.278  0.0024  0.3598  0.6595
  545MOL0     C73456   5.153   9.735   2.137 -0.2725  0.5005  0.1644
  545MOL0     N73457   5.120   9.611   2.068  0.5725  0.6587 -0.3364
  545MOL0     C73458   4.992   9.568   2.038  0.5110 -0.3025  0.7970
  545MOL0     C73459   4.999   9.440   2.007 -0.2614 -0.2618 -0.4330
  545MOL0     C73460   4.894   9.361   1.949  0.7260 -0.2602 -0.8805
  545MOL0     C73461   4.803   9.304   2.055 -0.8061  0.0079  0.3680
  545MOL0     C73462   4.658   9.314   2.024 -0.1787  0.1751  0.1095
  545MOL0     C73463   4.612   9.231   1.902 -0.3694 -0.8863 -0.3406
  545MOL0     O73464   4.659   9.099   1.895 -0.0141 -0.2106  0.4512
  545MOL0     C73465   4.598   9.018   1.806  0.2137  0.8958 -0.2736
  545MOL0     C73466   4.492   9.053   1.720 -1.0033  0.3224  0.1710
  545MOL0     C73467   4.416   8.952   1.645  0.2683  1.0078 -0.1652
  545MOL0     C73468   4.300   9.004   1.557 -0.1571 -0.8731  0.6712
  545MOL0     C73469   4.459   8.818   1.648 -0.9256  0.6927  0.2161
  545MOL0     C73470   4.398   8.711   1.577 -0.6920  0.2708 -1.1178
  545MOL0     O73471   4.281   8.734   1.509  0.3565  0.4890  0.0217
  545MOL0     C73472   4.218   8.636   1.430 -0.3394 -0.1784 -0.0148
  545MOL0     C73473   4.082   8.612   1.432  0.0295 -0.0906  1.1067
  545MOL0     C73474   4.023   8.499   1.360 -0.1327 -0.3433  0.9675
  545MOL0     C73475   4.099   8.415   1.280 -1.4934 -0.4889  0.3993
  545MOL0     O73476   4.036   8.322   1.204  0.3313 -1.2114 -0.3005
  545MOL0     C73477   4.111   8.212   1.156 -0.1624 -0.1261 -0.2503
  545MOL0     C73478   4.017   8.106   1.112 -1.0727  0.5682 -0.8013
  545MOL0     C73479   3.947   8.025   1.220 -0.0607 -0.7482  0.2661
  545MOL0     C73480   3.919   7.878   1.192 -0.1032  0.1695  0.4203
  545MOL0     C73481   3.859   7.842   1.047 -0.6389  1.1361 -1.3317
  545MOL0     C73482   3.740   7.926   1.024 -0.4948 -0.3373  0.1766
  545MOL0     C73483   3.641   7.886   0.923  0.9488 -0.1703  0.5451
  545MOL0     C73484   3.516   7.814   0.990 -0.5866  0.4001 -0.8460
  545MOL0    Cl73485   3.560   7.670   1.084  0.4170 -0.6671  0.4204
  545MOL0     C73486   4.236   8.443   1.280 -0.7580 -0.7938 -0.3840
  545MOL0     C73487   4.295   8.553   1.351  0.6368  0.5767 -0.1234
  545MOL0     O73488   4.439   8.597   1.597  0.5129  0.1044 -0.1095
  545MOL0     C73489   4.578   8.788   1.728 -0.0208  0.3896  0.4816
  545MOL0     C73490   4.646   8.880   1.796  0.1208 -0.0617  0.3541
  545MOL0     N73491   5.133   9.410   2.004  0.2065  0.0169 -0.6757
  545MOL0     N73492   5.209   9.514   2.035  0.5183  0.2044  1.0573
  545MOL0     C73493   5.036   9.256   3.186  0.0332 -0.0739  0.2509
  545MOL0     C73494   4.999   9.233   3.319  0.2016  0.3403  0.0565
  545MOL0     C73495   4.958   9.256   3.769  1.3961  0.3647 -0.2850
  545MOL0     C73496   4.989   9.298   3.904 -0.0442  0.0806 -0.9906
  545MOL0     C73497   4.947   9.229   4.016 -0.1767  0.0231 -0.2701
  545MOL0     C73498   4.896   9.100   3.997 -0.7738 -0.6919 -0.3868
  545MOL0     O73499   4.868   9.029   4.111  0.0358  0.1296  0.3449
  545MOL0     C73500   4.722   9.038   4.122  0.4773  0.1075 -0.3821
  545MOL0     C73501   4.660   8.957   4.234  0.5290  0.2316  0.6780
  545MOL0     C73502   4.678   8.799   4.223  0.6136 -0.3663 -0.5055
  545MOL0     C73503   4.629   8.732   4.102 -0.0230  0.5551  0.2658
  545MOL0     C73504   4.626   8.583   4.124 -0.9950  1.0112  0.4878
  545MOL0     C73505   4.630   8.465   4.164  0.3497  0.8025  1.0605
  545MOL0     C73506   4.860   9.059   3.870  0.3806  0.4422 -0.0876
  545MOL0     C73507   4.895   9.130   3.753  0.4451  1.5689 -0.8958
  545MOL0     H73508   4.898   9.533   3.420 -0.5230  0.1763 -1.0456
  545MOL0     H73509   5.016   9.587   3.201 -1.1099 -0.0094  1.2621
  545MOL0     H73510   5.115   9.601   3.010  0.1306 -0.2822  2.4467
  545MOL0     H73511   5.253   9.502   3.061  0.4888 -3.9176 -0.6843
  545MOL0     H73512   5.312   9.517   2.829  0.1484 -1.9721 -2.3416
  545MOL0     H73513   5.222   9.365   2.846 -0.6684 -1.0883  0.3109
  545MOL0     H73514   5.037   9.481   2.735  1.2012 -1.6651  0.1600
  545MOL0     H73515   5.105   9.648   2.772  1.9135 -0.4740 -0.6421
  545MOL0     H73516   5.300   9.593   2.619 -0.7752  2.1070  0.4223
  545MOL0     H73517   5.220   9.448   2.568 -0.7702 -1.1244  0.7806
  545MOL0     H73518   5.026   9.567   2.490 -0.1303 -0.8417 -0.4205
  545MOL0     H73519   5.092   9.720   2.550  3.0657  1.3602 -2.5182
  545MOL0     H73520   5.285   9.696   2.384  0.7444 -0.7459  1.6512
  545MOL0     H73521   5.214   9.548   2.329  4.8455 -0.1805  2.8646
  545MOL0     H73522   4.999   9.696   2.275 -0.4019  1.4415 -0.9220
  545MOL0     H73523   5.099   9.839   2.311 -1.5994  0.6300 -0.1870
  545MOL0     H73524   5.262   9.739   2.145 -0.2394  1.4596 -0.5992
  545MOL0     H73525   5.116   9.822   2.082 -0.4205  1.5581  1.8663
  545MOL0     H73526   4.896   9.618   2.043 -0.2166 -1.3548 -1.3584
  545MOL0     H73527   4.832   9.427   1.888  0.6200 -1.1771 -1.7930
  545MOL0     H73528   4.922   9.285   1.875  2.9612  1.5192 -1.9930
  545MOL0     H73529   4.807   9.362   2.147 -1.0501  0.7828 -0.0985
  545MOL0     H73530   4.833   9.202   2.083 -1.2964 -0.5607 -1.0471
  545MOL0     H73531   4.624   9.417   2.009  1.4722  0.5552 -1.3299
  545MOL0     H73532   4.609   9.288   2.118  3.0847  0.5880  2.0702
  545MOL0     H73533   4.640   9.286   1.812 -0.9314  0.3139  0.1941
  545MOL0     H73534   4.504   9.222   1.918 -0.2008 -1.8234  0.3677
  545MOL0     H73535   4.467   9.158   1.708  3.4124  1.6972  1.3329
  545MOL0     H73536   4.212   8.941   1.571 -0.1043 -1.9444 -2.9733
  545MOL0     H73537   4.275   9.110   1.567  0.7920 -0.6188  0.4456
  545MOL0     H73538   4.325   8.980   1.453  1.8648 -0.5949  1.0396
  545MOL0     H73539   4.019   8.671   1.498  0.3638  1.0598  0.4404
  545MOL0     H73540   3.917   8.477   1.355 -0.1085 -0.1097 -2.2527
  545MOL0     H73541   4.174   8.221   1.067  1.0954  0.5941  0.7056
  545MOL0     H73542   4.181   8.172   1.229 -0.5655 -0.2013  0.1008
  545MOL0     H73543   3.944   8.157   1.049 -1.5126  0.9287 -0.0181
  545MOL0     H73544   4.066   8.038   1.042  0.0530 -0.5378  0.9671
  545MOL0     H73545   3.856   8.083   1.234  0.5232  1.0792 -2.6338
  545MOL0     H73546   4.007   8.037   1.311  0.7176  1.0696 -0.4270
  545MOL0     H73547   4.017   7.829   1.191 -0.4439 -0.5593  1.3085
  545MOL0     H73548   3.855   7.830   1.268 -1.4354 -0.0620 -0.8068
  545MOL0     H73549   3.835   7.735   1.041  2.6186  0.0130  1.8318
  545MOL0     H73550   3.938   7.860   0.974  1.7692 -2.2539  0.1338
  545MOL0     H73551   3.685   7.940   1.118  1.7095 -2.2117  1.8728
  545MOL0     H73552   3.782   8.016   0.978  1.8350 -0.9943  0.8833
  545MOL0     H73553   3.691   7.823   0.848 -0.1886  1.3030 -1.5260
  545MOL0     H73554   3.600   7.966   0.861  0.8666 -1.5043 -1.2110
  545MOL0     H73555   3.442   7.796   0.912  0.0745 -0.1614 -1.3574
  545MOL0     H73556   3.477   7.889   1.059  0.8509  0.0946  0.3414
  545MOL0     H73557   4.305   8.386   1.218  1.5736 -0.2836  1.5947
  545MOL0     H73558   4.400   8.573   1.334  0.9888  0.5072  1.7605
  545MOL0     H73559   4.614   8.686   1.736 -1.1425 -0.5547 -3.7569
  545MOL0     H73560   4.742   8.860   1.841  0.9660  3.6148  0.4523
  545MOL0     H73561   5.077   9.179   3.122 -0.9333 -0.3857 -0.0149
  545MOL0     H73562   4.996   9.133   3.361  2.4623  1.4807  3.4422
  545MOL0     H73563   5.023   9.400   3.922  1.0504  0.0520 -2.6403
  545MOL0     H73564   4.959   9.269   4.117  0.3477  0.0770 -0.3503
  545MOL0     H73565   4.691   9.142   4.129 -0.7511 -0.3729  2.8564
  545MOL0     H73566   4.674   9.000   4.032 -0.5575 -0.9518  0.5881
  545MOL0     H73567   4.554   8.984   4.231  0.7748  1.2110 -1.3693
  545MOL0     H73568   4.707   8.995   4.325  1.3866  3.9613 -1.1026
  545MOL0     H73569   4.633   8.755   4.313  0.2504  2.9620  1.1336
  545MOL0     H73570   4.784   8.776   4.240  0.8768  1.6202  0.9570
  545MOL0     H73571   4.682   8.774   4.016 -0.6021  2.4489  0.7781
  545MOL0     H73572   4.522   8.749   4.085 -0.2777 -2.9718 -3.1619
  545MOL0     H73573   4.625   8.364   4.198  2.0586  0.0427 -0.7609
  545MOL0     H73574   4.810   8.963   3.862  2.1079 -0.3800 -2.0784
  545MOL0     H73575   4.859   9.088   3.660  2.3052  0.1096 -1.0207
  546MOL0     O73576   7.101   5.254   0.983  0.2884  0.3664 -0.3696
  546MOL0     C73577   7.021   5.188   0.915  0.0836 -0.0727 -0.2396
  546MOL0     O73578   6.903   5.121   0.952 -0.0173  0.0395 -0.2456
  546MOL0     C73579   6.831   5.136   1.061 -0.7743  0.2296 -0.3693
  546MOL0     C73580   6.712   5.070   1.066 -0.4704 -0.2399 -0.0084
  546MOL0     C73581   6.617   5.100   1.161  0.0614  0.1889 -0.2464
  546MOL0     C73582   6.636   5.192   1.260 -0.4737 -0.7327  0.1435
  546MOL0     O73583   6.545   5.232   1.351 -0.2690  0.6473 -0.2900
  546MOL0     C73584   6.586   5.228   1.487 -0.5751 -0.2392 -0.0606
  546MOL0     C73585   6.539   5.360   1.547 -0.2622 -0.1417  1.1013
  546MOL0     C73586   6.535   5.366   1.705  0.5547  0.8892 -0.3888
  546MOL0     C73587   6.419   5.298   1.787  0.0506  0.0441 -0.4102
  546MOL0     C73588   6.444   5.151   1.808  0.4665  0.1248  0.0877
  546MOL0     C73589   6.362   5.109   1.931 -0.0360 -0.4550  0.2414
  546MOL0     C73590   6.392   4.958   1.946  0.2613 -0.6906  0.9482
  546MOL0     C73591   6.362   4.896   2.076  0.5181  0.5642 -0.2751
  546MOL0     N73592   6.233   4.915   2.140  0.0832  0.3278  0.1466
  546MOL0     C73593   6.168   5.026   2.199 -0.0787  0.9896 -0.0440
  546MOL0     C73594   6.040   4.997   2.229 -0.0901  0.2284 -0.4895
  546MOL0     C73595   5.941   5.085   2.308 -0.2886  0.2312  0.1540
  546MOL0     C73596   5.965   5.071   2.455 -0.4446  0.1119 -0.2201
  546MOL0     C73597   5.899   5.173   2.545  0.4078 -0.3900 -0.4191
  546MOL0     C73598   5.748   5.139   2.572  0.5251  0.4692  0.6174
  546MOL0     O73599   5.679   5.247   2.640 -0.0571  0.2673 -0.3266
  546MOL0     C73600   5.640   5.357   2.582 -0.2652 -0.9873  0.7729
  546MOL0     C73601   5.653   5.383   2.437 -0.4837  0.2361 -0.5086
  546MOL0     C73602   5.621   5.507   2.379 -0.1322  0.4364 -0.3641
  546MOL0     C73603   5.625   5.513   2.221 -0.7893  1.1467 -0.4660
  546MOL0     C73604   5.560   5.600   2.465  0.2525  0.1571  0.5546
  546MOL0     C73605   5.516   5.738   2.423 -0.3481 -0.5787 -0.0322
  546MOL0     O73606   5.449   5.815   2.512  0.3192  0.0874  0.0664
  546MOL0     C73607   5.426   5.949   2.515  0.2322 -0.9275 -1.1392
  546MOL0     C73608   5.330   5.975   2.619 -0.6182 -0.3731  0.5438
  546MOL0     C73609   5.269   6.102   2.626 -0.0603 -0.3923  0.4586
  546MOL0     C73610   5.300   6.200   2.549  0.3433  0.1295  0.9346
  546MOL0     O73611   5.255   6.328   2.553 -0.7024 -0.2203  1.3988
  546MOL0     C73612   5.208   6.383   2.676 -1.0551 -0.4255  0.3403
  546MOL0     C73613   5.282   6.514   2.693  1.0683 -1.1885 -0.5760
  546MOL0     C73614   5.319   6.533   2.841  0.2619 -0.0062 -0.0162
  546MOL0     C73615   5.199   6.534   2.936  0.6835  0.2275  0.2074
  546MOL0     C73616   5.223   6.546   3.090  0.2673 -0.3270  0.7933
  546MOL0     C73617   5.100   6.586   3.173  0.4617  1.1956 -0.3270
  546MOL0     C73618   5.024   6.457   3.215  0.3687  0.3852 -0.0652
  546MOL0     C73619   4.874   6.482   3.254  0.1178 -0.4205  0.1967
  546MOL0    Cl73620   4.827   6.336   3.352  0.0880  0.2969 -0.3441
  546MOL0     C73621   5.386   6.173   2.439  0.6439 -1.6686 -0.0258
  546MOL0     C73622   5.448   6.051   2.423 -0.1293  0.3158 -0.0030
  546MOL0     O73623   5.567   5.775   2.318  0.1974 -0.4573  0.5439
  546MOL0     C73624   5.537   5.579   2.603 -0.3394 -0.6203 -0.4803
  546MOL0     C73625   5.574   5.449   2.658  1.1166 -0.6741  0.1941
  546MOL0     N73626   6.029   4.866   2.197 -0.0565  0.6144  0.1381
  546MOL0     N73627   6.137   4.823   2.150  0.2421  0.2099 -0.5917
  546MOL0     C73628   6.759   5.256   1.259  0.7089  0.4602  0.0580
  546MOL0     C73629   6.854   5.234   1.162  0.3814  0.0727  0.3343
  546MOL0     C73630   7.067   5.150   0.783 -0.6278  0.1958  0.1912
  546MOL0     C73631   7.042   5.030   0.732  0.0950 -0.5991 -0.6137
  546MOL0     C73632   7.076   5.006   0.596 -0.5896  0.0396 -0.9682
  546MOL0     C73633   7.148   5.102   0.519 -0.2844  0.8918 -0.6211
  546MOL0     O73634   7.189   5.066   0.392  0.5027  0.0224 -0.2009
  546MOL0     C73635   7.275   4.957   0.394 -0.1919 -0.2050  0.0858
  546MOL0     C73636   7.210   4.872   0.290 -0.1517 -0.4829 -0.6925
  546MOL0     C73637   7.275   4.738   0.251 -0.2650  0.3387  0.9293
  546MOL0     C73638   7.306   4.654   0.385  0.0493 -0.0591  0.3568
  546MOL0     C73639   7.332   4.519   0.346 -0.9387  0.4333 -0.3218
  546MOL0     C73640   7.355   4.416   0.288  0.3764  0.5449 -0.4359
  546MOL0     C73641   7.174   5.227   0.561  0.6495 -0.1573 -0.4674
  546MOL0     C73642   7.128   5.255   0.696  0.2110 -0.0373  0.0779
  546MOL0     H73643   6.685   4.997   0.990  1.7105 -3.9048  2.4145
  546MOL0     H73644   6.518   5.056   1.154 -0.7576  2.1358 -1.9286
  546MOL0     H73645   6.539   5.142   1.537 -3.8958  1.8629  0.7871
  546MOL0     H73646   6.694   5.234   1.500 -0.8182  0.4760  1.9838
  546MOL0     H73647   6.600   5.443   1.511  0.1347 -0.3504  1.2958
  546MOL0     H73648   6.441   5.387   1.506  0.2145  1.6028  1.0330
  546MOL0     H73649   6.630   5.328   1.744 -0.2603  0.3182  1.1247
  546MOL0     H73650   6.558   5.467   1.737  1.8366  0.3083  0.6275
  546MOL0     H73651   6.414   5.338   1.889  2.3225 -1.7307  0.4786
  546MOL0     H73652   6.324   5.313   1.735  1.3219  1.5156 -2.4421
  546MOL0     H73653   6.428   5.092   1.717 -1.3515 -0.6161  0.8394
  546MOL0     H73654   6.551   5.141   1.831  0.7457 -2.0167 -1.7737
  546MOL0     H73655   6.398   5.160   2.021  0.5238 -2.4575  1.2111
  546MOL0     H73656   6.255   5.131   1.926 -0.2552 -0.9070  2.2008
  546MOL0     H73657   6.340   4.897   1.871  0.0621  0.7127 -0.0827
  546MOL0     H73658   6.500   4.949   1.929  0.7862  3.4273  1.0980
  546MOL0     H73659   6.432   4.941   2.146  2.9917 -2.2062 -0.7851
  546MOL0     H73660   6.384   4.789   2.084  1.7846  0.8807  0.8463
  546MOL0     H73661   6.215   5.123   2.209  0.4107  0.7222  0.3522
  546MOL0     H73662   5.970   5.189   2.293 -0.8125  0.6193  1.6665
  546MOL0     H73663   5.838   5.060   2.283 -0.2342 -1.0212  1.0899
  546MOL0     H73664   6.072   5.077   2.477 -0.7127  0.7158  0.9987
  546MOL0     H73665   5.931   4.971   2.485 -0.8521  0.3456  0.0989
  546MOL0     H73666   5.889   5.271   2.499 -5.6920 -0.1259  0.5803
  546MOL0     H73667   5.964   5.174   2.633  1.1867 -0.1934 -0.9870
  546MOL0     H73668   5.755   5.050   2.636  3.5382 -0.3175 -0.6416
  546MOL0     H73669   5.682   5.114   2.488 -0.4396 -2.1076  1.9980
  546MOL0     H73670   5.704   5.302   2.386  0.8295 -0.4195  1.7158
  546MOL0     H73671   5.642   5.415   2.176  1.0601  2.0580 -1.9421
  546MOL0     H73672   5.525   5.537   2.184 -1.0505  0.0934 -0.4805
  546MOL0     H73673   5.707   5.574   2.183  1.0848 -0.9748 -0.0803
  546MOL0     H73674   5.304   5.890   2.682  1.3476 -1.6722 -0.2999
  546MOL0     H73675   5.196   6.125   2.702 -0.2653  1.1955 -0.1695
  546MOL0     H73676   5.098   6.389   2.677 -1.0048  1.0646 -0.2026
  546MOL0     H73677   5.230   6.316   2.759 -0.1756 -0.3066  0.2064
  546MOL0     H73678   5.372   6.508   2.632  0.3364 -0.4673 -1.7693
  546MOL0     H73679   5.219   6.597   2.660  1.3504 -0.3968  0.7776
  546MOL0     H73680   5.368   6.628   2.862  0.5140 -0.6688  2.9487
  546MOL0     H73681   5.391   6.453   2.863 -0.2992 -0.9340 -1.4065
  546MOL0     H73682   5.134   6.617   2.908  0.9736 -0.0182 -1.2781
  546MOL0     H73683   5.139   6.445   2.918  2.7589 -0.6909 -3.1793
  546MOL0     H73684   5.298   6.622   3.114 -2.7712  1.9891  4.1079
  546MOL0     H73685   5.262   6.452   3.130 -0.3652 -1.3164 -0.8585
  546MOL0     H73686   5.142   6.635   3.261  0.4327 -2.1512  1.7273
  546MOL0     H73687   5.038   6.668   3.135 -1.2873  2.0630  3.8314
  546MOL0     H73688   5.075   6.416   3.303 -3.0006 -0.1742  1.7702
  546MOL0     H73689   5.016   6.385   3.133  1.2937 -0.5037  0.5997
  546MOL0     H73690   4.814   6.492   3.164  0.4459 -1.2894 -0.1292
  546MOL0     H73691   4.857   6.571   3.316 -2.9708 -0.6330 -0.2013
  546MOL0     H73692   5.382   6.255   2.368 -2.7638 -0.6969  1.1116
  546MOL0     H73693   5.500   6.028   2.330  0.2294 -1.0956  0.5171
  546MOL0     H73694   5.491   5.658   2.661  1.5396  1.2734 -1.4277
  546MOL0     H73695   5.542   5.414   2.756 -2.2507  0.3489 -0.3907
  546MOL0     H73696   6.783   5.345   1.317  0.9911  0.2829  0.2136
  546MOL0     H73697   6.951   5.282   1.170  0.0506  0.4140  4.1681
  546MOL0     H73698   6.983   4.958   0.788 -0.5900 -0.9658 -1.7703
  546MOL0     H73699   7.044   4.912   0.552  1.3934 -2.8560  3.1070
  546MOL0     H73700   7.372   4.999   0.366  0.7575 -1.2318  1.6725
  546MOL0     H73701   7.287   4.900   0.487 -2.9711 -1.3951 -0.1960
  546MOL0     H73702   7.224   4.944   0.209  1.4747  1.4359  1.1608
  546MOL0     H73703   7.105   4.852   0.316  0.3839  0.2399  2.3552
  546MOL0     H73704   7.360   4.759   0.185 -1.4231  0.3213 -0.6208
  546MOL0     H73705   7.206   4.679   0.190  0.6983  1.6369 -1.5554
  546MOL0     H73706   7.207   4.659   0.431 -0.5350  2.9524 -1.0060
  546MOL0     H73707   7.380   4.693   0.455  2.1034 -4.1044  0.7717
  546MOL0     H73708   7.390   4.337   0.225 -0.1296  0.3325 -0.4560
  546MOL0     H73709   7.213   5.305   0.497  0.0722  0.2633 -0.3196
  546MOL0     H73710   7.134   5.358   0.728 -3.3821  0.6657 -1.0095
  547MOL0     O73711   3.872   4.344   2.691 -0.6690 -0.7279 -0.6308
  547MOL0     C73712   3.875   4.223   2.677 -0.1099 -0.0711 -0.1954
  547MOL0     O73713   3.859   4.128   2.764  0.7858 -0.1898 -0.2097
  547MOL0     C73714   3.845   4.170   2.898 -0.6450 -0.4943  0.2681
  547MOL0     C73715   3.716   4.157   2.958  0.1621 -0.4354 -0.0434
  547MOL0     C73716   3.704   4.185   3.088  0.1786 -0.5414 -0.4585
  547MOL0     C73717   3.806   4.237   3.172 -0.3260  0.3273  1.5190
  547MOL0     O73718   3.814   4.260   3.306  0.6390 -0.2861 -0.7727
  547MOL0     C73719   3.686   4.313   3.354 -0.3970  0.9452  0.2350
  547MOL0     C73720   3.676   4.307   3.506 -0.7347  0.1712  1.0292
  547MOL0     C73721   3.635   4.434   3.571 -1.0070  0.6791  0.0101
  547MOL0     C73722   3.571   4.402   3.709 -0.1595 -0.6668 -0.0740
  547MOL0     C73723   3.515   4.531   3.778  0.1281  0.2988 -0.2403
  547MOL0     C73724   3.412   4.623   3.699 -0.3377 -0.6992 -0.8097
  547MOL0     C73725   3.307   4.666   3.785  0.4730 -0.1145 -0.9981
  547MOL0     C73726   3.357   4.762   3.885  0.1190 -0.1204  0.6368
  547MOL0     N73727   3.259   4.795   3.979 -0.3819 -0.4684  0.2379
  547MOL0     C73728   3.179   4.910   3.955 -0.4884  1.2492 -0.0280
  547MOL0     C73729   3.074   4.881   4.039 -0.1163 -0.2571 -0.1828
  547MOL0     C73730   2.960   4.979   4.059  0.5162  0.1504  0.5404
  547MOL0     C73731   3.004   5.076   4.175  0.2437  0.3145  0.8732
  547MOL0     C73732   3.012   5.030   4.320  0.6368  0.4079  0.8018
  547MOL0     C73733   2.879   4.964   4.371 -0.5193  0.9300 -0.8691
  547MOL0     O73734   2.775   5.057   4.378  0.4594  0.0616 -0.2173
  547MOL0     C73735   2.646   5.017   4.409 -0.6436 -0.7836 -0.6482
  547MOL0     C73736   2.624   4.964   4.534 -0.5968 -0.8009  0.8534
  547MOL0     C73737   2.487   4.944   4.571  0.3334 -0.4552 -0.1675
  547MOL0     C73738   2.459   4.905   4.713  0.4021 -0.4004 -0.2068
  547MOL0     C73739   2.384   4.964   4.470  0.2388 -1.0991 -0.0159
  547MOL0     C73740   2.237   4.943   4.497 -0.1986 -0.2904 -0.6840
  547MOL0     O73741   2.164   4.924   4.375 -0.4377 -0.1485  0.0907
  547MOL0     C73742   2.029   4.927   4.372  0.5509 -0.1548  0.0348
  547MOL0     C73743   1.988   4.946   4.239 -0.3267 -0.0726 -1.3701
  547MOL0     C73744   1.858   4.915   4.206 -0.2737  0.0157 -0.9214
  547MOL0     C73745   1.761   4.878   4.306  0.2387 -0.6403  0.4414
  547MOL0     O73746   1.629   4.853   4.269  0.3796 -0.6152  0.9962
  547MOL0     C73747   1.558   4.751   4.338 -0.0332  0.0038  0.9060
  547MOL0     C73748   1.418   4.737   4.270 -0.0390 -0.3841 -0.1957
  547MOL0     C73749   1.302   4.756   4.362 -0.4547 -0.1559 -0.1566
  547MOL0     C73750   1.264   4.899   4.379  0.2934 -0.1373  0.9305
  547MOL0     C73751   1.156   4.934   4.486 -0.4079 -0.1284 -0.4266
  547MOL0     C73752   1.183   5.071   4.556 -0.1399  1.1134  0.6095
  547MOL0     C73753   1.094   5.094   4.669  0.3875  0.2113 -0.4480
  547MOL0     C73754   1.067   5.241   4.689 -0.3220 -0.6866 -0.3293
  547MOL0    Cl73755   0.974   5.259   4.833 -0.4713  0.0220  0.1217
  547MOL0     C73756   1.803   4.864   4.439 -0.3368  1.5134  0.3299
  547MOL0     C73757   1.938   4.874   4.468  0.2602  0.6371  0.8102
  547MOL0     O73758   2.188   4.959   4.610  0.2503  0.1716  1.5938
  547MOL0     C73759   2.417   5.015   4.343  0.3866 -0.1726 -0.0300
  547MOL0     C73760   2.550   5.041   4.316  0.6764 -0.7014  0.5273
  547MOL0     N73761   3.094   4.760   4.106 -0.3201  0.0894  0.0739
  547MOL0     N73762   3.206   4.709   4.073  0.7272  0.7486  0.4275
  547MOL0     C73763   3.933   4.239   3.110 -0.6701 -0.1703 -0.3442
  547MOL0     C73764   3.955   4.208   2.976 -0.0855 -0.5432 -0.3489
  547MOL0     C73765   3.928   4.182   2.543  0.2504  0.1538  0.2026
  547MOL0     C73766   3.898   4.048   2.499  0.9208 -0.6191  0.5652
  547MOL0     C73767   3.957   4.007   2.376 -0.8613 -0.6901 -0.3702
  547MOL0     C73768   4.018   4.100   2.284  0.2936 -0.6869  0.2078
  547MOL0     O73769   4.052   4.042   2.166 -0.7533  0.8213  0.2374
  547MOL0     C73770   4.097   4.110   2.049  0.2219  0.2753 -0.3092
  547MOL0     C73771   4.245   4.162   2.057  0.4022 -0.7945  0.1532
  547MOL0     C73772   4.328   4.104   1.931 -0.0273 -0.3105 -0.3680
  547MOL0     C73773   4.466   4.173   1.922 -0.1705 -0.6300  1.1337
  547MOL0     C73774   4.549   4.113   2.025 -0.5594 -0.7580  0.2005
  547MOL0     C73775   4.626   4.060   2.103 -0.7160 -0.2341 -0.3408
  547MOL0     C73776   4.035   4.229   2.321 -0.5176 -0.8907 -0.2643
  547MOL0     C73777   3.990   4.275   2.446  0.0129  0.4166 -0.8752
  547MOL0     H73778   3.637   4.126   2.890  0.0468 -0.4344  0.0916
  547MOL0     H73779   3.610   4.162   3.136  0.0230  0.2504 -0.3618
  547MOL0     H73780   3.674   4.419   3.331  3.7355  1.4551 -0.4136
  547MOL0     H73781   3.602   4.256   3.312  2.6533 -3.3738 -0.7093
  547MOL0     H73782   3.616   4.218   3.525  2.3523 -2.3026 -0.0319
  547MOL0     H73783   3.776   4.288   3.545  1.5658  2.9003 -2.8614
  547MOL0     H73784   3.720   4.503   3.575  0.3260 -0.9239  1.3395
  547MOL0     H73785   3.559   4.476   3.505 -0.2494  2.2781  0.1106
  547MOL0     H73786   3.491   4.334   3.680  1.2350 -0.5719 -4.9620
  547MOL0     H73787   3.644   4.347   3.768  0.8003 -2.3599 -2.6871
  547MOL0     H73788   3.468   4.508   3.874 -0.4980  2.1368 -0.0769
  547MOL0     H73789   3.596   4.601   3.802  0.2442  0.9616 -2.3500
  547MOL0     H73790   3.461   4.710   3.654  0.7214 -0.0603  1.4688
  547MOL0     H73791   3.367   4.557   3.623  0.3382 -2.2039  0.0414
  547MOL0     H73792   3.224   4.716   3.734 -2.1173  0.4193  3.2205
  547MOL0     H73793   3.262   4.583   3.840  5.3461 -0.9759  2.3043
  547MOL0     H73794   3.382   4.851   3.826 -3.5491 -0.3783 -1.5855
  547MOL0     H73795   3.447   4.723   3.935  0.1122  0.5000  1.1533
  547MOL0     H73796   3.195   5.004   3.904  0.2863  2.1805  1.8273
  547MOL0     H73797   2.939   5.034   3.967 -2.9279 -0.0324  1.0849
  547MOL0     H73798   2.868   4.923   4.080  1.1971 -0.6416  1.5360
  547MOL0     H73799   2.932   5.157   4.178 -2.4911 -1.7667 -1.8401
  547MOL0     H73800   3.104   5.111   4.146 -0.6568  1.6322 -0.7963
  547MOL0     H73801   3.043   5.117   4.379 -1.9589  3.7565 -2.2220
  547MOL0     H73802   3.097   4.962   4.325  0.4187 -0.0497 -1.0017
  547MOL0     H73803   2.901   4.924   4.471  0.4389  4.3582  0.4474
  547MOL0     H73804   2.849   4.876   4.313 -0.4531 -2.8724  4.1745
  547MOL0     H73805   2.707   4.946   4.602  1.5591  1.3854 -1.0062
  547MOL0     H73806   2.551   4.875   4.765  0.2860 -0.8758 -0.2648
  547MOL0     H73807   2.420   4.991   4.767 -0.3457 -1.8391  1.6489
  547MOL0     H73808   2.399   4.814   4.724  1.8048 -1.3779 -0.3925
  547MOL0     H73809   2.064   4.960   4.163 -1.2906 -1.0876 -2.5849
  547MOL0     H73810   1.811   4.937   4.111 -0.0956 -1.0282 -1.2653
  547MOL0     H73811   1.599   4.650   4.328  0.5692  0.2805  0.5230
  547MOL0     H73812   1.549   4.760   4.446  0.0720 -1.4184  1.0562
  547MOL0     H73813   1.409   4.792   4.176 -2.6502 -0.1192  0.1153
  547MOL0     H73814   1.415   4.630   4.247  3.5001 -0.4574 -0.7742
  547MOL0     H73815   1.324   4.725   4.464 -0.8275 -0.3201 -0.1252
  547MOL0     H73816   1.212   4.709   4.322 -1.7267  2.0602 -0.0471
  547MOL0     H73817   1.360   4.950   4.390 -0.1183  0.4508  1.9065
  547MOL0     H73818   1.222   4.931   4.283 -0.6551 -0.5171  1.2113
  547MOL0     H73819   1.145   4.848   4.552 -2.0705 -0.7080 -1.3996
  547MOL0     H73820   1.061   4.940   4.432 -1.2338  0.1262  1.0210
  547MOL0     H73821   1.281   5.068   4.604 -0.7112  2.2560  1.9100
  547MOL0     H73822   1.190   5.151   4.482 -1.6274 -0.6909 -1.6489
  547MOL0     H73823   1.143   5.056   4.759  2.8449  0.9999 -1.3875
  547MOL0     H73824   1.004   5.033   4.652  1.2881 -1.6583  1.0653
  547MOL0     H73825   1.015   5.283   4.602  0.7154  3.8217  0.9774
  547MOL0     H73826   1.166   5.287   4.690 -0.5218 -0.1608 -1.8067
  547MOL0     H73827   1.734   4.841   4.519  2.1836  0.8735  2.4982
  547MOL0     H73828   1.973   4.853   4.569  2.4699 -2.4720 -0.4398
  547MOL0     H73829   2.341   5.049   4.273 -0.4351  0.4531  1.1189
  547MOL0     H73830   2.577   5.090   4.223 -0.3854  2.7067  1.8876
  547MOL0     H73831   4.011   4.263   3.181  0.4252 -0.0946 -1.5446
  547MOL0     H73832   4.052   4.223   2.931 -1.6456 -0.0192 -3.8853
  547MOL0     H73833   3.830   3.985   2.556 -0.4983  1.4508  1.3020
  547MOL0     H73834   3.944   3.908   2.335 -3.0371 -0.3143 -0.7335
  547MOL0     H73835   4.088   4.031   1.974 -1.6349 -0.2600  0.4086
  547MOL0     H73836   4.025   4.188   2.024 -4.2203 -3.8881 -2.0327
  547MOL0     H73837   4.285   4.120   2.150  2.3489  2.6618  1.0489
  547MOL0     H73838   4.256   4.270   2.070  0.3006 -0.4844 -1.9778
  547MOL0     H73839   4.283   4.135   1.836  2.5219 -4.3730 -3.1865
  547MOL0     H73840   4.352   3.998   1.929  2.4738  0.0515  2.9215
  547MOL0     H73841   4.456   4.282   1.928 -1.9027 -0.5818 -1.2831
  547MOL0     H73842   4.512   4.151   1.825 -1.1325 -1.3198  0.8215
  547MOL0     H73843   4.679   3.993   2.169 -0.5809 -0.7812 -0.9952
  547MOL0     H73844   4.091   4.296   2.255 -1.1935 -1.5084 -1.5101
  547MOL0     H73845   3.999   4.379   2.474 -2.6691 -0.4212  4.3194
  548MOL0     O73846   8.949   3.135   1.128  0.3670  0.6516 -0.2157
  548MOL0     C73847   9.060   3.160   1.084 -0.6027  0.3641  0.3795
  548MOL0     O73848   9.124   3.278   1.102  0.0800  0.6242  0.8640
  548MOL0     C73849   9.060   3.369   1.168  0.4407 -1.1288 -0.7956
  548MOL0     C73850   9.099   3.394   1.306 -0.4572 -0.6155  0.7937
  548MOL0     C73851   9.038   3.494   1.392  0.1763  0.7582  0.1328
  548MOL0     C73852   8.937   3.571   1.343 -0.2927  0.2178  0.4025
  548MOL0     O73853   8.879   3.658   1.435  0.4011 -0.6261  0.9508
  548MOL0     C73854   8.781   3.742   1.382  0.3229  0.2433  0.0658
  548MOL0     C73855   8.761   3.850   1.482  1.0587 -0.6232 -0.0601
  548MOL0     C73856   8.615   3.890   1.501  0.6691 -0.1144 -0.4858
  548MOL0     C73857   8.592   4.034   1.546 -0.0744 -0.0859 -0.0132
  548MOL0     C73858   8.444   4.050   1.550 -0.2746  0.2496  0.0824
  548MOL0     C73859   8.391   4.187   1.609 -0.1183 -0.3203  0.7288
  548MOL0     C73860   8.243   4.197   1.595  0.9825  0.4036  0.7777
  548MOL0     C73861   8.162   4.130   1.703 -0.0606  0.4141  0.0983
  548MOL0     N73862   8.158   4.208   1.823 -0.7435 -0.2531  0.0127
  548MOL0     C73863   8.053   4.291   1.872 -0.3340 -0.2551 -0.2736
  548MOL0     C73864   8.075   4.308   2.001  0.1978 -1.2893  0.8290
  548MOL0     C73865   7.987   4.373   2.095  0.7228 -0.2671  0.0303
  548MOL0     C73866   8.055   4.499   2.152  0.0408 -0.1895 -0.6365
  548MOL0     C73867   7.954   4.589   2.235  0.3440 -0.5393 -0.5276
  548MOL0     C73868   7.806   4.605   2.181  0.2594 -0.2240 -0.0620
  548MOL0     O73869   7.812   4.670   2.053  0.4681  0.1310  0.7974
  548MOL0     C73870   7.713   4.756   2.033  0.1268  0.6613  1.0739
  548MOL0     C73871   7.576   4.711   2.044  0.5360  0.5485 -0.4880
  548MOL0     C73872   7.467   4.791   2.016 -0.4842 -0.2525  0.0826
  548MOL0     C73873   7.326   4.734   2.036  0.1375 -0.3919 -0.4148
  548MOL0     C73874   7.489   4.916   1.955  0.5407 -1.0769 -1.5502
  548MOL0     C73875   7.379   5.013   1.923 -0.3702 -0.1886 -0.1588
  548MOL0     O73876   7.254   4.977   1.931  0.3803  0.0462  0.1110
  548MOL0     C73877   7.156   5.068   1.929 -0.1167 -0.4227  0.0166
  548MOL0     C73878   7.043   5.049   1.855  0.5084 -1.3334 -0.5568
  548MOL0     C73879   6.945   5.156   1.839 -0.0302 -0.1567 -0.4394
  548MOL0     C73880   6.964   5.269   1.911 -0.5787 -0.1703  0.8720
  548MOL0     O73881   6.865   5.365   1.903 -0.3424  0.3575 -0.3580
  548MOL0     C73882   6.891   5.504   1.925 -0.4884 -0.3717  0.1034
  548MOL0     C73883   6.764   5.576   1.975 -0.2198 -0.7502  1.3605
  548MOL0     C73884   6.676   5.501   2.069 -0.0835 -0.2500  0.5870
  548MOL0     C73885   6.569   5.601   2.119  0.5010 -0.2736  0.1511
  548MOL0     C73886   6.445   5.531   2.166 -0.0975  0.5287  0.1481
  548MOL0     C73887   6.456   5.442   2.297  0.6101 -0.1345 -0.8251
  548MOL0     C73888   6.440   5.532   2.423  0.5475  0.0296 -0.1078
  548MOL0     C73889   6.422   5.430   2.536 -1.1620  0.0551  0.4162
  548MOL0    Cl73890   6.257   5.356   2.545  0.3339 -0.2325 -0.2187
  548MOL0     C73891   7.078   5.288   1.992 -1.1961 -0.3679 -0.5231
  548MOL0     C73892   7.175   5.184   2.001  0.1775  1.6733 -0.6247
  548MOL0     O73893   7.412   5.121   1.870 -0.6965  0.6689  0.3010
  548MOL0     C73894   7.623   4.963   1.944  0.1127  0.1983  0.2171
  548MOL0     C73895   7.730   4.878   1.973  0.0249 -0.3272 -0.0239
  548MOL0     N73896   8.189   4.245   2.035  0.3787  0.0644  0.7582
  548MOL0     N73897   8.237   4.186   1.930  0.0034  1.0461 -0.7636
  548MOL0     C73898   8.896   3.546   1.213  0.2942  0.1812  0.3470
  548MOL0     C73899   8.957   3.458   1.123  0.5623  0.7712  0.2039
  548MOL0     C73900   9.126   3.056   0.997  0.2505 -0.2196  0.4693
  548MOL0     C73901   9.241   3.085   0.925  0.0696 -0.4629 -0.1802
  548MOL0     C73902   9.306   2.996   0.843 -0.0790 -0.1301 -0.7162
  548MOL0     C73903   9.252   2.868   0.832  0.4629  0.2303  0.2860
  548MOL0     O73904   9.308   2.769   0.755  0.8971 -0.0473  0.1723
  548MOL0     C73905   9.440   2.742   0.788 -0.2995  0.1080 -0.5585
  548MOL0     C73906   9.493   2.609   0.736  0.3814 -1.0420 -0.3034
  548MOL0     C73907   9.409   2.490   0.764  0.3103 -0.0956  0.0682
  548MOL0     C73908   9.470   2.368   0.688 -0.9768 -0.5870 -0.6153
  548MOL0     C73909   9.376   2.259   0.685  1.8807  0.5174  0.2097
  548MOL0     C73910   9.295   2.164   0.679 -0.2134 -0.2130 -0.6996
  548MOL0     C73911   9.129   2.831   0.894 -0.1413  0.4739 -0.8364
  548MOL0     C73912   9.071   2.929   0.979 -0.4107 -0.1852  0.1952
  548MOL0     H73913   9.187   3.344   1.345  1.5421  0.7367 -1.7215
  548MOL0     H73914   9.086   3.506   1.489  4.6603 -0.8572 -1.6301
  548MOL0     H73915   8.804   3.779   1.282  1.6877  2.2321  1.0631
  548MOL0     H73916   8.695   3.674   1.386  1.8512 -1.8164 -0.2906
  548MOL0     H73917   8.804   3.823   1.578  0.5141 -0.7737  0.1429
  548MOL0     H73918   8.817   3.936   1.444 -0.9651  0.2039 -1.3535
  548MOL0     H73919   8.555   3.862   1.414  0.7522 -4.6805  0.6361
  548MOL0     H73920   8.572   3.832   1.583  0.6826 -0.2463 -0.5714
  548MOL0     H73921   8.643   4.048   1.642 -0.2923  2.6737 -0.2088
  548MOL0     H73922   8.648   4.108   1.488  1.9336  0.0099  1.9272
  548MOL0     H73923   8.401   4.030   1.451 -0.9778 -0.4940  0.5287
  548MOL0     H73924   8.410   3.970   1.616 -2.0304 -0.2203 -1.3261
  548MOL0     H73925   8.415   4.197   1.715 -0.2837 -0.8642  0.8195
  548MOL0     H73926   8.449   4.262   1.555 -4.1814  3.1356  0.6206
  548MOL0     H73927   8.226   4.305   1.595  0.5438  0.4086 -1.8050
  548MOL0     H73928   8.199   4.162   1.501 -2.3807 -3.3864  3.4181
  548MOL0     H73929   8.196   4.028   1.722  1.4150  1.2247  2.1519
  548MOL0     H73930   8.058   4.115   1.672  1.2425 -0.6858 -4.5645
  548MOL0     H73931   7.980   4.336   1.805  0.2298  1.5111  0.2543
  548MOL0     H73932   7.902   4.410   2.038 -0.0797 -0.3186  1.1651
  548MOL0     H73933   7.949   4.303   2.170 -2.4120  0.1076 -1.0915
  548MOL0     H73934   8.110   4.561   2.080  1.4945  1.4840  1.7885
  548MOL0     H73935   8.126   4.445   2.216 -0.2331 -1.0553 -1.0536
  548MOL0     H73936   8.006   4.685   2.239  1.1830 -1.0408  1.2746
  548MOL0     H73937   7.945   4.550   2.337 -4.7789  0.2646 -0.4092
  548MOL0     H73938   7.766   4.680   2.251  0.2246  0.5021 -0.8451
  548MOL0     H73939   7.754   4.509   2.178 -0.6611 -0.3089  5.6720
  548MOL0     H73940   7.568   4.611   2.083 -1.9443  1.2372  0.9709
  548MOL0     H73941   7.266   4.729   1.944 -2.0711 -3.0033  1.0115
  548MOL0     H73942   7.329   4.633   2.077  0.1216 -0.3451 -0.2984
  548MOL0     H73943   7.270   4.790   2.111  2.4749  1.5649 -0.0093
  548MOL0     H73944   7.041   4.969   1.782  1.8802 -1.6033 -0.3304
  548MOL0     H73945   6.862   5.136   1.773 -0.7247 -3.5383  1.2207
  548MOL0     H73946   6.971   5.522   1.997 -0.8080  1.6010  0.0161
  548MOL0     H73947   6.924   5.551   1.832 -0.1841  1.0123  0.8860
  548MOL0     H73948   6.796   5.674   2.013  1.6876 -1.8011  2.6538
  548MOL0     H73949   6.710   5.585   1.881 -0.0720 -3.8822  0.8640
  548MOL0     H73950   6.734   5.455   2.149  0.9098 -3.0518 -1.5989
  548MOL0     H73951   6.636   5.412   2.019  1.3570 -0.0771 -0.9901
  548MOL0     H73952   6.596   5.673   2.197 -0.4995  1.2238 -0.8221
  548MOL0     H73953   6.543   5.660   2.030  1.6757  2.6123  1.5918
  548MOL0     H73954   6.423   5.462   2.084  0.4035  1.3144 -0.6746
  548MOL0     H73955   6.374   5.609   2.193 -0.5100  0.0917  0.3408
  548MOL0     H73956   6.370   5.374   2.296  1.0364 -0.8791  2.3105
  548MOL0     H73957   6.548   5.383   2.301  0.0768 -0.9304  0.3653
  548MOL0     H73958   6.360   5.606   2.415 -0.5638 -0.6418  3.1017
  548MOL0     H73959   6.532   5.591   2.436  0.3634  0.4583 -0.7180
  548MOL0     H73960   6.428   5.483   2.632 -1.7120  1.0264 -0.0678
  548MOL0     H73961   6.498   5.351   2.542 -1.3612 -0.0409  2.5483
  548MOL0     H73962   7.109   5.382   2.035  1.8748 -1.0115 -1.0987
  548MOL0     H73963   7.257   5.198   2.071 -1.6268  1.2144  1.7001
  548MOL0     H73964   7.635   5.063   1.904 -3.3824  0.7952  0.3971
  548MOL0     H73965   7.832   4.911   1.955  1.3380 -2.7131  2.4157
  548MOL0     H73966   8.809   3.603   1.182  0.9606  1.0018 -0.0454
  548MOL0     H73967   8.907   3.445   1.027  0.5298  2.8610 -0.0977
  548MOL0     H73968   9.273   3.188   0.936 -0.5564 -0.3860  1.1924
  548MOL0     H73969   9.383   3.030   0.775 -0.0741  0.2210 -0.5331
  548MOL0     H73970   9.512   2.822   0.767  0.0141  0.3178  1.1242
  548MOL0     H73971   9.421   2.738   0.896 -3.2946 -1.9302 -1.0461
  548MOL0     H73972   9.599   2.594   0.757  1.5114 -0.9580 -4.8642
  548MOL0     H73973   9.492   2.624   0.628  1.3461  1.1235 -0.0590
  548MOL0     H73974   9.304   2.496   0.735  1.0819  0.4912 -2.9538
  548MOL0     H73975   9.407   2.472   0.872 -1.9010 -1.6910 -0.1782
  548MOL0     H73976   9.562   2.335   0.738 -2.3951 -2.4741  0.8996
  548MOL0     H73977   9.503   2.396   0.587  1.1186 -1.6479 -0.2830
  548MOL0     H73978   9.235   2.076   0.674  0.1151 -0.6329  1.6865
  548MOL0     H73979   9.087   2.732   0.879  2.7704 -0.4558 -4.7302
  548MOL0     H73980   8.990   2.899   1.045 -0.2069  0.2080  0.6313
  549MOL0     O73981   8.738   2.858   0.534 -0.2281 -0.1879 -0.0706
  549MOL0     C73982   8.809   2.910   0.615 -0.0258 -0.9113 -0.6655
  549MOL0     O73983   8.912   2.854   0.697 -1.0481 -0.5013  0.4156
  549MOL0     C73984   8.930   2.723   0.674  0.2776 -0.2196 -0.5446
  549MOL0     C73985   8.851   2.629   0.740  0.0820  1.0983  0.9008
  549MOL0     C73986   8.854   2.492   0.710 -0.6402  1.1911  0.7816
  549MOL0     C73987   8.948   2.444   0.611  0.0462 -0.0971  0.4499
  549MOL0     O73988   8.951   2.313   0.588 -0.1341  0.5807  0.2048
  549MOL0     C73989   8.882   2.276   0.467 -0.5264 -0.0354  1.0321
  549MOL0     C73990   8.975   2.195   0.361  1.1642 -0.3909 -0.1007
  549MOL0     C73991   9.042   2.069   0.405  0.2014  0.7446 -0.2156
  549MOL0     C73992   8.942   1.954   0.426 -0.2282 -0.1495  0.1820
  549MOL0     C73993   9.019   1.829   0.477  0.3888  0.8672  0.2096
  549MOL0     C73994   8.919   1.724   0.533  0.1414 -0.1923  0.2324
  549MOL0     C73995   8.790   1.698   0.451 -0.0666  0.2158  0.1624
  549MOL0     C73996   8.827   1.616   0.318 -0.2515 -1.1510 -0.4387
  549MOL0     N73997   8.880   1.481   0.336 -0.3974  0.1166 -0.1962
  549MOL0     C73998   8.828   1.381   0.421  0.6850 -1.6850 -1.3742
  549MOL0     C73999   8.910   1.282   0.418  0.3394 -0.1225  1.6469
  549MOL0     C74000   8.902   1.151   0.488  0.2211 -0.7752  0.0993
  549MOL0     C74001   8.926   1.183   0.627 -0.1759 -0.6513 -0.0795
  549MOL0     C74002   8.952   1.057   0.717  0.1198  0.0521  0.6238
  549MOL0     C74003   8.961   1.101   0.858  1.1135 -0.4200  0.6121
  549MOL0     O74004   9.067   1.192   0.892  0.1662  0.0619 -0.5548
  549MOL0     C74005   9.049   1.327   0.903  0.2361 -0.4670  0.0147
  549MOL0     C74006   8.926   1.402   0.898  0.9255 -0.3425 -1.0788
  549MOL0     C74007   8.927   1.546   0.899 -0.2545 -0.3603  0.4563
  549MOL0     C74008   8.788   1.610   0.894 -0.0966  0.1095  0.4386
  549MOL0     C74009   9.048   1.621   0.899 -0.8418 -0.4479  1.9088
  549MOL0     C74010   9.062   1.763   0.896 -0.5206 -0.6756  0.5385
  549MOL0     O74011   8.944   1.839   0.908 -0.1177 -0.6296 -0.2232
  549MOL0     C74012   8.971   1.974   0.946  0.2046  1.0535  0.4268
  549MOL0     C74013   8.993   2.070   0.842 -0.9598 -0.3569  0.3785
  549MOL0     C74014   9.013   2.198   0.882  0.6309 -0.4834 -0.7359
  549MOL0     C74015   9.022   2.236   1.027  1.1670 -0.3632  0.0068
  549MOL0     O74016   9.072   2.355   1.069  0.2756  0.9685  0.5376
  549MOL0     C74017   8.984   2.456   1.026 -0.8876  0.2076  0.4226
  549MOL0     C74018   8.999   2.576   1.120 -0.2130  0.6720 -0.0766
  549MOL0     C74019   8.931   2.541   1.257  0.3203  0.0239 -0.6670
  549MOL0     C74020   8.948   2.643   1.365 -0.5440 -0.1937 -0.2300
  549MOL0     C74021   8.879   2.626   1.496 -0.0729 -0.6146 -0.0827
  549MOL0     C74022   8.966   2.536   1.583  0.1106 -0.3417  0.5001
  549MOL0     C74023   8.929   2.529   1.731 -1.5579  0.2370  0.0594
  549MOL0     C74024   9.016   2.411   1.776  0.2001 -1.1158 -0.1458
  549MOL0    Cl74025   8.987   2.408   1.955 -0.4305 -0.2846  0.0249
  549MOL0     C74026   8.995   2.139   1.121 -0.9534 -1.1354  0.4224
  549MOL0     C74027   8.973   2.004   1.078  0.5549 -1.1752  0.2633
  549MOL0     O74028   9.175   1.813   0.891 -0.4057 -0.5243  0.0903
  549MOL0     C74029   9.173   1.548   0.899  0.1288 -1.0617  0.6367
  549MOL0     C74030   9.168   1.409   0.902  0.0337  0.0156  0.3212
  549MOL0     N74031   9.011   1.307   0.324 -0.2510  0.2878 -0.4907
  549MOL0     N74032   9.005   1.438   0.286  0.5826  0.6904  0.3535
  549MOL0     C74033   9.031   2.535   0.548  0.6987  0.9653  0.3851
  549MOL0     C74034   9.018   2.673   0.576 -0.0254 -0.6250 -1.2053
  549MOL0     C74035   8.766   3.048   0.659  0.1749  1.0994  0.7701
  549MOL0     C74036   8.642   3.092   0.618  0.2294  0.0060  0.1471
  549MOL0     C74037   8.596   3.220   0.649  0.9751 -0.5229 -0.5534
  549MOL0     C74038   8.672   3.304   0.738  0.4566  1.0406 -0.2620
  549MOL0     O74039   8.652   3.432   0.778  0.8400 -0.7956  0.6604
  549MOL0     C74040   8.527   3.491   0.741 -0.2895  0.0344  0.1581
  549MOL0     C74041   8.549   3.642   0.730 -0.4533  0.1860  0.7057
  549MOL0     C74042   8.569   3.719   0.862 -0.5460 -0.2433  0.6609
  549MOL0     C74043   8.576   3.866   0.835 -0.7131  0.3067  0.6135
  549MOL0     C74044   8.619   3.932   0.958 -0.9109  0.1410 -0.0458
  549MOL0     C74045   8.659   3.968   1.070 -0.1982 -0.1532  0.5322
  549MOL0     C74046   8.787   3.251   0.795  0.5345  0.8795  0.7495
  549MOL0     C74047   8.831   3.122   0.753  0.0805  0.3449  0.2150
  549MOL0     H74048   8.798   2.667   0.828  0.1253  1.8107  0.6216
  549MOL0     H74049   8.792   2.427   0.771 -1.5482 -0.2422 -1.5182
  549MOL0     H74050   8.797   2.214   0.497  1.1874 -0.7707  4.9521
  549MOL0     H74051   8.844   2.365   0.415 -1.0178  0.3307  2.0058
  549MOL0     H74052   8.921   2.179   0.267  0.9664  0.0329 -0.0604
  549MOL0     H74053   9.056   2.262   0.331  3.4808 -2.2928  1.5771
  549MOL0     H74054   9.116   2.044   0.328 -1.8764  0.1191 -2.1097
  549MOL0     H74055   9.087   2.092   0.502  0.1369 -2.6022  0.7323
  549MOL0     H74056   8.874   1.986   0.506  0.7036  0.7733  0.6230
  549MOL0     H74057   8.880   1.927   0.340 -1.6693 -1.4380  1.5631
  549MOL0     H74058   9.067   1.767   0.400 -3.1706 -1.5431 -0.2691
  549MOL0     H74059   9.088   1.858   0.557  1.0870 -1.9337  0.7445
  549MOL0     H74060   8.972   1.629   0.546  0.1927 -0.3377 -0.9641
  549MOL0     H74061   8.889   1.760   0.632 -1.4858  1.7726 -0.8876
  549MOL0     H74062   8.725   1.649   0.525 -1.8159  0.9757 -0.8026
  549MOL0     H74063   8.742   1.791   0.419  2.7433  0.5484 -3.8463
  549MOL0     H74064   8.900   1.671   0.257 -1.8008  1.9284  0.2808
  549MOL0     H74065   8.728   1.608   0.271 -0.9967 -1.3034  1.1172
  549MOL0     H74066   8.740   1.406   0.480  0.7728  0.7913 -2.2136
  549MOL0     H74067   8.802   1.117   0.461 -0.4750  2.8773 -2.8012
  549MOL0     H74068   8.977   1.076   0.463  2.0473  1.0176 -0.0992
  549MOL0     H74069   8.836   1.236   0.658 -0.9384 -2.4232  0.8857
  549MOL0     H74070   9.019   1.239   0.642 -1.0295  0.0433  3.6089
  549MOL0     H74071   9.040   1.003   0.681 -0.3248 -0.3319  0.1115
  549MOL0     H74072   8.871   0.985   0.720  0.6861 -0.7135 -1.2258
  549MOL0     H74073   8.977   1.016   0.925  1.3284 -1.1808 -0.3648
  549MOL0     H74074   8.870   1.150   0.892  0.6773 -0.4376 -0.5027
  549MOL0     H74075   8.832   1.350   0.888  0.2193  0.6555  0.0901
  549MOL0     H74076   8.776   1.661   0.798  3.0190 -2.2248 -1.3907
  549MOL0     H74077   8.717   1.528   0.892 -0.3421  0.2943  1.2743
  549MOL0     H74078   8.784   1.680   0.978  2.5253 -2.3037  2.7868
  549MOL0     H74079   8.996   2.023   0.744 -0.2844 -3.4524  1.7471
  549MOL0     H74080   9.016   2.286   0.817  0.6858  0.8494  1.0023
  549MOL0     H74081   9.002   2.474   0.920  0.5341  0.5682  0.6997
  549MOL0     H74082   8.883   2.415   1.036 -0.9765 -0.0757 -1.3476
  549MOL0     H74083   9.103   2.607   1.133 -0.0150  0.1588 -0.3771
  549MOL0     H74084   8.947   2.660   1.073  0.6478  1.2040 -0.0879
  549MOL0     H74085   8.986   2.457   1.300 -1.0280 -0.2023  0.6971
  549MOL0     H74086   8.824   2.517   1.246 -0.3956  1.9544  1.3101
  549MOL0     H74087   9.056   2.663   1.360 -0.4660 -0.6210 -0.2993
  549MOL0     H74088   8.899   2.727   1.316  1.0949  0.6989 -0.4142
  549MOL0     H74089   8.783   2.577   1.480  0.4115 -1.4125 -0.5896
  549MOL0     H74090   8.868   2.727   1.538  0.9264 -0.6339  0.2735
  549MOL0     H74091   8.959   2.440   1.530 -0.6808 -0.5158  0.9033
  549MOL0     H74092   9.069   2.571   1.574 -0.2022  0.5039  0.0849
  549MOL0     H74093   8.821   2.515   1.735 -1.3633 -1.5840 -0.2494
  549MOL0     H74094   8.962   2.621   1.780 -3.1390  1.9982 -1.9937
  549MOL0     H74095   9.122   2.426   1.752  0.9698 -1.7941  2.4023
  549MOL0     H74096   8.979   2.317   1.734 -1.5481 -0.8647  0.7177
  549MOL0     H74097   9.008   2.176   1.222  2.2389  3.1129 -1.2705
  549MOL0     H74098   8.960   1.925   1.151 -1.1623  0.4833  1.8774
  549MOL0     H74099   9.262   1.610   0.894 -3.1941  4.3090 -0.0161
  549MOL0     H74100   9.258   1.354   0.929 -0.0971 -0.4862 -0.2421
  549MOL0     H74101   9.107   2.499   0.479 -1.4823  1.5711 -2.5332
  549MOL0     H74102   9.087   2.746   0.535  1.4016 -0.8771  0.6024
  549MOL0     H74103   8.577   3.037   0.551 -1.1086  0.5520  0.9516
  549MOL0     H74104   8.501   3.245   0.601  0.4866 -1.6307 -0.2093
  549MOL0     H74105   8.496   3.462   0.640  4.7388  0.6609 -1.8513
  549MOL0     H74106   8.448   3.470   0.813  0.1615  0.2295  0.7237
  549MOL0     H74107   8.457   3.672   0.679 -0.2411 -0.6370 -0.1990
  549MOL0     H74108   8.632   3.663   0.663 -1.6694 -2.0487 -1.6689
  549MOL0     H74109   8.656   3.673   0.908 -0.1079 -1.0404 -0.8851
  549MOL0     H74110   8.485   3.713   0.932  0.1212 -0.7779  1.4365
  549MOL0     H74111   8.484   3.910   0.797 -1.1092 -0.8684  0.1704
  549MOL0     H74112   8.651   3.866   0.755 -0.8467 -3.3164  0.3514
  549MOL0     H74113   8.691   3.998   1.168  2.3349  1.0515 -0.5840
  549MOL0     H74114   8.847   3.312   0.862  1.7792 -0.1170  0.5844
  549MOL0     H74115   8.926   3.089   0.793  0.3786 -3.9511 -3.2648
  550MOL0     O74116   4.599   6.560   5.643  1.1211 -0.2324 -0.4143
  550MOL0     C74117   4.523   6.629   5.570 -0.7475  0.0434 -0.7967
  550MOL0     O74118   4.471   6.591   5.448  0.4940  0.3279  0.3989
  550MOL0     C74119   4.485   6.463   5.400 -0.6448 -0.5772 -0.4629
  550MOL0     C74120   4.521   6.344   5.465  0.7912 -0.5558  0.1421
  550MOL0     C74121   4.553   6.223   5.394 -0.1975  0.3074  0.4145
  550MOL0     C74122   4.541   6.221   5.257  0.2375 -0.1787  0.5153
  550MOL0     O74123   4.578   6.112   5.181  0.3408 -0.2964  0.4820
  550MOL0     C74124   4.708   6.057   5.217  0.5310  0.3047 -0.7469
  550MOL0     C74125   4.745   5.954   5.114  0.7500  0.3634  0.1710
  550MOL0     C74126   4.885   5.891   5.147 -0.4102  0.3191 -0.0173
  550MOL0     C74127   4.986   5.947   5.045  0.4128 -0.6130  0.1782
  550MOL0     C74128   5.127   5.890   5.073  0.2250  0.1576 -1.1808
  550MOL0     C74129   5.235   5.964   5.008  0.1123  0.3825  0.8137
  550MOL0     C74130   5.369   5.921   5.069  0.6564 -0.6352  0.1281
  550MOL0     C74131   5.392   5.967   5.210 -0.2163 -0.2601  0.1066
  550MOL0     N74132   5.518   5.917   5.267 -1.1573 -1.1790 -0.6622
  550MOL0     C74133   5.545   5.890   5.397  0.0366 -0.1243  0.0739
  550MOL0     C74134   5.682   5.894   5.404  0.9493  1.6556 -0.3469
  550MOL0     C74135   5.761   5.863   5.528  0.9581 -0.3389 -0.5111
  550MOL0     C74136   5.880   5.773   5.502  0.0996  0.6123 -0.0548
  550MOL0     C74137   5.899   5.677   5.618 -0.3734  0.2997  0.6248
  550MOL0     C74138   5.942   5.748   5.747  0.4776  0.3084 -0.6896
  550MOL0     O74139   5.962   5.646   5.846  0.2705  0.0975 -0.2448
  550MOL0     C74140   6.017   5.668   5.972  0.8142  0.3754  1.1637
  550MOL0     C74141   5.980   5.584   6.076 -0.1029 -0.1979 -0.1377
  550MOL0     C74142   6.053   5.578   6.194  0.7900 -0.6041 -0.9492
  550MOL0     C74143   6.024   5.453   6.287  0.7254  0.9216  0.5138
  550MOL0     C74144   6.163   5.666   6.220 -0.4508 -0.0349  0.8716
  550MOL0     C74145   6.249   5.650   6.346 -0.0057 -0.7713  0.1332
  550MOL0     O74146   6.352   5.734   6.351 -0.2595 -0.7904  0.4549
  550MOL0     C74147   6.448   5.735   6.445  0.1225 -0.5754 -1.0193
  550MOL0     C74148   6.513   5.624   6.497  0.0698 -0.3123  0.3792
  550MOL0     C74149   6.622   5.638   6.585  0.3821 -0.1825  0.2997
  550MOL0     C74150   6.672   5.764   6.615 -0.6350  0.1859 -0.2355
  550MOL0     O74151   6.785   5.770   6.697 -0.1451  0.4078 -0.0249
  550MOL0     C74152   6.814   5.891   6.773  0.3131  0.4452 -0.0361
  550MOL0     C74153   6.847   5.854   6.910  0.2631 -0.1006  0.0656
  550MOL0     C74154   6.953   5.743   6.919  0.2638 -0.2903 -0.9010
  550MOL0     C74155   6.964   5.683   7.057 -0.7493  1.2264  0.1103
  550MOL0     C74156   7.057   5.560   7.070  1.3733  0.1163  0.2986
  550MOL0     C74157   7.196   5.591   7.073 -0.6135 -0.2440 -0.7612
  550MOL0     C74158   7.288   5.485   7.130 -0.5708 -0.1287  0.1916
  550MOL0     C74159   7.300   5.362   7.039 -0.8589 -0.6066 -0.6927
  550MOL0    Cl74160   7.382   5.401   6.883  0.2209 -0.2197  0.0898
  550MOL0     C74161   6.608   5.875   6.563  1.0436 -0.7418 -0.6587
  550MOL0     C74162   6.496   5.863   6.483  0.1005 -0.0719  0.1442
  550MOL0     O74163   6.225   5.568   6.425 -1.0443 -0.0614  0.0633
  550MOL0     C74164   6.200   5.752   6.116 -0.2405 -0.8167  0.0920
  550MOL0     C74165   6.130   5.751   5.993 -0.5128 -0.2318 -0.3188
  550MOL0     N74166   5.732   5.932   5.279 -0.0514 -0.3628 -0.0796
  550MOL0     N74167   5.632   5.940   5.200 -0.3455  0.1602  0.0187
  550MOL0     C74168   4.510   6.336   5.189  0.3154 -1.1005 -0.0675
  550MOL0     C74169   4.489   6.454   5.262  0.2534  0.1265 -0.5172
  550MOL0     C74170   4.495   6.759   5.637  0.4472 -0.7196 -0.3708
  550MOL0     C74171   4.543   6.801   5.764 -0.8644  0.1099  0.2612
  550MOL0     C74172   4.504   6.918   5.809 -1.0318  0.3422  0.2340
  550MOL0     C74173   4.415   7.003   5.738 -0.4684 -0.9106 -0.4428
  550MOL0     O74174   4.387   7.118   5.794  0.0256  0.5153 -0.1445
  550MOL0     C74175   4.457   7.237   5.747  0.3717  0.5737 -0.0998
  550MOL0     C74176   4.610   7.223   5.754  0.0620  0.1645 -1.0692
  550MOL0     C74177   4.648   7.215   5.900  0.2415 -0.2783  0.4461
  550MOL0     C74178   4.792   7.161   5.912 -0.3347 -1.1933 -0.1053
  550MOL0     C74179   4.906   7.256   5.877 -0.3606  0.2863  0.7447
  550MOL0     C74180   5.004   7.321   5.835 -0.2382  0.7552  0.3434
  550MOL0     C74181   4.370   6.968   5.621  0.0585  0.2927  0.0144
  550MOL0     C74182   4.411   6.846   5.565  0.0729 -0.0703 -0.6849
  550MOL0     H74183   4.537   6.349   5.572 -4.3610  1.3428  1.0904
  550MOL0     H74184   4.575   6.133   5.450  1.1837 -0.3036 -1.0442
  550MOL0     H74185   4.789   6.130   5.223  1.7597 -1.1033  0.9471
  550MOL0     H74186   4.700   6.020   5.319  1.3078  1.3660 -0.2818
  550MOL0     H74187   4.666   5.882   5.137 -1.2908  3.3099  3.3431
  550MOL0     H74188   4.732   6.003   5.017 -1.6491  1.4380  0.9595
  550MOL0     H74189   4.920   5.907   5.249  1.2131  2.1129 -0.7881
  550MOL0     H74190   4.881   5.784   5.122  1.4842 -0.8707  3.9268
  550MOL0     H74191   4.955   5.934   4.940  0.8709 -3.1442  0.3097
  550MOL0     H74192   4.998   6.053   5.067  0.3345 -0.5367 -0.1340
  550MOL0     H74193   5.139   5.897   5.182  0.2838  2.2352 -1.2869
  550MOL0     H74194   5.131   5.784   5.046 -1.4085  0.1898 -1.6796
  550MOL0     H74195   5.232   5.936   4.902 -0.4238  0.1123  0.9014
  550MOL0     H74196   5.235   6.073   5.018 -0.4066  0.6495 -1.5442
  550MOL0     H74197   5.399   5.818   5.050 -1.4904 -0.7886 -3.2701
  550MOL0     H74198   5.444   5.966   5.002 -0.6275 -0.2027 -1.0767
  550MOL0     H74199   5.311   5.943   5.279 -0.9062  0.8406 -0.2908
  550MOL0     H74200   5.398   6.076   5.212  0.4277 -0.3000  1.2107
  550MOL0     H74201   5.473   5.868   5.475  0.4241 -5.9074 -0.7324
  550MOL0     H74202   5.793   5.962   5.563  0.3507  0.5304 -2.3135
  550MOL0     H74203   5.693   5.824   5.604  1.0387  0.1102 -0.2055
  550MOL0     H74204   5.970   5.833   5.489  0.6243  0.0956  1.0643
  550MOL0     H74205   5.860   5.707   5.418  1.5050 -1.7951  1.4134
  550MOL0     H74206   5.981   5.611   5.589 -0.7017 -0.2587  0.9486
  550MOL0     H74207   5.812   5.611   5.629 -1.6977  0.8244 -4.4300
  550MOL0     H74208   5.857   5.813   5.773 -0.4675 -1.3681  0.6784
  550MOL0     H74209   6.029   5.814   5.743  0.2284  0.6714 -0.3355
  550MOL0     H74210   5.918   5.496   6.058  1.1714 -1.4907  1.4916
  550MOL0     H74211   6.109   5.385   6.289 -0.6649 -0.9923  4.2346
  550MOL0     H74212   6.000   5.475   6.391 -2.8823 -1.9185  0.4823
  550MOL0     H74213   5.948   5.382   6.253 -0.8719  1.5384  2.5493
  550MOL0     H74214   6.502   5.523   6.457 -0.0919 -0.3878  0.6146
  550MOL0     H74215   6.665   5.554   6.638 -0.0731  1.9779  4.5186
  550MOL0     H74216   6.909   5.922   6.728  0.9622 -0.5039  0.6291
  550MOL0     H74217   6.730   5.960   6.763  1.5718  1.9788 -0.2995
  550MOL0     H74218   6.884   5.938   6.970  0.4142 -2.4328  3.5251
  550MOL0     H74219   6.759   5.818   6.963 -0.9166  2.2417 -0.1442
  550MOL0     H74220   7.039   5.807   6.897 -0.3866  1.6198  1.5462
  550MOL0     H74221   6.945   5.664   6.844  2.5456 -0.6642 -0.8268
  550MOL0     H74222   6.984   5.750   7.141 -0.7204  2.3345 -0.7727
  550MOL0     H74223   6.862   5.646   7.073 -0.0371 -1.7013 -1.4132
  550MOL0     H74224   7.036   5.485   6.993  0.1139  0.7025  0.0457
  550MOL0     H74225   7.033   5.519   7.168 -0.1411  3.0865  1.2858
  550MOL0     H74226   7.215   5.621   6.969  0.9224  0.1737 -0.3723
  550MOL0     H74227   7.218   5.682   7.129  2.9536 -0.6116 -1.3684
  550MOL0     H74228   7.249   5.454   7.227  0.9403 -5.5683 -0.6421
  550MOL0     H74229   7.388   5.525   7.148  0.3468  0.1845 -4.3572
  550MOL0     H74230   7.203   5.312   7.033  0.4518 -3.5775  0.8095
  550MOL0     H74231   7.361   5.288   7.092 -1.2207 -2.4333 -2.7174
  550MOL0     H74232   6.633   5.978   6.588 -0.9417 -0.5041  0.5250
  550MOL0     H74233   6.450   5.951   6.441 -1.4733 -0.2956  1.3010
  550MOL0     H74234   6.297   5.801   6.112 -0.2438 -0.8596 -0.6070
  550MOL0     H74235   6.164   5.819   5.916 -0.0824 -0.6346 -0.4929
  550MOL0     H74236   4.508   6.347   5.081  2.1567 -1.7136 -0.1901
  550MOL0     H74237   4.483   6.546   5.205  0.3736  0.7871  0.4965
  550MOL0     H74238   4.610   6.740   5.824 -0.8534 -0.6863 -0.5546
  550MOL0     H74239   4.551   6.947   5.903  0.9972 -1.2868 -0.2130
  550MOL0     H74240   4.439   7.252   5.640  1.0134 -2.4591 -0.7198
  550MOL0     H74241   4.423   7.332   5.790 -0.8917  0.4078 -0.7002
  550MOL0     H74242   4.644   7.311   5.700 -0.1982  1.2213  0.4305
  550MOL0     H74243   4.648   7.132   5.707 -0.9117 -0.6334 -0.3787
  550MOL0     H74244   4.586   7.141   5.953  1.4169  0.8093  3.5835
  550MOL0     H74245   4.641   7.317   5.939 -2.7214 -0.3719  0.4502
  550MOL0     H74246   4.798   7.065   5.860 -0.5257 -1.9469  1.2211
  550MOL0     H74247   4.817   7.122   6.011 -0.5834 -2.4656 -0.5296
  550MOL0     H74248   5.094   7.363   5.795 -0.3673  0.4213 -0.3033
  550MOL0     H74249   4.301   7.027   5.563 -1.4547 -0.1869  1.2628
  550MOL0     H74250   4.371   6.820   5.468 -3.5494 -0.7364  0.8282
  551MOL0     O74251   7.779   0.633   2.853  0.3055  0.2928  0.1833
  551MOL0     C74252   7.814   0.737   2.912  0.1842 -0.7680  0.3077
  551MOL0     O74253   7.725   0.838   2.959  0.0418 -0.5395 -1.0346
  551MOL0     C74254   7.604   0.850   2.908 -1.0112  0.1495 -0.0577
  551MOL0     C74255   7.562   0.848   2.769 -0.3696  0.5065 -0.2209
  551MOL0     C74256   7.428   0.860   2.729 -0.3045  0.4221  0.0286
  551MOL0     C74257   7.330   0.896   2.814  0.7311 -0.3301 -0.5773
  551MOL0     O74258   7.196   0.925   2.787  0.1424  0.2335  0.2319
  551MOL0     C74259   7.146   0.871   2.668 -0.0422 -0.7605  0.1397
  551MOL0     C74260   6.980   0.868   2.671  0.1921 -0.6500 -0.6563
  551MOL0     C74261   6.920   0.869   2.529 -0.2503 -0.1532 -0.0144
  551MOL0     C74262   6.770   0.903   2.538  0.4804  0.1846  0.2481
  551MOL0     C74263   6.697   0.922   2.399 -0.5193 -0.3163 -0.6271
  551MOL0     C74264   6.554   0.985   2.422  1.5307 -0.0792 -0.8813
  551MOL0     C74265   6.480   0.995   2.290  0.3981 -0.1348 -0.4544
  551MOL0     C74266   6.331   1.010   2.308  0.5863  0.6888 -1.7046
  551MOL0     N74267   6.279   1.105   2.208 -0.2466 -0.4143 -0.3242
  551MOL0     C74268   6.277   1.245   2.212 -0.3981  0.0395  0.5494
  551MOL0     C74269   6.207   1.276   2.099  0.0295  0.0309  0.5695
  551MOL0     C74270   6.197   1.424   2.042 -0.9974  0.5679 -0.6581
  551MOL0     C74271   6.319   1.521   2.071  0.5178  0.0471 -0.7892
  551MOL0     C74272   6.278   1.659   2.012 -0.2934  0.1111  0.1644
  551MOL0     C74273   6.402   1.740   1.987 -0.3902 -0.3290  0.1108
  551MOL0     O74274   6.466   1.706   1.864 -0.0519  0.4889 -0.2925
  551MOL0     C74275   6.528   1.799   1.797 -0.0047  0.0831 -0.5686
  551MOL0     C74276   6.616   1.891   1.859 -0.1833 -0.6343 -0.2071
  551MOL0     C74277   6.674   1.997   1.781  0.2407  0.6990  0.0130
  551MOL0     C74278   6.781   2.081   1.850  0.1472  0.1817  0.6701
  551MOL0     C74279   6.622   2.012   1.648 -0.1243 -0.1297  0.3258
  551MOL0     C74280   6.684   2.109   1.557  0.1966 -0.3351  0.7396
  551MOL0     O74281   6.713   2.061   1.435  0.6177  0.0883  0.1933
  551MOL0     C74282   6.773   2.126   1.325 -0.4245  0.7065  0.5739
  551MOL0     C74283   6.800   2.269   1.324  0.1602  0.2133 -0.0793
  551MOL0     C74284   6.871   2.326   1.213 -0.0369  0.2225 -0.6229
  551MOL0     C74285   6.918   2.254   1.112 -1.1715 -0.5365  0.1967
  551MOL0     O74286   6.990   2.324   1.019  0.2130 -0.7889 -0.1983
  551MOL0     C74287   7.100   2.257   0.955 -0.3230 -0.0026 -0.5238
  551MOL0     C74288   7.185   2.364   0.904 -0.8927 -0.0256 -0.1142
  551MOL0     C74289   7.096   2.418   0.785 -0.2485  0.5869 -0.3128
  551MOL0     C74290   7.181   2.499   0.692 -0.6118 -0.7826  0.0581
  551MOL0     C74291   7.106   2.543   0.572  0.3380  0.2189 -0.7979
  551MOL0     C74292   7.176   2.631   0.476  0.3113  0.0987 -0.0653
  551MOL0     C74293   7.272   2.548   0.396  0.1307 -0.0222 -0.2335
  551MOL0     C74294   7.316   2.606   0.269 -0.1384 -0.4646  0.0565
  551MOL0    Cl74295   7.317   2.469   0.144 -0.4590 -0.0284  0.0708
  551MOL0     C74296   6.881   2.123   1.102 -0.1803 -0.1169  1.0278
  551MOL0     C74297   6.821   2.051   1.213  0.2632  0.2886  0.7411
  551MOL0     O74298   6.719   2.222   1.597  0.6473  0.3805 -1.0886
  551MOL0     C74299   6.544   1.911   1.592  0.0763  0.5705  0.4328
  551MOL0     C74300   6.505   1.802   1.667  1.1052  0.1956  0.7794
  551MOL0     N74301   6.155   1.158   2.037  0.4711  0.1949  0.0530
  551MOL0     N74302   6.206   1.056   2.098 -0.9863 -0.5654  0.3574
  551MOL0     C74303   7.373   0.906   2.949  0.4535  0.0123 -0.3692
  551MOL0     C74304   7.502   0.882   2.990  1.2037 -0.7163  0.0354
  551MOL0     C74305   7.959   0.764   2.928 -0.9762  0.5746  1.1192
  551MOL0     C74306   8.000   0.870   2.994 -0.4110 -0.6719 -0.2488
  551MOL0     C74307   8.133   0.911   3.002  0.2290 -0.0376 -0.1467
  551MOL0     C74308   8.233   0.838   2.950  0.9344 -0.0237 -0.3416
  551MOL0     O74309   8.360   0.896   2.957  0.1735  0.2898  0.5047
  551MOL0     C74310   8.455   0.862   2.856 -0.4366 -1.1189  0.0228
  551MOL0     C74311   8.588   0.886   2.922  0.0189 -0.1696  1.0323
  551MOL0     C74312   8.632   1.032   2.895 -0.1211  0.8875 -0.1476
  551MOL0     C74313   8.787   1.034   2.945  0.8388 -0.5867  0.0160
  551MOL0     C74314   8.842   1.169   2.968  0.2813  0.6397  0.3371
  551MOL0     C74315   8.887   1.276   3.006  0.1775 -0.0633 -0.6082
  551MOL0     C74316   8.198   0.715   2.874 -0.3405 -0.6391 -0.7907
  551MOL0     C74317   8.064   0.681   2.862  0.1946  0.1431 -0.9935
  551MOL0     H74318   7.637   0.831   2.691 -0.3720  2.1566 -0.6249
  551MOL0     H74319   7.412   0.844   2.622  0.5012  0.4247 -0.1007
  551MOL0     H74320   7.185   0.927   2.582 -2.1924  1.4321  0.4700
  551MOL0     H74321   7.163   0.763   2.663 -1.0922 -0.9903  1.1410
  551MOL0     H74322   6.937   0.789   2.733  0.9687  0.7300  1.7977
  551MOL0     H74323   6.956   0.967   2.711 -2.0333 -1.4736  0.2224
  551MOL0     H74324   6.972   0.948   2.474 -0.3305  1.4181  2.0561
  551MOL0     H74325   6.931   0.773   2.478 -1.1892  1.5361 -3.7323
  551MOL0     H74326   6.720   0.822   2.592 -0.0475 -1.3897 -2.3941
  551MOL0     H74327   6.756   0.995   2.595 -2.1457 -0.5689  0.9868
  551MOL0     H74328   6.751   0.990   2.332 -1.1138 -1.0690 -1.8924
  551MOL0     H74329   6.682   0.829   2.344  3.0905 -1.4553  0.0633
  551MOL0     H74330   6.497   0.918   2.487 -0.5663  0.7467 -1.7752
  551MOL0     H74331   6.562   1.084   2.470 -2.2357 -1.6697  3.8964
  551MOL0     H74332   6.520   1.087   2.245  3.0674 -0.2077  1.5215
  551MOL0     H74333   6.501   0.914   2.220 -0.0086 -2.4434  1.9418
  551MOL0     H74334   6.320   1.055   2.408  0.9332  1.1354 -1.8632
  551MOL0     H74335   6.288   0.911   2.295 -1.4820  1.3618 -0.5045
  551MOL0     H74336   6.333   1.319   2.269  1.9882 -2.2227  1.3215
  551MOL0     H74337   6.180   1.427   1.934  1.1811 -2.2310 -1.1942
  551MOL0     H74338   6.114   1.475   2.093 -0.2121  1.3552 -0.1237
  551MOL0     H74339   6.409   1.479   2.025 -0.0615 -0.4075 -1.5356
  551MOL0     H74340   6.334   1.537   2.178  0.5142  0.5143 -0.8539
  551MOL0     H74341   6.215   1.710   2.085 -2.2787  2.8622 -3.2173
  551MOL0     H74342   6.231   1.642   1.915  4.2916 -0.2341 -2.2657
  551MOL0     H74343   6.464   1.718   2.075 -1.6070 -0.1720  1.0323
  551MOL0     H74344   6.370   1.845   1.986  0.2679 -0.0256  2.9702
  551MOL0     H74345   6.646   1.855   1.957  0.6098 -1.3665 -0.6999
  551MOL0     H74346   6.799   2.029   1.945  1.4186 -2.1595 -0.7540
  551MOL0     H74347   6.865   2.069   1.781 -1.8717 -1.0217 -1.7451
  551MOL0     H74348   6.761   2.188   1.857  6.0586  1.8343 -1.8319
  551MOL0     H74349   6.768   2.328   1.409  1.8362 -1.6693  2.0041
  551MOL0     H74350   6.895   2.432   1.213 -1.7497  0.6454 -0.0336
  551MOL0     H74351   7.153   2.206   1.036 -0.0827 -0.0007 -0.6786
  551MOL0     H74352   7.078   2.177   0.884  3.3366 -3.4465  1.7866
  551MOL0     H74353   7.216   2.439   0.977  0.5485  1.0976 -1.7689
  551MOL0     H74354   7.278   2.316   0.870 -0.8160  1.5580 -2.4109
  551MOL0     H74355   7.020   2.486   0.824  1.3186  0.6226  2.9660
  551MOL0     H74356   7.063   2.337   0.718  3.7592  0.7112 -2.7140
  551MOL0     H74357   7.211   2.591   0.743 -2.3756  0.3516 -0.8472
  551MOL0     H74358   7.267   2.440   0.658  0.3917  1.1685 -0.9685
  551MOL0     H74359   7.023   2.600   0.615 -0.0868 -1.4103  0.6510
  551MOL0     H74360   7.067   2.459   0.514 -0.2575  0.2503 -0.4541
  551MOL0     H74361   7.105   2.677   0.407  0.7015  1.7318  0.5722
  551MOL0     H74362   7.218   2.724   0.514 -2.4070  1.5759 -0.3981
  551MOL0     H74363   7.211   2.458   0.379 -0.4935 -0.2138  2.6316
  551MOL0     H74364   7.348   2.509   0.464 -2.8522 -4.1041  1.1857
  551MOL0     H74365   7.414   2.647   0.293 -1.7657  2.6834  1.9997
  551MOL0     H74366   7.244   2.678   0.229  1.9249 -0.7210 -4.7715
  551MOL0     H74367   6.932   2.064   1.026  0.2551  0.2310  1.0434
  551MOL0     H74368   6.803   1.944   1.207  1.4303  0.1600 -1.4761
  551MOL0     H74369   6.510   1.917   1.490 -0.4694 -0.1638  0.5601
  551MOL0     H74370   6.438   1.729   1.624 -1.2163  0.3066  3.8943
  551MOL0     H74371   7.297   0.946   3.015  0.3861  2.4282 -1.7595
  551MOL0     H74372   7.530   0.891   3.094 -0.5040  0.4420  0.4270
  551MOL0     H74373   7.934   0.937   3.047 -0.3125 -0.2300 -0.6821
  551MOL0     H74374   8.154   1.000   3.061  0.2321 -0.5322  0.6095
  551MOL0     H74375   8.453   0.757   2.826  0.1882 -1.2412  0.3810
  551MOL0     H74376   8.429   0.926   2.771 -0.1113 -0.0586  0.6981
  551MOL0     H74377   8.658   0.820   2.870  1.0373  2.5698 -1.3927
  551MOL0     H74378   8.602   0.852   3.024  0.5124 -1.0155  0.6855
  551MOL0     H74379   8.560   1.103   2.935  0.5566  0.8065  1.2978
  551MOL0     H74380   8.623   1.044   2.787 -2.7063  0.4720 -0.0322
  551MOL0     H74381   8.847   0.996   2.862  1.8053  0.4040  0.2352
  551MOL0     H74382   8.807   0.972   3.033 -2.3023 -2.4666 -0.4151
  551MOL0     H74383   8.939   1.368   3.023  0.7207 -0.2240 -1.3497
  551MOL0     H74384   8.273   0.661   2.818  1.1235  0.0763  0.3934
  551MOL0     H74385   8.040   0.594   2.801 -1.8099 -0.4968  0.5665
  552MOL0     O74386   4.733   5.394   3.427  0.1281  0.2706  0.1032
  552MOL0     C74387   4.743   5.291   3.366  0.2179 -0.8032 -0.3037
  552MOL0     O74388   4.632   5.235   3.299  0.3110  0.4111 -0.1741
  552MOL0     C74389   4.511   5.304   3.287  0.9943  0.3854  0.3287
  552MOL0     C74390   4.492   5.415   3.206  0.6676 -0.6990 -0.0054
  552MOL0     C74391   4.356   5.468   3.200 -0.7251 -0.0949 -0.2878
  552MOL0     C74392   4.254   5.422   3.268 -0.1124  0.1927 -0.6295
  552MOL0     O74393   4.120   5.458   3.253  0.6146  0.3572  0.1221
  552MOL0     C74394   4.077   5.519   3.127  0.4275  0.5363  0.1433
  552MOL0     C74395   3.921   5.543   3.128 -0.5974  0.5084  0.6942
  552MOL0     C74396   3.892   5.664   3.035 -0.8911  0.2741 -0.4065
  552MOL0     C74397   3.736   5.688   3.006 -0.7000  0.0353  0.2152
  552MOL0     C74398   3.701   5.820   2.937  0.2407  0.3922 -0.5552
  552MOL0     C74399   3.574   5.813   2.856  0.0021 -1.2081 -0.7528
  552MOL0     C74400   3.584   5.739   2.729 -0.3902 -0.2363 -0.6187
  552MOL0     C74401   3.627   5.824   2.603  0.1512  0.7384  0.5375
  552MOL0     N74402   3.511   5.900   2.565 -0.2950  0.0985 -0.1826
  552MOL0     C74403   3.413   5.857   2.489 -0.2055  0.0984  1.1661
  552MOL0     C74404   3.318   5.957   2.479  0.4681  0.1483 -0.0179
  552MOL0     C74405   3.191   5.956   2.394  0.6634  0.6538  0.1340
  552MOL0     C74406   3.210   5.887   2.256  0.3281  1.2385  0.3041
  552MOL0     C74407   3.317   5.966   2.185 -0.9155  0.0659 -0.3753
  552MOL0     C74408   3.332   5.920   2.043 -0.4082 -0.5198  0.0854
  552MOL0     O74409   3.421   6.012   1.974 -0.3510  0.1848  0.0689
  552MOL0     C74410   3.375   6.130   1.915 -0.0982  0.2158  0.1607
  552MOL0     C74411   3.245   6.183   1.918 -0.2082 -0.1106 -0.8479
  552MOL0     C74412   3.193   6.297   1.860 -0.4996  0.2769  0.4905
  552MOL0     C74413   3.038   6.337   1.886 -0.3972  0.2803  0.5475
  552MOL0     C74414   3.286   6.373   1.778 -0.1222 -0.1539  0.0972
  552MOL0     C74415   3.260   6.513   1.731  0.7225  0.7231  1.1767
  552MOL0     O74416   3.369   6.572   1.669  0.0902 -0.0099 -0.3475
  552MOL0     C74417   3.366   6.678   1.589  0.4569 -0.3900  0.4088
  552MOL0     C74418   3.275   6.785   1.625  1.1588  0.8867  0.8175
  552MOL0     C74419   3.258   6.899   1.541  0.5152  0.0881 -0.9739
  552MOL0     C74420   3.336   6.911   1.428  0.5157  0.4248 -0.0130
  552MOL0     O74421   3.344   7.023   1.352  0.8625  0.0096  0.2399
  552MOL0     C74422   3.437   7.125   1.394 -0.5335 -0.1367  0.3580
  552MOL0     C74423   3.422   7.243   1.293  0.6681  0.0499 -0.6454
  552MOL0     C74424   3.509   7.368   1.296 -0.3080  0.1816  0.0085
  552MOL0     C74425   3.507   7.423   1.435  0.7934 -0.5162 -0.2689
  552MOL0     C74426   3.527   7.576   1.451 -0.3115 -0.2886 -0.0724
  552MOL0     C74427   3.683   7.609   1.414 -0.1279 -0.0342 -0.6867
  552MOL0     C74428   3.731   7.734   1.495  0.5291 -0.1357  0.5518
  552MOL0     C74429   3.663   7.872   1.455 -0.2454 -0.1182  0.4601
  552MOL0    Cl74430   3.743   8.010   1.547 -0.2054  0.0765 -0.0839
  552MOL0     C74431   3.431   6.809   1.402 -0.3902  0.1165 -0.0090
  552MOL0     C74432   3.440   6.693   1.474 -1.5982 -0.0393  1.6545
  552MOL0     O74433   3.156   6.573   1.762 -0.7757  0.6103  0.5645
  552MOL0     C74434   3.419   6.315   1.769 -0.4200 -1.2098  0.7226
  552MOL0     C74435   3.459   6.201   1.830 -0.8504 -0.0117 -0.5584
  552MOL0     N74436   3.372   6.058   2.562 -0.0265 -0.0440 -0.5554
  552MOL0     N74437   3.488   6.026   2.604  0.5609  0.0848 -0.3499
  552MOL0     C74438   4.275   5.325   3.370 -0.4935  0.1999  0.6441
  552MOL0     C74439   4.402   5.259   3.367 -0.0268 -0.0739 -0.3222
  552MOL0     C74440   4.880   5.241   3.353  0.7469  0.1999  0.2700
  552MOL0     C74441   4.892   5.137   3.256 -0.3215  0.3526  0.1206
  552MOL0     C74442   5.017   5.084   3.225 -0.7197 -0.0802 -1.0002
  552MOL0     C74443   5.124   5.151   3.281 -0.3887  0.2686 -0.7657
  552MOL0     O74444   5.249   5.114   3.233  0.4253  0.7010 -0.5109
  552MOL0     C74445   5.326   5.030   3.322 -0.3270 -0.4763 -0.0698
  552MOL0     C74446   5.476   5.070   3.300  0.1946  0.5714  0.7080
  552MOL0     C74447   5.531   5.038   3.165 -0.6908  0.5900 -0.9616
  552MOL0     C74448   5.560   4.889   3.155 -0.6220  0.2038 -0.1945
  552MOL0     C74449   5.638   4.851   3.034  0.5380  0.1466  0.4108
  552MOL0     C74450   5.684   4.828   2.924 -0.7493  0.1980  0.2517
  552MOL0     C74451   5.119   5.250   3.382  0.4202 -0.5415  0.1201
  552MOL0     C74452   4.988   5.294   3.413  0.7248 -0.3295 -0.0069
  552MOL0     H74453   4.574   5.453   3.147 -0.1023 -1.0945 -1.3825
  552MOL0     H74454   4.347   5.556   3.137 -1.2028 -0.5981 -0.9425
  552MOL0     H74455   4.113   5.622   3.128 -1.7405  1.3415  0.8619
  552MOL0     H74456   4.109   5.459   3.041  1.3078  0.4935  0.4897
  552MOL0     H74457   3.860   5.460   3.092  0.4832  0.8956 -2.3757
  552MOL0     H74458   3.888   5.580   3.225  1.7336  0.6117  1.5281
  552MOL0     H74459   3.928   5.753   3.088  1.0623  1.2193 -3.1020
  552MOL0     H74460   3.942   5.662   2.938  1.9415  0.3411  0.9461
  552MOL0     H74461   3.713   5.605   2.939  1.1316  1.8444 -2.9194
  552MOL0     H74462   3.668   5.680   3.091  0.7242 -1.9023  1.2391
  552MOL0     H74463   3.685   5.889   3.020  4.1270 -0.2498  0.9253
  552MOL0     H74464   3.783   5.845   2.868 -0.9848  0.3118 -2.1146
  552MOL0     H74465   3.516   5.762   2.934  1.6325 -2.0777 -0.0376
  552MOL0     H74466   3.538   5.913   2.834  2.0152 -0.9597 -3.4146
  552MOL0     H74467   3.656   5.660   2.750  0.7171  0.9359  0.0952
  552MOL0     H74468   3.493   5.685   2.701 -1.4295  1.1226 -0.0412
  552MOL0     H74469   3.667   5.770   2.516  0.4257  0.0287  1.0925
  552MOL0     H74470   3.716   5.874   2.641  0.2921  1.5486 -0.7862
  552MOL0     H74471   3.402   5.770   2.425 -0.8324  0.6860  0.4687
  552MOL0     H74472   3.120   5.904   2.459  0.7352 -0.2603 -0.4988
  552MOL0     H74473   3.145   6.056   2.393  1.3608  0.9888  0.7879
  552MOL0     H74474   3.118   5.885   2.197  0.8228 -2.8518 -0.6490
  552MOL0     H74475   3.241   5.785   2.278 -0.6726  1.0323  0.8126
  552MOL0     H74476   3.414   5.974   2.234 -1.2823 -0.1722  0.3943
  552MOL0     H74477   3.285   6.070   2.170 -0.2398  0.2466 -0.5936
  552MOL0     H74478   3.233   5.911   1.998 -0.4972 -3.1216  0.6614
  552MOL0     H74479   3.378   5.821   2.047 -1.2102 -0.8559  1.5038
  552MOL0     H74480   3.173   6.125   1.975  0.7491  0.4600  1.0329
  552MOL0     H74481   2.999   6.365   1.788  4.4206  2.5626 -1.0084
  552MOL0     H74482   2.981   6.264   1.944  0.6938 -2.3783 -1.5104
  552MOL0     H74483   3.039   6.433   1.939  2.3628  1.4298 -1.3698
  552MOL0     H74484   3.220   6.782   1.718  0.0905 -3.7102  0.3074
  552MOL0     H74485   3.185   6.973   1.571 -0.2435 -1.6600  1.8990
  552MOL0     H74486   3.399   7.162   1.490  0.7310 -0.6202  1.0747
  552MOL0     H74487   3.536   7.081   1.407 -1.2148 -1.6850  0.5077
  552MOL0     H74488   3.423   7.196   1.194 -3.3803 -2.0043  0.0796
  552MOL0     H74489   3.325   7.294   1.292  1.8617  2.5043 -2.3286
  552MOL0     H74490   3.463   7.444   1.233  1.1791  2.0402  1.0751
  552MOL0     H74491   3.613   7.353   1.264 -0.5695 -3.5857  0.3951
  552MOL0     H74492   3.409   7.412   1.483  0.5600  1.6117 -0.1714
  552MOL0     H74493   3.577   7.371   1.502 -0.8245 -0.5355  1.5039
  552MOL0     H74494   3.502   7.604   1.554  3.1706  2.5125  0.2065
  552MOL0     H74495   3.454   7.627   1.388  0.6772  0.7051 -0.4375
  552MOL0     H74496   3.743   7.522   1.442 -1.4735 -0.7433  0.1019
  552MOL0     H74497   3.689   7.618   1.305  0.1587 -0.1673 -0.6811
  552MOL0     H74498   3.839   7.750   1.483  0.2119  2.5857  0.6635
  552MOL0     H74499   3.709   7.711   1.600  0.0932 -0.6425  0.3506
  552MOL0     H74500   3.554   7.866   1.466 -0.6105  1.4511 -1.6203
  552MOL0     H74501   3.672   7.877   1.346 -4.8797 -2.0535 -0.2361
  552MOL0     H74502   3.500   6.803   1.318 -0.5001 -1.7577 -0.0066
  552MOL0     H74503   3.505   6.614   1.438  0.2135  1.0702  2.3696
  552MOL0     H74504   3.501   6.362   1.717  1.3837 -2.3622  2.3784
  552MOL0     H74505   3.557   6.155   1.836 -1.9665 -2.4612 -0.1609
  552MOL0     H74506   4.195   5.278   3.426  0.3881 -2.4914 -0.1869
  552MOL0     H74507   4.415   5.163   3.417  0.1755  0.7612  1.2756
  552MOL0     H74508   4.815   5.095   3.193 -0.6148  0.8854  0.1162
  552MOL0     H74509   5.035   4.990   3.173  5.2358 -0.4194  0.9996
  552MOL0     H74510   5.294   5.045   3.425 -0.8221 -0.4061 -0.2324
  552MOL0     H74511   5.303   4.925   3.303 -0.0204 -0.0877 -3.0464
  552MOL0     H74512   5.535   5.023   3.379 -0.8474 -2.8416 -0.3727
  552MOL0     H74513   5.487   5.179   3.304 -0.0341  0.6721 -0.8707
  552MOL0     H74514   5.620   5.102   3.160  1.9998 -2.7562  0.2622
  552MOL0     H74515   5.468   5.075   3.083 -0.5241  0.5894 -1.0927
  552MOL0     H74516   5.461   4.844   3.150 -0.4855 -0.2022  0.5017
  552MOL0     H74517   5.602   4.852   3.250  1.3611  1.8450 -0.3600
  552MOL0     H74518   5.734   4.809   2.831 -0.4804 -2.2616  0.8413
  552MOL0     H74519   5.204   5.295   3.433 -0.6578  1.5069  0.2239
  552MOL0     H74520   4.972   5.372   3.488 -3.4600  0.1918 -1.1555
  553MOL0     O74521  11.130   8.042   3.991  0.7694  0.3209  0.8096
  553MOL0     C74522  11.166   8.033   4.108  0.6278 -0.5271 -0.3526
  553MOL0     O74523  11.120   8.114   4.212  0.7699 -0.7305  0.0226
  553MOL0     C74524  11.022   8.218   4.197 -0.4689  0.4960 -0.9971
  553MOL0     C74525  10.972   8.275   4.077  0.1930  0.6056  1.0914
  553MOL0     C74526  10.875   8.377   4.075  0.3032  0.7243  0.2069
  553MOL0     C74527  10.816   8.421   4.186 -0.1194  0.8422  0.3503
  553MOL0     O74528  10.726   8.528   4.190 -0.2085  0.6445 -0.2295
  553MOL0     C74529  10.632   8.545   4.086  0.0491  0.1276  0.8150
  553MOL0     C74530  10.514   8.621   4.143 -0.9099 -0.3492 -0.1622
  553MOL0     C74531  10.424   8.549   4.231  0.9848  0.2246  0.3711
  553MOL0     C74532  10.287   8.629   4.244 -0.5032  0.9779 -0.7785
  553MOL0     C74533  10.208   8.565   4.359 -0.4171  0.8180 -0.3606
  553MOL0     C74534  10.235   8.633   4.499 -0.4648  0.0835  0.5482
  553MOL0     C74535  10.148   8.585   4.612 -0.2295 -0.5010 -0.3694
  553MOL0     C74536  10.173   8.437   4.662 -1.2157 -0.6970 -0.2778
  553MOL0     N74537  10.313   8.418   4.679  0.2474 -0.4955 -1.0612
  553MOL0     C74538  10.388   8.510   4.768 -1.1769  0.0526  1.4212
  553MOL0     C74539  10.508   8.487   4.724 -0.0774  0.8997 -0.0508
  553MOL0     C74540  10.624   8.577   4.766  0.2240  0.1000  1.0532
  553MOL0     C74541  10.651   8.677   4.655  0.3422  0.8202  0.1863
  553MOL0     C74542  10.542   8.782   4.655 -0.2634 -0.9129  0.5839
  553MOL0     C74543  10.573   8.900   4.558  0.2636  0.4520 -0.7438
  553MOL0     O74544  10.489   9.010   4.583  0.9029 -0.5558 -0.2140
  553MOL0     C74545  10.484   9.115   4.491  0.1173  0.9372 -0.7783
  553MOL0     C74546  10.591   9.154   4.420 -0.2911 -0.3084  0.2503
  553MOL0     C74547  10.587   9.263   4.331  1.0002 -0.1120 -0.1446
  553MOL0     C74548  10.715   9.263   4.237 -0.4061 -0.1642  0.0636
  553MOL0     C74549  10.465   9.337   4.316 -0.1684 -0.3159  0.4136
  553MOL0     C74550  10.449   9.458   4.228 -0.1070  0.3546  0.7426
  553MOL0     O74551  10.554   9.546   4.222 -0.6119 -0.7629  0.2283
  553MOL0     C74552  10.553   9.659   4.136 -0.1193 -0.0542 -0.1437
  553MOL0     C74553  10.580   9.787   4.191 -0.1360 -0.4868 -0.5485
  553MOL0     C74554  10.588   9.898   4.107  0.8932 -0.3339 -0.5029
  553MOL0     C74555  10.567   9.891   3.970  0.3309  0.4662 -0.3134
  553MOL0     O74556  10.579  10.009   3.902 -0.6649  0.5291  0.1904
  553MOL0     C74557  10.470  10.039   3.813  0.2952  1.2033 -0.0782
  553MOL0     C74558  10.338  10.046   3.887  0.3603 -0.1234 -0.3000
  553MOL0     C74559  10.234  10.136   3.827 -0.6195  0.2489  1.1932
  553MOL0     C74560  10.128  10.139   3.924  0.8173 -0.0140 -0.0917
  553MOL0     C74561   9.995  10.207   3.857 -0.5346  0.7402 -0.6659
  553MOL0     C74562   9.999  10.362   3.845 -0.3634  0.2740  0.3393
  553MOL0     C74563   9.985  10.445   3.967  0.1917 -0.3271  0.9784
  553MOL0     C74564   9.846  10.519   3.971  0.1537 -0.2800  0.4987
  553MOL0    Cl74565   9.815  10.647   3.844  0.2061  0.5223 -0.0525
  553MOL0     C74566  10.542   9.767   3.914 -0.2860 -0.4336  0.7807
  553MOL0     C74567  10.532   9.648   3.999 -1.0955  0.3392 -0.2319
  553MOL0     O74568  10.337   9.479   4.180 -0.4759 -0.8797 -0.1334
  553MOL0     C74569  10.356   9.303   4.394  0.0700  0.0145  0.4068
  553MOL0     C74570  10.363   9.187   4.475 -0.8088  0.2625 -0.3059
  553MOL0     N74571  10.514   8.373   4.640 -0.6111 -0.3316 -0.4393
  553MOL0     N74572  10.394   8.329   4.621 -0.0958  0.8008  0.7605
  553MOL0     C74573  10.866   8.370   4.304 -0.1755  0.5260 -0.9509
  553MOL0     C74574  10.960   8.268   4.310 -0.3437  0.1774  0.3890
  553MOL0     C74575  11.257   7.926   4.146  0.0827  0.4672  0.8159
  553MOL0     C74576  11.315   7.939   4.271 -0.1824  0.2841 -0.0400
  553MOL0     C74577  11.403   7.837   4.310 -0.6232  0.1074  0.2481
  553MOL0     C74578  11.435   7.733   4.223  1.0558  0.3293 -0.0003
  553MOL0     O74579  11.526   7.644   4.268  0.0195  0.5100 -0.2628
  553MOL0     C74580  11.473   7.509   4.275  1.0228  0.1955  0.2270
  553MOL0     C74581  11.578   7.417   4.345 -0.1773  0.9620  0.8473
  553MOL0     C74582  11.724   7.427   4.294  0.0615 -0.0423 -0.2510
  553MOL0     C74583  11.770   7.337   4.178  0.2958  0.4359  0.4085
  553MOL0     C74584  11.911   7.349   4.151  0.5410 -0.7288 -0.0098
  553MOL0     C74585  12.029   7.387   4.137  0.1536 -0.2057  0.2258
  553MOL0     C74586  11.363   7.722   4.094 -0.7720  1.5536 -0.7380
  553MOL0     C74587  11.272   7.816   4.058 -0.8153 -1.7927  0.0513
  553MOL0     H74588  10.994   8.231   3.981 -0.2702  0.2232  1.1550
  553MOL0     H74589  10.841   8.413   3.978 -0.7608 -1.0306 -0.1134
  553MOL0     H74590  10.675   8.604   4.004 -3.1307  1.3413 -0.1253
  553MOL0     H74591  10.591   8.450   4.050  1.0380 -1.0497  2.6639
  553MOL0     H74592  10.546   8.719   4.180 -0.3420 -0.4760 -0.2954
  553MOL0     H74593  10.453   8.642   4.055 -2.8361  0.5911  1.3224
  553MOL0     H74594  10.404   8.452   4.185 -0.3318  0.6726 -0.0330
  553MOL0     H74595  10.453   8.545   4.337  0.5273  1.2153  0.5508
  553MOL0     H74596  10.296   8.737   4.253 -2.9138  1.2359 -0.8040
  553MOL0     H74597  10.224   8.613   4.156 -2.2530  2.2932  0.1732
  553MOL0     H74598  10.101   8.562   4.336 -0.4793 -0.0758 -0.0076
  553MOL0     H74599  10.246   8.465   4.385 -3.1344  0.1274  1.4183
  553MOL0     H74600  10.339   8.604   4.517 -1.4610 -3.3623  1.5146
  553MOL0     H74601  10.216   8.740   4.488 -1.0061 -0.1816 -1.4901
  553MOL0     H74602  10.166   8.657   4.692 -0.1059 -1.0892  0.1336
  553MOL0     H74603  10.046   8.592   4.574 -0.2617  1.2158 -0.0779
  553MOL0     H74604  10.122   8.369   4.592 -1.6876  1.3300 -2.0206
  553MOL0     H74605  10.120   8.429   4.757 -0.7905 -2.3890 -0.1531
  553MOL0     H74606  10.350   8.591   4.830 -0.2626  0.2198  1.7715
  553MOL0     H74607  10.598   8.626   4.861  1.7293  0.9171  1.0707
  553MOL0     H74608  10.713   8.517   4.786  1.7224  0.2540 -3.9226
  553MOL0     H74609  10.658   8.631   4.557 -0.7690  0.6908  0.1514
  553MOL0     H74610  10.743   8.735   4.662  0.5838  0.7899 -2.0946
  553MOL0     H74611  10.556   8.833   4.751  2.7553  2.6971 -1.5122
  553MOL0     H74612  10.437   8.752   4.649 -1.3821  2.7921 -2.8954
  553MOL0     H74613  10.564   8.872   4.453  1.0857  1.5125 -1.1117
  553MOL0     H74614  10.676   8.929   4.583 -0.5008  2.8269 -0.1551
  553MOL0     H74615  10.685   9.101   4.425  0.2606  0.7415  1.7508
  553MOL0     H74616  10.806   9.228   4.285  1.8237 -0.9922 -4.2939
  553MOL0     H74617  10.704   9.212   4.141  2.1588 -0.7299  0.0098
  553MOL0     H74618  10.742   9.368   4.226 -2.8696  0.7838  1.9620
  553MOL0     H74619  10.594   9.795   4.298  1.6756  0.9669 -0.8400
  553MOL0     H74620  10.601   9.984   4.172 -1.6399  0.3322 -0.7918
  553MOL0     H74621  10.486  10.137   3.767  0.4569  0.4873 -1.6014
  553MOL0     H74622  10.456   9.969   3.729 -0.5796 -0.3617  1.3025
  553MOL0     H74623  10.296   9.946   3.885 -0.9149  0.4049 -0.5386
  553MOL0     H74624  10.358  10.069   3.992  0.2396 -2.6868  0.3524
  553MOL0     H74625  10.203  10.105   3.727 -0.2592 -0.2657  1.2382
  553MOL0     H74626  10.268  10.241   3.824 -0.7201  0.2881  1.4252
  553MOL0     H74627  10.107  10.038   3.960  0.5300  0.1977  0.3587
  553MOL0     H74628  10.159  10.202   4.008 -2.0230 -0.3943  1.3833
  553MOL0     H74629   9.906  10.181   3.915 -0.2321 -0.3158 -0.6435
  553MOL0     H74630  10.000  10.154   3.761  1.8324  0.0336 -0.2194
  553MOL0     H74631  10.090  10.381   3.788  0.4689 -3.5155  0.1431
  553MOL0     H74632   9.914  10.384   3.779 -0.0881 -1.0874 -0.5203
  553MOL0     H74633  10.059  10.526   3.961 -1.5290  1.1631 -2.0602
  553MOL0     H74634  10.002  10.386   4.058  3.9195 -0.7268  0.2102
  553MOL0     H74635   9.834  10.560   4.072 -3.4854  1.4008 -0.4558
  553MOL0     H74636   9.767  10.445   3.955 -1.2748  1.1378  0.6909
  553MOL0     H74637  10.518   9.765   3.808  2.9984  0.1319 -0.0859
  553MOL0     H74638  10.514   9.557   3.942  1.5162 -0.1146 -0.5010
  553MOL0     H74639  10.259   9.352   4.399 -0.4134 -0.9526  1.1998
  553MOL0     H74640  10.286   9.150   4.542 -0.6462 -0.0177 -0.2686
  553MOL0     H74641  10.814   8.394   4.397 -0.1391 -3.0762  0.1629
  553MOL0     H74642  10.986   8.215   4.401 -2.7029  0.9011  1.5804
  553MOL0     H74643  11.302   8.007   4.354 -1.0175  0.4180 -0.2634
  553MOL0     H74644  11.458   7.849   4.403 -1.0118 -1.6083  0.7552
  553MOL0     H74645  11.386   7.501   4.340  0.1437 -1.2074 -1.0601
  553MOL0     H74646  11.437   7.469   4.180 -0.4153  0.2304  0.7370
  553MOL0     H74647  11.547   7.313   4.332 -0.6618  1.1140  0.7745
  553MOL0     H74648  11.578   7.458   4.446 -0.3526  0.1166  1.1955
  553MOL0     H74649  11.785   7.386   4.375  3.0924  3.2748 -0.5901
  553MOL0     H74650  11.755   7.530   4.274  0.9372 -0.0128  1.0882
  553MOL0     H74651  11.730   7.367   4.081 -0.9387  1.6903  1.2634
  553MOL0     H74652  11.751   7.231   4.196 -2.2041 -0.0088 -3.7796
  553MOL0     H74653  12.127   7.431   4.139 -0.6037  1.7235 -1.4360
  553MOL0     H74654  11.381   7.637   4.028  0.1616  0.6219  0.6580
  553MOL0     H74655  11.235   7.821   3.956  3.3209 -3.3904 -1.7551
  554MOL0     O74656   5.716  11.116   0.740 -0.0967  0.2638 -0.4035
  554MOL0     C74657   5.814  11.155   0.813  1.2031 -0.0932  0.0135
  554MOL0     O74658   5.882  11.066   0.891  0.5545 -0.5870  0.2098
  554MOL0     C74659   5.849  10.932   0.897  0.1410 -1.4966  0.1917
  554MOL0     C74660   5.848  10.885   1.024  0.8186 -0.7550  0.8476
  554MOL0     C74661   5.814  10.752   1.042  0.1912 -0.0654  0.8886
  554MOL0     C74662   5.790  10.669   0.938 -0.8346 -0.1319 -0.6802
  554MOL0     O74663   5.770  10.535   0.973 -0.4815  0.3848 -0.6056
  554MOL0     C74664   5.790  10.430   0.883  0.1379  1.0093 -0.3340
  554MOL0     C74665   5.792  10.296   0.957 -0.1859  0.4721 -0.6610
  554MOL0     C74666   5.887  10.308   1.074  0.0021 -0.4124 -0.6361
  554MOL0     C74667   6.035  10.360   1.039 -0.5936 -0.2937  0.7352
  554MOL0     C74668   6.137  10.354   1.146  0.7879  0.0114  0.4698
  554MOL0     C74669   6.092  10.407   1.283  0.9840 -0.0820  0.0455
  554MOL0     C74670   6.203  10.361   1.383 -0.5663 -1.5413 -0.5717
  554MOL0     C74671   6.239  10.470   1.491 -0.1502 -1.0578 -0.6734
  554MOL0     N74672   6.347  10.568   1.450  0.2305 -0.0603 -0.0969
  554MOL0     C74673   6.343  10.690   1.380 -1.1798  0.1862  0.3414
  554MOL0     C74674   6.472  10.741   1.372 -0.6756 -0.2285 -0.3976
  554MOL0     C74675   6.502  10.869   1.299  0.3864  0.7073 -0.4845
  554MOL0     C74676   6.597  10.840   1.175  0.5240  0.0140  0.2099
  554MOL0     C74677   6.594  10.949   1.074  0.8616 -0.1803  0.0519
  554MOL0     C74678   6.662  11.069   1.120  0.2883  0.4145 -0.3020
  554MOL0     O74679   6.746  11.115   1.013 -0.1003  0.7354  0.0773
  554MOL0     C74680   6.817  11.224   1.043  0.4487  0.4560 -0.2806
  554MOL0     C74681   6.750  11.338   1.096  0.3327 -1.4715 -0.4068
  554MOL0     C74682   6.827  11.453   1.140  1.0696  0.5578 -0.3614
  554MOL0     C74683   6.751  11.563   1.202 -0.2048  0.3063 -0.9564
  554MOL0     C74684   6.956  11.458   1.100 -0.1615 -0.4127  0.1466
  554MOL0     C74685   7.038  11.578   1.110 -0.4343 -0.7987  0.8883
  554MOL0     O74686   6.977  11.699   1.146 -0.8680  0.3368 -0.2971
  554MOL0     C74687   7.051  11.811   1.192 -0.8327 -0.5559 -0.7698
  554MOL0     C74688   6.977  11.920   1.238 -0.3071 -0.0125  0.5520
  554MOL0     C74689   7.024  12.050   1.264  0.5497 -0.4807 -0.6978
  554MOL0     C74690   7.150  12.084   1.243 -0.8934  0.1311  0.3515
  554MOL0     O74691   7.202  12.209   1.268  0.8189  0.2749  0.7076
  554MOL0     C74692   7.119  12.316   1.207 -0.1890 -1.1100 -0.8089
  554MOL0     C74693   7.201  12.386   1.097 -0.1095  0.1147 -0.2244
  554MOL0     C74694   7.303  12.484   1.171  0.5461  0.0751 -0.0971
  554MOL0     C74695   7.400  12.542   1.073  0.3221 -0.0643 -0.2456
  554MOL0     C74696   7.509  12.632   1.137  0.3240 -0.7329  0.1531
  554MOL0     C74697   7.603  12.548   1.225 -0.7159 -0.7494  0.6872
  554MOL0     C74698   7.701  12.647   1.291 -0.0438  0.5759  0.7052
  554MOL0     C74699   7.806  12.554   1.369 -0.0054  0.5520 -0.1650
  554MOL0    Cl74700   7.873  12.417   1.267 -0.0359 -0.2065  0.0735
  554MOL0     C74701   7.234  11.971   1.198 -0.1059 -0.4851 -0.3239
  554MOL0     C74702   7.186  11.843   1.172  0.1427  0.6837 -1.4017
  554MOL0     O74703   7.158  11.572   1.087 -0.2998 -0.4748  0.6271
  554MOL0     C74704   7.011  11.351   1.031 -0.3788 -0.6752  1.4206
  554MOL0     C74705   6.952  11.225   1.017 -0.4351 -0.0093 -0.0908
  554MOL0     N74706   6.548  10.646   1.436  0.7821 -0.5598  0.0939
  554MOL0     N74707   6.475  10.547   1.478 -0.0763  0.3023  0.7066
  554MOL0     C74708   5.774  10.717   0.808  0.2214 -0.6579 -0.2046
  554MOL0     C74709   5.804  10.850   0.788 -0.2237 -0.0861  0.5846
  554MOL0     C74710   5.853  11.298   0.816 -0.5418  0.1848 -0.6713
  554MOL0     C74711   5.922  11.348   0.936 -0.1994 -0.2567 -0.4415
  554MOL0     C74712   5.949  11.485   0.958 -0.3693 -0.7975 -0.2895
  554MOL0     C74713   5.920  11.579   0.864  0.6793 -0.7663 -0.0972
  554MOL0     O74714   5.939  11.710   0.887 -0.5526  0.2865  1.5720
  554MOL0     C74715   6.082  11.762   0.875  0.0383 -0.1470  0.1787
  554MOL0     C74716   6.097  11.903   0.838 -0.3932 -0.1377  1.0372
  554MOL0     C74717   6.237  11.933   0.771 -0.1265 -0.3878  0.0444
  554MOL0     C74718   6.277  12.079   0.796  0.1258 -0.0083  0.2050
  554MOL0     C74719   6.169  12.169   0.746  0.3226  0.3053  0.3114
  554MOL0     C74720   6.068  12.226   0.717  0.6881  0.2409 -0.1326
  554MOL0     C74721   5.837  11.541   0.758  0.0401 -0.1663  1.1659
  554MOL0     C74722   5.814  11.398   0.733  0.7295 -0.8754  0.5665
  554MOL0     H74723   5.863  10.957   1.104 -3.0003  2.1337 -0.7155
  554MOL0     H74724   5.835  10.706   1.138 -0.7328 -3.3699 -0.3861
  554MOL0     H74725   5.712  10.416   0.808 -1.2791 -3.6787  1.6853
  554MOL0     H74726   5.888  10.432   0.834 -0.5479  1.4246 -1.7708
  554MOL0     H74727   5.694  10.271   0.999  0.0277  0.9645  0.1554
  554MOL0     H74728   5.814  10.210   0.893 -1.4871 -1.3575  1.2141
  554MOL0     H74729   5.843  10.360   1.159 -2.1496 -2.5806 -0.3123
  554MOL0     H74730   5.917  10.210   1.111 -0.2198 -1.0457 -2.0604
  554MOL0     H74731   6.084  10.319   0.951 -1.1935 -1.7452  1.0588
  554MOL0     H74732   6.031  10.467   1.014  0.3705 -0.1308  1.2014
  554MOL0     H74733   6.161  10.248   1.155 -2.2999 -0.8170  0.0065
  554MOL0     H74734   6.224  10.419   1.129  0.1859  1.2003  1.7424
  554MOL0     H74735   6.076  10.514   1.267  0.0291 -0.6031 -3.3662
  554MOL0     H74736   6.005  10.354   1.323  3.6062 -4.9200  0.1108
  554MOL0     H74737   6.167  10.275   1.440 -0.0089 -0.9020  0.7957
  554MOL0     H74738   6.294  10.330   1.331  0.1095 -0.2928 -0.1893
  554MOL0     H74739   6.279  10.419   1.580 -0.9012 -1.7332 -0.7129
  554MOL0     H74740   6.146  10.522   1.513 -2.5432 -4.1472 -2.6876
  554MOL0     H74741   6.260  10.746   1.338  0.7794  2.7560 -0.3863
  554MOL0     H74742   6.412  10.916   1.259  0.5985 -0.3550 -2.3221
  554MOL0     H74743   6.563  10.930   1.367  4.2791 -0.7055 -2.4073
  554MOL0     H74744   6.566  10.746   1.128  0.6223 -0.6443  1.4392
  554MOL0     H74745   6.698  10.816   1.209  1.2390 -0.6311 -2.1377
  554MOL0     H74746   6.491  10.977   1.051  0.5841  0.7981  2.1933
  554MOL0     H74747   6.636  10.913   0.980  2.9118  0.8807  0.5176
  554MOL0     H74748   6.719  11.057   1.212 -2.6975  0.6344  1.7036
  554MOL0     H74749   6.589  11.147   1.145 -0.3010 -0.8431  2.2719
  554MOL0     H74750   6.643  11.353   1.097  0.0754 -3.0581 -0.8581
  554MOL0     H74751   6.808  11.595   1.290  0.8313 -2.2867 -0.6023
  554MOL0     H74752   6.732  11.652   1.141  0.0939  1.5820  0.7394
  554MOL0     H74753   6.662  11.514   1.245  0.7471 -0.9329 -0.3474
  554MOL0     H74754   6.871  11.903   1.256  0.1271 -0.9634  2.4817
  554MOL0     H74755   6.947  12.121   1.293 -0.9574 -1.5448 -1.8967
  554MOL0     H74756   7.027  12.284   1.159 -1.2222 -1.2764  1.1859
  554MOL0     H74757   7.084  12.395   1.274  2.6657  0.3340 -0.8627
  554MOL0     H74758   7.266  12.314   1.047  0.9219  0.7807  0.1098
  554MOL0     H74759   7.146  12.447   1.025 -1.2895  0.7370  1.1472
  554MOL0     H74760   7.348  12.430   1.255  2.7509  1.8049 -0.0796
  554MOL0     H74761   7.249  12.568   1.216  2.6693  0.9260  0.9754
  554MOL0     H74762   7.439  12.458   1.014  2.0244 -2.1668  3.4521
  554MOL0     H74763   7.351  12.601   0.995  0.0148 -2.1524 -1.7225
  554MOL0     H74764   7.474  12.720   1.193  1.8065 -0.5852  0.9115
  554MOL0     H74765   7.581  12.664   1.061 -1.1316 -2.4221 -2.0533
  554MOL0     H74766   7.552  12.495   1.306  4.2410 -1.2429  3.9261
  554MOL0     H74767   7.648  12.473   1.160 -2.1305  0.5794 -2.0559
  554MOL0     H74768   7.643  12.718   1.351 -0.4542  0.7433  0.1244
  554MOL0     H74769   7.758  12.686   1.206  2.2040 -1.9589  0.9434
  554MOL0     H74770   7.756  12.520   1.460  0.4825  3.6648  1.3675
  554MOL0     H74771   7.882  12.616   1.416 -2.0835  2.4975  0.7856
  554MOL0     H74772   7.339  11.997   1.192  0.0360 -0.8295  0.5297
  554MOL0     H74773   7.255  11.762   1.151 -4.8922 -4.2713 -1.2166
  554MOL0     H74774   7.113  11.363   0.995  0.1497 -0.0836  3.0146
  554MOL0     H74775   6.988  11.135   0.969 -0.4559 -0.2013  0.2483
  554MOL0     H74776   5.767  10.665   0.712 -0.3454  1.7394 -1.5498
  554MOL0     H74777   5.793  10.883   0.685 -5.9032 -2.2732  0.1223
  554MOL0     H74778   5.958  11.278   1.010  0.3019 -0.2421 -0.6649
  554MOL0     H74779   6.001  11.509   1.051 -2.9643  2.0250  0.5963
  554MOL0     H74780   6.129  11.733   0.970 -0.9532 -0.4572  0.5917
  554MOL0     H74781   6.117  11.703   0.790  0.8872  1.4589 -0.6264
  554MOL0     H74782   6.069  11.975   0.916  0.7602  2.5837 -0.8889
  554MOL0     H74783   6.016  11.927   0.769 -0.6077 -1.4441  0.8148
  554MOL0     H74784   6.228  11.908   0.665  2.5852 -0.0506 -0.3311
  554MOL0     H74785   6.312  11.864   0.810 -0.8864  0.6314  3.6866
  554MOL0     H74786   6.378  12.098   0.757 -0.3003  2.0267 -0.0188
  554MOL0     H74787   6.278  12.096   0.904  1.3540 -0.6304  0.3111
  554MOL0     H74788   5.976  12.272   0.689  1.0896  0.4346 -1.1855
  554MOL0     H74789   5.774  11.614   0.708 -1.1603 -0.9228  1.5363
  554MOL0     H74790   5.741  11.370   0.657 -1.1980 -0.8962  2.3402
  555MOL0     O74791   1.861   1.058   3.642 -0.8897  0.1961 -0.5024
  555MOL0     C74792   1.929   1.154   3.678  0.5428 -0.5560  0.1809
  555MOL0     O74793   2.062   1.156   3.694  0.5972 -0.5688  0.4297
  555MOL0     C74794   2.128   1.046   3.657 -0.0710  0.0269  0.4251
  555MOL0     C74795   2.135   1.016   3.516 -0.4720 -0.2023  1.0305
  555MOL0     C74796   2.185   0.894   3.468  0.1959  0.5559 -0.8283
  555MOL0     C74797   2.231   0.801   3.564 -0.5763  0.1699 -0.5797
  555MOL0     O74798   2.287   0.679   3.535 -0.2314 -0.1103  0.2425
  555MOL0     C74799   2.201   0.602   3.455  0.5044 -0.1429  0.2712
  555MOL0     C74800   2.275   0.469   3.441  0.0502  0.2670  0.8695
  555MOL0     C74801   2.201   0.376   3.338  0.0990 -0.7823  0.6156
  555MOL0     C74802   2.288   0.256   3.298  0.3685  0.5945  0.4558
  555MOL0     C74803   2.206   0.184   3.188  1.0288  0.0079 -0.6525
  555MOL0     C74804   2.267   0.045   3.153  0.2886  0.1701  0.1702
  555MOL0     C74805   2.189  -0.021   3.036 -0.1119 -0.2191 -0.8668
  555MOL0     C74806   2.201   0.063   2.905 -1.1125  0.3354  0.5541
  555MOL0     N74807   2.335   0.068   2.838 -0.5764  0.2594 -0.6023
  555MOL0     C74808   2.354   0.089   2.706 -0.3046  0.0634 -0.0573
  555MOL0     C74809   2.486   0.061   2.682  0.9193  0.0814  1.0540
  555MOL0     C74810   2.557   0.046   2.545  0.0152 -0.6050 -0.1757
  555MOL0     C74811   2.680   0.143   2.535  1.0111  0.6011 -0.1724
  555MOL0     C74812   2.769   0.117   2.409  0.1208 -0.3037 -0.4000
  555MOL0     C74813   2.904   0.185   2.418  0.5875 -0.3518 -0.0558
  555MOL0     O74814   2.931   0.278   2.316 -0.6465 -0.7707 -0.0294
  555MOL0     C74815   3.052   0.353   2.337  0.2955  0.8681 -0.5030
  555MOL0     C74816   3.181   0.288   2.377 -0.1453 -0.6302  0.1367
  555MOL0     C74817   3.295   0.362   2.380  0.3458 -0.3253  0.5235
  555MOL0     C74818   3.422   0.284   2.429 -0.3993 -0.2720 -0.2285
  555MOL0     C74819   3.293   0.502   2.359  0.6816 -0.9683  0.6161
  555MOL0     C74820   3.416   0.583   2.343 -0.7825  0.1925 -0.4175
  555MOL0     O74821   3.397   0.724   2.354 -0.4263 -0.2297  1.2357
  555MOL0     C74822   3.480   0.803   2.279 -0.4304 -0.9096  0.3739
  555MOL0     C74823   3.538   0.917   2.342  0.1058 -0.7992 -0.7541
  555MOL0     C74824   3.609   1.006   2.257 -0.4194 -0.3684 -0.7122
  555MOL0     C74825   3.627   0.979   2.124 -1.1104 -0.2037  0.3983
  555MOL0     O74826   3.699   1.065   2.040  0.0657  0.5696 -0.4115
  555MOL0     C74827   3.798   1.014   1.945 -0.5149 -0.5869 -0.2526
  555MOL0     C74828   3.793   1.087   1.809 -0.5020 -0.2107 -0.3707
  555MOL0     C74829   3.655   1.085   1.739 -0.9557 -0.3305 -0.2087
  555MOL0     C74830   3.662   1.158   1.597  0.0860  0.3174  0.7134
  555MOL0     C74831   3.542   1.126   1.503  0.3916 -0.1652 -0.8348
  555MOL0     C74832   3.412   1.206   1.549 -0.2715 -0.4828 -0.9524
  555MOL0     C74833   3.301   1.176   1.461 -0.8267  0.4280  0.2336
  555MOL0     C74834   3.178   1.262   1.479  0.2820  0.7120 -0.5879
  555MOL0    Cl74835   3.190   1.424   1.414  0.2920  0.3217  0.0946
  555MOL0     C74836   3.546   0.877   2.067 -1.7005 -1.2558  0.2671
  555MOL0     C74837   3.485   0.789   2.141 -0.5251  0.9283 -0.2720
  555MOL0     O74838   3.522   0.527   2.305  0.3121 -0.0389  0.9283
  555MOL0     C74839   3.163   0.571   2.332  0.1837  0.6280 -0.3890
  555MOL0     C74840   3.043   0.492   2.327 -0.3393 -0.4653 -0.4203
  555MOL0     N74841   2.534   0.022   2.800 -0.2332  0.6535 -0.4755
  555MOL0     N74842   2.446   0.018   2.893  0.4549 -0.5609 -0.3718
  555MOL0     C74843   2.243   0.848   3.693  0.1211 -0.3791 -0.0307
  555MOL0     C74844   2.200   0.966   3.746  0.4556 -0.4419 -0.0036
  555MOL0     C74845   1.862   1.281   3.664  0.3931  1.0275 -0.6402
  555MOL0     C74846   1.725   1.286   3.621  0.8159  0.7734  0.1290
  555MOL0     C74847   1.661   1.409   3.615  0.4576 -0.3177  0.0378
  555MOL0     C74848   1.731   1.532   3.636 -0.4888  0.3666  0.7138
  555MOL0     O74849   1.678   1.658   3.637  0.4769 -0.0870 -0.1236
  555MOL0     C74850   1.539   1.671   3.643  0.0601 -0.0392 -0.5541
  555MOL0     C74851   1.488   1.665   3.794  0.4739 -0.7949  0.7703
  555MOL0     C74852   1.478   1.522   3.838  0.2473 -0.2730 -0.5288
  555MOL0     C74853   1.408   1.510   3.981 -0.3054  0.8015  1.1067
  555MOL0     C74854   1.415   1.373   4.019  0.4644  0.4648 -0.5970
  555MOL0     C74855   1.421   1.257   4.055 -0.4836  0.1694  0.7132
  555MOL0     C74856   1.866   1.521   3.665  0.5483 -0.7462 -0.3966
  555MOL0     C74857   1.923   1.399   3.679 -0.6354  0.5673 -0.3698
  555MOL0     H74858   2.094   1.090   3.447 -1.5746 -1.3900  0.3834
  555MOL0     H74859   2.178   0.869   3.363  0.6322  0.4914 -0.8421
  555MOL0     H74860   2.105   0.580   3.503  0.7371  2.9926  2.4608
  555MOL0     H74861   2.175   0.644   3.358  1.2325  0.8697  0.5020
  555MOL0     H74862   2.374   0.491   3.401 -1.1581  1.8872 -1.5103
  555MOL0     H74863   2.286   0.417   3.537  2.4491 -1.3175 -0.1726
  555MOL0     H74864   2.104   0.344   3.376 -0.7769  1.1787  0.1327
  555MOL0     H74865   2.181   0.442   3.253 -1.6039 -0.3238  1.3409
  555MOL0     H74866   2.387   0.284   3.261  0.2855  1.9854  1.2322
  555MOL0     H74867   2.302   0.188   3.383 -3.0944 -0.0472  0.6619
  555MOL0     H74868   2.104   0.159   3.217  2.5005 -4.9813  1.4901
  555MOL0     H74869   2.194   0.248   3.100 -2.8422  0.4567  0.0431
  555MOL0     H74870   2.372   0.066   3.130 -0.4996  5.0196 -0.0190
  555MOL0     H74871   2.257  -0.027   3.235 -0.6548  0.2380  0.1230
  555MOL0     H74872   2.227  -0.122   3.021 -1.4767 -1.0004  0.6647
  555MOL0     H74873   2.088  -0.039   3.072 -0.3213 -0.6707 -1.6560
  555MOL0     H74874   2.158   0.163   2.911 -1.5100  0.1801  0.3557
  555MOL0     H74875   2.133   0.025   2.828 -1.1713  2.8272 -0.7274
  555MOL0     H74876   2.283   0.124   2.632 -2.6295 -0.2026  1.8915
  555MOL0     H74877   2.583  -0.059   2.527  0.5416 -0.2859 -1.3801
  555MOL0     H74878   2.491   0.076   2.463 -0.4241 -0.2590  0.3011
  555MOL0     H74879   2.744   0.142   2.624  1.9647  3.7220 -0.6853
  555MOL0     H74880   2.635   0.242   2.531 -0.8158 -0.1336  0.9626
  555MOL0     H74881   2.718   0.138   2.314 -1.8377  0.6044  0.7840
  555MOL0     H74882   2.789   0.010   2.415 -1.4745 -0.6036  0.2925
  555MOL0     H74883   2.977   0.103   2.416 -0.1868 -1.1283  1.6245
  555MOL0     H74884   2.918   0.244   2.509 -1.8876 -0.5461  0.5021
  555MOL0     H74885   3.187   0.182   2.398 -2.0059 -0.3097  2.7623
  555MOL0     H74886   3.463   0.234   2.341 -4.2310  0.9430 -3.0076
  555MOL0     H74887   3.490   0.353   2.479  0.4656 -1.4295  0.2450
  555MOL0     H74888   3.409   0.203   2.501 -0.5330 -0.1826 -0.1507
  555MOL0     H74889   3.516   0.929   2.447  0.0427 -0.3176 -0.8207
  555MOL0     H74890   3.673   1.092   2.276 -0.1236  0.1343 -3.5975
  555MOL0     H74891   3.894   1.039   1.990 -1.3160  2.1366  0.1272
  555MOL0     H74892   3.780   0.908   1.926  0.5083 -0.8032 -0.0583
  555MOL0     H74893   3.808   1.190   1.845 -2.8543 -0.6480  2.2443
  555MOL0     H74894   3.871   1.059   1.737 -2.6579 -0.4376 -2.7782
  555MOL0     H74895   3.582   1.131   1.806 -0.4426 -2.4374  1.9553
  555MOL0     H74896   3.626   0.983   1.713 -2.3637  0.5783 -2.4577
  555MOL0     H74897   3.679   1.265   1.614  1.9079  0.0999  0.4106
  555MOL0     H74898   3.746   1.111   1.545  0.8559  2.0979  0.2559
  555MOL0     H74899   3.538   1.016   1.501  0.6450 -0.2225  0.7174
  555MOL0     H74900   3.564   1.151   1.399  0.4003 -3.5382 -1.7818
  555MOL0     H74901   3.393   1.195   1.656 -0.2970  2.1873 -0.6170
  555MOL0     H74902   3.425   1.311   1.521  1.0117 -0.8398 -1.8268
  555MOL0     H74903   3.267   1.073   1.478  1.2967 -0.4124 -0.2641
  555MOL0     H74904   3.334   1.185   1.357  0.5712 -0.5441  0.5672
  555MOL0     H74905   3.152   1.262   1.585  0.2306 -2.3581 -0.5021
  555MOL0     H74906   3.092   1.223   1.425 -2.9609  1.1680  3.7256
  555MOL0     H74907   3.554   0.865   1.959 -2.9021  2.9012 -0.4678
  555MOL0     H74908   3.441   0.699   2.097  1.2264  0.3036 -0.8246
  555MOL0     H74909   3.163   0.676   2.306  5.1361  0.5341 -1.6410
  555MOL0     H74910   2.946   0.523   2.290 -0.9885 -1.0056  0.8065
  555MOL0     H74911   2.298   0.785   3.762  3.8371  2.0095 -0.5199
  555MOL0     H74912   2.224   0.979   3.851 -2.0861 -0.2749  0.6219
  555MOL0     H74913   1.665   1.199   3.597  0.7334 -0.2515  3.5391
  555MOL0     H74914   1.560   1.416   3.576  0.5870 -0.4000 -0.3179
  555MOL0     H74915   1.511   1.769   3.602 -2.6100  0.2163  1.6170
  555MOL0     H74916   1.476   1.605   3.583  0.7782  0.0086 -1.3884
  555MOL0     H74917   1.389   1.711   3.784  0.3326 -1.3202 -0.4736
  555MOL0     H74918   1.559   1.720   3.856  1.6091  0.0929 -1.2382
  555MOL0     H74919   1.578   1.479   3.855 -1.0380 -3.4138 -0.2219
  555MOL0     H74920   1.448   1.448   3.762 -1.8318  1.0808 -1.0890
  555MOL0     H74921   1.301   1.525   3.965 -0.6746  0.2794  2.8030
  555MOL0     H74922   1.458   1.572   4.057  0.7442  0.0185  1.0727
  555MOL0     H74923   1.404   1.157   4.091 -0.4879  0.0569  0.4020
  555MOL0     H74924   1.914   1.617   3.683 -1.0822  0.3392 -1.5105
  555MOL0     H74925   2.030   1.394   3.696 -0.3123 -1.5885 -2.5343
  556MOL0     O74926   4.668   8.805  10.003  1.2295  0.5597 -0.6089
  556MOL0     C74927   4.708   8.821  10.119  0.5561  0.9245  0.0976
  556MOL0     O74928   4.797   8.921  10.157 -0.5730  0.5510 -0.4140
  556MOL0     C74929   4.824   9.031  10.077  0.7128  0.6960 -0.6694
  556MOL0     C74930   4.750   9.076   9.967  0.1246  0.1266  0.4901
  556MOL0     C74931   4.800   9.185   9.887  0.8601 -0.2476 -0.0086
  556MOL0     C74932   4.926   9.242   9.912  1.3186  0.9938 -0.3304
  556MOL0     O74933   4.977   9.349   9.844 -0.7245 -0.3644  0.3531
  556MOL0     C74934   4.882   9.452   9.797  0.4043  0.3609 -0.0311
  556MOL0     C74935   4.950   9.583   9.741 -0.3663  0.7642 -0.3132
  556MOL0     C74936   5.059   9.643   9.823 -0.4252 -0.2764  1.0222
  556MOL0     C74937   5.020   9.660   9.968 -1.0561 -0.3080  0.2507
  556MOL0     C74938   5.115   9.766  10.034  0.1742  0.8284 -0.0285
  556MOL0     C74939   5.267   9.745   9.991  0.1854  0.5188 -0.0765
  556MOL0     C74940   5.352   9.830  10.079 -0.2087 -0.0879 -0.0929
  556MOL0     C74941   5.503   9.801  10.047  0.0975 -0.1068  0.5674
  556MOL0     N74942   5.573   9.922  10.087 -0.1149 -0.1332 -0.1967
  556MOL0     C74943   5.547  10.051  10.040 -0.2111  0.5183 -0.3236
  556MOL0     C74944   5.627  10.131  10.110 -0.6018  0.2452  0.4687
  556MOL0     C74945   5.627  10.278  10.080 -0.3520  0.7207  0.7538
  556MOL0     C74946   5.527  10.352  10.178  0.2167 -0.1796  0.3872
  556MOL0     C74947   5.418  10.270  10.238  1.4824 -0.3782  0.3717
  556MOL0     C74948   5.384  10.317  10.374  0.3429 -0.4344 -0.8619
  556MOL0     O74949   5.260  10.262  10.420 -0.2475  0.5230  0.4881
  556MOL0     C74950   5.218  10.298  10.548  0.5120 -0.0796 -0.1287
  556MOL0     C74951   5.107  10.236  10.610  1.0142 -1.0887  0.2209
  556MOL0     C74952   5.061  10.260  10.744 -0.8751  0.0769 -0.0344
  556MOL0     C74953   4.960  10.164  10.808 -0.2342 -0.4759 -0.0691
  556MOL0     C74954   5.149  10.354  10.824  0.8481  0.1482  0.6805
  556MOL0     C74955   5.121  10.385  10.970 -0.0325  0.6607 -0.0197
  556MOL0     O74956   5.239  10.393  11.043 -0.3952  0.6675  0.3298
  556MOL0     C74957   5.242  10.448  11.168 -0.0118 -0.4036  0.2990
  556MOL0     C74958   5.177  10.384  11.276  0.8239 -0.5825 -0.4995
  556MOL0     C74959   5.176  10.443  11.404  0.2488 -0.2268 -0.1011
  556MOL0     C74960   5.241  10.563  11.427  0.2733  0.5052 -0.0167
  556MOL0     O74961   5.227  10.581  11.558  0.3774 -0.0977 -0.5264
  556MOL0     C74962   5.283  10.702  11.605 -0.5775  0.2382  0.0283
  556MOL0     C74963   5.270  10.694  11.754  0.1408 -0.5956 -0.0190
  556MOL0     C74964   5.323  10.822  11.823 -0.1225  0.9725  1.0098
  556MOL0     C74965   5.343  10.796  11.973  1.3455  0.5091  0.1244
  556MOL0     C74966   5.388  10.923  12.036 -0.0840 -0.1126  0.2377
  556MOL0     C74967   5.367  10.911  12.186 -1.4098  0.7286  0.0776
  556MOL0     C74968   5.387  11.059  12.251 -0.1052  0.7013 -0.4748
  556MOL0     C74969   5.240  11.115  12.284  0.4450 -0.0542 -0.0904
  556MOL0    Cl74970   5.163  11.012  12.413 -0.1004 -0.0590  0.2200
  556MOL0     C74971   5.302  10.624  11.318  0.3278  0.3148 -0.8802
  556MOL0     C74972   5.300  10.571  11.193  0.3501 -0.0522  0.0511
  556MOL0     O74973   5.007  10.409  11.006  0.0160  0.6094  0.1724
  556MOL0     C74974   5.249  10.418  10.756 -0.0871 -0.3304 -1.3061
  556MOL0     C74975   5.281  10.386  10.623  0.0202  0.2593 -0.4705
  556MOL0     N74976   5.684  10.055  10.207  0.9797 -0.7292 -0.3353
  556MOL0     N74977   5.651   9.929  10.196  0.6530  0.2825  0.5468
  556MOL0     C74978   4.978   9.209  10.035 -0.1156 -0.1127  0.5385
  556MOL0     C74979   4.940   9.100  10.112 -0.6215  0.3681  1.0016
  556MOL0     C74980   4.670   8.715  10.214  0.1238  1.1239 -0.6822
  556MOL0     C74981   4.727   8.731  10.344 -0.7657  0.0742  0.0203
  556MOL0     C74982   4.702   8.637  10.439  0.4748  0.8756  0.3954
  556MOL0     C74983   4.638   8.510  10.410 -0.0374  0.0501  0.5792
  556MOL0     O74984   4.645   8.395  10.487  0.0758  0.1360 -0.1039
  556MOL0     C74985   4.752   8.383  10.586  0.1928 -0.3396  0.2030
  556MOL0     C74986   4.701   8.443  10.723 -0.1442  0.1177 -0.0421
  556MOL0     C74987   4.824   8.435  10.826 -0.0339  0.5835  0.1632
  556MOL0     C74988   4.869   8.286  10.855 -0.8018 -0.0450  0.3712
  556MOL0     C74989   4.972   8.238  10.772 -0.3335 -0.0583 -0.3975
  556MOL0     C74990   5.051   8.191  10.706 -0.2596  0.3549  0.7104
  556MOL0     C74991   4.585   8.501  10.282  0.0941 -0.6813  0.5858
  556MOL0     C74992   4.592   8.602  10.191  0.5745  0.4004 -0.2611
  556MOL0     H74993   4.651   9.035   9.949  0.5809  0.1577 -2.7472
  556MOL0     H74994   4.739   9.223   9.805  3.0623  2.5228 -0.5071
  556MOL0     H74995   4.809   9.409   9.727 -1.4020  0.5169  1.6809
  556MOL0     H74996   4.818   9.478   9.881 -0.9129  0.5120 -1.0487
  556MOL0     H74997   4.985   9.561   9.640  1.4328 -1.2960  0.7024
  556MOL0     H74998   4.868   9.655   9.733 -1.1307 -0.2150 -1.7040
  556MOL0     H74999   5.147   9.581   9.806  0.8622  1.6747  0.2349
  556MOL0     H75000   5.082   9.734   9.768 -0.2654 -0.8184  0.1711
  556MOL0     H75001   4.915   9.683   9.990 -0.8618 -0.6529  1.6466
  556MOL0     H75002   5.043   9.561  10.007 -0.5780  0.6636  2.6293
  556MOL0     H75003   5.084   9.866  10.003 -0.2748  0.5563 -0.4999
  556MOL0     H75004   5.099   9.755  10.141  3.2834  1.2216  0.5680
  556MOL0     H75005   5.283   9.639  10.011  1.6188  1.0822  2.1236
  556MOL0     H75006   5.299   9.762   9.888 -1.0146 -1.2149 -0.7817
  556MOL0     H75007   5.327   9.936  10.074  3.3157  0.8799  0.0535
  556MOL0     H75008   5.335   9.805  10.184 -0.8912 -0.3518 -0.2619
  556MOL0     H75009   5.521   9.791   9.940 -1.4658  2.6857 -0.0641
  556MOL0     H75010   5.548   9.710  10.088 -1.7494 -3.2195 -3.5354
  556MOL0     H75011   5.483  10.092   9.962  0.8604 -0.8859 -2.0070
  556MOL0     H75012   5.725  10.319  10.105 -2.5709  6.7976  1.1398
  556MOL0     H75013   5.584  10.296   9.981 -1.8719 -0.0101  1.2522
  556MOL0     H75014   5.488  10.437  10.121  2.0288 -0.5377 -1.5326
  556MOL0     H75015   5.598  10.386  10.254 -1.8695  0.2192  2.2272
  556MOL0     H75016   5.437  10.163  10.252 -1.8520 -0.8854  2.1272
  556MOL0     H75017   5.330  10.268  10.172 -0.1593 -1.2405  2.4414
  556MOL0     H75018   5.364  10.425  10.371  0.3544 -0.2981  1.8820
  556MOL0     H75019   5.470  10.298  10.438  0.0180 -1.8302 -0.8108
  556MOL0     H75020   5.056  10.166  10.545 -1.4621 -0.2452  1.1601
  556MOL0     H75021   4.959  10.172  10.917  1.4884 -6.0036  0.6607
  556MOL0     H75022   4.863  10.170  10.758  0.0571 -1.0818 -0.7183
  556MOL0     H75023   4.992  10.061  10.793 -0.2840 -0.6984  1.2662
  556MOL0     H75024   5.120  10.292  11.274  0.3928 -0.3516  0.5246
  556MOL0     H75025   5.119  10.393  11.482 -2.0594  1.3677 -0.6688
  556MOL0     H75026   5.387  10.726  11.580 -1.1484  2.6586 -0.3068
  556MOL0     H75027   5.227  10.784  11.560 -0.5743  0.3309  0.1924
  556MOL0     H75028   5.166  10.677  11.785 -0.1364  1.4760  0.3034
  556MOL0     H75029   5.331  10.612  11.793  0.2272 -0.0495  1.0217
  556MOL0     H75030   5.257  10.910  11.816 -0.7199  0.6170  2.0323
  556MOL0     H75031   5.423  10.850  11.789  0.5999 -2.9443 -0.6519
  556MOL0     H75032   5.246  10.759  12.005 -0.7244  1.0594 -4.6162
  556MOL0     H75033   5.421  10.721  11.993 -0.0307 -0.5908  1.6203
  556MOL0     H75034   5.337  11.010  11.995  4.1591  2.1818 -0.7542
  556MOL0     H75035   5.493  10.932  12.007  0.1691 -3.1612 -0.1477
  556MOL0     H75036   5.279  10.852  12.214  0.0825 -1.7395 -0.1551
  556MOL0     H75037   5.448  10.850  12.225  0.3372  0.3093 -3.7827
  556MOL0     H75038   5.442  11.132  12.190  0.3659  1.4244  0.7876
  556MOL0     H75039   5.452  11.054  12.338 -1.0789 -0.3552  0.2073
  556MOL0     H75040   5.182  11.116  12.192  1.8111  1.0088 -0.9926
  556MOL0     H75041   5.250  11.214  12.330  2.5441 -0.6840  0.9562
  556MOL0     H75042   5.355  10.717  11.336 -0.6290  0.6735  0.2043
  556MOL0     H75043   5.359  10.619  11.115  1.7246  0.5475  1.4225
  556MOL0     H75044   5.323  10.485  10.798 -1.1826  0.0733  0.0544
  556MOL0     H75045   5.360  10.447  10.581  1.0439  1.1497  2.4885
  556MOL0     H75046   5.062   9.262  10.080  0.3188 -2.1708  2.3563
  556MOL0     H75047   5.001   9.081  10.199 -0.3348 -2.3747  0.2975
  556MOL0     H75048   4.786   8.819  10.368 -1.1406 -0.0826  1.6196
  556MOL0     H75049   4.741   8.659  10.538 -0.8940  3.6019  0.4184
  556MOL0     H75050   4.773   8.278  10.612  0.4512  0.4913  3.8603
  556MOL0     H75051   4.842   8.417  10.533 -1.0112  2.4443 -0.2305
  556MOL0     H75052   4.609   8.388  10.748 -0.2599  1.0869  1.8352
  556MOL0     H75053   4.675   8.549  10.724  0.4478  0.2830  1.4665
  556MOL0     H75054   4.778   8.468  10.920  1.4607 -0.5488  1.3534
  556MOL0     H75055   4.901   8.502  10.788 -0.4809  1.4679  0.7803
  556MOL0     H75056   4.794   8.207  10.851  1.4586 -2.4796  2.3723
  556MOL0     H75057   4.909   8.279  10.957 -1.9764  2.1359  1.0434
  556MOL0     H75058   5.112   8.137  10.636  0.5550  4.1443 -1.7538
  556MOL0     H75059   4.543   8.407  10.249 -0.7879 -0.1144  0.0562
  556MOL0     H75060   4.555   8.593  10.089  0.2653  0.0630 -0.1224
  557MOL0     O75061   2.430   7.519   3.010  0.6936 -0.6596 -0.1914
  557MOL0     C75062   2.316   7.469   3.034  0.0596  0.1609 -0.2546
  557MOL0     O75063   2.292   7.339   3.074 -0.0827 -0.1714  0.3068
  557MOL0     C75064   2.396   7.248   3.073  0.2717 -1.3388 -0.1009
  557MOL0     C75065   2.389   7.145   2.973  0.5321 -0.1146 -0.5325
  557MOL0     C75066   2.494   7.059   2.968 -0.2200 -0.2194 -0.4490
  557MOL0     C75067   2.602   7.057   3.054 -0.9899  0.0248  0.1946
  557MOL0     O75068   2.688   6.961   3.033  0.0573 -0.1588 -0.1747
  557MOL0     C75069   2.728   6.894   3.150  0.7769  0.2125  0.7545
  557MOL0     C75070   2.775   6.751   3.101  0.5886 -0.0640  0.0118
  557MOL0     C75071   2.848   6.679   3.215 -0.3347  0.2324  0.3201
  557MOL0     C75072   2.951   6.577   3.156  0.0754  0.3525 -1.5487
  557MOL0     C75073   3.011   6.484   3.279  0.5754 -0.4226  0.6185
  557MOL0     C75074   2.898   6.394   3.336  0.3380  0.8036  0.2229
  557MOL0     C75075   2.959   6.264   3.394  0.0027 -0.0718  0.0015
  557MOL0     C75076   2.980   6.148   3.292  0.6054 -0.2333  0.0083
  557MOL0     N75077   2.858   6.071   3.260 -0.3589 -0.1366 -0.0212
  557MOL0     C75078   2.824   6.043   3.125 -0.7059  0.5255  0.3614
  557MOL0     C75079   2.714   5.965   3.139 -0.2200  0.6183  0.2409
  557MOL0     C75080   2.653   5.896   3.021 -0.0523  0.3036  0.0332
  557MOL0     C75081   2.745   5.778   2.981  0.6209  0.0281  0.2988
  557MOL0     C75082   2.729   5.729   2.833 -0.7637 -0.9361 -0.5096
  557MOL0     C75083   2.594   5.678   2.799  0.3849 -0.0118  0.0919
  557MOL0     O75084   2.539   5.599   2.901  0.3433  0.9667 -0.1383
  557MOL0     C75085   2.407   5.574   2.904 -0.1323  1.0912  0.1471
  557MOL0     C75086   2.333   5.571   2.792 -0.1518  0.2427  0.0743
  557MOL0     C75087   2.197   5.544   2.794  0.5737 -0.1906  0.6008
  557MOL0     C75088   2.130   5.514   2.660 -0.4171  0.3596  0.1758
  557MOL0     C75089   2.145   5.507   2.922 -0.2636  0.3009 -0.2765
  557MOL0     C75090   1.998   5.477   2.943  0.0984 -0.2011 -0.5277
  557MOL0     O75091   1.964   5.428   3.071 -0.3681  0.3831 -0.1221
  557MOL0     C75092   1.841   5.375   3.100  0.2423  0.1153 -0.6855
  557MOL0     C75093   1.787   5.418   3.220 -0.2740  0.1389  0.3154
  557MOL0     C75094   1.658   5.366   3.253 -0.0901 -0.8610 -0.1519
  557MOL0     C75095   1.587   5.285   3.161  0.3250  0.1881  0.3011
  557MOL0     O75096   1.461   5.233   3.194 -0.3827 -0.3882 -0.1340
  557MOL0     C75097   1.478   5.129   3.297 -0.5136  0.3994 -0.1222
  557MOL0     C75098   1.356   5.095   3.372  0.0026  0.0962  0.3202
  557MOL0     C75099   1.382   5.016   3.499  0.3992  0.3083 -1.0608
  557MOL0     C75100   1.245   4.955   3.551 -0.2574 -0.4238 -0.5637
  557MOL0     C75101   1.177   4.855   3.463 -0.0188  0.3450  0.4273
  557MOL0     C75102   1.275   4.754   3.395  0.1163 -1.1301  0.4424
  557MOL0     C75103   1.195   4.659   3.306  0.5024 -0.5668  0.2251
  557MOL0     C75104   1.290   4.608   3.191  0.7019 -0.2105 -0.4889
  557MOL0    Cl75105   1.324   4.730   3.063  0.3953 -0.2404 -0.2665
  557MOL0     C75106   1.643   5.253   3.035  1.3974 -0.3516 -0.1842
  557MOL0     C75107   1.774   5.296   3.007  0.1852  1.1560 -0.0402
  557MOL0     O75108   1.908   5.498   2.855 -0.9845  0.6524  0.6283
  557MOL0     C75109   2.228   5.490   3.040 -0.5591  0.1741  1.4883
  557MOL0     C75110   2.356   5.538   3.027  0.1157 -0.0517  0.2171
  557MOL0     N75111   2.677   5.955   3.272  0.2353  0.4847  0.5573
  557MOL0     N75112   2.762   6.022   3.346 -0.0180  1.0312  0.2790
  557MOL0     C75113   2.605   7.153   3.157  1.0773 -1.0208  0.0024
  557MOL0     C75114   2.507   7.260   3.160  0.1625 -0.0392  0.6884
  557MOL0     C75115   2.207   7.565   3.048 -0.1556  0.6431 -0.1490
  557MOL0     C75116   2.208   7.694   2.985 -0.0974  0.8710  0.5143
  557MOL0     C75117   2.101   7.782   2.990  0.4055 -0.3908  0.5228
  557MOL0     C75118   1.977   7.738   3.041  0.1948 -0.2869  0.0583
  557MOL0     O75119   1.866   7.823   3.040 -0.1413  0.7082  0.5297
  557MOL0     C75120   1.857   7.931   2.946  1.4153 -0.5531 -0.6453
  557MOL0     C75121   1.712   7.997   2.946  0.0282 -0.5812  1.2873
  557MOL0     C75122   1.700   8.135   2.874  0.5769 -0.0204 -0.6746
  557MOL0     C75123   1.552   8.189   2.894  1.2177 -0.2441  0.0842
  557MOL0     C75124   1.439   8.095   2.887 -0.6852  0.3785 -0.1466
  557MOL0     C75125   1.349   8.012   2.894  0.3709  0.1420 -0.1903
  557MOL0     C75126   1.976   7.614   3.113 -0.2414  0.8154 -0.4814
  557MOL0     C75127   2.091   7.536   3.120 -0.7661 -0.3670  0.3158
  557MOL0     H75128   2.320   7.163   2.892  0.7879 -1.6560 -1.1299
  557MOL0     H75129   2.498   6.997   2.878  1.9303 -0.0375 -0.5328
  557MOL0     H75130   2.809   6.953   3.193  0.4299  2.9120 -1.9127
  557MOL0     H75131   2.636   6.886   3.208  0.6170 -2.5669  0.2200
  557MOL0     H75132   2.691   6.697   3.057  0.6548  3.3083 -5.1991
  557MOL0     H75133   2.847   6.770   3.021  0.9240 -0.2489  0.2679
  557MOL0     H75134   2.904   6.752   3.275 -1.1110  1.2776 -0.1950
  557MOL0     H75135   2.770   6.639   3.281  1.4748 -1.3389  1.6313
  557MOL0     H75136   2.913   6.515   3.075  0.5803 -2.3104  0.1244
  557MOL0     H75137   3.023   6.630   3.094  0.9742  3.4224  1.7799
  557MOL0     H75138   3.091   6.422   3.239 -1.1352 -2.9777  0.9469
  557MOL0     H75139   3.051   6.553   3.354 -0.9960  1.0445  0.1736
  557MOL0     H75140   2.858   6.443   3.425 -1.5163  0.1044 -0.1797
  557MOL0     H75141   2.825   6.378   3.256 -1.1003  4.1414  0.6995
  557MOL0     H75142   3.060   6.296   3.422 -0.1712  1.1232 -0.6872
  557MOL0     H75143   2.899   6.238   3.482  1.1885  0.9065  1.1421
  557MOL0     H75144   3.061   6.080   3.321  1.9420  0.4711 -1.8036
  557MOL0     H75145   3.022   6.200   3.205  3.7034  2.4746  2.8462
  557MOL0     H75146   2.876   6.085   3.039 -2.5449  2.8110  0.2528
  557MOL0     H75147   2.557   5.852   3.048  2.1766 -3.4688  2.8551
  557MOL0     H75148   2.646   5.957   2.931  0.4727 -2.4368 -1.9992
  557MOL0     H75149   2.734   5.694   3.050  1.1047 -0.0472  0.2859
  557MOL0     H75150   2.849   5.812   2.989  0.3948  2.4665 -3.9378
  557MOL0     H75151   2.789   5.638   2.828 -1.4720 -1.4654  0.3009
  557MOL0     H75152   2.767   5.801   2.761  1.2498  1.1789  2.4595
  557MOL0     H75153   2.601   5.617   2.709 -2.0208  1.0526 -0.9237
  557MOL0     H75154   2.522   5.757   2.777  0.3232 -0.5385 -1.7257
  557MOL0     H75155   2.363   5.597   2.691 -0.2386 -2.6324 -0.7858
  557MOL0     H75156   2.031   5.561   2.658 -1.0399 -0.5973  2.9977
  557MOL0     H75157   2.180   5.529   2.564 -0.1998 -0.1019  0.2136
  557MOL0     H75158   2.110   5.408   2.678  0.5832  0.5361  2.7866
  557MOL0     H75159   1.830   5.491   3.288 -1.4620  0.4235  0.7928
  557MOL0     H75160   1.593   5.388   3.337 -0.4475 -0.2192 -0.5918
  557MOL0     H75161   1.524   5.038   3.259  1.7150 -0.1842  3.4440
  557MOL0     H75162   1.538   5.173   3.378  3.3187 -3.3037 -0.6070
  557MOL0     H75163   1.302   5.188   3.391 -0.1755  0.0173  0.2001
  557MOL0     H75164   1.303   5.039   3.294  0.1073  0.9235 -0.3577
  557MOL0     H75165   1.425   5.084   3.574 -0.9373  0.4572 -0.4020
  557MOL0     H75166   1.441   4.925   3.486  0.3191  0.0100  0.4400
  557MOL0     H75167   1.267   4.921   3.652 -1.0806  0.8405  0.0670
  557MOL0     H75168   1.176   5.038   3.570  0.9051 -0.0085  2.1844
  557MOL0     H75169   1.118   4.893   3.379  2.2837 -1.5701 -2.2962
  557MOL0     H75170   1.112   4.791   3.523  1.9163 -2.6587 -0.4387
  557MOL0     H75171   1.343   4.803   3.325  0.5468 -1.4026  0.6644
  557MOL0     H75172   1.341   4.704   3.466  0.6483  0.3191  1.0030
  557MOL0     H75173   1.110   4.712   3.264 -0.1876 -1.1089  0.9112
  557MOL0     H75174   1.163   4.575   3.368  2.3843 -2.2050 -0.9052
  557MOL0     H75175   1.261   4.513   3.145  1.7667  0.2158 -2.1278
  557MOL0     H75176   1.389   4.585   3.231  1.1685  0.5430 -1.1767
  557MOL0     H75177   1.598   5.170   2.981 -0.6818 -0.7372  1.9529
  557MOL0     H75178   1.822   5.262   2.916 -1.1103 -0.0144 -0.3228
  557MOL0     H75179   2.190   5.444   3.131 -0.9916  0.2164  1.3272
  557MOL0     H75180   2.427   5.530   3.109  0.1599 -1.0103  0.1008
  557MOL0     H75181   2.683   7.157   3.233  0.2250 -3.7239  1.1470
  557MOL0     H75182   2.505   7.338   3.235 -0.1028  2.3887 -1.6819
  557MOL0     H75183   2.298   7.727   2.935  1.7334  1.3620  3.8683
  557MOL0     H75184   2.122   7.885   2.963  0.8115  0.1566  2.7528
  557MOL0     H75185   1.927   8.008   2.979 -0.4463  0.7438  0.5011
  557MOL0     H75186   1.882   7.905   2.843  0.9985 -1.0509 -0.6250
  557MOL0     H75187   1.680   8.004   3.050 -0.6866  1.4431  0.9758
  557MOL0     H75188   1.652   7.923   2.891  1.8067 -2.3924  1.6708
  557MOL0     H75189   1.707   8.118   2.766 -4.3958  0.4821 -1.3366
  557MOL0     H75190   1.767   8.215   2.905  0.3340 -0.2161  0.3949
  557MOL0     H75191   1.527   8.256   2.811 -0.9675 -0.2868  0.6493
  557MOL0     H75192   1.542   8.246   2.987 -3.7105 -1.0650  0.3176
  557MOL0     H75193   1.275   7.937   2.913  0.7021 -0.4088 -0.9998
  557MOL0     H75194   1.885   7.595   3.169 -0.0320  0.7453 -0.1614
  557MOL0     H75195   2.089   7.450   3.187 -1.0422 -1.2388 -0.7746
  558MOL0     O75196  10.429   3.310   1.932 -0.0925 -0.0973  0.0568
  558MOL0     C75197  10.311   3.345   1.920 -0.0919  0.1256  0.9664
  558MOL0     O75198  10.261   3.452   1.849 -0.4521 -0.2672 -0.6524
  558MOL0     C75199  10.348   3.535   1.770  0.0063 -0.5803  0.5355
  558MOL0     C75200  10.467   3.504   1.708 -0.5438  0.7041  0.9483
  558MOL0     C75201  10.539   3.597   1.634  0.0872  1.2649  0.3337
  558MOL0     C75202  10.499   3.729   1.630  0.7871 -0.1584  0.7128
  558MOL0     O75203  10.559   3.836   1.563 -0.1758 -0.5979 -0.5038
  558MOL0     C75204  10.661   3.803   1.473 -0.1898 -1.1351 -0.7201
  558MOL0     C75205  10.727   3.933   1.412  0.4880  0.0618 -0.0578
  558MOL0     C75206  10.822   3.885   1.304  0.3635  0.0769 -0.0544
  558MOL0     C75207  10.770   3.812   1.183  0.1349 -0.0640  0.4156
  558MOL0     C75208  10.867   3.814   1.074 -0.8872 -0.0407 -0.0255
  558MOL0     C75209  10.815   3.765   0.937  0.6892  0.3315  0.1822
  558MOL0     C75210  10.922   3.784   0.825 -0.1837  0.8557 -0.7012
  558MOL0     C75211  11.065   3.736   0.867  0.1553 -0.2808 -0.0821
  558MOL0     N75212  11.145   3.700   0.750 -0.1686 -0.3639  1.0205
  558MOL0     C75213  11.226   3.792   0.691 -0.1140 -0.4834  0.9779
  558MOL0     C75214  11.266   3.727   0.577  0.9478  0.6853  0.0406
  558MOL0     C75215  11.345   3.786   0.461 -0.4370  0.3709  0.4828
  558MOL0     C75216  11.482   3.724   0.440 -0.6015  0.4610 -0.1186
  558MOL0     C75217  11.577   3.795   0.534 -0.6283  0.2363 -0.7193
  558MOL0     C75218  11.725   3.758   0.505  0.0335  0.1218 -0.2665
  558MOL0     O75219  11.764   3.801   0.379 -0.4898  0.3095  0.0774
  558MOL0     C75220  11.899   3.829   0.357  0.8423 -0.7097 -0.9206
  558MOL0     C75221  12.000   3.774   0.425  0.2553 -0.3447  0.3532
  558MOL0     C75222  12.132   3.816   0.421  0.4056 -0.4286  0.3146
  558MOL0     C75223  12.219   3.749   0.518 -0.8088  0.0878 -0.3972
  558MOL0     C75224  12.162   3.914   0.333  0.0601  0.1004  0.1502
  558MOL0     C75225  12.294   3.954   0.303 -0.6638 -0.1846 -0.7317
  558MOL0     O75226  12.325   3.964   0.176 -0.1713  0.1837 -0.4095
  558MOL0     C75227  12.449   3.978   0.130  0.1123 -0.7218 -0.4898
  558MOL0     C75228  12.451   4.015  -0.001  0.2594 -0.0611 -0.5546
  558MOL0     C75229  12.570   4.042  -0.074 -0.7386  0.4156 -0.0229
  558MOL0     C75230  12.698   4.020  -0.014  0.8390 -0.5153 -0.3576
  558MOL0     O75231  12.819   4.045  -0.058  0.3832  0.1924  0.5644
  558MOL0     C75232  12.840   4.048  -0.197 -0.0843 -0.5527 -0.1566
  558MOL0     C75233  12.982   4.087  -0.232  1.2505  0.4171  0.2188
  558MOL0     C75234  13.052   4.197  -0.165 -0.4990  0.8595  0.0842
  558MOL0     C75235  12.993   4.335  -0.216 -0.8336 -0.5121  0.7941
  558MOL0     C75236  12.976   4.427  -0.100 -0.1522  1.0651 -1.1104
  558MOL0     C75237  12.954   4.567  -0.141  1.0378  0.3907 -0.2905
  558MOL0     C75238  12.938   4.667  -0.032 -0.4659  0.1552 -0.3593
  558MOL0     C75239  12.808   4.642   0.047  0.7583 -0.3641  0.8367
  558MOL0    Cl75240  12.658   4.695  -0.040 -0.0140  0.1849  0.1533
  558MOL0     C75241  12.693   3.979   0.124 -0.7896 -0.0721  0.9607
  558MOL0     C75242  12.570   3.957   0.192 -0.6552 -0.4827 -0.2925
  558MOL0     O75243  12.375   3.979   0.399 -0.0634 -0.5274  0.4951
  558MOL0     C75244  12.061   3.974   0.247 -0.2362  0.4475 -0.7887
  558MOL0     C75245  11.930   3.928   0.260 -0.0415  0.2077  0.2743
  558MOL0     N75246  11.201   3.609   0.564  0.3652  0.3110  0.0805
  558MOL0     N75247  11.136   3.584   0.672 -0.2530 -0.6858  0.0331
  558MOL0     C75248  10.388   3.764   1.690  0.5085  1.0201 -1.7068
  558MOL0     C75249  10.314   3.670   1.759  0.1648 -0.1613  0.5620
  558MOL0     C75250  10.211   3.253   1.987  0.5000 -0.7909 -0.3798
  558MOL0     C75251  10.071   3.269   1.976  0.4171 -0.4537 -0.0342
  558MOL0     C75252   9.977   3.183   2.032  0.6138  0.2432  0.4953
  558MOL0     C75253  10.024   3.069   2.110 -0.0365  0.1597 -0.3402
  558MOL0     O75254   9.958   2.966   2.168 -0.2482 -0.4527 -0.7785
  558MOL0     C75255   9.821   2.945   2.124  0.0556 -0.5897 -0.5374
  558MOL0     C75256   9.748   2.839   2.211  0.4457 -0.3539 -0.8720
  558MOL0     C75257   9.683   2.877   2.348  0.2670 -0.9337 -1.0581
  558MOL0     C75258   9.635   2.745   2.421  0.6413 -0.6145 -0.2416
  558MOL0     C75259   9.531   2.653   2.350  0.0718 -0.4266 -0.5755
  558MOL0     C75260   9.452   2.584   2.287  0.4993  0.3505 -0.0742
  558MOL0     C75261  10.162   3.065   2.129  0.7141  0.4356 -0.7614
  558MOL0     C75262  10.252   3.145   2.066  0.2474  0.6653 -0.0686
  558MOL0     H75263  10.511   3.406   1.712  2.3191  1.9129  1.0943
  558MOL0     H75264  10.629   3.553   1.592 -0.9885 -2.3087  1.4033
  558MOL0     H75265  10.748   3.760   1.525  0.6449  0.0696 -1.0819
  558MOL0     H75266  10.621   3.728   1.405  0.2710 -2.4365  0.3818
  558MOL0     H75267  10.653   4.010   1.386  0.9322  2.1409  4.0775
  558MOL0     H75268  10.791   3.986   1.483 -0.1679  1.5633 -0.5412
  558MOL0     H75269  10.884   3.970   1.273 -1.4643  1.3194 -0.4867
  558MOL0     H75270  10.886   3.813   1.356  1.3783  2.2916  1.9690
  558MOL0     H75271  10.732   3.713   1.209  0.1792  0.6669  3.6292
  558MOL0     H75272  10.686   3.865   1.137  0.6250  0.3251 -0.0420
  558MOL0     H75273  10.884   3.921   1.059 -4.0655  0.5021 -0.4689
  558MOL0     H75274  10.953   3.753   1.104  0.1224  0.2889 -2.0788
  558MOL0     H75275  10.781   3.661   0.946 -1.0024  0.7691 -0.7344
  558MOL0     H75276  10.715   3.804   0.916 -0.0373  1.0139  4.0834
  558MOL0     H75277  10.891   3.732   0.734  0.6065  0.0922 -0.5520
  558MOL0     H75278  10.925   3.887   0.788  2.0830  0.5375 -1.5847
  558MOL0     H75279  11.051   3.653   0.938 -2.0639  1.0993  1.2107
  558MOL0     H75280  11.118   3.812   0.926 -0.8735  0.1683  0.2821
  558MOL0     H75281  11.254   3.893   0.717 -4.0459  0.7502  1.0273
  558MOL0     H75282  11.273   3.767   0.381 -2.2669 -2.0894  2.5346
  558MOL0     H75283  11.349   3.895   0.472  0.6973  0.2365  1.8222
  558MOL0     H75284  11.529   3.729   0.341  2.4470 -0.7212  1.1459
  558MOL0     H75285  11.471   3.617   0.459 -0.2813  0.9011  3.0811
  558MOL0     H75286  11.551   3.762   0.635  0.8514  0.7470 -0.1531
  558MOL0     H75287  11.567   3.904   0.538 -3.5200  0.0066  0.3889
  558MOL0     H75288  11.748   3.652   0.519  1.8893  0.4910 -0.3209
  558MOL0     H75289  11.780   3.796   0.591 -1.4894  1.2090  0.2678
  558MOL0     H75290  11.983   3.693   0.496  0.0402  0.1588  0.8813
  558MOL0     H75291  12.168   3.753   0.615  1.2357 -1.1505  0.8256
  558MOL0     H75292  12.242   3.647   0.485  3.3721  0.9343 -0.6285
  558MOL0     H75293  12.322   3.787   0.521 -0.1604 -1.2125 -3.2569
  558MOL0     H75294  12.348   4.044  -0.020 -1.4346 -2.4707  3.4857
  558MOL0     H75295  12.555   4.091  -0.169  1.4179 -0.4160 -0.8549
  558MOL0     H75296  12.799   3.954  -0.235 -4.5047  0.4252  1.5234
  558MOL0     H75297  12.776   4.126  -0.240  0.9349 -0.3235 -1.2820
  558MOL0     H75298  13.041   3.996  -0.234  1.7335  0.7325 -0.5692
  558MOL0     H75299  12.978   4.107  -0.340  0.3228  1.3305  0.3988
  558MOL0     H75300  13.155   4.200  -0.201  0.4876 -1.1240  2.5506
  558MOL0     H75301  13.060   4.181  -0.058 -1.4567  0.5087  0.1138
  558MOL0     H75302  13.065   4.378  -0.285 -3.9953  0.4246 -2.1889
  558MOL0     H75303  12.902   4.326  -0.275  0.6751  1.0107 -1.9643
  558MOL0     H75304  13.060   4.434  -0.031 -2.0043  1.8770  1.2022
  558MOL0     H75305  12.888   4.389  -0.047  0.5712 -0.0479 -0.6627
  558MOL0     H75306  13.022   4.605  -0.218 -0.1650  0.8265 -1.1821
  558MOL0     H75307  12.862   4.567  -0.200  1.5924  2.0820 -1.1949
  558MOL0     H75308  12.930   4.768  -0.073 -1.3789 -1.5771 -5.0294
  558MOL0     H75309  13.015   4.671   0.046  0.8635 -2.7959 -1.3595
  558MOL0     H75310  12.806   4.714   0.129  0.5654  3.6120 -2.3235
  558MOL0     H75311  12.799   4.539   0.084 -0.3402  0.6026  3.4832
  558MOL0     H75312  12.794   3.957   0.157 -0.6571 -3.3073 -1.1167
  558MOL0     H75313  12.578   3.914   0.292 -2.3371 -3.9981 -1.4862
  558MOL0     H75314  12.074   4.049   0.169 -1.7476 -0.1025 -1.6043
  558MOL0     H75315  11.847   3.978   0.212  0.3868  0.4730 -0.2068
  558MOL0     H75316  10.346   3.862   1.676  1.1801  1.6850  0.4645
  558MOL0     H75317  10.220   3.708   1.797  0.9583  1.5447  0.9142
  558MOL0     H75318  10.031   3.354   1.922 -1.8902  0.5403  2.9473
  558MOL0     H75319   9.872   3.208   2.017  0.5494  0.1360  0.7622
  558MOL0     H75320   9.767   3.040   2.126 -0.5127 -0.9084  1.9270
  558MOL0     H75321   9.840   2.905   2.024  1.8379  1.9389 -1.3203
  558MOL0     H75322   9.826   2.763   2.224 -0.7137 -1.3976  0.2670
  558MOL0     H75323   9.671   2.781   2.158 -1.3752  2.0663 -1.0224
  558MOL0     H75324   9.596   2.943   2.338 -0.1370 -1.3515 -0.4177
  558MOL0     H75325   9.766   2.927   2.400  0.8444 -3.8998  1.1335
  558MOL0     H75326   9.591   2.773   2.517  1.3123  0.6815 -0.2891
  558MOL0     H75327   9.717   2.681   2.453 -0.9019 -0.9191  3.5593
  558MOL0     H75328   9.399   2.506   2.236 -0.6583  1.0128  0.0763
  558MOL0     H75329  10.190   2.982   2.194 -1.3989 -1.7063 -2.3856
  558MOL0     H75330  10.355   3.130   2.097 -0.1204  1.4985  1.6924
  559MOL0     O75331  10.430   0.153  11.396 -0.1132 -0.4370 -0.0654
  559MOL0     C75332  10.549   0.128  11.423 -0.4159 -0.2027  0.2253
  559MOL0     O75333  10.641   0.073  11.334  0.1533  1.0443 -0.1795
  559MOL0     C75334  10.604   0.021  11.211  0.9190 -0.6723  0.7361
  559MOL0     C75335  10.663  -0.100  11.165  0.2158 -0.7165  0.2567
  559MOL0     C75336  10.621  -0.154  11.036  0.3710  0.1634 -0.6110
  559MOL0     C75337  10.519  -0.096  10.960  0.0148  0.1392  0.1838
  559MOL0     O75338  10.492  -0.162  10.841 -0.7190 -0.2709  0.2149
  559MOL0     C75339  10.384  -0.122  10.764 -0.2384 -0.3143 -0.2388
  559MOL0     C75340  10.358  -0.252  10.685 -0.4855 -0.4721 -0.1198
  559MOL0     C75341  10.476  -0.321  10.605 -0.8213  0.7690  0.6527
  559MOL0     C75342  10.524  -0.256  10.477 -0.6971  0.1315  0.4324
  559MOL0     C75343  10.658  -0.311  10.426 -0.5542  0.1273 -0.6169
  559MOL0     C75344  10.735  -0.234  10.321 -0.7047  0.3845  1.0304
  559MOL0     C75345  10.847  -0.324  10.275 -1.0515 -0.2483 -0.0527
  559MOL0     C75346  10.908  -0.292  10.133 -1.4461  0.8054 -0.5524
  559MOL0     N75347  10.954  -0.156  10.134  0.0999  0.6951 -0.1090
  559MOL0     C75348  10.947  -0.074  10.019  0.5921 -0.2960  0.0330
  559MOL0     C75349  11.042   0.018  10.022 -0.4020 -0.7435 -0.5303
  559MOL0     C75350  11.083   0.114   9.916 -0.4424 -1.2715  0.7680
  559MOL0     C75351  10.984   0.230   9.893  1.4491  0.7458  0.5277
  559MOL0     C75352  10.861   0.201   9.807 -0.1038  0.6867  0.3407
  559MOL0     C75353  10.902   0.185   9.656  0.9584  0.2109 -0.4589
  559MOL0     O75354  10.950   0.051   9.643 -0.3713 -0.2832 -0.4641
  559MOL0     C75355  10.928  -0.019   9.521  0.7714  0.1115 -0.1197
  559MOL0     C75356  10.889   0.038   9.403 -0.4551  0.1201 -0.9377
  559MOL0     C75357  10.868  -0.030   9.282 -1.0222 -0.4893 -0.3829
  559MOL0     C75358  10.819   0.051   9.166 -0.1081 -0.4195 -1.6387
  559MOL0     C75359  10.897  -0.165   9.275  0.7471 -0.2544  0.3480
  559MOL0     C75360  10.874  -0.244   9.157  0.2521 -0.3094 -0.3557
  559MOL0     O75361  10.831  -0.373   9.176 -0.1648 -0.3355  0.0892
  559MOL0     C75362  10.812  -0.464   9.072  0.3433  0.6171 -0.4006
  559MOL0     C75363  10.805  -0.598   9.121 -0.3244 -0.7825 -0.2524
  559MOL0     C75364  10.803  -0.707   9.033 -0.4912  0.0537 -0.5181
  559MOL0     C75365  10.790  -0.684   8.894  0.3084 -0.9243 -0.5733
  559MOL0     O75366  10.788  -0.781   8.802 -0.4755  0.2601  0.1433
  559MOL0     C75367  10.867  -0.893   8.817  0.3457 -0.3350  0.3869
  559MOL0     C75368  11.026  -0.852   8.799  0.2217  0.4828  0.1163
  559MOL0     C75369  11.126  -0.963   8.787  0.0024  0.0818 -0.7962
  559MOL0     C75370  11.104  -1.073   8.891 -0.4384 -0.5749 -0.8005
  559MOL0     C75371  11.231  -1.168   8.896  0.9585  0.3059  0.1681
  559MOL0     C75372  11.210  -1.287   8.992 -0.0189 -0.2381  0.2255
  559MOL0     C75373  11.338  -1.378   9.015  0.2197 -0.7936 -0.2522
  559MOL0     C75374  11.353  -1.410   9.163 -0.0628 -0.7067  0.0174
  559MOL0    Cl75375  11.415  -1.268   9.248 -0.2249 -0.0159  0.3104
  559MOL0     C75376  10.775  -0.547   8.853  0.5600  0.1608  0.0401
  559MOL0     C75377  10.801  -0.443   8.940  0.3315 -0.3495  0.1974
  559MOL0     O75378  10.915  -0.193   9.053  0.6351  0.1494 -0.1612
  559MOL0     C75379  10.936  -0.226   9.390 -0.4164 -0.8211 -0.0871
  559MOL0     C75380  10.946  -0.159   9.517  0.3043 -0.6204  1.1783
  559MOL0     N75381  11.115  -0.011  10.138 -0.2050  0.0622 -0.0103
  559MOL0     N75382  11.065  -0.116  10.200  0.4008 -0.5036  0.9670
  559MOL0     C75383  10.449   0.012  11.018 -0.3745 -0.2642  0.3204
  559MOL0     C75384  10.500   0.083  11.132  0.4455  1.3064  0.1002
  559MOL0     C75385  10.594   0.171  11.560  0.2304  0.5937 -0.0838
  559MOL0     C75386  10.729   0.196  11.584  0.0083 -0.3876 -0.4790
  559MOL0     C75387  10.771   0.240  11.709  1.4449 -0.3242 -0.1012
  559MOL0     C75388  10.677   0.250  11.816  0.9292 -1.5024  0.6654
  559MOL0     O75389  10.726   0.302  11.932 -0.8715 -0.1088 -0.2882
  559MOL0     C75390  10.649   0.399  12.009  0.6718  0.7492  0.8508
  559MOL0     C75391  10.597   0.521  11.934 -0.1126 -0.6667 -0.1206
  559MOL0     C75392  10.711   0.586  11.847 -0.0352 -0.5940  0.1068
  559MOL0     C75393  10.668   0.714  11.775 -0.2475  0.4358 -0.6527
  559MOL0     C75394  10.784   0.780  11.709 -0.6543  0.0289  0.2488
  559MOL0     C75395  10.885   0.819  11.652  0.0149 -0.6709 -0.0621
  559MOL0     C75396  10.541   0.216  11.791 -0.2541 -1.1089 -0.3010
  559MOL0     C75397  10.502   0.181  11.667  0.4515  0.0460  0.3522
  559MOL0     H75398  10.748  -0.138  11.222 -0.1256 -0.0945  1.1991
  559MOL0     H75399  10.674  -0.239  10.994  1.2104  1.5217 -2.4616
  559MOL0     H75400  10.297  -0.094  10.824  0.4700  1.0317  0.1904
  559MOL0     H75401  10.418  -0.043  10.696  1.0858  0.7354  1.5657
  559MOL0     H75402  10.324  -0.317  10.765  0.1355  0.0789  0.6106
  559MOL0     H75403  10.266  -0.233  10.629 -1.7067  1.2104  2.2937
  559MOL0     H75404  10.563  -0.336  10.671  0.3608 -1.2870 -1.2225
  559MOL0     H75405  10.441  -0.421  10.578 -1.3438  0.9791  0.5385
  559MOL0     H75406  10.440  -0.254  10.407 -2.1549 -2.1822  1.9731
  559MOL0     H75407  10.540  -0.150  10.500 -2.8160  1.1212 -2.0421
  559MOL0     H75408  10.721  -0.339  10.511  0.3186  0.7687 -1.0371
  559MOL0     H75409  10.636  -0.408  10.380  2.1031 -0.1622 -1.4440
  559MOL0     H75410  10.661  -0.217  10.242 -1.0052 -0.1197  1.1943
  559MOL0     H75411  10.768  -0.139  10.365 -0.1998  0.9669 -0.5506
  559MOL0     H75412  10.925  -0.321  10.351 -1.1920 -2.9252  0.3051
  559MOL0     H75413  10.820  -0.430  10.277  3.7490 -1.7263  3.0924
  559MOL0     H75414  10.835  -0.300  10.052 -0.7291  1.8082 -1.3276
  559MOL0     H75415  10.983  -0.364  10.101 -2.0776  0.6092 -1.6217
  559MOL0     H75416  10.879  -0.089   9.935  0.2997 -1.1804  0.4164
  559MOL0     H75417  11.177   0.158   9.949  0.2362 -0.5665 -1.8881
  559MOL0     H75418  11.110   0.064   9.822  2.2215  0.0498  0.7482
  559MOL0     H75419  11.027   0.317   9.842 -0.1649  0.6344 -1.1574
  559MOL0     H75420  10.948   0.251   9.994  0.7172  0.2923  0.3726
  559MOL0     H75421  10.792   0.286   9.800 -0.7144  0.1814  0.0860
  559MOL0     H75422  10.800   0.123   9.853 -1.7442  1.5616 -0.2527
  559MOL0     H75423  10.974   0.259   9.620 -0.7224  1.2282 -1.8696
  559MOL0     H75424  10.816   0.191   9.589  1.3111 -1.8450 -1.1583
  559MOL0     H75425  10.889   0.144   9.425  1.2039 -0.1324  0.5796
  559MOL0     H75426  10.897   0.082   9.095  0.6438 -0.7225 -0.9535
  559MOL0     H75427  10.737   0.006   9.109 -2.9115 -1.3239  2.6513
  559MOL0     H75428  10.786   0.138   9.224  1.5146 -1.2755  0.7081
  559MOL0     H75429  10.803  -0.609   9.229 -0.0700  1.0386 -0.0202
  559MOL0     H75430  10.838  -0.807   9.058  0.2804 -0.1067 -2.0770
  559MOL0     H75431  10.866  -0.941   8.915 -0.6279 -1.9955 -0.3764
  559MOL0     H75432  10.840  -0.968   8.741  1.9724 -1.1579  0.5668
  559MOL0     H75433  11.027  -0.806   8.700  2.1548  0.4653  0.0928
  559MOL0     H75434  11.057  -0.779   8.875  4.2860 -0.5906 -0.2815
  559MOL0     H75435  11.220  -0.907   8.793 -0.6329  1.0279  4.0943
  559MOL0     H75436  11.111  -1.005   8.687  0.3291  0.6838 -1.1018
  559MOL0     H75437  11.077  -1.033   8.989 -1.5377 -1.3919 -0.7477
  559MOL0     H75438  11.027  -1.143   8.856  0.1883 -2.0088  0.5436
  559MOL0     H75439  11.320  -1.121   8.939  1.6901 -1.6386  0.9428
  559MOL0     H75440  11.261  -1.209   8.799 -1.3182  1.0976 -0.9382
  559MOL0     H75441  11.182  -1.238   9.086 -0.3173 -0.6566  0.3575
  559MOL0     H75442  11.137  -1.363   8.961 -1.4214  2.2453 -3.1579
  559MOL0     H75443  11.426  -1.327   8.974 -0.3552 -0.3258 -0.9264
  559MOL0     H75444  11.321  -1.466   8.952 -1.8551  0.0895 -0.9805
  559MOL0     H75445  11.403  -1.507   9.165 -2.2307 -2.0887 -3.1525
  559MOL0     H75446  11.258  -1.427   9.214 -0.5498  0.6581 -0.3955
  559MOL0     H75447  10.749  -0.528   8.749 -2.1163  0.5431  0.7071
  559MOL0     H75448  10.810  -0.346   8.891  0.5273 -1.9915 -3.3043
  559MOL0     H75449  10.942  -0.334   9.383  0.9509 -0.7474 -0.3936
  559MOL0     H75450  10.987  -0.211   9.603 -0.0300 -2.2780  0.3834
  559MOL0     H75451  10.365   0.064  10.972  0.3516 -0.3044 -1.1233
  559MOL0     H75452  10.460   0.180  11.160 -1.2655  0.4170  0.8807
  559MOL0     H75453  10.816   0.181  11.522  2.0523 -0.6593  2.2453
  559MOL0     H75454  10.870   0.270  11.742  0.5059  3.2510 -0.1550
  559MOL0     H75455  10.561   0.351  12.053 -0.2259  1.9153  0.3621
  559MOL0     H75456  10.719   0.445  12.080  0.2962  2.1733  0.3179
  559MOL0     H75457  10.556   0.585  12.013  1.7548  3.3917 -2.1163
  559MOL0     H75458  10.518   0.494  11.864  2.6031 -1.4955 -3.1556
  559MOL0     H75459  10.748   0.513  11.775  1.2998 -0.5177  0.6785
  559MOL0     H75460  10.788   0.611  11.922  1.4133 -1.1401 -1.1597
  559MOL0     H75461  10.632   0.784  11.851  0.0933 -1.8011  1.7210
  559MOL0     H75462  10.583   0.686  11.713  0.5218 -2.0348 -0.6968
  559MOL0     H75463  10.982   0.853  11.626 -0.0169 -1.0013 -0.6213
  559MOL0     H75464  10.468   0.248  11.865  1.3746  2.4568 -0.0164
  559MOL0     H75465  10.398   0.167  11.638  0.5772  1.7643 -1.0819
  560MOL0     O75466   3.732   5.805   6.536  0.3525  0.1510 -0.3007
  560MOL0     C75467   3.833   5.875   6.544 -0.0059  0.8801  0.0961
  560MOL0     O75468   3.846   6.007   6.514 -0.1519  0.3639  0.3771
  560MOL0     C75469   3.744   6.100   6.501 -0.0858 -0.2017  0.2138
  560MOL0     C75470   3.770   6.238   6.507 -0.0860 -0.0065  0.1073
  560MOL0     C75471   3.674   6.334   6.488  0.0718 -0.1466 -0.4816
  560MOL0     C75472   3.542   6.296   6.453  0.2268 -0.5069 -0.4212
  560MOL0     O75473   3.459   6.406   6.448  0.3426  0.3089 -0.0008
  560MOL0     C75474   3.327   6.414   6.392  0.4188  0.0903 -0.4705
  560MOL0     C75475   3.320   6.562   6.381  0.7417 -0.6724 -0.3314
  560MOL0     C75476   3.174   6.610   6.401 -0.2288  0.8263  0.2321
  560MOL0     C75477   3.114   6.645   6.262 -0.0175  0.1777 -0.0236
  560MOL0     C75478   2.960   6.679   6.272 -0.2044 -0.0527 -0.0882
  560MOL0     C75479   2.925   6.798   6.364 -0.1152 -0.2167  1.1305
  560MOL0     C75480   3.011   6.925   6.347 -0.0997  0.1559  0.1173
  560MOL0     C75481   2.975   7.040   6.439  0.4775  0.3065  0.9603
  560MOL0     N75482   2.829   7.080   6.414 -0.7028 -0.4005 -0.2269
  560MOL0     C75483   2.716   7.016   6.458 -0.0096 -1.7143  0.1839
  560MOL0     C75484   2.613   7.081   6.393  0.1907  0.3796 -0.1308
  560MOL0     C75485   2.465   7.070   6.404  0.6592  0.4774  0.2691
  560MOL0     C75486   2.411   6.924   6.428 -0.7442  0.7215 -0.0153
  560MOL0     C75487   2.255   6.916   6.458 -0.5612 -0.0281 -0.0352
  560MOL0     C75488   2.208   7.005   6.585 -0.5487  0.1625 -0.3788
  560MOL0     O75489   2.069   6.970   6.602 -0.5112 -0.3435  0.8392
  560MOL0     C75490   2.037   6.885   6.694 -0.4682  0.1104  0.7047
  560MOL0     C75491   2.014   6.755   6.676  0.6580 -0.3451  0.9644
  560MOL0     C75492   1.985   6.678   6.786  0.5192  0.7801 -0.9743
  560MOL0     C75493   1.955   6.536   6.755  0.1461  0.3026  1.0381
  560MOL0     C75494   1.959   6.735   6.910  0.1953  0.0333  0.4476
  560MOL0     C75495   1.940   6.656   7.025  0.0243  0.0228  0.1868
  560MOL0     O75496   1.874   6.541   7.006 -0.0514 -0.2397 -0.2257
  560MOL0     C75497   1.836   6.479   7.122  0.3515  0.1970  0.1244
  560MOL0     C75498   1.703   6.482   7.157 -1.2080  0.5078 -0.5263
  560MOL0     C75499   1.656   6.407   7.267 -0.5679  0.9086  0.5829
  560MOL0     C75500   1.749   6.351   7.352 -0.0154 -0.4424 -0.0996
  560MOL0     O75501   1.719   6.284   7.465 -0.9566 -0.0377 -0.8704
  560MOL0     C75502   1.592   6.289   7.527 -0.1059  0.2247  0.9923
  560MOL0     C75503   1.509   6.189   7.453  0.1354  0.8100  0.3717
  560MOL0     C75504   1.481   6.049   7.520  0.0270 -1.0691  0.7022
  560MOL0     C75505   1.386   5.969   7.419 -0.4010  0.0283 -0.2555
  560MOL0     C75506   1.381   5.820   7.467  0.1022 -0.0283  0.5328
  560MOL0     C75507   1.290   5.735   7.382  0.3914 -0.2327  0.5088
  560MOL0     C75508   1.278   5.599   7.441  0.1248 -0.3376 -0.6056
  560MOL0     C75509   1.418   5.532   7.471 -0.4878 -1.2760  1.1087
  560MOL0    Cl75510   1.399   5.366   7.514 -0.0533  0.2746  0.1159
  560MOL0     C75511   1.890   6.350   7.319  0.2376 -0.2139 -0.7414
  560MOL0     C75512   1.933   6.418   7.205 -0.7542  0.8100  0.6861
  560MOL0     O75513   1.983   6.691   7.136 -0.0483  0.1284  0.8374
  560MOL0     C75514   1.986   6.875   6.921  0.7057  0.8809 -0.0930
  560MOL0     C75515   2.027   6.947   6.814  0.6682  0.5384 -0.5031
  560MOL0     N75516   2.668   7.171   6.304 -0.3105 -0.2616 -0.3060
  560MOL0     N75517   2.793   7.179   6.326  0.6297  0.1250 -0.2961
  560MOL0     C75518   3.510   6.160   6.456  0.1192 -0.5470 -1.1718
  560MOL0     C75519   3.605   6.064   6.477  0.8372 -0.4589 -0.2014
  560MOL0     C75520   3.958   5.801   6.565 -0.5963 -0.0389  0.5219
  560MOL0     C75521   3.979   5.669   6.524  0.2816  0.2231 -0.4338
  560MOL0     C75522   4.115   5.610   6.537  0.0978 -0.1477  0.8243
  560MOL0     C75523   4.220   5.677   6.604  0.6321  0.0063  0.3298
  560MOL0     O75524   4.351   5.633   6.609  0.4781  1.1234  0.5926
  560MOL0     C75525   4.376   5.492   6.591 -0.2636 -0.2319  0.9665
  560MOL0     C75526   4.499   5.439   6.646 -0.1782  1.4957  0.7366
  560MOL0     C75527   4.493   5.466   6.796 -0.3905  0.3534  0.6177
  560MOL0     C75528   4.392   5.396   6.885 -0.0875  0.4541  0.2521
  560MOL0     C75529   4.413   5.252   6.902  0.3954  0.3577  0.1342
  560MOL0     C75530   4.457   5.145   6.932 -0.5171 -0.2927 -0.2617
  560MOL0     C75531   4.195   5.806   6.641  0.6529 -0.6708 -0.4598
  560MOL0     C75532   4.063   5.869   6.623 -1.0954  0.2769 -0.5427
  560MOL0     H75533   3.873   6.266   6.527 -0.2908 -0.3862  1.8760
  560MOL0     H75534   3.690   6.442   6.496 -2.2937  0.2808 -0.9081
  560MOL0     H75535   3.307   6.369   6.294  3.0827 -0.9444 -0.6452
  560MOL0     H75536   3.258   6.372   6.465 -2.3126  2.8958 -1.2420
  560MOL0     H75537   3.380   6.607   6.460  0.2049  1.6111 -1.1558
  560MOL0     H75538   3.361   6.609   6.291 -0.1297  1.3514  0.2876
  560MOL0     H75539   3.122   6.542   6.469  3.1242  0.2224  2.4077
  560MOL0     H75540   3.175   6.702   6.459  1.9447  2.7610 -2.5977
  560MOL0     H75541   3.165   6.734   6.223 -2.2872  1.5264 -0.0991
  560MOL0     H75542   3.132   6.562   6.193 -0.0361  0.6524 -0.6109
  560MOL0     H75543   2.924   6.703   6.171  1.4261 -4.2678 -1.8602
  560MOL0     H75544   2.905   6.587   6.294  0.4157 -0.0485  1.6209
  560MOL0     H75545   2.822   6.822   6.336 -0.2149 -1.4845  0.3485
  560MOL0     H75546   2.928   6.765   6.468  0.4215 -4.0248  0.0663
  560MOL0     H75547   3.114   6.892   6.367  0.2657  0.7535 -0.7248
  560MOL0     H75548   2.994   6.955   6.243  2.0966  0.8322 -0.1031
  560MOL0     H75549   3.035   7.129   6.416 -1.2398  0.9260 -1.5967
  560MOL0     H75550   3.006   7.012   6.540  0.5583  1.1687  1.1876
  560MOL0     H75551   2.715   6.940   6.536  0.6731 -4.4592 -2.3136
  560MOL0     H75552   2.429   7.139   6.482 -0.1242  1.1364 -0.6483
  560MOL0     H75553   2.424   7.108   6.309  1.6543  2.8169  0.7034
  560MOL0     H75554   2.464   6.885   6.515 -2.2943  2.0704  1.6292
  560MOL0     H75555   2.434   6.871   6.335  0.1283  1.0847 -0.0158
  560MOL0     H75556   2.224   6.812   6.467 -1.2844  0.1896  0.0795
  560MOL0     H75557   2.191   6.951   6.377 -1.6427 -1.5769  0.1126
  560MOL0     H75558   2.209   7.114   6.578 -1.4613  0.3064  1.1241
  560MOL0     H75559   2.266   6.978   6.674 -0.7087 -2.2443 -0.9413
  560MOL0     H75560   2.015   6.700   6.583 -0.9324  3.6387 -1.6829
  560MOL0     H75561   1.989   6.500   6.658 -2.7093  0.1496 -0.0086
  560MOL0     H75562   2.013   6.470   6.820  0.2514  0.1825  0.8232
  560MOL0     H75563   1.847   6.516   6.755  0.2369 -0.2193  0.0877
  560MOL0     H75564   1.635   6.533   7.089  1.2616  1.5210 -2.4216
  560MOL0     H75565   1.549   6.406   7.288 -0.8161  1.6362 -0.5766
  560MOL0     H75566   1.596   6.262   7.633  2.7794 -2.8235  0.2886
  560MOL0     H75567   1.556   6.391   7.513 -2.2470 -0.8379 -2.3892
  560MOL0     H75568   1.413   6.239   7.437 -0.6432 -0.1072  1.9719
  560MOL0     H75569   1.551   6.166   7.355 -0.1161  0.9838  0.2208
  560MOL0     H75570   1.424   6.065   7.612 -1.5325 -3.3353  0.2176
  560MOL0     H75571   1.577   6.003   7.542 -0.6636 -2.7206  0.4066
  560MOL0     H75572   1.288   6.016   7.430 -0.7657 -0.4996 -1.1433
  560MOL0     H75573   1.421   5.977   7.316  1.6679 -2.2488  0.1677
  560MOL0     H75574   1.347   5.824   7.571 -1.1759  2.5723  0.1088
  560MOL0     H75575   1.483   5.782   7.460 -0.5538 -1.7913  0.1351
  560MOL0     H75576   1.193   5.785   7.380 -0.6817 -2.2047  0.3251
  560MOL0     H75577   1.337   5.727   7.283  0.1867 -2.8133  0.5586
  560MOL0     H75578   1.221   5.532   7.376 -1.3575 -2.1518  2.3636
  560MOL0     H75579   1.221   5.606   7.534  1.4673  2.2639  0.1264
  560MOL0     H75580   1.470   5.580   7.554 -0.3176  2.1485 -0.7934
  560MOL0     H75581   1.484   5.532   7.384 -0.3850 -0.9323  1.1848
  560MOL0     H75582   1.960   6.289   7.376  2.4124  0.6005 -2.4036
  560MOL0     H75583   2.038   6.438   7.182 -0.4171 -1.3196  0.1950
  560MOL0     H75584   1.984   6.922   7.018 -1.0238  3.0067 -1.0723
  560MOL0     H75585   2.044   7.053   6.825 -4.3577  1.5610 -0.4248
  560MOL0     H75586   3.405   6.130   6.450 -0.0241 -0.5288  0.5789
  560MOL0     H75587   3.566   5.963   6.470 -0.9620  0.0673  1.6172
  560MOL0     H75588   3.904   5.615   6.467 -2.6411  1.2397  2.1844
  560MOL0     H75589   4.144   5.507   6.517  0.1930 -0.2943  1.6857
  560MOL0     H75590   4.301   5.430   6.641  0.4023 -0.3063  1.9000
  560MOL0     H75591   4.369   5.467   6.484  0.0999  0.4252  0.7830
  560MOL0     H75592   4.597   5.462   6.603 -0.2295 -1.5779 -1.3772
  560MOL0     H75593   4.494   5.332   6.624 -0.9402  1.4683  1.0042
  560MOL0     H75594   4.478   5.572   6.818  0.8887  0.2851  1.9582
  560MOL0     H75595   4.595   5.437   6.823  0.0481  0.7687 -0.5371
  560MOL0     H75596   4.290   5.426   6.860 -0.5490 -1.3744 -0.1947
  560MOL0     H75597   4.417   5.424   6.987  0.8950 -0.9985  0.4403
  560MOL0     H75598   4.508   5.051   6.933  0.8727  0.2992 -3.4109
  560MOL0     H75599   4.274   5.866   6.685  0.2079 -0.9481  0.7566
  560MOL0     H75600   4.038   5.968   6.660 -3.4067 -0.3796 -0.1703
  561MOL0     O75601   2.374   7.006   9.158  0.4683 -0.4267 -0.8338
  561MOL0     C75602   2.372   7.095   9.068  0.5642 -1.0417 -0.4480
  561MOL0     O75603   2.350   7.071   8.933 -0.1203 -0.2816  0.2482
  561MOL0     C75604   2.319   6.939   8.906  0.0083  0.4748 -0.1891
  561MOL0     C75605   2.421   6.845   8.905  0.1363  1.4749 -0.2174
  561MOL0     C75606   2.393   6.708   8.875  0.9202  0.7647 -0.4893
  561MOL0     C75607   2.262   6.666   8.835 -1.2779  0.7616 -0.2645
  561MOL0     O75608   2.223   6.546   8.777 -0.2926  0.1428  0.0264
  561MOL0     C75609   2.257   6.441   8.871  0.3675  0.6202 -0.6299
  561MOL0     C75610   2.240   6.310   8.799 -0.4464 -0.7846  0.1053
  561MOL0     C75611   2.107   6.290   8.731  0.5812 -0.2808  0.2944
  561MOL0     C75612   2.076   6.139   8.722  0.2513  1.4229  0.6940
  561MOL0     C75613   1.932   6.121   8.666  0.1255  0.9464 -0.1686
  561MOL0     C75614   1.898   5.977   8.633 -0.1815  0.5288 -0.3209
  561MOL0     C75615   1.895   5.909   8.765 -0.6642  0.0940 -1.1304
  561MOL0     C75616   1.804   5.786   8.772  0.4876 -0.0888 -0.7265
  561MOL0     N75617   1.670   5.804   8.827 -0.0935  0.5599  0.1183
  561MOL0     C75618   1.565   5.865   8.765 -0.5158 -0.0525  0.5942
  561MOL0     C75619   1.458   5.829   8.841  0.2171 -0.0368 -0.6076
  561MOL0     C75620   1.316   5.847   8.792  0.4624 -1.5061 -0.1968
  561MOL0     C75621   1.268   5.736   8.703 -0.0220  0.0016  0.4281
  561MOL0     C75622   1.280   5.596   8.771  0.9702  0.3455  0.2118
  561MOL0     C75623   1.179   5.573   8.882  0.3473 -0.0071  0.4834
  561MOL0     O75624   1.123   5.444   8.847 -0.5327  0.2752 -0.0554
  561MOL0     C75625   1.000   5.424   8.901  0.5579 -0.4904  0.3063
  561MOL0     C75626   0.951   5.463   9.031 -0.5841  0.1496 -0.6517
  561MOL0     C75627   0.822   5.449   9.071  0.7386 -0.4759  0.9829
  561MOL0     C75628   0.785   5.513   9.207  0.1707 -0.2149  0.5820
  561MOL0     C75629   0.727   5.404   8.978  0.0685 -0.5372 -0.2641
  561MOL0     C75630   0.584   5.397   9.012  1.3138 -0.2526 -0.0098
  561MOL0     O75631   0.530   5.510   9.072  0.4735 -0.6540  0.9530
  561MOL0     C75632   0.407   5.525   9.119 -0.5607  1.1730 -0.3352
  561MOL0     C75633   0.326   5.633   9.086  0.9558  0.2420  0.3875
  561MOL0     C75634   0.198   5.646   9.142 -0.5274 -0.2448  0.5243
  561MOL0     C75635   0.161   5.560   9.246 -0.0114  0.5603 -0.6748
  561MOL0     O75636   0.048   5.590   9.316  0.3702  0.6080 -0.3167
  561MOL0     C75637   0.047   5.579   9.458 -0.1868 -0.6000  0.8205
  561MOL0     C75638   0.010   5.721   9.512  0.1285  0.0926  0.8388
  561MOL0     C75639   0.120   5.828   9.481 -0.8274  0.6534  0.8044
  561MOL0     C75640   0.218   5.862   9.581  0.2497  0.8887 -0.4587
  561MOL0     C75641   0.335   5.944   9.525  0.9442  0.0197  0.1274
  561MOL0     C75642   0.449   5.955   9.613 -1.6417  0.7058 -0.4219
  561MOL0     C75643   0.528   5.818   9.640  0.0457 -0.5855 -0.8511
  561MOL0     C75644   0.489   5.744   9.774 -0.0802 -0.4987  0.9191
  561MOL0    Cl75645   0.603   5.788   9.900  0.1996  0.0600  0.4551
  561MOL0     C75646   0.241   5.453   9.286  0.4889 -0.2374 -0.1832
  561MOL0     C75647   0.362   5.441   9.219 -0.9383 -0.1316 -0.2072
  561MOL0     O75648   0.526   5.289   8.985 -0.3122  0.2621  0.1869
  561MOL0     C75649   0.762   5.361   8.854  0.2515 -0.1758  0.4719
  561MOL0     C75650   0.901   5.372   8.813  0.2564  0.6390 -0.0180
  561MOL0     N75651   1.504   5.762   8.952  0.2816 -0.3919 -0.0546
  561MOL0     N75652   1.634   5.755   8.949 -0.5327  0.3811  0.1440
  561MOL0     C75653   2.164   6.761   8.844  0.2162  0.0143  0.3144
  561MOL0     C75654   2.192   6.897   8.883 -0.3773 -0.0179 -0.2933
  561MOL0     C75655   2.373   7.234   9.102 -0.8922 -1.0466 -0.5132
  561MOL0     C75656   2.375   7.277   9.236  0.0325  0.6080 -0.1847
  561MOL0     C75657   2.377   7.415   9.279  0.4230  0.6859  0.3432
  561MOL0     C75658   2.377   7.510   9.172  0.3550  0.1135 -0.8511
  561MOL0     O75659   2.381   7.645   9.193 -0.4054 -0.5741  0.3579
  561MOL0     C75660   2.384   7.702   9.320 -0.1004 -0.1461 -0.2172
  561MOL0     C75661   2.419   7.840   9.311 -0.5522  0.2123 -0.2697
  561MOL0     C75662   2.541   7.878   9.223 -0.5158 -0.3729 -0.2540
  561MOL0     C75663   2.608   8.009   9.256 -1.3469 -0.5710 -0.3465
  561MOL0     C75664   2.514   8.113   9.263 -0.7661 -0.4550  0.2618
  561MOL0     C75665   2.444   8.214   9.279  0.0327 -0.0613  0.7422
  561MOL0     C75666   2.368   7.470   9.040  0.3985  0.2550  0.2857
  561MOL0     C75667   2.370   7.336   9.002 -0.1844 -0.3016  0.2142
  561MOL0     H75668   2.526   6.861   8.924 -0.1169  2.2261  0.6325
  561MOL0     H75669   2.471   6.633   8.865 -0.6024 -0.7177 -1.9925
  561MOL0     H75670   2.356   6.443   8.917 -0.7830  1.7980  1.9708
  561MOL0     H75671   2.179   6.445   8.948 -0.5181  3.1187 -1.5763
  561MOL0     H75672   2.314   6.291   8.721 -0.1439  0.6440  0.0054
  561MOL0     H75673   2.246   6.241   8.883 -1.0386  0.2354  1.0124
  561MOL0     H75674   2.030   6.338   8.792  0.5954  1.3407 -0.8856
  561MOL0     H75675   2.117   6.345   8.637  0.7183 -1.8588 -0.6515
  561MOL0     H75676   2.144   6.080   8.661 -1.6145  0.2148 -0.2926
  561MOL0     H75677   2.066   6.100   8.824  1.7211 -2.9960 -0.6293
  561MOL0     H75678   1.851   6.156   8.732  0.6913  1.6724  0.1485
  561MOL0     H75679   1.927   6.178   8.573  2.1361  0.4355 -0.6240
  561MOL0     H75680   1.799   5.971   8.587  0.3734  1.3781 -1.6824
  561MOL0     H75681   1.974   5.929   8.571 -0.3606 -0.1271 -0.0454
  561MOL0     H75682   1.992   5.871   8.799 -0.2794  2.0468  0.0937
  561MOL0     H75683   1.865   5.978   8.844 -1.3070  0.0858 -1.3649
  561MOL0     H75684   1.853   5.722   8.847 -1.1367 -0.9154 -0.3185
  561MOL0     H75685   1.792   5.742   8.673 -1.7553 -0.3746 -0.3758
  561MOL0     H75686   1.563   5.905   8.664  0.3502  0.6929  0.8598
  561MOL0     H75687   1.259   5.858   8.884 -0.7973 -2.5752 -0.8159
  561MOL0     H75688   1.314   5.936   8.728 -1.2468 -1.6787 -0.4180
  561MOL0     H75689   1.323   5.723   8.610 -1.0844 -1.3963 -0.0303
  561MOL0     H75690   1.169   5.764   8.666 -0.3105 -2.6776 -1.0595
  561MOL0     H75691   1.383   5.581   8.807  0.5940 -2.3751  0.3489
  561MOL0     H75692   1.272   5.523   8.690 -0.8337  0.3118  0.3772
  561MOL0     H75693   1.104   5.653   8.881 -2.6873 -2.6510 -0.5936
  561MOL0     H75694   1.235   5.565   8.975 -1.4886 -1.2933  1.5380
  561MOL0     H75695   1.017   5.498   9.109  1.3308 -0.9459 -1.7006
  561MOL0     H75696   0.863   5.476   9.275  1.3906 -2.5458 -1.8603
  561MOL0     H75697   0.789   5.622   9.207 -1.7005 -0.0746 -1.4962
  561MOL0     H75698   0.687   5.482   9.247 -0.5353 -0.0513 -0.9580
  561MOL0     H75699   0.368   5.711   9.023  2.3238 -0.9434 -0.2413
  561MOL0     H75700   0.128   5.726   9.121 -1.5303 -1.4741 -1.0219
  561MOL0     H75701  -0.020   5.500   9.493  0.1844 -0.9298  0.7999
  561MOL0     H75702   0.149   5.572   9.497  0.9917  1.8826 -1.4683
  561MOL0     H75703  -0.074   5.753   9.450  0.5735  0.1354  0.2508
  561MOL0     H75704  -0.029   5.719   9.614 -0.9186  0.3981  0.4483
  561MOL0     H75705   0.072   5.923   9.456 -0.9995  0.4720  0.4254
  561MOL0     H75706   0.176   5.811   9.389  0.3569  0.4158  1.5481
  561MOL0     H75707   0.175   5.914   9.667  0.0492 -0.2878  0.1752
  561MOL0     H75708   0.260   5.773   9.628 -1.7568  0.3906  0.5048
  561MOL0     H75709   0.299   6.044   9.501 -0.4064  0.3293  3.0208
  561MOL0     H75710   0.372   5.901   9.432  1.3609  2.0415 -0.6963
  561MOL0     H75711   0.527   6.016   9.566  0.9715 -0.3480  2.2437
  561MOL0     H75712   0.408   5.984   9.710 -2.9023 -0.7362 -0.4865
  561MOL0     H75713   0.635   5.843   9.646 -0.3951  1.0896  3.3041
  561MOL0     H75714   0.509   5.751   9.556  1.7529 -2.2291  0.0174
  561MOL0     H75715   0.489   5.637   9.752 -0.5293 -1.3007  4.2404
  561MOL0     H75716   0.387   5.765   9.805 -0.5386 -1.7106  0.3042
  561MOL0     H75717   0.204   5.386   9.363  0.0060 -3.7711 -3.1964
  561MOL0     H75718   0.425   5.363   9.260 -0.2499  1.8716  2.9178
  561MOL0     H75719   0.684   5.332   8.784  0.1064  4.7350 -1.8138
  561MOL0     H75720   0.937   5.354   8.713  1.8406  1.3930  0.3898
  561MOL0     H75721   2.063   6.739   8.813  0.3026 -1.7787  1.2016
  561MOL0     H75722   2.107   6.964   8.883 -0.7961 -0.5380 -0.6140
  561MOL0     H75723   2.368   7.203   9.315 -0.3385 -0.9845 -1.6633
  561MOL0     H75724   2.378   7.448   9.383  0.3827 -0.1938  0.6358
  561MOL0     H75725   2.290   7.692   9.375 -1.7018  0.9320 -2.5854
  561MOL0     H75726   2.464   7.663   9.384  1.8187  4.4280  0.5573
  561MOL0     H75727   2.448   7.886   9.406  3.6044  0.1573 -1.3174
  561MOL0     H75728   2.330   7.882   9.263 -0.1742  0.0597 -1.1289
  561MOL0     H75729   2.514   7.879   9.117  2.3989  2.0377 -1.1267
  561MOL0     H75730   2.616   7.800   9.237 -1.2419 -1.4070 -1.8257
  561MOL0     H75731   2.686   8.029   9.182 -1.2728 -1.8858 -0.6578
  561MOL0     H75732   2.657   7.995   9.353  2.6940  0.0233 -2.1351
  561MOL0     H75733   2.374   8.295   9.290  1.1518  0.9777  0.4146
  561MOL0     H75734   2.361   7.547   8.964  1.2642 -2.2202 -2.4984
  561MOL0     H75735   2.355   7.323   8.895 -0.4826  1.9456 -0.0571
  562MOL0     O75736  10.715   8.274   7.298  0.7035 -0.2462  0.2934
  562MOL0     C75737  10.662   8.222   7.193  0.0665 -0.1236 -0.0545
  562MOL0     O75738  10.599   8.292   7.091 -0.7648  0.9335 -0.3692
  562MOL0     C75739  10.580   8.430   7.098 -0.7491 -0.1682  0.3931
  562MOL0     C75740  10.633   8.514   6.997 -1.1270  1.0289 -0.2677
  562MOL0     C75741  10.611   8.652   6.994 -0.6579 -0.9595 -0.0292
  562MOL0     C75742  10.542   8.707   7.098  0.3134  0.3685  0.2103
  562MOL0     O75743  10.537   8.836   7.124  0.5133  0.1919 -0.0111
  562MOL0     C75744  10.513   8.933   7.018  0.5719  0.6184  0.1281
  562MOL0     C75745  10.366   8.984   7.032 -0.3432 -1.1810  1.4285
  562MOL0     C75746  10.345   9.092   6.922  0.5616  0.4760  0.0224
  562MOL0     C75747  10.208   9.163   6.936 -0.1150  0.3128  0.4739
  562MOL0     C75748  10.176   9.282   6.839  0.2624  0.3211  0.3244
  562MOL0     C75749  10.254   9.413   6.870  0.9728 -0.1628  0.2667
  562MOL0     C75750  10.258   9.520   6.758  1.1666  0.1280 -0.4705
  562MOL0     C75751  10.136   9.599   6.718  0.3351  0.0383 -0.7722
  562MOL0     N75752  10.140   9.678   6.588  0.0475  0.1581 -0.0637
  562MOL0     C75753  10.189   9.803   6.582 -0.3202  1.1987 -0.3916
  562MOL0     C75754  10.189   9.827   6.451  0.1011 -0.5081  0.6335
  562MOL0     C75755  10.247   9.951   6.393 -0.1334  0.4095 -0.1128
  562MOL0     C75756  10.153  10.071   6.400  0.1805  0.6153  1.0602
  562MOL0     C75757  10.122  10.130   6.536  0.5362  0.1101 -0.1311
  562MOL0     C75758  10.006  10.237   6.538  0.2432  0.2388  0.4561
  562MOL0     O75759   9.874  10.191   6.550  0.9073  0.8624 -1.0636
  562MOL0     C75760   9.803  10.276   6.638 -0.5006  0.7184 -0.3271
  562MOL0     C75761   9.804  10.418   6.621 -0.2091  0.3431  0.1565
  562MOL0     C75762   9.745  10.510   6.706 -0.1343 -0.4563 -0.5072
  562MOL0     C75763   9.765  10.654   6.672  0.4426  0.7954 -1.0217
  562MOL0     C75764   9.694  10.452   6.829  0.2380 -0.2665 -0.9334
  562MOL0     C75765   9.633  10.518   6.947  0.0079 -0.9756  0.2824
  562MOL0     O75766   9.631  10.651   6.931 -0.2624  0.0817 -0.6960
  562MOL0     C75767   9.582  10.727   7.037  0.4579 -0.2724  0.0631
  562MOL0     C75768   9.664  10.785   7.135  0.6943  0.5029  0.0403
  562MOL0     C75769   9.601  10.884   7.220  0.7121 -0.1869 -0.7804
  562MOL0     C75770   9.470  10.918   7.219  0.0416 -0.3732 -0.0455
  562MOL0     O75771   9.436  11.021   7.308 -0.1308 -0.2346 -0.3816
  562MOL0     C75772   9.317  11.099   7.300 -0.8831 -0.2578  0.1458
  562MOL0     C75773   9.316  11.201   7.413 -0.1527 -0.0886 -0.1494
  562MOL0     C75774   9.186  11.276   7.430 -0.7634  0.4349  1.0227
  562MOL0     C75775   9.173  11.346   7.566 -0.0019  0.3360 -0.2429
  562MOL0     C75776   9.048  11.437   7.570 -0.3476  0.5879  0.5996
  562MOL0     C75777   9.003  11.488   7.710 -0.3887 -0.0762  0.2231
  562MOL0     C75778   9.077  11.613   7.754  0.1324  0.2612 -0.6117
  562MOL0     C75779   9.093  11.624   7.913  0.5846  0.3698  0.2297
  562MOL0    Cl75780   9.135  11.796   7.937  0.0576 -0.2272  0.1793
  562MOL0     C75781   9.391  10.859   7.125  0.3702  0.0844  1.4586
  562MOL0     C75782   9.444  10.768   7.035  0.0484  0.9000  0.1357
  562MOL0     O75783   9.585  10.457   7.041 -0.2946  0.9396 -0.2834
  562MOL0     C75784   9.694  10.310   6.844  0.7852 -0.1017 -1.2115
  562MOL0     C75785   9.748  10.229   6.751 -0.2075  0.4316  0.3731
  562MOL0     N75786  10.147   9.717   6.379  0.3902  0.0890 -0.7445
  562MOL0     N75787  10.122   9.623   6.466  0.3226 -0.2039 -0.1301
  562MOL0     C75788  10.505   8.627   7.206 -0.2811  0.5502 -0.5263
  562MOL0     C75789  10.529   8.495   7.209  0.5423  0.4615  0.5827
  562MOL0     C75790  10.672   8.076   7.178  0.9432  0.1195 -0.2097
  562MOL0     C75791  10.637   8.018   7.052  0.2842 -0.1122  0.3175
  562MOL0     C75792  10.652   7.882   7.044 -0.6962  0.1403 -0.0327
  562MOL0     C75793  10.700   7.800   7.148 -0.3818  0.4341 -0.4986
  562MOL0     O75794  10.726   7.669   7.116 -0.1452  0.7667  0.0940
  562MOL0     C75795  10.825   7.599   7.184 -0.1038  1.0155 -0.0537
  562MOL0     C75796  10.850   7.472   7.103 -0.0026  0.0987  0.7268
  562MOL0     C75797  10.944   7.372   7.172  1.0492  0.2935  0.8566
  562MOL0     C75798  11.006   7.289   7.062  0.4129 -0.4797  0.5710
  562MOL0     C75799  11.096   7.194   7.130  0.4887  0.3703 -0.0047
  562MOL0     C75800  11.154   7.115   7.199 -0.0918 -0.0646  0.1136
  562MOL0     C75801  10.722   7.858   7.272 -0.0947 -0.8854 -0.0844
  562MOL0     C75802  10.710   7.995   7.289  0.8074  0.0949  0.0818
  562MOL0     H75803  10.691   8.465   6.919  1.1475 -2.5712  3.2531
  562MOL0     H75804  10.646   8.707   6.907 -1.5982 -1.5654 -0.8113
  562MOL0     H75805  10.591   9.011   7.019  2.7187 -1.4148  1.0897
  562MOL0     H75806  10.531   8.904   6.914 -1.7232  2.3611 -0.8380
  562MOL0     H75807  10.303   8.901   7.001  0.4191 -0.1407 -3.8903
  562MOL0     H75808  10.333   9.030   7.125 -2.1353 -0.8544  0.6701
  562MOL0     H75809  10.417   9.170   6.947 -2.5478  2.4488  3.9997
  562MOL0     H75810  10.358   9.055   6.819 -1.4379  0.5710 -0.3117
  562MOL0     H75811  10.135   9.083   6.917  1.2098 -1.0012  0.6968
  562MOL0     H75812  10.205   9.200   7.039  0.1346 -1.1765  1.0420
  562MOL0     H75813  10.207   9.258   6.737 -0.5312 -1.0309  0.3821
  562MOL0     H75814  10.071   9.304   6.858 -0.4370 -3.6337  1.9932
  562MOL0     H75815  10.208   9.462   6.956  0.3800  0.7678 -0.5631
  562MOL0     H75816  10.353   9.380   6.902 -0.2746 -3.1756  1.3968
  562MOL0     H75817  10.334   9.593   6.788  1.0033  0.2235 -0.2926
  562MOL0     H75818  10.306   9.478   6.669  3.8623  0.8366  0.5499
  562MOL0     H75819  10.099   9.657   6.803  0.8120  1.9404 -1.8165
  562MOL0     H75820  10.061   9.521   6.701  0.9494 -0.3873 -1.5902
  562MOL0     H75821  10.217   9.862   6.669  1.2568  1.9779 -1.3948
  562MOL0     H75822  10.338   9.979   6.447  0.6225 -0.2602 -1.0066
  562MOL0     H75823  10.272   9.927   6.289  0.0509  0.6165 -0.1172
  562MOL0     H75824  10.056  10.065   6.351  0.1723 -0.4924  1.1822
  562MOL0     H75825  10.206  10.147   6.341  1.0044 -0.0764  0.8838
  562MOL0     H75826  10.207  10.194   6.563  1.5155 -1.5864  0.9943
  562MOL0     H75827  10.106  10.059   6.617  1.0843 -0.2781 -0.3538
  562MOL0     H75828  10.014  10.303   6.451 -3.8782  0.9113  0.3880
  562MOL0     H75829  10.021  10.296   6.628  0.9263  0.6115  0.1042
  562MOL0     H75830   9.862  10.464   6.541 -0.2904 -0.2092 -0.2256
  562MOL0     H75831   9.688  10.722   6.710  1.6535  1.3117  0.6682
  562MOL0     H75832   9.862  10.699   6.696  0.9139  0.1178 -1.6134
  562MOL0     H75833   9.770  10.663   6.563  0.5288 -2.9783 -1.4633
  562MOL0     H75834   9.767  10.752   7.139  1.2114  1.7967 -1.5914
  562MOL0     H75835   9.669  10.943   7.280 -0.2330  3.1681 -2.7199
  562MOL0     H75836   9.307  11.153   7.206 -1.5564 -1.0505 -0.2510
  562MOL0     H75837   9.243  11.018   7.304  1.1859 -2.4384 -2.1947
  562MOL0     H75838   9.347  11.147   7.503  0.1637  0.8289  0.3038
  562MOL0     H75839   9.400  11.269   7.395  2.9715 -3.0724  1.8356
  562MOL0     H75840   9.117  11.192   7.417  2.7700 -2.4093 -1.2128
  562MOL0     H75841   9.167  11.352   7.353  0.1829  0.9320  1.2733
  562MOL0     H75842   9.172  11.261   7.634  2.9492 -1.7282 -2.4962
  562MOL0     H75843   9.265  11.402   7.586 -0.4052  0.8168  0.3015
  562MOL0     H75844   8.976  11.366   7.528  0.8287 -0.6316  0.5968
  562MOL0     H75845   9.071  11.526   7.510 -0.9768  0.5390  0.2784
  562MOL0     H75846   8.899  11.523   7.704 -0.3608 -0.0369 -0.0261
  562MOL0     H75847   9.013  11.418   7.793 -0.9279  0.2867  0.5986
  562MOL0     H75848   9.032  11.702   7.709  5.0096  1.8796 -3.0439
  562MOL0     H75849   9.179  11.602   7.716  0.6863  0.2495  0.8111
  562MOL0     H75850   9.157  11.546   7.955 -0.6216  0.3245  2.0811
  562MOL0     H75851   9.000  11.600   7.965  0.8655 -0.4342  0.3819
  562MOL0     H75852   9.286  10.870   7.103  0.5897 -2.2403 -1.3104
  562MOL0     H75853   9.379  10.736   6.955 -1.0255 -0.5558  1.5489
  562MOL0     H75854   9.650  10.272   6.935  0.9739 -0.5365 -1.2967
  562MOL0     H75855   9.739  10.121   6.757 -0.1522  0.1337 -2.8567
  562MOL0     H75856  10.473   8.670   7.300  2.0584 -1.4095  1.2743
  562MOL0     H75857  10.491   8.441   7.295  0.2315  0.4704  0.4505
  562MOL0     H75858  10.606   8.066   6.960 -2.0269  0.5573  1.3835
  562MOL0     H75859  10.634   7.838   6.947  0.4778  0.1990 -0.2934
  562MOL0     H75860  10.922   7.649   7.194  0.8614 -0.6817 -0.3718
  562MOL0     H75861  10.792   7.573   7.285  0.8632 -1.0852 -0.2123
  562MOL0     H75862  10.892   7.505   7.008 -1.8875 -1.5902 -0.7566
  562MOL0     H75863  10.753   7.429   7.078  0.6255  0.1982 -2.2781
  562MOL0     H75864  10.881   7.307   7.234 -2.4345  0.0050 -2.6070
  562MOL0     H75865  11.026   7.412   7.232  2.5697 -2.4542  0.8032
  562MOL0     H75866  11.060   7.358   6.996  3.1262 -0.9566  2.1902
  562MOL0     H75867  10.924   7.242   7.006  0.9441 -0.4876 -0.2202
  562MOL0     H75868  11.199   7.037   7.257  0.5032  0.6279  0.6052
  562MOL0     H75869  10.752   7.809   7.364  2.5422  0.7640  0.0569
  562MOL0     H75870  10.720   8.050   7.382 -2.2281  1.0746 -0.0532
  563MOL0     O75871   2.015   7.133   4.043 -0.5435 -0.5949 -0.5034
  563MOL0     C75872   2.050   7.199   4.139  0.2652 -0.3803  0.3053
  563MOL0     O75873   2.169   7.180   4.211  0.0197 -0.1780 -0.5817
  563MOL0     C75874   2.252   7.086   4.163 -0.9678  0.6618 -0.0098
  563MOL0     C75875   2.363   7.128   4.085 -0.0269  0.5632 -0.6637
  563MOL0     C75876   2.456   7.030   4.044 -0.4031  0.0322 -1.0455
  563MOL0     C75877   2.442   6.898   4.083 -0.6142  0.4460 -0.6084
  563MOL0     O75878   2.532   6.797   4.042 -0.0307  0.0033 -0.6346
  563MOL0     C75879   2.590   6.810   3.907  0.4019  0.3350 -1.8089
  563MOL0     C75880   2.633   6.667   3.866  0.1803 -0.3338  0.7015
  563MOL0     C75881   2.521   6.566   3.866 -0.1253  0.6053 -0.3066
  563MOL0     C75882   2.466   6.563   3.730  0.1802  0.8441  0.0396
  563MOL0     C75883   2.520   6.445   3.667  0.2056 -0.0734  0.1191
  563MOL0     C75884   2.477   6.437   3.528 -1.3540  0.4690 -0.1320
  563MOL0     C75885   2.549   6.333   3.448  0.3732 -0.1697  0.1795
  563MOL0     C75886   2.517   6.333   3.293 -0.4974  0.0232 -0.1508
  563MOL0     N75887   2.388   6.271   3.261 -0.8554 -0.5402  0.8049
  563MOL0     C75888   2.380   6.140   3.223  0.7717 -0.2038  0.5471
  563MOL0     C75889   2.253   6.111   3.198  0.4503  0.2900 -0.2920
  563MOL0     C75890   2.199   5.984   3.139  0.0159 -1.2326  0.7562
  563MOL0     C75891   2.059   5.949   3.175 -1.0240 -0.1617  0.0068
  563MOL0     C75892   2.014   5.830   3.085  0.5632  0.0314  0.0819
  563MOL0     C75893   1.860   5.805   3.062  0.2887 -0.3350 -0.3057
  563MOL0     O75894   1.794   5.769   3.184 -0.2674 -0.0444  0.0603
  563MOL0     C75895   1.672   5.713   3.195  0.2112 -0.5955  0.1544
  563MOL0     C75896   1.620   5.709   3.322  0.3154  0.6729  0.9210
  563MOL0     C75897   1.490   5.641   3.353 -0.7191 -0.4759 -0.5866
  563MOL0     C75898   1.450   5.646   3.497  0.4084  0.2628  0.4140
  563MOL0     C75899   1.412   5.592   3.251  0.5899  0.4004  0.5110
  563MOL0     C75900   1.289   5.507   3.273 -0.6763  0.2845  0.2685
  563MOL0     O75901   1.216   5.468   3.160  0.8812  0.6585 -0.4195
  563MOL0     C75902   1.096   5.408   3.177  0.6181  0.0644 -0.0733
  563MOL0     C75903   0.976   5.474   3.141  0.1403  0.3455  0.1286
  563MOL0     C75904   0.851   5.414   3.155 -0.1839  0.7786 -0.4447
  563MOL0     C75905   0.842   5.279   3.196  0.0227 -0.5564 -1.7116
  563MOL0     O75906   0.722   5.220   3.219  0.1291 -0.0175  0.2133
  563MOL0     C75907   0.634   5.212   3.108 -0.2262  0.0739  0.4451
  563MOL0     C75908   0.566   5.079   3.114 -0.1190  0.8680 -1.1083
  563MOL0     C75909   0.450   5.078   3.215 -0.3279  0.0358 -0.0962
  563MOL0     C75910   0.408   4.938   3.262 -0.6676 -0.1098  0.1521
  563MOL0     C75911   0.524   4.863   3.343  0.5034  0.6808 -0.0867
  563MOL0     C75912   0.476   4.735   3.409  0.2069  0.6821 -0.6312
  563MOL0     C75913   0.346   4.754   3.486 -0.6611 -0.5434 -0.1444
  563MOL0     C75914   0.326   4.629   3.578  0.7012  1.0247 -0.2037
  563MOL0    Cl75915   0.373   4.464   3.500  0.1638  0.1014  0.0846
  563MOL0     C75916   0.957   5.218   3.238  0.2630  0.0152  0.1485
  563MOL0     C75917   1.088   5.275   3.218  0.7157 -0.4638 -0.2567
  563MOL0     O75918   1.267   5.469   3.385  0.4930 -0.2454 -0.9749
  563MOL0     C75919   1.463   5.603   3.118 -0.2966  0.1001 -0.2022
  563MOL0     C75920   1.601   5.650   3.090  0.1533 -0.0863 -1.1759
  563MOL0     N75921   2.178   6.228   3.209 -0.7404 -0.6435 -1.1468
  563MOL0     N75922   2.260   6.320   3.258  0.2790  0.2148 -0.2365
  563MOL0     C75923   2.338   6.857   4.155 -0.5852  0.2147  0.6663
  563MOL0     C75924   2.236   6.952   4.191 -0.2330  1.0431  0.9993
  563MOL0     C75925   1.973   7.317   4.187  0.1474 -0.8671 -0.9510
  563MOL0     C75926   1.840   7.338   4.157 -0.0487 -0.9172  0.0829
  563MOL0     C75927   1.761   7.440   4.214  0.2233 -0.0339  0.4966
  563MOL0     C75928   1.815   7.535   4.294  0.1496 -0.8210 -0.1173
  563MOL0     O75929   1.729   7.626   4.350  0.1375  0.0693 -0.3058
  563MOL0     C75930   1.771   7.728   4.445 -0.3945  0.1978  0.0307
  563MOL0     C75931   1.640   7.781   4.515 -0.9567  0.0354  0.5002
  563MOL0     C75932   1.572   7.890   4.429 -0.4405  0.7636  0.1363
  563MOL0     C75933   1.462   7.843   4.349 -0.0415  0.7524 -0.0929
  563MOL0     C75934   1.433   7.931   4.237 -0.5938  1.1245  0.3352
  563MOL0     C75935   1.405   7.988   4.132 -0.6884  0.3169 -1.1504
  563MOL0     C75936   1.955   7.524   4.327 -1.1832  1.1811 -0.2525
  563MOL0     C75937   2.032   7.412   4.281 -0.8878  1.6041 -0.8183
  563MOL0     H75938   2.374   7.232   4.056 -2.2882  0.3719 -2.5635
  563MOL0     H75939   2.531   7.066   3.975 -0.2091  0.1354 -0.7810
  563MOL0     H75940   2.506   6.846   3.847  0.1769  1.1665 -1.0266
  563MOL0     H75941   2.676   6.878   3.907  0.5668  0.1356 -2.6287
  563MOL0     H75942   2.669   6.688   3.765 -1.2831  1.7244  0.5511
  563MOL0     H75943   2.712   6.627   3.930  1.7790 -0.2008 -1.1195
  563MOL0     H75944   2.543   6.466   3.905  4.8733  1.0704 -1.2768
  563MOL0     H75945   2.440   6.599   3.931  1.1317  1.9494  0.6633
  563MOL0     H75946   2.357   6.565   3.732  0.1675  0.0664  0.3584
  563MOL0     H75947   2.490   6.655   3.676 -2.1701  1.8535  0.6022
  563MOL0     H75948   2.629   6.450   3.668  0.1402  1.8920  0.5902
  563MOL0     H75949   2.487   6.358   3.724 -1.2657  1.3391  1.5028
  563MOL0     H75950   2.368   6.435   3.519 -1.7961  4.5217  1.7080
  563MOL0     H75951   2.492   6.533   3.478  0.3778  1.6821  2.4773
  563MOL0     H75952   2.656   6.354   3.447  0.5455 -1.0112 -0.0342
  563MOL0     H75953   2.549   6.232   3.490  0.9891 -0.4314 -0.4215
  563MOL0     H75954   2.600   6.273   3.255  1.6355  2.0762  1.0034
  563MOL0     H75955   2.523   6.434   3.251 -1.3215 -1.0963 -3.1925
  563MOL0     H75956   2.462   6.074   3.197  0.3611  0.3021 -2.4503
  563MOL0     H75957   2.207   6.011   3.033 -2.1640 -2.1304  0.3171
  563MOL0     H75958   2.271   5.906   3.165  0.2711 -0.3819  2.8695
  563MOL0     H75959   1.987   6.029   3.154 -1.6434 -0.4315  1.0749
  563MOL0     H75960   2.060   5.938   3.284 -2.4138  0.8155  0.1385
  563MOL0     H75961   2.060   5.740   3.128 -0.8288 -0.0733  1.4310
  563MOL0     H75962   2.056   5.847   2.985  1.2059  0.4795  0.4190
  563MOL0     H75963   1.844   5.714   3.003  2.7427 -0.6101 -0.6528
  563MOL0     H75964   1.828   5.897   3.011  1.3716 -0.0827 -0.5601
  563MOL0     H75965   1.676   5.754   3.403 -0.8937 -0.3292  2.3631
  563MOL0     H75966   1.518   5.710   3.553  0.6449 -1.0878  1.7643
  563MOL0     H75967   1.355   5.699   3.506  2.0189  3.2336  1.3545
  563MOL0     H75968   1.451   5.546   3.543 -1.2913 -0.3189 -0.7056
  563MOL0     H75969   0.978   5.568   3.087  2.8942  0.3390  0.0553
  563MOL0     H75970   0.761   5.457   3.114  1.0480  1.5484 -2.4947
  563MOL0     H75971   0.568   5.300   3.106 -0.1678  0.1378 -2.6594
  563MOL0     H75972   0.689   5.220   3.014  2.1208  4.4634  1.9082
  563MOL0     H75973   0.519   5.060   3.017 -0.4912  0.5032 -0.8602
  563MOL0     H75974   0.632   4.996   3.141 -1.6440 -0.5503 -1.5577
  563MOL0     H75975   0.363   5.130   3.173  0.6387 -0.1963 -2.4987
  563MOL0     H75976   0.465   5.135   3.308 -0.1436  2.3345 -1.4429
  563MOL0     H75977   0.316   4.944   3.321 -0.5884 -2.3471  0.6196
  563MOL0     H75978   0.374   4.889   3.170 -6.1419  1.9049  0.7215
  563MOL0     H75979   0.561   4.936   3.415 -0.0846  1.8177 -0.9038
  563MOL0     H75980   0.601   4.823   3.276  1.2860 -1.0131  1.7249
  563MOL0     H75981   0.478   4.650   3.340  0.9150 -0.8143  1.1476
  563MOL0     H75982   0.559   4.701   3.472  0.8659 -3.7473 -3.4577
  563MOL0     H75983   0.262   4.754   3.417  0.9141 -0.2441 -2.1683
  563MOL0     H75984   0.361   4.850   3.537  0.8144 -0.7714 -0.0830
  563MOL0     H75985   0.223   4.626   3.615  1.4533 -1.1604  2.0221
  563MOL0     H75986   0.394   4.643   3.663  2.1188  0.2316 -1.1691
  563MOL0     H75987   0.964   5.112   3.259 -1.3364 -0.4364 -1.3788
  563MOL0     H75988   1.180   5.221   3.237 -0.4573 -2.6227 -0.4297
  563MOL0     H75989   1.421   5.563   3.026  1.6668 -1.3063 -0.5476
  563MOL0     H75990   1.638   5.643   2.988  1.1268 -1.4688 -0.7577
  563MOL0     H75991   2.339   6.760   4.203  0.6839 -0.5500 -0.8311
  563MOL0     H75992   2.155   6.906   4.247  1.3566 -1.6222  1.2693
  563MOL0     H75993   1.803   7.259   4.093 -1.6536 -0.4823  0.4324
  563MOL0     H75994   1.653   7.437   4.198  0.4052  1.4654 -1.4432
  563MOL0     H75995   1.837   7.679   4.516  1.4188  0.0739 -1.6374
  563MOL0     H75996   1.821   7.809   4.390 -0.6927 -0.3956 -1.1496
  563MOL0     H75997   1.664   7.828   4.611  1.7775  0.2643 -0.2197
  563MOL0     H75998   1.578   7.693   4.532 -1.1269 -0.6420 -2.8790
  563MOL0     H75999   1.637   7.941   4.357 -2.3888  2.4002 -0.5497
  563MOL0     H76000   1.534   7.971   4.492  1.3673  0.9917  1.0266
  563MOL0     H76001   1.370   7.842   4.409  0.3901  0.7094  0.5795
  563MOL0     H76002   1.485   7.741   4.317  0.5579  0.9873 -0.4267
  563MOL0     H76003   1.377   8.025   4.035 -0.7127 -0.8261 -1.5869
  563MOL0     H76004   1.998   7.598   4.394 -1.3216 -0.8709  2.2512
  563MOL0     H76005   2.132   7.385   4.313 -2.3421 -1.0915  1.9314
  564MOL0     O76006   9.163   3.090   8.972  0.2398 -0.4664  0.0898
  564MOL0     C76007   9.136   3.187   8.893  0.8067 -0.0838  0.2395
  564MOL0     O76008   9.199   3.310   8.899  0.3384  0.0423  0.4678
  564MOL0     C76009   9.302   3.336   8.989  0.4171 -0.2148  0.2527
  564MOL0     C76010   9.400   3.243   9.021  0.0882  0.3765 -0.4625
  564MOL0     C76011   9.499   3.273   9.115 -0.2234 -1.6179 -0.2556
  564MOL0     C76012   9.517   3.400   9.168 -1.0293 -1.3409 -0.0391
  564MOL0     O76013   9.621   3.415   9.256 -0.3974 -0.0103  0.6656
  564MOL0     C76014   9.644   3.541   9.330  0.0099 -0.8063  0.1819
  564MOL0     C76015   9.730   3.638   9.251 -0.1628  1.1081  0.2655
  564MOL0     C76016   9.782   3.758   9.322 -0.7433  0.5716 -0.0143
  564MOL0     C76017   9.675   3.867   9.341 -0.5312  0.4209 -0.0598
  564MOL0     C76018   9.621   3.861   9.481  1.0041 -1.4178 -0.5731
  564MOL0     C76019   9.477   3.926   9.490  0.0591  0.0038 -0.0797
  564MOL0     C76020   9.456   3.960   9.639 -0.0028  0.3191  0.5761
  564MOL0     C76021   9.336   4.050   9.657 -0.3266  0.4322  0.3202
  564MOL0     N76022   9.208   3.984   9.614 -0.5191  0.2361  0.1526
  564MOL0     C76023   9.139   4.007   9.500 -0.3406  0.5682  0.8833
  564MOL0     C76024   9.034   3.920   9.507 -0.2156  1.1507  0.0754
  564MOL0     C76025   8.921   3.916   9.414 -0.0694 -0.7542  0.2243
  564MOL0     C76026   8.799   3.838   9.474 -0.0761 -0.4203  0.5283
  564MOL0     C76027   8.740   3.907   9.605 -0.3819 -0.7171 -1.0467
  564MOL0     C76028   8.590   3.906   9.621  0.5624 -0.3493  0.3821
  564MOL0     O76029   8.530   4.000   9.532 -0.4127  0.4019  0.1072
  564MOL0     C76030   8.548   4.127   9.566  0.1406  0.0758 -0.1735
  564MOL0     C76031   8.490   4.196   9.684  0.4905 -0.1359 -0.5823
  564MOL0     C76032   8.518   4.333   9.708 -0.3680 -0.3249  0.2529
  564MOL0     C76033   8.472   4.385   9.847  0.0809  0.2035  0.3220
  564MOL0     C76034   8.589   4.404   9.608  0.3189  0.1746  0.1247
  564MOL0     C76035   8.599   4.555   9.608  0.3930  0.2537  0.6876
  564MOL0     O76036   8.594   4.627   9.480  0.9887  1.1568 -0.1745
  564MOL0     C76037   8.620   4.755   9.470 -0.1871  0.1060 -0.1011
  564MOL0     C76038   8.516   4.842   9.435 -0.5359  0.6354 -0.1176
  564MOL0     C76039   8.539   4.976   9.418  0.0794  0.5826  0.3629
  564MOL0     C76040   8.663   5.029   9.433  0.2974  0.7341  0.4193
  564MOL0     O76041   8.683   5.164   9.419  0.4842 -0.2421 -0.0780
  564MOL0     C76042   8.725   5.227   9.539  0.3506 -0.8678  0.2768
  564MOL0     C76043   8.721   5.381   9.534  1.1518 -0.3263 -0.4698
  564MOL0     C76044   8.841   5.430   9.457  0.6300  0.2593  0.6442
  564MOL0     C76045   8.989   5.418   9.505  0.2517 -1.1372  0.3373
  564MOL0     C76046   9.086   5.487   9.406  0.2351  0.2309  0.1385
  564MOL0     C76047   9.228   5.534   9.442 -0.4277 -0.5729 -0.2034
  564MOL0     C76048   9.290   5.626   9.340 -0.1238 -0.5323  1.3939
  564MOL0     C76049   9.438   5.655   9.382 -0.2201  0.4329  0.8560
  564MOL0    Cl76050   9.553   5.694   9.239  0.5017 -0.1815 -0.6201
  564MOL0     C76051   8.779   4.943   9.453  0.2772  0.0561  0.4076
  564MOL0     C76052   8.752   4.805   9.484  0.2478 -0.2296  0.9790
  564MOL0     O76053   8.606   4.615   9.718 -0.2204  0.0070  0.1884
  564MOL0     C76054   8.632   4.339   9.495 -0.0359  0.8489 -0.6776
  564MOL0     C76055   8.607   4.201   9.470 -0.8166 -0.3437  0.2368
  564MOL0     N76056   9.047   3.847   9.624  0.3569  0.6800  0.4682
  564MOL0     N76057   9.152   3.884   9.692  0.7271  0.2697  0.2135
  564MOL0     C76058   9.419   3.499   9.129  0.0842  1.1694 -0.7612
  564MOL0     C76059   9.310   3.462   9.051  0.3765  0.1096  0.5568
  564MOL0     C76060   9.029   3.168   8.792 -0.3837  0.6894 -1.1835
  564MOL0     C76061   8.936   3.064   8.813 -0.5555 -0.1146 -0.3491
  564MOL0     C76062   8.839   3.033   8.724  0.9432 -0.1260  1.1990
  564MOL0     C76063   8.824   3.107   8.612  0.4890  0.1028 -0.5791
  564MOL0     O76064   8.725   3.090   8.516  0.6278 -0.0521  0.0730
  564MOL0     C76065   8.637   2.972   8.506 -0.3432  0.5973 -0.4129
  564MOL0     C76066   8.704   2.845   8.452 -0.6289 -0.3748  0.5398
  564MOL0     C76067   8.605   2.733   8.404  0.8601 -0.3416 -0.0056
  564MOL0     C76068   8.677   2.605   8.362  0.2410 -0.5618  0.4227
  564MOL0     C76069   8.583   2.496   8.347  0.2044  0.3324  0.0392
  564MOL0     C76070   8.515   2.398   8.316 -0.3777  0.2519 -0.3399
  564MOL0     C76071   8.904   3.219   8.593 -0.5377  0.8694 -0.4166
  564MOL0     C76072   9.009   3.250   8.682 -0.2005  0.3637 -0.9264
  564MOL0     H76073   9.396   3.153   8.959 -0.9417  0.8772 -1.1562
  564MOL0     H76074   9.565   3.188   9.129  2.3811  0.0023 -1.6928
  564MOL0     H76075   9.548   3.582   9.360  0.2851  1.7307 -2.0528
  564MOL0     H76076   9.706   3.535   9.420  0.4842  2.3340  0.1697
  564MOL0     H76077   9.814   3.586   9.205  0.7124  3.1882 -0.6006
  564MOL0     H76078   9.664   3.677   9.172 -1.5465 -0.3888  0.6264
  564MOL0     H76079   9.832   3.722   9.412 -2.2146 -1.5900  0.0168
  564MOL0     H76080   9.859   3.805   9.260 -0.0517  1.7894  1.6938
  564MOL0     H76081   9.739   3.954   9.320  2.6452 -2.1266 -1.9059
  564MOL0     H76082   9.601   3.856   9.261  1.0166 -1.1727 -1.3783
  564MOL0     H76083   9.600   3.758   9.509 -2.2958 -1.1340 -1.5614
  564MOL0     H76084   9.696   3.908   9.546  0.7538 -0.0438 -1.2427
  564MOL0     H76085   9.471   4.018   9.431  2.5380  1.3659  1.5927
  564MOL0     H76086   9.402   3.853   9.458  0.3343  0.2497 -1.3718
  564MOL0     H76087   9.442   3.870   9.699 -3.8585 -1.4028 -2.5145
  564MOL0     H76088   9.541   4.021   9.671 -1.5566  1.1769  3.4091
  564MOL0     H76089   9.364   4.139   9.598  0.0943  1.9295  2.6353
  564MOL0     H76090   9.336   4.071   9.764  1.8701  0.3441  0.3890
  564MOL0     H76091   9.147   4.078   9.418 -0.7875 -1.8637 -1.4104
  564MOL0     H76092   8.908   4.014   9.368  0.0175 -0.7277  0.2553
  564MOL0     H76093   8.942   3.851   9.328 -0.4743 -2.8329  1.6367
  564MOL0     H76094   8.832   3.735   9.492 -2.4249 -0.9605  2.2973
  564MOL0     H76095   8.724   3.837   9.394  0.1346 -0.1009  0.3254
  564MOL0     H76096   8.779   4.008   9.625 -1.1407 -0.7256  0.6570
  564MOL0     H76097   8.771   3.834   9.680 -1.0752 -0.9062 -0.9457
  564MOL0     H76098   8.571   3.940   9.724  0.3027 -3.9098  1.6416
  564MOL0     H76099   8.550   3.806   9.605  2.1962 -0.6499 -2.5912
  564MOL0     H76100   8.443   4.144   9.767  2.1773  1.5053  1.5694
  564MOL0     H76101   8.420   4.481   9.846  2.0361  1.3288  1.2657
  564MOL0     H76102   8.403   4.314   9.894 -3.5748  1.6241 -2.4237
  564MOL0     H76103   8.554   4.412   9.914  0.4865  1.9366 -0.8150
  564MOL0     H76104   8.416   4.803   9.418 -0.2427  0.8961 -3.0285
  564MOL0     H76105   8.462   5.047   9.390  1.7267  2.5056  0.5246
  564MOL0     H76106   8.662   5.199   9.624  1.0830  4.1621  2.8761
  564MOL0     H76107   8.828   5.196   9.561  1.1905  2.3355  1.4800
  564MOL0     H76108   8.620   5.401   9.499 -0.1317  1.8040  3.7462
  564MOL0     H76109   8.718   5.415   9.638 -0.3724 -0.8866 -0.3106
  564MOL0     H76110   8.813   5.535   9.449 -0.7437  0.0132  1.7516
  564MOL0     H76111   8.837   5.382   9.358  0.6645  1.0995  0.2252
  564MOL0     H76112   8.999   5.459   9.606 -0.0166 -0.9697  0.2963
  564MOL0     H76113   9.013   5.311   9.503 -4.4408 -2.4622  1.8163
  564MOL0     H76114   9.034   5.577   9.373 -0.4268 -0.3939 -0.5436
  564MOL0     H76115   9.084   5.421   9.319 -0.8707  4.2232 -3.2035
  564MOL0     H76116   9.235   5.571   9.545  1.5964 -1.3218 -0.0389
  564MOL0     H76117   9.298   5.450   9.443  0.1132 -0.2109  2.6288
  564MOL0     H76118   9.234   5.715   9.309 -1.1084 -2.2062 -2.1040
  564MOL0     H76119   9.294   5.580   9.241  4.8463  0.6243  0.8017
  564MOL0     H76120   9.490   5.567   9.420 -3.1830 -1.2543  1.3070
  564MOL0     H76121   9.439   5.733   9.458  2.1324  1.6054 -0.2645
  564MOL0     H76122   8.878   4.986   9.459  0.9280 -1.5424  3.1439
  564MOL0     H76123   8.838   4.740   9.490  0.5398 -0.0700 -0.8162
  564MOL0     H76124   8.682   4.396   9.418  1.8951 -0.3868 -0.4085
  564MOL0     H76125   8.647   4.150   9.383 -0.0995 -3.6037  2.3144
  564MOL0     H76126   9.423   3.599   9.170  0.6815 -0.1093  2.5809
  564MOL0     H76127   9.245   3.548   9.036  3.0630  2.3821  1.0505
  564MOL0     H76128   8.960   3.004   8.900 -2.4555  1.2869  1.2459
  564MOL0     H76129   8.777   2.945   8.738  1.6540 -1.4433 -2.6774
  564MOL0     H76130   8.598   2.946   8.605  3.7710  2.0896  1.8312
  564MOL0     H76131   8.553   2.999   8.441 -1.8450 -1.2208  0.6786
  564MOL0     H76132   8.774   2.812   8.529  2.2603  1.6734 -1.0163
  564MOL0     H76133   8.763   2.871   8.363  2.2151 -2.2530  1.7101
  564MOL0     H76134   8.562   2.768   8.310 -0.6170 -2.6163 -0.2398
  564MOL0     H76135   8.523   2.722   8.476 -0.5657  2.3213 -1.0641
  564MOL0     H76136   8.730   2.581   8.455 -3.3199 -2.2371  2.2379
  564MOL0     H76137   8.754   2.609   8.284 -1.4822  0.9990 -1.2875
  564MOL0     H76138   8.471   2.303   8.291  0.0410  0.0407 -0.2753
  564MOL0     H76139   8.901   3.270   8.496  0.4104 -1.1880 -1.5897
  564MOL0     H76140   9.073   3.337   8.673 -2.9450  2.6325  0.0548
  565MOL0     O76141   5.624   5.695   7.635  0.1922 -0.8621  0.2732
  565MOL0     C76142   5.736   5.643   7.610  0.1435 -0.9116  0.4172
  565MOL0     O76143   5.766   5.522   7.547  0.0774  0.9320  0.3940
  565MOL0     C76144   5.671   5.440   7.486 -0.1928  0.4793  0.4684
  565MOL0     C76145   5.539   5.445   7.505 -0.0662 -0.2279  0.1228
  565MOL0     C76146   5.459   5.335   7.465 -0.1705 -0.0326 -1.3349
  565MOL0     C76147   5.513   5.234   7.385  0.2199 -0.6248 -0.2556
  565MOL0     O76148   5.424   5.132   7.344 -0.4758 -0.6852 -0.5664
  565MOL0     C76149   5.435   5.052   7.230  0.2729  0.1755  0.0749
  565MOL0     C76150   5.346   4.915   7.251 -0.9843  0.0836 -0.2577
  565MOL0     C76151   5.202   4.942   7.228 -0.3015 -0.6111 -0.3537
  565MOL0     C76152   5.181   4.970   7.080  0.0821 -0.5623  0.5601
  565MOL0     C76153   5.040   4.942   7.042  0.2654  0.4901  0.1049
  565MOL0     C76154   4.932   5.054   7.051  0.6985 -0.2606  0.5048
  565MOL0     C76155   4.942   5.160   6.932  0.9330 -0.0715  0.1150
  565MOL0     C76156   4.821   5.267   6.928 -0.5858  1.5403  0.3457
  565MOL0     N76157   4.838   5.330   6.784  0.5226 -0.5378 -0.3925
  565MOL0     C76158   4.904   5.454   6.773  0.3031  0.1408 -0.5463
  565MOL0     C76159   4.901   5.483   6.642 -0.3406 -0.8861 -0.6176
  565MOL0     C76160   4.949   5.616   6.588 -0.2374  0.9890  0.6966
  565MOL0     C76161   4.857   5.736   6.619 -0.8829 -0.5810  1.0101
  565MOL0     C76162   4.735   5.730   6.530 -0.2037 -0.5720 -0.0435
  565MOL0     C76163   4.629   5.822   6.575  0.8139 -1.0107 -0.7948
  565MOL0     O76164   4.527   5.823   6.474 -1.0993  0.2489 -1.2425
  565MOL0     C76165   4.445   5.933   6.469  0.5495 -0.4423  0.5977
  565MOL0     C76166   4.363   5.951   6.361  0.7106 -0.7831 -0.0685
  565MOL0     C76167   4.274   6.062   6.357 -0.2822  0.5085 -0.3126
  565MOL0     C76168   4.184   6.068   6.233 -0.1151 -0.2360 -0.3449
  565MOL0     C76169   4.268   6.162   6.464 -0.5823  0.6176 -0.1709
  565MOL0     C76170   4.173   6.283   6.465 -0.4890  0.9713 -0.1105
  565MOL0     O76171   4.113   6.320   6.353  0.7374  0.5985 -0.0487
  565MOL0     C76172   4.042   6.438   6.333 -0.5712 -0.1041  0.0304
  565MOL0     C76173   3.965   6.497   6.425  0.7004  0.3776 -1.1768
  565MOL0     C76174   3.895   6.619   6.401 -0.3264  0.1457  0.6703
  565MOL0     C76175   3.933   6.689   6.279 -0.3459  0.0331 -0.6828
  565MOL0     O76176   3.892   6.817   6.248  0.7151  0.0398  0.3911
  565MOL0     C76177   3.778   6.879   6.312  0.9674  0.3986 -0.0224
  565MOL0     C76178   3.724   6.995   6.247  0.6632 -0.1841 -0.1199
  565MOL0     C76179   3.828   7.117   6.228 -0.1052 -0.2842  0.4775
  565MOL0     C76180   3.759   7.250   6.187 -0.4359  0.1668 -0.8055
  565MOL0     C76181   3.711   7.256   6.043 -0.5022  0.1062 -0.1052
  565MOL0     C76182   3.717   7.400   5.999  0.0962 -0.1368 -0.5824
  565MOL0     C76183   3.678   7.402   5.847  0.0866 -0.7871 -0.5027
  565MOL0     C76184   3.723   7.530   5.786 -0.2589 -0.3916  0.2020
  565MOL0    Cl76185   3.704   7.682   5.892  0.2346  0.2836 -0.7239
  565MOL0     C76186   4.023   6.631   6.193 -0.2744 -0.8292  0.7036
  565MOL0     C76187   4.080   6.513   6.219  0.6805  0.0164  0.2141
  565MOL0     O76188   4.152   6.332   6.575 -0.7655  0.0429  0.1907
  565MOL0     C76189   4.357   6.146   6.574  0.0657 -0.2906  0.3734
  565MOL0     C76190   4.434   6.034   6.575  0.9929 -0.3821  0.5179
  565MOL0     N76191   4.845   5.375   6.571 -0.0373 -0.6015 -0.0555
  565MOL0     N76192   4.809   5.279   6.659 -0.0388  1.2746 -0.0133
  565MOL0     C76193   5.645   5.237   7.341 -0.8409  0.0605 -0.4371
  565MOL0     C76194   5.725   5.338   7.402  0.2983 -0.5382  0.6561
  565MOL0     C76195   5.855   5.710   7.659 -0.1989  0.2144 -0.4369
  565MOL0     C76196   5.836   5.821   7.744  0.4840  0.2450  0.3594
  565MOL0     C76197   5.945   5.878   7.810 -0.4329 -0.1862 -0.1894
  565MOL0     C76198   6.077   5.838   7.781 -0.2917 -0.3030 -0.2033
  565MOL0     O76199   6.186   5.894   7.837 -0.8660  0.2831  0.5147
  565MOL0     C76200   6.189   5.961   7.962  0.7969  0.4704  0.5877
  565MOL0     C76201   6.325   5.952   8.032 -0.1015  1.1487  0.2991
  565MOL0     C76202   6.297   6.004   8.175 -0.3211 -0.0681 -0.3334
  565MOL0     C76203   6.433   6.000   8.259  0.3940 -0.3001  0.3831
  565MOL0     C76204   6.535   6.106   8.213 -0.1130 -0.2585  0.0331
  565MOL0     C76205   6.614   6.184   8.168  0.4558 -0.2995  0.2874
  565MOL0     C76206   6.096   5.737   7.693  0.5946  1.2555  0.2798
  565MOL0     C76207   5.990   5.665   7.633  0.3617 -0.1288 -0.3866
  565MOL0     H76208   5.475   5.506   7.569 -2.9165  0.5653 -3.1769
  565MOL0     H76209   5.355   5.326   7.494  0.8765 -1.1743  2.7087
  565MOL0     H76210   5.401   5.122   7.152  3.3434  0.2078 -1.4264
  565MOL0     H76211   5.543   5.035   7.217  0.7170  3.3927 -1.4929
  565MOL0     H76212   5.385   4.831   7.192 -1.4477 -2.8284  3.1905
  565MOL0     H76213   5.361   4.866   7.348  0.6480 -0.8433 -0.9186
  565MOL0     H76214   5.162   4.851   7.273 -1.5273 -0.2294 -0.6224
  565MOL0     H76215   5.160   5.018   7.295  0.1256 -1.0193  0.3839
  565MOL0     H76216   5.198   5.076   7.060 -1.4171 -0.5355 -0.6905
  565MOL0     H76217   5.254   4.914   7.020  0.5594 -0.3321  0.9155
  565MOL0     H76218   5.041   4.893   6.944  3.1644 -0.1069  0.3282
  565MOL0     H76219   5.025   4.864   7.117  0.8645 -1.1588 -1.4276
  565MOL0     H76220   4.829   5.018   7.050  0.8035 -0.5967  1.2208
  565MOL0     H76221   4.941   5.099   7.151 -0.4248  2.6234 -0.5913
  565MOL0     H76222   5.041   5.206   6.928  0.7355  0.2761 -1.9825
  565MOL0     H76223   4.939   5.105   6.837  0.0574 -0.1945  0.2057
  565MOL0     H76224   4.827   5.338   7.011 -0.6233  1.5892  0.3064
  565MOL0     H76225   4.728   5.211   6.934  0.3710 -0.3838 -1.5154
  565MOL0     H76226   4.929   5.518   6.857  0.2851  1.5254 -1.5626
  565MOL0     H76227   5.040   5.644   6.643  0.2796  1.8102 -0.5391
  565MOL0     H76228   4.973   5.604   6.482  0.6784  0.2446  0.9771
  565MOL0     H76229   4.914   5.827   6.598  2.5709 -2.4245  1.4772
  565MOL0     H76230   4.836   5.739   6.726  3.7650 -2.4364  2.2649
  565MOL0     H76231   4.698   5.627   6.533  0.1346 -0.6770  0.8451
  565MOL0     H76232   4.755   5.759   6.427 -0.5995 -0.9750 -0.2359
  565MOL0     H76233   4.664   5.925   6.589  0.9414 -1.3671  2.4480
  565MOL0     H76234   4.579   5.792   6.668 -1.7987  1.3209 -1.3188
  565MOL0     H76235   4.359   5.873   6.285 -1.1474  0.1914 -1.0274
  565MOL0     H76236   4.081   6.038   6.253 -0.3050 -0.3381 -1.4376
  565MOL0     H76237   4.182   6.161   6.176 -2.0834  0.7047  1.1506
  565MOL0     H76238   4.226   5.995   6.164  0.6688 -0.0091 -0.1238
  565MOL0     H76239   3.951   6.439   6.516 -3.5487 -2.7332 -3.4484
  565MOL0     H76240   3.812   6.644   6.466 -1.8778  1.6756 -1.7446
  565MOL0     H76241   3.701   6.801   6.312  1.9830 -0.6446  0.9004
  565MOL0     H76242   3.806   6.907   6.414 -0.5151  2.3639 -0.0819
  565MOL0     H76243   3.699   6.974   6.142 -0.4236  0.7988 -0.0827
  565MOL0     H76244   3.630   7.026   6.293  0.4834  0.9044 -1.1527
  565MOL0     H76245   3.910   7.103   6.157  1.5461  4.1298  1.2112
  565MOL0     H76246   3.861   7.121   6.332  0.1184 -2.5685  0.5358
  565MOL0     H76247   3.666   7.252   6.245 -0.7784 -0.5152 -1.3234
  565MOL0     H76248   3.827   7.335   6.195  0.1541 -0.2774 -1.0149
  565MOL0     H76249   3.614   7.206   6.035  0.0590 -1.0615  0.1718
  565MOL0     H76250   3.785   7.199   5.986  2.3957  3.1637  0.3244
  565MOL0     H76251   3.643   7.458   6.055  1.3727  1.1512 -0.1923
  565MOL0     H76252   3.822   7.430   6.008  0.9514 -2.6408 -1.3735
  565MOL0     H76253   3.570   7.387   5.833  0.0695 -0.1824 -1.0396
  565MOL0     H76254   3.714   7.317   5.788  1.5844  0.9447 -2.2270
  565MOL0     H76255   3.669   7.543   5.692  1.0964 -1.5349 -0.7832
  565MOL0     H76256   3.830   7.519   5.762 -0.2359  0.3477 -0.0633
  565MOL0     H76257   4.056   6.691   6.110 -0.7441 -2.2530 -0.5640
  565MOL0     H76258   4.155   6.471   6.153  1.4942 -0.8620  1.6341
  565MOL0     H76259   4.349   6.216   6.656 -0.2050  0.7500 -0.5292
  565MOL0     H76260   4.469   6.021   6.677 -1.1346 -0.3147  1.3104
  565MOL0     H76261   5.699   5.167   7.278  0.5538  4.0491 -4.1257
  565MOL0     H76262   5.829   5.339   7.371  0.6790  0.4127  1.8893
  565MOL0     H76263   5.737   5.861   7.766 -1.4162 -1.3032 -4.1298
  565MOL0     H76264   5.928   5.950   7.890 -1.4751  1.3734 -1.7575
  565MOL0     H76265   6.169   6.069   7.956 -2.7643  0.3208  4.9085
  565MOL0     H76266   6.114   5.908   8.020  0.9135 -2.2492 -1.5777
  565MOL0     H76267   6.401   6.015   7.985  0.6941 -0.3801 -0.5208
  565MOL0     H76268   6.364   5.851   8.023  0.9110  1.4488  1.0794
  565MOL0     H76269   6.232   5.933   8.228  1.2101 -0.6930  0.7751
  565MOL0     H76270   6.254   6.105   8.173  1.3243  0.6686  0.2323
  565MOL0     H76271   6.485   5.906   8.241  1.3144  0.4261 -0.8501
  565MOL0     H76272   6.412   6.010   8.366 -1.0267 -0.6349  0.1640
  565MOL0     H76273   6.691   6.234   8.112  0.3358 -1.6468 -1.1604
  565MOL0     H76274   6.195   5.697   7.676 -0.1958 -0.4412 -0.6396
  565MOL0     H76275   6.017   5.579   7.572 -1.2005 -0.7191 -0.2956
  566MOL0     O76276   1.365   6.517   7.875  0.0335 -0.3840  0.1153
  566MOL0     C76277   1.432   6.571   7.782  0.0412 -0.0256 -0.5725
  566MOL0     O76278   1.546   6.648   7.805 -0.1552  0.3732 -0.4190
  566MOL0     C76279   1.584   6.652   7.937  0.0904 -0.5827 -0.1759
  566MOL0     C76280   1.499   6.705   8.036  0.3474 -0.0536  0.9621
  566MOL0     C76281   1.536   6.725   8.166 -0.2230  0.4102  0.3781
  566MOL0     C76282   1.672   6.691   8.200  0.4995  0.3505 -0.0387
  566MOL0     O76283   1.711   6.694   8.333  0.5985 -0.6720  0.3623
  566MOL0     C76284   1.825   6.613   8.375  0.1001  0.0939 -0.0663
  566MOL0     C76285   1.788   6.565   8.512  0.0713 -0.8076  0.9430
  566MOL0     C76286   1.803   6.681   8.615  0.1608  0.7205  0.6272
  566MOL0     C76287   1.790   6.620   8.756  0.2955  0.3967  0.1266
  566MOL0     C76288   1.772   6.731   8.859  0.1812  0.3367 -0.6000
  566MOL0     C76289   1.758   6.664   8.999 -0.1473  0.1916 -0.7817
  566MOL0     C76290   1.896   6.631   9.066  0.2148  0.3523  0.6668
  566MOL0     C76291   1.882   6.601   9.215  0.5021 -0.4052 -0.5572
  566MOL0     N76292   2.013   6.538   9.245  0.0140 -0.1098  1.0067
  566MOL0     C76293   2.140   6.556   9.188  0.8463  0.5122 -0.4011
  566MOL0     C76294   2.228   6.486   9.259  0.4820 -0.1745  0.4589
  566MOL0     C76295   2.377   6.472   9.230 -0.2249  0.0393 -0.8200
  566MOL0     C76296   2.463   6.578   9.308 -0.7151 -0.7725  0.8884
  566MOL0     C76297   2.443   6.594   9.461 -0.2524 -0.2007  1.3039
  566MOL0     C76298   2.564   6.677   9.503  0.3550 -0.4340  0.3904
  566MOL0     O76299   2.543   6.718   9.635  0.1688  0.3177  0.3344
  566MOL0     C76300   2.439   6.804   9.663  0.3542 -0.6108  0.2659
  566MOL0     C76301   2.363   6.877   9.578 -0.2556  0.0123  0.6243
  566MOL0     C76302   2.259   6.972   9.610  0.2681 -0.2427 -0.0892
  566MOL0     C76303   2.181   7.058   9.509 -0.1639  1.1755 -0.2016
  566MOL0     C76304   2.243   6.999   9.750 -0.0938 -0.0714  0.6022
  566MOL0     C76305   2.149   7.098   9.797 -0.9355  0.4432  0.0190
  566MOL0     O76306   2.194   7.231   9.787  0.3005  0.1878 -0.9321
  566MOL0     C76307   2.110   7.339   9.833 -0.9298 -0.5887 -0.0125
  566MOL0     C76308   1.977   7.354   9.822 -0.4351 -0.1357  0.2187
  566MOL0     C76309   1.913   7.466   9.858 -0.4903  0.2202  0.3579
  566MOL0     C76310   1.983   7.576   9.915 -0.0899 -0.2076 -0.6598
  566MOL0     O76311   1.912   7.685   9.952  0.0584  0.1600  1.2947
  566MOL0     C76312   1.983   7.802   9.997 -0.4324 -0.4646  0.9268
  566MOL0     C76313   1.897   7.893  10.067 -0.6858 -1.0876 -0.0857
  566MOL0     C76314   1.836   7.821  10.182  0.0523  0.0409  0.1444
  566MOL0     C76315   1.741   7.924  10.254 -1.0855  0.5438  0.2650
  566MOL0     C76316   1.644   7.858  10.362  0.2437  0.6011  0.6932
  566MOL0     C76317   1.716   7.806  10.481 -0.2358  0.3381 -0.8740
  566MOL0     C76318   1.806   7.922  10.554  0.4187 -0.6681  0.3943
  566MOL0     C76319   1.731   8.045  10.590 -0.5796 -0.1192  0.3355
  566MOL0    Cl76320   1.583   8.010  10.693  0.2028 -0.3075  0.0276
  566MOL0     C76321   2.125   7.560   9.926  0.3242 -0.1684 -0.9254
  566MOL0     C76322   2.185   7.444   9.874 -0.2895 -0.7108  0.3032
  566MOL0     O76323   2.046   7.061   9.852  1.1016  0.2326  0.1359
  566MOL0     C76324   2.320   6.923   9.838 -0.5647  0.3565 -0.2842
  566MOL0     C76325   2.418   6.825   9.793  0.2241  0.0984 -0.2885
  566MOL0     N76326   2.159   6.438   9.372  0.2244 -0.0745  0.6817
  566MOL0     N76327   2.033   6.454   9.354  0.0285 -0.0529 -0.4078
  566MOL0     C76328   1.761   6.649   8.094 -0.3759  0.3103 -0.3527
  566MOL0     C76329   1.715   6.615   7.968  0.1524  0.1664  0.3009
  566MOL0     C76330   1.390   6.568   7.645  0.0318 -0.4430  0.8594
  566MOL0     C76331   1.265   6.511   7.601  1.0255 -0.4355  0.0339
  566MOL0     C76332   1.228   6.510   7.465  0.5168 -0.0985  0.0017
  566MOL0     C76333   1.307   6.569   7.376  0.1625 -0.3698 -0.2587
  566MOL0     O76334   1.259   6.594   7.247 -0.2169  0.8993  0.0735
  566MOL0     C76335   1.135   6.671   7.242  0.1733  0.8031  0.6555
  566MOL0     C76336   1.107   6.698   7.104 -1.1906 -0.1355  0.1522
  566MOL0     C76337   1.216   6.806   7.058  0.2377  1.6517 -0.9841
  566MOL0     C76338   1.157   6.936   7.021 -0.3095 -0.4669  1.1657
  566MOL0     C76339   1.129   6.948   6.877 -0.0343  1.0274 -0.5617
  566MOL0     C76340   1.123   6.948   6.752 -0.1968 -0.2907  0.3069
  566MOL0     C76341   1.432   6.627   7.406  0.2473 -0.2340  0.3827
  566MOL0     C76342   1.475   6.623   7.545  1.2845 -0.2413  0.3617
  566MOL0     H76343   1.397   6.738   8.015  0.3750  0.3614  1.4610
  566MOL0     H76344   1.479   6.763   8.251 -0.4614 -1.7824  1.2536
  566MOL0     H76345   1.842   6.524   8.313 -1.0410 -0.5483  0.5058
  566MOL0     H76346   1.923   6.661   8.372  1.8119 -2.9754 -4.2451
  566MOL0     H76347   1.682   6.537   8.511  0.0117 -0.6178  1.8536
  566MOL0     H76348   1.842   6.475   8.543 -1.8466 -1.8846  1.3912
  566MOL0     H76349   1.899   6.730   8.602 -0.3650  2.3299  2.3909
  566MOL0     H76350   1.719   6.749   8.600 -0.9923 -0.9477 -1.0795
  566MOL0     H76351   1.697   6.563   8.752 -0.6656  1.9847 -1.2239
  566MOL0     H76352   1.862   6.542   8.784 -1.6792 -1.7071 -0.2926
  566MOL0     H76353   1.856   6.800   8.846 -0.6584  1.6676  0.7389
  566MOL0     H76354   1.680   6.784   8.836  0.0738  2.2651  3.4597
  566MOL0     H76355   1.717   6.744   9.062 -1.6882 -0.1452 -1.3082
  566MOL0     H76356   1.683   6.586   8.987 -0.4058 -0.1256  2.2821
  566MOL0     H76357   1.946   6.550   9.012 -1.8054 -1.3628  1.2215
  566MOL0     H76358   1.961   6.718   9.055  0.0600  0.8001  2.8085
  566MOL0     H76359   1.800   6.531   9.237 -0.0811 -0.1015 -1.7062
  566MOL0     H76360   1.868   6.688   9.280 -1.9580 -1.2218  0.1512
  566MOL0     H76361   2.156   6.622   9.103  2.7688  1.9018  0.9552
  566MOL0     H76362   2.410   6.374   9.267 -3.2736 -0.1337  1.9355
  566MOL0     H76363   2.411   6.467   9.127 -1.5350 -1.3846 -1.2245
  566MOL0     H76364   2.433   6.675   9.268  3.4233 -0.7796 -3.0469
  566MOL0     H76365   2.568   6.562   9.282 -0.5695  1.5275 -0.1113
  566MOL0     H76366   2.442   6.495   9.507  0.3051  0.1978  2.2020
  566MOL0     H76367   2.348   6.643   9.482  0.1676  0.9541  0.6264
  566MOL0     H76368   2.575   6.761   9.434 -2.1648  0.3831  0.8656
  566MOL0     H76369   2.664   6.632   9.495  1.0481  1.3273 -2.0708
  566MOL0     H76370   2.392   6.872   9.473 -2.5377  2.1102 -0.2118
  566MOL0     H76371   2.190   7.018   9.407  0.8649  0.2183  0.2521
  566MOL0     H76372   2.073   7.049   9.526 -0.1336  0.3541 -0.4340
  566MOL0     H76373   2.227   7.157   9.502  0.6998  0.7605 -0.5524
  566MOL0     H76374   1.920   7.276   9.773 -1.5437  0.6031  0.2999
  566MOL0     H76375   1.808   7.483   9.836 -0.1551 -0.2372 -1.8040
  566MOL0     H76376   2.067   7.767  10.058 -0.9411 -0.8499  1.4095
  566MOL0     H76377   2.019   7.846   9.903 -0.2820 -1.4902  0.4969
  566MOL0     H76378   1.951   7.983  10.096 -1.6947  0.1323 -1.8492
  566MOL0     H76379   1.819   7.920   9.995 -1.7982 -1.0707  1.0958
  566MOL0     H76380   1.903   7.780  10.258 -3.9403  1.7829  5.1155
  566MOL0     H76381   1.771   7.737  10.160 -1.2391  0.6009  1.6624
  566MOL0     H76382   1.808   8.001  10.294  0.0109  0.3517 -1.1195
  566MOL0     H76383   1.683   7.968  10.173 -3.6435  1.2690  2.3545
  566MOL0     H76384   1.597   7.769  10.319 -1.5848  1.2116  1.3221
  566MOL0     H76385   1.573   7.938  10.388  2.8780  3.7400 -1.0350
  566MOL0     H76386   1.633   7.780  10.548 -0.6981  1.6123 -0.9278
  566MOL0     H76387   1.760   7.707  10.464  2.0692  0.4631  3.0816
  566MOL0     H76388   1.893   7.940  10.491 -1.9294  0.3362 -2.8534
  566MOL0     H76389   1.838   7.876  10.647  3.3233  2.2643  1.0229
  566MOL0     H76390   1.696   8.098  10.502 -1.2236  1.9242  1.7516
  566MOL0     H76391   1.794   8.120  10.640 -0.3915 -0.9762  1.4294
  566MOL0     H76392   2.187   7.645   9.953 -0.3766  0.7060 -2.0035
  566MOL0     H76393   2.292   7.428   9.883 -0.4417 -1.1537  1.4899
  566MOL0     H76394   2.306   6.956   9.940 -1.5569 -2.7190  0.6781
  566MOL0     H76395   2.488   6.782   9.864 -2.5413  0.7660  3.1585
  566MOL0     H76396   1.856   6.612   8.132 -1.1823  0.0669  1.5658
  566MOL0     H76397   1.788   6.580   7.896 -1.2653 -0.2937 -0.9611
  566MOL0     H76398   1.194   6.475   7.675  0.0361  1.5292  0.1161
  566MOL0     H76399   1.130   6.486   7.425  0.5795  3.0484 -2.4620
  566MOL0     H76400   1.046   6.630   7.289  2.0603 -0.7885  3.0930
  566MOL0     H76401   1.150   6.761   7.303 -2.3304  2.3147 -0.8062
  566MOL0     H76402   1.002   6.725   7.093 -1.1838  0.2407  0.9079
  566MOL0     H76403   1.125   6.607   7.047 -0.5151  1.2605 -1.9912
  566MOL0     H76404   1.278   6.749   6.988 -1.3209  0.0722 -1.1370
  566MOL0     H76405   1.281   6.812   7.146  0.5276 -3.5720 -0.5214
  566MOL0     H76406   1.243   6.999   7.047  0.4979 -0.5437 -1.1194
  566MOL0     H76407   1.064   6.962   7.073 -1.7228 -1.1299 -0.9420
  566MOL0     H76408   1.111   6.932   6.647 -2.2040 -1.8976  0.7164
  566MOL0     H76409   1.484   6.685   7.331 -1.5119  2.2148  0.9136
  566MOL0     H76410   1.579   6.644   7.566  1.9491 -3.7062  1.0253
  567MOL0     O76411   5.191   7.990   9.791  0.4605  0.0638  0.2042
  567MOL0     C76412   5.186   8.078   9.707  0.3806 -0.3697 -0.6438
  567MOL0     O76413   5.233   8.067   9.581  0.6923 -0.4699  0.4972
  567MOL0     C76414   5.321   7.963   9.556  0.8183  0.0967  0.2446
  567MOL0     C76415   5.449   7.969   9.616  1.4620 -0.4686 -0.6099
  567MOL0     C76416   5.541   7.874   9.571 -0.1291 -0.1571 -0.0449
  567MOL0     C76417   5.517   7.784   9.471 -0.5464  0.2671 -0.2972
  567MOL0     O76418   5.618   7.690   9.456  0.1883  0.8324  0.1910
  567MOL0     C76419   5.575   7.553   9.465  0.3278 -0.6322  0.1167
  567MOL0     C76420   5.676   7.454   9.530 -0.5698  0.5469  0.2406
  567MOL0     C76421   5.820   7.438   9.464  0.0832 -0.3989  0.5600
  567MOL0     C76422   5.912   7.570   9.446  0.2826 -0.0935 -0.1205
  567MOL0     C76423   6.053   7.573   9.388 -0.6801 -0.6422  0.4994
  567MOL0     C76424   6.154   7.482   9.453 -0.0544  0.1283  0.0556
  567MOL0     C76425   6.307   7.512   9.426 -0.6337 -0.2081  1.1997
  567MOL0     C76426   6.400   7.413   9.487  0.7348 -0.3722 -0.0076
  567MOL0     N76427   6.409   7.294   9.406 -0.1947  0.1890  0.5313
  567MOL0     C76428   6.462   7.287   9.277 -0.2874  0.4273 -0.3725
  567MOL0     C76429   6.512   7.155   9.277  0.5834  0.4047  0.4379
  567MOL0     C76430   6.569   7.108   9.146 -0.2179  0.1219  0.1587
  567MOL0     C76431   6.468   7.041   9.055 -0.6170  0.1479  0.4498
  567MOL0     C76432   6.432   6.896   9.097 -0.9177 -0.9397 -0.4285
  567MOL0     C76433   6.396   6.811   8.971  1.0307  0.5796  0.0040
  567MOL0     O76434   6.371   6.675   9.033  0.2455  0.2708  0.2378
  567MOL0     C76435   6.249   6.629   9.076 -0.0549  0.9311 -0.4547
  567MOL0     C76436   6.246   6.488   9.100 -0.5492 -0.1490  0.6731
  567MOL0     C76437   6.131   6.421   9.127 -0.3890 -0.7317 -1.1293
  567MOL0     C76438   6.140   6.272   9.123 -0.6823  0.1201  0.4255
  567MOL0     C76439   6.018   6.490   9.141 -0.0940 -0.3612 -0.9703
  567MOL0     C76440   5.893   6.426   9.182 -0.2779  0.2616 -0.0233
  567MOL0     O76441   5.888   6.328   9.278 -1.2224 -1.0297 -0.3310
  567MOL0     C76442   5.770   6.266   9.296  0.5214  0.0462 -0.0810
  567MOL0     C76443   5.723   6.172   9.214 -0.3995 -0.1442  0.6767
  567MOL0     C76444   5.599   6.108   9.231  0.0874  0.8037  0.0975
  567MOL0     C76445   5.522   6.126   9.351  0.1601  0.7873  0.1517
  567MOL0     O76446   5.401   6.058   9.359  0.2562 -0.1210 -0.3376
  567MOL0     C76447   5.295   6.116   9.437 -1.3295  0.1626 -0.3177
  567MOL0     C76448   5.160   6.079   9.388  0.0178 -0.7411 -0.6564
  567MOL0     C76449   5.020   6.077   9.459 -0.7986 -0.3562 -0.2438
  567MOL0     C76450   5.001   6.218   9.529 -0.0101 -0.6000 -1.1549
  567MOL0     C76451   4.979   6.336   9.434 -0.0711  0.3520 -0.3221
  567MOL0     C76452   5.016   6.467   9.503  1.1222 -0.5366  0.1053
  567MOL0     C76453   5.167   6.506   9.509 -0.6027  0.5973  0.5735
  567MOL0     C76454   5.193   6.639   9.592 -0.4851  0.4558 -0.4423
  567MOL0    Cl76455   5.124   6.649   9.754  0.0207  0.3631  0.1249
  567MOL0     C76456   5.570   6.229   9.435  1.0861  0.1201 -0.4531
  567MOL0     C76457   5.684   6.293   9.402 -0.2858  0.4104 -0.6474
  567MOL0     O76458   5.792   6.472   9.121 -0.4174  0.5774  0.1132
  567MOL0     C76459   6.019   6.634   9.125 -0.5087 -0.0825  0.3831
  567MOL0     C76460   6.134   6.707   9.083  0.1519  0.1035 -0.9448
  567MOL0     N76461   6.492   7.094   9.391  0.1733 -0.1746  0.0225
  567MOL0     N76462   6.418   7.174   9.466  0.2995  0.1821 -0.0472
  567MOL0     C76463   5.385   7.779   9.424 -0.3723 -0.1122  0.2821
  567MOL0     C76464   5.287   7.865   9.470 -0.2700 -0.4694 -0.0464
  567MOL0     C76465   5.104   8.194   9.755  0.4527  0.5883  0.6312
  567MOL0     C76466   5.018   8.184   9.866 -1.0266  0.1368 -0.4300
  567MOL0     C76467   4.955   8.305   9.918  0.0544 -0.7058  0.3004
  567MOL0     C76468   4.993   8.429   9.872 -0.5303  0.4548 -0.0815
  567MOL0     O76469   4.931   8.541   9.927 -0.6095  0.0582  0.0090
  567MOL0     C76470   4.947   8.670   9.859 -0.5236  0.1518 -0.2671
  567MOL0     C76471   4.872   8.687   9.725 -0.0193 -0.1589  0.1713
  567MOL0     C76472   4.920   8.820   9.658 -0.0202 -0.3634  0.2980
  567MOL0     C76473   4.828   8.852   9.539  0.7857 -0.1044  0.0873
  567MOL0     C76474   4.709   8.922   9.579  0.4433 -0.2974  0.2739
  567MOL0     C76475   4.622   8.979   9.643  0.1014 -0.6850  0.2867
  567MOL0     C76476   5.075   8.433   9.762  0.1242 -0.6012  0.6207
  567MOL0     C76477   5.132   8.321   9.696 -1.1965  0.8927  0.4890
  567MOL0     H76478   5.474   8.044   9.691  1.6521  2.5486 -3.4297
  567MOL0     H76479   5.635   7.865   9.624 -0.1370  0.7058  0.1431
  567MOL0     H76480   5.485   7.550   9.527 -1.2932  0.9441 -1.9846
  567MOL0     H76481   5.548   7.526   9.362  0.6725 -0.5615  0.0062
  567MOL0     H76482   5.691   7.481   9.634 -1.0286 -0.9611  0.7270
  567MOL0     H76483   5.639   7.351   9.541  0.8084  0.0507  0.4216
  567MOL0     H76484   5.869   7.361   9.523 -3.8631 -1.2918  3.0112
  567MOL0     H76485   5.816   7.394   9.363  2.2383 -0.0033  0.2603
  567MOL0     H76486   5.860   7.640   9.380  0.5207 -1.2593 -1.6113
  567MOL0     H76487   5.912   7.613   9.546  2.7544 -1.4727  0.5789
  567MOL0     H76488   6.059   7.563   9.279  1.5316  2.1042  0.2588
  567MOL0     H76489   6.094   7.673   9.406 -3.2493  0.4306  0.7022
  567MOL0     H76490   6.144   7.486   9.562 -0.9203  0.6449 -0.0337
  567MOL0     H76491   6.126   7.378   9.433 -2.6035  0.5166  1.2309
  567MOL0     H76492   6.341   7.532   9.324 -2.7550  3.7319  1.0662
  567MOL0     H76493   6.318   7.612   9.468  2.3585  0.8044 -1.6306
  567MOL0     H76494   6.362   7.379   9.584  0.0800 -3.1185 -1.1425
  567MOL0     H76495   6.498   7.459   9.500  1.7162 -2.6646  1.1675
  567MOL0     H76496   6.466   7.369   9.207  0.4317  0.1259 -0.6888
  567MOL0     H76497   6.620   7.191   9.095 -0.4751 -1.4264 -2.8754
  567MOL0     H76498   6.650   7.037   9.168  0.4896  1.2445  1.3503
  567MOL0     H76499   6.502   7.048   8.952 -3.4908  0.2439 -0.5937
  567MOL0     H76500   6.381   7.108   9.059 -0.6904  0.0066  1.3007
  567MOL0     H76501   6.355   6.899   9.174  1.5791 -2.1272  2.3361
  567MOL0     H76502   6.516   6.843   9.142  0.8825  0.3928 -2.0406
  567MOL0     H76503   6.480   6.800   8.903  2.7125 -3.2179  2.3967
  567MOL0     H76504   6.307   6.842   8.914  0.0337 -1.1771  0.5179
  567MOL0     H76505   6.335   6.426   9.098 -0.4434  0.0134  0.2487
  567MOL0     H76506   6.171   6.243   9.223  3.3306  3.4919  0.4420
  567MOL0     H76507   6.041   6.233   9.098 -0.1364 -0.7580 -0.4713
  567MOL0     H76508   6.216   6.241   9.050  0.1598  0.6729  1.0470
  567MOL0     H76509   5.760   6.158   9.113  0.0637  2.6797  0.3709
  567MOL0     H76510   5.555   6.053   9.149  1.8632  2.0205 -1.7505
  567MOL0     H76511   5.312   6.062   9.531 -1.1275 -0.0431 -0.4715
  567MOL0     H76512   5.296   6.225   9.443  1.4821  0.3212 -2.0854
  567MOL0     H76513   5.149   6.126   9.289  1.9129  1.1935 -0.0324
  567MOL0     H76514   5.167   5.971   9.372 -2.0812 -1.1343  0.6803
  567MOL0     H76515   5.011   5.991   9.525 -3.0137  1.3467  1.8579
  567MOL0     H76516   4.939   6.061   9.387 -0.9272 -1.2197  0.0885
  567MOL0     H76517   4.914   6.218   9.595  0.0268  3.5856 -0.8423
  567MOL0     H76518   5.090   6.227   9.592 -1.2168  0.7856  0.4513
  567MOL0     H76519   4.873   6.344   9.410 -0.0479 -3.8099 -2.7873
  567MOL0     H76520   5.032   6.336   9.339  0.9952 -1.2794  0.2297
  567MOL0     H76521   4.962   6.547   9.452 -1.2456 -1.7974  0.4676
  567MOL0     H76522   4.976   6.464   9.605 -1.7284  2.0590 -0.7989
  567MOL0     H76523   5.208   6.523   9.409  0.0063  0.6772  0.8277
  567MOL0     H76524   5.212   6.412   9.544  1.6997  1.8532  1.1726
  567MOL0     H76525   5.149   6.723   9.537 -0.0366  0.6476 -0.5142
  567MOL0     H76526   5.302   6.637   9.605 -0.7954 -0.0880  2.6077
  567MOL0     H76527   5.514   6.258   9.524 -1.5039 -0.8931 -1.6545
  567MOL0     H76528   5.707   6.375   9.470 -0.6902 -0.3300  0.4049
  567MOL0     H76529   5.925   6.688   9.118 -0.5428 -0.2021 -0.0815
  567MOL0     H76530   6.146   6.813   9.067  2.0885 -0.3246 -2.7567
  567MOL0     H76531   5.351   7.712   9.346 -1.0414 -0.6368  1.0129
  567MOL0     H76532   5.187   7.867   9.427 -1.4521  3.3186  2.4191
  567MOL0     H76533   5.000   8.094   9.923 -3.2359 -0.4527 -1.9467
  567MOL0     H76534   4.891   8.294  10.006  1.2605 -0.5040  1.2202
  567MOL0     H76535   4.917   8.752   9.926 -0.5237 -0.0694  0.0075
  567MOL0     H76536   5.053   8.692   9.845 -0.6657  2.2344  1.2728
  567MOL0     H76537   4.764   8.683   9.744 -0.2353 -4.5684 -0.9499
  567MOL0     H76538   4.889   8.600   9.661 -1.8992 -0.2341 -0.2956
  567MOL0     H76539   5.020   8.800   9.618  0.0686  0.8414 -0.1058
  567MOL0     H76540   4.918   8.907   9.724  0.9329  0.7842 -1.1302
  567MOL0     H76541   4.807   8.754   9.496 -0.5051 -1.1710  2.8605
  567MOL0     H76542   4.877   8.921   9.469  0.3132  0.6956  0.5357
  567MOL0     H76543   4.545   9.038   9.687  1.0172  2.4401 -1.9716
  567MOL0     H76544   5.092   8.529   9.715 -1.9553  0.6754  2.2885
  567MOL0     H76545   5.212   8.326   9.622 -1.9142  0.1388 -0.3662
  568MOL0     O76546   5.791   2.467   5.906 -0.6947 -0.6739 -0.2622
  568MOL0     C76547   5.788   2.593   5.889 -0.7585  0.0084  0.1688
  568MOL0     O76548   5.718   2.678   5.967 -0.7328 -0.3367 -0.7030
  568MOL0     C76549   5.602   2.619   6.020 -0.4809 -0.3376 -0.3468
  568MOL0     C76550   5.496   2.569   5.939  1.3268 -0.4015 -1.0612
  568MOL0     C76551   5.364   2.534   5.987 -0.5543  0.1602 -0.6420
  568MOL0     C76552   5.337   2.528   6.127 -0.2256 -0.2998 -0.6397
  568MOL0     O76553   5.223   2.484   6.185  0.3923 -0.0206  0.1226
  568MOL0     C76554   5.115   2.421   6.112 -0.5818 -0.1785 -0.1473
  568MOL0     C76555   5.146   2.290   6.048 -0.6499 -0.6055  0.5627
  568MOL0     C76556   5.029   2.221   5.966 -0.1605 -0.3115 -0.2798
  568MOL0     C76557   5.085   2.125   5.863  0.1604  0.1845 -0.9388
  568MOL0     C76558   4.977   2.045   5.804  1.1820 -0.1407  0.4427
  568MOL0     C76559   4.927   2.127   5.677  0.1980  0.4774 -0.0546
  568MOL0     C76560   4.816   2.045   5.603  0.4396  0.0699  1.3178
  568MOL0     C76561   4.880   1.928   5.528 -0.1627  0.0506 -0.2030
  568MOL0     N76562   4.788   1.875   5.427 -0.2587  0.4038 -0.0425
  568MOL0     C76563   4.683   1.789   5.447 -0.4180  0.0444 -0.2569
  568MOL0     C76564   4.636   1.769   5.320  0.5203 -0.0646 -0.3258
  568MOL0     C76565   4.520   1.665   5.297  0.6042 -0.4824 -0.0697
  568MOL0     C76566   4.429   1.728   5.203  0.3919 -1.1983  0.5747
  568MOL0     C76567   4.290   1.665   5.198 -0.7239  0.0389 -0.4461
  568MOL0     C76568   4.295   1.522   5.134 -0.1100  0.6705 -0.5408
  568MOL0     O76569   4.354   1.437   5.227  0.3428 -0.1151 -0.0462
  568MOL0     C76570   4.394   1.306   5.183  0.4693 -0.2759 -0.4742
  568MOL0     C76571   4.429   1.220   5.285 -0.2623  0.4176  0.3118
  568MOL0     C76572   4.487   1.098   5.259 -0.6107 -0.5715  0.3569
  568MOL0     C76573   4.524   1.009   5.374 -1.5714 -0.6273  0.2340
  568MOL0     C76574   4.506   1.049   5.123  0.0248  0.9640 -0.0657
  568MOL0     C76575   4.554   0.910   5.085 -0.0029  0.1608 -0.0890
  568MOL0     O76576   4.508   0.797   5.138  0.1399 -0.7608  0.6156
  568MOL0     C76577   4.598   0.695   5.155  0.4820 -0.4629  0.3027
  568MOL0     C76578   4.583   0.647   5.280 -0.5335  0.3705 -0.3195
  568MOL0     C76579   4.669   0.544   5.315  0.0059  1.4988 -0.2425
  568MOL0     C76580   4.756   0.478   5.225 -0.3565 -0.4886  0.0910
  568MOL0     O76581   4.822   0.376   5.288 -0.0175 -0.3208 -1.4173
  568MOL0     C76582   4.930   0.437   5.361  0.1062  0.8533  0.2199
  568MOL0     C76583   5.027   0.322   5.371  0.0836  0.0943 -0.1307
  568MOL0     C76584   5.123   0.336   5.489  0.7549  0.0911  0.0324
  568MOL0     C76585   5.211   0.217   5.518 -0.2177  0.5346  0.5563
  568MOL0     C76586   5.295   0.233   5.657 -1.0937 -0.4236  0.2862
  568MOL0     C76587   5.370   0.106   5.685  0.0495  0.3015  0.5671
  568MOL0     C76588   5.302  -0.030   5.651  0.2150  0.1778  0.1046
  568MOL0     C76589   5.344  -0.139   5.745 -0.0234 -0.5023 -0.8235
  568MOL0    Cl76590   5.319  -0.078   5.910 -0.0929  0.3553 -0.1997
  568MOL0     C76591   4.779   0.533   5.099 -0.3779  0.0267 -0.7714
  568MOL0     C76592   4.700   0.650   5.073  0.1996 -0.3198 -0.0580
  568MOL0     O76593   4.647   0.912   5.008 -0.1028 -0.1588  0.1710
  568MOL0     C76594   4.462   1.136   5.025  0.6139 -0.2830 -0.2012
  568MOL0     C76595   4.404   1.266   5.044  0.4532 -0.6601  0.2122
  568MOL0     N76596   4.708   1.845   5.227 -0.7353 -0.2412  0.5814
  568MOL0     N76597   4.801   1.908   5.292  0.0569 -0.0364  0.5750
  568MOL0     C76598   5.441   2.577   6.203 -0.8811 -0.2661  0.1537
  568MOL0     C76599   5.559   2.634   6.147 -0.2360 -0.4689 -0.5004
  568MOL0     C76600   5.872   2.648   5.776 -0.0125 -0.1499 -0.4738
  568MOL0     C76601   5.975   2.574   5.709  0.5136  0.2502 -0.1135
  568MOL0     C76602   6.055   2.625   5.612  0.2766 -0.6728  0.2641
  568MOL0     C76603   6.040   2.758   5.570 -0.5760  0.3052 -0.5790
  568MOL0     O76604   6.135   2.784   5.474  0.6395 -0.1134  0.0268
  568MOL0     C76605   6.123   2.913   5.417  0.9355 -0.1315  0.1813
  568MOL0     C76606   6.218   2.910   5.306 -0.2861  0.1102 -0.4406
  568MOL0     C76607   6.366   2.897   5.344  0.8240 -0.5542  1.0719
  568MOL0     C76608   6.456   2.896   5.222  0.2060 -0.3812 -0.0594
  568MOL0     C76609   6.452   3.003   5.122  0.2905  0.3498 -0.0917
  568MOL0     C76610   6.436   3.080   5.025 -0.0929  0.0551 -0.3577
  568MOL0     C76611   5.937   2.832   5.631 -0.9783 -0.2685  0.1412
  568MOL0     C76612   5.856   2.778   5.729 -0.2992  0.4884 -0.2953
  568MOL0     H76613   5.506   2.557   5.831  0.1360  2.4586 -1.5992
  568MOL0     H76614   5.284   2.518   5.915  0.7095 -3.2390 -1.4615
  568MOL0     H76615   5.028   2.404   6.176  1.0487 -0.7873  2.0206
  568MOL0     H76616   5.089   2.503   6.044  0.5792  0.5115  0.2173
  568MOL0     H76617   5.227   2.303   5.976  0.9420  3.6415  2.7851
  568MOL0     H76618   5.188   2.215   6.116 -0.0575 -0.7008  0.0995
  568MOL0     H76619   4.966   2.167   6.037  0.2545  1.9901  2.0170
  568MOL0     H76620   4.966   2.299   5.922 -1.2356 -1.4603 -0.8197
  568MOL0     H76621   5.138   2.194   5.797 -1.7047  2.3377 -0.3031
  568MOL0     H76622   5.145   2.053   5.920 -1.2335  0.4995  1.0417
  568MOL0     H76623   5.016   1.957   5.754  1.5883  1.0935 -1.5180
  568MOL0     H76624   4.904   2.014   5.880  1.2911 -1.7756 -0.0995
  568MOL0     H76625   4.879   2.223   5.698 -0.7006  0.5780 -2.2906
  568MOL0     H76626   5.000   2.148   5.599 -0.5325 -2.1612 -1.5877
  568MOL0     H76627   4.740   2.010   5.673  0.0488 -0.0134  0.8613
  568MOL0     H76628   4.759   2.108   5.534  1.5444 -0.4034 -0.0697
  568MOL0     H76629   4.889   1.856   5.610  0.1735  1.9450  1.4953
  568MOL0     H76630   4.976   1.952   5.480  1.7177 -2.8531  1.8235
  568MOL0     H76631   4.639   1.747   5.537 -0.1842 -1.2813 -0.7380
  568MOL0     H76632   4.570   1.579   5.251  2.1032  0.4620 -0.3000
  568MOL0     H76633   4.467   1.645   5.390 -1.6496  1.5512 -0.8232
  568MOL0     H76634   4.473   1.727   5.103 -0.2425  2.4139  0.1095
  568MOL0     H76635   4.425   1.831   5.241  1.0160  0.1110 -2.6403
  568MOL0     H76636   4.220   1.720   5.135  0.2230  2.9266  0.8444
  568MOL0     H76637   4.258   1.652   5.302  0.6088  3.7956  0.6044
  568MOL0     H76638   4.359   1.531   5.046  0.9420  1.2970  0.2651
  568MOL0     H76639   4.192   1.492   5.113 -0.1948  0.4452  0.1592
  568MOL0     H76640   4.415   1.254   5.387  1.6000 -2.9867  1.8815
  568MOL0     H76641   4.468   0.916   5.364 -0.6372 -1.0768 -1.1312
  568MOL0     H76642   4.632   0.990   5.367 -1.3826  0.9148 -2.0758
  568MOL0     H76643   4.502   1.060   5.468  0.9817  0.3693  0.3695
  568MOL0     H76644   4.492   0.674   5.333 -0.5382 -1.6016  0.8026
  568MOL0     H76645   4.648   0.496   5.410 -0.8488 -0.5055 -1.3746
  568MOL0     H76646   4.982   0.519   5.312  0.8052 -1.7615 -3.8576
  568MOL0     H76647   4.908   0.466   5.465 -0.1643  0.2842  0.3285
  568MOL0     H76648   4.977   0.226   5.386  0.5108  0.0144  0.9139
  568MOL0     H76649   5.091   0.312   5.283  0.7399 -0.0802  0.3520
  568MOL0     H76650   5.079   0.351   5.588  3.1565 -1.1812  1.3940
  568MOL0     H76651   5.171   0.433   5.473 -1.9363  1.2868 -1.4685
  568MOL0     H76652   5.155   0.123   5.516 -0.7582  0.8628 -0.0859
  568MOL0     H76653   5.278   0.219   5.432 -0.5698  0.4131  0.2788
  568MOL0     H76654   5.233   0.257   5.743  0.6784  1.2536  1.1621
  568MOL0     H76655   5.368   0.314   5.650 -0.1828 -1.1078  1.4623
  568MOL0     H76656   5.464   0.104   5.628 -0.7170  1.6257 -0.8184
  568MOL0     H76657   5.403   0.113   5.789  0.4500 -3.2250  0.7866
  568MOL0     H76658   5.331  -0.044   5.546  2.3364  3.9034  0.0275
  568MOL0     H76659   5.195  -0.016   5.667  0.1717 -0.0592  0.0154
  568MOL0     H76660   5.451  -0.160   5.743  0.1763  0.1553  1.1837
  568MOL0     H76661   5.294  -0.232   5.716  0.2765 -0.5469 -1.2056
  568MOL0     H76662   4.858   0.498   5.034 -2.1921 -1.3804 -2.3382
  568MOL0     H76663   4.725   0.693   4.976  1.1417  0.3621  0.4642
  568MOL0     H76664   4.475   1.100   4.923 -0.1552 -0.7370 -0.1427
  568MOL0     H76665   4.383   1.335   4.962  3.4224 -0.7817 -0.7624
  568MOL0     H76666   5.436   2.570   6.311  0.2618  0.5637  0.2765
  568MOL0     H76667   5.637   2.666   6.216  0.0958  2.0748 -1.9161
  568MOL0     H76668   5.979   2.466   5.724  3.3120  0.2805 -0.0450
  568MOL0     H76669   6.130   2.561   5.566  0.9030 -0.0550  0.4164
  568MOL0     H76670   6.023   2.908   5.371  1.0411 -1.9332  0.0969
  568MOL0     H76671   6.143   2.998   5.482 -1.6266  0.4890  0.2695
  568MOL0     H76672   6.201   3.004   5.253  4.8410  1.1807 -0.7155
  568MOL0     H76673   6.197   2.824   5.241 -1.6817  0.7891 -0.9210
  568MOL0     H76674   6.388   2.806   5.402  2.2624  0.4286  2.1678
  568MOL0     H76675   6.396   2.985   5.403  1.1085 -0.6034  1.0003
  568MOL0     H76676   6.434   2.800   5.174  0.3506  0.2272 -1.4049
  568MOL0     H76677   6.561   2.890   5.253  0.1565  0.3879  0.2698
  568MOL0     H76678   6.415   3.153   4.950 -0.7775  0.2774  0.0453
  568MOL0     H76679   5.940   2.933   5.592  3.0439 -0.2216  0.2138
  568MOL0     H76680   5.772   2.833   5.770 -2.0883 -1.4344 -1.2071
  569MOL0     O76681   4.158   5.501   4.549  0.1714  0.2317  0.3234
  569MOL0     C76682   4.234   5.408   4.580 -0.1599  0.1179 -0.1936
  569MOL0     O76683   4.369   5.417   4.586 -0.0176  0.3538 -0.0709
  569MOL0     C76684   4.428   5.528   4.534 -0.3872  0.5573  1.4442
  569MOL0     C76685   4.403   5.655   4.587  0.1435  0.0389  0.5275
  569MOL0     C76686   4.457   5.777   4.520 -0.5516  0.4977 -0.0714
  569MOL0     C76687   4.548   5.759   4.414  1.0900 -0.2837  0.5968
  569MOL0     O76688   4.593   5.877   4.354  0.8418 -0.3446 -0.1766
  569MOL0     C76689   4.644   5.884   4.217  0.6003 -1.0402  0.1503
  569MOL0     C76690   4.798   5.879   4.208  0.5135 -0.0028 -0.6637
  569MOL0     C76691   4.862   5.998   4.283 -0.7594 -0.9530 -0.5157
  569MOL0     C76692   5.001   6.023   4.233 -0.1300 -0.6313 -0.5637
  569MOL0     C76693   5.082   6.127   4.325 -0.1035 -0.0373 -0.6844
  569MOL0     C76694   5.151   6.058   4.445 -0.4362  0.5339  0.7660
  569MOL0     C76695   5.198   6.143   4.562 -0.9191  0.0758  0.4086
  569MOL0     C76696   5.101   6.129   4.683 -0.1071  0.0003  0.2081
  569MOL0     N76697   4.961   6.177   4.660 -0.1391  0.6676 -0.1258
  569MOL0     C76698   4.861   6.094   4.640 -0.8141  0.5845 -0.4787
  569MOL0     C76699   4.760   6.170   4.606  0.4319  0.4072  0.1694
  569MOL0     C76700   4.625   6.111   4.562 -0.3359  0.7939  0.3234
  569MOL0     C76701   4.520   6.140   4.662  0.1303 -0.3326  0.1545
  569MOL0     C76702   4.487   6.278   4.716 -0.5404  0.3349  0.5450
  569MOL0     C76703   4.461   6.380   4.596  0.4043  0.7485 -0.4016
  569MOL0     O76704   4.401   6.309   4.477 -0.9879 -0.2751  0.2543
  569MOL0     C76705   4.403   6.376   4.359 -0.8093 -0.0918  0.5572
  569MOL0     C76706   4.453   6.301   4.254  0.3013 -0.0457  0.4416
  569MOL0     C76707   4.460   6.373   4.134  0.0112  0.9902  0.2231
  569MOL0     C76708   4.527   6.292   4.024 -0.3122 -0.3818  0.7781
  569MOL0     C76709   4.406   6.509   4.116 -0.3349  0.4909  0.2321
  569MOL0     C76710   4.394   6.579   3.985 -0.6719  0.3856 -1.1026
  569MOL0     O76711   4.399   6.713   3.999 -0.4073  0.3300  0.2368
  569MOL0     C76712   4.425   6.785   3.886  0.1278  0.3402 -0.7682
  569MOL0     C76713   4.559   6.827   3.858 -0.7232 -0.2074  0.6492
  569MOL0     C76714   4.583   6.903   3.740  0.1951 -0.0155  0.0349
  569MOL0     C76715   4.474   6.937   3.656 -0.5280  0.0409 -0.2163
  569MOL0     O76716   4.511   7.018   3.546  0.6325  0.0332 -0.1414
  569MOL0     C76717   4.413   7.106   3.487  1.3260 -0.1875 -0.4151
  569MOL0     C76718   4.457   7.146   3.341  0.5381  0.1955 -0.0994
  569MOL0     C76719   4.430   7.035   3.248  0.3180 -0.1689 -0.3836
  569MOL0     C76720   4.520   7.058   3.121 -0.0848 -0.6469 -0.8021
  569MOL0     C76721   4.671   7.024   3.135  0.1438  0.2212  0.6869
  569MOL0     C76722   4.698   6.881   3.167  0.0193 -0.0291  0.1407
  569MOL0     C76723   4.835   6.870   3.237 -0.4062 -0.5146  0.4586
  569MOL0     C76724   4.826   6.911   3.380  0.7304 -0.2524 -0.2000
  569MOL0    Cl76725   4.962   6.866   3.470  0.3914  0.2025  0.0346
  569MOL0     C76726   4.338   6.909   3.691 -0.6459 -0.1132  0.6085
  569MOL0     C76727   4.319   6.829   3.803 -0.2603  0.1574 -0.8905
  569MOL0     O76728   4.397   6.522   3.874 -0.7659 -0.0378 -0.8340
  569MOL0     C76729   4.360   6.576   4.232 -0.2860  0.1590 -0.4013
  569MOL0     C76730   4.351   6.502   4.351  0.1220  0.5643 -0.0852
  569MOL0     N76731   4.794   6.301   4.633  0.6617 -0.9627 -0.6173
  569MOL0     N76732   4.921   6.305   4.651 -0.6190  0.3621  0.0341
  569MOL0     C76733   4.587   5.622   4.386  0.6639 -0.1766  0.4217
  569MOL0     C76734   4.529   5.510   4.447  0.3499  0.8945 -0.6569
  569MOL0     C76735   4.179   5.277   4.621  0.3846  0.1086 -1.2688
  569MOL0     C76736   4.259   5.185   4.695  0.5565 -0.8180  0.6773
  569MOL0     C76737   4.207   5.067   4.745  1.1179  1.5349  0.7203
  569MOL0     C76738   4.069   5.034   4.728 -0.4735 -0.4249 -0.7560
  569MOL0     O76739   4.008   4.924   4.777 -0.7306 -0.0353 -0.7077
  569MOL0     C76740   4.082   4.834   4.859 -0.3339  0.7092 -0.6116
  569MOL0     C76741   3.980   4.722   4.877 -0.0979  0.5227 -0.0751
  569MOL0     C76742   3.924   4.711   5.025 -0.9455  0.1229  0.2443
  569MOL0     C76743   3.787   4.638   5.037  0.2758  0.5674  0.0238
  569MOL0     C76744   3.730   4.663   5.165 -0.3876 -0.4552 -1.2428
  569MOL0     C76745   3.674   4.676   5.277 -1.4782 -0.3416  0.8510
  569MOL0     C76746   3.983   5.121   4.657 -0.2819  0.0905  0.2865
  569MOL0     C76747   4.039   5.238   4.605 -0.3163 -0.4534 -0.3370
  569MOL0     H76748   4.329   5.651   4.666 -0.9991  1.5995 -0.3939
  569MOL0     H76749   4.422   5.877   4.542  0.5580  0.8795  0.0352
  569MOL0     H76750   4.597   5.812   4.150  0.6969 -2.6041  1.6866
  569MOL0     H76751   4.606   5.983   4.191 -1.1074 -1.6422  0.2369
  569MOL0     H76752   4.820   5.780   4.248  1.2983  0.1222 -0.7787
  569MOL0     H76753   4.819   5.875   4.101 -4.3864  1.7929 -1.9709
  569MOL0     H76754   4.787   6.076   4.268  1.4980  1.4232 -0.0820
  569MOL0     H76755   4.874   5.972   4.388 -0.8322 -2.1146 -0.7761
  569MOL0     H76756   5.044   5.924   4.254  0.6909 -0.3759 -0.9684
  569MOL0     H76757   5.007   6.042   4.125 -0.0696  0.0341 -0.4470
  569MOL0     H76758   5.148   6.195   4.271 -1.1774  0.2919 -1.6488
  569MOL0     H76759   4.995   6.184   4.359 -2.0595 -1.7717 -2.4225
  569MOL0     H76760   5.074   5.991   4.484 -1.2145 -0.0400 -1.6170
  569MOL0     H76761   5.226   5.994   4.398 -0.2835  0.4946  1.0628
  569MOL0     H76762   5.300   6.126   4.599 -0.0291  1.6015 -1.2493
  569MOL0     H76763   5.192   6.243   4.520  2.1086 -0.6714 -2.1419
  569MOL0     H76764   5.150   6.203   4.746 -3.2304  2.0013  0.4883
  569MOL0     H76765   5.110   6.029   4.726 -0.1924  0.1015  0.4621
  569MOL0     H76766   4.860   5.986   4.634 -1.7474  0.4876  0.8456
  569MOL0     H76767   4.603   6.141   4.460  1.5576  1.5241  0.0859
  569MOL0     H76768   4.635   6.002   4.561 -2.1316  0.5762 -1.9102
  569MOL0     H76769   4.541   6.090   4.757 -0.4900 -0.5263  0.1974
  569MOL0     H76770   4.423   6.095   4.637 -0.1223 -0.8773  1.9470
  569MOL0     H76771   4.558   6.320   4.788 -1.3891  1.0926  0.9566
  569MOL0     H76772   4.397   6.279   4.778 -2.1187  2.2079 -1.6223
  569MOL0     H76773   4.552   6.429   4.561  0.4654  1.5640  0.8455
  569MOL0     H76774   4.394   6.461   4.627  1.8019  1.3302  1.2141
  569MOL0     H76775   4.489   6.199   4.265  0.3381 -0.3416 -1.9835
  569MOL0     H76776   4.584   6.354   3.954 -3.1653 -0.8015 -2.1589
  569MOL0     H76777   4.600   6.224   4.068  0.3970  0.4221  0.8856
  569MOL0     H76778   4.461   6.238   3.955  0.5613  0.5661 -0.8817
  569MOL0     H76779   4.638   6.802   3.929 -0.8632  1.3153  1.3767
  569MOL0     H76780   4.684   6.931   3.710  0.1259 -2.0880 -2.4154
  569MOL0     H76781   4.314   7.062   3.476  1.5571 -0.5151 -1.3923
  569MOL0     H76782   4.408   7.191   3.555  1.4487 -2.2845  2.3500
  569MOL0     H76783   4.398   7.230   3.302  1.5059  1.6775  1.5072
  569MOL0     H76784   4.554   7.193   3.324 -0.8430  3.8034  1.0539
  569MOL0     H76785   4.329   7.046   3.206  0.0717  2.1156  0.6721
  569MOL0     H76786   4.436   6.932   3.285  0.5761  0.4257  1.2952
  569MOL0     H76787   4.472   6.997   3.045 -0.1828  1.1566 -2.2548
  569MOL0     H76788   4.508   7.158   3.078 -3.8284 -0.7911 -0.4411
  569MOL0     H76789   4.732   7.088   3.200  1.3137 -1.2497  1.0846
  569MOL0     H76790   4.709   7.037   3.033 -3.0759  1.8186 -0.4727
  569MOL0     H76791   4.622   6.839   3.234  0.6253 -1.0540  0.2117
  569MOL0     H76792   4.692   6.831   3.070 -2.0299  1.5165 -0.5902
  569MOL0     H76793   4.910   6.937   3.194  2.0346 -2.6187  1.1329
  569MOL0     H76794   4.865   6.765   3.227 -1.9627 -1.0714  1.2676
  569MOL0     H76795   4.735   6.872   3.426  1.1366  0.1697  1.0136
  569MOL0     H76796   4.803   7.018   3.384 -0.2091 -0.3762 -1.7164
  569MOL0     H76797   4.256   6.943   3.628 -1.9355 -2.8194  0.6874
  569MOL0     H76798   4.223   6.798   3.845 -0.1335  0.8488 -0.0584
  569MOL0     H76799   4.339   6.681   4.246 -2.0552 -0.1944 -0.1235
  569MOL0     H76800   4.301   6.550   4.434 -0.1043 -1.1326  0.8152
  569MOL0     H76801   4.659   5.604   4.306 -1.4050  0.5766 -1.7343
  569MOL0     H76802   4.568   5.411   4.425 -0.9964 -0.1733  1.4607
  569MOL0     H76803   4.366   5.195   4.710  0.8195 -0.8582 -1.0049
  569MOL0     H76804   4.279   5.000   4.790  1.1649 -0.6623 -2.3526
  569MOL0     H76805   4.173   4.789   4.818  0.4088  0.8727  0.8241
  569MOL0     H76806   4.117   4.884   4.950  3.8313 -3.3104  0.3430
  569MOL0     H76807   4.015   4.623   4.846  0.1876  1.8135 -4.6987
  569MOL0     H76808   3.894   4.738   4.811  0.0946 -2.9758 -1.3761
  569MOL0     H76809   3.914   4.806   5.078  0.0731 -0.2029  1.0564
  569MOL0     H76810   4.004   4.654   5.074  0.6719 -0.7897 -3.1461
  569MOL0     H76811   3.803   4.530   5.040  1.3148  0.6972 -0.2188
  569MOL0     H76812   3.722   4.657   4.951  1.6089  0.3595 -1.0803
  569MOL0     H76813   3.618   4.675   5.369 -3.2965 -2.5142 -0.2035
  569MOL0     H76814   3.879   5.094   4.649 -0.1892 -0.6465  1.3972
  569MOL0     H76815   3.967   5.307   4.561  0.0659 -0.2607 -0.6691
  570MOL0     O76816   0.778   0.323   7.938 -0.2727 -0.2521  0.7720
  570MOL0     C76817   0.869   0.410   7.942  0.0363  0.4956  0.4922
  570MOL0     O76818   0.851   0.541   7.971 -0.5817  0.0131  0.9379
  570MOL0     C76819   0.730   0.601   7.962  0.2408 -0.5751  0.3533
  570MOL0     C76820   0.620   0.553   8.041 -0.9238 -0.1819  0.6578
  570MOL0     C76821   0.494   0.614   8.033  0.2806 -0.2731 -0.3411
  570MOL0     C76822   0.477   0.732   7.973 -0.0002  0.0839 -0.0468
  570MOL0     O76823   0.362   0.803   7.970  0.2534 -0.5022  0.2654
  570MOL0     C76824   0.286   0.813   8.096  0.2549  0.3825  0.0266
  570MOL0     C76825   0.208   0.942   8.112  0.0373 -0.0771  1.1308
  570MOL0     C76826   0.171   0.967   8.259  0.5440  0.7250 -0.8275
  570MOL0     C76827   0.098   0.859   8.335  0.1261 -0.8620  0.9941
  570MOL0     C76828  -0.031   0.822   8.253 -0.1180 -0.2395 -0.1571
  570MOL0     C76829  -0.134   0.756   8.350  0.4065  0.0267 -0.2534
  570MOL0     C76830  -0.276   0.746   8.278  0.6114  0.1604 -0.0084
  570MOL0     C76831  -0.372   0.660   8.351  0.1417 -0.1741 -0.0162
  570MOL0     N76832  -0.503   0.635   8.291  0.2225  0.3822  0.3268
  570MOL0     C76833  -0.580   0.525   8.313 -0.0015 -0.4066  0.2892
  570MOL0     C76834  -0.662   0.518   8.209  0.2122 -0.2024  0.8257
  570MOL0     C76835  -0.777   0.420   8.204 -0.1054 -1.2047 -1.5060
  570MOL0     C76836  -0.886   0.459   8.306 -0.7667 -0.8253 -1.3066
  570MOL0     C76837  -1.030   0.380   8.294 -0.6518  1.4454  0.5864
  570MOL0     C76838  -1.008   0.225   8.324 -0.6290 -0.1125  0.3157
  570MOL0     O76839  -1.129   0.162   8.304  0.2618  0.1210 -0.1326
  570MOL0     C76840  -1.163   0.090   8.190  0.4930 -0.1336  0.6242
  570MOL0     C76841  -1.080  -0.015   8.149 -0.0781 -0.0009  0.3100
  570MOL0     C76842  -1.111  -0.078   8.027 -0.5914  0.0673  0.1127
  570MOL0     C76843  -1.013  -0.199   7.995  0.5827  0.1630  0.0456
  570MOL0     C76844  -1.235  -0.044   7.962 -0.2464  0.1330  0.0886
  570MOL0     C76845  -1.275  -0.118   7.826  0.0460 -1.4984 -0.2125
  570MOL0     O76846  -1.402  -0.147   7.827  0.7184  0.3279 -0.3241
  570MOL0     C76847  -1.469  -0.195   7.715  0.6030 -0.4143 -0.2708
  570MOL0     C76848  -1.523  -0.329   7.711 -0.4272  0.2096  0.0089
  570MOL0     C76849  -1.599  -0.378   7.599  0.2099 -0.6472 -0.0048
  570MOL0     C76850  -1.615  -0.293   7.491 -1.4043  0.1125  0.1348
  570MOL0     O76851  -1.683  -0.350   7.389  0.0594  0.2879  0.1694
  570MOL0     C76852  -1.706  -0.270   7.264 -0.0754 -1.0289  0.1445
  570MOL0     C76853  -1.807  -0.150   7.259 -0.4066 -0.2348 -0.3398
  570MOL0     C76854  -1.852  -0.108   7.120  0.1747 -0.1762 -0.1494
  570MOL0     C76855  -1.964  -0.009   7.118  0.9464  0.8088  0.4154
  570MOL0     C76856  -2.024  -0.021   6.977  0.0233 -0.6018  0.7730
  570MOL0     C76857  -2.166   0.046   6.944  0.4351  0.0279 -1.1026
  570MOL0     C76858  -2.279  -0.052   6.978 -0.1977  0.2264 -0.9003
  570MOL0     C76859  -2.414  -0.001   6.918  0.5615 -0.6609 -0.2056
  570MOL0    Cl76860  -2.473   0.159   6.990  0.0691 -0.0938 -0.3764
  570MOL0     C76861  -1.547  -0.168   7.481  0.0644 -0.7869 -1.0163
  570MOL0     C76862  -1.472  -0.123   7.601  0.3222 -0.4022  0.8544
  570MOL0     O76863  -1.194  -0.134   7.735  0.0738  0.0804  0.0723
  570MOL0     C76864  -1.325   0.050   8.008 -0.3067  0.5228 -0.1078
  570MOL0     C76865  -1.288   0.121   8.124 -0.7137 -0.7108  0.1580
  570MOL0     N76866  -0.634   0.624   8.119 -0.2260  0.7832 -0.5238
  570MOL0     N76867  -0.536   0.691   8.174 -0.0040  0.2634 -0.4394
  570MOL0     C76868   0.587   0.793   7.907 -0.6551  0.0479 -0.4582
  570MOL0     C76869   0.705   0.723   7.889 -0.6510  0.4224 -0.6665
  570MOL0     C76870   1.014   0.365   7.916 -0.2258 -0.6230 -0.5095
  570MOL0     C76871   1.126   0.453   7.914 -0.3294  0.3460  0.5024
  570MOL0     C76872   1.264   0.413   7.897 -0.7890 -0.2596  0.6439
  570MOL0     C76873   1.282   0.277   7.867 -0.0935 -0.1473  0.6813
  570MOL0     O76874   1.409   0.214   7.866  0.7271  0.3497 -0.8131
  570MOL0     C76875   1.516   0.298   7.891 -0.7042 -0.7181  0.7622
  570MOL0     C76876   1.643   0.224   7.864 -0.8861  0.6442  0.8706
  570MOL0     C76877   1.772   0.311   7.874  0.0402  0.2584  0.5664
  570MOL0     C76878   1.897   0.216   7.873  0.8939  0.0603  0.3997
  570MOL0     C76879   2.020   0.285   7.937  0.3018  1.3221 -0.0403
  570MOL0     C76880   2.110   0.337   7.992 -0.2614  0.5364  0.8231
  570MOL0     C76881   1.174   0.193   7.856  0.2739 -0.9694 -0.3761
  570MOL0     C76882   1.043   0.228   7.874  0.2666  0.0074  0.3223
  570MOL0     H76883   0.644   0.471   8.108  0.4151  2.4764  3.6925
  570MOL0     H76884   0.412   0.556   8.074  0.5217 -0.7595 -0.5354
  570MOL0     H76885   0.233   0.717   8.105  0.5782 -0.0040 -1.7521
  570MOL0     H76886   0.349   0.810   8.185  0.2853  0.0024 -0.0042
  570MOL0     H76887   0.269   1.023   8.069  1.5738 -1.2451  1.0170
  570MOL0     H76888   0.120   0.937   8.047 -0.5416  4.0800  1.3001
  570MOL0     H76889   0.264   0.979   8.314  0.7414  0.1948 -1.0488
  570MOL0     H76890   0.107   1.056   8.269  0.8212  0.6668  2.3312
  570MOL0     H76891   0.165   0.776   8.357  1.1398 -0.4891 -0.5840
  570MOL0     H76892   0.066   0.908   8.428  1.5334  2.7901 -0.2739
  570MOL0     H76893  -0.079   0.916   8.224  2.9433  1.9911  1.4124
  570MOL0     H76894  -0.028   0.763   8.161  2.0174 -2.8150  1.4216
  570MOL0     H76895  -0.096   0.655   8.367 -0.7264 -0.6957 -1.7861
  570MOL0     H76896  -0.150   0.813   8.443  1.3781 -0.0843 -0.0089
  570MOL0     H76897  -0.304   0.851   8.269  1.2049  0.1911 -1.8251
  570MOL0     H76898  -0.259   0.694   8.184 -0.0780  1.4739 -0.8853
  570MOL0     H76899  -0.399   0.721   8.437  0.4142 -1.5447  1.0881
  570MOL0     H76900  -0.323   0.568   8.386  1.4950  1.2395  2.0130
  570MOL0     H76901  -0.570   0.457   8.397  2.5886  0.0071  0.4028
  570MOL0     H76902  -0.822   0.412   8.104  2.9913 -3.0139 -2.9104
  570MOL0     H76903  -0.724   0.328   8.230  1.6290  0.5740  1.9064
  570MOL0     H76904  -0.908   0.562   8.275  1.7411  1.1326  2.6061
  570MOL0     H76905  -0.845   0.456   8.407  0.0752  2.4209 -1.4469
  570MOL0     H76906  -1.067   0.394   8.192 -2.2844  0.8174  1.0628
  570MOL0     H76907  -1.106   0.407   8.368 -1.5167  1.3974 -0.2683
  570MOL0     H76908  -0.963   0.221   8.424  1.5842 -0.5732 -0.6451
  570MOL0     H76909  -0.937   0.178   8.255 -0.8885 -0.3917  0.2367
  570MOL0     H76910  -0.986  -0.040   8.196  0.0457  0.6977  0.4443
  570MOL0     H76911  -1.067  -0.281   7.947 -0.2858  0.2996  0.7657
  570MOL0     H76912  -0.937  -0.170   7.922  0.2513 -0.8593 -0.7324
  570MOL0     H76913  -0.974  -0.236   8.090 -1.6288 -0.7014  0.6811
  570MOL0     H76914  -1.503  -0.392   7.796 -3.8229  1.4657  1.9479
  570MOL0     H76915  -1.643  -0.477   7.600 -0.2308 -0.5112 -1.9500
  570MOL0     H76916  -1.608  -0.236   7.227 -3.4327  5.0658 -5.2387
  570MOL0     H76917  -1.747  -0.336   7.187  1.0466  1.3288 -2.7210
  570MOL0     H76918  -1.899  -0.178   7.311  0.9633  1.4790  3.4071
  570MOL0     H76919  -1.758  -0.063   7.304  0.8789  0.2266 -2.4912
  570MOL0     H76920  -1.882  -0.204   7.077 -1.6797 -0.1719  1.0351
  570MOL0     H76921  -1.761  -0.071   7.072  0.2250  0.4155  0.3914
  570MOL0     H76922  -2.034  -0.034   7.199  2.3062 -0.4200  1.2538
  570MOL0     H76923  -1.928   0.093   7.135  1.5595  0.4051  1.6348
  570MOL0     H76924  -2.042  -0.125   6.948 -0.9796  0.1867 -1.7320
  570MOL0     H76925  -1.940   0.020   6.919  0.4629 -1.4476  0.7936
  570MOL0     H76926  -2.186   0.147   6.981  2.8001  0.0857  0.2932
  570MOL0     H76927  -2.168   0.059   6.835  2.4952  2.3912 -0.9770
  570MOL0     H76928  -2.307  -0.061   7.084 -0.0944  1.3543 -0.7633
  570MOL0     H76929  -2.263  -0.153   6.937  0.1705 -0.9703  1.9421
  570MOL0     H76930  -2.491  -0.078   6.932  0.5564 -0.6665 -0.2540
  570MOL0     H76931  -2.395   0.020   6.812 -0.8248  0.9307 -0.1792
  570MOL0     H76932  -1.556  -0.102   7.395 -2.7731  0.4069  0.0872
  570MOL0     H76933  -1.420  -0.028   7.608 -2.0561  0.8798  2.2592
  570MOL0     H76934  -1.419   0.073   7.958  0.0189  1.6463 -0.2334
  570MOL0     H76935  -1.345   0.207   8.158  1.0220 -0.1898  1.9075
  570MOL0     H76936   0.559   0.885   7.857 -0.4668  2.2088  3.0693
  570MOL0     H76937   0.785   0.749   7.820 -1.6589  3.3457 -0.8421
  570MOL0     H76938   1.108   0.560   7.913 -2.0489  0.1262 -2.3316
  570MOL0     H76939   1.347   0.481   7.891 -0.0788 -1.2101 -1.0729
  570MOL0     H76940   1.501   0.385   7.826 -2.3691 -1.1889  0.4589
  570MOL0     H76941   1.510   0.333   7.994 -4.4763  1.7589 -0.1164
  570MOL0     H76942   1.636   0.197   7.758  1.8786  0.4439  0.6602
  570MOL0     H76943   1.649   0.124   7.910 -0.8469 -0.2509 -0.9970
  570MOL0     H76944   1.768   0.352   7.975  0.4877  1.8696 -0.0243
  570MOL0     H76945   1.786   0.395   7.805 -0.6055 -1.3040 -1.5905
  570MOL0     H76946   1.921   0.203   7.767 -1.9205 -3.5175  0.0281
  570MOL0     H76947   1.886   0.122   7.927  0.2703 -0.3528 -0.4325
  570MOL0     H76948   2.194   0.390   8.034  2.3798  0.2405 -3.5092
  570MOL0     H76949   1.190   0.086   7.842 -1.5138 -1.3306  0.0981
  570MOL0     H76950   0.974   0.146   7.891  0.5802  0.2752  3.3532
  571MOL0     O76951   1.434   7.621  10.910  0.0906  0.3425  0.3783
  571MOL0     C76952   1.549   7.657  10.926  0.6995  0.3747 -0.0027
  571MOL0     O76953   1.588   7.719  11.037 -0.5127  0.0105 -0.4751
  571MOL0     C76954   1.501   7.739  11.135 -0.0399  0.1486  0.3896
  571MOL0     C76955   1.420   7.853  11.147 -0.2079  0.2917 -1.2522
  571MOL0     C76956   1.342   7.876  11.265 -0.4780  0.0240  0.2307
  571MOL0     C76957   1.340   7.785  11.368 -0.2248 -0.0431  0.8857
  571MOL0     O76958   1.260   7.798  11.481 -0.1246 -0.5041 -0.3922
  571MOL0     C76959   1.133   7.859  11.466  0.9715 -1.2837 -0.3109
  571MOL0     C76960   1.064   7.811  11.597  0.4407  0.3471 -0.8185
  571MOL0     C76961   0.923   7.871  11.626 -0.5410 -0.3763  0.0304
  571MOL0     C76962   0.921   8.023  11.660  0.5879  0.4670 -0.0017
  571MOL0     C76963   0.840   8.111  11.565  0.1909 -0.3720  0.8040
  571MOL0     C76964   0.826   8.259  11.592 -0.7593 -0.8555 -0.6478
  571MOL0     C76965   0.728   8.333  11.511 -0.3204 -0.2859 -0.2621
  571MOL0     C76966   0.735   8.481  11.530 -0.4082 -0.0284  0.4984
  571MOL0     N76967   0.618   8.546  11.478  0.0848  0.2480  0.0875
  571MOL0     C76968   0.589   8.610  11.355 -0.1676 -0.9327 -0.7277
  571MOL0     C76969   0.468   8.661  11.357 -0.2785  0.0141 -0.0551
  571MOL0     C76970   0.411   8.742  11.240  0.0520 -0.9474  0.1941
  571MOL0     C76971   0.260   8.738  11.244 -0.2657  0.6076  1.4164
  571MOL0     C76972   0.197   8.611  11.197 -0.6251  0.9897 -0.0914
  571MOL0     C76973   0.052   8.633  11.180  0.5410  0.5745  0.3100
  571MOL0     O76974   0.017   8.732  11.081 -0.1256 -0.3614  0.2689
  571MOL0     C76975  -0.110   8.780  11.093 -0.0618 -0.3827 -0.4205
  571MOL0     C76976  -0.140   8.882  11.180  0.5884  0.1078 -0.3426
  571MOL0     C76977  -0.265   8.934  11.209 -0.4202  0.1568  0.1495
  571MOL0     C76978  -0.269   9.034  11.328  1.2212  0.1934  0.3743
  571MOL0     C76979  -0.366   8.904  11.112 -0.2149  0.9306  0.1714
  571MOL0     C76980  -0.506   8.968  11.119 -0.1535  0.4694 -0.0614
  571MOL0     O76981  -0.529   9.069  11.204  0.1301  0.5818 -0.5307
  571MOL0     C76982  -0.648   9.127  11.197  0.9812  0.5331 -0.1404
  571MOL0     C76983  -0.666   9.266  11.159 -0.2045  0.0147 -0.3706
  571MOL0     C76984  -0.787   9.333  11.179  0.1153  0.4829 -0.3107
  571MOL0     C76985  -0.897   9.259  11.230 -0.3223 -0.4362 -0.8541
  571MOL0     O76986  -1.024   9.312  11.249  0.4136 -0.0902  0.5267
  571MOL0     C76987  -1.048   9.441  11.191  0.5125  0.0645 -0.7705
  571MOL0     C76988  -1.188   9.500  11.228  0.2435 -0.4128  0.4139
  571MOL0     C76989  -1.224   9.618  11.124  0.0740 -0.1367 -0.3795
  571MOL0     C76990  -1.364   9.681  11.146  0.0460 -0.1979 -0.6823
  571MOL0     C76991  -1.373   9.801  11.049  1.0916  0.1315  0.1854
  571MOL0     C76992  -1.270   9.913  11.078 -0.8782 -0.1509 -0.3903
  571MOL0     C76993  -1.246   9.944  11.226 -0.5790  0.8121  0.0749
  571MOL0     C76994  -1.172  10.075  11.239 -1.0157  0.0231  0.6009
  571MOL0    Cl76995  -1.105  10.080  11.402 -0.2000 -0.2767  0.7497
  571MOL0     C76996  -0.885   9.127  11.265 -0.0231  0.2787  0.0508
  571MOL0     C76997  -0.762   9.060  11.257  1.0270  0.7651 -0.6343
  571MOL0     O76998  -0.579   8.937  11.030 -0.3067 -0.4375 -0.1498
  571MOL0     C76999  -0.338   8.794  11.024 -0.4053  0.2311 -0.6582
  571MOL0     C77000  -0.213   8.736  11.006  0.2147  0.5776  0.1179
  571MOL0     N77001   0.414   8.635  11.478  0.7226  0.9907  0.8105
  571MOL0     N77002   0.503   8.568  11.548  0.2715 -0.7146 -0.7253
  571MOL0     C77003   1.407   7.665  11.354  0.6248  0.3565 -0.1286
  571MOL0     C77004   1.488   7.639  11.239  0.9850  0.0659 -0.2349
  571MOL0     C77005   1.646   7.612  10.829 -0.4457 -0.7713  0.3391
  571MOL0     C77006   1.625   7.509  10.735 -0.7051 -0.1557 -0.4709
  571MOL0     C77007   1.732   7.453  10.667  0.2976  1.0227 -0.4956
  571MOL0     C77008   1.859   7.504  10.680 -0.0374  0.4710 -0.8410
  571MOL0     O77009   1.959   7.442  10.610 -0.5879  0.2324 -0.6631
  571MOL0     C77010   2.005   7.523  10.503  0.5815 -0.9374  0.6075
  571MOL0     C77011   2.036   7.414  10.391 -0.4116 -1.0331 -1.2721
  571MOL0     C77012   1.912   7.345  10.334 -0.1892  0.7451 -0.1703
  571MOL0     C77013   1.956   7.234  10.242 -0.1098 -0.7501 -0.1283
  571MOL0     C77014   2.014   7.125  10.325 -0.4672  0.1616  0.1230
  571MOL0     C77015   2.084   7.048  10.387  0.2587 -0.0567 -0.5946
  571MOL0     C77016   1.878   7.613  10.762 -0.0656 -1.1249 -0.0777
  571MOL0     C77017   1.774   7.672  10.830  0.4674  0.3703 -0.1415
  571MOL0     H77018   1.410   7.922  11.064  2.4362  1.9637 -0.3361
  571MOL0     H77019   1.291   7.969  11.287 -0.0783 -0.3917  3.3744
  571MOL0     H77020   1.137   7.968  11.469 -0.8941 -1.2089  0.8470
  571MOL0     H77021   1.081   7.834  11.374  0.8574  0.7534 -0.8305
  571MOL0     H77022   1.040   7.705  11.611  1.7608  0.3337  2.4053
  571MOL0     H77023   1.123   7.842  11.684 -1.1880  0.8717  0.1469
  571MOL0     H77024   0.871   7.863  11.530  1.1645 -5.8250 -0.8221
  571MOL0     H77025   0.883   7.808  11.706 -1.8219 -1.2908 -1.2838
  571MOL0     H77026   0.873   8.027  11.758  0.5181  1.6820 -0.0733
  571MOL0     H77027   1.022   8.060  11.677 -0.5212  2.7412  2.2969
  571MOL0     H77028   0.888   8.108  11.467  0.8854  2.8660  0.9155
  571MOL0     H77029   0.743   8.062  11.555  0.9186 -1.7485  0.1855
  571MOL0     H77030   0.807   8.269  11.699  3.1727  2.3464  0.0241
  571MOL0     H77031   0.920   8.313  11.572 -2.3856  2.2822 -0.4926
  571MOL0     H77032   0.751   8.319  11.405  0.0269  2.0319 -0.5475
  571MOL0     H77033   0.625   8.304  11.534 -0.3180  0.8499  1.2751
  571MOL0     H77034   0.826   8.524  11.486 -0.1898  0.7733  1.6768
  571MOL0     H77035   0.741   8.506  11.637 -4.5909  2.2556  0.3914
  571MOL0     H77036   0.660   8.625  11.274  0.0515  2.4398 -0.0632
  571MOL0     H77037   0.440   8.847  11.248  0.4079 -1.1643  2.2376
  571MOL0     H77038   0.446   8.702  11.144  0.9469  1.2431 -0.4515
  571MOL0     H77039   0.221   8.816  11.178 -2.3651 -0.0973  1.7606
  571MOL0     H77040   0.223   8.770  11.342 -1.5861  2.9426  0.2502
  571MOL0     H77041   0.211   8.531  11.271  0.6883  4.1459  3.3831
  571MOL0     H77042   0.241   8.576  11.104 -1.6863  1.9382 -0.9748
  571MOL0     H77043   0.004   8.657  11.276 -1.2157 -1.9849  0.2040
  571MOL0     H77044   0.004   8.539  11.149 -1.2988  1.0157  1.6103
  571MOL0     H77045  -0.059   8.926  11.238  2.2040 -0.6971 -1.8595
  571MOL0     H77046  -0.175   9.036  11.384  0.4493 -0.2567  1.7264
  571MOL0     H77047  -0.269   9.130  11.275 -0.4120 -0.2955 -0.5804
  571MOL0     H77048  -0.360   9.029  11.389  0.8753 -0.5037 -0.1813
  571MOL0     H77049  -0.584   9.318  11.111  0.5203  0.7007  1.5479
  571MOL0     H77050  -0.786   9.440  11.157  0.7005  0.1831 -1.8588
  571MOL0     H77051  -0.970   9.513  11.213  2.5249 -2.0701 -0.5336
  571MOL0     H77052  -1.047   9.425  11.083  4.8046  1.2969 -1.0721
  571MOL0     H77053  -1.259   9.418  11.218 -0.3680  0.0645  0.7580
  571MOL0     H77054  -1.197   9.539  11.330 -0.8216 -0.2378  0.2673
  571MOL0     H77055  -1.220   9.584  11.020 -4.0348  1.1215 -1.1624
  571MOL0     H77056  -1.144   9.692  11.135  1.7990 -1.9460 -0.2853
  571MOL0     H77057  -1.451   9.615  11.139  0.0183 -0.6997  2.7397
  571MOL0     H77058  -1.366   9.715  11.250  3.2843 -3.3083  0.6306
  571MOL0     H77059  -1.471   9.845  11.071  0.2872 -1.8668  0.9431
  571MOL0     H77060  -1.380   9.760  10.948  2.5418  0.3339 -0.0177
  571MOL0     H77061  -1.169   9.893  11.041  0.7191  1.2457  2.8172
  571MOL0     H77062  -1.315   9.997  11.024 -1.3830 -0.2617 -0.1484
  571MOL0     H77063  -1.188   9.860  11.265  1.2075  0.7764 -2.4306
  571MOL0     H77064  -1.335   9.950  11.290  2.5620  0.3301  4.9893
  571MOL0     H77065  -1.232  10.166  11.230 -0.4555  0.9532  4.6508
  571MOL0     H77066  -1.089  10.078  11.168  0.3490 -0.1667  2.1200
  571MOL0     H77067  -0.968   9.071  11.306 -2.1802  0.7653 -3.2435
  571MOL0     H77068  -0.751   8.960  11.298 -1.4147  0.7709  0.1527
  571MOL0     H77069  -0.420   8.760  10.962  0.1286 -0.7078 -0.8605
  571MOL0     H77070  -0.188   8.658  10.936  2.4174  0.6454  0.7635
  571MOL0     H77071   1.392   7.590  11.431 -2.8914  0.5357 -0.5134
  571MOL0     H77072   1.535   7.541  11.232  1.2605  0.2136 -0.4440
  571MOL0     H77073   1.524   7.472  10.720 -0.7089  0.0394 -0.9408
  571MOL0     H77074   1.701   7.375  10.598 -1.5901  0.4045  0.9675
  571MOL0     H77075   1.927   7.580  10.451  0.2574  0.5335  2.6147
  571MOL0     H77076   2.087   7.591  10.523 -0.3464 -0.5654  3.7543
  571MOL0     H77077   2.106   7.350  10.445 -1.3855 -0.2237  1.0878
  571MOL0     H77078   2.096   7.464  10.314  1.2681 -1.3768 -0.2456
  571MOL0     H77079   1.856   7.421  10.278 -0.2905  1.4138  0.8008
  571MOL0     H77080   1.853   7.305  10.417  0.2059 -1.5034 -0.9160
  571MOL0     H77081   2.014   7.271  10.158  0.9180 -0.0657  0.8558
  571MOL0     H77082   1.865   7.193  10.197  0.0925 -2.1292  0.6726
  571MOL0     H77083   2.145   6.993  10.455 -1.1585 -1.6070 -0.5006
  571MOL0     H77084   1.975   7.660  10.768 -1.6421  2.2984  1.2018
  571MOL0     H77085   1.798   7.762  10.887  0.8409 -0.5404  1.2006
  572MOL0     O77086   5.645   3.655   6.919  0.8522 -0.6149  0.1556
  572MOL0     C77087   5.712   3.666   6.812 -0.2823  0.4899 -1.0325
  572MOL0     O77088   5.730   3.777   6.741  0.0079  0.2508  0.4336
  572MOL0     C77089   5.641   3.886   6.765 -1.2984  0.2767  1.8163
  572MOL0     C77090   5.673   3.977   6.862 -0.5707 -0.0737  0.1807
  572MOL0     C77091   5.589   4.095   6.881 -0.4061 -0.1103  0.0314
  572MOL0     C77092   5.488   4.123   6.797 -1.6182 -0.4384  0.6008
  572MOL0     O77093   5.414   4.240   6.824  0.1381  0.5198  0.0469
  572MOL0     C77094   5.334   4.290   6.727 -0.4294 -0.8432 -0.4200
  572MOL0     C77095   5.279   4.431   6.779 -0.4680  0.8182 -0.1424
  572MOL0     C77096   5.261   4.520   6.658 -0.5107 -0.9999 -1.5502
  572MOL0     C77097   5.174   4.643   6.701  1.4316 -0.0593 -1.2503
  572MOL0     C77098   5.131   4.706   6.571  0.0084 -0.1569 -0.3373
  572MOL0     C77099   5.056   4.841   6.608  0.9960  1.4585 -0.3799
  572MOL0     C77100   4.974   4.910   6.489 -0.9577 -0.0115 -0.0897
  572MOL0     C77101   5.059   4.977   6.380  0.0481 -0.2599 -0.0029
  572MOL0     N77102   4.973   5.057   6.299 -0.3516  0.3643 -0.0725
  572MOL0     C77103   4.926   5.189   6.334  0.5955 -0.0359 -0.2865
  572MOL0     C77104   4.843   5.227   6.237  0.1164 -0.0975  0.6503
  572MOL0     C77105   4.795   5.364   6.208  0.1950 -0.5564  0.7720
  572MOL0     C77106   4.932   5.447   6.171  0.7552  0.7810  0.9850
  572MOL0     C77107   4.885   5.571   6.104  0.1274  0.3678 -0.5032
  572MOL0     C77108   4.990   5.657   6.041 -0.1554  1.1691 -0.1318
  572MOL0     O77109   5.093   5.730   6.121  0.5347 -0.4445  0.3081
  572MOL0     C77110   5.196   5.662   6.168  0.4410 -0.1327  0.2207
  572MOL0     C77111   5.226   5.684   6.307 -0.4776  0.4270  0.3305
  572MOL0     C77112   5.344   5.627   6.357 -0.8915  0.6014  0.7632
  572MOL0     C77113   5.376   5.652   6.500  0.2582 -1.0731  0.7317
  572MOL0     C77114   5.429   5.553   6.265  0.5325  1.0954 -0.3399
  572MOL0     C77115   5.549   5.474   6.313 -0.8690 -0.3606 -0.1154
  572MOL0     O77116   5.540   5.406   6.433 -0.0807  0.4237  0.5420
  572MOL0     C77117   5.654   5.366   6.497  0.2614 -0.5648  0.1188
  572MOL0     C77118   5.737   5.469   6.547 -0.1620 -0.4572 -0.3126
  572MOL0     C77119   5.854   5.423   6.602 -0.9783 -1.0455 -0.0824
  572MOL0     C77120   5.877   5.293   6.624 -0.7150  0.6901 -0.0811
  572MOL0     O77121   6.000   5.235   6.662 -0.8869  0.3222 -0.2999
  572MOL0     C77122   6.122   5.304   6.625  0.1668  0.2461 -0.2452
  572MOL0     C77123   6.253   5.220   6.629  0.0732  0.8175  0.2489
  572MOL0     C77124   6.248   5.119   6.510 -0.3032 -0.6136  0.0455
  572MOL0     C77125   6.361   5.014   6.529  0.2247  0.7283  0.3478
  572MOL0     C77126   6.355   4.905   6.424 -0.3127  1.2047 -0.0711
  572MOL0     C77127   6.411   4.949   6.289  0.1230 -0.0390  0.4851
  572MOL0     C77128   6.408   4.828   6.194  0.5636 -0.1160 -0.4723
  572MOL0     C77129   6.483   4.842   6.061  0.2744  0.0727  0.7537
  572MOL0    Cl77130   6.578   4.696   6.030  0.0789  0.1717  0.0681
  572MOL0     C77131   5.792   5.195   6.576 -0.2154 -0.4193 -0.6831
  572MOL0     C77132   5.673   5.232   6.518  0.2414  0.6499  0.3121
  572MOL0     O77133   5.646   5.464   6.234 -0.2438 -0.0604  0.5011
  572MOL0     C77134   5.395   5.535   6.125  0.1888 -0.4806  0.4567
  572MOL0     C77135   5.280   5.594   6.078 -0.1605  1.2099 -0.2953
  572MOL0     N77136   4.835   5.120   6.146  0.7700  0.1073  0.7173
  572MOL0     N77137   4.913   5.022   6.177  0.4471 -0.0461 -0.4558
  572MOL0     C77138   5.459   4.029   6.690  0.9261 -0.3770  0.7109
  572MOL0     C77139   5.542   3.920   6.678 -0.0010  1.1923  0.0846
  572MOL0     C77140   5.753   3.528   6.772  0.1096 -0.0622 -0.2905
  572MOL0     C77141   5.721   3.415   6.845 -0.0389  0.7757 -0.0973
  572MOL0     C77142   5.788   3.295   6.822 -0.7908  1.1840 -0.6671
  572MOL0     C77143   5.877   3.281   6.706  0.6872  0.4144  0.5397
  572MOL0     O77144   5.937   3.154   6.692 -0.6370 -0.3050 -0.0251
  572MOL0     C77145   6.036   3.129   6.583  0.9813 -0.5133 -1.2430
  572MOL0     C77146   6.160   3.066   6.651  0.2387  0.0519 -1.0183
  572MOL0     C77147   6.258   3.014   6.547  0.7856  0.0786  0.5560
  572MOL0     C77148   6.375   2.958   6.616 -0.2898  0.0042 -0.3114
  572MOL0     C77149   6.454   3.063   6.673 -0.5385 -0.0369  0.0618
  572MOL0     C77150   6.505   3.169   6.716 -0.2663  0.5393  0.3459
  572MOL0     C77151   5.894   3.394   6.625  0.2434 -0.0972 -0.8257
  572MOL0     C77152   5.835   3.509   6.655 -0.1595  0.4670  0.0800
  572MOL0     H77153   5.757   3.971   6.929  0.0727  0.2354 -0.5755
  572MOL0     H77154   5.612   4.169   6.956  1.4961 -0.3707 -0.2440
  572MOL0     H77155   5.390   4.294   6.634 -2.6564 -0.4783 -1.8367
  572MOL0     H77156   5.250   4.228   6.694 -1.5635  0.9794 -1.0731
  572MOL0     H77157   5.191   4.419   6.843  0.7809  3.2591  2.2461
  572MOL0     H77158   5.356   4.485   6.834  2.9451 -3.0824 -0.6352
  572MOL0     H77159   5.354   4.565   6.622  1.1135 -3.2238 -0.3971
  572MOL0     H77160   5.211   4.473   6.573  0.1956 -0.3057 -2.3787
  572MOL0     H77161   5.093   4.604   6.763  3.0784  0.3656  1.3561
  572MOL0     H77162   5.231   4.699   6.776 -1.2844 -2.5160  3.0599
  572MOL0     H77163   5.214   4.731   6.504 -0.8553  1.0354 -0.9950
  572MOL0     H77164   5.060   4.636   6.527  2.4399 -2.8167 -0.2931
  572MOL0     H77165   4.982   4.816   6.684  1.4985  1.4009  0.0982
  572MOL0     H77166   5.117   4.919   6.654  0.3031  1.9784 -0.3377
  572MOL0     H77167   4.917   4.825   6.451  0.5368 -2.2162  2.2276
  572MOL0     H77168   4.909   4.978   6.543  0.8292  0.6213  1.3872
  572MOL0     H77169   5.103   4.902   6.314 -3.0307  0.7660 -3.5522
  572MOL0     H77170   5.116   5.042   6.446 -2.4053 -0.5145  2.5947
  572MOL0     H77171   4.971   5.257   6.404 -0.7798 -0.4301  1.0276
  572MOL0     H77172   4.722   5.355   6.127  0.3731 -1.4475  0.6959
  572MOL0     H77173   4.750   5.411   6.296  2.0264  2.9569  0.0011
  572MOL0     H77174   5.003   5.382   6.119  0.7864  0.6449  1.1978
  572MOL0     H77175   4.976   5.483   6.264 -0.2888  3.6053  0.4873
  572MOL0     H77176   4.830   5.629   6.178 -1.2692  0.0972 -1.2858
  572MOL0     H77177   4.818   5.551   6.020  0.8023  0.3424 -1.0423
  572MOL0     H77178   4.935   5.719   5.969 -0.1911  1.7391  0.3781
  572MOL0     H77179   5.043   5.577   5.987 -1.6858  0.3270 -0.4399
  572MOL0     H77180   5.155   5.741   6.366  0.2563  1.3972  0.3016
  572MOL0     H77181   5.291   5.711   6.538 -0.9104 -1.9017 -0.4733
  572MOL0     H77182   5.380   5.556   6.551  0.9887 -1.7678 -0.5699
  572MOL0     H77183   5.463   5.718   6.507 -0.6730  0.5378 -1.4184
  572MOL0     H77184   5.724   5.576   6.532  2.6600  0.2013  1.2098
  572MOL0     H77185   5.936   5.489   6.628 -0.6976 -0.2191 -2.7505
  572MOL0     H77186   6.119   5.337   6.521  4.5602  2.0365 -0.0393
  572MOL0     H77187   6.137   5.392   6.688 -0.6871 -0.0754  0.4210
  572MOL0     H77188   6.330   5.293   6.601  0.7829 -0.2385 -0.6372
  572MOL0     H77189   6.278   5.171   6.723  0.0301  1.5216  0.6398
  572MOL0     H77190   6.244   5.178   6.418 -3.3567 -0.4377  0.1692
  572MOL0     H77191   6.147   5.076   6.513  0.3448 -2.2401 -0.7114
  572MOL0     H77192   6.453   5.072   6.522 -0.3221  1.7361  1.1332
  572MOL0     H77193   6.354   4.974   6.631 -3.2518  0.4364  0.0969
  572MOL0     H77194   6.255   4.859   6.428  0.2002  0.1503  2.1312
  572MOL0     H77195   6.427   4.839   6.473  1.5253  4.8451  2.6068
  572MOL0     H77196   6.345   5.027   6.251 -1.4047 -2.5147 -2.3829
  572MOL0     H77197   6.517   4.976   6.299  0.3397 -0.5620 -0.2689
  572MOL0     H77198   6.308   4.790   6.173  2.1360 -3.5845 -2.7010
  572MOL0     H77199   6.465   4.753   6.250 -1.4777 -1.4573 -0.0998
  572MOL0     H77200   6.544   4.932   6.051 -1.0286  1.3270  3.3168
  572MOL0     H77201   6.410   4.862   5.981 -0.7281  0.0031  1.6344
  572MOL0     H77202   5.825   5.095   6.599 -1.0021 -0.7716 -1.0505
  572MOL0     H77203   5.608   5.166   6.461 -1.5914  2.8077 -0.2582
  572MOL0     H77204   5.465   5.471   6.074  0.5415 -2.2365  2.9557
  572MOL0     H77205   5.262   5.585   5.972 -0.0042  0.9974 -0.3031
  572MOL0     H77206   5.380   4.039   6.616  1.2800  0.8464  0.4704
  572MOL0     H77207   5.525   3.862   6.588 -0.8603 -0.3255  1.1854
  572MOL0     H77208   5.669   3.401   6.939  0.4251  0.1160  0.0718
  572MOL0     H77209   5.786   3.210   6.889 -0.2719  2.4547  1.0191
  572MOL0     H77210   5.992   3.062   6.509 -2.2290 -0.0494  0.0644
  572MOL0     H77211   6.067   3.222   6.535  0.9074  1.0260  1.4777
  572MOL0     H77212   6.134   2.983   6.718 -2.0743  2.5855  1.4244
  572MOL0     H77213   6.211   3.142   6.710  1.4788  1.2245 -3.4414
  572MOL0     H77214   6.291   3.083   6.469  0.0551 -1.3732 -1.0832
  572MOL0     H77215   6.201   2.935   6.498 -2.9149  2.1075  1.2324
  572MOL0     H77216   6.428   2.897   6.542 -3.4534 -0.7689 -2.1174
  572MOL0     H77217   6.341   2.893   6.696  3.1944 -1.7242 -0.0609
  572MOL0     H77218   6.543   3.266   6.741 -2.7803  1.6392  0.2523
  572MOL0     H77219   5.963   3.408   6.542  0.4820  3.4826 -0.2141
  572MOL0     H77220   5.870   3.600   6.608 -1.4600  2.0457  2.0065
  573MOL0     O77221  11.209   8.795   3.985  0.3217 -0.3873 -0.1262
  573MOL0     C77222  11.196   8.678   4.019  0.0269  0.1464 -0.2384
  573MOL0     O77223  11.150   8.641   4.139 -0.9926  0.1935 -0.1443
  573MOL0     C77224  11.129   8.746   4.228 -0.4321 -0.0923  0.0618
  573MOL0     C77225  11.234   8.828   4.274  0.8836 -0.3153 -0.0179
  573MOL0     C77226  11.214   8.914   4.378 -0.7352  0.1366  0.0111
  573MOL0     C77227  11.085   8.950   4.415 -0.0815  0.7142 -0.0567
  573MOL0     O77228  11.090   9.053   4.499  0.2516 -0.5861 -0.0054
  573MOL0     C77229  10.965   9.120   4.514  0.3499 -0.4778  0.3014
  573MOL0     C77230  10.977   9.272   4.554 -0.6643 -0.8192 -0.4895
  573MOL0     C77231  11.054   9.288   4.687  0.2253  0.1774 -0.2878
  573MOL0     C77232  11.018   9.425   4.751 -0.0815 -0.4886 -0.0942
  573MOL0     C77233  11.121   9.451   4.866 -0.6641 -0.7033 -0.1698
  573MOL0     C77234  11.121   9.599   4.882 -0.9675 -0.2929 -0.1436
  573MOL0     C77235  11.153   9.648   5.026  0.0234  0.3713 -0.2438
  573MOL0     C77236  11.257   9.583   5.106 -0.7640  1.1708 -0.6185
  573MOL0     N77237  11.387   9.614   5.057  0.2432 -0.7497 -0.5723
  573MOL0     C77238  11.436   9.595   4.931  0.0456 -0.6990  0.1131
  573MOL0     C77239  11.568   9.615   4.940  0.4845 -0.6071  0.2987
  573MOL0     C77240  11.668   9.635   4.825  0.9153  0.1857 -0.8490
  573MOL0     C77241  11.617   9.751   4.733 -0.4329  0.7583 -0.6559
  573MOL0     C77242  11.550   9.705   4.612  0.6034 -0.0553  0.1135
  573MOL0     C77243  11.523   9.818   4.510  0.6181 -0.4715  0.0399
  573MOL0     O77244  11.443   9.916   4.575 -0.6259  0.7519 -0.3821
  573MOL0     C77245  11.305   9.885   4.595 -0.3618 -0.3355  0.0501
  573MOL0     C77246  11.242   9.967   4.687  0.2722 -0.2938  0.4153
  573MOL0     C77247  11.100   9.957   4.716 -0.3286 -1.2767 -1.6760
  573MOL0     C77248  11.044  10.048   4.822 -0.1424  0.4016 -0.9133
  573MOL0     C77249  11.028   9.852   4.653 -1.2940  0.7644  0.2280
  573MOL0     C77250  10.887   9.803   4.681 -0.4734  0.0697  0.9355
  573MOL0     O77251  10.826   9.718   4.584 -0.4031  0.3169  1.3236
  573MOL0     C77252  10.687   9.709   4.585 -0.3877 -0.6001 -0.5733
  573MOL0     C77253  10.636   9.587   4.578 -0.3448  0.8404 -0.4666
  573MOL0     C77254  10.499   9.566   4.589 -0.3764  0.2464 -0.4584
  573MOL0     C77255  10.409   9.661   4.589  0.3955  0.5127  0.2881
  573MOL0     O77256  10.273   9.618   4.581 -0.6907  0.6483 -0.0392
  573MOL0     C77257  10.179   9.655   4.685 -0.2843 -0.5023  1.2245
  573MOL0     C77258  10.048   9.589   4.654  1.2759  0.0449  0.5317
  573MOL0     C77259  10.067   9.448   4.594  0.0310  0.2494 -0.1605
  573MOL0     C77260   9.939   9.372   4.609  0.9895  0.2810 -0.5880
  573MOL0     C77261   9.970   9.219   4.624 -0.0262 -0.9053 -1.2455
  573MOL0     C77262   9.913   9.133   4.503 -0.8509 -0.9476 -0.2603
  573MOL0     C77263   9.978   9.005   4.496  0.0889 -0.7219 -0.0084
  573MOL0     C77264   9.896   8.899   4.410  0.8789  0.3266 -0.2201
  573MOL0    Cl77265   9.732   8.867   4.491 -0.1554  0.3134  0.0341
  573MOL0     C77266  10.451   9.793   4.593 -0.7978 -0.0831  0.2015
  573MOL0     C77267  10.587   9.819   4.594 -0.4270 -0.0279 -0.0421
  573MOL0     O77268  10.842   9.807   4.797 -0.2654 -0.1522  0.0268
  573MOL0     C77269  11.101   9.778   4.551  0.2843 -0.3665  0.2522
  573MOL0     C77270  11.231   9.790   4.530 -0.9605 -0.4539 -0.5234
  573MOL0     N77271  11.606   9.659   5.062  0.2896 -0.1473 -0.3027
  573MOL0     N77272  11.494   9.659   5.134 -0.2071 -0.6510  0.1378
  573MOL0     C77273  10.978   8.880   4.358  0.3502 -0.3414 -0.0847
  573MOL0     C77274  11.003   8.768   4.282 -0.6900 -0.1923 -0.9353
  573MOL0     C77275  11.210   8.567   3.910 -0.7058 -0.9987  0.1020
  573MOL0     C77276  11.237   8.439   3.950 -0.9761  0.6884 -0.4681
  573MOL0     C77277  11.244   8.328   3.856 -0.5318 -0.4660 -1.0512
  573MOL0     C77278  11.213   8.355   3.723 -0.6240  0.8547 -0.4026
  573MOL0     O77279  11.219   8.251   3.632 -0.0104  0.8336  0.7257
  573MOL0     C77280  11.198   8.114   3.673  0.1424  0.3866  0.7909
  573MOL0     C77281  11.198   8.020   3.540  0.1338  2.1040 -0.3341
  573MOL0     C77282  11.178   7.880   3.587  0.8403  0.6457  0.2983
  573MOL0     C77283  11.314   7.819   3.619  0.4313  0.7424 -0.0461
  573MOL0     C77284  11.282   7.674   3.652  0.5227  0.0074  0.0939
  573MOL0     C77285  11.247   7.559   3.671 -0.2675 -0.0980 -0.2702
  573MOL0     C77286  11.220   8.494   3.685 -0.8365  1.3200  0.0020
  573MOL0     C77287  11.207   8.595   3.775  0.2491 -0.0805  0.2639
  573MOL0     H77288  11.331   8.805   4.233  0.9119  0.4091 -0.3656
  573MOL0     H77289  11.295   8.963   4.431  0.2997 -0.1003 -1.2856
  573MOL0     H77290  10.910   9.134   4.420 -1.2493 -0.2291  1.2326
  573MOL0     H77291  10.896   9.071   4.584 -0.9141 -1.3003 -1.4420
  573MOL0     H77292  11.030   9.323   4.473 -3.1973 -0.0960 -1.7932
  573MOL0     H77293  10.881   9.324   4.567 -0.5776 -0.4789 -1.2184
  573MOL0     H77294  11.021   9.219   4.766  4.4474 -1.4222  0.3309
  573MOL0     H77295  11.161   9.285   4.664  0.5707  1.5645  0.9953
  573MOL0     H77296  11.023   9.504   4.676 -3.6478 -0.0899 -0.1135
  573MOL0     H77297  10.922   9.428   4.804  0.4084  1.8963  0.7508
  573MOL0     H77298  11.088   9.404   4.958 -1.7884  2.7568  1.3614
  573MOL0     H77299  11.214   9.402   4.835  0.8768  1.9883 -0.1879
  573MOL0     H77300  11.183   9.645   4.805 -0.6568 -0.5564 -0.0551
  573MOL0     H77301  11.018   9.630   4.862 -1.3041 -0.3024  1.4206
  573MOL0     H77302  11.180   9.754   5.020  0.3810  0.3771  1.1304
  573MOL0     H77303  11.061   9.630   5.083  0.9095 -4.6082  0.0813
  573MOL0     H77304  11.254   9.474   5.116 -0.9710  1.2617  0.3912
  573MOL0     H77305  11.250   9.620   5.208  1.3579  0.5008 -0.1894
  573MOL0     H77306  11.389   9.567   4.837  2.7471 -1.1373 -1.1969
  573MOL0     H77307  11.764   9.668   4.868 -0.0253  0.7809  0.8848
  573MOL0     H77308  11.675   9.543   4.766 -0.0694 -2.6283  3.0807
  573MOL0     H77309  11.695   9.825   4.711  1.0281 -0.1908  1.0759
  573MOL0     H77310  11.548   9.809   4.794  1.1622  1.1099  0.8768
  573MOL0     H77311  11.453   9.663   4.639  0.7628 -0.4204  0.1309
  573MOL0     H77312  11.601   9.627   4.554 -2.0542 -2.9146  1.3164
  573MOL0     H77313  11.484   9.790   4.412  3.3969 -0.2998 -1.2243
  573MOL0     H77314  11.617   9.869   4.486  0.9927  0.5882  3.2193
  573MOL0     H77315  11.309  10.036   4.736 -0.9022  1.3322 -0.1809
  573MOL0     H77316  10.967  10.104   4.769 -1.8993 -2.0850 -1.1384
  573MOL0     H77317  10.992   9.991   4.899 -3.9118  1.4719 -2.4427
  573MOL0     H77318  11.126  10.104   4.870  0.0348 -0.3823 -0.2742
  573MOL0     H77319  10.702   9.501   4.576  0.3553  1.3387  0.4670
  573MOL0     H77320  10.459   9.467   4.571 -0.7737  0.0568  1.2611
  573MOL0     H77321  10.229   9.616   4.774  0.4413 -0.4271  0.8624
  573MOL0     H77322  10.181   9.765   4.692 -0.2993 -0.3601 -0.5885
  573MOL0     H77323   9.990   9.582   4.746 -1.4711 -0.1394 -1.1055
  573MOL0     H77324   9.998   9.645   4.574 -0.7535 -1.6234  0.5460
  573MOL0     H77325  10.144   9.395   4.651  0.6891  0.7449 -0.5734
  573MOL0     H77326  10.106   9.452   4.492 -0.1556 -0.9413 -0.2925
  573MOL0     H77327   9.876   9.396   4.695 -1.4166 -0.4697 -2.0355
  573MOL0     H77328   9.875   9.394   4.523  0.7548 -1.9061 -1.0290
  573MOL0     H77329   9.918   9.189   4.716  0.3793  0.9070 -0.3523
  573MOL0     H77330  10.077   9.195   4.620  0.5689  0.8666  1.0652
  573MOL0     H77331   9.804   9.130   4.512 -0.9796  0.0210 -1.2925
  573MOL0     H77332   9.935   9.186   4.410  0.1977 -0.8525  0.0403
  573MOL0     H77333   9.987   8.955   4.593 -0.5429 -0.1057  0.3724
  573MOL0     H77334  10.082   9.012   4.462  1.1907 -0.5810  3.0256
  573MOL0     H77335   9.963   8.813   4.399  4.4536  2.3222  3.0759
  573MOL0     H77336   9.867   8.941   4.314  0.6117  1.8906  0.5099
  573MOL0     H77337  10.387   9.880   4.603 -1.0460 -0.2135 -0.2011
  573MOL0     H77338  10.597   9.926   4.608 -3.8358  0.2990  0.7718
  573MOL0     H77339  11.053   9.694   4.500 -2.7820  1.9209 -0.9380
  573MOL0     H77340  11.277   9.724   4.457  0.1866  0.1151 -0.3323
  573MOL0     H77341  10.877   8.893   4.397  0.1447 -4.2606  1.1101
  573MOL0     H77342  10.927   8.696   4.255  0.3394 -1.6832  0.0417
  573MOL0     H77343  11.249   8.421   4.056  0.1985 -1.0774 -0.8601
  573MOL0     H77344  11.265   8.225   3.885  1.3818 -0.3630 -1.8597
  573MOL0     H77345  11.276   8.077   3.740  0.4176 -1.5120 -0.4896
  573MOL0     H77346  11.102   8.109   3.725  0.5205 -1.6999  1.3510
  573MOL0     H77347  11.290   8.031   3.481  0.5306  0.0732 -0.1363
  573MOL0     H77348  11.113   8.038   3.473 -1.4544 -3.0209 -0.1147
  573MOL0     H77349  11.133   7.822   3.505  0.6954 -1.6266  1.9016
  573MOL0     H77350  11.122   7.870   3.681 -1.5350  1.3393 -0.9462
  573MOL0     H77351  11.355   7.866   3.708  0.9071 -1.5911  1.0402
  573MOL0     H77352  11.381   7.815   3.532 -2.1516 -0.8919 -2.1282
  573MOL0     H77353  11.238   7.452   3.667  4.8082 -0.7954  0.5762
  573MOL0     H77354  11.235   8.522   3.581 -0.2919 -0.1162 -0.3416
  573MOL0     H77355  11.183   8.695   3.740 -0.9514 -1.8248 -4.8536
  574MOL0     O77356   6.647   7.253   8.365 -0.2188 -0.8161 -0.2296
  574MOL0     C77357   6.567   7.342   8.368  0.3769 -0.6990  0.5975
  574MOL0     O77358   6.451   7.336   8.440  0.2485 -0.5682  0.0005
  574MOL0     C77359   6.405   7.211   8.477 -0.2807  0.5173  0.8764
  574MOL0     C77360   6.329   7.138   8.386  0.0896 -0.0962  1.1000
  574MOL0     C77361   6.272   7.002   8.410 -1.1856 -0.5748 -0.1620
  574MOL0     C77362   6.295   6.947   8.535 -0.0753 -0.6891  0.5001
  574MOL0     O77363   6.249   6.838   8.598 -0.8406 -0.4687 -0.1112
  574MOL0     C77364   6.166   6.754   8.516  0.2420 -0.3133  0.3682
  574MOL0     C77365   6.109   6.648   8.604  1.2296 -0.2107  0.0733
  574MOL0     C77366   6.002   6.696   8.707 -0.0470 -0.8195 -0.7388
  574MOL0     C77367   5.974   6.590   8.800  1.1435  0.2346 -0.7199
  574MOL0     C77368   5.931   6.456   8.733  0.6092 -0.5178 -0.5334
  574MOL0     C77369   5.837   6.365   8.818 -0.0361  0.6672  0.4405
  574MOL0     C77370   5.769   6.253   8.734  1.0176  0.8698 -0.2329
  574MOL0     C77371   5.841   6.142   8.671  0.5485  0.4716  0.9514
  574MOL0     N77372   5.934   6.093   8.783  0.0324 -0.5527 -0.3974
  574MOL0     C77373   5.885   6.000   8.882 -0.1234  0.7922  0.1813
  574MOL0     C77374   5.998   5.970   8.955 -0.3861  0.4316  0.3558
  574MOL0     C77375   5.998   5.876   9.079  0.5665  0.7674  1.2401
  574MOL0     C77376   6.033   5.947   9.208  0.1678 -0.0804 -0.6512
  574MOL0     C77377   5.997   5.858   9.329  0.0140 -0.6338 -0.6738
  574MOL0     C77378   5.849   5.864   9.371 -0.1193 -0.3400 -0.0886
  574MOL0     O77379   5.823   5.771   9.476 -0.4899 -0.2161  0.0450
  574MOL0     C77380   5.703   5.734   9.517 -0.9152  0.2626  0.2789
  574MOL0     C77381   5.695   5.641   9.626 -0.1679  0.2641 -0.4853
  574MOL0     C77382   5.572   5.584   9.666  0.0030  0.4458 -1.2350
  574MOL0     C77383   5.579   5.466   9.754  0.6573  0.3915 -0.0874
  574MOL0     C77384   5.448   5.633   9.610 -0.2957  0.0639  0.4486
  574MOL0     C77385   5.316   5.572   9.630 -0.5343  0.5690 -0.3522
  574MOL0     O77386   5.242   5.558   9.518 -0.4803 -0.0963 -0.6942
  574MOL0     C77387   5.102   5.561   9.550 -1.2446 -0.5940 -0.0208
  574MOL0     C77388   5.024   5.462   9.500  0.7468  0.5271  0.0530
  574MOL0     C77389   4.893   5.450   9.539  0.6818 -0.6082  0.0311
  574MOL0     C77390   4.835   5.543   9.630  0.3537  0.9612  0.6870
  574MOL0     O77391   4.702   5.528   9.671 -0.4543 -0.2437  0.7930
  574MOL0     C77392   4.648   5.566   9.796 -0.8041  0.1744  0.8916
  574MOL0     C77393   4.611   5.714   9.800 -0.0452 -0.6033 -0.1657
  574MOL0     C77394   4.531   5.781   9.681  0.1706  1.1166 -0.1768
  574MOL0     C77395   4.551   5.939   9.690  0.4391 -1.0650  0.8484
  574MOL0     C77396   4.453   6.019   9.604  0.0450  0.3991  0.0557
  574MOL0     C77397   4.453   6.170   9.635  0.8268 -0.2049 -0.1086
  574MOL0     C77398   4.587   6.243   9.592 -0.4115 -0.8955 -0.7799
  574MOL0     C77399   4.548   6.385   9.566 -0.2356 -0.7117  0.2187
  574MOL0    Cl77400   4.478   6.471   9.710  0.4236  0.0627  0.0318
  574MOL0     C77401   4.915   5.644   9.681  0.4693  0.5057 -0.5234
  574MOL0     C77402   5.040   5.662   9.636  0.1873  0.9467 -0.9843
  574MOL0     O77403   5.277   5.551   9.741 -0.4077  0.8140  0.3073
  574MOL0     C77404   5.469   5.725   9.512 -0.7791  0.1637  1.0732
  574MOL0     C77405   5.589   5.770   9.461  0.1527 -0.0147  0.7046
  574MOL0     N77406   6.104   6.039   8.904 -0.1230  0.1277  0.0696
  574MOL0     N77407   6.062   6.113   8.802 -0.4671  0.3754 -0.4284
  574MOL0     C77408   6.383   7.021   8.617 -0.1411  0.4058 -0.2543
  574MOL0     C77409   6.440   7.153   8.600  0.9637  0.0379  0.1423
  574MOL0     C77410   6.603   7.462   8.289  0.2734 -0.6105  0.2071
  574MOL0     C77411   6.658   7.467   8.162 -0.1814  0.1406 -0.5871
  574MOL0     C77412   6.677   7.590   8.103  0.2211  0.1107  0.7858
  574MOL0     C77413   6.636   7.708   8.159 -0.4634 -0.4338 -0.6540
  574MOL0     O77414   6.662   7.824   8.089 -0.3107  0.2068 -0.3990
  574MOL0     C77415   6.622   7.956   8.120 -0.1077  0.3929 -1.0522
  574MOL0     C77416   6.741   8.049   8.109  0.0452 -0.1908  0.1195
  574MOL0     C77417   6.695   8.197   8.085  0.1338  0.7744 -0.6516
  574MOL0     C77418   6.811   8.289   8.033 -0.5861  0.3250 -0.3052
  574MOL0     C77419   6.766   8.423   8.020 -0.3074 -0.0962 -0.3504
  574MOL0     C77420   6.714   8.533   8.023 -0.7484  0.2633  0.0569
  574MOL0     C77421   6.593   7.706   8.290 -0.2078 -0.4530  0.3766
  574MOL0     C77422   6.570   7.589   8.352  0.8080  0.0926  0.2862
  574MOL0     H77423   6.303   7.187   8.293 -0.0606 -1.1182  0.5877
  574MOL0     H77424   6.210   6.962   8.331 -0.9452  0.1156 -0.7058
  574MOL0     H77425   6.091   6.820   8.470  1.8622  2.0238  0.8896
  574MOL0     H77426   6.230   6.713   8.438  1.2598 -0.0970  1.0809
  574MOL0     H77427   6.061   6.573   8.540 -2.2356  1.5088  0.4318
  574MOL0     H77428   6.188   6.595   8.658  0.4024 -0.7099  0.8245
  574MOL0     H77429   6.029   6.793   8.748  1.4290 -1.6442  0.3161
  574MOL0     H77430   5.902   6.708   8.663  0.2462 -1.0641 -1.4935
  574MOL0     H77431   6.068   6.573   8.855  0.0094  1.5725  1.7908
  574MOL0     H77432   5.904   6.627   8.876  4.1699  2.4021  1.2730
  574MOL0     H77433   5.861   6.485   8.654  1.3589 -0.9972 -1.3895
  574MOL0     H77434   6.021   6.403   8.702  2.4390  3.9139 -3.7461
  574MOL0     H77435   5.893   6.326   8.904 -1.5027 -1.8101  0.3539
  574MOL0     H77436   5.752   6.420   8.861 -1.1647 -0.0037 -0.8773
  574MOL0     H77437   5.685   6.211   8.788  0.0658  0.5970 -1.8564
  574MOL0     H77438   5.723   6.307   8.650  0.0462 -1.5921 -1.3612
  574MOL0     H77439   5.902   6.174   8.587  2.1506 -1.7240  1.1936
  574MOL0     H77440   5.772   6.064   8.638 -0.3313  1.8059 -0.4716
  574MOL0     H77441   5.785   5.957   8.883  0.6054 -0.9884 -0.3716
  574MOL0     H77442   5.894   5.841   9.083 -0.1601  2.4447 -0.9688
  574MOL0     H77443   6.057   5.786   9.059  0.5123  0.9764  0.0417
  574MOL0     H77444   5.970   6.036   9.218 -2.4613 -1.7758 -0.9665
  574MOL0     H77445   6.140   5.968   9.204 -0.4165  3.4745 -0.3071
  574MOL0     H77446   6.065   5.896   9.407 -0.3190  0.3423 -0.8517
  574MOL0     H77447   6.025   5.753   9.316  0.0436 -0.6773 -0.2625
  574MOL0     H77448   5.792   5.821   9.287  3.0572 -3.6422 -0.7808
  574MOL0     H77449   5.826   5.968   9.397  1.4127 -0.1416  0.5314
  574MOL0     H77450   5.791   5.610   9.667 -0.9398 -0.7730  0.6051
  574MOL0     H77451   5.682   5.430   9.760  0.9181  1.1970  0.4384
  574MOL0     H77452   5.545   5.488   9.855  0.5507  4.1683 -0.8044
  574MOL0     H77453   5.514   5.382   9.727 -1.8418  1.3626  2.4316
  574MOL0     H77454   5.060   5.386   9.432 -1.5961  0.5649 -1.3453
  574MOL0     H77455   4.827   5.380   9.488  0.5851 -1.3831  1.1703
  574MOL0     H77456   4.571   5.497   9.831  0.2218 -0.8154  1.2755
  574MOL0     H77457   4.724   5.546   9.871 -2.0860 -2.4834  1.5927
  574MOL0     H77458   4.552   5.725   9.891 -1.1803 -2.1203 -0.6663
  574MOL0     H77459   4.700   5.773   9.824 -0.7007 -0.4965  2.1580
  574MOL0     H77460   4.428   5.748   9.691 -0.7342  3.1921 -1.8159
  574MOL0     H77461   4.579   5.744   9.590 -0.7223  2.2377 -1.1384
  574MOL0     H77462   4.536   5.982   9.790  1.0476  1.1397  0.0430
  574MOL0     H77463   4.652   5.963   9.658  0.9162 -0.4458  2.6779
  574MOL0     H77464   4.356   5.972   9.622  0.2513  0.4586  1.5009
  574MOL0     H77465   4.474   6.003   9.498 -0.3646 -1.1850  0.1885
  574MOL0     H77466   4.368   6.211   9.580  2.4745  3.1895 -0.4062
  574MOL0     H77467   4.432   6.192   9.740  0.6159 -1.1906  0.0683
  574MOL0     H77468   4.636   6.195   9.507 -0.0251 -2.0435  0.0757
  574MOL0     H77469   4.658   6.248   9.675  2.4267 -0.3571 -3.0527
  574MOL0     H77470   4.486   6.391   9.476 -2.1328 -1.5353  1.4079
  574MOL0     H77471   4.643   6.435   9.545 -0.9807  0.9698  0.6982
  574MOL0     H77472   4.881   5.711   9.760 -0.1518  0.7928 -1.0328
  574MOL0     H77473   5.107   5.742   9.666  2.6008 -1.0886 -0.5217
  574MOL0     H77474   5.376   5.765   9.473 -1.2350 -1.4245  0.4349
  574MOL0     H77475   5.585   5.827   9.369 -0.2751  0.2708  0.8930
  574MOL0     H77476   6.420   6.989   8.714  2.4476  0.3481 -1.1748
  574MOL0     H77477   6.506   7.198   8.673  2.0617  0.3346 -0.9930
  574MOL0     H77478   6.684   7.378   8.105  0.3734 -0.8974  1.2059
  574MOL0     H77479   6.709   7.593   7.999  1.5199 -1.5280  1.0859
  574MOL0     H77480   6.539   7.975   8.051 -1.7030  1.4877  1.0487
  574MOL0     H77481   6.568   7.959   8.216 -1.0284 -2.4017 -1.3911
  574MOL0     H77482   6.788   8.007   8.020 -5.0434 -2.6040 -1.8355
  574MOL0     H77483   6.800   8.046   8.201 -0.8250 -0.6246  0.6755
  574MOL0     H77484   6.642   8.234   8.173 -1.6263  0.0952 -1.3795
  574MOL0     H77485   6.619   8.201   8.007 -0.2862 -1.6275 -0.4616
  574MOL0     H77486   6.835   8.260   7.930  2.0303  2.5370 -0.4505
  574MOL0     H77487   6.903   8.300   8.091 -0.2293 -0.0092 -0.7948
  574MOL0     H77488   6.673   8.632   8.031  1.3839  1.1598  0.5120
  574MOL0     H77489   6.559   7.799   8.336 -0.9432  0.8435 -2.5481
  574MOL0     H77490   6.515   7.575   8.445  0.4761  0.1732  0.1032
  575MOL0     O77491  10.197   1.671   1.162 -0.0035 -0.1620 -0.3288
  575MOL0     C77492  10.137   1.577   1.106 -1.1698 -0.0318  0.0677
  575MOL0     O77493  10.140   1.545   0.968 -0.0123 -0.1986 -0.6962
  575MOL0     C77494  10.230   1.602   0.889 -1.0230 -0.3996 -0.2709
  575MOL0     C77495  10.349   1.659   0.923 -0.9279 -0.3213  0.0030
  575MOL0     C77496  10.425   1.733   0.826 -0.4290  0.1280  0.0799
  575MOL0     C77497  10.389   1.718   0.685 -0.4252 -0.3005  0.1329
  575MOL0     O77498  10.480   1.765   0.598  0.5416 -0.1485  0.2036
  575MOL0     C77499  10.452   1.772   0.459 -0.5800 -1.0387 -0.0048
  575MOL0     C77500  10.554   1.863   0.398  0.3488  0.4114 -0.5594
  575MOL0     C77501  10.502   1.909   0.262  0.4235  0.3853 -0.5654
  575MOL0     C77502  10.589   1.988   0.170 -0.7302 -0.2926 -0.2343
  575MOL0     C77503  10.527   2.021   0.033 -0.8878 -1.3693 -0.0443
  575MOL0     C77504  10.636   2.036  -0.078 -0.1167  0.1814  0.8734
  575MOL0     C77505  10.566   2.101  -0.202 -0.3086 -0.1710  0.4483
  575MOL0     C77506  10.445   2.025  -0.255 -0.0408 -0.6430  0.1242
  575MOL0     N77507  10.413   2.079  -0.385  0.6638  0.0983  0.2077
  575MOL0     C77508  10.503   2.100  -0.484 -0.4130 -0.1725 -0.4291
  575MOL0     C77509  10.456   2.205  -0.561 -0.2679 -0.4862 -0.0521
  575MOL0     C77510  10.512   2.283  -0.675  0.1291  0.0055  0.1661
  575MOL0     C77511  10.445   2.249  -0.807 -0.4651  0.1082  0.1435
  575MOL0     C77512  10.474   2.352  -0.922  0.4915  0.0594 -0.1804
  575MOL0     C77513  10.459   2.298  -1.069  0.2585 -0.5680 -0.3008
  575MOL0     O77514  10.531   2.380  -1.163  0.2141  0.2309 -0.3104
  575MOL0     C77515  10.502   2.357  -1.298  0.5702 -0.0795 -0.7390
  575MOL0     C77516  10.510   2.467  -1.387 -0.4790  0.7145 -1.1612
  575MOL0     C77517  10.468   2.465  -1.520 -0.1028 -0.2174  0.1195
  575MOL0     C77518  10.448   2.603  -1.582  0.6724  0.3449  0.6005
  575MOL0     C77519  10.440   2.342  -1.582 -0.5176  0.5730  0.1906
  575MOL0     C77520  10.401   2.326  -1.726  0.1826 -0.4836  0.6248
  575MOL0     O77521  10.384   2.202  -1.779  0.6133 -0.1122  0.1760
  575MOL0     C77522  10.344   2.189  -1.911 -0.1043  0.3676  0.1002
  575MOL0     C77523  10.442   2.174  -2.007 -0.1773 -0.9620 -0.4169
  575MOL0     C77524  10.403   2.145  -2.138 -0.4677 -0.0693  0.0347
  575MOL0     C77525  10.270   2.136  -2.180 -0.6720  0.4153 -0.1735
  575MOL0     O77526  10.254   2.095  -2.312 -0.7321  0.4423  0.1755
  575MOL0     C77527  10.119   2.084  -2.365 -0.0265 -0.0014 -0.2679
  575MOL0     C77528  10.123   2.013  -2.496  0.0282 -0.1025  0.2986
  575MOL0     C77529   9.985   2.008  -2.574  0.6379  0.2436 -0.2096
  575MOL0     C77530   9.929   1.875  -2.585  0.0348 -0.3796  0.3413
  575MOL0     C77531   9.781   1.870  -2.622 -0.1008 -0.6081 -0.0994
  575MOL0     C77532   9.739   1.728  -2.630  0.2771 -0.4677  0.4191
  575MOL0     C77533   9.689   1.687  -2.493 -0.5340 -0.1094 -0.0710
  575MOL0     C77534   9.537   1.710  -2.489 -0.5940 -0.3242 -0.2117
  575MOL0    Cl77535   9.471   1.680  -2.326 -0.4726 -0.1538 -0.3956
  575MOL0     C77536  10.171   2.163  -2.083 -0.2784  0.5185  0.2402
  575MOL0     C77537  10.208   2.192  -1.950 -0.3905 -0.2918  0.0990
  575MOL0     O77538  10.395   2.428  -1.800  0.7620  0.1260 -0.7513
  575MOL0     C77539  10.434   2.226  -1.495  0.0584 -0.4386  0.9183
  575MOL0     C77540  10.452   2.241  -1.356 -0.7888  0.7469  0.3001
  575MOL0     N77541  10.326   2.230  -0.507  0.0559 -0.3873  0.0653
  575MOL0     N77542  10.303   2.151  -0.406 -0.6047  0.4036  0.6879
  575MOL0     C77543  10.265   1.671   0.647 -1.0916  0.7922 -0.3719
  575MOL0     C77544  10.191   1.606   0.752 -0.1553  0.1769 -0.2230
  575MOL0     C77545  10.048   1.489   1.194 -0.1730 -0.3349 -0.1975
  575MOL0     C77546   9.993   1.529   1.320  0.0854  0.2455  0.8143
  575MOL0     C77547   9.906   1.448   1.390  0.4100 -0.0510  0.2580
  575MOL0     C77548   9.859   1.323   1.333 -0.1415 -0.8203  0.0667
  575MOL0     O77549   9.765   1.268   1.411  0.5154  0.2669  0.9547
  575MOL0     C77550   9.637   1.245   1.341  0.9369 -0.1187 -0.6834
  575MOL0     C77551   9.545   1.188   1.459  0.5922 -0.1776  0.2723
  575MOL0     C77552   9.592   1.050   1.521  0.1237 -0.0891  0.2652
  575MOL0     C77553   9.476   0.952   1.535  0.1820 -0.1641 -0.6952
  575MOL0     C77554   9.524   0.823   1.573  0.3427 -1.4868 -0.1508
  575MOL0     C77555   9.582   0.723   1.615 -0.0298  0.0507 -0.1799
  575MOL0     C77556   9.902   1.288   1.203 -0.8024  0.7318 -0.6830
  575MOL0     C77557   9.996   1.371   1.138  0.3456 -0.0730  0.6425
  575MOL0     H77558  10.387   1.654   1.024  3.3584 -2.7177 -1.4533
  575MOL0     H77559  10.507   1.800   0.851 -1.0412  0.5804  0.9392
  575MOL0     H77560  10.451   1.675   0.408 -0.9525 -0.6767 -0.7032
  575MOL0     H77561  10.356   1.821   0.438 -1.3250 -2.2037  0.5808
  575MOL0     H77562  10.573   1.947   0.465  6.7909  0.1161 -1.3553
  575MOL0     H77563  10.650   1.810   0.402  0.1186  0.0470  0.8796
  575MOL0     H77564  10.469   1.815   0.217  1.3799 -1.3994  2.1666
  575MOL0     H77565  10.415   1.972   0.280 -0.3039 -0.8694  0.5518
  575MOL0     H77566  10.605   2.084   0.220 -0.0894 -1.7922  2.6433
  575MOL0     H77567  10.681   1.931   0.155  0.0162  0.7959  0.1469
  575MOL0     H77568  10.466   1.938  -0.005 -2.3404 -1.2207  1.8229
  575MOL0     H77569  10.459   2.103   0.057 -0.9257 -1.5179  0.3551
  575MOL0     H77570  10.721   2.097  -0.046 -0.4623 -0.1307  2.4835
  575MOL0     H77571  10.666   1.934  -0.105  0.4855  0.3911  0.7315
  575MOL0     H77572  10.551   2.208  -0.184 -0.5937 -0.5664  3.0552
  575MOL0     H77573  10.641   2.116  -0.280  1.0256  3.6218  2.2385
  575MOL0     H77574  10.359   2.032  -0.188 -0.0238 -1.8529  0.2892
  575MOL0     H77575  10.465   1.918  -0.259 -3.2612 -1.3351 -0.5058
  575MOL0     H77576  10.607   2.074  -0.501  0.1246 -2.8106  4.6398
  575MOL0     H77577  10.490   2.388  -0.656 -2.4289 -0.5170  0.3514
  575MOL0     H77578  10.620   2.266  -0.679  0.9187  4.0625 -0.0213
  575MOL0     H77579  10.337   2.238  -0.791 -0.3399  1.0714  1.9562
  575MOL0     H77580  10.477   2.151  -0.842 -1.9487 -0.4425  0.2396
  575MOL0     H77581  10.579   2.380  -0.914  0.6679 -0.9496  1.4629
  575MOL0     H77582  10.420   2.442  -0.891  1.7767 -0.1153  2.9098
  575MOL0     H77583  10.355   2.306  -1.102  0.9880  1.0083 -2.5062
  575MOL0     H77584  10.507   2.200  -1.072  0.1834 -0.6579  0.8082
  575MOL0     H77585  10.556   2.552  -1.339  1.4338 -1.2604  0.7469
  575MOL0     H77586  10.464   2.684  -1.509 -0.0732  1.2581 -0.2221
  575MOL0     H77587  10.516   2.625  -1.665 -0.3721 -2.1860 -1.0405
  575MOL0     H77588  10.351   2.614  -1.630  1.5217  1.3268 -0.9648
  575MOL0     H77589  10.548   2.175  -1.984 -0.4142 -0.1581  0.6982
  575MOL0     H77590  10.469   2.118  -2.219 -1.6629  1.8773 -1.7007
  575MOL0     H77591  10.058   2.029  -2.293 -3.0537  0.8279 -1.9935
  575MOL0     H77592  10.063   2.178  -2.367 -2.1152 -1.1627 -1.6328
  575MOL0     H77593  10.191   2.073  -2.557 -1.8388 -0.0668 -1.8710
  575MOL0     H77594  10.174   1.916  -2.501  0.6646  0.2632 -0.7825
  575MOL0     H77595  10.002   2.051  -2.674 -1.6974  2.1790  0.1601
  575MOL0     H77596   9.912   2.074  -2.527 -2.6532 -3.7282  0.8899
  575MOL0     H77597   9.977   1.825  -2.669  0.6749  0.9745 -0.1365
  575MOL0     H77598   9.938   1.822  -2.490  0.3590 -0.0624  0.4944
  575MOL0     H77599   9.766   1.922  -2.717 -1.6060 -0.2206  0.3214
  575MOL0     H77600   9.727   1.935  -2.551  0.9634  2.1350 -1.6302
  575MOL0     H77601   9.659   1.704  -2.701  1.5142  0.1802 -1.2562
  575MOL0     H77602   9.819   1.663  -2.666  1.3330  0.9348  0.1590
  575MOL0     H77603   9.742   1.742  -2.415 -2.6882  1.6717  0.2302
  575MOL0     H77604   9.712   1.580  -2.483 -1.4381 -0.2201  0.9544
  575MOL0     H77605   9.485   1.656  -2.568 -1.3689 -0.1313  0.1513
  575MOL0     H77606   9.519   1.818  -2.481  3.4475  0.3413  3.6348
  575MOL0     H77607  10.066   2.150  -2.106 -0.0322 -1.2689  0.0116
  575MOL0     H77608  10.130   2.188  -1.874  0.0950  0.0456  0.6178
  575MOL0     H77609  10.411   2.127  -1.532  0.7860  0.3561 -1.8761
  575MOL0     H77610  10.450   2.153  -1.292  1.6905  0.3690 -0.0631
  575MOL0     H77611  10.239   1.670   0.541  3.6589 -0.8898 -1.8093
  575MOL0     H77612  10.104   1.547   0.723 -0.5247  0.9118 -0.6607
  575MOL0     H77613   9.995   1.633   1.353  2.0345 -0.1928  2.2777
  575MOL0     H77614   9.862   1.494   1.477  0.4487  0.5092 -0.0176
  575MOL0     H77615   9.598   1.346   1.326 -0.0705  0.3218  3.7147
  575MOL0     H77616   9.654   1.182   1.254  6.7610  0.4065 -0.2973
  575MOL0     H77617   9.452   1.185   1.402  2.1327  3.2097 -2.8120
  575MOL0     H77618   9.538   1.264   1.537 -2.7544  0.0017 -0.0413
  575MOL0     H77619   9.623   1.071   1.624  0.7338  0.1278  0.0449
  575MOL0     H77620   9.680   1.009   1.470  1.5531  2.8374  0.1588
  575MOL0     H77621   9.416   0.946   1.443 -1.6450  0.5546  0.3899
  575MOL0     H77622   9.410   0.995   1.612  1.8489  2.0841 -0.4034
  575MOL0     H77623   9.640   0.642   1.655 -3.0103 -1.4608  1.4426
  575MOL0     H77624   9.856   1.200   1.161 -2.0852  1.1131 -0.1433
  575MOL0     H77625  10.044   1.331   1.050 -0.4195 -0.5150  0.4154
  576MOL0     O77626   9.315   3.457   1.680  0.2946  0.2004  0.0383
  576MOL0     C77627   9.277   3.430   1.792 -0.0492  0.0990 -0.4243
  576MOL0     O77628   9.225   3.513   1.881 -0.0052  0.5283  0.3278
  576MOL0     C77629   9.212   3.640   1.842 -0.1644  0.0293  0.5367
  576MOL0     C77630   9.293   3.744   1.902  0.5993  0.2440  0.3993
  576MOL0     C77631   9.287   3.866   1.845 -0.1245 -0.2765  0.7466
  576MOL0     C77632   9.201   3.899   1.741  0.0725  0.9236 -0.4269
  576MOL0     O77633   9.198   4.031   1.714 -0.0727  0.4265 -0.0793
  576MOL0     C77634   9.209   4.061   1.576  0.7180 -0.3592 -0.4115
  576MOL0     C77635   9.266   4.198   1.555 -0.1597 -0.1946  0.9359
  576MOL0     C77636   9.407   4.199   1.516 -0.4321 -0.5527 -0.1711
  576MOL0     C77637   9.442   4.174   1.372  0.3195  0.8940 -0.1884
  576MOL0     C77638   9.585   4.119   1.347 -0.4794  0.9513 -0.4566
  576MOL0     C77639   9.587   3.970   1.383  0.8206  0.4427  0.4284
  576MOL0     C77640   9.731   3.924   1.402 -0.0182 -0.8938  0.5042
  576MOL0     C77641   9.799   3.977   1.527  0.0298 -0.1683 -0.4785
  576MOL0     N77642   9.784   3.894   1.647 -0.4265  0.7879 -0.2691
  576MOL0     C77643   9.672   3.835   1.696 -0.0694  0.7109  0.8963
  576MOL0     C77644   9.719   3.733   1.767  0.7059 -0.5728  0.3458
  576MOL0     C77645   9.642   3.635   1.842 -0.1829  0.4701  0.0606
  576MOL0     C77646   9.720   3.542   1.939  0.2009  0.3228  0.0081
  576MOL0     C77647   9.625   3.437   2.009  0.4081  0.2936  0.3931
  576MOL0     C77648   9.555   3.506   2.127 -0.1996  0.5551 -0.1075
  576MOL0     O77649   9.484   3.403   2.198 -0.2609 -0.4826  0.0419
  576MOL0     C77650   9.365   3.443   2.265 -0.2479 -0.1203 -0.0786
  576MOL0     C77651   9.310   3.571   2.261  0.2690 -0.2024 -0.2071
  576MOL0     C77652   9.197   3.602   2.350 -0.8853 -0.6195  0.1385
  576MOL0     C77653   9.174   3.748   2.368 -0.4119  0.1684  0.1941
  576MOL0     C77654   9.134   3.499   2.420 -0.4983 -0.2296 -0.3800
  576MOL0     C77655   9.006   3.510   2.498 -0.0845  0.5634 -0.9957
  576MOL0     O77656   8.922   3.622   2.483 -0.1100  0.5053  0.2850
  576MOL0     C77657   8.848   3.675   2.589  0.5089  0.3095  0.0947
  576MOL0     C77658   8.791   3.806   2.575  0.3456  0.7695  0.6100
  576MOL0     C77659   8.699   3.859   2.668 -0.1417 -0.4239  0.6983
  576MOL0     C77660   8.667   3.790   2.780 -0.5433 -0.2382  0.2068
  576MOL0     O77661   8.583   3.855   2.858  0.0480  0.6662  0.4551
  576MOL0     C77662   8.509   3.782   2.966 -1.2791 -1.3162 -0.8722
  576MOL0     C77663   8.565   3.807   3.110 -0.9545  0.1020 -0.8379
  576MOL0     C77664   8.480   3.721   3.205 -0.0765  0.5371 -0.3027
  576MOL0     C77665   8.561   3.683   3.334  0.8549 -0.2284  0.3282
  576MOL0     C77666   8.470   3.683   3.464 -0.1376  0.4857  1.2596
  576MOL0     C77667   8.386   3.558   3.486 -0.2710 -0.2811  0.2133
  576MOL0     C77668   8.296   3.559   3.614  0.3212  0.1455 -0.1754
  576MOL0     C77669   8.374   3.560   3.749  0.3274  0.2731 -0.9739
  576MOL0    Cl77670   8.249   3.533   3.881 -0.1223 -0.0803  0.3585
  576MOL0     C77671   8.727   3.666   2.811 -0.6144  0.5087 -0.2829
  576MOL0     C77672   8.819   3.614   2.715 -0.3724 -0.3788 -0.2462
  576MOL0     O77673   8.982   3.408   2.568  0.6065  0.4234 -0.8444
  576MOL0     C77674   9.199   3.370   2.419  1.2910 -0.0423  0.4893
  576MOL0     C77675   9.312   3.342   2.348  0.1460 -0.2139  0.5475
  576MOL0     N77676   9.861   3.753   1.789  0.4271  0.1808  0.0189
  576MOL0     N77677   9.895   3.843   1.712 -0.5475 -0.7495 -0.5700
  576MOL0     C77678   9.115   3.807   1.686 -0.2828  0.8476  0.5423
  576MOL0     C77679   9.115   3.680   1.736 -0.5739 -0.4135 -0.1668
  576MOL0     C77680   9.288   3.289   1.836  0.0732 -0.1574 -0.0687
  576MOL0     C77681   9.261   3.251   1.965  0.1805  0.3078 -0.3438
  576MOL0     C77682   9.283   3.117   2.011 -0.3549  0.0741 -1.0290
  576MOL0     C77683   9.319   3.011   1.917 -0.5071 -0.7691  0.0837
  576MOL0     O77684   9.352   2.882   1.947  0.3991  0.2227 -0.3452
  576MOL0     C77685   9.368   2.839   2.078 -0.6435 -0.7402 -0.7657
  576MOL0     C77686   9.230   2.821   2.145 -0.0046 -0.3597 -0.6150
  576MOL0     C77687   9.154   2.700   2.087 -0.2160 -0.1780  0.3260
  576MOL0     C77688   9.029   2.672   2.161 -0.4241  0.0170  0.1851
  576MOL0     C77689   9.068   2.613   2.295  0.1576  0.2775  0.0109
  576MOL0     C77690   9.099   2.547   2.391 -0.2047  0.7468  1.1940
  576MOL0     C77691   9.358   3.060   1.784  0.7684 -0.1277  0.1152
  576MOL0     C77692   9.338   3.197   1.742  0.0841  1.2763 -1.0122
  576MOL0     H77693   9.357   3.714   1.984 -0.5135 -1.7051  0.6366
  576MOL0     H77694   9.343   3.952   1.881 -1.0365  1.4352 -1.6201
  576MOL0     H77695   9.262   3.986   1.516 -1.3502 -0.1918 -2.6094
  576MOL0     H77696   9.107   4.067   1.536  0.1485 -2.3211  0.6021
  576MOL0     H77697   9.203   4.252   1.484 -1.1163 -1.3516  0.8681
  576MOL0     H77698   9.266   4.241   1.655  0.1696  1.8374  0.0997
  576MOL0     H77699   9.445   4.294   1.554  0.1393 -0.4962 -0.8712
  576MOL0     H77700   9.457   4.125   1.580 -4.2278 -2.0463  1.3710
  576MOL0     H77701   9.370   4.100   1.333  0.1182  1.6397 -1.2752
  576MOL0     H77702   9.438   4.263   1.308 -2.2364  0.9780 -0.0506
  576MOL0     H77703   9.624   4.132   1.246  3.0996 -2.9596  0.1405
  576MOL0     H77704   9.669   4.166   1.401  0.3417  0.5525 -1.3681
  576MOL0     H77705   9.530   3.944   1.473 -2.0158  1.3107 -0.9625
  576MOL0     H77706   9.538   3.919   1.300 -1.3642  1.5701  0.9215
  576MOL0     H77707   9.746   3.815   1.403  1.6948 -0.6956  1.6537
  576MOL0     H77708   9.784   3.963   1.314 -1.0386 -0.1126  0.2209
  576MOL0     H77709   9.772   4.081   1.547  2.2885  0.7399 -1.7141
  576MOL0     H77710   9.908   3.982   1.514 -0.0816 -0.6589 -1.7110
  576MOL0     H77711   9.569   3.864   1.681  0.5584  3.6391  1.5897
  576MOL0     H77712   9.572   3.699   1.897  1.3893  3.3237 -1.0940
  576MOL0     H77713   9.595   3.568   1.769  2.8792 -1.7153 -0.0694
  576MOL0     H77714   9.763   3.598   2.023  2.6203 -1.4162  0.0219
  576MOL0     H77715   9.799   3.494   1.880  2.1109  1.8168  1.2560
  576MOL0     H77716   9.682   3.351   2.045 -1.2008 -0.3348  1.5774
  576MOL0     H77717   9.544   3.405   1.943 -1.1063  1.8140  1.4395
  576MOL0     H77718   9.493   3.592   2.098 -1.7185  0.1872  1.8769
  576MOL0     H77719   9.629   3.544   2.198 -2.2738  1.0654  1.9206
  576MOL0     H77720   9.343   3.658   2.206 -0.8009 -0.7747 -1.8553
  576MOL0     H77721   9.227   3.815   2.299 -0.5504 -1.0094 -1.1051
  576MOL0     H77722   9.072   3.766   2.331  0.3000 -0.2891 -2.1733
  576MOL0     H77723   9.172   3.780   2.472 -0.2805  5.0359 -1.0561
  576MOL0     H77724   8.830   3.866   2.494 -3.4975 -0.0651 -2.1429
  576MOL0     H77725   8.639   3.949   2.657  0.9932  0.4444  1.3992
  576MOL0     H77726   8.407   3.820   2.968 -0.4015  1.2277 -0.4179
  576MOL0     H77727   8.509   3.675   2.941 -1.3385 -0.7688 -3.5405
  576MOL0     H77728   8.674   3.792   3.109 -0.5247  2.4519  1.0022
  576MOL0     H77729   8.563   3.913   3.134 -0.2462  0.6961 -3.0990
  576MOL0     H77730   8.451   3.624   3.164  3.3906 -0.4810 -0.6735
  576MOL0     H77731   8.395   3.783   3.237 -2.9204 -2.7618 -0.8620
  576MOL0     H77732   8.611   3.586   3.322  1.4315  0.0985  0.0985
  576MOL0     H77733   8.629   3.765   3.356 -0.0297  1.0838 -1.6298
  576MOL0     H77734   8.406   3.771   3.457 -0.6779  0.1835  2.2227
  576MOL0     H77735   8.536   3.673   3.551  1.7636 -3.7844 -0.3620
  576MOL0     H77736   8.328   3.540   3.395  0.2915  2.8177 -0.9000
  576MOL0     H77737   8.461   3.479   3.496 -2.2117 -2.0840  1.0558
  576MOL0     H77738   8.227   3.474   3.611  1.9043 -1.2777  1.5100
  576MOL0     H77739   8.232   3.647   3.624 -1.0460 -0.6928 -1.1215
  576MOL0     H77740   8.411   3.663   3.762 -1.2638  0.8087 -0.4452
  576MOL0     H77741   8.459   3.492   3.758  0.6192  0.8320  1.0205
  576MOL0     H77742   8.721   3.607   2.902 -2.4729  1.6547  0.3958
  576MOL0     H77743   8.873   3.523   2.741 -1.7227 -1.8039 -2.1077
  576MOL0     H77744   9.168   3.282   2.474  1.2470 -0.2516  0.1298
  576MOL0     H77745   9.361   3.246   2.363 -1.5813 -0.8300  2.7065
  576MOL0     H77746   9.057   3.847   1.603 -2.6793  2.8869  3.0008
  576MOL0     H77747   9.045   3.610   1.691 -2.7299  2.5247 -1.7665
  576MOL0     H77748   9.226   3.330   2.031 -4.0774  0.9230 -2.9716
  576MOL0     H77749   9.258   3.099   2.115  0.6045 -1.5864 -1.0603
  576MOL0     H77750   9.419   2.742   2.072 -2.2658 -1.6389 -0.7486
  576MOL0     H77751   9.432   2.904   2.137 -0.3128  0.2016 -2.1095
  576MOL0     H77752   9.172   2.913   2.134 -0.6495 -0.8841 -1.6396
  576MOL0     H77753   9.256   2.803   2.250 -1.4003  1.1660  0.0383
  576MOL0     H77754   9.222   2.616   2.073  0.8867  0.8430 -0.6978
  576MOL0     H77755   9.115   2.718   1.986 -0.3511 -2.3604 -0.0585
  576MOL0     H77756   8.958   2.605   2.111 -2.7340  1.3099  1.5386
  576MOL0     H77757   8.978   2.767   2.181 -0.5617  0.3380 -1.5334
  576MOL0     H77758   9.095   2.495   2.485  2.7361 -3.7095 -0.7398
  576MOL0     H77759   9.395   2.981   1.719  3.2449  0.9578  0.0722
  576MOL0     H77760   9.338   3.219   1.636 -0.3972  0.1228 -1.2595
  577MOL0     O77761   2.215   5.717   1.490 -0.2624  0.3739 -0.2818
  577MOL0     C77762   2.145   5.701   1.386 -0.4911 -0.7640  0.0066
  577MOL0     O77763   2.092   5.807   1.310 -0.0299  0.0604 -0.0422
  577MOL0     C77764   2.141   5.934   1.334  0.6885  0.9428 -0.0548
  577MOL0     C77765   2.241   5.989   1.262  0.2319  0.5422  0.5435
  577MOL0     C77766   2.280   6.110   1.292 -0.6072 -0.2080 -0.8412
  577MOL0     C77767   2.216   6.192   1.395 -0.5760  0.4317  0.2537
  577MOL0     O77768   2.252   6.321   1.434  1.4150 -0.2581 -0.0110
  577MOL0     C77769   2.357   6.387   1.366 -0.2291  0.7026 -0.1397
  577MOL0     C77770   2.383   6.522   1.431  0.7242 -0.0381  0.1348
  577MOL0     C77771   2.308   6.644   1.373  0.1337  0.2718 -0.6922
  577MOL0     C77772   2.330   6.777   1.449  0.1490 -0.2134  0.1538
  577MOL0     C77773   2.330   6.771   1.600  0.3605  0.4212  0.3537
  577MOL0     C77774   2.350   6.902   1.660 -0.1700  0.2270 -0.4161
  577MOL0     C77775   2.480   6.972   1.630 -0.6489  0.2663  0.0472
  577MOL0     C77776   2.476   7.113   1.675 -0.8330 -0.7986 -0.3362
  577MOL0     N77777   2.420   7.207   1.585  0.1813  0.0413  0.9050
  577MOL0     C77778   2.328   7.181   1.488  0.4779  0.2197  0.7736
  577MOL0     C77779   2.300   7.298   1.430 -0.2039 -0.0296 -0.4585
  577MOL0     C77780   2.202   7.322   1.318  0.2059  0.6817 -0.1469
  577MOL0     C77781   2.220   7.219   1.206  0.3594 -0.0776  0.1932
  577MOL0     C77782   2.099   7.198   1.121  0.4348  0.3572  1.2629
  577MOL0     C77783   1.974   7.180   1.197  0.9896  0.1452 -0.2823
  577MOL0     O77784   1.860   7.166   1.106  0.0469 -0.2669  0.2827
  577MOL0     C77785   1.766   7.067   1.131 -1.0196 -0.8338 -0.8012
  577MOL0     C77786   1.688   7.034   1.016  0.0950  0.4050  0.0436
  577MOL0     C77787   1.590   6.931   1.033  0.1499 -0.2930 -0.7574
  577MOL0     C77788   1.505   6.899   0.914  0.1249  0.4622  0.5610
  577MOL0     C77789   1.571   6.872   1.161 -0.1513 -0.1637  0.5372
  577MOL0     C77790   1.453   6.778   1.185 -0.2607  0.2283  1.0405
  577MOL0     O77791   1.370   6.826   1.282  0.4280 -0.6371 -0.4893
  577MOL0     C77792   1.246   6.786   1.318  1.2050  0.7494 -0.0233
  577MOL0     C77793   1.166   6.856   1.410 -0.2536 -0.3125 -0.6903
  577MOL0     C77794   1.033   6.824   1.445 -0.3211 -0.0196  0.5307
  577MOL0     C77795   0.974   6.715   1.378  0.4886 -0.8336  0.7584
  577MOL0     O77796   0.847   6.658   1.406 -0.0902 -0.1333 -0.5954
  577MOL0     C77797   0.762   6.711   1.509 -0.4350 -0.7623  0.4838
  577MOL0     C77798   0.795   6.654   1.651 -0.6804  0.8727 -0.2914
  577MOL0     C77799   0.775   6.505   1.665 -0.6417  0.3422  0.3482
  577MOL0     C77800   0.622   6.466   1.650 -0.1154 -0.6011 -0.0135
  577MOL0     C77801   0.612   6.324   1.690  0.4151 -0.2305  0.3821
  577MOL0     C77802   0.468   6.286   1.705 -0.5601 -0.3330 -0.8200
  577MOL0     C77803   0.458   6.136   1.751 -0.4323  0.1394  0.8407
  577MOL0     C77804   0.317   6.082   1.725 -0.3959  1.4411 -0.9331
  577MOL0    Cl77805   0.189   6.178   1.805  0.0308  0.1640 -0.0011
  577MOL0     C77806   1.054   6.635   1.289  0.9241  0.0997 -0.6553
  577MOL0     C77807   1.179   6.673   1.253  0.1993  0.4156  0.6955
  577MOL0     O77808   1.445   6.666   1.138 -0.3693  0.0046  0.3115
  577MOL0     C77809   1.640   6.912   1.273  0.9459 -0.9298 -0.4945
  577MOL0     C77810   1.750   6.995   1.253 -0.2571  0.5869 -0.0277
  577MOL0     N77811   2.372   7.399   1.495  1.1948 -0.1973 -0.6948
  577MOL0     N77812   2.438   7.340   1.590  0.4988 -0.6697  0.0137
  577MOL0     C77813   2.117   6.131   1.467  0.5330 -0.0078 -1.0749
  577MOL0     C77814   2.075   6.008   1.433  0.4457 -0.8231  0.8800
  577MOL0     C77815   2.098   5.568   1.353  0.7918  0.4879  0.4350
  577MOL0     C77816   2.047   5.489   1.459 -0.4298 -0.0260  0.2847
  577MOL0     C77817   1.992   5.364   1.438 -0.6128  0.2526  1.0309
  577MOL0     C77818   2.002   5.310   1.307 -0.0640  0.3284  0.6988
  577MOL0     O77819   1.937   5.192   1.274 -0.2486  0.0527  0.1248
  577MOL0     C77820   1.889   5.108   1.373  0.0611  1.0292 -0.2921
  577MOL0     C77821   1.789   5.018   1.301 -0.9168  0.5478  1.1134
  577MOL0     C77822   1.835   4.931   1.181 -0.0179 -0.2622  0.5121
  577MOL0     C77823   1.710   4.888   1.092 -0.3011 -0.2202  0.6892
  577MOL0     C77824   1.729   4.793   0.982 -0.4228 -0.0885  0.0603
  577MOL0     C77825   1.766   4.722   0.894 -0.4624  0.8858  0.4901
  577MOL0     C77826   2.059   5.386   1.194  0.1067 -0.3170  0.3197
  577MOL0     C77827   2.094   5.521   1.213 -0.5686 -0.4966  0.6255
  577MOL0     H77828   2.295   5.940   1.182 -2.1505  3.9811 -3.6437
  577MOL0     H77829   2.351   6.153   1.222 -2.6420  0.7538 -2.4063
  577MOL0     H77830   2.453   6.337   1.382 -0.0716  1.4467  1.4125
  577MOL0     H77831   2.328   6.385   1.261 -0.8530 -0.3379  0.0317
  577MOL0     H77832   2.357   6.518   1.537 -0.2225  2.4275  0.0560
  577MOL0     H77833   2.492   6.536   1.437  0.5753  0.9005  0.8324
  577MOL0     H77834   2.311   6.661   1.265  2.1183 -3.0129 -1.2835
  577MOL0     H77835   2.202   6.621   1.391 -0.0280  1.8609  0.5872
  577MOL0     H77836   2.421   6.823   1.408  1.2825 -1.7740  0.8039
  577MOL0     H77837   2.244   6.836   1.417 -0.3851 -0.6124  0.8182
  577MOL0     H77838   2.242   6.716   1.631 -0.4130  3.0721  3.3592
  577MOL0     H77839   2.415   6.707   1.626 -0.7554 -0.8010  1.0586
  577MOL0     H77840   2.260   6.962   1.641  0.8031  1.8043 -0.2134
  577MOL0     H77841   2.350   6.896   1.769  3.1458  0.0440 -0.3177
  577MOL0     H77842   2.549   6.912   1.689 -2.4037 -2.5570 -0.5927
  577MOL0     H77843   2.508   6.985   1.525  0.7074 -0.0443  0.3445
  577MOL0     H77844   2.580   7.147   1.680 -0.8814 -0.8579  2.4951
  577MOL0     H77845   2.432   7.141   1.771  0.1456  0.9220 -0.3336
  577MOL0     H77846   2.270   7.091   1.472  1.0214 -0.1764  1.0203
  577MOL0     H77847   2.106   7.328   1.369  1.0650 -1.6761  1.9711
  577MOL0     H77848   2.220   7.422   1.276 -0.9793  1.3264  0.8259
  577MOL0     H77849   2.252   7.127   1.256 -1.2633  1.5866  4.8295
  577MOL0     H77850   2.306   7.254   1.148 -1.7939  1.4136 -2.3134
  577MOL0     H77851   2.101   7.105   1.063  1.7144 -0.9492  3.2562
  577MOL0     H77852   2.100   7.291   1.063  2.1683 -0.9472 -0.9653
  577MOL0     H77853   1.947   7.268   1.256 -3.5909 -0.3010 -1.3112
  577MOL0     H77854   1.984   7.096   1.266  0.9874  1.4444  1.3523
  577MOL0     H77855   1.709   7.084   0.922  1.4177 -1.6721 -0.8385
  577MOL0     H77856   1.511   6.790   0.903 -1.6834  0.1491  2.1595
  577MOL0     H77857   1.403   6.938   0.924 -0.6628 -1.6457  1.3634
  577MOL0     H77858   1.534   6.943   0.818 -1.8410 -0.7550 -0.6747
  577MOL0     H77859   1.206   6.947   1.453  2.9879 -1.9452  0.0711
  577MOL0     H77860   0.986   6.876   1.527  0.0281  0.0486  0.6916
  577MOL0     H77861   0.757   6.820   1.519  5.6266 -0.2555  1.6921
  577MOL0     H77862   0.661   6.678   1.480  0.2539 -3.1409  0.6070
  577MOL0     H77863   0.895   6.692   1.672 -0.0161 -1.4799  1.1376
  577MOL0     H77864   0.746   6.708   1.733  4.0085 -0.0839  3.5930
  577MOL0     H77865   0.821   6.474   1.759 -1.0879  1.8608  1.0931
  577MOL0     H77866   0.828   6.445   1.590  0.0728 -0.4951  1.4840
  577MOL0     H77867   0.563   6.520   1.724  0.0042 -4.5527  3.3075
  577MOL0     H77868   0.592   6.485   1.546 -0.6776  0.1551  0.2778
  577MOL0     H77869   0.656   6.312   1.789 -0.5393 -1.6003  0.6726
  577MOL0     H77870   0.672   6.253   1.633  1.2787  0.4712  0.3978
  577MOL0     H77871   0.432   6.348   1.788  1.2393  0.5447 -0.6652
  577MOL0     H77872   0.404   6.312   1.620  1.5462  1.5586 -1.9386
  577MOL0     H77873   0.476   6.133   1.858 -0.3547 -1.0033  0.8128
  577MOL0     H77874   0.538   6.077   1.706  1.3661  2.0466  1.3976
  577MOL0     H77875   0.315   5.977   1.755  1.6133  1.9468  1.3230
  577MOL0     H77876   0.298   6.080   1.618 -1.7498 -0.8593 -0.7049
  577MOL0     H77877   1.010   6.554   1.231 -0.1184  1.5924 -2.0717
  577MOL0     H77878   1.224   6.597   1.190 -0.2282 -0.1495  1.0580
  577MOL0     H77879   1.623   6.871   1.372  5.0186 -1.0301  0.3438
  577MOL0     H77880   1.796   7.037   1.342  0.1124  0.4979 -0.1740
  577MOL0     H77881   2.063   6.184   1.544 -1.0550  0.3495 -2.3774
  577MOL0     H77882   1.996   5.969   1.496 -0.4240  0.6612  0.7585
  577MOL0     H77883   2.054   5.534   1.557  1.8109 -1.9026  1.0864
  577MOL0     H77884   1.952   5.309   1.522 -0.5713  1.9637  2.2134
  577MOL0     H77885   1.980   5.057   1.406 -1.1753 -1.3274 -0.2578
  577MOL0     H77886   1.838   5.154   1.458  0.2276  1.4841 -0.4368
  577MOL0     H77887   1.714   5.093   1.272 -0.8184 -0.5632 -2.5098
  577MOL0     H77888   1.756   4.941   1.371  1.0043 -2.4372 -1.0764
  577MOL0     H77889   1.890   4.842   1.212  3.0268  0.4757 -2.3005
  577MOL0     H77890   1.914   4.981   1.124  1.3415 -1.0549  1.6422
  577MOL0     H77891   1.661   4.968   1.035 -0.2312 -0.5330  0.1891
  577MOL0     H77892   1.640   4.834   1.157  0.7003  0.7404  2.6633
  577MOL0     H77893   1.798   4.652   0.820  0.4838  0.6723  1.0745
  577MOL0     H77894   2.058   5.347   1.093  1.5930 -1.5194  0.7363
  577MOL0     H77895   2.128   5.585   1.132  1.5612 -0.9543  1.0834
  578MOL0     O77896   0.014   3.056   6.060 -0.3620 -0.8231  0.0157
  578MOL0     C77897  -0.073   3.010   6.135  0.3757  0.2952 -0.3957
  578MOL0     O77898  -0.156   2.903   6.113  0.1243  0.3272 -0.3410
  578MOL0     C77899  -0.169   2.841   5.989  0.0183  0.4804  0.1788
  578MOL0     C77900  -0.305   2.841   5.940 -0.8855  0.1524 -0.2214
  578MOL0     C77901  -0.346   2.788   5.820 -0.8087  0.0469  0.5676
  578MOL0     C77902  -0.247   2.746   5.734 -0.2899 -0.0047  0.2497
  578MOL0     O77903  -0.261   2.687   5.609  0.5230  0.4656 -0.4339
  578MOL0     C77904  -0.391   2.657   5.561 -0.3920 -0.3505 -0.9892
  578MOL0     C77905  -0.370   2.571   5.435  0.3553 -0.0568  0.3189
  578MOL0     C77906  -0.340   2.652   5.306 -0.2391  0.0936 -0.3219
  578MOL0     C77907  -0.205   2.729   5.304  0.1316  0.0072 -0.5082
  578MOL0     C77908  -0.241   2.881   5.304 -0.5464 -0.0520  0.6055
  578MOL0     C77909  -0.126   2.976   5.340  0.2538 -0.5608  0.1384
  578MOL0     C77910  -0.163   3.113   5.390  1.0378 -1.1821 -0.3181
  578MOL0     C77911  -0.188   3.114   5.544 -0.8122 -0.7123 -0.9986
  578MOL0     N77912  -0.086   3.195   5.610  0.2172  0.0768 -0.3554
  578MOL0     C77913   0.005   3.149   5.707  0.7816  0.0307 -0.9678
  578MOL0     C77914   0.060   3.257   5.755  0.3809 -0.6341  0.0958
  578MOL0     C77915   0.163   3.279   5.859 -0.1709  0.5553  0.0195
  578MOL0     C77916   0.280   3.176   5.843  0.8566 -0.2600 -0.7682
  578MOL0     C77917   0.368   3.205   5.718  0.4904 -0.0031 -0.1044
  578MOL0     C77918   0.433   3.341   5.709 -0.0742  0.0305 -0.3770
  578MOL0     O77919   0.537   3.335   5.608 -0.2892 -0.3933  0.7593
  578MOL0     C77920   0.620   3.439   5.622  0.2772  0.2548  0.6867
  578MOL0     C77921   0.607   3.568   5.577 -0.1416  0.3047  0.2112
  578MOL0     C77922   0.704   3.669   5.628 -0.1819  0.0495 -0.5070
  578MOL0     C77923   0.647   3.809   5.625 -0.0851  0.4895 -0.3806
  578MOL0     C77924   0.826   3.641   5.690 -0.1925 -0.3394 -1.0086
  578MOL0     C77925   0.931   3.735   5.735  1.4560 -0.7285  0.7880
  578MOL0     O77926   0.985   3.709   5.851 -0.1786  0.3486  0.6330
  578MOL0     C77927   1.077   3.804   5.898  0.4128  0.2861 -0.5559
  578MOL0     C77928   1.203   3.816   5.838 -0.5969 -0.0983 -0.4063
  578MOL0     C77929   1.305   3.897   5.897 -0.4850  0.4048  0.9374
  578MOL0     C77930   1.274   3.964   6.011  0.1831 -0.1143  0.4284
  578MOL0     O77931   1.376   4.046   6.057  0.4188 -0.1708  0.2538
  578MOL0     C77932   1.391   4.104   6.182 -0.0270  0.3165 -0.6350
  578MOL0     C77933   1.319   4.236   6.188 -0.1240 -0.2483  0.1573
  578MOL0     C77934   1.344   4.311   6.323  0.1184  0.5950 -0.4183
  578MOL0     C77935   1.243   4.420   6.349  1.0107 -0.4778 -0.3196
  578MOL0     C77936   1.253   4.478   6.502  0.3403  0.1614  0.3896
  578MOL0     C77937   1.198   4.622   6.520 -0.7241 -0.1442  1.0065
  578MOL0     C77938   1.206   4.672   6.669 -0.0786  0.0010  0.0547
  578MOL0     C77939   1.351   4.694   6.713  0.4891 -0.1994 -0.3535
  578MOL0    Cl77940   1.405   4.537   6.784  0.1269  0.3470 -0.1054
  578MOL0     C77941   1.147   3.959   6.069 -0.1328 -1.1005 -0.6128
  578MOL0     C77942   1.046   3.883   6.012 -0.3251  0.1115 -0.3416
  578MOL0     O77943   0.937   3.839   5.672 -0.4143 -1.1373  0.2005
  578MOL0     C77944   0.837   3.500   5.703  0.2895  0.8433 -0.1022
  578MOL0     C77945   0.742   3.402   5.672 -1.0374  0.3689  0.0648
  578MOL0     N77946   0.022   3.365   5.678  1.1165 -0.7753  0.2244
  578MOL0     N77947  -0.086   3.331   5.607 -0.6361 -0.6207  0.4514
  578MOL0     C77948  -0.116   2.740   5.782 -0.2309  0.5965 -1.1362
  578MOL0     C77949  -0.076   2.780   5.910  0.0818 -0.7611  0.0800
  578MOL0     C77950  -0.056   3.058   6.273  0.9458 -0.2190  0.0102
  578MOL0     C77951  -0.061   2.962   6.380 -0.5089  0.8121 -0.1983
  578MOL0     C77952  -0.047   3.004   6.511  0.1151  0.5856  0.6706
  578MOL0     C77953  -0.031   3.146   6.532 -0.1753  0.3498 -0.6756
  578MOL0     O77954  -0.041   3.195   6.662 -0.4338  0.2137  0.5628
  578MOL0     C77955  -0.159   3.159   6.739 -0.0935 -0.2212  0.8310
  578MOL0     C77956  -0.171   3.239   6.862  0.3206  0.3059  0.6785
  578MOL0     C77957  -0.059   3.202   6.962 -0.1579  1.2159 -0.4679
  578MOL0     C77958  -0.045   3.326   7.064 -0.2130  0.0638 -0.0990
  578MOL0     C77959  -0.142   3.293   7.173 -0.3275  0.1698  0.1155
  578MOL0     C77960  -0.217   3.266   7.263 -0.4205 -0.0643 -0.4426
  578MOL0     C77961  -0.018   3.240   6.430 -0.8975  0.0492 -0.6215
  578MOL0     C77962  -0.037   3.192   6.301 -0.1761  0.1642 -1.0131
  578MOL0     H77963  -0.387   2.884   5.997 -0.2502 -0.6013  1.3269
  578MOL0     H77964  -0.446   2.757   5.793  1.1936 -3.9856 -3.6873
  578MOL0     H77965  -0.446   2.594   5.631  3.4545 -1.2015  1.6377
  578MOL0     H77966  -0.440   2.748   5.525 -2.8231 -0.4944  1.6277
  578MOL0     H77967  -0.282   2.507   5.442 -0.2391 -0.8151  1.1655
  578MOL0     H77968  -0.451   2.498   5.423 -0.2356  0.4473  1.1354
  578MOL0     H77969  -0.343   2.575   5.228  2.1754  1.1336 -1.5456
  578MOL0     H77970  -0.420   2.718   5.272  2.5781  2.6694 -2.5141
  578MOL0     H77971  -0.143   2.702   5.390  0.1469 -1.2939 -0.9184
  578MOL0     H77972  -0.148   2.705   5.213 -0.8791  3.5794 -2.2823
  578MOL0     H77973  -0.272   2.913   5.204  0.5113 -1.9710 -0.3847
  578MOL0     H77974  -0.318   2.892   5.381 -0.4948 -0.2440  0.6842
  578MOL0     H77975  -0.074   2.924   5.421 -0.9895  0.7846  1.8805
  578MOL0     H77976  -0.061   2.989   5.252 -1.9854  0.1543 -1.4859
  578MOL0     H77977  -0.078   3.179   5.372  0.5373 -0.9763 -2.1483
  578MOL0     H77978  -0.245   3.155   5.330  3.3250  3.0127 -0.8994
  578MOL0     H77979  -0.200   3.010   5.574 -2.0231 -0.0772  0.9065
  578MOL0     H77980  -0.284   3.163   5.565 -1.6988 -1.3636 -3.2414
  578MOL0     H77981   0.013   3.048   5.746  1.5718  0.1128 -0.8851
  578MOL0     H77982   0.191   3.384   5.857 -1.1544  0.9246  2.1393
  578MOL0     H77983   0.119   3.265   5.959  1.3208  1.1386  0.7769
  578MOL0     H77984   0.244   3.076   5.818 -0.4241 -0.4911  1.7044
  578MOL0     H77985   0.354   3.179   5.924  3.9010  1.4054 -3.3815
  578MOL0     H77986   0.303   3.184   5.633 -1.1712 -1.0103  1.3510
  578MOL0     H77987   0.442   3.126   5.705 -0.6877 -1.2087  0.3740
  578MOL0     H77988   0.460   3.385   5.805 -0.9319 -0.3973  0.0716
  578MOL0     H77989   0.368   3.419   5.670  2.3632  2.0703 -0.6164
  578MOL0     H77990   0.517   3.592   5.521  1.2751  1.2189 -1.7944
  578MOL0     H77991   0.537   3.813   5.628 -0.0643  0.6446  0.3035
  578MOL0     H77992   0.681   3.875   5.705  2.3993  2.3331 -2.7953
  578MOL0     H77993   0.692   3.861   5.540  2.8046 -1.4894 -0.1915
  578MOL0     H77994   1.227   3.747   5.758 -0.1923  0.5139 -0.8215
  578MOL0     H77995   1.404   3.918   5.858  0.0864 -0.8387  1.6753
  578MOL0     H77996   1.348   4.056   6.271 -0.0747 -4.6833 -3.0240
  578MOL0     H77997   1.496   4.124   6.207 -0.3843  0.6679  0.6851
  578MOL0     H77998   1.363   4.297   6.109 -2.1588 -1.0454 -1.7097
  578MOL0     H77999   1.213   4.216   6.171  0.4867 -3.9805 -0.0780
  578MOL0     H78000   1.447   4.348   6.319  0.8002 -1.1393  0.1654
  578MOL0     H78001   1.336   4.237   6.403 -1.3718 -0.3481 -1.3923
  578MOL0     H78002   1.258   4.497   6.272  1.1030 -0.8004 -0.6266
  578MOL0     H78003   1.146   4.375   6.326  0.0765  1.2530  0.0928
  578MOL0     H78004   1.357   4.480   6.534  0.3689  0.2786  0.2902
  578MOL0     H78005   1.196   4.410   6.566  0.7455  2.4138  3.3794
  578MOL0     H78006   1.265   4.693   6.470 -1.9410  1.9053  2.1746
  578MOL0     H78007   1.097   4.652   6.490  0.1350  0.0907 -2.0586
  578MOL0     H78008   1.142   4.611   6.734 -1.9166  0.1688 -1.5389
  578MOL0     H78009   1.160   4.771   6.669  1.0250  0.7987  5.1977
  578MOL0     H78010   1.357   4.762   6.798  3.4026 -0.0293 -0.5720
  578MOL0     H78011   1.413   4.737   6.633 -0.0841 -0.6645 -1.0661
  578MOL0     H78012   1.123   4.016   6.158 -0.9012 -3.4633  0.7879
  578MOL0     H78013   0.948   3.878   6.059  0.0217 -0.8193  0.3080
  578MOL0     H78014   0.935   3.470   5.737 -0.8446 -0.8055  1.9528
  578MOL0     H78015   0.767   3.304   5.711 -1.6328  0.4586  0.7033
  578MOL0     H78016  -0.051   2.698   5.705 -0.5196  1.4046 -1.8391
  578MOL0     H78017   0.029   2.778   5.937 -0.3207  1.3372  2.1385
  578MOL0     H78018  -0.074   2.855   6.373  1.3379  0.6292 -1.8334
  578MOL0     H78019  -0.057   2.929   6.588 -0.0895  0.5479  0.6077
  578MOL0     H78020  -0.252   3.158   6.683 -1.1129  0.8431  2.4286
  578MOL0     H78021  -0.140   3.058   6.778  0.9073 -1.9046 -3.4457
  578MOL0     H78022  -0.264   3.205   6.908  0.2886  0.5562  0.8022
  578MOL0     H78023  -0.177   3.348   6.848  1.5398  0.7404  3.0593
  578MOL0     H78024   0.032   3.176   6.908  1.5814 -0.8610  3.0996
  578MOL0     H78025  -0.076   3.113   7.023 -1.8554  1.3128 -0.7471
  578MOL0     H78026  -0.057   3.421   7.011  0.9092  0.7229  0.7876
  578MOL0     H78027   0.057   3.326   7.104 -0.3158 -2.9055  0.3846
  578MOL0     H78028  -0.280   3.256   7.349  0.9109  0.6790  0.6767
  578MOL0     H78029  -0.002   3.346   6.448  2.1125 -0.2352 -1.1995
  578MOL0     H78030  -0.047   3.270   6.225  1.4422 -0.8018 -2.2751
  579MOL0     O78031   2.259   9.006   0.279 -0.4984 -0.3063 -0.9206
  579MOL0     C78032   2.333   8.954   0.366  0.0451  0.5501 -1.4047
  579MOL0     O78033   2.449   8.876   0.349  0.5970 -0.1852  0.2756
  579MOL0     C78034   2.489   8.857   0.221 -1.0658  0.4692 -0.9799
  579MOL0     C78035   2.626   8.853   0.210 -0.5420  0.2440  1.0942
  579MOL0     C78036   2.685   8.819   0.090  0.6454 -0.5907 -0.0706
  579MOL0     C78037   2.601   8.791  -0.024  0.0104 -0.0952 -0.6707
  579MOL0     O78038   2.654   8.756  -0.147  0.0275 -0.6197  0.3342
  579MOL0     C78039   2.778   8.682  -0.147  0.2358 -1.1725  0.2876
  579MOL0     C78040   2.795   8.633  -0.293 -0.1983 -0.4384  0.3977
  579MOL0     C78041   2.932   8.570  -0.311 -0.2701 -0.9520 -0.6560
  579MOL0     C78042   2.940   8.466  -0.422  0.2240  0.2853  0.2009
  579MOL0     C78043   3.081   8.405  -0.446 -0.3427 -0.5819 -0.4379
  579MOL0     C78044   3.146   8.357  -0.312  0.7238  0.7487 -0.8561
  579MOL0     C78045   3.253   8.247  -0.317 -1.0289  0.3159 -0.3220
  579MOL0     C78046   3.369   8.284  -0.403 -0.1260 -0.1936 -0.1734
  579MOL0     N78047   3.467   8.171  -0.390 -0.4411 -1.4127 -0.0748
  579MOL0     C78048   3.450   8.043  -0.441 -0.4146  0.6991 -0.3352
  579MOL0     C78049   3.540   7.963  -0.377  0.1946  0.1086 -0.0351
  579MOL0     C78050   3.563   7.814  -0.412 -0.3405 -0.5761 -0.3138
  579MOL0     C78051   3.633   7.829  -0.544  0.6828 -0.3323  0.3750
  579MOL0     C78052   3.674   7.687  -0.592 -0.4896 -0.6512  0.7336
  579MOL0     C78053   3.803   7.646  -0.521 -0.3131 -0.0814 -0.2979
  579MOL0     O78054   3.861   7.529  -0.578 -0.6787 -0.0097  0.3882
  579MOL0     C78055   3.998   7.531  -0.575  0.2644  0.1859  0.0025
  579MOL0     C78056   4.061   7.558  -0.692  0.3926 -0.0436 -0.0826
  579MOL0     C78057   4.200   7.545  -0.695  0.1638 -0.0530 -0.1334
  579MOL0     C78058   4.255   7.597  -0.823  1.0680 -0.3824  0.1387
  579MOL0     C78059   4.273   7.509  -0.588  0.6918  0.0122 -0.6020
  579MOL0     C78060   4.427   7.499  -0.572  0.1292  0.4540 -0.1412
  579MOL0     O78061   4.474   7.431  -0.464 -0.8844 -0.9997  0.8745
  579MOL0     C78062   4.615   7.432  -0.448 -1.0452 -0.4207  0.1934
  579MOL0     C78063   4.699   7.548  -0.445 -0.0178 -0.0064  0.8829
  579MOL0     C78064   4.838   7.539  -0.429 -0.1073 -0.1914  0.7415
  579MOL0     C78065   4.899   7.410  -0.413 -1.0905  0.0964  0.3797
  579MOL0     O78066   5.034   7.394  -0.405  0.0389 -0.4229  0.5087
  579MOL0     C78067   5.118   7.505  -0.402 -0.1472 -0.0265 -1.1843
  579MOL0     C78068   5.260   7.457  -0.410 -0.7811 -0.6647 -0.9246
  579MOL0     C78069   5.359   7.573  -0.411  0.0432 -0.3037 -0.2344
  579MOL0     C78070   5.496   7.552  -0.483  0.3314  0.5699 -0.0629
  579MOL0     C78071   5.600   7.671  -0.452  0.4848  0.1220  0.2096
  579MOL0     C78072   5.737   7.645  -0.516  0.3442  0.5992  0.3402
  579MOL0     C78073   5.837   7.755  -0.468 -0.0371 -0.3971  0.4790
  579MOL0     C78074   5.836   7.799  -0.327  1.3015 -0.5512  0.7392
  579MOL0    Cl78075   5.961   7.912  -0.304  0.0502  0.1734  0.2221
  579MOL0     C78076   4.817   7.299  -0.406  0.8683 -0.3086  1.5127
  579MOL0     C78077   4.678   7.307  -0.429  0.1603  0.3958 -0.0966
  579MOL0     O78078   4.494   7.573  -0.646  0.0003 -0.2839  0.3691
  579MOL0     C78079   4.204   7.493  -0.465  0.3699 -0.1749 -0.9440
  579MOL0     C78080   4.066   7.510  -0.453  0.2583  0.1262  0.8974
  579MOL0     N78081   3.605   8.042  -0.286  0.7545  0.1537 -1.4088
  579MOL0     N78082   3.564   8.166  -0.293  0.5268 -0.0951  0.0842
  579MOL0     C78083   2.466   8.803  -0.014  0.3112  1.0214 -0.7761
  579MOL0     C78084   2.408   8.833   0.112 -0.3895 -0.1597 -0.4053
  579MOL0     C78085   2.309   8.995   0.510  0.3882 -0.1245 -0.2215
  579MOL0     C78086   2.204   9.095   0.531 -1.2200 -0.1760  0.1609
  579MOL0     C78087   2.191   9.135   0.670 -0.6518 -0.5133 -0.6889
  579MOL0     C78088   2.264   9.079   0.772  0.6268 -0.5023  0.2828
  579MOL0     O78089   2.243   9.125   0.897 -0.2808  0.4297 -0.2345
  579MOL0     C78090   2.137   9.071   0.984 -1.2122  0.0074 -0.3785
  579MOL0     C78091   1.993   9.110   0.951 -0.9867  1.2192  0.1956
  579MOL0     C78092   1.877   9.085   1.054  0.1508  0.1295  0.1418
  579MOL0     C78093   1.929   9.022   1.180 -0.1899  0.2570 -0.1841
  579MOL0     C78094   1.823   8.952   1.256  0.4917 -0.9140 -0.3617
  579MOL0     C78095   1.726   8.901   1.307 -0.0275 -0.0840 -0.4232
  579MOL0     C78096   2.354   8.986   0.747 -0.3916  0.3038 -0.5739
  579MOL0     C78097   2.381   8.942   0.619  0.2899 -0.0384 -0.2082
  579MOL0     H78098   2.697   8.862   0.292 -0.8233 -1.3679  1.5528
  579MOL0     H78099   2.793   8.829   0.087  0.4325  2.6905  0.0919
  579MOL0     H78100   2.855   8.758  -0.133  0.7970 -2.0491  2.2588
  579MOL0     H78101   2.786   8.599  -0.075 -1.4458 -3.4798 -1.9863
  579MOL0     H78102   2.734   8.557  -0.342 -0.3193  0.4622 -0.9164
  579MOL0     H78103   2.786   8.718  -0.361  2.1040  1.1654  1.9281
  579MOL0     H78104   3.009   8.647  -0.318 -2.7500  1.8183  0.4515
  579MOL0     H78105   2.956   8.519  -0.218  0.0347  0.0671 -0.1598
  579MOL0     H78106   2.882   8.378  -0.394  0.7174  0.1387  0.7856
  579MOL0     H78107   2.900   8.496  -0.519  2.2110 -2.1486 -1.5292
  579MOL0     H78108   3.079   8.326  -0.521  0.6824 -1.6082  0.5523
  579MOL0     H78109   3.142   8.485  -0.488 -1.6127 -0.2035 -1.6243
  579MOL0     H78110   3.189   8.449  -0.269 -0.7614 -0.4639  3.9140
  579MOL0     H78111   3.073   8.329  -0.235  1.9799  0.4835  0.2696
  579MOL0     H78112   3.289   8.230  -0.215  2.5099  0.8650 -1.3471
  579MOL0     H78113   3.205   8.154  -0.349 -0.2620 -0.1687 -0.0935
  579MOL0     H78114   3.427   8.374  -0.381  0.8486 -1.1982  1.6074
  579MOL0     H78115   3.337   8.279  -0.507 -0.5649  0.3028 -0.0627
  579MOL0     H78116   3.387   8.015  -0.524 -2.9120  1.8895  1.0285
  579MOL0     H78117   3.627   7.768  -0.336  2.2981  0.8555 -1.5267
  579MOL0     H78118   3.472   7.754  -0.421 -0.6584 -0.3936  1.2753
  579MOL0     H78119   3.708   7.909  -0.542 -2.0083  2.4324 -1.0562
  579MOL0     H78120   3.555   7.865  -0.611  1.2631 -0.7362 -0.5335
  579MOL0     H78121   3.696   7.695  -0.699 -0.3874  0.5037  0.8229
  579MOL0     H78122   3.598   7.609  -0.579 -1.1750 -0.1939 -0.3221
  579MOL0     H78123   3.780   7.618  -0.418 -2.5255 -0.4716 -0.8362
  579MOL0     H78124   3.879   7.723  -0.531  0.5978 -0.9613 -0.2374
  579MOL0     H78125   3.999   7.577  -0.779  1.8323  2.5749 -0.6715
  579MOL0     H78126   4.358   7.571  -0.848  1.0390 -0.1088 -0.2835
  579MOL0     H78127   4.191   7.549  -0.898 -0.1888 -2.2205  2.2836
  579MOL0     H78128   4.245   7.706  -0.827 -1.5183 -0.5626 -0.3365
  579MOL0     H78129   4.656   7.646  -0.463 -1.0830 -0.6855 -0.4519
  579MOL0     H78130   4.903   7.625  -0.422  0.8101 -0.7476 -0.5451
  579MOL0     H78131   5.103   7.564  -0.493  0.7881 -1.5509 -2.3811
  579MOL0     H78132   5.114   7.563  -0.309  3.0996  1.1592 -1.6375
  579MOL0     H78133   5.275   7.394  -0.322 -0.7832  1.8558  0.9846
  579MOL0     H78134   5.279   7.409  -0.507 -2.1278  0.1490 -1.6174
  579MOL0     H78135   5.380   7.596  -0.306 -0.3691  0.2990 -0.2811
  579MOL0     H78136   5.315   7.662  -0.456  2.6657  1.1581 -0.0568
  579MOL0     H78137   5.545   7.459  -0.452 -0.1919  0.9343  1.9881
  579MOL0     H78138   5.477   7.555  -0.590  2.0799  1.2803 -0.3892
  579MOL0     H78139   5.605   7.682  -0.343  0.2296 -0.4783  0.2895
  579MOL0     H78140   5.559   7.760  -0.499 -3.0038 -1.6628 -0.4788
  579MOL0     H78141   5.780   7.552  -0.478 -0.7431  1.2570  3.4089
  579MOL0     H78142   5.737   7.633  -0.625  2.1862  1.4288  0.2017
  579MOL0     H78143   5.819   7.848  -0.523 -1.3598 -1.4138 -0.8931
  579MOL0     H78144   5.940   7.729  -0.496 -0.7776 -2.3830 -0.6324
  579MOL0     H78145   5.848   7.723  -0.249 -0.0354 -1.4188  0.1412
  579MOL0     H78146   5.740   7.849  -0.312  0.5454 -1.1714 -1.5805
  579MOL0     H78147   4.850   7.201  -0.373 -3.1016 -2.2729  0.1813
  579MOL0     H78148   4.639   7.205  -0.429  2.2794 -0.5528  2.7995
  579MOL0     H78149   4.263   7.473  -0.376 -0.1340 -1.8065 -0.9473
  579MOL0     H78150   4.020   7.502  -0.355 -0.4698  1.7394  0.7287
  579MOL0     H78151   2.407   8.805  -0.105 -0.2238  2.1165 -0.4189
  579MOL0     H78152   2.300   8.842   0.124 -0.3206  3.8191 -1.3202
  579MOL0     H78153   2.147   9.136   0.449  0.4454  0.2741 -0.8089
  579MOL0     H78154   2.119   9.209   0.702 -0.5910 -0.5419 -0.4863
  579MOL0     H78155   2.158   8.965   1.005 -0.2365  0.5219  1.4445
  579MOL0     H78156   2.159   9.121   1.079 -0.7763 -3.6839  1.6489
  579MOL0     H78157   1.975   9.059   0.856 -1.9493  4.1445 -1.3442
  579MOL0     H78158   2.006   9.216   0.925  2.2807  0.7676 -0.3936
  579MOL0     H78159   1.807   9.023   0.996  0.8965 -0.8141  0.2341
  579MOL0     H78160   1.833   9.181   1.081  0.2002  0.0755  0.4125
  579MOL0     H78161   1.966   9.108   1.235  1.7343 -0.9960  0.6020
  579MOL0     H78162   2.004   8.943   1.166 -0.5340 -0.2073  0.5312
  579MOL0     H78163   1.639   8.847   1.338  0.0437  0.9617  1.8390
  579MOL0     H78164   2.406   8.948   0.834  0.3856  1.8754 -0.3129
  579MOL0     H78165   2.463   8.877   0.591  0.3037 -1.0646  1.9846
  580MOL0     O78166   4.872  10.447  10.241 -0.2513 -0.0629 -0.6778
  580MOL0     C78167   4.939  10.346  10.227 -0.2516 -1.1937 -0.5493
  580MOL0     O78168   5.057  10.345  10.156  0.3888 -0.8726  0.1602
  580MOL0     C78169   5.107  10.460  10.096 -0.0186  0.1187  0.5869
  580MOL0     C78170   5.145  10.567  10.171 -0.0217 -0.3601 -0.3863
  580MOL0     C78171   5.200  10.689  10.127 -0.4912 -0.3428  0.4775
  580MOL0     C78172   5.207  10.707   9.984  0.0175  0.8141 -0.9031
  580MOL0     O78173   5.243  10.826   9.924  0.3098  0.8078  0.0714
  580MOL0     C78174   5.278  10.939  10.015  0.2888 -0.5949 -0.1699
  580MOL0     C78175   5.332  11.067   9.945  0.5460 -0.1506 -0.4879
  580MOL0     C78176   5.405  11.168  10.049  0.2685 -1.1668 -0.0869
  580MOL0     C78177   5.400  11.315   9.995  0.7567  0.0281  0.0142
  580MOL0     C78178   5.444  11.407  10.108 -0.4958  0.1125 -0.6932
  580MOL0     C78179   5.598  11.390  10.150  0.1313 -0.2954 -0.4018
  580MOL0     C78180   5.683  11.380  10.028  0.3795 -1.6575 -0.4600
  580MOL0     C78181   5.833  11.376  10.054 -0.0578 -0.2522  1.0567
  580MOL0     N78182   5.907  11.348   9.923  0.1193  0.1901 -0.8973
  580MOL0     C78183   5.901  11.439   9.817 -0.3768 -0.3038 -0.5358
  580MOL0     C78184   5.948  11.357   9.716  1.0305 -0.4344 -0.3069
  580MOL0     C78185   5.955  11.390   9.569  0.4246  0.2772  0.8713
  580MOL0     C78186   6.071  11.484   9.546  0.4710 -0.9073 -0.3779
  580MOL0     C78187   6.203  11.421   9.534 -0.3071  0.3354 -0.1070
  580MOL0     C78188   6.311  11.516   9.486  0.7354 -0.9034 -0.0006
  580MOL0     O78189   6.439  11.452   9.467  0.1552  0.5235  0.3655
  580MOL0     C78190   6.504  11.440   9.339 -0.1240  0.2808  0.9020
  580MOL0     C78191   6.640  11.407   9.348  0.2920  0.3722 -0.3581
  580MOL0     C78192   6.712  11.402   9.229 -0.6319  0.6992 -0.4003
  580MOL0     C78193   6.856  11.361   9.252 -0.0694 -0.3570 -1.0719
  580MOL0     C78194   6.666  11.436   9.103  0.1264 -0.6201  0.5691
  580MOL0     C78195   6.744  11.428   8.974 -0.0578 -0.1925 -0.5531
  580MOL0     O78196   6.725  11.522   8.881  1.3177  0.2540  0.0549
  580MOL0     C78197   6.804  11.523   8.772 -0.1301 -0.6470 -0.4456
  580MOL0     C78198   6.940  11.498   8.776  0.5258  0.4327 -0.3216
  580MOL0     C78199   7.014  11.515   8.659  0.2272 -0.2164 -0.0048
  580MOL0     C78200   6.971  11.551   8.537  0.4149  0.2806  0.4520
  580MOL0     O78201   7.043  11.580   8.425  0.4175  0.3763  0.2287
  580MOL0     C78202   7.184  11.547   8.416  0.5334  0.3474 -0.5138
  580MOL0     C78203   7.197  11.490   8.274  0.0655  0.6823  0.6139
  580MOL0     C78204   7.187  11.577   8.146 -0.1445  1.1909  0.7003
  580MOL0     C78205   7.185  11.493   8.021  0.3176  0.4579 -0.1446
  580MOL0     C78206   7.172  11.571   7.884  0.2960 -0.4418 -0.4043
  580MOL0     C78207   7.164  11.484   7.761  0.0115  0.1166  0.0196
  580MOL0     C78208   7.048  11.390   7.728 -0.0963 -0.3679 -0.2579
  580MOL0     C78209   6.997  11.414   7.587 -0.3232 -0.0314 -0.0677
  580MOL0    Cl78210   6.844  11.322   7.541 -0.0828 -0.0386 -0.2723
  580MOL0     C78211   6.834  11.575   8.532  0.5530  0.7592  0.3930
  580MOL0     C78212   6.754  11.570   8.642  0.2093  0.3974  0.4675
  580MOL0     O78213   6.799  11.315   8.961  0.2878  1.4485 -0.7198
  580MOL0     C78214   6.532  11.469   9.095  0.0275  0.3006  0.4020
  580MOL0     C78215   6.456  11.478   9.212  0.6925  0.5956 -0.5913
  580MOL0     N78216   5.991  11.237   9.768  0.5149 -0.1871 -0.4041
  580MOL0     N78217   5.952  11.222   9.894  0.2546  0.2214  0.0550
  580MOL0     C78218   5.174  10.600   9.903 -0.8352 -0.2459  0.6217
  580MOL0     C78219   5.133  10.474   9.954 -0.2048 -0.3677  0.1214
  580MOL0     C78220   4.911  10.220  10.296 -0.6209 -1.0178  0.2294
  580MOL0     C78221   4.811  10.207  10.392  1.2185  0.0327  1.2482
  580MOL0     C78222   4.799  10.094  10.467  0.1955 -0.7828  0.6965
  580MOL0     C78223   4.880   9.989  10.443  0.2469 -0.4477  0.6561
  580MOL0     O78224   4.856   9.888  10.537 -0.3203 -0.7839  0.3542
  580MOL0     C78225   4.935   9.764  10.527 -0.4130 -0.2154  0.1435
  580MOL0     C78226   5.089   9.784  10.560 -0.8401  0.2626  0.2619
  580MOL0     C78227   5.077   9.806  10.718 -1.1155  0.1165  0.6566
  580MOL0     C78228   5.200   9.874  10.782  0.7007  0.3931 -0.4714
  580MOL0     C78229   5.177   9.884  10.929  0.9132 -0.0618  0.3547
  580MOL0     C78230   5.147   9.882  11.049 -0.7900 -0.1797 -0.2959
  580MOL0     C78231   4.970   9.995  10.344 -0.1351 -0.7826 -0.0242
  580MOL0     C78232   4.997  10.114  10.274  0.2931 -0.8519 -0.6792
  580MOL0     H78233   5.134  10.559  10.279  0.8827  1.5937 -0.1063
  580MOL0     H78234   5.230  10.762  10.202  1.5198  0.0546 -0.6405
  580MOL0     H78235   5.182  10.978  10.052 -0.6685 -1.2142 -1.8978
  580MOL0     H78236   5.342  10.913  10.099 -0.8469  0.6163  1.1335
  580MOL0     H78237   5.409  11.021   9.883  1.5319 -1.6118  1.7105
  580MOL0     H78238   5.259  11.120   9.883  1.6113  0.8967 -0.8938
  580MOL0     H78239   5.341  11.169  10.138 -3.9517 -1.4742 -2.8178
  580MOL0     H78240   5.504  11.142  10.086  0.0564  0.2575  1.6274
  580MOL0     H78241   5.453  11.332   9.900  1.6569  0.3350  0.5495
  580MOL0     H78242   5.303  11.349   9.960  1.1941 -0.2028 -1.4835
  580MOL0     H78243   5.414  11.509  10.082 -0.5221  0.0809 -0.7880
  580MOL0     H78244   5.381  11.391  10.197 -1.6003 -2.1150 -1.8043
  580MOL0     H78245   5.630  11.484  10.198 -0.3526  1.7287 -3.7299
  580MOL0     H78246   5.608  11.307  10.220  1.3400 -0.3179 -0.5746
  580MOL0     H78247   5.647  11.290   9.977 -0.6316 -1.4961 -0.0521
  580MOL0     H78248   5.652  11.468   9.970  1.5629  0.9724  2.5852
  580MOL0     H78249   5.846  11.293  10.124 -2.5687 -0.5677  1.2435
  580MOL0     H78250   5.865  11.475  10.087 -1.5112  0.2466  1.0396
  580MOL0     H78251   5.848  11.534   9.807 -0.2043 -0.2221 -0.6659
  580MOL0     H78252   5.963  11.294   9.518  1.5256  0.3182  0.9460
  580MOL0     H78253   5.864  11.435   9.528  0.3128 -0.6312  0.0772
  580MOL0     H78254   6.071  11.563   9.621 -2.3189  0.6950 -1.8895
  580MOL0     H78255   6.053  11.527   9.447 -0.9069 -0.1901  0.1659
  580MOL0     H78256   6.185  11.348   9.454  0.6268  3.2440 -3.1789
  580MOL0     H78257   6.230  11.366   9.625  1.6867 -2.5581 -2.2898
  580MOL0     H78258   6.321  11.594   9.562 -0.6287  1.1847 -1.8330
  580MOL0     H78259   6.284  11.573   9.396  4.0729 -2.0244 -1.8854
  580MOL0     H78260   6.672  11.375   9.447  2.2776  1.2721 -0.6767
  580MOL0     H78261   6.890  11.417   9.340 -1.5381 -3.3207  1.5518
  580MOL0     H78262   6.868  11.264   9.299  3.4848  1.7560  3.1076
  580MOL0     H78263   6.924  11.360   9.166 -0.1117 -3.9557 -1.2101
  580MOL0     H78264   6.989  11.490   8.872 -3.5864  0.4436  2.0159
  580MOL0     H78265   7.120  11.494   8.668  0.3139 -1.3384 -2.7376
  580MOL0     H78266   7.226  11.647   8.414  1.3798  0.0946  1.6871
  580MOL0     H78267   7.229  11.490   8.498 -5.3421 -5.2049 -0.3553
  580MOL0     H78268   7.295  11.441   8.277 -0.3167 -0.0466  1.6618
  580MOL0     H78269   7.129  11.406   8.264  0.5323  0.4473 -0.7674
  580MOL0     H78270   7.272  11.644   8.131  0.8665  0.0639  1.1943
  580MOL0     H78271   7.097  11.638   8.137  0.5233  2.1357  0.3477
  580MOL0     H78272   7.276  11.435   8.003 -0.6193 -1.0486 -0.2171
  580MOL0     H78273   7.096  11.433   8.043  0.8344 -0.0335  0.6773
  580MOL0     H78274   7.250  11.646   7.872 -0.5542  0.4421 -0.5544
  580MOL0     H78275   7.076  11.623   7.897  1.1922  0.6135  3.1257
  580MOL0     H78276   7.184  11.548   7.674 -1.6331  1.2748  0.4549
  580MOL0     H78277   7.252  11.419   7.766 -0.3656 -0.4397 -0.4052
  580MOL0     H78278   6.969  11.411   7.802  0.3797  0.0241  0.1447
  580MOL0     H78279   7.081  11.290   7.756  4.4995  0.9388 -0.2768
  580MOL0     H78280   7.078  11.380   7.522 -0.7070  2.9683 -2.3217
  580MOL0     H78281   6.989  11.521   7.567  2.4566  0.1753 -0.4735
  580MOL0     H78282   6.786  11.601   8.439  1.7379  1.3048 -0.0811
  580MOL0     H78283   6.652  11.606   8.632  1.2462  3.1079 -1.8277
  580MOL0     H78284   6.481  11.479   9.000  0.2777 -0.2427  0.2038
  580MOL0     H78285   6.355  11.518   9.220  1.4055  2.1331  2.9129
  580MOL0     H78286   5.200  10.614   9.798  1.3471  0.8916  1.2776
  580MOL0     H78287   5.136  10.382   9.897  5.2689 -0.9613  0.8166
  580MOL0     H78288   4.730  10.276  10.412  1.2775  1.2561 -2.0410
  580MOL0     H78289   4.732  10.091  10.552  0.7661 -5.1443  1.2257
  580MOL0     H78290   4.888   9.700  10.602 -0.1890  1.9811  2.2740
  580MOL0     H78291   4.923   9.724  10.426 -1.7317  1.4642 -0.4296
  580MOL0     H78292   5.139   9.868  10.510 -2.5039 -1.1230 -4.2166
  580MOL0     H78293   5.150   9.700  10.527  0.6240  2.5930 -3.6099
  580MOL0     H78294   5.081   9.716  10.780  1.0811 -0.0902  0.3039
  580MOL0     H78295   4.987   9.863  10.741  0.1129  1.4319  2.5204
  580MOL0     H78296   5.196   9.976  10.743 -3.0714  0.3628 -0.5522
  580MOL0     H78297   5.287   9.815  10.753 -1.1230 -2.7761  0.0740
  580MOL0     H78298   5.114   9.876  11.151 -1.9066  2.0245 -0.4785
  580MOL0     H78299   5.045   9.918  10.329  0.5489  0.2106 -2.0771
  580MOL0     H78300   5.079  10.131  10.205  1.7598  0.7134  1.2874
  581MOL0     O78301   1.961   7.173   5.566  0.2157  0.0117 -0.6038
  581MOL0     C78302   2.082   7.143   5.580 -0.0503  0.0158  0.2991
  581MOL0     O78303   2.138   7.083   5.689 -0.0011 -0.3844 -0.2592
  581MOL0     C78304   2.092   7.094   5.819  0.3428  0.7676 -1.2543
  581MOL0     C78305   2.149   7.025   5.923 -0.6467 -0.0121  0.3102
  581MOL0     C78306   2.117   7.035   6.063 -0.8232 -0.3407  0.2943
  581MOL0     C78307   2.026   7.130   6.103 -0.1901 -0.2614 -0.0559
  581MOL0     O78308   1.997   7.136   6.229  0.1082 -0.7867 -0.3429
  581MOL0     C78309   1.881   7.211   6.265  0.6545 -0.1150 -0.5024
  581MOL0     C78310   1.846   7.202   6.412 -0.5028  1.1321  0.1226
  581MOL0     C78311   1.798   7.064   6.449  0.7843 -1.0579 -0.6984
  581MOL0     C78312   1.733   7.075   6.591  0.4055  0.4732 -0.2620
  581MOL0     C78313   1.680   6.941   6.627 -0.2263 -0.1803 -0.4307
  581MOL0     C78314   1.576   6.946   6.742  0.0618  0.2527 -0.1353
  581MOL0     C78315   1.628   6.978   6.886 -0.1380 -0.7068 -0.6754
  581MOL0     C78316   1.530   6.955   6.997 -0.0119  0.2336 -0.0855
  581MOL0     N78317   1.605   6.976   7.120  0.0249 -0.2625  0.0007
  581MOL0     C78318   1.678   6.874   7.186 -0.0424 -0.9263 -1.0480
  581MOL0     C78319   1.728   6.933   7.295  0.2420  0.3656 -0.3222
  581MOL0     C78320   1.809   6.883   7.409 -0.5253  0.0328  0.0457
  581MOL0     C78321   1.757   6.933   7.532  0.1141 -0.4669  0.4840
  581MOL0     C78322   1.853   6.890   7.644 -0.0649 -0.5514 -0.0073
  581MOL0     C78323   1.804   6.946   7.782 -0.7035 -0.6677 -0.5972
  581MOL0     O78324   1.915   6.932   7.881  0.0122 -0.0126  0.9981
  581MOL0     C78325   1.881   6.970   8.010  0.1132  0.1872 -0.5551
  581MOL0     C78326   1.760   7.022   8.056  0.2741 -0.4841  0.0154
  581MOL0     C78327   1.740   7.062   8.185  0.9855 -0.1548  0.4181
  581MOL0     C78328   1.604   7.131   8.216 -0.5685  0.8587 -1.2361
  581MOL0     C78329   1.846   7.057   8.282  1.2490 -0.2527 -0.5271
  581MOL0     C78330   1.841   7.107   8.426  0.7374  0.4960 -0.1570
  581MOL0     O78331   1.917   7.044   8.518 -0.4933  0.3336  0.5013
  581MOL0     C78332   1.901   7.102   8.642  0.6091  0.3684  0.3406
  581MOL0     C78333   1.985   7.209   8.676  0.0579  0.3835 -0.7329
  581MOL0     C78334   1.998   7.245   8.814  0.0094  0.4312 -0.2443
  581MOL0     C78335   1.906   7.189   8.905 -0.3795 -0.3851 -0.8376
  581MOL0     O78336   1.930   7.232   9.036  0.7961  0.0458  0.0716
  581MOL0     C78337   1.937   7.133   9.139 -0.0702 -0.8083 -0.4045
  581MOL0     C78338   1.807   7.068   9.192 -0.2845  0.3214 -0.3200
  581MOL0     C78339   1.705   7.181   9.199  0.4228  0.2580  0.0694
  581MOL0     C78340   1.564   7.134   9.215 -0.1508 -0.0228 -0.6370
  581MOL0     C78341   1.531   7.116   9.364 -0.8607 -0.7272  0.3050
  581MOL0     C78342   1.382   7.078   9.385 -0.7916 -0.3864 -0.0888
  581MOL0     C78343   1.333   7.059   9.533 -0.3440  0.9181  0.0985
  581MOL0     C78344   1.201   6.975   9.525 -0.9708  0.0610 -0.1579
  581MOL0    Cl78345   1.175   6.913   9.693 -0.2058  0.0045 -0.3549
  581MOL0     C78346   1.804   7.093   8.863 -0.4870 -0.4727 -0.6549
  581MOL0     C78347   1.802   7.056   8.729  0.0328  0.9007 -0.6461
  581MOL0     O78348   1.766   7.201   8.449 -0.1028 -0.0919 -0.8180
  581MOL0     C78349   1.970   7.008   8.241  0.3571  0.7145  0.1312
  581MOL0     C78350   1.983   6.968   8.104  0.0425  0.5823 -0.5348
  581MOL0     N78351   1.704   7.068   7.279 -0.1694 -1.2429  0.1776
  581MOL0     N78352   1.626   7.088   7.184 -0.5747 -0.4645 -0.6047
  581MOL0     C78353   1.963   7.199   5.998 -0.2092 -0.4907  0.1451
  581MOL0     C78354   1.997   7.184   5.863 -0.2233 -0.3259  0.0986
  581MOL0     C78355   2.176   7.160   5.460 -0.7345  0.1361 -0.7948
  581MOL0     C78356   2.304   7.114   5.466  0.1065  0.8252  0.3524
  581MOL0     C78357   2.394   7.121   5.361  0.3955 -0.6664 -0.1571
  581MOL0     C78358   2.355   7.190   5.248  0.4740 -0.3076  0.3671
  581MOL0     O78359   2.458   7.181   5.152  0.4062  0.9373  0.7721
  581MOL0     C78360   2.465   7.290   5.068 -0.7380 -1.2928  0.1608
  581MOL0     C78361   2.550   7.407   5.135 -0.0927  0.9457  0.3274
  581MOL0     C78362   2.687   7.359   5.194  0.3750  0.4399  0.1923
  581MOL0     C78363   2.740   7.479   5.289 -0.1157  0.0868  0.2768
  581MOL0     C78364   2.873   7.443   5.343  0.4211  1.2228  0.2740
  581MOL0     C78365   2.985   7.427   5.397  0.2866  0.1367  1.5870
  581MOL0     C78366   2.228   7.251   5.238  0.6373  0.7512  1.2288
  581MOL0     C78367   2.137   7.224   5.343  0.9639  0.0991 -0.4337
  581MOL0     H78368   2.224   6.951   5.897 -1.8969 -1.1647 -0.1089
  581MOL0     H78369   2.150   6.960   6.134  0.8729  0.9046  0.8726
  581MOL0     H78370   1.895   7.315   6.234  2.2111 -0.6897 -1.8999
  581MOL0     H78371   1.788   7.175   6.221 -0.9998  3.1222  0.0112
  581MOL0     H78372   1.929   7.227   6.479 -2.2720  1.5622  2.2499
  581MOL0     H78373   1.757   7.263   6.432 -2.2932 -2.3163  4.0933
  581MOL0     H78374   1.718   7.030   6.382  1.3740 -0.5318 -1.7061
  581MOL0     H78375   1.874   6.986   6.454  0.1861 -1.5966  0.3075
  581MOL0     H78376   1.814   7.101   6.660  0.8954  0.8953 -0.9752
  581MOL0     H78377   1.656   7.153   6.595 -0.0245  0.0714 -0.6311
  581MOL0     H78378   1.621   6.918   6.537  0.9726 -0.2766 -1.2131
  581MOL0     H78379   1.758   6.867   6.646 -0.0500  0.8117  3.5275
  581MOL0     H78380   1.508   7.029   6.721  0.4832  0.4173 -0.9016
  581MOL0     H78381   1.527   6.849   6.738  2.4009 -1.2536  3.2277
  581MOL0     H78382   1.715   6.916   6.912 -1.2402 -1.8774  0.3858
  581MOL0     H78383   1.648   7.085   6.889  0.5445 -0.8421  0.7350
  581MOL0     H78384   1.492   6.853   6.987  0.7747 -0.2593  1.5030
  581MOL0     H78385   1.438   7.014   6.993 -1.4109 -1.8563 -1.0638
  581MOL0     H78386   1.699   6.769   7.168  0.4719 -1.6170  2.7039
  581MOL0     H78387   1.818   6.774   7.416  4.1252  0.2943  1.6183
  581MOL0     H78388   1.905   6.928   7.383 -0.6328 -0.6013 -1.5311
  581MOL0     H78389   1.656   6.893   7.549  0.1898  0.1303  2.6336
  581MOL0     H78390   1.753   7.042   7.536  0.3333 -0.4620  0.5764
  581MOL0     H78391   1.953   6.930   7.623 -1.6162  3.1438 -1.1649
  581MOL0     H78392   1.861   6.781   7.656  0.8777 -0.4389  0.4737
  581MOL0     H78393   1.719   6.886   7.817  2.1538 -3.5112  2.2045
  581MOL0     H78394   1.774   7.051   7.776 -1.9942 -1.0362 -0.9925
  581MOL0     H78395   1.679   7.032   7.984  1.2515 -1.5186 -1.2817
  581MOL0     H78396   1.526   7.099   8.146 -0.8763  1.5774 -1.2255
  581MOL0     H78397   1.570   7.103   8.317  0.6492  0.3685 -0.9391
  581MOL0     H78398   1.617   7.239   8.215 -2.8318  1.2704  1.3907
  581MOL0     H78399   2.060   7.242   8.606  0.1928  0.2589 -0.6487
  581MOL0     H78400   2.076   7.316   8.840 -0.9494  2.7904 -3.3085
  581MOL0     H78401   2.012   7.056   9.119  1.4751  1.0067 -2.0262
  581MOL0     H78402   1.975   7.198   9.219  0.5997 -0.9732 -0.5826
  581MOL0     H78403   1.784   6.982   9.128  2.3517 -1.3914  0.8447
  581MOL0     H78404   1.821   7.019   9.288  1.2365 -2.2432 -1.7246
  581MOL0     H78405   1.708   7.235   9.103 -1.1743  0.2527  0.0016
  581MOL0     H78406   1.730   7.264   9.265 -0.0461  0.8347 -0.4632
  581MOL0     H78407   1.493   7.204   9.170  0.8998  1.7059  0.2589
  581MOL0     H78408   1.547   7.042   9.159 -3.4334 -0.5455  0.9938
  581MOL0     H78409   1.549   7.206   9.422  2.6874 -1.0111 -0.1237
  581MOL0     H78410   1.597   7.045   9.415  1.5538  0.0401 -1.5254
  581MOL0     H78411   1.308   7.139   9.332 -0.4749 -0.1779 -0.2909
  581MOL0     H78412   1.380   6.987   9.323  2.9670  0.3213 -1.4975
  581MOL0     H78413   1.305   7.153   9.581 -1.4138 -1.2179  4.0916
  581MOL0     H78414   1.409   7.009   9.593 -1.1632 -2.4846 -1.4655
  581MOL0     H78415   1.203   6.892   9.453  2.5980 -1.3304  1.3137
  581MOL0     H78416   1.112   7.035   9.505 -2.1176  0.6334  5.1690
  581MOL0     H78417   1.734   7.042   8.928  0.0604 -1.1566 -0.5924
  581MOL0     H78418   1.737   6.973   8.704  1.2250 -0.2955  0.0678
  581MOL0     H78419   2.053   7.004   8.309  0.3834 -0.9446  0.0401
  581MOL0     H78420   2.079   6.943   8.060  0.8476 -1.1321  2.0084
  581MOL0     H78421   1.894   7.279   6.026  0.2228 -0.0900  0.0910
  581MOL0     H78422   1.956   7.260   5.798  0.3034  1.1938  1.4716
  581MOL0     H78423   2.340   7.064   5.555  2.7327 -0.3367 -1.2419
  581MOL0     H78424   2.488   7.066   5.359  0.8239  0.0406  0.0584
  581MOL0     H78425   2.516   7.261   4.976  0.2815  0.3854  0.1503
  581MOL0     H78426   2.368   7.332   5.042 -1.4160 -1.1632  2.5916
  581MOL0     H78427   2.491   7.453   5.214  0.0924  1.5222  0.1293
  581MOL0     H78428   2.578   7.477   5.056  2.3843 -0.2507  0.0200
  581MOL0     H78429   2.749   7.339   5.106 -0.1260 -2.6773  0.4239
  581MOL0     H78430   2.669   7.267   5.251  0.3605  0.0137 -0.4981
  581MOL0     H78431   2.676   7.497   5.376 -1.2629 -1.0325 -0.3197
  581MOL0     H78432   2.751   7.566   5.223 -1.2274 -0.4830 -0.6831
  581MOL0     H78433   3.089   7.406   5.411  0.3890 -1.2728 -0.7297
  581MOL0     H78434   2.204   7.307   5.149  1.0413  2.7765  2.3358
  581MOL0     H78435   2.033   7.253   5.337  0.6305 -0.7354  0.9532
  582MOL0     O78436   3.879   7.219   9.308  0.4576 -1.2036  0.4925
  582MOL0     C78437   3.780   7.159   9.354 -0.0832  0.0845  0.5049
  582MOL0     O78438   3.651   7.202   9.349  0.4492 -0.7292 -0.6845
  582MOL0     C78439   3.606   7.317   9.298 -0.0197 -0.9586 -0.2517
  582MOL0     C78440   3.471   7.312   9.265  0.0009  0.6763  0.3091
  582MOL0     C78441   3.409   7.428   9.216 -0.2403  0.3993  1.0829
  582MOL0     C78442   3.482   7.549   9.200  0.1378  1.1117 -0.0327
  582MOL0     O78443   3.394   7.656   9.163 -0.6147  0.4642  0.4392
  582MOL0     C78444   3.471   7.780   9.129 -0.1370  0.1088  0.1534
  582MOL0     C78445   3.364   7.895   9.126 -0.1364 -0.0743  0.6114
  582MOL0     C78446   3.284   7.906   9.249  1.5218 -0.5947  0.1951
  582MOL0     C78447   3.353   7.955   9.381 -0.1201  0.8937 -0.9048
  582MOL0     C78448   3.263   8.024   9.484  0.0652 -0.8630  0.1350
  582MOL0     C78449   3.332   8.066   9.612 -0.1677  0.0031 -0.3091
  582MOL0     C78450   3.243   8.137   9.712 -0.1216 -0.2988  0.3361
  582MOL0     C78451   3.089   8.104   9.716 -0.6393  0.2052 -0.0405
  582MOL0     N78452   3.044   7.979   9.773  0.6889 -0.0209 -0.3727
  582MOL0     C78453   3.091   7.929   9.891  0.6752  0.6261  0.2735
  582MOL0     C78454   3.069   7.793   9.888  0.1926 -0.0007  0.4380
  582MOL0     C78455   3.103   7.689   9.995 -0.9074 -0.6282  0.1976
  582MOL0     C78456   3.251   7.685  10.028  0.3892  1.1104  0.7306
  582MOL0     C78457   3.317   7.544  10.060 -0.2603 -0.1647  0.5648
  582MOL0     C78458   3.456   7.552  10.114 -0.8730  0.3653 -0.1054
  582MOL0     O78459   3.533   7.630  10.025 -0.9185  0.3032 -0.3026
  582MOL0     C78460   3.671   7.604  10.037 -0.4633 -1.1500 -0.3497
  582MOL0     C78461   3.733   7.531  10.150  0.0984 -0.2592  0.6181
  582MOL0     C78462   3.871   7.507  10.144 -0.4753  0.4871 -0.2399
  582MOL0     C78463   3.939   7.432  10.264 -0.2841  0.3699 -0.0728
  582MOL0     C78464   3.952   7.555  10.040  0.4608  0.7108  0.3691
  582MOL0     C78465   4.101   7.540  10.038  0.0681  1.0171 -0.1289
  582MOL0     O78466   4.164   7.415  10.039 -0.8195 -0.0341 -1.1527
  582MOL0     C78467   4.297   7.406  10.026  0.4778 -1.2573  0.2442
  582MOL0     C78468   4.351   7.311  10.108 -0.8588 -0.4420  0.4357
  582MOL0     C78469   4.479   7.257  10.075  0.1943  0.1219 -0.8634
  582MOL0     C78470   4.558   7.311   9.976 -0.3236  0.5613  0.0552
  582MOL0     O78471   4.683   7.266   9.939 -0.1310 -0.2429 -0.1851
  582MOL0     C78472   4.761   7.184  10.026  0.4042 -0.1069 -0.2352
  582MOL0     C78473   4.813   7.277  10.134 -0.0304 -0.1542  0.5687
  582MOL0     C78474   4.930   7.370  10.079  0.9751 -0.5932 -0.1142
  582MOL0     C78475   4.956   7.498  10.153  0.3422 -0.4320  0.3797
  582MOL0     C78476   5.039   7.605  10.070 -0.1454 -0.2265  0.0777
  582MOL0     C78477   5.173   7.552  10.004 -0.2754  0.6167  0.7100
  582MOL0     C78478   5.185   7.610   9.857 -0.5480  0.3684 -0.5891
  582MOL0     C78479   5.330   7.640   9.816 -0.6500 -0.4064 -0.1708
  582MOL0    Cl78480   5.433   7.492   9.837 -0.4348 -0.0410  0.2097
  582MOL0     C78481   4.511   7.422   9.904 -0.0732 -0.2583  1.0523
  582MOL0     C78482   4.376   7.467   9.925 -0.4836  0.3448  0.6351
  582MOL0     O78483   4.150   7.643  10.001  0.8892 -0.1681 -0.0240
  582MOL0     C78484   3.889   7.631   9.935  0.2942  0.5056 -0.8494
  582MOL0     C78485   3.746   7.648   9.935  0.6152  0.7351  0.9458
  582MOL0     N78486   3.001   7.767   9.771 -0.1047  0.4229 -0.1004
  582MOL0     N78487   2.999   7.870   9.692  0.0131 -0.2605  0.4217
  582MOL0     C78488   3.618   7.549   9.235 -0.5983 -1.2216 -0.0267
  582MOL0     C78489   3.685   7.434   9.271 -0.0962  0.0355  0.2953
  582MOL0     C78490   3.826   7.033   9.421  0.5355  0.1815  0.0019
  582MOL0     C78491   3.959   6.980   9.410  0.2528  0.4089 -0.0779
  582MOL0     C78492   3.985   6.850   9.468  0.9413 -0.4018  0.0884
  582MOL0     C78493   3.881   6.781   9.522  0.6664 -0.2402 -0.6606
  582MOL0     O78494   3.903   6.657   9.578 -1.0353  0.0466  0.4459
  582MOL0     C78495   4.025   6.578   9.565  0.0766 -0.6123 -0.0257
  582MOL0     C78496   4.050   6.539   9.421 -0.6903 -0.0847 -0.0145
  582MOL0     C78497   4.136   6.417   9.411 -0.3789 -0.0310  0.1280
  582MOL0     C78498   4.198   6.404   9.271 -0.8849  0.4502  0.0929
  582MOL0     C78499   4.290   6.291   9.273 -0.6014  0.6605  0.3191
  582MOL0     C78500   4.362   6.191   9.273 -1.1888 -0.0093  1.0275
  582MOL0     C78501   3.754   6.839   9.549  0.3124 -0.1006 -0.1468
  582MOL0     C78502   3.732   6.965   9.496  0.1085 -1.0168  0.8102
  582MOL0     H78503   3.417   7.221   9.289 -1.3107  1.7334  1.5585
  582MOL0     H78504   3.301   7.434   9.207 -0.1461  2.3577  0.7884
  582MOL0     H78505   3.536   7.805   9.214  2.2064 -2.6007 -0.6594
  582MOL0     H78506   3.523   7.771   9.034 -0.9203  0.7875 -0.3534
  582MOL0     H78507   3.423   7.986   9.115 -0.1951 -0.2198 -1.2647
  582MOL0     H78508   3.301   7.902   9.037 -0.0437  0.6562  0.5937
  582MOL0     H78509   3.207   7.980   9.226 -1.7373 -3.8510 -0.4215
  582MOL0     H78510   3.220   7.821   9.275  0.5967 -0.1426 -0.5377
  582MOL0     H78511   3.401   7.874   9.437 -0.4265  1.6512  0.4907
  582MOL0     H78512   3.443   8.013   9.355  1.7228 -1.9543 -1.3645
  582MOL0     H78513   3.206   8.103   9.435 -2.0426 -0.7775  2.5025
  582MOL0     H78514   3.186   7.950   9.509  0.0871 -1.3113 -1.0748
  582MOL0     H78515   3.362   7.974   9.664 -0.5765  1.3752  2.5417
  582MOL0     H78516   3.414   8.132   9.584  0.0945 -0.0246  0.3754
  582MOL0     H78517   3.284   8.114   9.811 -1.5282 -1.8850  0.5897
  582MOL0     H78518   3.253   8.244   9.691 -3.5826 -0.2429 -1.8611
  582MOL0     H78519   3.051   8.104   9.613 -2.3294 -0.5453  0.5442
  582MOL0     H78520   3.043   8.196   9.754  0.9869  1.4602 -0.9767
  582MOL0     H78521   3.144   7.984   9.968  2.3990  0.8824 -1.0292
  582MOL0     H78522   3.041   7.702  10.084  0.0060 -0.2440  0.7853
  582MOL0     H78523   3.078   7.593   9.949  3.1749 -1.8137  0.0367
  582MOL0     H78524   3.260   7.740  10.122  3.2701 -1.3106  2.0374
  582MOL0     H78525   3.310   7.734   9.950 -1.7230  0.4231 -1.4325
  582MOL0     H78526   3.315   7.481   9.970  0.2720 -2.6377  2.1736
  582MOL0     H78527   3.247   7.501  10.133  0.0209  1.5751  1.9167
  582MOL0     H78528   3.483   7.446  10.123  0.6460  0.8574  1.9458
  582MOL0     H78529   3.454   7.592  10.216 -1.2858 -1.4306  0.6317
  582MOL0     H78530   3.666   7.510  10.232 -2.6526 -0.6367 -1.5565
  582MOL0     H78531   4.011   7.358  10.228  1.2682  1.6489  0.2831
  582MOL0     H78532   3.971   7.514  10.329 -0.3941  0.2086  0.1851
  582MOL0     H78533   3.867   7.372  10.320  0.5277 -1.4158 -0.8665
  582MOL0     H78534   4.281   7.269  10.180 -1.2967  0.1354  0.3460
  582MOL0     H78535   4.520   7.176  10.134  0.1306  0.2753 -0.6060
  582MOL0     H78536   4.704   7.103  10.073  0.5292  0.5256  1.0219
  582MOL0     H78537   4.847   7.152   9.965 -0.8680 -1.6233 -1.3462
  582MOL0     H78538   4.725   7.331  10.170  0.6077 -1.4287  4.5161
  582MOL0     H78539   4.853   7.230  10.224  2.2610 -0.3785 -0.4753
  582MOL0     H78540   4.918   7.395   9.973  4.1585 -0.7696 -0.5970
  582MOL0     H78541   5.028   7.322  10.076  0.5387 -1.4493 -1.0731
  582MOL0     H78542   4.861   7.549  10.173 -0.9663 -2.3522 -0.7084
  582MOL0     H78543   5.001   7.469  10.249 -1.9973 -1.2407  1.2919
  582MOL0     H78544   5.064   7.691  10.133  1.0383  1.7759 -2.8925
  582MOL0     H78545   4.962   7.627   9.996 -0.1845 -1.7791 -0.3587
  582MOL0     H78546   5.250   7.595  10.067 -1.6043  1.9957  1.4512
  582MOL0     H78547   5.184   7.443  10.012 -3.1375  0.0579 -1.1417
  582MOL0     H78548   5.138   7.709   9.863 -1.2985  0.0730 -1.2952
  582MOL0     H78549   5.140   7.549   9.778 -3.0174  1.8159 -0.4155
  582MOL0     H78550   5.367   7.728   9.870  2.2444 -1.3554 -0.4340
  582MOL0     H78551   5.342   7.669   9.711  1.9857  1.0949  0.4402
  582MOL0     H78552   4.577   7.462   9.828 -1.6536  0.3314 -0.0406
  582MOL0     H78553   4.333   7.542   9.860  0.4518  2.3130  2.1825
  582MOL0     H78554   3.945   7.680   9.856 -1.7301  0.2566 -2.5228
  582MOL0     H78555   3.697   7.686   9.846 -2.8822 -3.1987  0.9029
  582MOL0     H78556   3.667   7.646   9.235 -5.4330  1.5725  0.5237
  582MOL0     H78557   3.792   7.442   9.292 -0.1029  2.8239 -0.3891
  582MOL0     H78558   4.031   7.048   9.366  1.9501 -1.2846 -0.0872
  582MOL0     H78559   4.088   6.814   9.472  0.1669 -2.6414  3.0784
  582MOL0     H78560   4.096   6.653   9.600 -1.2423  1.2280 -1.0921
  582MOL0     H78561   4.021   6.488   9.628 -1.1025  1.2995  2.8484
  582MOL0     H78562   4.096   6.618   9.362  0.9224 -1.0702 -0.1438
  582MOL0     H78563   3.958   6.515   9.367 -1.1421 -1.2328  1.2043
  582MOL0     H78564   4.077   6.329   9.433 -1.3436  0.8594  1.2048
  582MOL0     H78565   4.210   6.429   9.491  0.5733 -0.3409 -0.6905
  582MOL0     H78566   4.260   6.491   9.251 -0.8518 -0.0176 -2.0796
  582MOL0     H78567   4.117   6.373   9.205 -0.3200 -1.5720  0.2667
  582MOL0     H78568   4.435   6.112   9.264  0.2919  1.3667  0.4870
  582MOL0     H78569   3.674   6.774   9.583 -1.3820  0.5975 -2.5192
  582MOL0     H78570   3.635   7.014   9.506  0.5240  0.1333 -0.5603
  583MOL0     O78571   4.364   0.605   8.049  0.3734 -0.2313 -0.8969
  583MOL0     C78572   4.357   0.585   7.928 -0.5128 -0.0918 -0.0574
  583MOL0     O78573   4.431   0.655   7.842  0.0766  0.1328  0.4531
  583MOL0     C78574   4.515   0.756   7.885  0.1330  0.3010  0.3142
  583MOL0     C78575   4.633   0.733   7.952 -0.3703 -0.2900 -1.0946
  583MOL0     C78576   4.720   0.838   7.987  1.0836 -0.1458  0.0378
  583MOL0     C78577   4.675   0.969   7.956  0.5594  0.2473 -1.1210
  583MOL0     O78578   4.738   1.085   8.002 -0.2934  0.0309 -0.6138
  583MOL0     C78579   4.878   1.063   8.046  0.6474  0.5584  0.0113
  583MOL0     C78580   4.953   1.198   8.046  0.5106 -0.3389 -0.1614
  583MOL0     C78581   5.108   1.195   8.049  0.9440  0.4468  0.3021
  583MOL0     C78582   5.166   1.111   8.167 -0.1897  0.9415 -0.4749
  583MOL0     C78583   5.321   1.108   8.182  0.8777  0.1165 -0.3469
  583MOL0     C78584   5.371   0.984   8.253 -0.4291  0.0080  0.4410
  583MOL0     C78585   5.480   1.014   8.354  0.4672  0.0948 -0.0116
  583MOL0     C78586   5.615   1.015   8.286  0.5272  1.5335 -0.0919
  583MOL0     N78587   5.713   0.989   8.397  0.4928  0.2659  0.0665
  583MOL0     C78588   5.724   0.859   8.445  0.0316 -0.6782  0.3597
  583MOL0     C78589   5.813   0.861   8.543  0.1471  0.9076  0.1337
  583MOL0     C78590   5.855   0.746   8.627 -0.5449  0.4507 -0.5482
  583MOL0     C78591   5.785   0.612   8.593 -0.3692 -0.2400  0.0938
  583MOL0     C78592   5.837   0.485   8.662 -0.6406  0.0157 -0.1768
  583MOL0     C78593   5.780   0.365   8.592 -0.7873 -0.3257 -0.8832
  583MOL0     O78594   5.878   0.257   8.593  0.2914  0.6243  0.6490
  583MOL0     C78595   5.904   0.198   8.709  0.4073  0.6533  0.3147
  583MOL0     C78596   6.030   0.218   8.764 -0.0371  0.9079  0.7897
  583MOL0     C78597   6.069   0.130   8.868 -0.1088 -0.1259  0.1033
  583MOL0     C78598   6.209   0.140   8.917 -0.1880  1.2032 -0.1812
  583MOL0     C78599   5.979   0.033   8.927 -1.4595  0.0793  0.9191
  583MOL0     C78600   6.022  -0.059   9.023 -0.3824  0.8766  0.4746
  583MOL0     O78601   5.970  -0.186   9.007 -0.3598 -0.3284 -0.1724
  583MOL0     C78602   6.026  -0.292   9.083  0.5539 -0.0032 -1.0042
  583MOL0     C78603   6.042  -0.422   9.022 -1.0348  0.0019 -0.4128
  583MOL0     C78604   6.101  -0.528   9.093  0.1624  0.3615 -0.5840
  583MOL0     C78605   6.123  -0.521   9.229  0.1311 -1.0895  0.7843
  583MOL0     O78606   6.167  -0.624   9.308  0.1464 -0.5025 -0.1435
  583MOL0     C78607   6.098  -0.747   9.288  0.2226 -0.3622  0.4888
  583MOL0     C78608   6.179  -0.857   9.349 -0.0995 -0.0668  1.1590
  583MOL0     C78609   6.335  -0.862   9.303  0.4526 -0.8965  0.1447
  583MOL0     C78610   6.387  -0.972   9.411  0.0074 -0.4929 -0.5090
  583MOL0     C78611   6.537  -0.961   9.411 -1.2661 -0.4478 -0.6602
  583MOL0     C78612   6.590  -1.024   9.541  0.5120  0.5357  0.7272
  583MOL0     C78613   6.568  -0.936   9.666  0.1787 -1.0322 -0.1850
  583MOL0     C78614   6.671  -0.821   9.688  0.1828  0.2329  0.0112
  583MOL0    Cl78615   6.831  -0.909   9.708 -0.3435 -0.1666 -0.3460
  583MOL0     C78616   6.093  -0.392   9.295  0.3479  0.3727  0.1118
  583MOL0     C78617   6.035  -0.289   9.224 -0.5988 -0.2356  0.2560
  583MOL0     O78618   6.089  -0.016   9.115 -0.2707 -0.5914  0.0969
  583MOL0     C78619   5.855   0.022   8.864  0.5917  0.8916 -1.1026
  583MOL0     C78620   5.820   0.103   8.756  0.9067  0.3274  0.1645
  583MOL0     N78621   5.855   0.993   8.556  0.8846  0.5888  0.0760
  583MOL0     N78622   5.792   1.073   8.470  0.8038 -0.1946 -0.0908
  583MOL0     C78623   4.557   0.991   7.881 -0.4658 -0.1277 -0.4240
  583MOL0     C78624   4.490   0.885   7.831  0.3423 -0.7603  0.4220
  583MOL0     C78625   4.289   0.469   7.875 -1.1970  0.4470 -0.6213
  583MOL0     C78626   4.288   0.440   7.737 -0.0815  0.7074  0.6921
  583MOL0     C78627   4.218   0.325   7.693  0.4245  0.8631  0.4389
  583MOL0     C78628   4.164   0.226   7.777  0.1967 -0.2858  1.2110
  583MOL0     O78629   4.100   0.109   7.725 -0.1737 -0.4210 -0.4134
  583MOL0     C78630   4.095   0.081   7.582 -1.1417 -0.4230 -1.3463
  583MOL0     C78631   4.084  -0.069   7.556  0.2292 -0.2357  0.8025
  583MOL0     C78632   4.051  -0.097   7.403 -0.0114  0.2607  0.1348
  583MOL0     C78633   4.166  -0.060   7.303  0.4929  1.2599 -0.0619
  583MOL0     C78634   4.113  -0.107   7.165 -0.0225 -0.1407 -0.3243
  583MOL0     C78635   4.080  -0.131   7.052 -0.1691  1.0084  0.9928
  583MOL0     C78636   4.146   0.269   7.910 -0.9550 -0.4433 -0.2850
  583MOL0     C78637   4.209   0.390   7.959 -0.4694 -0.1086  1.4983
  583MOL0     H78638   4.633   0.633   7.992 -5.9359  0.2842  1.2268
  583MOL0     H78639   4.803   0.812   8.051  0.0822  0.8291  1.8251
  583MOL0     H78640   4.875   1.020   8.147  0.9730  0.5798  0.0290
  583MOL0     H78641   4.928   1.002   7.971  0.0503  3.2237 -2.7973
  583MOL0     H78642   4.920   1.249   7.955  0.6458  3.0163  1.5341
  583MOL0     H78643   4.919   1.264   8.126 -0.0494  0.4554 -1.0272
  583MOL0     H78644   5.138   1.141   7.958  3.0381  0.4151  0.9727
  583MOL0     H78645   5.134   1.301   8.042 -3.2591  1.6504 -0.2105
  583MOL0     H78646   5.126   1.155   8.259 -0.9072  3.0857 -1.7612
  583MOL0     H78647   5.134   1.007   8.158 -0.7816  0.5084  4.1600
  583MOL0     H78648   5.374   1.096   8.086 -0.4623  1.1122 -1.2532
  583MOL0     H78649   5.356   1.199   8.231  1.3680 -0.1157 -0.2652
  583MOL0     H78650   5.285   0.941   8.304 -0.8683  1.2094  0.7654
  583MOL0     H78651   5.399   0.909   8.179 -0.2800  2.5148 -2.2730
  583MOL0     H78652   5.473   1.110   8.406  0.9563 -0.5856  1.3572
  583MOL0     H78653   5.471   0.934   8.428 -2.2239  2.2265  2.2182
  583MOL0     H78654   5.642   1.109   8.238  3.9180 -0.4974 -2.6414
  583MOL0     H78655   5.617   0.930   8.217  4.3282  1.1201  0.3476
  583MOL0     H78656   5.673   0.771   8.408 -3.4478  1.8988 -1.6262
  583MOL0     H78657   5.963   0.757   8.618 -0.7213  0.5483 -3.0278
  583MOL0     H78658   5.834   0.771   8.732  1.5023  2.6942 -0.5866
  583MOL0     H78659   5.793   0.593   8.486  0.1699 -0.8152  0.2322
  583MOL0     H78660   5.685   0.630   8.634 -1.6849  0.5608 -3.1661
  583MOL0     H78661   5.828   0.487   8.771  0.5849  0.2538 -0.0620
  583MOL0     H78662   5.945   0.494   8.645 -0.5870 -0.6211 -0.1734
  583MOL0     H78663   5.755   0.381   8.487  0.9194 -0.9521 -1.4136
  583MOL0     H78664   5.690   0.334   8.647 -1.4830  1.0818 -1.1986
  583MOL0     H78665   6.113   0.277   8.727  2.0288 -0.2698  3.2274
  583MOL0     H78666   6.251   0.039   8.921 -0.4426  1.1052  0.0240
  583MOL0     H78667   6.269   0.199   8.847  2.3021 -1.3692 -0.4372
  583MOL0     H78668   6.231   0.195   9.009  0.6397  0.5564  0.0229
  583MOL0     H78669   6.019  -0.437   8.917 -0.8461  2.8283 -0.9504
  583MOL0     H78670   6.117  -0.620   9.038 -2.2863  0.6984 -1.9703
  583MOL0     H78671   5.999  -0.748   9.334  0.5631 -0.9958  1.2412
  583MOL0     H78672   6.098  -0.765   9.180 -0.4023  2.1000  0.0135
  583MOL0     H78673   6.165  -0.840   9.456 -0.6728  2.3511  0.7700
  583MOL0     H78674   6.138  -0.947   9.302 -0.7829  0.6820  0.2840
  583MOL0     H78675   6.380  -0.762   9.298 -1.8922  0.1920 -3.3053
  583MOL0     H78676   6.343  -0.903   9.202  2.1293 -0.9210  0.2650
  583MOL0     H78677   6.335  -0.946   9.504 -3.8200 -2.0268 -1.9901
  583MOL0     H78678   6.345  -1.070   9.385  3.0285 -1.6872 -1.2181
  583MOL0     H78679   6.569  -0.856   9.404  0.5079 -1.0209 -1.9383
  583MOL0     H78680   6.585  -1.002   9.321  1.5635  1.4052 -0.1216
  583MOL0     H78681   6.528  -1.113   9.559 -0.5787  1.2476  0.5771
  583MOL0     H78682   6.695  -1.049   9.522  0.5856  2.7964 -2.6635
  583MOL0     H78683   6.574  -0.995   9.758  0.3338  2.7136  2.4647
  583MOL0     H78684   6.471  -0.884   9.667  0.5615 -0.3009  0.5061
  583MOL0     H78685   6.655  -0.767   9.782  1.0199 -2.8529  2.1065
  583MOL0     H78686   6.691  -0.759   9.601  0.3618 -1.3903 -1.1565
  583MOL0     H78687   6.116  -0.376   9.400  3.0463  1.6306 -0.5758
  583MOL0     H78688   5.985  -0.205   9.271 -3.7353 -1.6102 -0.3409
  583MOL0     H78689   5.786  -0.059   8.888  2.0786 -0.4715 -1.2679
  583MOL0     H78690   5.725   0.085   8.707  1.3169  1.9337 -1.3188
  583MOL0     H78691   4.517   1.089   7.857 -1.3960 -0.1467  0.9286
  583MOL0     H78692   4.406   0.895   7.762  0.3231 -3.0273  0.0342
  583MOL0     H78693   4.325   0.513   7.665  1.3027 -2.6254 -2.2760
  583MOL0     H78694   4.212   0.321   7.585 -3.4811 -0.4238  0.5700
  583MOL0     H78695   4.016   0.131   7.525 -1.7377  0.0809 -0.1310
  583MOL0     H78696   4.191   0.107   7.536 -0.4311  0.0620  0.3142
  583MOL0     H78697   3.998  -0.095   7.618 -1.4764  4.7712  1.0393
  583MOL0     H78698   4.173  -0.125   7.582 -0.1985 -0.4699  1.8297
  583MOL0     H78699   3.960  -0.047   7.369  0.5407  1.7272  0.7481
  583MOL0     H78700   4.028  -0.203   7.389  4.9155 -0.8540 -1.5247
  583MOL0     H78701   4.257  -0.114   7.328 -0.3257 -1.3482 -2.2717
  583MOL0     H78702   4.187   0.047   7.300 -0.2710  1.4055 -0.6067
  583MOL0     H78703   4.067  -0.154   6.948 -1.3762  1.0369  1.1205
  583MOL0     H78704   4.083   0.214   7.980  0.6954 -1.4733  0.4443
  583MOL0     H78705   4.168   0.417   8.056 -1.1127 -1.8899  1.7622
  584MOL0     O78706   2.691   0.690   0.626  0.0827  0.1133  0.2626
  584MOL0     C78707   2.677   0.597   0.697  0.2452  0.8689 -0.2868
  584MOL0     O78708   2.564   0.558   0.766  0.1120 -0.7051  0.4054
  584MOL0     C78709   2.451   0.620   0.714  0.6100 -0.6624 -0.4072
  584MOL0     C78710   2.367   0.675   0.807 -1.0992  0.2716 -0.2800
  584MOL0     C78711   2.243   0.724   0.768  0.6680 -0.2632  0.5346
  584MOL0     C78712   2.175   0.697   0.645 -0.6299 -0.4834 -0.0605
  584MOL0     O78713   2.049   0.745   0.632 -0.1475  0.6719  1.0106
  584MOL0     C78714   1.977   0.740   0.506 -0.6018  0.0389 -0.0358
  584MOL0     C78715   1.908   0.606   0.476 -0.3719 -0.2371  0.1272
  584MOL0     C78716   1.764   0.606   0.534  0.5098  0.4379  0.4351
  584MOL0     C78717   1.733   0.457   0.566  0.2383 -0.0490 -0.4502
  584MOL0     C78718   1.595   0.436   0.628  0.0350 -0.2212  0.0198
  584MOL0     C78719   1.591   0.300   0.708 -0.1393  0.2557 -0.2916
  584MOL0     C78720   1.447   0.299   0.758 -0.2667 -0.1871 -0.1786
  584MOL0     C78721   1.411   0.178   0.827  0.6614  0.3198  0.1592
  584MOL0     N78722   1.474   0.162   0.958  0.2131 -1.0181 -0.0324
  584MOL0     C78723   1.606   0.126   0.989 -0.3656  0.1855 -0.2136
  584MOL0     C78724   1.618   0.120   1.125  0.4913  1.2488  0.3319
  584MOL0     C78725   1.739   0.077   1.213  0.1348 -1.4374 -0.4842
  584MOL0     C78726   1.835   0.192   1.227 -0.5622 -0.1768 -1.1453
  584MOL0     C78727   1.801   0.308   1.327 -0.5184  0.4642  0.2461
  584MOL0     C78728   1.844   0.279   1.475 -0.6056 -0.0890 -0.4220
  584MOL0     O78729   1.983   0.298   1.486 -0.3739 -1.2957  0.3421
  584MOL0     C78730   2.035   0.360   1.603 -0.1866 -0.4703  0.2772
  584MOL0     C78731   2.177   0.362   1.601 -0.3705 -0.1062 -0.2566
  584MOL0     C78732   2.248   0.434   1.699  0.6008 -0.4742  0.9946
  584MOL0     C78733   2.398   0.441   1.683  0.4656  0.3785  0.1015
  584MOL0     C78734   2.168   0.490   1.811 -1.1807 -0.3928  0.9475
  584MOL0     C78735   2.239   0.545   1.931  0.0232 -0.6483  0.5950
  584MOL0     O78736   2.154   0.587   2.026 -0.0371 -0.7348  0.1418
  584MOL0     C78737   2.195   0.577   2.162  0.6108  0.0029 -0.1805
  584MOL0     C78738   2.150   0.471   2.240 -0.2496 -0.1907  0.6289
  584MOL0     C78739   2.188   0.450   2.366 -0.5658 -0.3924  0.1540
  584MOL0     C78740   2.283   0.536   2.422  0.2590 -0.4504 -0.3623
  584MOL0     O78741   2.310   0.500   2.552  0.0356 -0.0764  0.1541
  584MOL0     C78742   2.421   0.554   2.625 -0.0418  0.1281  0.1707
  584MOL0     C78743   2.426   0.465   2.751  0.0104  0.3146  0.4227
  584MOL0     C78744   2.504   0.539   2.861  0.3558  0.4207 -0.4555
  584MOL0     C78745   2.458   0.474   2.993  0.3143  0.0701 -0.5128
  584MOL0     C78746   2.515   0.536   3.126 -0.2865  0.5056 -0.2608
  584MOL0     C78747   2.491   0.687   3.144 -1.0344  0.3056 -1.0546
  584MOL0     C78748   2.548   0.744   3.276 -0.5026 -0.7645 -0.2897
  584MOL0     C78749   2.536   0.896   3.270 -0.4211 -0.3584  0.1753
  584MOL0    Cl78750   2.680   0.962   3.188  0.2108 -0.0298  0.0861
  584MOL0     C78751   2.328   0.646   2.356 -0.5256 -0.4692  0.2875
  584MOL0     C78752   2.286   0.671   2.225 -0.0267 -0.8499  0.6384
  584MOL0     O78753   2.361   0.535   1.944 -0.4363 -0.1486 -0.2997
  584MOL0     C78754   2.032   0.471   1.817 -0.6640  0.4661 -0.5696
  584MOL0     C78755   1.967   0.410   1.714  0.2057 -0.4994  0.4718
  584MOL0     N78756   1.501   0.168   1.173  0.0624  0.1743  0.0503
  584MOL0     N78757   1.415   0.182   1.080 -0.0237 -0.5878 -0.4555
  584MOL0     C78758   2.261   0.641   0.551 -0.3439 -0.5962  0.1036
  584MOL0     C78759   2.399   0.613   0.583  0.0740  0.2442 -0.5185
  584MOL0     C78760   2.807   0.514   0.723 -0.4099 -0.8402  0.4354
  584MOL0     C78761   2.893   0.521   0.621  0.1171  0.7087 -0.5614
  584MOL0     C78762   3.003   0.439   0.642 -0.6860  0.5921 -0.4104
  584MOL0     C78763   3.037   0.372   0.763 -0.2269 -0.5143 -0.3889
  584MOL0     O78764   3.148   0.297   0.794 -0.3585  0.3864  0.0851
  584MOL0     C78765   3.261   0.281   0.711 -0.7044 -0.4619 -0.4086
  584MOL0     C78766   3.399   0.275   0.789  0.8765 -0.1110  0.1913
  584MOL0     C78767   3.419   0.394   0.874  0.6509  0.5030 -0.2069
  584MOL0     C78768   3.458   0.520   0.795 -0.4665 -1.0026  0.5020
  584MOL0     C78769   3.507   0.638   0.868  0.7219  0.2747  0.2625
  584MOL0     C78770   3.582   0.719   0.918 -0.7685 -0.4039  0.7285
  584MOL0     C78771   2.942   0.367   0.857  0.8733  0.0712  0.1112
  584MOL0     C78772   2.824   0.434   0.841  1.1009  0.2478  0.7986
  584MOL0     H78773   2.407   0.690   0.907 -2.2673 -0.1325  0.2669
  584MOL0     H78774   2.196   0.795   0.835  2.2624  3.8573 -2.2829
  584MOL0     H78775   1.908   0.823   0.515 -0.0940  0.4071  0.4891
  584MOL0     H78776   2.059   0.766   0.438  2.5247 -2.7406  2.3560
  584MOL0     H78777   1.901   0.591   0.368 -0.1606 -0.4779  0.1480
  584MOL0     H78778   1.975   0.533   0.523  1.4642  0.2412 -1.5862
  584MOL0     H78779   1.755   0.668   0.624 -0.1207  0.2349  0.5193
  584MOL0     H78780   1.679   0.628   0.468 -0.8826 -0.5958  1.7952
  584MOL0     H78781   1.731   0.402   0.472  0.7285 -1.1448  0.1613
  584MOL0     H78782   1.801   0.407   0.635  0.2305 -0.4375 -0.7190
  584MOL0     H78783   1.577   0.516   0.700  2.1681 -2.7128  3.6886
  584MOL0     H78784   1.526   0.443   0.544  0.2814  1.8375 -0.0687
  584MOL0     H78785   1.607   0.213   0.644 -1.7775 -0.5869  0.3915
  584MOL0     H78786   1.654   0.291   0.796 -0.7257 -1.1579  0.0176
  584MOL0     H78787   1.449   0.385   0.826 -0.7074  1.4170 -2.0906
  584MOL0     H78788   1.376   0.315   0.676 -0.1767 -1.8677 -0.6195
  584MOL0     H78789   1.429   0.091   0.762 -0.8057 -1.6086  2.2032
  584MOL0     H78790   1.305   0.173   0.850  0.5333  0.3752 -0.4010
  584MOL0     H78791   1.687   0.102   0.921  0.1496  2.2895 -0.4146
  584MOL0     H78792   1.698   0.045   1.309 -0.3711 -4.1686 -1.5354
  584MOL0     H78793   1.801   0.003   1.162  1.5061 -0.6403 -0.0316
  584MOL0     H78794   1.869   0.218   1.126  0.0153 -1.7917 -1.4034
  584MOL0     H78795   1.927   0.149   1.268 -0.1143 -1.1083 -3.0168
  584MOL0     H78796   1.694   0.328   1.334 -0.3836  1.0023  0.8627
  584MOL0     H78797   1.851   0.399   1.293 -0.3099  0.5530  0.7795
  584MOL0     H78798   1.820   0.176   1.502 -0.2026 -0.2347 -0.6067
  584MOL0     H78799   1.775   0.341   1.533 -1.3516 -2.8080  1.7951
  584MOL0     H78800   2.229   0.314   1.519 -0.8080 -0.5319 -0.2887
  584MOL0     H78801   2.435   0.409   1.585 -2.7128 -0.7467 -0.8661
  584MOL0     H78802   2.440   0.542   1.692 -0.3502  0.7663 -0.3117
  584MOL0     H78803   2.445   0.372   1.754 -0.8604 -0.5019  0.1670
  584MOL0     H78804   2.077   0.409   2.190 -0.7117  0.9850 -0.2172
  584MOL0     H78805   2.163   0.366   2.430 -2.5769  0.5682  0.7213
  584MOL0     H78806   2.518   0.547   2.576 -0.5223 -0.4740 -0.7302
  584MOL0     H78807   2.402   0.660   2.645  0.4387  0.1225  0.6749
  584MOL0     H78808   2.323   0.453   2.784  0.7738 -3.3688  1.9869
  584MOL0     H78809   2.460   0.363   2.733 -3.8625 -1.2055  0.8194
  584MOL0     H78810   2.483   0.645   2.876  1.2175  0.2516  2.7486
  584MOL0     H78811   2.613   0.532   2.856  0.3667 -3.7622  1.0760
  584MOL0     H78812   2.349   0.481   2.998  0.2702 -1.1557  1.1340
  584MOL0     H78813   2.498   0.373   2.992  2.7038  0.8549  2.1256
  584MOL0     H78814   2.623   0.523   3.114 -0.6122 -0.3595 -2.6766
  584MOL0     H78815   2.469   0.499   3.218 -3.8560  4.3774 -0.1469
  584MOL0     H78816   2.537   0.744   3.062  6.0637  2.7003  3.6310
  584MOL0     H78817   2.384   0.709   3.151 -1.0000  0.1825  4.6187
  584MOL0     H78818   2.650   0.709   3.298 -1.2325 -1.4431  2.5079
  584MOL0     H78819   2.484   0.719   3.362  0.9193 -0.3576  0.9357
  584MOL0     H78820   2.532   0.933   3.373  1.4556 -0.6334  0.3910
  584MOL0     H78821   2.451   0.924   3.209 -0.6084 -0.5385  0.3529
  584MOL0     H78822   2.401   0.715   2.397  0.2674 -2.2627  2.1257
  584MOL0     H78823   2.317   0.763   2.176  4.2902 -0.4595  3.5622
  584MOL0     H78824   1.973   0.495   1.905  0.3517 -2.7860  1.1693
  584MOL0     H78825   1.859   0.405   1.722  0.1113 -2.7008 -1.1960
  584MOL0     H78826   2.233   0.639   0.446  1.2270  2.4514 -0.5206
  584MOL0     H78827   2.461   0.588   0.497 -0.2244  0.2353 -0.7321
  584MOL0     H78828   2.894   0.579   0.530  2.3350  0.1116 -0.9710
  584MOL0     H78829   3.090   0.441   0.578  0.2372 -0.7555  0.7235
  584MOL0     H78830   3.240   0.194   0.649  0.1043 -1.2901  0.4230
  584MOL0     H78831   3.270   0.364   0.640 -0.1508  2.2585  2.5955
  584MOL0     H78832   3.474   0.261   0.710 -1.1429  2.9407 -2.5026
  584MOL0     H78833   3.394   0.189   0.856 -2.1045  2.2446  3.3494
  584MOL0     H78834   3.495   0.364   0.947 -0.9207  1.9115  2.1727
  584MOL0     H78835   3.328   0.419   0.930  2.6830  3.9485  1.9326
  584MOL0     H78836   3.377   0.545   0.725  0.8623  1.5128 -0.2474
  584MOL0     H78837   3.548   0.492   0.739 -1.7428  1.6191 -3.2685
  584MOL0     H78838   3.657   0.785   0.958  0.0747 -1.0094  0.1929
  584MOL0     H78839   2.965   0.316   0.950 -4.1185 -0.1172  1.4868
  584MOL0     H78840   2.757   0.420   0.925  1.0675 -2.0502  0.4573
  585MOL0     O78841   8.499   7.025   0.972  0.4560 -0.0741  0.0236
  585MOL0     C78842   8.439   7.046   1.079  0.2062 -0.1555  0.0614
  585MOL0     O78843   8.410   7.169   1.136 -0.3791 -0.3087  0.4213
  585MOL0     C78844   8.423   7.287   1.067 -0.0260  0.0559  0.3460
  585MOL0     C78845   8.476   7.313   0.939 -1.0710 -0.3664 -0.7527
  585MOL0     C78846   8.475   7.442   0.888  0.3657 -0.8627 -0.2010
  585MOL0     C78847   8.434   7.550   0.967  0.0420  0.3112 -0.4426
  585MOL0     O78848   8.435   7.669   0.912  0.0664  0.5795  0.5307
  585MOL0     C78849   8.545   7.746   0.955 -0.2872 -0.5254 -0.0869
  585MOL0     C78850   8.556   7.878   0.882  0.6426  0.0433 -0.4817
  585MOL0     C78851   8.702   7.919   0.884  0.7861 -0.4349  0.1889
  585MOL0     C78852   8.795   7.846   0.778  0.1960  0.2935 -0.9605
  585MOL0     C78853   8.921   7.917   0.737 -1.2393  0.1213  0.3497
  585MOL0     C78854   9.028   7.927   0.853  0.4619  0.6283 -0.7058
  585MOL0     C78855   9.168   7.961   0.804  0.0725  0.6410  0.6145
  585MOL0     C78856   9.167   8.078   0.694 -0.1091  0.3432 -0.2208
  585MOL0     N78857   9.160   8.208   0.763 -0.1266  1.1023  0.1288
  585MOL0     C78858   9.040   8.259   0.796  0.3979 -0.5442  0.3737
  585MOL0     C78859   9.077   8.381   0.848  0.1880 -0.4338 -0.2785
  585MOL0     C78860   8.989   8.497   0.904  0.4546  0.0251  0.4592
  585MOL0     C78861   8.966   8.605   0.792  0.4328  1.0050  0.5033
  585MOL0     C78862   9.096   8.672   0.749  0.2399 -0.3211  0.4771
  585MOL0     C78863   9.155   8.740   0.874 -0.3492 -0.3559  0.1798
  585MOL0     O78864   9.251   8.832   0.829  0.2792 -0.6789 -0.9846
  585MOL0     C78865   9.370   8.789   0.780 -0.0382 -0.2966 -0.8513
  585MOL0     C78866   9.430   8.666   0.808  0.8680 -0.0863  0.2971
  585MOL0     C78867   9.547   8.620   0.744  0.3217 -0.4975  0.3298
  585MOL0     C78868   9.588   8.483   0.779  0.0664 -0.0371 -0.2244
  585MOL0     C78869   9.608   8.704   0.643  0.6342 -0.3267  0.4276
  585MOL0     C78870   9.706   8.647   0.540 -0.0770 -0.1414 -0.3658
  585MOL0     O78871   9.755   8.740   0.451  0.9653 -0.6269  0.0256
  585MOL0     C78872   9.855   8.700   0.358  0.8097 -0.5848 -0.2623
  585MOL0     C78873   9.975   8.774   0.354 -0.5292  0.8386  0.2728
  585MOL0     C78874  10.073   8.731   0.263 -0.6326  1.3131  1.3758
  585MOL0     C78875  10.050   8.622   0.173  0.1069  1.6027 -1.3539
  585MOL0     O78876  10.139   8.586   0.084 -0.4250 -0.5288  0.6432
  585MOL0     C78877  10.097   8.598  -0.061  0.2525  0.3358 -0.4480
  585MOL0     C78878  10.149   8.734  -0.103  0.5562 -0.2260  0.1344
  585MOL0     C78879  10.296   8.759  -0.097 -0.3496  0.3615 -0.1173
  585MOL0     C78880  10.375   8.694  -0.210  0.4686  0.2825  0.1409
  585MOL0     C78881  10.525   8.729  -0.209 -0.4085  0.3523  0.2474
  585MOL0     C78882  10.601   8.633  -0.122 -0.2719 -0.6564 -0.3939
  585MOL0     C78883  10.748   8.676  -0.131 -0.5573 -0.2124 -0.3166
  585MOL0     C78884  10.850   8.566  -0.082 -0.3934  0.3266  1.3506
  585MOL0    Cl78885  11.011   8.651  -0.074 -0.1806 -0.3624 -0.0872
  585MOL0     C78886   9.926   8.552   0.188  0.0711 -0.9735  0.9996
  585MOL0     C78887   9.825   8.597   0.271 -0.6729  0.1942 -0.3448
  585MOL0     O78888   9.721   8.520   0.522  0.0212  0.2443  0.5490
  585MOL0     C78889   9.549   8.833   0.626 -0.1875  0.0530 -0.6729
  585MOL0     C78890   9.434   8.878   0.697  0.1895 -0.5905  0.2004
  585MOL0     N78891   9.211   8.391   0.854  0.5208  0.2357 -0.0514
  585MOL0     N78892   9.252   8.283   0.812 -0.4804  0.3984  0.4391
  585MOL0     C78893   8.396   7.531   1.097  0.3313 -0.2916 -1.4333
  585MOL0     C78894   8.383   7.394   1.144 -0.7838  1.4156 -0.2359
  585MOL0     C78895   8.407   6.918   1.153  0.1549 -0.1855 -0.1222
  585MOL0     C78896   8.483   6.804   1.154  0.1976  1.6465  0.8571
  585MOL0     C78897   8.442   6.697   1.224  0.6797  0.5459  0.0450
  585MOL0     C78898   8.329   6.713   1.306 -0.2761  0.1252 -0.2774
  585MOL0     O78899   8.283   6.616   1.396 -0.4629  0.1444  0.7096
  585MOL0     C78900   8.289   6.478   1.359  0.0479 -0.7687 -0.1820
  585MOL0     C78901   8.153   6.415   1.336 -0.0179 -1.2383 -0.3685
  585MOL0     C78902   8.063   6.427   1.464  0.0026 -0.9891  0.0849
  585MOL0     C78903   7.970   6.305   1.498 -0.0707  0.0626  0.4339
  585MOL0     C78904   7.929   6.308   1.639 -0.3565  0.7722 -0.2209
  585MOL0     C78905   7.882   6.325   1.749 -0.3271 -0.2420 -0.0099
  585MOL0     C78906   8.262   6.832   1.318  0.5094 -0.2694 -0.1306
  585MOL0     C78907   8.293   6.932   1.230 -0.5538  0.7293 -0.0911
  585MOL0     H78908   8.510   7.231   0.878 -3.3110 -3.1171  1.4275
  585MOL0     H78909   8.495   7.472   0.786  0.3751  3.5512  0.9121
  585MOL0     H78910   8.536   7.775   1.060 -1.0122  5.8067 -1.4896
  585MOL0     H78911   8.640   7.693   0.943 -0.8576 -2.3579  2.7044
  585MOL0     H78912   8.537   7.852   0.777 -0.8347  1.4719 -0.5998
  585MOL0     H78913   8.485   7.943   0.934  2.3483  0.4030  1.5021
  585MOL0     H78914   8.706   8.025   0.855  0.4784 -0.6282 -0.5595
  585MOL0     H78915   8.738   7.923   0.987  0.6912  1.6153  0.1833
  585MOL0     H78916   8.817   7.749   0.823  0.4964  1.0879  0.6820
  585MOL0     H78917   8.744   7.841   0.681  3.0264  1.4777 -2.6290
  585MOL0     H78918   8.968   7.872   0.649  0.6005  0.3371  1.1812
  585MOL0     H78919   8.904   8.020   0.705  5.0275  0.4869 -3.3485
  585MOL0     H78920   8.999   8.006   0.923  5.1414 -0.1762  2.6138
  585MOL0     H78921   9.021   7.830   0.903 -2.7993  0.6847 -0.8339
  585MOL0     H78922   9.238   7.995   0.881 -0.2624  1.3747  0.5962
  585MOL0     H78923   9.202   7.867   0.758 -3.9033 -0.6571 -0.0819
  585MOL0     H78924   9.086   8.060   0.622 -1.1493 -0.6136  1.1294
  585MOL0     H78925   9.258   8.065   0.636 -2.2140 -0.9110 -3.5416
  585MOL0     H78926   8.944   8.212   0.779 -0.2497  0.0123  2.2673
  585MOL0     H78927   8.899   8.445   0.938  0.5159  0.2929  1.0340
  585MOL0     H78928   9.042   8.542   0.988 -0.2076  2.2500 -0.2454
  585MOL0     H78929   8.890   8.676   0.825 -0.5065 -0.1009  0.8173
  585MOL0     H78930   8.922   8.554   0.706  0.8001  2.1124 -0.3467
  585MOL0     H78931   9.076   8.747   0.672 -0.0498 -1.4298 -0.5787
  585MOL0     H78932   9.158   8.604   0.690  0.0517  0.9232 -1.2240
  585MOL0     H78933   9.209   8.671   0.939  2.7293  3.1491  1.6975
  585MOL0     H78934   9.080   8.792   0.934 -0.4649  1.1481 -1.2116
  585MOL0     H78935   9.389   8.599   0.883  0.9701  1.2865  1.6116
  585MOL0     H78936   9.691   8.460   0.753 -0.6597  0.2878 -4.1376
  585MOL0     H78937   9.560   8.467   0.883  1.3090 -2.2773 -0.1782
  585MOL0     H78938   9.535   8.424   0.704 -2.7496  2.9641 -0.8774
  585MOL0     H78939   9.997   8.863   0.412 -2.1075  1.4151  0.0359
  585MOL0     H78940  10.164   8.786   0.244  0.1024  0.0930  1.2667
  585MOL0     H78941  10.139   8.518  -0.122  1.8041 -0.1439  1.1898
  585MOL0     H78942   9.989   8.588  -0.075  0.0031  1.7929  0.1801
  585MOL0     H78943  10.105   8.753  -0.201 -0.5228 -3.3266 -0.0796
  585MOL0     H78944  10.097   8.807  -0.040 -1.2915 -0.8572 -0.5741
  585MOL0     H78945  10.348   8.722  -0.007 -0.3436 -3.9881 -1.6782
  585MOL0     H78946  10.314   8.866  -0.104 -0.2749  0.6026  2.5251
  585MOL0     H78947  10.374   8.586  -0.189  0.6788  0.4999  1.3643
  585MOL0     H78948  10.332   8.720  -0.307  1.3914 -2.5427 -1.1423
  585MOL0     H78949  10.539   8.833  -0.177 -0.5999  0.4943 -0.1228
  585MOL0     H78950  10.567   8.711  -0.308 -1.4774  1.5063 -0.4514
  585MOL0     H78951  10.570   8.630  -0.017  0.9400  1.1796  0.0557
  585MOL0     H78952  10.593   8.531  -0.161 -0.9870 -1.4551  1.6766
  585MOL0     H78953  10.766   8.768  -0.074  0.7506  1.7003 -3.5800
  585MOL0     H78954  10.763   8.694  -0.237  0.1190 -2.8345 -0.7238
  585MOL0     H78955  10.852   8.495  -0.165  1.4615  2.9704 -1.1227
  585MOL0     H78956  10.817   8.515   0.008 -1.0264 -1.5400  0.1243
  585MOL0     H78957   9.902   8.466   0.126 -3.0383 -0.1847  0.9200
  585MOL0     H78958   9.736   8.535   0.272  0.7507 -2.0269 -1.8749
  585MOL0     H78959   9.590   8.885   0.540 -0.1583 -0.2183 -0.8234
  585MOL0     H78960   9.395   8.973   0.662  0.1994 -0.7164 -0.1600
  585MOL0     H78961   8.341   7.615   1.140  1.9266  0.6626 -1.1987
  585MOL0     H78962   8.343   7.374   1.243  0.0741 -1.2516 -0.3571
  585MOL0     H78963   8.579   6.798   1.104  0.3152 -0.6745  1.2516
  585MOL0     H78964   8.485   6.599   1.205  1.9797  1.7259 -4.4039
  585MOL0     H78965   8.356   6.451   1.277 -0.1117 -2.2036  0.1318
  585MOL0     H78966   8.340   6.423   1.439 -0.8185  1.7768  2.2760
  585MOL0     H78967   8.176   6.310   1.315  4.6078 -0.4877 -0.0345
  585MOL0     H78968   8.092   6.460   1.257  2.5071  1.8945 -0.7470
  585MOL0     H78969   8.000   6.517   1.457 -0.9011 -1.6055  0.0432
  585MOL0     H78970   8.132   6.443   1.547  0.6988 -2.0865 -0.2674
  585MOL0     H78971   8.020   6.208   1.484 -1.0064 -0.6655  1.8658
  585MOL0     H78972   7.883   6.294   1.432  0.0506 -2.4282  0.6017
  585MOL0     H78973   7.833   6.343   1.843 -2.7314 -2.0511 -0.8013
  585MOL0     H78974   8.180   6.845   1.388  0.9896  0.4343  0.3161
  585MOL0     H78975   8.229   7.019   1.230 -0.7909  0.5579 -0.3575
  586MOL0     O78976   4.744   6.740   8.896  0.1782 -0.3636 -0.4432
  586MOL0     C78977   4.788   6.740   9.008 -0.6674 -0.0585 -0.0174
  586MOL0     O78978   4.818   6.626   9.080  0.4563 -0.2051 -0.1345
  586MOL0     C78979   4.772   6.506   9.035  0.4014 -0.4085 -0.3168
  586MOL0     C78980   4.853   6.418   8.975  0.8648 -0.1060  1.7132
  586MOL0     C78981   4.792   6.299   8.919 -0.4185 -0.3905 -0.5218
  586MOL0     C78982   4.658   6.274   8.933  1.4103  0.9641 -0.0837
  586MOL0     O78983   4.583   6.168   8.896  0.0943  0.5242 -0.2123
  586MOL0     C78984   4.639   6.098   8.778 -0.6046  0.1062  1.1361
  586MOL0     C78985   4.556   5.978   8.722 -0.6993 -0.3806  0.1955
  586MOL0     C78986   4.631   5.888   8.623  0.4730  0.2793 -0.0130
  586MOL0     C78987   4.575   5.749   8.623 -0.2139  0.1300 -0.6956
  586MOL0     C78988   4.632   5.666   8.506 -0.0923 -0.3128 -0.2995
  586MOL0     C78989   4.552   5.701   8.381  0.2089 -0.4331  0.0501
  586MOL0     C78990   4.530   5.581   8.288 -0.6280 -0.3675 -0.1274
  586MOL0     C78991   4.590   5.586   8.159  0.0429  0.6946  0.0107
  586MOL0     N78992   4.716   5.519   8.147  0.3613 -0.1546  0.4786
  586MOL0     C78993   4.734   5.384   8.134 -0.1837 -0.7752 -0.1103
  586MOL0     C78994   4.862   5.355   8.119  0.3069  1.0507 -0.4821
  586MOL0     C78995   4.934   5.222   8.103  0.0855  0.9426 -0.4966
  586MOL0     C78996   5.051   5.230   8.001  0.8344 -0.6680  0.8772
  586MOL0     C78997   5.093   5.091   7.947 -0.6257  0.7372 -0.0781
  586MOL0     C78998   5.163   4.995   8.053 -0.1532  0.0373 -0.1640
  586MOL0     O78999   5.300   5.031   8.076 -0.3083 -0.2113  0.4042
  586MOL0     C79000   5.366   4.969   8.178 -0.5520  0.4913 -0.2654
  586MOL0     C79001   5.505   4.980   8.170 -0.6306 -0.6638  0.4486
  586MOL0     C79002   5.594   4.918   8.254 -0.5648  0.2524  0.2226
  586MOL0     C79003   5.744   4.922   8.236 -0.9628 -0.2552 -0.5342
  586MOL0     C79004   5.536   4.851   8.371  0.3412 -0.1036  0.1488
  586MOL0     C79005   5.605   4.796   8.496 -0.5135 -0.4526 -0.7439
  586MOL0     O79006   5.533   4.710   8.571 -0.6872  0.0893 -0.7386
  586MOL0     C79007   5.568   4.688   8.704  0.0701  0.0615 -0.0815
  586MOL0     C79008   5.697   4.667   8.737 -1.1770  0.2451  0.3719
  586MOL0     C79009   5.728   4.640   8.866  0.4113  0.3613 -1.2832
  586MOL0     C79010   5.638   4.627   8.974  0.4951 -0.2981 -0.1889
  586MOL0     O79011   5.669   4.611   9.103 -0.5029 -0.1960 -0.1640
  586MOL0     C79012   5.745   4.707   9.177  0.0692  0.3671 -0.5577
  586MOL0     C79013   5.641   4.804   9.238  0.3035  0.6458  0.4311
  586MOL0     C79014   5.610   4.909   9.133 -0.0445  0.7850 -1.1180
  586MOL0     C79015   5.568   5.045   9.180 -0.0226 -0.5735 -0.2232
  586MOL0     C79016   5.647   5.113   9.288 -0.5641  0.2094  0.9127
  586MOL0     C79017   5.606   5.263   9.317  0.0770  0.1331  0.0526
  586MOL0     C79018   5.460   5.268   9.369 -0.1190 -0.8624 -0.7662
  586MOL0     C79019   5.363   5.361   9.304  0.5573 -0.4033  0.5856
  586MOL0    Cl79020   5.276   5.268   9.178  0.5847 -0.3068 -0.3390
  586MOL0     C79021   5.507   4.639   8.937 -0.0015  0.1969 -0.1004
  586MOL0     C79022   5.465   4.667   8.800 -0.3053  0.6641 -0.2377
  586MOL0     O79023   5.718   4.847   8.530 -0.3616 -0.2867  0.6677
  586MOL0     C79024   5.395   4.842   8.378  0.0462  1.1132  0.1512
  586MOL0     C79025   5.305   4.894   8.281  0.2159 -0.9651 -0.8011
  586MOL0     N79026   4.921   5.477   8.133  0.4702  0.0336 -0.3302
  586MOL0     N79027   4.844   5.567   8.157  0.6867  0.4111 -0.2162
  586MOL0     C79028   4.580   6.371   9.004 -0.2127 -1.0086  0.7522
  586MOL0     C79029   4.640   6.483   9.045 -0.5899 -0.4902  0.5976
  586MOL0     C79030   4.842   6.870   9.057 -0.2267  0.2280  0.4417
  586MOL0     C79031   4.799   6.988   9.005 -0.0576 -0.6823 -1.7221
  586MOL0     C79032   4.853   7.114   9.044 -0.1657 -0.8341  0.0705
  586MOL0     C79033   4.959   7.132   9.139 -0.7152  1.3943  0.2452
  586MOL0     O79034   5.020   7.250   9.171  0.1727  0.5044 -0.2343
  586MOL0     C79035   5.158   7.252   9.219 -0.2431  1.5036 -0.6863
  586MOL0     C79036   5.171   7.312   9.360  0.5348  0.2173  0.3831
  586MOL0     C79037   5.309   7.272   9.421 -0.4540 -0.0124  0.0372
  586MOL0     C79038   5.329   7.334   9.557  0.2455 -0.1361  0.3824
  586MOL0     C79039   5.227   7.279   9.649  0.6757 -0.8516  0.1379
  586MOL0     C79040   5.155   7.258   9.743 -0.5258  0.7918 -0.4741
  586MOL0     C79041   5.001   7.000   9.186  0.1720 -0.0948  0.4082
  586MOL0     C79042   4.948   6.883   9.151  0.4018  0.6113  0.6305
  586MOL0     H79043   4.951   6.458   8.955  1.0818 -1.1917  0.4572
  586MOL0     H79044   4.853   6.227   8.865 -1.7365  0.9237 -4.0374
  586MOL0     H79045   4.643   6.165   8.692 -0.5375 -2.0155 -0.6194
  586MOL0     H79046   4.743   6.070   8.797 -1.0047 -1.8861  0.6813
  586MOL0     H79047   4.535   5.918   8.811 -1.7947 -2.8453 -1.5967
  586MOL0     H79048   4.463   6.008   8.673 -0.3117 -1.2420 -1.1209
  586MOL0     H79049   4.619   5.926   8.521 -2.4777 -0.6055 -0.0937
  586MOL0     H79050   4.738   5.896   8.646 -0.1410  2.0542  2.7548
  586MOL0     H79051   4.612   5.703   8.715 -0.7588  0.9104 -0.0728
  586MOL0     H79052   4.466   5.753   8.627 -0.3310 -0.2480 -2.4764
  586MOL0     H79053   4.734   5.697   8.481 -1.4917  4.4009 -1.3074
  586MOL0     H79054   4.614   5.566   8.545  1.3220 -0.4198  0.1182
  586MOL0     H79055   4.447   5.722   8.408  0.6961  1.4085  0.6562
  586MOL0     H79056   4.592   5.792   8.336 -3.2694  1.3902  0.2669
  586MOL0     H79057   4.557   5.485   8.332  0.5608 -0.1360 -0.3347
  586MOL0     H79058   4.423   5.581   8.264 -0.8987  1.3425  0.9184
  586MOL0     H79059   4.591   5.685   8.114 -1.9646 -1.2842 -5.1663
  586MOL0     H79060   4.524   5.540   8.085 -0.9195  0.6315  0.8828
  586MOL0     H79061   4.655   5.311   8.131  1.4485 -2.6293 -0.2571
  586MOL0     H79062   4.968   5.187   8.202 -0.7466 -2.7412 -1.3508
  586MOL0     H79063   4.862   5.152   8.060  1.9547 -1.0107 -0.5838
  586MOL0     H79064   5.133   5.285   8.049  2.2155 -1.9686  0.0841
  586MOL0     H79065   5.013   5.282   7.913 -1.1018  1.6396  2.8942
  586MOL0     H79066   5.167   5.101   7.866  0.0941 -3.4956 -0.1401
  586MOL0     H79067   5.004   5.047   7.901  1.3912 -1.4261 -2.1927
  586MOL0     H79068   5.145   4.899   8.004 -4.6640  1.2926 -1.4659
  586MOL0     H79069   5.100   5.000   8.143  1.1729 -0.5834  0.8278
  586MOL0     H79070   5.547   5.030   8.083  0.6338  1.1888  2.0310
  586MOL0     H79071   5.786   4.822   8.247 -1.2746 -0.4706 -1.1944
  586MOL0     H79072   5.778   4.952   8.136  5.2938 -0.0632  1.2629
  586MOL0     H79073   5.782   4.994   8.308 -1.8910  0.2424 -0.5314
  586MOL0     H79074   5.779   4.651   8.667  0.0332  0.1731  1.7462
  586MOL0     H79075   5.830   4.614   8.896  0.1678 -2.7081 -2.6654
  586MOL0     H79076   5.804   4.664   9.259  0.8415  2.7330  0.2043
  586MOL0     H79077   5.811   4.760   9.108  2.4131 -1.7919 -0.1360
  586MOL0     H79078   5.545   4.758   9.260  0.1499  1.1623  0.8641
  586MOL0     H79079   5.682   4.843   9.332  0.8595 -0.4588  0.6655
  586MOL0     H79080   5.524   4.867   9.080 -1.9208 -2.7526  3.8600
  586MOL0     H79081   5.698   4.928   9.072  0.5576  3.1043  0.3394
  586MOL0     H79082   5.586   5.124   9.106  2.8351  0.6133  1.5884
  586MOL0     H79083   5.461   5.043   9.203  0.4807  1.0983  2.7195
  586MOL0     H79084   5.752   5.118   9.258 -0.9213 -1.2002 -0.7117
  586MOL0     H79085   5.641   5.060   9.383 -0.5534 -0.2732  0.6447
  586MOL0     H79086   5.662   5.304   9.402 -2.0868 -2.5007  2.9856
  586MOL0     H79087   5.624   5.335   9.237  4.5372  0.1541  0.8287
  586MOL0     H79088   5.477   5.311   9.468 -0.6691  0.8373 -1.3882
  586MOL0     H79089   5.412   5.170   9.376 -3.3440  0.7236  1.3691
  586MOL0     H79090   5.411   5.454   9.273  1.2357 -0.3627  1.7051
  586MOL0     H79091   5.294   5.388   9.384 -0.4894  0.0469 -0.4457
  586MOL0     H79092   5.433   4.611   9.011  0.2218  0.3008  0.1651
  586MOL0     H79093   5.360   4.663   8.774 -0.9305 -1.8231  2.2200
  586MOL0     H79094   5.342   4.795   8.460  2.2020 -1.3697  0.2504
  586MOL0     H79095   5.200   4.870   8.294  0.4872 -1.6086  0.3616
  586MOL0     H79096   4.474   6.362   9.022 -0.2766  0.2242  1.0904
  586MOL0     H79097   4.582   6.560   9.097 -0.5751 -1.0295  1.4382
  586MOL0     H79098   4.719   6.983   8.932 -1.0396 -1.7507 -0.6182
  586MOL0     H79099   4.825   7.206   8.995  1.2365  0.1357  0.9977
  586MOL0     H79100   5.219   7.162   9.208 -0.2170  1.4263  0.0724
  586MOL0     H79101   5.207   7.322   9.151 -0.1025  0.8747 -1.2327
  586MOL0     H79102   5.092   7.274   9.425  1.7237 -1.6644  0.8213
  586MOL0     H79103   5.168   7.420   9.347 -1.0851  0.6308  3.3851
  586MOL0     H79104   5.395   7.308   9.363  1.1557  0.3450  2.4707
  586MOL0     H79105   5.322   7.163   9.429  3.1826  0.2266 -0.6734
  586MOL0     H79106   5.304   7.438   9.532  0.1496  0.1843  1.7430
  586MOL0     H79107   5.431   7.327   9.596  0.5766  0.7429 -0.2986
  586MOL0     H79108   5.089   7.236   9.825 -1.9783 -1.5063 -2.1524
  586MOL0     H79109   5.083   6.982   9.255 -1.8715 -1.1983  2.7010
  586MOL0     H79110   4.998   6.795   9.190  1.5010  0.8493 -0.2150
  587MOL0     O79111   2.491   3.869   5.488 -0.1574  0.1568 -0.2596
  587MOL0     C79112   2.532   3.935   5.585  0.1175  0.8675  0.3062
  587MOL0     O79113   2.543   3.884   5.721 -0.7152 -1.3420 -0.1234
  587MOL0     C79114   2.496   3.760   5.751 -0.7855 -0.2572  0.4545
  587MOL0     C79115   2.535   3.649   5.679 -0.1314  0.4034  0.3097
  587MOL0     C79116   2.487   3.520   5.716  0.0536  0.1917 -0.7400
  587MOL0     C79117   2.407   3.503   5.830  0.8230 -0.7664 -0.6213
  587MOL0     O79118   2.376   3.377   5.884 -0.7611 -1.3195 -0.0085
  587MOL0     C79119   2.427   3.254   5.820 -1.2715  0.1109  1.0700
  587MOL0     C79120   2.345   3.141   5.873 -0.5823  0.3601 -0.6870
  587MOL0     C79121   2.410   3.055   5.984  0.0294 -0.6500 -0.8683
  587MOL0     C79122   2.541   2.988   5.933 -0.1506 -0.4744 -0.5315
  587MOL0     C79123   2.600   2.890   6.025  0.2774  0.1709  0.6972
  587MOL0     C79124   2.730   2.830   5.982 -0.7075 -1.5244  0.4477
  587MOL0     C79125   2.738   2.806   5.833 -0.2749 -0.5525 -0.1788
  587MOL0     C79126   2.858   2.718   5.808 -0.8626 -0.4914  0.5265
  587MOL0     N79127   2.845   2.637   5.688  0.2443 -0.4794 -0.0919
  587MOL0     C79128   2.828   2.508   5.679  0.3732  0.3261 -0.6117
  587MOL0     C79129   2.821   2.482   5.544  0.6508  0.3227  0.6442
  587MOL0     C79130   2.793   2.345   5.481  0.4016  0.2735  0.1527
  587MOL0     C79131   2.884   2.235   5.508 -1.0847 -0.0311 -0.7958
  587MOL0     C79132   3.029   2.260   5.496  0.6143 -0.2909  0.4179
  587MOL0     C79133   3.109   2.139   5.525 -0.1641  0.2044 -0.6864
  587MOL0     O79134   3.082   2.029   5.434 -0.3633 -0.7775 -0.0668
  587MOL0     C79135   3.090   1.897   5.485 -0.0710 -0.4916  0.4952
  587MOL0     C79136   3.014   1.793   5.437  0.6224  0.8234  1.0979
  587MOL0     C79137   3.015   1.655   5.483 -0.2073  0.1198  0.3332
  587MOL0     C79138   2.934   1.552   5.414  0.2462 -0.4820 -0.5870
  587MOL0     C79139   3.108   1.628   5.593 -0.7596 -0.5729 -0.9117
  587MOL0     C79140   3.115   1.499   5.667 -0.0247  0.2518  0.3306
  587MOL0     O79141   3.205   1.480   5.767 -0.0595 -0.1484  0.3078
  587MOL0     C79142   3.241   1.353   5.803 -0.6834  0.1994  1.1862
  587MOL0     C79143   3.284   1.263   5.704 -0.2642  1.4429 -0.0750
  587MOL0     C79144   3.331   1.143   5.742  0.4801 -0.2863 -0.3326
  587MOL0     C79145   3.335   1.103   5.884  1.1939 -0.8710  0.2913
  587MOL0     O79146   3.354   0.974   5.907  1.1133  0.2797 -0.6535
  587MOL0     C79147   3.259   0.897   5.984 -0.3434  0.0256 -0.2271
  587MOL0     C79148   3.279   0.750   5.957 -0.7877 -1.0946  0.6107
  587MOL0     C79149   3.150   0.669   5.942  0.3762  0.7751  0.1944
  587MOL0     C79150   3.159   0.517   5.964 -0.0912  0.2190 -0.7923
  587MOL0     C79151   3.267   0.441   5.889  0.7323 -0.3386  0.6270
  587MOL0     C79152   3.239   0.288   5.868  0.8888 -0.3712 -0.0166
  587MOL0     C79153   3.357   0.200   5.842 -0.5878 -0.0825  0.3299
  587MOL0     C79154   3.350   0.078   5.922  0.6335  0.4796  0.8374
  587MOL0    Cl79155   3.490  -0.011   5.845  0.2015 -0.0160 -0.0092
  587MOL0     C79156   3.311   1.203   5.981 -0.2762 -0.2780 -0.0732
  587MOL0     C79157   3.273   1.330   5.936 -1.2228 -0.2514  0.5753
  587MOL0     O79158   3.041   1.405   5.628 -0.2263  0.3049  0.1164
  587MOL0     C79159   3.171   1.736   5.651 -0.0539  0.5330  0.1651
  587MOL0     C79160   3.168   1.859   5.600 -0.2513 -0.2962  0.4492
  587MOL0     N79161   2.839   2.595   5.471 -0.6482 -0.1876 -0.1849
  587MOL0     N79162   2.854   2.684   5.556 -0.0312 -0.1912 -1.1091
  587MOL0     C79163   2.367   3.620   5.897 -0.2761  0.9854 -0.5244
  587MOL0     C79164   2.421   3.746   5.861  0.1398 -0.1344 -0.2202
  587MOL0     C79165   2.573   4.068   5.564  0.1101 -0.4116 -0.0894
  587MOL0     C79166   2.639   4.146   5.665 -0.7685  0.0451  0.1275
  587MOL0     C79167   2.667   4.279   5.647  0.3350 -0.3114 -0.7340
  587MOL0     C79168   2.629   4.351   5.529  0.2693  0.3798  0.1284
  587MOL0     O79169   2.655   4.489   5.535  0.2552 -0.0704 -0.2187
  587MOL0     C79170   2.656   4.566   5.421 -1.0558 -0.3441  0.0492
  587MOL0     C79171   2.788   4.571   5.341  0.3029  0.1626 -0.2797
  587MOL0     C79172   2.825   4.430   5.273 -0.3256 -0.1674 -0.3565
  587MOL0     C79173   2.971   4.436   5.224  0.2878  0.2545 -0.5303
  587MOL0     C79174   2.999   4.556   5.146 -0.4297 -1.5368  0.2492
  587MOL0     C79175   3.039   4.646   5.070 -0.4910  0.2573  0.0137
  587MOL0     C79176   2.564   4.277   5.425  0.5603 -0.3680  0.1989
  587MOL0     C79177   2.538   4.137   5.446  1.3803  0.2616  0.0787
  587MOL0     H79178   2.601   3.666   5.594  1.4848  1.8346  1.7743
  587MOL0     H79179   2.531   3.432   5.670  0.1581  0.2534 -0.7605
  587MOL0     H79180   2.425   3.258   5.711  2.5930  1.2856  0.8661
  587MOL0     H79181   2.535   3.244   5.836 -0.4850  1.0265 -2.7702
  587MOL0     H79182   2.258   3.183   5.924 -0.9342 -3.5303  2.4075
  587MOL0     H79183   2.318   3.082   5.785 -0.2733 -1.4409  0.3650
  587MOL0     H79184   2.444   3.119   6.066 -1.1727 -1.1123  0.0136
  587MOL0     H79185   2.342   2.981   6.025 -1.4812  1.3024  0.3322
  587MOL0     H79186   2.530   2.940   5.836  3.0797 -2.4377 -0.0894
  587MOL0     H79187   2.615   3.069   5.934 -2.1529  1.4999 -1.7366
  587MOL0     H79188   2.616   2.937   6.122  1.3876 -1.4400  1.3348
  587MOL0     H79189   2.533   2.805   6.034  0.9159 -0.1902  2.2184
  587MOL0     H79190   2.807   2.904   6.005 -2.2859 -0.0437  1.2022
  587MOL0     H79191   2.738   2.736   6.038  1.4344 -0.6725  1.7217
  587MOL0     H79192   2.653   2.754   5.789 -1.1411  1.6300 -1.1835
  587MOL0     H79193   2.744   2.901   5.780  0.1384 -0.4136  0.1158
  587MOL0     H79194   2.867   2.650   5.893  4.9787  0.5244  1.1436
  587MOL0     H79195   2.946   2.783   5.814  0.2933 -2.1516  3.7753
  587MOL0     H79196   2.812   2.448   5.767 -2.0119 -0.2163 -1.3253
  587MOL0     H79197   2.694   2.313   5.516  0.1379  1.1046  0.1915
  587MOL0     H79198   2.788   2.350   5.372  2.1636 -0.0944  0.0236
  587MOL0     H79199   2.856   2.145   5.453 -1.7346 -0.5017  0.2600
  587MOL0     H79200   2.866   2.206   5.612  2.1563  1.5216  0.3361
  587MOL0     H79201   3.063   2.338   5.564  0.5773 -1.3508  1.6912
  587MOL0     H79202   3.057   2.295   5.396 -0.3966  0.7109  0.4700
  587MOL0     H79203   3.084   2.107   5.626 -2.3803 -0.0288 -1.2662
  587MOL0     H79204   3.216   2.161   5.518 -0.2199  0.4739 -0.7120
  587MOL0     H79205   2.945   1.808   5.355  2.2517  1.4595 -0.2363
  587MOL0     H79206   2.968   1.450   5.392 -2.6465 -1.6743 -0.0737
  587MOL0     H79207   2.830   1.556   5.450  1.0353  0.9256  1.7319
  587MOL0     H79208   2.953   1.588   5.312 -0.5993 -2.5652 -1.5501
  587MOL0     H79209   3.260   1.276   5.599  1.3828  0.6641 -0.5799
  587MOL0     H79210   3.371   1.070   5.673  1.6293  0.5091 -0.5325
  587MOL0     H79211   3.270   0.920   6.090  1.9189 -0.5023 -0.2908
  587MOL0     H79212   3.160   0.930   5.953 -0.1070  1.4696  0.4906
  587MOL0     H79213   3.347   0.742   5.872 -2.8593 -2.1707 -1.0317
  587MOL0     H79214   3.325   0.706   6.046  1.6348 -0.5261 -0.2854
  587MOL0     H79215   3.120   0.688   5.838  0.6146 -1.2801 -0.3006
  587MOL0     H79216   3.085   0.708   6.021  0.1580  0.3847  0.2080
  587MOL0     H79217   3.179   0.503   6.070 -3.5627 -0.1695 -0.0716
  587MOL0     H79218   3.063   0.467   5.946 -1.8484  1.2136  4.1914
  587MOL0     H79219   3.362   0.451   5.942  0.4055  0.4123  1.0904
  587MOL0     H79220   3.286   0.479   5.788  2.1527 -0.7767  0.7032
  587MOL0     H79221   3.201   0.258   5.966  0.3806 -0.1225 -0.1336
  587MOL0     H79222   3.162   0.268   5.792 -1.1049 -2.9206  2.4733
  587MOL0     H79223   3.453   0.249   5.862  0.0812 -0.3278 -2.0300
  587MOL0     H79224   3.354   0.176   5.736  1.2629 -0.8084  0.4153
  587MOL0     H79225   3.251   0.033   5.907  1.7419 -1.7103 -0.3811
  587MOL0     H79226   3.367   0.094   6.028 -0.3581  3.9157  0.6272
  587MOL0     H79227   3.327   1.194   6.087  1.1820 -1.6643 -0.3838
  587MOL0     H79228   3.263   1.419   5.998  2.8546  2.9599 -2.7784
  587MOL0     H79229   3.222   1.730   5.747  2.5254 -2.3912 -1.1824
  587MOL0     H79230   3.212   1.937   5.661  0.0368 -0.4011  0.3743
  587MOL0     H79231   2.309   3.603   5.988  1.2923  2.1796  0.7407
  587MOL0     H79232   2.392   3.829   5.925  0.0125  1.7889 -2.6215
  587MOL0     H79233   2.656   4.123   5.770 -2.4940  1.1692  0.6858
  587MOL0     H79234   2.710   4.325   5.736 -1.4972  1.6022 -0.7484
  587MOL0     H79235   2.574   4.546   5.351 -1.5694  1.4131  0.0819
  587MOL0     H79236   2.634   4.670   5.451  1.2480  0.6483 -1.4531
  587MOL0     H79237   2.866   4.603   5.410  0.7261 -2.9900  0.8700
  587MOL0     H79238   2.774   4.642   5.259  0.8282 -0.0406 -0.5540
  587MOL0     H79239   2.752   4.398   5.198  1.3703  0.7026 -2.4927
  587MOL0     H79240   2.824   4.347   5.343  1.4771  0.0194 -0.0780
  587MOL0     H79241   2.986   4.349   5.160 -2.3157 -0.1604 -0.6988
  587MOL0     H79242   3.036   4.423   5.311  1.9586 -3.5228 -2.1442
  587MOL0     H79243   3.079   4.722   5.006 -3.9450  1.6814 -0.6520
  587MOL0     H79244   2.527   4.323   5.334 -0.4889  5.0364  2.9476
  587MOL0     H79245   2.495   4.078   5.365  1.4681 -0.9153  0.8785
  588MOL0     O79246   0.044   2.992   8.296  0.1535 -0.1665 -0.4556
  588MOL0     C79247   0.033   2.946   8.406  0.0759 -0.8164 -1.3233
  588MOL0     O79248   0.089   2.993   8.523 -0.4046 -0.4953  0.1281
  588MOL0     C79249   0.176   3.094   8.509  0.2240 -0.1846 -0.2116
  588MOL0     C79250   0.308   3.064   8.530 -0.2381 -0.7449 -0.2143
  588MOL0     C79251   0.411   3.156   8.516 -0.0745 -1.1255 -0.3393
  588MOL0     C79252   0.375   3.292   8.484 -0.1192  0.7807  0.0052
  588MOL0     O79253   0.488   3.370   8.480  0.5322 -0.0827 -0.0876
  588MOL0     C79254   0.473   3.514   8.479 -0.0417  1.2187  0.0932
  588MOL0     C79255   0.614   3.581   8.465 -0.0003  0.3428 -0.5076
  588MOL0     C79256   0.691   3.585   8.595 -0.7673  0.1089  0.1353
  588MOL0     C79257   0.827   3.653   8.582 -0.0127  0.3730 -0.6764
  588MOL0     C79258   0.923   3.554   8.505  0.6637  1.1456  0.9238
  588MOL0     C79259   1.063   3.612   8.507 -0.6347  0.1858 -0.3702
  588MOL0     C79260   1.157   3.527   8.433  0.8114  0.8809  0.1147
  588MOL0     C79261   1.303   3.567   8.467 -0.8552  0.5527 -0.5530
  588MOL0     N79262   1.397   3.510   8.376  0.2846  0.2792 -0.3075
  588MOL0     C79263   1.380   3.391   8.309  0.6131 -0.1517 -0.6102
  588MOL0     C79264   1.507   3.368   8.271  0.5641  1.2314 -0.4026
  588MOL0     C79265   1.559   3.243   8.199  0.0494 -0.1848 -0.3259
  588MOL0     C79266   1.499   3.112   8.254  0.8121 -0.7605  0.1487
  588MOL0     C79267   1.529   3.104   8.403 -1.0091 -0.0911 -0.1764
  588MOL0     C79268   1.470   2.977   8.463  0.3930 -0.0656 -0.6991
  588MOL0     O79269   1.550   2.948   8.580 -0.0936  0.6309 -0.2455
  588MOL0     C79270   1.577   2.819   8.597 -0.4426 -0.0047  0.9626
  588MOL0     C79271   1.486   2.710   8.559 -0.2931 -0.7358 -0.9008
  588MOL0     C79272   1.516   2.577   8.571 -0.0695 -0.2875  0.4320
  588MOL0     C79273   1.411   2.468   8.547 -0.3366 -0.2195  0.2487
  588MOL0     C79274   1.642   2.544   8.635 -1.0857 -0.4877  0.2638
  588MOL0     C79275   1.699   2.406   8.664 -0.8356  0.0247  0.3191
  588MOL0     O79276   1.811   2.398   8.746 -0.2582  0.5717 -0.1516
  588MOL0     C79277   1.885   2.277   8.754  0.9100  0.3716 -0.5263
  588MOL0     C79278   1.887   2.206   8.879 -0.9816 -0.2752 -0.1187
  588MOL0     C79279   1.949   2.092   8.889  0.0232 -0.4869  0.7685
  588MOL0     C79280   2.001   2.030   8.778 -0.2499  0.8897  0.0127
  588MOL0     O79281   2.060   1.903   8.798  0.4480  0.3040  0.6298
  588MOL0     C79282   2.133   1.851   8.687  0.9517 -0.4347  0.7231
  588MOL0     C79283   2.219   1.731   8.732 -0.2247 -0.4683 -0.0590
  588MOL0     C79284   2.332   1.779   8.841 -0.7181  0.6595  0.5669
  588MOL0     C79285   2.415   1.659   8.895 -0.0337 -0.6848  0.5066
  588MOL0     C79286   2.484   1.680   9.034 -0.6605  0.2655 -0.3986
  588MOL0     C79287   2.550   1.550   9.077 -0.7476 -0.1108  0.7408
  588MOL0     C79288   2.691   1.561   9.151 -0.2813  0.1751  0.7295
  588MOL0     C79289   2.739   1.451   9.233 -0.4530 -0.2993 -0.5068
  588MOL0    Cl79290   2.637   1.435   9.380  0.0906  0.1171  0.5980
  588MOL0     C79291   1.995   2.093   8.647  0.5238  0.1670  0.3611
  588MOL0     C79292   1.943   2.222   8.637  0.3830 -0.5599  0.5672
  588MOL0     O79293   1.644   2.310   8.617  0.0384 -0.5429 -0.1500
  588MOL0     C79294   1.736   2.646   8.662 -0.4692  0.1965 -0.8123
  588MOL0     C79295   1.698   2.783   8.652  0.2326  0.2434 -1.6007
  588MOL0     N79296   1.598   3.472   8.304  0.5568 -0.2987 -0.4242
  588MOL0     N79297   1.527   3.562   8.369  0.4751 -0.0140  1.3292
  588MOL0     C79298   0.234   3.326   8.470 -0.7440 -0.8137 -0.2658
  588MOL0     C79299   0.138   3.224   8.491 -0.0966 -0.0998  0.1484
  588MOL0     C79300  -0.016   2.806   8.419  0.4233 -0.7275 -0.5705
  588MOL0     C79301   0.027   2.727   8.525  0.6575  0.0986 -0.3073
  588MOL0     C79302  -0.027   2.591   8.533 -1.0211 -0.0463  0.9695
  588MOL0     C79303  -0.083   2.530   8.425 -0.1073  0.1222 -0.3128
  588MOL0     O79304  -0.124   2.398   8.429 -0.3470 -0.4033 -0.3668
  588MOL0     C79305  -0.139   2.329   8.557 -0.2269  0.4612  0.5691
  588MOL0     C79306  -0.190   2.188   8.524  0.2225  0.0013  0.6875
  588MOL0     C79307  -0.330   2.191   8.463  0.2982 -0.2919 -0.9123
  588MOL0     C79308  -0.427   2.199   8.574  0.7117  0.7800  0.5328
  588MOL0     C79309  -0.565   2.153   8.535  0.0720  0.1409  0.6183
  588MOL0     C79310  -0.665   2.121   8.485  0.0580 -0.4200 -0.0800
  588MOL0     C79311  -0.105   2.604   8.314 -0.0094 -0.0253  0.3292
  588MOL0     C79312  -0.082   2.744   8.304 -0.9562 -0.9357  0.0567
  588MOL0     H79313   0.331   2.963   8.564  1.6190  0.4617  2.4388
  588MOL0     H79314   0.517   3.136   8.529  1.0861  4.2378  1.1708
  588MOL0     H79315   0.408   3.529   8.393 -1.2565 -1.3619  0.4737
  588MOL0     H79316   0.416   3.556   8.562 -3.2250  0.9988 -1.8454
  588MOL0     H79317   0.666   3.534   8.382  1.5931 -0.1991  0.7338
  588MOL0     H79318   0.588   3.685   8.446 -3.3744  0.5578  3.7167
  588MOL0     H79319   0.628   3.650   8.657 -3.1226  0.4357 -2.3935
  588MOL0     H79320   0.712   3.490   8.645  0.5071  0.8790  1.1496
  588MOL0     H79321   0.818   3.752   8.538 -1.2349 -0.1328 -1.6148
  588MOL0     H79322   0.869   3.674   8.681  2.1800  3.6096 -2.1160
  588MOL0     H79323   0.922   3.453   8.548  0.5474 -1.5419 -4.5036
  588MOL0     H79324   0.894   3.538   8.400 -1.6627  2.4229  1.3130
  588MOL0     H79325   1.073   3.715   8.471 -1.0521  0.8332  1.2430
  588MOL0     H79326   1.083   3.623   8.614 -0.0281 -2.0917 -0.2021
  588MOL0     H79327   1.135   3.423   8.460 -0.2389  0.5223 -1.9064
  588MOL0     H79328   1.141   3.539   8.325  1.8556  2.5882  0.1098
  588MOL0     H79329   1.332   3.528   8.565 -1.6539 -6.6560 -2.6345
  588MOL0     H79330   1.301   3.677   8.468 -2.8452  0.5549  0.0949
  588MOL0     H79331   1.299   3.321   8.292  1.2927 -1.7901  2.2763
  588MOL0     H79332   1.523   3.251   8.096 -0.8733  2.2185  0.1090
  588MOL0     H79333   1.667   3.231   8.214 -0.1992 -1.7013  0.4679
  588MOL0     H79334   1.542   3.035   8.189 -0.0978 -0.2750 -1.0688
  588MOL0     H79335   1.392   3.112   8.233  0.7843  0.5328  0.1943
  588MOL0     H79336   1.498   3.191   8.461 -1.0679 -1.8476  2.6276
  588MOL0     H79337   1.635   3.087   8.422 -0.5107  3.5247  1.0670
  588MOL0     H79338   1.481   2.893   8.394 -1.4956  0.1770 -1.3314
  588MOL0     H79339   1.369   2.983   8.504  0.2785  0.9795 -1.1016
  588MOL0     H79340   1.383   2.724   8.528 -0.1551 -1.0210 -1.5175
  588MOL0     H79341   1.443   2.384   8.483  1.0563  0.7325 -0.3581
  588MOL0     H79342   1.355   2.424   8.630  0.9511  3.2988  3.2542
  588MOL0     H79343   1.338   2.521   8.485 -1.9941 -1.0834  1.4082
  588MOL0     H79344   1.863   2.254   8.974 -0.4915 -1.3433  0.5700
  588MOL0     H79345   1.974   2.051   8.987  3.7052  0.2329  0.2938
  588MOL0     H79346   2.059   1.821   8.613 -1.0182  3.6212  0.7953
  588MOL0     H79347   2.199   1.924   8.640 -1.5502 -0.4342 -3.2030
  588MOL0     H79348   2.145   1.666   8.779  0.7551 -2.1153 -0.6865
  588MOL0     H79349   2.272   1.680   8.650  2.7072 -3.3462  3.2620
  588MOL0     H79350   2.291   1.836   8.926 -0.0912  0.8512  0.7436
  588MOL0     H79351   2.411   1.834   8.790 -0.1060 -1.1291 -0.4829
  588MOL0     H79352   2.339   1.581   8.908  0.4636 -1.1553  0.6508
  588MOL0     H79353   2.484   1.620   8.819 -0.7332  1.2237 -1.1939
  588MOL0     H79354   2.406   1.710   9.105 -2.2081 -2.5224 -0.7762
  588MOL0     H79355   2.567   1.751   9.024 -1.5980  1.3413 -0.6853
  588MOL0     H79356   2.466   1.500   9.128 -0.7866  1.4250  2.2727
  588MOL0     H79357   2.564   1.498   8.981 -2.1979  2.2539 -0.8400
  588MOL0     H79358   2.689   1.649   9.216  0.5367  0.5491  0.2542
  588MOL0     H79359   2.759   1.576   9.067 -2.6131 -3.6015 -2.1351
  588MOL0     H79360   2.842   1.479   9.254 -0.9903  1.7390 -0.4411
  588MOL0     H79361   2.742   1.355   9.180  0.7447 -0.6330  0.1358
  588MOL0     H79362   2.004   2.039   8.553  2.3602  1.4689 -0.2596
  588MOL0     H79363   1.928   2.278   8.545 -3.6764  1.1329  2.0123
  588MOL0     H79364   1.823   2.624   8.723  0.0164 -1.3377 -2.0024
  588MOL0     H79365   1.757   2.869   8.683 -0.2843  0.4640 -1.2223
  588MOL0     H79366   0.226   3.433   8.453  3.0260 -0.7469 -2.8175
  588MOL0     H79367   0.030   3.235   8.488 -0.0058  0.7219 -1.4350
  588MOL0     H79368   0.086   2.747   8.613 -1.0213 -1.2566  1.2270
  588MOL0     H79369   0.009   2.532   8.617 -2.3877  0.0680  1.6664
  588MOL0     H79370  -0.048   2.324   8.617  1.1694 -2.1943 -1.5323
  588MOL0     H79371  -0.219   2.378   8.614 -1.7691 -1.6857  0.3909
  588MOL0     H79372  -0.185   2.123   8.612  0.6102  0.3941  0.9631
  588MOL0     H79373  -0.120   2.152   8.448 -0.4529 -0.3448  0.2257
  588MOL0     H79374  -0.352   2.100   8.406  0.5503 -0.7075 -0.3458
  588MOL0     H79375  -0.331   2.273   8.390 -1.2301 -0.2285 -0.8592
  588MOL0     H79376  -0.420   2.293   8.631 -3.5870  2.3361 -1.0864
  588MOL0     H79377  -0.409   2.126   8.654  0.2527  2.0115  1.8198
  588MOL0     H79378  -0.749   2.080   8.433 -0.9862  0.7665  0.6281
  588MOL0     H79379  -0.150   2.556   8.227 -1.7418  1.0599  0.5864
  588MOL0     H79380  -0.109   2.798   8.214  2.7783  2.6723  0.7613
  589MOL0     O79381   1.885   5.254  10.870 -0.0708 -0.2820 -0.3932
  589MOL0     C79382   1.880   5.290  10.986  0.5823  0.2538 -0.0691
  589MOL0     O79383   1.772   5.287  11.073 -0.2328 -0.6601  1.4081
  589MOL0     C79384   1.645   5.270  11.024  0.9981 -1.5193 -0.0149
  589MOL0     C79385   1.598   5.191  10.915 -0.6330 -0.3678 -1.2072
  589MOL0     C79386   1.468   5.185  10.879 -0.0636 -0.5721 -0.3942
  589MOL0     C79387   1.372   5.263  10.956  0.7869 -0.9097 -0.4642
  589MOL0     O79388   1.237   5.251  10.928 -0.0798  0.1237  0.0303
  589MOL0     C79389   1.173   5.378  10.895  0.7377  0.4866  0.7315
  589MOL0     C79390   1.163   5.397  10.745  0.5925  1.0108 -1.0802
  589MOL0     C79391   1.049   5.323  10.678  0.6202 -0.0115 -0.6491
  589MOL0     C79392   1.020   5.362  10.531  0.1960 -0.8338 -0.3849
  589MOL0     C79393   0.945   5.254  10.451  0.5580  0.5903 -0.2229
  589MOL0     C79394   1.035   5.130  10.407  0.7570 -0.1939  1.5013
  589MOL0     C79395   0.941   5.022  10.363  0.4114  0.5031 -0.6130
  589MOL0     C79396   0.870   5.041  10.230  0.6632  0.0202  1.0054
  589MOL0     N79397   0.755   4.961  10.204 -0.1388 -0.0026 -0.3888
  589MOL0     C79398   0.635   4.975  10.270 -0.6952 -0.2992  0.3462
  589MOL0     C79399   0.559   4.873  10.241  1.4473  0.0903 -0.2896
  589MOL0     C79400   0.417   4.845  10.279  0.3685  0.0034 -0.3916
  589MOL0     C79401   0.327   4.977  10.270 -0.4016 -0.0281  0.6841
  589MOL0     C79402   0.187   4.932  10.229  0.3369 -0.0994  0.4758
  589MOL0     C79403   0.094   5.054  10.236 -0.3462  0.2004  0.2827
  589MOL0     O79404  -0.006   5.054  10.120  0.1519  0.8305  0.9799
  589MOL0     C79405  -0.105   4.956  10.118 -0.2838 -0.1726  0.1782
  589MOL0     C79406  -0.157   4.913   9.996 -0.0232 -0.1224 -0.1485
  589MOL0     C79407  -0.247   4.804   9.986 -0.1810  0.1270  0.9548
  589MOL0     C79408  -0.288   4.767   9.836  0.0101 -0.6653  0.7677
  589MOL0     C79409  -0.281   4.732  10.098  0.3373 -0.0215 -0.3204
  589MOL0     C79410  -0.358   4.600  10.093 -0.2714 -0.4191  0.0701
  589MOL0     O79411  -0.441   4.569  10.199  0.3435 -0.8377 -0.6204
  589MOL0     C79412  -0.528   4.460  10.178 -0.1956  0.1653 -0.6286
  589MOL0     C79413  -0.479   4.327  10.169 -1.0552  0.1208 -0.9210
  589MOL0     C79414  -0.569   4.218  10.157  0.2637 -0.8565 -0.8207
  589MOL0     C79415  -0.707   4.235  10.161 -0.0493 -0.9264  0.8092
  589MOL0     O79416  -0.803   4.132  10.147  0.2897 -0.4097  1.3904
  589MOL0     C79417  -0.776   4.025  10.054 -0.0913 -0.1170 -0.7342
  589MOL0     C79418  -0.901   3.963   9.990  0.5562 -0.3558  0.1804
  589MOL0     C79419  -0.973   4.051   9.895 -1.1868  0.7550  0.0777
  589MOL0     C79420  -1.117   3.982   9.863 -0.2529 -0.6232 -0.1771
  589MOL0     C79421  -1.190   4.047   9.746  0.4792 -0.3778  1.3541
  589MOL0     C79422  -1.338   4.001   9.736  0.6162  0.7020  0.5024
  589MOL0     C79423  -1.392   4.002   9.595 -0.3027 -0.9738  1.2266
  589MOL0     C79424  -1.545   4.005   9.600  0.0165 -0.5109  0.3022
  589MOL0    Cl79425  -1.610   4.148   9.695 -0.0185 -0.4721  0.4556
  589MOL0     C79426  -0.752   4.365  10.166 -0.5501  0.1150  0.5628
  589MOL0     C79427  -0.667   4.473  10.171  0.2314 -0.2830 -0.2299
  589MOL0     O79428  -0.348   4.531   9.991 -0.1069  0.2391 -0.2050
  589MOL0     C79429  -0.226   4.773  10.225  0.3858  0.1030  0.3917
  589MOL0     C79430  -0.144   4.885  10.236 -0.1052  0.1118 -0.0332
  589MOL0     N79431   0.627   4.787  10.156 -0.3720  0.2148  0.6417
  589MOL0     N79432   0.740   4.846  10.135 -0.4548  0.1681 -0.5549
  589MOL0     C79433   1.421   5.357  11.054  0.4272  0.3187  0.2178
  589MOL0     C79434   1.562   5.353  11.088  0.1276  0.6717  0.3527
  589MOL0     C79435   2.003   5.340  11.030 -0.7126  0.0615  0.3694
  589MOL0     C79436   2.128   5.296  11.000  0.3225  0.0302 -0.1936
  589MOL0     C79437   2.243   5.366  11.042 -0.9235 -0.3296 -0.9630
  589MOL0     C79438   2.232   5.487  11.109 -0.5724  0.2842 -0.4636
  589MOL0     O79439   2.336   5.540  11.180  0.0786  0.7126 -0.0184
  589MOL0     C79440   2.475   5.479  11.190  0.9389 -0.0557 -0.1368
  589MOL0     C79441   2.547   5.502  11.063 -1.3323 -1.0787 -0.3384
  589MOL0     C79442   2.702   5.488  11.077 -0.0825  1.1641  1.0568
  589MOL0     C79443   2.778   5.587  11.161 -1.0350  0.4952  0.1190
  589MOL0     C79444   2.749   5.733  11.132 -0.8672 -0.0559  0.6133
  589MOL0     C79445   2.713   5.842  11.112 -1.4448  0.5798 -0.0418
  589MOL0     C79446   2.106   5.526  11.134  0.7438  0.4831 -0.6408
  589MOL0     C79447   1.990   5.459  11.101  0.7948 -0.4025  0.3633
  589MOL0     H79448   1.679   5.132  10.871  0.1226 -0.3352  0.0780
  589MOL0     H79449   1.438   5.124  10.795  0.2288 -1.6776  0.2851
  589MOL0     H79450   1.070   5.386  10.930  1.0509  1.8567  1.4227
  589MOL0     H79451   1.228   5.463  10.937 -0.4344  1.4475  0.3681
  589MOL0     H79452   1.154   5.505  10.731  1.7342  1.4941  1.4111
  589MOL0     H79453   1.255   5.358  10.700  0.5795 -0.3870  0.0228
  589MOL0     H79454   1.074   5.217  10.670  2.8177  0.4817 -0.7532
  589MOL0     H79455   0.954   5.321  10.733  0.5293  1.7859 -0.7054
  589MOL0     H79456   0.969   5.458  10.521  2.6252  0.3102 -4.3188
  589MOL0     H79457   1.114   5.371  10.475  0.1773 -5.8345 -1.7290
  589MOL0     H79458   0.847   5.228  10.495  0.5018 -2.2903 -1.8198
  589MOL0     H79459   0.917   5.298  10.355 -1.0397 -0.7314 -0.4061
  589MOL0     H79460   1.109   5.156  10.331  0.3596  0.5624  1.3602
  589MOL0     H79461   1.098   5.106  10.493  0.1810  1.4358  2.4227
  589MOL0     H79462   0.997   4.930  10.345 -1.4295 -0.7044 -0.4556
  589MOL0     H79463   0.873   5.001  10.446 -2.1728  3.1640 -1.8682
  589MOL0     H79464   0.942   5.020  10.150  0.4339  0.1484  0.7673
  589MOL0     H79465   0.830   5.142  10.225  0.8321  0.0608  0.4177
  589MOL0     H79466   0.614   5.053  10.342  1.6450  0.5618  0.1998
  589MOL0     H79467   0.389   4.770  10.204  1.1504 -2.1607  1.3697
  589MOL0     H79468   0.416   4.807  10.382  2.9714  4.1758  1.4305
  589MOL0     H79469   0.379   5.038  10.196 -0.2106 -3.5186 -2.3708
  589MOL0     H79470   0.322   5.022  10.370  1.1350  0.9543  0.3403
  589MOL0     H79471   0.154   4.865  10.309 -4.3436  0.8147 -0.4097
  589MOL0     H79472   0.190   4.898  10.126 -0.5180  1.3000 -0.0397
  589MOL0     H79473   0.161   5.140  10.240 -0.2403  0.1234  4.4347
  589MOL0     H79474   0.049   5.052  10.335 -2.3538  0.7651 -0.5681
  589MOL0     H79475  -0.119   4.956   9.903 -1.7628  0.9520 -0.4182
  589MOL0     H79476  -0.394   4.782   9.818  0.6196  0.5216 -2.4834
  589MOL0     H79477  -0.249   4.838   9.763 -4.4073 -0.7745 -2.0444
  589MOL0     H79478  -0.273   4.665   9.802 -1.4996  0.3211 -3.4487
  589MOL0     H79479  -0.372   4.314  10.183 -1.3888 -1.4998  0.5121
  589MOL0     H79480  -0.532   4.117  10.174  0.5533 -0.1962  3.8246
  589MOL0     H79481  -0.697   4.046   9.982  0.5978  1.2661  0.3798
  589MOL0     H79482  -0.734   3.943  10.112 -0.4768 -0.2229 -0.6006
  589MOL0     H79483  -0.879   3.866   9.945 -0.1541 -0.1886 -0.5531
  589MOL0     H79484  -0.978   3.942  10.064 -2.5813  2.4873 -1.9730
  589MOL0     H79485  -0.922   4.066   9.800  0.3498 -0.7870  0.5963
  589MOL0     H79486  -0.997   4.148   9.940  0.5332  1.7265 -1.0080
  589MOL0     H79487  -1.101   3.878   9.833  1.1859 -1.2734  2.5156
  589MOL0     H79488  -1.168   3.985   9.959  3.6780  1.0101  2.1265
  589MOL0     H79489  -1.130   4.020   9.659  0.2495  1.7768  0.4611
  589MOL0     H79490  -1.198   4.156   9.752 -0.7288 -0.3880  0.3910
  589MOL0     H79491  -1.349   3.900   9.776 -0.6208  0.9667  0.9005
  589MOL0     H79492  -1.391   4.072   9.801 -0.5645  0.7822 -0.5241
  589MOL0     H79493  -1.367   3.909   9.543  3.1143  0.4344  0.0988
  589MOL0     H79494  -1.349   4.090   9.547 -1.0017 -1.0792  0.3866
  589MOL0     H79495  -1.575   3.907   9.639 -0.1468 -1.2394 -1.5630
  589MOL0     H79496  -1.586   4.021   9.500  1.0301  5.0244  0.5038
  589MOL0     H79497  -0.859   4.377  10.182 -0.3674  2.8993  0.2770
  589MOL0     H79498  -0.720   4.565  10.190  0.5811 -0.5059  2.0111
  589MOL0     H79499  -0.275   4.729  10.311 -1.3896  1.5401  0.1645
  589MOL0     H79500  -0.119   4.906  10.340 -1.4887  0.4704  0.2509
  589MOL0     H79501   1.349   5.399  11.123  1.4195 -1.1684  2.2354
  589MOL0     H79502   1.613   5.420  11.157 -1.4417  0.9800  1.2686
  589MOL0     H79503   2.132   5.212  10.932  2.4173  1.5992 -2.1794
  589MOL0     H79504   2.343   5.325  11.027 -0.7221  0.0722 -0.7197
  589MOL0     H79505   2.537   5.521  11.270  1.3215 -2.2131  0.7668
  589MOL0     H79506   2.465   5.374  11.218  1.5310  0.3439  1.7165
  589MOL0     H79507   2.527   5.602  11.025  0.5242 -0.8632 -0.8737
  589MOL0     H79508   2.509   5.433  10.987 -1.1904 -0.4401 -1.0057
  589MOL0     H79509   2.741   5.487  10.975  2.8261 -2.9090  1.9577
  589MOL0     H79510   2.708   5.385  11.113 -3.1981 -0.0818 -1.4549
  589MOL0     H79511   2.885   5.568  11.144 -0.5738  2.9729 -0.0068
  589MOL0     H79512   2.769   5.549  11.263  1.2468 -1.6357 -0.3737
  589MOL0     H79513   2.712   5.945  11.080  2.1927  1.9822  3.4610
  589MOL0     H79514   2.093   5.620  11.188 -0.1286 -0.3040  0.5752
  589MOL0     H79515   1.899   5.509  11.131  1.3645 -0.9053  3.1815
  590MOL0     O79516   7.889   5.706  10.954 -0.7768  0.4346  0.2409
  590MOL0     C79517   7.780   5.697  10.901 -0.4423 -0.9877  0.2149
  590MOL0     O79518   7.752   5.658  10.767  0.3851  0.3118 -0.5582
  590MOL0     C79519   7.855   5.678  10.671  0.4511  0.6899 -0.2799
  590MOL0     C79520   7.884   5.573  10.579 -0.3300  0.1621  0.9763
  590MOL0     C79521   7.977   5.594  10.471  0.4797  0.1525 -0.6628
  590MOL0     C79522   8.045   5.715  10.468 -0.3556  0.5176  0.7388
  590MOL0     O79523   8.126   5.721  10.361  1.0659 -0.2551 -0.4368
  590MOL0     C79524   8.075   5.811  10.263  0.5776 -0.8117 -0.6523
  590MOL0     C79525   7.985   5.747  10.158  1.0528 -0.1182  0.2165
  590MOL0     C79526   8.025   5.608  10.097  0.1858  1.0062  0.0147
  590MOL0     C79527   8.159   5.586  10.022  1.4135  0.3029  0.6542
  590MOL0     C79528   8.147   5.470   9.919 -0.8266 -0.2037 -0.0664
  590MOL0     C79529   8.284   5.469   9.841 -0.1292  0.5353 -0.5826
  590MOL0     C79530   8.278   5.351   9.745 -0.0517  0.2582  0.0848
  590MOL0     C79531   8.385   5.243   9.766  0.6102  0.2658 -0.4114
  590MOL0     N79532   8.323   5.134   9.840 -0.2746  0.7748  0.0215
  590MOL0     C79533   8.282   5.016   9.782 -0.5714  0.0400 -1.3137
  590MOL0     C79534   8.198   4.966   9.867  0.7930 -0.1802 -0.2464
  590MOL0     C79535   8.107   4.848   9.860 -0.8077  0.3535 -0.1635
  590MOL0     C79536   7.958   4.884   9.884  0.7237  0.0263 -0.3982
  590MOL0     C79537   7.880   4.766   9.840  0.3059 -0.2937 -0.5003
  590MOL0     C79538   7.834   4.767   9.687 -0.7417  0.3903 -0.0743
  590MOL0     O79539   7.794   4.645   9.621 -1.3780  0.5328 -0.1345
  590MOL0     C79540   7.740   4.658   9.494 -0.9089 -1.4399  0.5620
  590MOL0     C79541   7.782   4.581   9.379  0.8876  0.4350  0.0861
  590MOL0     C79542   7.730   4.607   9.250 -0.1292  0.8560 -0.4863
  590MOL0     C79543   7.780   4.511   9.142  0.5314 -0.0006 -0.1905
  590MOL0     C79544   7.637   4.706   9.229 -0.6751  0.2814  0.6201
  590MOL0     C79545   7.579   4.744   9.103  0.3871  0.3221  0.3964
  590MOL0     O79546   7.498   4.857   9.108 -0.2408 -0.2939  0.0371
  590MOL0     C79547   7.419   4.910   9.009  0.9288  0.8246 -0.1799
  590MOL0     C79548   7.440   5.044   8.965 -0.0594 -0.4311  0.1593
  590MOL0     C79549   7.349   5.111   8.875 -0.7269  0.6870 -0.4356
  590MOL0     C79550   7.255   5.029   8.818 -0.6283  0.3064  0.4044
  590MOL0     O79551   7.170   5.067   8.714 -0.5713 -0.9993 -0.1292
  590MOL0     C79552   7.233   5.113   8.589 -0.4977  0.0431  0.5387
  590MOL0     C79553   7.309   4.995   8.532  0.1943  0.0790 -0.1572
  590MOL0     C79554   7.348   4.990   8.381  0.4441 -0.3603 -0.0045
  590MOL0     C79555   7.425   5.123   8.355  0.8878  0.9444  0.5573
  590MOL0     C79556   7.501   5.114   8.223 -0.1187 -0.5776 -0.3384
  590MOL0     C79557   7.404   5.136   8.105  0.4381 -0.2176 -0.3054
  590MOL0     C79558   7.470   5.203   7.987 -0.4492 -0.3861 -0.1837
  590MOL0     C79559   7.362   5.263   7.914  0.1853 -1.0650 -0.3738
  590MOL0    Cl79560   7.425   5.309   7.746  0.1411 -0.5112 -0.0619
  590MOL0     C79561   7.228   4.901   8.864 -0.4382  0.9789 -0.1756
  590MOL0     C79562   7.312   4.843   8.954  0.8821  0.2180 -0.0243
  590MOL0     O79563   7.587   4.665   9.007 -0.3071 -0.2889  0.0600
  590MOL0     C79564   7.584   4.774   9.346 -0.1883  0.1589  0.4989
  590MOL0     C79565   7.640   4.751   9.473  0.3003  0.2871 -0.3762
  590MOL0     N79566   8.187   5.050   9.976  0.0395  0.9159 -0.1454
  590MOL0     N79567   8.272   5.142   9.961 -0.2875 -0.3779  0.1898
  590MOL0     C79568   8.019   5.812  10.568 -0.5127  0.1928  0.7045
  590MOL0     C79569   7.929   5.792  10.671  0.1185  0.0226  0.3598
  590MOL0     C79570   7.660   5.703  10.994 -0.3642  0.2833 -1.3319
  590MOL0     C79571   7.649   5.786  11.120  0.9724  0.5615  0.5214
  590MOL0     C79572   7.528   5.778  11.193 -0.8843  0.5406  0.4598
  590MOL0     C79573   7.413   5.697  11.157  0.3239 -0.6493  0.2116
  590MOL0     O79574   7.301   5.688  11.234  0.1797 -0.0177 -0.0050
  590MOL0     C79575   7.239   5.561  11.264 -0.0530  0.6338  0.2290
  590MOL0     C79576   7.265   5.520  11.414 -0.3893 -1.1923  0.3501
  590MOL0     C79577   7.190   5.611  11.509 -0.7226 -0.5542  0.5031
  590MOL0     C79578   7.032   5.611  11.511 -0.5332  0.0461 -0.1827
  590MOL0     C79579   6.989   5.481  11.553  0.7650  0.1071  0.2949
  590MOL0     C79580   6.950   5.372  11.598  0.4603  0.0573 -0.1697
  590MOL0     C79581   7.425   5.629  11.037 -0.2521 -0.5011  0.7890
  590MOL0     C79582   7.542   5.626  10.951  0.4907 -0.0606 -0.1109
  590MOL0     H79583   7.841   5.473  10.582  0.4995 -0.2215  3.6638
  590MOL0     H79584   7.994   5.518  10.395 -0.7583  1.7032 -2.6123
  590MOL0     H79585   8.026   5.891  10.319 -0.1767 -0.8982 -1.1756
  590MOL0     H79586   8.159   5.856  10.209 -1.0748  5.5329  1.2497
  590MOL0     H79587   7.887   5.725  10.202  0.6635 -0.9949 -1.0348
  590MOL0     H79588   7.965   5.807  10.068  3.2583  1.9906  1.0162
  590MOL0     H79589   8.018   5.528  10.171  0.2815  1.3765  0.4317
  590MOL0     H79590   7.946   5.596  10.022  1.3028 -0.7244 -0.9509
  590MOL0     H79591   8.198   5.677   9.975  0.2539  0.7938  0.6138
  590MOL0     H79592   8.235   5.556  10.095  1.4762  2.0418  1.3563
  590MOL0     H79593   8.123   5.378   9.973  0.3061  0.2034  1.1929
  590MOL0     H79594   8.066   5.494   9.850 -2.1933  0.7434  1.7893
  590MOL0     H79595   8.293   5.558   9.777  1.4677 -2.5815 -5.2191
  590MOL0     H79596   8.373   5.458   9.902  1.3624  0.6577 -2.6274
  590MOL0     H79597   8.183   5.296   9.752 -0.5635  1.1137 -0.0264
  590MOL0     H79598   8.287   5.387   9.642  0.1116 -1.7710 -0.6745
  590MOL0     H79599   8.467   5.284   9.826  0.4146  3.4221 -2.1153
  590MOL0     H79600   8.431   5.207   9.673  0.0402 -0.0242 -0.5870
  590MOL0     H79601   8.304   4.982   9.682 -3.2336 -2.3230 -1.2124
  590MOL0     H79602   8.108   4.812   9.757 -0.7721  0.7749 -0.3117
  590MOL0     H79603   8.136   4.766   9.926  0.8533  0.8042 -0.2912
  590MOL0     H79604   7.929   4.969   9.821 -1.1301 -1.3639 -1.5371
  590MOL0     H79605   7.940   4.903   9.990  1.9257  2.7140 -0.5918
  590MOL0     H79606   7.787   4.764   9.898 -0.2917  1.6468 -1.3071
  590MOL0     H79607   7.928   4.671   9.864  2.6359  0.6091 -1.3117
  590MOL0     H79608   7.913   4.806   9.622 -2.0911  0.1087 -1.9535
  590MOL0     H79609   7.749   4.836   9.683 -1.9946 -1.1601 -2.9269
  590MOL0     H79610   7.849   4.500   9.405 -0.8421 -0.5255  1.8506
  590MOL0     H79611   7.696   4.460   9.093  0.8125 -0.3211 -0.3463
  590MOL0     H79612   7.832   4.574   9.069  0.4173 -0.3199 -0.5530
  590MOL0     H79613   7.846   4.441   9.193  2.0977  1.1591 -0.5605
  590MOL0     H79614   7.519   5.104   9.009 -0.2320  0.6375 -0.9479
  590MOL0     H79615   7.375   5.209   8.839 -0.4249  0.4544 -0.8541
  590MOL0     H79616   7.160   5.158   8.521  1.7891  0.1932 -1.9556
  590MOL0     H79617   7.298   5.197   8.614 -0.2815  0.4658 -1.2961
  590MOL0     H79618   7.398   4.985   8.595  0.0855 -1.4943 -0.2117
  590MOL0     H79619   7.257   4.900   8.549 -2.8476  1.5916 -0.3350
  590MOL0     H79620   7.261   5.011   8.318  2.0833  0.0489 -2.2249
  590MOL0     H79621   7.408   4.903   8.352  2.1473  0.9856 -0.7196
  590MOL0     H79622   7.378   5.222   8.350  3.8970  2.4376 -0.9112
  590MOL0     H79623   7.500   5.145   8.432 -0.1727  2.2962  1.2650
  590MOL0     H79624   7.565   5.025   8.221  2.4212  1.0771  1.3826
  590MOL0     H79625   7.570   5.198   8.216 -1.2192  0.2904 -1.0778
  590MOL0     H79626   7.374   5.037   8.070  0.8740 -1.0523  1.5319
  590MOL0     H79627   7.323   5.201   8.138  1.4673 -0.1607  2.4135
  590MOL0     H79628   7.516   5.129   7.922 -2.4613 -2.2571  0.3747
  590MOL0     H79629   7.536   5.281   8.025 -3.2028  1.1459  1.8987
  590MOL0     H79630   7.331   5.354   7.964 -1.4017 -1.3573 -0.7731
  590MOL0     H79631   7.277   5.194   7.911 -0.2799 -0.5096 -0.0525
  590MOL0     H79632   7.153   4.840   8.815  1.4742 -1.1344 -0.6929
  590MOL0     H79633   7.286   4.742   8.981 -1.7982  0.2226 -2.1605
  590MOL0     H79634   7.510   4.853   9.352 -2.1000 -1.6126  2.2011
  590MOL0     H79635   7.594   4.808   9.553  0.0425  2.2087 -1.8231
  590MOL0     H79636   8.071   5.907  10.571  2.2300 -1.2082  3.8100
  590MOL0     H79637   7.899   5.860  10.750 -2.2814 -1.5716  0.9311
  590MOL0     H79638   7.727   5.858  11.140 -0.4355  2.8330 -1.5924
  590MOL0     H79639   7.524   5.826  11.290 -0.3863  0.5946  0.4580
  590MOL0     H79640   7.135   5.591  11.244 -0.3667 -0.0077  0.8531
  590MOL0     H79641   7.274   5.482  11.196  1.8959  1.5711  0.0839
  590MOL0     H79642   7.372   5.536  11.429 -0.4966  0.8582 -0.7328
  590MOL0     H79643   7.239   5.415  11.433  1.8323 -1.7886  0.4001
  590MOL0     H79644   7.228   5.714  11.508 -2.8116  0.2812  1.5831
  590MOL0     H79645   7.219   5.577  11.609 -1.1185 -2.7109 -0.0655
  590MOL0     H79646   6.999   5.633  11.409  1.8611 -0.0438 -1.0237
  590MOL0     H79647   6.999   5.687  11.583 -0.3520 -1.9873  2.1449
  590MOL0     H79648   6.924   5.278  11.643  0.7948  0.3009  0.5456
  590MOL0     H79649   7.337   5.581  10.996 -0.8735 -0.3481  1.8933
  590MOL0     H79650   7.523   5.584  10.853  0.9501  0.0647 -0.2559
  591MOL0     O79651  10.448   9.117   8.904  0.0493 -0.5591  0.0464
  591MOL0     C79652  10.472   9.055   8.802  0.0427 -0.3440 -0.3052
  591MOL0     O79653  10.547   8.941   8.792 -0.8885  0.1564  0.5160
  591MOL0     C79654  10.595   8.860   8.893  0.0405 -0.4245  0.7956
  591MOL0     C79655  10.735   8.845   8.898 -0.5948 -0.9507  0.0292
  591MOL0     C79656  10.781   8.760   9.003 -0.0022 -0.0396  0.0828
  591MOL0     C79657  10.705   8.691   9.096  0.9102 -0.5038  0.7349
  591MOL0     O79658  10.774   8.626   9.198  0.1074 -0.3725  0.1275
  591MOL0     C79659  10.683   8.560   9.295  0.4166  1.1955  0.3452
  591MOL0     C79660  10.778   8.467   9.380  0.0133 -0.3895  0.2967
  591MOL0     C79661  10.735   8.315   9.376 -0.0720  0.0589 -0.2248
  591MOL0     C79662  10.610   8.298   9.475  0.2515  0.2362 -0.3551
  591MOL0     C79663  10.558   8.153   9.506  0.5669 -0.1020 -0.5033
  591MOL0     C79664  10.483   8.092   9.388 -0.3818 -0.3147 -0.5669
  591MOL0     C79665  10.455   7.948   9.438  1.1013 -0.4754  0.8089
  591MOL0     C79666  10.352   7.891   9.342 -0.2354 -0.5234 -0.4199
  591MOL0     N79667  10.289   7.763   9.373 -0.0434  0.6258  0.2422
  591MOL0     C79668  10.346   7.660   9.446  0.4044 -0.3505  0.4604
  591MOL0     C79669  10.239   7.577   9.466  0.3577  0.6338  0.0225
  591MOL0     C79670  10.259   7.443   9.529 -0.0098 -0.4387 -0.7975
  591MOL0     C79671  10.309   7.352   9.416  0.5138  0.3366 -0.4543
  591MOL0     C79672  10.194   7.301   9.321 -0.0529 -0.8400 -0.3374
  591MOL0     C79673  10.169   7.146   9.309  0.4300 -0.1618  0.3467
  591MOL0     O79674  10.292   7.079   9.275  0.2521  0.0756 -0.0670
  591MOL0     C79675  10.285   6.946   9.283  0.0746  0.1755 -0.0239
  591MOL0     C79676  10.176   6.866   9.244 -0.6397  1.1501 -0.2666
  591MOL0     C79677  10.186   6.724   9.263 -0.6713  0.7643  0.5026
  591MOL0     C79678  10.064   6.646   9.224 -0.1858 -0.2548  0.5608
  591MOL0     C79679  10.313   6.667   9.296 -0.5710 -0.6555 -0.1649
  591MOL0     C79680  10.336   6.522   9.311 -0.2445  1.0462  0.8362
  591MOL0     O79681  10.448   6.461   9.249 -0.2436 -0.1954  1.0885
  591MOL0     C79682  10.462   6.328   9.239  0.2503 -0.2041 -0.1639
  591MOL0     C79683  10.426   6.235   9.341 -0.0819  0.6782 -1.3190
  591MOL0     C79684  10.446   6.100   9.322 -0.5355  0.0403 -0.6781
  591MOL0     C79685  10.504   6.050   9.202  0.2032  0.1996 -0.3049
  591MOL0     O79686  10.520   5.915   9.190 -0.0354  0.1754 -0.8506
  591MOL0     C79687  10.598   5.863   9.082 -0.4680  0.1264 -0.8081
  591MOL0     C79688  10.604   5.708   9.113 -1.0837 -0.0072  1.0903
  591MOL0     C79689  10.655   5.665   9.255  0.5238  0.2204  1.1195
  591MOL0     C79690  10.636   5.518   9.266  0.3939  0.9293 -0.4348
  591MOL0     C79691  10.725   5.410   9.192  0.5301 -1.0294 -0.2083
  591MOL0     C79692  10.694   5.274   9.237 -0.4057  0.1178  0.4351
  591MOL0     C79693  10.771   5.166   9.165  0.6505 -0.5287 -0.2259
  591MOL0     C79694  10.725   5.026   9.213 -1.3302  0.3605  0.1334
  591MOL0    Cl79695  10.551   5.001   9.195 -0.2453 -0.1251 -0.0382
  591MOL0     C79696  10.535   6.145   9.100 -0.2677  0.6838 -0.6584
  591MOL0     C79697  10.505   6.277   9.115  0.2658 -0.2986  0.3277
  591MOL0     O79698  10.245   6.455   9.366 -0.4074  0.4633 -0.0997
  591MOL0     C79699  10.423   6.752   9.316  0.1497 -0.0195  0.0779
  591MOL0     C79700  10.411   6.888   9.300 -0.1720 -0.6524 -0.4980
  591MOL0     N79701  10.119   7.634   9.410 -0.5418  0.2979 -0.2005
  591MOL0     N79702  10.157   7.739   9.352 -0.7502  0.1762 -0.2405
  591MOL0     C79703  10.569   8.726   9.088  0.8125  0.0350  0.4771
  591MOL0     C79704  10.512   8.800   8.983 -0.5323 -0.1330 -0.4197
  591MOL0     C79705  10.439   9.110   8.667 -1.3508 -0.0798 -0.7203
  591MOL0     C79706  10.323   9.187   8.667  0.5092  0.4516  0.2947
  591MOL0     C79707  10.272   9.239   8.548 -0.1559 -0.5757  0.8558
  591MOL0     C79708  10.329   9.201   8.422 -1.0639 -0.6659  0.8323
  591MOL0     O79709  10.274   9.249   8.302  0.3529 -0.0690  0.2576
  591MOL0     C79710  10.351   9.235   8.184 -0.0473  0.4783 -0.1750
  591MOL0     C79711  10.311   9.350   8.086 -0.6268  0.0872 -0.4210
  591MOL0     C79712  10.385   9.328   7.951 -0.1010  0.1823  0.3307
  591MOL0     C79713  10.384   9.432   7.835 -0.4225 -0.2559  0.5632
  591MOL0     C79714  10.474   9.394   7.725  0.0108 -0.1691  0.4720
  591MOL0     C79715  10.527   9.352   7.621 -0.1192  0.3162 -0.4784
  591MOL0     C79716  10.448   9.123   8.421 -0.1606 -0.6129 -0.3216
  591MOL0     C79717  10.497   9.071   8.542  0.1831 -0.8140 -0.0524
  591MOL0     H79718  10.804   8.892   8.828 -0.8672 -0.7620 -0.1130
  591MOL0     H79719  10.884   8.726   8.995 -0.2745 -0.6608 -0.9875
  591MOL0     H79720  10.614   8.622   9.352 -0.3936 -0.9867  1.8377
  591MOL0     H79721  10.619   8.492   9.237 -0.4707  3.4295 -1.4626
  591MOL0     H79722  10.880   8.478   9.342  0.9558 -1.3903  2.3559
  591MOL0     H79723  10.773   8.503   9.483  0.9101 -4.1258  1.8131
  591MOL0     H79724  10.703   8.286   9.275  0.8686  2.5307 -1.3143
  591MOL0     H79725  10.822   8.253   9.401  0.8269  1.7043  1.0182
  591MOL0     H79726  10.650   8.340   9.568 -1.3189 -1.0794  0.9798
  591MOL0     H79727  10.531   8.361   9.433  0.4030  2.1953  2.0643
  591MOL0     H79728  10.642   8.092   9.539 -1.3625 -1.9435  1.2543
  591MOL0     H79729  10.487   8.151   9.589 -1.3833  2.2320 -1.9792
  591MOL0     H79730  10.384   8.136   9.371 -0.9484 -1.3992 -0.1383
  591MOL0     H79731  10.551   8.091   9.302  1.8875 -1.7834  1.1127
  591MOL0     H79732  10.542   7.883   9.449  0.7560 -1.6945 -2.4484
  591MOL0     H79733  10.419   7.952   9.541  4.3551 -0.8381  2.0823
  591MOL0     H79734  10.412   7.864   9.255 -1.4882 -1.5464 -1.0015
  591MOL0     H79735  10.266   7.953   9.317  0.0633 -0.4991 -1.4089
  591MOL0     H79736  10.445   7.659   9.490  0.7613 -0.7187 -0.3296
  591MOL0     H79737  10.326   7.439   9.616 -1.1411 -0.6524  0.0903
  591MOL0     H79738  10.163   7.413   9.572  1.5189 -0.4032  3.1266
  591MOL0     H79739  10.354   7.266   9.466  1.1280  0.2239 -1.1866
  591MOL0     H79740  10.391   7.395   9.358  1.4594 -1.4559 -0.4883
  591MOL0     H79741  10.205   7.350   9.224  2.6325  2.7952  1.5472
  591MOL0     H79742  10.098   7.342   9.354 -0.4996 -1.1523 -1.2194
  591MOL0     H79743  10.093   7.129   9.232 -1.6288  3.2784  1.4231
  591MOL0     H79744  10.127   7.107   9.402 -2.6119 -0.4266 -1.0173
  591MOL0     H79745  10.077   6.907   9.225 -0.2288  1.8186 -1.0214
  591MOL0     H79746   9.983   6.674   9.292  0.5141 -2.5529  2.4798
  591MOL0     H79747  10.041   6.670   9.120  1.0193  3.1244  0.9317
  591MOL0     H79748  10.080   6.538   9.231  0.2251 -0.1752  0.8771
  591MOL0     H79749  10.380   6.273   9.432 -3.0895 -0.9367 -2.0209
  591MOL0     H79750  10.427   6.033   9.405 -0.5594  0.4113 -0.3837
  591MOL0     H79751  10.547   5.878   8.986 -1.1352  1.5184 -0.2798
  591MOL0     H79752  10.685   5.926   9.062 -1.9207  1.5062 -3.3487
  591MOL0     H79753  10.507   5.658   9.102  0.0139 -2.3508  1.4762
  591MOL0     H79754  10.670   5.662   9.040 -3.5111  1.3516 -2.2450
  591MOL0     H79755  10.586   5.701   9.333 -0.8014  1.0583 -0.3771
  591MOL0     H79756  10.759   5.697   9.263  0.6908  0.1439 -0.4656
  591MOL0     H79757  10.638   5.492   9.372 -1.2162  0.8954 -0.3848
  591MOL0     H79758  10.536   5.493   9.227  0.1304  0.0807  0.7475
  591MOL0     H79759  10.830   5.424   9.216  1.2189 -1.3456 -2.7358
  591MOL0     H79760  10.713   5.419   9.083  1.2221  1.0753 -0.1551
  591MOL0     H79761  10.705   5.262   9.346 -1.5410 -3.3886  0.2725
  591MOL0     H79762  10.589   5.265   9.208  0.2118  0.3594 -2.0666
  591MOL0     H79763  10.878   5.178   9.186  0.3812 -0.1057  1.0037
  591MOL0     H79764  10.752   5.184   9.059 -1.1061  0.0459  0.1499
  591MOL0     H79765  10.772   5.002   9.310 -0.2094  1.0935 -0.2058
  591MOL0     H79766  10.777   4.958   9.145 -1.3464 -1.1650  1.5913
  591MOL0     H79767  10.566   6.110   9.002 -3.8617 -0.5856 -1.4870
  591MOL0     H79768  10.511   6.344   9.030  1.8708  0.3821  0.9311
  591MOL0     H79769  10.520   6.705   9.328  0.7855  0.6513 -2.0654
  591MOL0     H79770  10.497   6.953   9.315  0.1413 -1.3008  0.6602
  591MOL0     H79771  10.503   8.689   9.165  1.2701  2.5670  2.2098
  591MOL0     H79772  10.403   8.807   8.984 -0.4397  1.8752  1.5824
  591MOL0     H79773  10.279   9.221   8.761 -2.8760  1.5108 -1.5027
  591MOL0     H79774  10.190   9.309   8.545  1.8989  1.9412 -0.7643
  591MOL0     H79775  10.458   9.251   8.199 -0.1680  4.0508 -1.9756
  591MOL0     H79776  10.338   9.140   8.133 -0.0992  0.6133 -0.4145
  591MOL0     H79777  10.332   9.445   8.136 -2.9598  0.0984  0.6666
  591MOL0     H79778  10.204   9.353   8.064 -0.1548  1.0827 -2.9746
  591MOL0     H79779  10.372   9.229   7.907  2.1277 -0.4576  0.9444
  591MOL0     H79780  10.493   9.334   7.971  0.4501  1.6071 -2.4822
  591MOL0     H79781  10.396   9.535   7.869 -0.2800 -0.1896  0.3089
  591MOL0     H79782  10.286   9.433   7.787 -1.0212  1.4493  1.7232
  591MOL0     H79783  10.581   9.321   7.533  0.4077  0.2512 -0.1368
  591MOL0     H79784  10.486   9.081   8.329 -0.6431  0.8026 -1.2028
  591MOL0     H79785  10.588   9.013   8.555  1.1677  0.2621 -1.7627
  592MOL0     O79786   7.218   6.270   6.127  0.1830 -0.3602  0.3849
  592MOL0     C79787   7.111   6.342   6.117  0.5235 -0.9227 -0.4425
  592MOL0     O79788   7.091   6.456   6.180  0.2064  0.2465 -0.1502
  592MOL0     C79789   7.171   6.518   6.272 -0.2879 -0.5128 -0.1846
  592MOL0     C79790   7.275   6.455   6.350  0.6801 -0.0268  0.7759
  592MOL0     C79791   7.356   6.528   6.432  0.5959 -0.4766  0.2333
  592MOL0     C79792   7.351   6.666   6.432 -0.3327 -0.2414  1.0705
  592MOL0     O79793   7.431   6.745   6.510  0.0627 -0.9408 -0.4779
  592MOL0     C79794   7.532   6.692   6.597  0.3530  0.6456 -0.2766
  592MOL0     C79795   7.633   6.795   6.658  0.8158 -0.5544  0.2054
  592MOL0     C79796   7.757   6.748   6.740 -0.1378 -0.6689 -0.1337
  592MOL0     C79797   7.853   6.681   6.654  0.7935 -0.2088 -0.7590
  592MOL0     C79798   7.985   6.647   6.724 -0.7312 -0.1286  0.2777
  592MOL0     C79799   8.109   6.725   6.682  0.6184 -1.4639 -0.0611
  592MOL0     C79800   8.143   6.713   6.539 -0.7379  0.3955 -0.3416
  592MOL0     C79801   8.276   6.780   6.502  0.7416 -0.1051  0.2179
  592MOL0     N79802   8.276   6.786   6.360 -1.0409  0.5868 -0.2103
  592MOL0     C79803   8.321   6.682   6.272 -0.5308  0.6845 -0.0338
  592MOL0     C79804   8.321   6.735   6.149  0.0696  0.0746 -0.2917
  592MOL0     C79805   8.364   6.664   6.022  1.0677  0.3108 -0.1777
  592MOL0     C79806   8.515   6.652   6.021 -0.0610 -0.2825 -0.6597
  592MOL0     C79807   8.553   6.636   5.879 -0.4725  0.0051  0.5557
  592MOL0     C79808   8.695   6.684   5.843 -0.2535 -0.5106 -0.5280
  592MOL0     O79809   8.726   6.634   5.710 -0.0170  0.5804 -0.1156
  592MOL0     C79810   8.715   6.725   5.612  0.1865 -0.4290  0.7911
  592MOL0     C79811   8.832   6.797   5.564  0.4016 -0.6205  0.4480
  592MOL0     C79812   8.825   6.890   5.465  0.1693 -0.2364  0.9416
  592MOL0     C79813   8.956   6.942   5.429  0.3843  0.2575 -0.7660
  592MOL0     C79814   8.696   6.935   5.421 -0.4585  0.7038 -0.1770
  592MOL0     C79815   8.670   7.063   5.351 -0.7332 -0.4762  0.2354
  592MOL0     O79816   8.532   7.102   5.346  0.1776 -0.1834 -0.6036
  592MOL0     C79817   8.481   7.196   5.267  0.4274 -0.5289  0.4495
  592MOL0     C79818   8.541   7.249   5.146  0.9200  0.4660 -0.1507
  592MOL0     C79819   8.483   7.349   5.068 -0.3116 -0.5404 -0.0835
  592MOL0     C79820   8.366   7.410   5.116  0.4300  0.6820 -0.8627
  592MOL0     O79821   8.291   7.500   5.041  0.1963 -0.2348  0.3165
  592MOL0     C79822   8.370   7.601   4.970  0.3198  0.3296 -0.2238
  592MOL0     C79823   8.299   7.705   4.887 -0.0216  0.4047 -0.0779
  592MOL0     C79824   8.207   7.797   4.966  1.2827 -0.4909  0.9610
  592MOL0     C79825   8.137   7.885   4.852 -0.4702  0.9790 -0.0807
  592MOL0     C79826   7.994   7.938   4.889 -0.2270  0.5552 -0.4768
  592MOL0     C79827   8.002   8.064   4.977  0.0157  0.0125 -0.6364
  592MOL0     C79828   8.067   8.186   4.915 -0.0256  0.4655 -0.1078
  592MOL0     C79829   8.038   8.313   5.002 -0.0175  0.8149  0.0455
  592MOL0    Cl79830   8.106   8.464   4.924  0.7533  0.1246 -0.1468
  592MOL0     C79831   8.308   7.367   5.235 -1.3125 -0.4288 -0.1618
  592MOL0     C79832   8.363   7.257   5.308  0.3785  0.0249  0.0505
  592MOL0     O79833   8.768   7.133   5.308 -0.5325  0.2177  0.3640
  592MOL0     C79834   8.587   6.853   5.459 -0.8553 -0.4376 -1.1565
  592MOL0     C79835   8.590   6.759   5.558  0.1104  0.4785 -0.3031
  592MOL0     N79836   8.280   6.866   6.159  0.0408  0.0855  0.1515
  592MOL0     N79837   8.235   6.892   6.285 -0.4118  0.0783  0.2078
  592MOL0     C79838   7.247   6.734   6.371  0.6810  0.5462  0.3230
  592MOL0     C79839   7.165   6.660   6.286 -0.1495  0.4918  0.2140
  592MOL0     C79840   6.997   6.315   6.014 -0.4205 -1.2295  0.0003
  592MOL0     C79841   7.001   6.211   5.918  0.4402  0.4829  0.0520
  592MOL0     C79842   6.901   6.182   5.827 -0.0503 -0.1632 -0.0975
  592MOL0     C79843   6.798   6.271   5.809  0.0055 -0.5228 -0.0575
  592MOL0     O79844   6.716   6.244   5.702  0.1134 -0.4095 -0.0273
  592MOL0     C79845   6.598   6.321   5.669 -1.2902  0.0960  0.1614
  592MOL0     C79846   6.521   6.245   5.556  0.6592 -0.1292  0.7082
  592MOL0     C79847   6.602   6.238   5.430 -0.1936 -0.5393 -0.2697
  592MOL0     C79848   6.532   6.150   5.328 -0.1951 -0.0840 -0.5920
  592MOL0     C79849   6.627   6.148   5.212 -0.6477  0.9509 -0.0273
  592MOL0     C79850   6.706   6.159   5.122  0.2448 -0.7614 -0.9513
  592MOL0     C79851   6.789   6.377   5.909 -0.4170 -1.2116  0.5561
  592MOL0     C79852   6.879   6.397   6.012 -1.0015  0.2311 -0.0701
  592MOL0     H79853   7.303   6.352   6.335  1.7004  0.6256 -2.7750
  592MOL0     H79854   7.429   6.477   6.493  0.7644  2.5574  2.8622
  592MOL0     H79855   7.487   6.638   6.681  0.7658  3.0569  1.5796
  592MOL0     H79856   7.588   6.612   6.546  0.8916  0.9441 -0.1594
  592MOL0     H79857   7.676   6.856   6.577 -0.3870 -2.8866 -2.3791
  592MOL0     H79858   7.573   6.864   6.717  2.4686  0.1122  1.1694
  592MOL0     H79859   7.798   6.840   6.784 -3.2371 -0.5030  2.8572
  592MOL0     H79860   7.712   6.684   6.816 -2.8789 -0.8379 -1.7727
  592MOL0     H79861   7.803   6.596   6.606 -2.4143  2.6015 -2.9114
  592MOL0     H79862   7.868   6.751   6.571  1.7377 -1.5306 -1.7530
  592MOL0     H79863   7.976   6.660   6.832  0.4967  2.4527  0.1322
  592MOL0     H79864   8.008   6.541   6.706 -0.0345  0.0517  0.0867
  592MOL0     H79865   8.083   6.827   6.712  1.5736 -0.5699 -2.0546
  592MOL0     H79866   8.195   6.689   6.740  1.2719  1.2494  0.7963
  592MOL0     H79867   8.144   6.607   6.511 -0.7281  0.1064  0.7364
  592MOL0     H79868   8.070   6.777   6.489  2.2390  2.5723 -2.2928
  592MOL0     H79869   8.363   6.724   6.537 -0.2688 -0.9420  1.4967
  592MOL0     H79870   8.283   6.881   6.545  0.5555 -1.2400  3.1514
  592MOL0     H79871   8.356   6.583   6.296 -2.6406  0.5380  3.0233
  592MOL0     H79872   8.328   6.561   6.018  2.2873 -0.0875 -2.4334
  592MOL0     H79873   8.317   6.718   5.939 -1.2013  1.1012  1.4952
  592MOL0     H79874   8.546   6.562   6.075 -2.8821 -1.1387 -0.2819
  592MOL0     H79875   8.564   6.735   6.073 -1.7204  0.2847  0.0771
  592MOL0     H79876   8.499   6.706   5.815 -0.6320 -0.8171 -0.2240
  592MOL0     H79877   8.544   6.535   5.838  0.7136 -0.4072  1.2563
  592MOL0     H79878   8.765   6.632   5.909 -1.6558 -0.6376  0.8993
  592MOL0     H79879   8.718   6.791   5.857  3.3901 -1.5235  3.3709
  592MOL0     H79880   8.929   6.773   5.608  1.8904 -0.8108 -2.6944
  592MOL0     H79881   8.962   7.038   5.481  1.6934 -0.6367  0.8341
  592MOL0     H79882   9.038   6.891   5.482 -0.6384 -0.8051 -0.1506
  592MOL0     H79883   8.979   6.955   5.323  1.2004  1.1440 -0.4926
  592MOL0     H79884   8.637   7.204   5.122  1.2838  1.2552 -0.2194
  592MOL0     H79885   8.517   7.379   4.970 -2.3818 -1.2517 -1.0839
  592MOL0     H79886   8.431   7.655   5.043  1.5344 -0.7709 -0.3930
  592MOL0     H79887   8.435   7.542   4.905  1.3396 -2.1023  2.7755
  592MOL0     H79888   8.374   7.760   4.830  0.6750  0.8129  1.2001
  592MOL0     H79889   8.240   7.643   4.818 -0.8066  0.2169  0.7385
  592MOL0     H79890   8.262   7.861   5.036 -0.7929  1.0692  1.2515
  592MOL0     H79891   8.137   7.734   5.022 -0.7505 -0.5783 -1.5083
  592MOL0     H79892   8.217   7.958   4.833  2.5495 -1.7492  1.2076
  592MOL0     H79893   8.131   7.826   4.760  0.0158  1.5004 -0.4536
  592MOL0     H79894   7.947   7.856   4.945  1.8309  1.2280  2.4705
  592MOL0     H79895   7.941   7.949   4.794 -0.3433 -0.8917 -0.5994
  592MOL0     H79896   7.906   8.090   5.024  0.1431  1.4772 -1.1236
  592MOL0     H79897   8.064   8.050   5.065  0.3731  2.1947 -0.4837
  592MOL0     H79898   8.031   8.206   4.814  0.9051 -2.1614 -1.0679
  592MOL0     H79899   8.175   8.173   4.909  0.3910  1.6007  3.0490
  592MOL0     H79900   8.072   8.292   5.104  1.3368  0.6980 -0.4105
  592MOL0     H79901   7.931   8.336   5.013 -0.2310 -0.0760 -0.1166
  592MOL0     H79902   8.216   7.421   5.253  0.9729  3.1317  1.9214
  592MOL0     H79903   8.307   7.213   5.390  1.7787 -1.3620  0.3177
  592MOL0     H79904   8.490   6.874   5.414  0.9509  0.4385 -5.0506
  592MOL0     H79905   8.498   6.713   5.595  1.2925 -1.1031  0.7703
  592MOL0     H79906   7.238   6.841   6.388 -1.5039 -0.1099  4.6713
  592MOL0     H79907   7.088   6.721   6.239 -2.4237 -1.1240  1.6198
  592MOL0     H79908   7.085   6.143   5.929  0.5635  0.7820  1.0651
  592MOL0     H79909   6.915   6.110   5.747 -1.6929  0.0867 -0.6453
  592MOL0     H79910   6.536   6.353   5.754 -2.5893  3.6744 -1.9338
  592MOL0     H79911   6.636   6.419   5.639  1.5010 -0.5348  1.2442
  592MOL0     H79912   6.428   6.294   5.526 -1.2410 -1.9859  3.2215
  592MOL0     H79913   6.496   6.143   5.584  2.7117 -0.9106 -0.0642
  592MOL0     H79914   6.694   6.187   5.460 -0.1086 -0.2153  0.0166
  592MOL0     H79915   6.604   6.340   5.391 -2.4504 -0.4352 -0.2630
  592MOL0     H79916   6.433   6.174   5.289  0.4576  3.0809 -0.6335
  592MOL0     H79917   6.520   6.052   5.375  4.4253  0.2544  1.9228
  592MOL0     H79918   6.770   6.158   5.035 -0.6768 -0.1693 -1.6582
  592MOL0     H79919   6.705   6.446   5.906  0.5104 -0.0559  0.2551
  592MOL0     H79920   6.855   6.482   6.076  0.1249  0.5480 -0.0529
  593MOL0     O79921   0.496   9.773   4.101  0.0855  0.0678  0.0702
  593MOL0     C79922   0.485   9.659   4.141 -0.1386  0.4883 -0.3030
  593MOL0     O79923   0.369   9.585   4.140 -0.0931 -0.7934  0.5106
  593MOL0     C79924   0.245   9.640   4.133  0.3594 -0.3785 -1.2715
  593MOL0     C79925   0.218   9.769   4.174  0.6982  0.5839 -0.7511
  593MOL0     C79926   0.082   9.815   4.167  0.0448  0.3718  0.4175
  593MOL0     C79927  -0.029   9.739   4.126  0.6581 -0.0381 -0.3740
  593MOL0     O79928  -0.161   9.781   4.131 -0.0305  0.2383 -0.4035
  593MOL0     C79929  -0.184   9.921   4.098  0.4576 -0.5894 -0.0167
  593MOL0     C79930  -0.247   9.930   3.965  1.0275  0.5575 -0.4281
  593MOL0     C79931  -0.396   9.880   3.964 -0.3119 -0.6754  0.0981
  593MOL0     C79932  -0.450   9.865   3.825 -0.1854 -0.0976  0.0711
  593MOL0     C79933  -0.601   9.855   3.805 -0.2100  0.0390 -0.4703
  593MOL0     C79934  -0.652   9.825   3.657  0.7224 -0.7959 -0.8025
  593MOL0     C79935  -0.627   9.680   3.611  0.1056  0.1733  0.3909
  593MOL0     C79936  -0.705   9.655   3.480 -0.3078 -0.4163  0.2843
  593MOL0     N79937  -0.638   9.571   3.385  0.2440  0.0083  0.6900
  593MOL0     C79938  -0.587   9.450   3.410 -0.4323  0.1778  0.0055
  593MOL0     C79939  -0.579   9.392   3.286 -0.5575 -0.2585  0.1475
  593MOL0     C79940  -0.515   9.256   3.254  1.1601  0.2622 -0.0207
  593MOL0     C79941  -0.565   9.137   3.345  0.9495 -0.3445  0.2236
  593MOL0     C79942  -0.588   9.011   3.268 -0.6043 -0.8533 -0.0965
  593MOL0     C79943  -0.682   8.920   3.341  0.0601 -0.0384  0.4973
  593MOL0     O79944  -0.674   8.788   3.286  0.4999 -0.3332  0.9524
  593MOL0     C79945  -0.720   8.753   3.158 -0.4925 -1.2648  0.3651
  593MOL0     C79946  -0.802   8.825   3.063 -0.8578  0.0215 -0.8746
  593MOL0     C79947  -0.863   8.771   2.954 -0.5007 -0.0967  0.0503
  593MOL0     C79948  -0.960   8.845   2.878  0.3334 -0.2263  0.6054
  593MOL0     C79949  -0.827   8.643   2.911 -0.0854 -1.2894 -0.3761
  593MOL0     C79950  -0.876   8.573   2.785 -0.0663  0.1898 -0.0628
  593MOL0     O79951  -0.835   8.441   2.782 -0.1472 -0.0817  0.1223
  593MOL0     C79952  -0.884   8.359   2.684  0.0931 -0.2614  0.0677
  593MOL0     C79953  -0.819   8.329   2.564 -0.2157  0.3260 -0.4591
  593MOL0     C79954  -0.880   8.245   2.468 -0.0375  0.5532 -0.6484
  593MOL0     C79955  -1.014   8.180   2.482 -0.2693  0.1532 -0.3045
  593MOL0     O79956  -1.057   8.085   2.399 -0.0247 -0.1550  0.0931
  593MOL0     C79957  -1.070   8.114   2.255  0.3636  1.0952 -0.0099
  593MOL0     C79958  -1.056   7.991   2.180 -0.3106  0.8433 -0.2912
  593MOL0     C79959  -1.190   7.915   2.167 -0.0992  0.2092 -0.2808
  593MOL0     C79960  -1.247   7.835   2.283 -0.6553 -0.0698  0.6033
  593MOL0     C79961  -1.319   7.910   2.402  0.9841 -0.9282  0.1080
  593MOL0     C79962  -1.420   8.028   2.351 -0.8561  0.4038  1.5392
  593MOL0     C79963  -1.484   8.096   2.476 -0.7928 -0.6706 -0.0556
  593MOL0     C79964  -1.632   8.061   2.486 -0.4747 -0.3820  0.1004
  593MOL0    Cl79965  -1.680   7.881   2.492  0.0148 -0.0791  0.4562
  593MOL0     C79966  -1.069   8.213   2.606 -0.8074  0.2483 -0.2857
  593MOL0     C79967  -1.011   8.303   2.703 -0.1392  0.4544 -0.1713
  593MOL0     O79968  -0.922   8.637   2.687  0.3474 -0.1139 -0.0556
  593MOL0     C79969  -0.739   8.578   2.995  0.5764 -0.0649 -0.4645
  593MOL0     C79970  -0.684   8.627   3.119 -0.1580 -1.1773 -0.8361
  593MOL0     N79971  -0.623   9.478   3.182 -0.0115 -0.4136 -1.1463
  593MOL0     N79972  -0.648   9.589   3.243  0.2561 -0.0593  0.1598
  593MOL0     C79973   0.003   9.607   4.079  0.2443 -0.3824 -0.0702
  593MOL0     C79974   0.136   9.563   4.088 -0.5381  0.4714 -0.1210
  593MOL0     C79975   0.601   9.583   4.193 -0.5638 -0.7328 -0.9821
  593MOL0     C79976   0.579   9.452   4.249  0.0917  0.6556  1.1145
  593MOL0     C79977   0.686   9.380   4.299 -0.2696 -0.1634  0.6354
  593MOL0     C79978   0.810   9.428   4.307 -0.1510 -0.7132  0.5923
  593MOL0     O79979   0.912   9.352   4.351  0.7375  0.4814  0.2266
  593MOL0     C79980   0.906   9.319   4.495  0.4440  0.6115 -0.3630
  593MOL0     C79981   0.939   9.446   4.589 -0.7748  0.2728  0.5993
  593MOL0     C79982   1.077   9.501   4.560  0.0125 -0.1216 -0.5894
  593MOL0     C79983   1.139   9.590   4.674  0.6267 -0.8335 -0.2469
  593MOL0     C79984   1.135   9.540   4.813 -0.5241  0.3906 -0.6580
  593MOL0     C79985   1.127   9.484   4.920 -0.4433  0.3658 -0.9499
  593MOL0     C79986   0.834   9.566   4.273 -0.1907  0.7536 -0.9890
  593MOL0     C79987   0.733   9.640   4.219  0.6250  0.4719 -0.0694
  593MOL0     H79988   0.286   9.846   4.210  0.7811  0.1668  0.0179
  593MOL0     H79989   0.067   9.918   4.197  1.8338  0.3481  1.5534
  593MOL0     H79990  -0.238   9.977   4.175  1.2099 -0.4650  0.4268
  593MOL0     H79991  -0.088   9.973   4.095  0.2394  0.0965  2.3796
  593MOL0     H79992  -0.233  10.031   3.926  1.7562  1.7596  2.6360
  593MOL0     H79993  -0.196   9.871   3.888  2.4868  1.6259 -0.3118
  593MOL0     H79994  -0.417   9.785   4.015 -2.1263 -0.6082 -0.4606
  593MOL0     H79995  -0.456   9.963   4.003 -0.1533  0.2681 -1.5791
  593MOL0     H79996  -0.427   9.957   3.771  1.2981  2.2732  4.2766
  593MOL0     H79997  -0.403   9.782   3.770 -0.4024  1.1422 -2.0787
  593MOL0     H79998  -0.627   9.775   3.875 -0.6385  1.3994  0.9767
  593MOL0     H79999  -0.648   9.948   3.837  1.4694  0.6123  0.4718
  593MOL0     H80000  -0.760   9.840   3.654  0.5488 -2.0580 -1.0704
  593MOL0     H80001  -0.598   9.898   3.595  0.5292 -0.2018 -0.2772
  593MOL0     H80002  -0.521   9.670   3.585  0.0690  4.8745 -2.6553
  593MOL0     H80003  -0.650   9.612   3.694 -2.4424  0.3970 -0.0334
  593MOL0     H80004  -0.720   9.746   3.422 -0.0053 -1.4225 -1.4447
  593MOL0     H80005  -0.803   9.614   3.507  0.1798 -1.3248  0.7415
  593MOL0     H80006  -0.546   9.403   3.499  1.8091 -0.8497 -1.4702
  593MOL0     H80007  -0.550   9.229   3.154 -0.4415  0.9477  0.3164
  593MOL0     H80008  -0.408   9.275   3.246  0.8406  1.7201 -1.4914
  593MOL0     H80009  -0.660   9.173   3.386  2.3470  0.6460  2.8295
  593MOL0     H80010  -0.501   9.114   3.430  1.3812  1.6348  0.4737
  593MOL0     H80011  -0.491   8.966   3.246  1.8391  4.0972 -1.0404
  593MOL0     H80012  -0.620   9.024   3.164 -1.5244 -3.1848 -0.1484
  593MOL0     H80013  -0.785   8.958   3.349 -0.4589 -1.0154 -1.0607
  593MOL0     H80014  -0.645   8.916   3.444  1.7007  3.2405  0.1647
  593MOL0     H80015  -0.841   8.924   3.084 -3.8409 -1.5155  1.7685
  593MOL0     H80016  -1.048   8.784   2.858 -0.8077  2.3340 -3.0011
  593MOL0     H80017  -1.009   8.932   2.923 -1.1944 -0.0886 -1.2522
  593MOL0     H80018  -0.910   8.887   2.790 -0.4194  0.1356  0.3473
  593MOL0     H80019  -0.716   8.358   2.546  0.7707  0.6695  4.3747
  593MOL0     H80020  -0.819   8.206   2.388  1.6210 -1.7893  1.5973
  593MOL0     H80021  -1.167   8.162   2.247 -0.0474  0.1918 -0.6415
  593MOL0     H80022  -0.998   8.191   2.226  2.4843 -0.8785 -0.3052
  593MOL0     H80023  -1.037   8.014   2.074 -4.5175 -3.9256 -2.4970
  593MOL0     H80024  -0.978   7.926   2.221 -1.6012  1.6791  3.9848
  593MOL0     H80025  -1.172   7.845   2.084 -0.6960  1.6692 -1.7105
  593MOL0     H80026  -1.267   7.982   2.125  0.1002  0.7793  0.2557
  593MOL0     H80027  -1.323   7.771   2.237 -0.4784  1.4522 -2.0296
  593MOL0     H80028  -1.166   7.776   2.327  0.1203 -1.3086 -2.2317
  593MOL0     H80029  -1.245   7.956   2.468 -0.2923  3.9061 -1.3666
  593MOL0     H80030  -1.385   7.840   2.454 -2.8170  0.9257 -1.7520
  593MOL0     H80031  -1.367   8.103   2.291 -0.7360 -0.3671  0.6538
  593MOL0     H80032  -1.499   7.988   2.287 -1.9291  0.2898  2.8861
  593MOL0     H80033  -1.473   8.203   2.455 -2.6882 -0.6546 -1.1908
  593MOL0     H80034  -1.425   8.064   2.562  0.0477 -1.9131 -1.0531
  593MOL0     H80035  -1.665   8.108   2.393 -1.9476 -2.0776 -0.2990
  593MOL0     H80036  -1.675   8.108   2.575  0.5254 -1.2139  1.0563
  593MOL0     H80037  -1.166   8.174   2.636 -0.9789  1.8268  1.3320
  593MOL0     H80038  -1.073   8.332   2.787  0.0935  3.0314 -0.8136
  593MOL0     H80039  -0.693   8.481   2.980  0.6460  0.0719 -1.1958
  593MOL0     H80040  -0.615   8.574   3.185  1.6036 -0.5486 -2.1022
  593MOL0     H80041  -0.072   9.545   4.031 -1.7156  2.6019 -1.1865
  593MOL0     H80042   0.152   9.468   4.039  0.6493 -1.2154  3.2060
  593MOL0     H80043   0.479   9.411   4.242  0.2008  0.0322  2.7909
  593MOL0     H80044   0.676   9.276   4.330 -2.9218 -0.6992 -1.7107
  593MOL0     H80045   0.812   9.267   4.516  0.5369  1.1713  1.7160
  593MOL0     H80046   0.983   9.244   4.516  1.0270  1.7332  1.8330
  593MOL0     H80047   0.934   9.415   4.694  2.8027 -1.3031  0.4334
  593MOL0     H80048   0.863   9.519   4.558 -2.0024 -0.9194  0.6843
  593MOL0     H80049   1.063   9.577   4.482 -1.0449  0.0573 -0.2350
  593MOL0     H80050   1.150   9.429   4.520 -0.2679 -0.3196 -0.7532
  593MOL0     H80051   1.081   9.682   4.677 -1.2423 -1.9228 -0.8277
  593MOL0     H80052   1.241   9.614   4.644 -0.2780  2.3055 -1.2131
  593MOL0     H80053   1.121   9.465   5.025 -3.3265  4.0280 -0.2242
  593MOL0     H80054   0.929   9.614   4.290  0.9648 -1.5127 -0.6575
  593MOL0     H80055   0.763   9.742   4.197 -0.3274  0.6098 -0.7820
  594MOL0     O80056   2.463   4.924   0.277 -0.6922 -0.6091 -0.0205
  594MOL0     C80057   2.566   4.931   0.208  0.2622 -0.1768 -0.8536
  594MOL0     O80058   2.681   4.996   0.247 -0.0433  0.3025  1.2265
  594MOL0     C80059   2.700   5.048   0.373  0.1527 -0.0940  0.5194
  594MOL0     C80060   2.780   4.988   0.468 -0.5384 -0.2044 -0.4101
  594MOL0     C80061   2.811   5.048   0.594  1.1961 -0.6873 -0.1252
  594MOL0     C80062   2.758   5.169   0.624  0.1354 -0.8738  0.1506
  594MOL0     O80063   2.774   5.235   0.741 -0.6270 -0.3649 -0.0614
  594MOL0     C80064   2.857   5.179   0.844 -0.4814 -0.8437 -0.7605
  594MOL0     C80065   2.892   5.292   0.949 -0.4860 -0.2716  0.0859
  594MOL0     C80066   3.024   5.256   1.018 -0.0022  0.0682 -0.1023
  594MOL0     C80067   3.114   5.371   1.071  0.4501 -0.7410 -0.6409
  594MOL0     C80068   3.046   5.458   1.192  0.0091  0.2048 -0.5234
  594MOL0     C80069   3.030   5.362   1.318 -0.5309 -0.4243  0.2377
  594MOL0     C80070   2.948   5.453   1.424 -0.4616  0.0047  1.3020
  594MOL0     C80071   2.926   5.370   1.556  1.1794  0.3138 -0.6125
  594MOL0     N80072   2.865   5.441   1.663 -0.1162  1.0550 -0.6956
  594MOL0     C80073   2.743   5.508   1.659 -0.3389 -0.6286  0.3404
  594MOL0     C80074   2.702   5.514   1.792  0.5387  1.0139 -0.8045
  594MOL0     C80075   2.577   5.581   1.850  0.1676  0.4041 -0.0734
  594MOL0     C80076   2.561   5.575   1.999 -0.1022 -0.0278  0.6217
  594MOL0     C80077   2.439   5.668   2.039 -0.0650 -0.6678 -0.2960
  594MOL0     C80078   2.402   5.660   2.193 -0.1598 -0.0134  1.0408
  594MOL0     O80079   2.331   5.536   2.210  0.3744  0.3100 -0.2670
  594MOL0     C80080   2.190   5.516   2.220 -0.1890  0.6340 -0.2617
  594MOL0     C80081   2.153   5.391   2.271 -0.3021 -0.8732 -0.0803
  594MOL0     C80082   2.014   5.361   2.286  0.1537 -0.5686  0.0967
  594MOL0     C80083   1.973   5.239   2.365  1.1259  0.7074 -0.1873
  594MOL0     C80084   1.908   5.452   2.245 -0.2250 -0.1167 -0.5135
  594MOL0     C80085   1.767   5.424   2.276  0.3804  0.6042 -0.3566
  594MOL0     O80086   1.722   5.297   2.247 -0.0116 -0.1148 -0.5019
  594MOL0     C80087   1.590   5.276   2.272  0.2407  0.3443  0.3585
  594MOL0     C80088   1.513   5.250   2.160 -0.9995  0.7877 -0.7682
  594MOL0     C80089   1.380   5.226   2.176  1.2712  1.2655 -0.4152
  594MOL0     C80090   1.316   5.226   2.305  0.4454 -0.3825  0.6394
  594MOL0     O80091   1.188   5.182   2.314 -0.3515  0.1855  0.5898
  594MOL0     C80092   1.138   5.147   2.446 -0.2866 -0.3133  0.5383
  594MOL0     C80093   1.013   5.070   2.427  0.9297  0.4067  0.7745
  594MOL0     C80094   0.940   5.011   2.552  0.1197  0.4333 -0.0181
  594MOL0     C80095   0.793   4.971   2.536  0.3174 -0.9369  0.9350
  594MOL0     C80096   0.751   4.883   2.648 -0.5813 -0.0594  0.0553
  594MOL0     C80097   0.593   4.864   2.672 -0.0784 -0.6721 -0.4707
  594MOL0     C80098   0.553   4.768   2.789  0.6474  0.3374  0.3200
  594MOL0     C80099   0.410   4.756   2.808  0.0866 -0.1738  0.4653
  594MOL0    Cl80100   0.324   4.713   2.649  0.3603  0.5141 -0.0112
  594MOL0     C80101   1.391   5.265   2.411 -0.3144 -0.5186 -0.5903
  594MOL0     C80102   1.527   5.293   2.396 -0.0252  0.7862  0.1340
  594MOL0     O80103   1.695   5.513   2.321  0.2897 -0.0051 -0.1519
  594MOL0     C80104   1.949   5.574   2.201  0.0477 -0.5938  0.1416
  594MOL0     C80105   2.086   5.611   2.191 -0.6059  0.0122  0.2965
  594MOL0     N80106   2.792   5.440   1.874  0.3790  0.8200  0.6611
  594MOL0     N80107   2.883   5.394   1.794 -0.0216 -0.5529  0.3040
  594MOL0     C80108   2.676   5.235   0.522 -0.0681 -0.1455  0.5328
  594MOL0     C80109   2.642   5.171   0.399 -0.0537 -0.6309 -0.3764
  594MOL0     C80110   2.573   4.859   0.079 -0.2312 -0.0448 -0.4647
  594MOL0     C80111   2.462   4.796   0.018 -0.3434 -0.1960 -1.3173
  594MOL0     C80112   2.473   4.729  -0.105 -0.1036 -0.3861  0.6310
  594MOL0     C80113   2.596   4.722  -0.175  0.8017 -0.2839  0.1305
  594MOL0     O80114   2.600   4.652  -0.299 -0.1234 -0.1985 -0.3513
  594MOL0     C80115   2.679   4.534  -0.298 -1.0914  0.1380  0.0254
  594MOL0     C80116   2.717   4.514  -0.451  0.5477 -0.1544 -0.6155
  594MOL0     C80117   2.788   4.626  -0.523  0.1908 -0.9016 -1.4682
  594MOL0     C80118   2.792   4.616  -0.672 -0.2601  0.4884 -0.6291
  594MOL0     C80119   2.663   4.638  -0.728 -0.2043  0.6963 -0.7635
  594MOL0     C80120   2.548   4.657  -0.746 -0.1376  0.1108 -0.1423
  594MOL0     C80121   2.708   4.773  -0.110  0.4795  0.4343 -0.3441
  594MOL0     C80122   2.695   4.844   0.014  0.3584  0.1421  0.2261
  594MOL0     H80123   2.825   4.890   0.461  3.5928  1.3579  1.3525
  594MOL0     H80124   2.874   4.993   0.663 -1.4380 -1.2442  1.9680
  594MOL0     H80125   2.807   5.087   0.876  1.5297 -1.7819 -0.1880
  594MOL0     H80126   2.948   5.153   0.789 -0.3260 -1.3302 -0.2699
  594MOL0     H80127   2.916   5.383   0.893  3.7946 -1.2039  0.0061
  594MOL0     H80128   2.819   5.307   1.029  1.8333 -0.5054  2.4055
  594MOL0     H80129   3.003   5.192   1.103 -1.0896 -1.2292 -1.2976
  594MOL0     H80130   3.080   5.201   0.942 -0.7455 -0.9702  0.0899
  594MOL0     H80131   3.202   5.320   1.109 -0.1862 -1.5574 -0.2352
  594MOL0     H80132   3.138   5.417   0.974 -0.1826 -4.2345 -2.6130
  594MOL0     H80133   3.094   5.556   1.208 -0.5497  0.2479  1.0796
  594MOL0     H80134   2.946   5.484   1.158 -0.0694  1.6950  0.6994
  594MOL0     H80135   2.964   5.284   1.282 -2.7632  2.2203 -1.8580
  594MOL0     H80136   3.126   5.321   1.353  0.1451 -1.1602 -2.3008
  594MOL0     H80137   3.008   5.542   1.447 -1.7849  0.6380  2.4440
  594MOL0     H80138   2.847   5.490   1.402 -1.1177  0.0304  4.0050
  594MOL0     H80139   3.019   5.318   1.583  1.3858  0.1422 -1.6299
  594MOL0     H80140   2.848   5.300   1.525 -0.8708  1.7203  1.0507
  594MOL0     H80141   2.697   5.565   1.578  1.1813  0.9855  0.5624
  594MOL0     H80142   2.583   5.684   1.814 -0.2318 -0.6084 -3.4183
  594MOL0     H80143   2.496   5.532   1.796  0.7472 -2.0007  1.0926
  594MOL0     H80144   2.658   5.597   2.043  2.6773  1.2304 -5.1910
  594MOL0     H80145   2.534   5.470   2.015 -1.5778  0.0751 -0.8908
  594MOL0     H80146   2.346   5.639   1.990 -0.3584  0.1346 -0.2119
  594MOL0     H80147   2.463   5.772   2.017  0.7500 -1.0646 -1.4002
  594MOL0     H80148   2.343   5.751   2.210  3.1681  1.9245  3.3414
  594MOL0     H80149   2.487   5.667   2.261  0.4263 -0.7451  0.4048
  594MOL0     H80150   2.236   5.323   2.287  1.0015  0.8580  0.7818
  594MOL0     H80151   2.049   5.196   2.430  0.9176 -2.1369 -1.6645
  594MOL0     H80152   1.884   5.269   2.422  0.5599 -1.0589 -0.0711
  594MOL0     H80153   1.965   5.155   2.295  0.3684 -1.9022  2.7642
  594MOL0     H80154   1.549   5.250   2.057 -3.1633  2.3632 -1.6143
  594MOL0     H80155   1.332   5.213   2.080 -2.4253  2.8918  1.0373
  594MOL0     H80156   1.207   5.074   2.487 -1.5519 -0.8242  1.8434
  594MOL0     H80157   1.131   5.227   2.521  1.9402 -2.4459  3.1961
  594MOL0     H80158   0.950   5.137   2.369 -0.8433 -1.1000  0.8581
  594MOL0     H80159   1.034   4.985   2.360 -0.4781 -0.1114  0.9516
  594MOL0     H80160   0.945   5.081   2.637 -3.3075 -1.5606  2.0823
  594MOL0     H80161   0.985   4.919   2.589 -1.7089 -0.1680  0.8732
  594MOL0     H80162   0.736   5.063   2.527  1.3044 -0.3558  0.4562
  594MOL0     H80163   0.779   4.922   2.439  4.3027 -2.3656  0.8956
  594MOL0     H80164   0.780   4.925   2.745 -1.9426 -3.0750  1.9177
  594MOL0     H80165   0.805   4.789   2.631 -1.8520 -0.1706 -4.5153
  594MOL0     H80166   0.536   4.955   2.692 -2.8693 -1.1823 -4.5795
  594MOL0     H80167   0.573   4.824   2.571  0.2627  0.9259 -1.1917
  594MOL0     H80168   0.590   4.814   2.881 -0.9400  1.6466  0.3242
  594MOL0     H80169   0.596   4.669   2.767 -1.2242 -0.4056 -0.1424
  594MOL0     H80170   0.363   4.851   2.837 -2.1654 -1.9143  3.1136
  594MOL0     H80171   0.375   4.677   2.875 -2.7358 -2.3800 -3.1772
  594MOL0     H80172   1.332   5.280   2.501 -2.5304  0.1985 -2.0682
  594MOL0     H80173   1.588   5.337   2.475  0.1016  1.9612 -0.5941
  594MOL0     H80174   1.870   5.642   2.171  0.4696 -0.7282 -1.3804
  594MOL0     H80175   2.117   5.715   2.178  1.0799 -0.3170  1.2805
  594MOL0     H80176   2.632   5.332   0.541  0.4853  0.7823 -2.3512
  594MOL0     H80177   2.572   5.217   0.330 -3.3691  0.3470  3.2591
  594MOL0     H80178   2.370   4.799   0.075  1.3156 -0.7789  1.5888
  594MOL0     H80179   2.391   4.681  -0.156  0.8600  2.1385 -3.7958
  594MOL0     H80180   2.773   4.550  -0.245  0.3162 -1.9254 -1.6641
  594MOL0     H80181   2.632   4.450  -0.247 -0.0521  1.0941  2.7704
  594MOL0     H80182   2.624   4.479  -0.495  0.4488 -1.2229  0.3749
  594MOL0     H80183   2.787   4.433  -0.473 -0.2783 -0.5390 -1.9350
  594MOL0     H80184   2.886   4.625  -0.476 -1.4882  1.5876  2.6767
  594MOL0     H80185   2.733   4.719  -0.507 -0.7244 -1.3424 -1.9782
  594MOL0     H80186   2.817   4.513  -0.698 -0.0533  0.1924  0.6791
  594MOL0     H80187   2.875   4.677  -0.711  1.2448 -0.3751  1.0793
  594MOL0     H80188   2.446   4.671  -0.773 -0.1320 -3.0117 -2.3213
  594MOL0     H80189   2.804   4.763  -0.160 -1.2031 -1.8282 -3.4086
  594MOL0     H80190   2.784   4.897   0.047 -0.2662  1.3915 -0.0226
  595MOL0     O80191  11.498   4.274   7.579 -0.5990  0.0573 -0.0061
  595MOL0     C80192  11.435   4.246   7.476 -0.1190  0.0209 -0.3169
  595MOL0     O80193  11.321   4.307   7.427 -0.0472  0.0383 -0.2107
  595MOL0     C80194  11.290   4.424   7.496 -0.6268 -0.3503  0.5807
  595MOL0     C80195  11.231   4.410   7.621 -0.1197 -0.4843 -0.3489
  595MOL0     C80196  11.198   4.516   7.705  0.7202  0.0495 -0.0114
  595MOL0     C80197  11.204   4.646   7.656 -1.0246 -0.7009 -0.3437
  595MOL0     O80198  11.167   4.763   7.721  0.8912 -0.3548  0.1848
  595MOL0     C80199  11.099   4.744   7.849  0.1574  0.2780  0.1580
  595MOL0     C80200  11.057   4.886   7.913  0.7815  0.6976  0.0597
  595MOL0     C80201  11.018   4.866   8.061 -0.8552 -0.3642  0.0319
  595MOL0     C80202  10.876   4.919   8.091  0.1768  0.4757 -0.9661
  595MOL0     C80203  10.829   5.053   8.048  0.1565 -0.2288 -0.2392
  595MOL0     C80204  10.904   5.175   8.111  0.8842  0.4520  0.5494
  595MOL0     C80205  10.816   5.303   8.127 -0.0123  0.0021 -0.3286
  595MOL0     C80206  10.728   5.296   8.262 -0.3547 -0.4385  0.6146
  595MOL0     N80207  10.802   5.333   8.382  0.4514  0.1038  0.4333
  595MOL0     C80208  10.756   5.418   8.477  0.4410  0.2347  0.9643
  595MOL0     C80209  10.845   5.404   8.577  0.8707 -1.2760  0.2169
  595MOL0     C80210  10.833   5.470   8.709 -0.7032 -0.3138  0.8611
  595MOL0     C80211  10.923   5.592   8.720  0.5061  0.7297 -0.8740
  595MOL0     C80212  10.895   5.668   8.856 -0.1229  0.0076  1.0709
  595MOL0     C80213  10.988   5.784   8.869 -0.2489  0.5447  0.3642
  595MOL0     O80214  10.968   5.890   8.777 -0.0076  0.0501  1.0003
  595MOL0     C80215  10.911   6.009   8.816 -0.1383  0.8078 -1.2994
  595MOL0     C80216  10.864   6.086   8.713 -0.2950 -0.9154  0.0319
  595MOL0     C80217  10.826   6.220   8.735  0.2487 -0.0141  0.9404
  595MOL0     C80218  10.814   6.297   8.613 -0.0819 -0.1919  0.6608
  595MOL0     C80219  10.822   6.277   8.869  0.0043  0.0082 -0.0650
  595MOL0     C80220  10.781   6.418   8.899  0.6732  0.6271 -0.0028
  595MOL0     O80221  10.676   6.469   8.828 -0.9801 -0.2031 -0.1750
  595MOL0     C80222  10.638   6.601   8.839 -0.0931  1.2172  1.2327
  595MOL0     C80223  10.541   6.626   8.932  1.0577 -0.6135 -0.3944
  595MOL0     C80224  10.494   6.755   8.946 -0.1951 -0.1610  0.4020
  595MOL0     C80225  10.516   6.850   8.838 -1.0238 -0.3309 -0.1264
  595MOL0     O80226  10.451   6.973   8.835  0.1326  0.7829 -0.7065
  595MOL0     C80227  10.375   7.013   8.949  0.3338 -0.2779 -0.3929
  595MOL0     C80228  10.322   7.149   8.946 -0.5831 -0.7296  0.3517
  595MOL0     C80229  10.426   7.263   8.956  0.0154  0.1467 -0.3619
  595MOL0     C80230  10.361   7.387   8.876 -0.3569 -0.6361  0.4027
  595MOL0     C80231  10.426   7.515   8.930  0.4199 -0.4149  0.0868
  595MOL0     C80232  10.369   7.642   8.862  0.5161 -0.3382  0.5646
  595MOL0     C80233  10.424   7.753   8.941 -0.0605 -0.0821  0.3101
  595MOL0     C80234  10.393   7.894   8.887 -0.1429 -0.6073  0.8971
  595MOL0    Cl80235  10.507   7.929   8.749 -0.4759 -0.2691 -0.0314
  595MOL0     C80236  10.614   6.828   8.745 -0.0384  0.9968 -0.7529
  595MOL0     C80237  10.674   6.697   8.748  0.2170  0.3253 -0.3512
  595MOL0     O80238  10.845   6.481   8.983 -1.4302  0.2199 -0.7301
  595MOL0     C80239  10.856   6.190   8.973  0.2216  0.2048 -0.3639
  595MOL0     C80240  10.899   6.060   8.942  0.3391  0.2795  0.1021
  595MOL0     N80241  10.939   5.311   8.543 -0.3661 -0.5680 -0.0945
  595MOL0     N80242  10.907   5.251   8.430 -0.5431 -1.2014  1.8487
  595MOL0     C80243  11.263   4.668   7.527  0.4207  0.0814  1.0904
  595MOL0     C80244  11.309   4.558   7.447  0.0342  0.2237  0.3807
  595MOL0     C80245  11.500   4.131   7.397  1.0505 -0.5221 -0.2314
  595MOL0     C80246  11.419   4.045   7.322 -0.7873 -0.1688  0.2374
  595MOL0     C80247  11.479   3.939   7.252  1.0571  0.1563  0.0615
  595MOL0     C80248  11.606   3.911   7.265 -1.2747 -0.4447  0.1569
  595MOL0     O80249  11.660   3.796   7.215 -0.0963 -0.3847  0.5402
  595MOL0     C80250  11.792   3.778   7.198 -0.7842  0.1090  0.2234
  595MOL0     C80251  11.817   3.660   7.108 -0.3748 -0.3638  0.1336
  595MOL0     C80252  11.736   3.667   6.973 -0.1022 -1.3171  0.6948
  595MOL0     C80253  11.762   3.551   6.880 -0.3264  1.1168 -0.4388
  595MOL0     C80254  11.667   3.534   6.763 -0.4971 -0.7902  0.2800
  595MOL0     C80255  11.598   3.525   6.663  0.2248  0.2498 -0.0046
  595MOL0     C80256  11.690   4.004   7.338  0.6928  0.3168 -0.0896
  595MOL0     C80257  11.636   4.112   7.395  0.8174 -0.4334  0.2312
  595MOL0     H80258  11.217   4.312   7.665  0.1962  0.0382  0.9564
  595MOL0     H80259  11.166   4.485   7.804 -0.6407 -0.5319 -0.6069
  595MOL0     H80260  11.010   4.684   7.827 -0.1709  1.2784 -1.3720
  595MOL0     H80261  11.169   4.704   7.923 -1.2619 -0.6665  1.0360
  595MOL0     H80262  11.136   4.961   7.899 -0.1776  1.6223 -0.5420
  595MOL0     H80263  10.973   4.911   7.848  1.8212 -1.2305 -2.1438
  595MOL0     H80264  11.028   4.760   8.085  2.2863  0.2027  1.8233
  595MOL0     H80265  11.084   4.925   8.125 -1.5638 -0.1434  0.5684
  595MOL0     H80266  10.808   4.839   8.058 -0.7390  1.2577 -1.0268
  595MOL0     H80267  10.855   4.919   8.198 -1.6659  1.5486 -1.2875
  595MOL0     H80268  10.845   5.067   7.941 -0.9014  3.9222 -0.0249
  595MOL0     H80269  10.719   5.056   8.051  0.0715 -1.5698 -1.0107
  595MOL0     H80270  10.925   5.127   8.207  0.4741 -0.6052  0.1239
  595MOL0     H80271  10.992   5.192   8.047 -2.1041  0.1699 -4.1348
  595MOL0     H80272  10.880   5.391   8.128 -0.0625  0.0592 -1.3873
  595MOL0     H80273  10.740   5.312   8.049 -1.8776  1.9559  1.5696
  595MOL0     H80274  10.684   5.196   8.274 -1.2471 -0.0848  0.3576
  595MOL0     H80275  10.644   5.365   8.267  0.5476  0.6042  1.6965
  595MOL0     H80276  10.662   5.471   8.466  0.7049  0.1951 -4.0194
  595MOL0     H80277  10.733   5.501   8.741  0.0543  2.0715  1.1048
  595MOL0     H80278  10.862   5.389   8.776 -1.5247 -1.3253  0.0407
  595MOL0     H80279  10.913   5.657   8.632  0.7989 -1.4414 -2.5728
  595MOL0     H80280  11.018   5.540   8.730 -0.3148 -0.3021  3.4484
  595MOL0     H80281  10.898   5.603   8.944  1.0378  3.6252  3.9474
  595MOL0     H80282  10.795   5.712   8.853  0.7444  2.0680  0.6656
  595MOL0     H80283  11.089   5.749   8.846 -0.4873 -0.0972  0.2701
  595MOL0     H80284  10.991   5.823   8.971 -1.9754  0.2775  0.5520
  595MOL0     H80285  10.885   6.054   8.612 -0.8032  0.6661 -0.5981
  595MOL0     H80286  10.710   6.315   8.585  1.1250  2.3666 -2.8876
  595MOL0     H80287  10.860   6.395   8.629  0.4674 -0.5455  1.3170
  595MOL0     H80288  10.864   6.246   8.530 -0.8447  1.9884 -1.2343
  595MOL0     H80289  10.509   6.548   9.001 -0.9090  1.2815  0.9637
  595MOL0     H80290  10.427   6.780   9.028  0.5465  1.2326  0.6071
  595MOL0     H80291  10.292   6.943   8.958 -0.4408  0.7243  0.6347
  595MOL0     H80292  10.451   6.995   9.025  1.7425  1.2872 -1.3570
  595MOL0     H80293  10.274   7.160   8.848 -2.4145 -1.5876  1.1021
  595MOL0     H80294  10.249   7.160   9.027  0.5502  0.2594  1.2803
  595MOL0     H80295  10.520   7.228   8.911  0.9420  1.6150  0.3273
  595MOL0     H80296  10.443   7.282   9.063  1.2043  0.3779 -0.5776
  595MOL0     H80297  10.391   7.368   8.772 -2.5022  2.2275 -0.8851
  595MOL0     H80298  10.253   7.383   8.887 -1.0995 -5.0816 -4.4723
  595MOL0     H80299  10.535   7.506   8.929  0.3404 -1.7576  0.9650
  595MOL0     H80300  10.401   7.518   9.036 -0.0250  2.5871 -0.0157
  595MOL0     H80301  10.392   7.651   8.756 -1.2688 -1.2086  0.0666
  595MOL0     H80302  10.260   7.641   8.861  0.4518 -1.3702  2.6635
  595MOL0     H80303  10.533   7.742   8.939 -0.1364 -2.1528  2.7175
  595MOL0     H80304  10.378   7.743   9.040 -2.0853  0.9128 -0.4650
  595MOL0     H80305  10.395   7.975   8.961 -0.8676 -1.3345  1.7337
  595MOL0     H80306  10.290   7.889   8.852 -0.3617 -3.3235  1.7330
  595MOL0     H80307  10.632   6.902   8.668  0.2565  2.2833  0.4969
  595MOL0     H80308  10.755   6.689   8.676 -0.4387  0.5980 -1.1406
  595MOL0     H80309  10.860   6.225   9.076 -0.7321 -2.0610  0.5174
  595MOL0     H80310  10.940   6.015   9.032  0.5857 -0.8724 -0.5635
  595MOL0     H80311  11.262   4.773   7.498 -2.4055 -0.6240 -1.9364
  595MOL0     H80312  11.348   4.578   7.347 -0.3194  1.2128  0.4315
  595MOL0     H80313  11.312   4.063   7.325 -0.9711 -1.3425  1.7064
  595MOL0     H80314  11.411   3.876   7.196 -0.2683  0.4990  1.2345
  595MOL0     H80315  11.820   3.861   7.132  0.4836 -0.6793 -0.2663
  595MOL0     H80316  11.842   3.761   7.294  0.1338 -3.2580 -0.7181
  595MOL0     H80317  11.796   3.568   7.164 -2.3684  0.4676  0.8377
  595MOL0     H80318  11.924   3.663   7.087  0.0447 -0.8523  2.0338
  595MOL0     H80319  11.764   3.760   6.922 -2.3603 -1.1449 -0.3751
  595MOL0     H80320  11.628   3.665   6.987  0.0174 -1.5386  1.6495
  595MOL0     H80321  11.742   3.463   6.942 -0.7229  1.7754  0.3901
  595MOL0     H80322  11.864   3.545   6.843  0.0755 -1.0061  0.8750
  595MOL0     H80323  11.552   3.526   6.566  1.2356  1.3327 -0.4908
  595MOL0     H80324  11.795   3.977   7.346  0.2735 -0.7905  2.6963
  595MOL0     H80325  11.716   4.172   7.437  2.8517 -3.0251  0.3179
  596MOL0     O80326   8.678   6.816   8.751 -0.0421 -0.6352 -0.4085
  596MOL0     C80327   8.680   6.806   8.627  0.5944 -0.0342  0.6061
  596MOL0     O80328   8.619   6.709   8.553 -0.1254  0.1323 -0.2312
  596MOL0     C80329   8.538   6.616   8.622  0.2154 -0.0828 -0.6456
  596MOL0     C80330   8.561   6.479   8.598 -0.0593  1.0972 -0.0644
  596MOL0     C80331   8.490   6.377   8.672 -0.9943 -0.5001  0.7990
  596MOL0     C80332   8.413   6.409   8.780  0.5808 -0.0296 -0.5227
  596MOL0     O80333   8.362   6.311   8.866 -0.3895 -1.2832 -0.2221
  596MOL0     C80334   8.378   6.334   9.013  0.7464 -0.1506  0.9410
  596MOL0     C80335   8.322   6.231   9.100  0.8919  0.1472  0.1237
  596MOL0     C80336   8.400   6.097   9.097  0.4339 -0.2326 -0.8010
  596MOL0     C80337   8.403   6.028   8.959 -0.1084 -0.3416  0.5390
  596MOL0     C80338   8.272   6.002   8.892 -0.6998  1.0336 -0.9156
  596MOL0     C80339   8.298   5.914   8.766  1.1352 -0.6498  1.1180
  596MOL0     C80340   8.166   5.913   8.690 -0.3531 -0.0718  1.3650
  596MOL0     C80341   8.037   5.862   8.773  0.4536 -0.0706  0.2575
  596MOL0     N80342   8.041   5.723   8.831 -1.1330 -0.1688 -0.7171
  596MOL0     C80343   8.067   5.621   8.748 -0.2155  0.4038  0.2627
  596MOL0     C80344   8.043   5.512   8.828 -0.2421 -0.0063 -0.3484
  596MOL0     C80345   8.064   5.371   8.795 -0.2303  0.4332  0.0633
  596MOL0     C80346   8.138   5.281   8.888 -0.0747 -0.0788 -1.0244
  596MOL0     C80347   8.283   5.326   8.905 -0.4314 -0.1614  0.1276
  596MOL0     C80348   8.377   5.272   8.793  0.0892 -0.3025  0.4161
  596MOL0     O80349   8.370   5.369   8.677  0.4980 -0.0578  0.4635
  596MOL0     C80350   8.446   5.477   8.659 -0.4194 -0.8506 -0.1069
  596MOL0     C80351   8.457   5.532   8.527 -0.3679 -0.4386  0.0871
  596MOL0     C80352   8.538   5.650   8.501  0.2475 -0.0394 -0.1304
  596MOL0     C80353   8.551   5.695   8.358  0.3363  0.2955 -0.0499
  596MOL0     C80354   8.618   5.701   8.605  0.1281 -0.2937  0.4869
  596MOL0     C80355   8.718   5.811   8.599 -0.5942 -0.3101  1.5749
  596MOL0     O80356   8.801   5.820   8.710  0.9144  0.0242  0.6118
  596MOL0     C80357   8.826   5.948   8.760  0.1635  0.5211 -0.2128
  596MOL0     C80358   8.758   6.071   8.744 -0.1667 -1.0995  0.1262
  596MOL0     C80359   8.828   6.184   8.772 -0.0649  0.6014  0.1589
  596MOL0     C80360   8.958   6.180   8.813 -0.5606 -0.4487  0.4230
  596MOL0     O80361   9.021   6.305   8.817  0.0281  0.0245  0.8405
  596MOL0     C80362   9.155   6.328   8.828  0.6137 -0.3143  0.2672
  596MOL0     C80363   9.183   6.385   8.976  0.1763  1.0641 -1.3833
  596MOL0     C80364   9.236   6.524   8.990  0.4179  0.4317  0.0894
  596MOL0     C80365   9.210   6.583   9.134  0.8947  0.8148 -0.5041
  596MOL0     C80366   9.206   6.736   9.151  0.7341 -0.5571 -0.3000
  596MOL0     C80367   9.340   6.819   9.113  0.2919  0.1449 -0.1975
  596MOL0     C80368   9.462   6.770   9.191 -0.3933 -1.2511  0.5102
  596MOL0     C80369   9.585   6.863   9.181  0.4981  0.6453  0.5514
  596MOL0    Cl80370   9.549   7.007   9.288  0.4545 -0.0092  0.3834
  596MOL0     C80371   9.018   6.061   8.854 -0.9390  0.1949 -0.6302
  596MOL0     C80372   8.952   5.944   8.826 -0.2925 -0.0993 -0.0683
  596MOL0     O80373   8.713   5.893   8.500  0.7021 -0.0279  0.2431
  596MOL0     C80374   8.608   5.641   8.733  0.8496 -0.3055 -0.9645
  596MOL0     C80375   8.528   5.532   8.764  1.1419 -0.4595  0.2974
  596MOL0     N80376   8.021   5.551   8.962  0.1951 -0.2985  0.4349
  596MOL0     N80377   8.017   5.682   8.954 -0.8810  0.5883 -0.3601
  596MOL0     C80378   8.386   6.554   8.804  0.1575  1.1101 -0.3954
  596MOL0     C80379   8.450   6.648   8.721  0.3258 -0.1131  0.0854
  596MOL0     C80380   8.754   6.915   8.556  0.3459 -0.1723 -0.1897
  596MOL0     C80381   8.784   6.923   8.426 -0.4250 -0.0683 -0.5311
  596MOL0     C80382   8.820   7.033   8.361  0.7396 -0.4392  0.0407
  596MOL0     C80383   8.870   7.143   8.445 -0.4015  0.0707  1.0428
  596MOL0     O80384   8.907   7.273   8.411  0.2903  0.3886 -0.5321
  596MOL0     C80385   8.936   7.306   8.272  0.2677  1.0175 -0.6297
  596MOL0     C80386   8.968   7.458   8.277  0.1535  0.3685  0.7201
  596MOL0     C80387   8.962   7.524   8.140 -0.1094 -0.1699  0.6480
  596MOL0     C80388   9.011   7.664   8.155  0.1975  0.0777 -0.4520
  596MOL0     C80389   9.029   7.716   8.023  0.1279 -0.4599 -0.1098
  596MOL0     C80390   9.049   7.771   7.914 -0.1138 -1.6149 -0.5601
  596MOL0     C80391   8.869   7.125   8.575 -0.2729  0.3426 -0.1043
  596MOL0     C80392   8.811   7.010   8.632 -0.3904  0.0016 -0.3807
  596MOL0     H80393   8.639   6.448   8.529 -0.7152  1.1842 -0.8714
  596MOL0     H80394   8.504   6.272   8.649 -0.3619 -0.7241  2.1730
  596MOL0     H80395   8.483   6.354   9.033  0.6291  2.8443 -0.9194
  596MOL0     H80396   8.312   6.420   9.027 -0.5116 -1.1802  1.6369
  596MOL0     H80397   8.331   6.269   9.202  0.3259  0.0845  0.1962
  596MOL0     H80398   8.218   6.216   9.071  1.4703 -2.1077 -1.0126
  596MOL0     H80399   8.498   6.096   9.144 -0.9452 -1.8493  2.3910
  596MOL0     H80400   8.350   6.028   9.167  0.1020 -2.3029 -2.9381
  596MOL0     H80401   8.478   6.078   8.897  1.4696 -2.3220  0.7486
  596MOL0     H80402   8.451   5.930   8.968  0.0635 -0.4974 -1.5790
  596MOL0     H80403   8.220   5.938   8.964  2.3735 -0.1386  0.4857
  596MOL0     H80404   8.232   6.099   8.860 -1.0229  0.7238 -1.4531
  596MOL0     H80405   8.387   5.953   8.714 -0.1827  2.2524  0.8290
  596MOL0     H80406   8.312   5.808   8.790  1.7400 -1.3035 -1.7814
  596MOL0     H80407   8.151   6.014   8.650 -2.1443 -1.2678 -1.2401
  596MOL0     H80408   8.176   5.842   8.608 -2.0246  1.1883 -0.0124
  596MOL0     H80409   7.957   5.864   8.698  0.8604  0.6611 -0.1676
  596MOL0     H80410   8.018   5.936   8.852  1.7536  1.5318 -0.8808
  596MOL0     H80411   8.099   5.615   8.645  2.2761 -1.7319  1.0414
  596MOL0     H80412   7.966   5.323   8.778 -0.0784  0.8027 -2.1132
  596MOL0     H80413   8.123   5.372   8.703 -0.9829 -1.2650 -0.4928
  596MOL0     H80414   8.128   5.178   8.854  1.5882 -0.4333 -0.4954
  596MOL0     H80415   8.092   5.271   8.987  0.0713 -0.6875 -1.0187
  596MOL0     H80416   8.323   5.282   8.997  0.3375 -1.1598 -0.6656
  596MOL0     H80417   8.283   5.431   8.934 -1.4806 -0.2032  0.3236
  596MOL0     H80418   8.343   5.177   8.753 -2.7675  1.7664 -2.6177
  596MOL0     H80419   8.480   5.272   8.830  0.5853 -0.3537 -0.9267
  596MOL0     H80420   8.385   5.504   8.450  1.3639  3.5176 -3.3969
  596MOL0     H80421   8.505   5.623   8.290  0.4831  1.0915 -1.0148
  596MOL0     H80422   8.516   5.798   8.350  0.7865  0.5424  0.8925
  596MOL0     H80423   8.656   5.691   8.328 -0.3825 -2.8024 -2.6605
  596MOL0     H80424   8.672   6.079   8.678  0.6293 -1.9980 -1.0366
  596MOL0     H80425   8.776   6.278   8.752 -0.1731  0.3226 -0.9236
  596MOL0     H80426   9.209   6.235   8.807 -1.8601 -1.8197  0.0802
  596MOL0     H80427   9.183   6.413   8.765 -0.8010  0.3496  0.4905
  596MOL0     H80428   9.088   6.371   9.029 -0.3960 -0.5167 -2.7109
  596MOL0     H80429   9.252   6.316   9.026  0.2001  0.8167 -1.7485
  596MOL0     H80430   9.179   6.576   8.912 -4.5271 -4.0309  0.1481
  596MOL0     H80431   9.341   6.540   8.966 -0.1266  2.4953 -1.1832
  596MOL0     H80432   9.113   6.564   9.181  1.9685  2.3512  2.6289
  596MOL0     H80433   9.294   6.552   9.196  3.2539  2.7982 -2.5215
  596MOL0     H80434   9.183   6.761   9.255  0.7163  0.7159 -0.5877
  596MOL0     H80435   9.123   6.776   9.092 -0.3513  2.7515  3.0348
  596MOL0     H80436   9.355   6.793   9.008  1.2508 -1.9836  0.4159
  596MOL0     H80437   9.321   6.927   9.120  1.1949  0.4354 -1.9163
  596MOL0     H80438   9.497   6.671   9.159  2.3886  0.0823 -0.9414
  596MOL0     H80439   9.435   6.767   9.297  1.5697 -3.6665  1.0336
  596MOL0     H80440   9.598   6.898   9.078  1.0085  0.3720  0.5234
  596MOL0     H80441   9.680   6.815   9.204 -0.3835 -1.1427  0.6248
  596MOL0     H80442   9.111   6.057   8.909 -1.9390 -2.9814  1.0635
  596MOL0     H80443   9.004   5.852   8.850  2.5422  1.3292 -0.3363
  596MOL0     H80444   8.653   5.684   8.822  1.6173 -2.8436 -0.0352
  596MOL0     H80445   8.532   5.496   8.866 -1.1815 -1.2996  0.1439
  596MOL0     H80446   8.330   6.596   8.887 -0.3198  2.6317 -1.4576
  596MOL0     H80447   8.429   6.753   8.737  1.5069  0.6228 -2.6958
  596MOL0     H80448   8.750   6.836   8.371 -2.2104  2.0953 -3.1211
  596MOL0     H80449   8.807   7.041   8.254  0.4987 -3.2133 -0.2190
  596MOL0     H80450   9.023   7.247   8.240 -0.8104 -3.0663  2.9288
  596MOL0     H80451   8.852   7.288   8.205  0.8683  0.6906 -1.3156
  596MOL0     H80452   9.068   7.479   8.316  0.5557  0.3685 -0.2986
  596MOL0     H80453   8.904   7.507   8.351  1.6907  0.6233  1.9484
  596MOL0     H80454   8.855   7.524   8.119 -0.2221  1.7192  1.0137
  596MOL0     H80455   9.016   7.461   8.069 -2.2270 -2.9139  1.3324
  596MOL0     H80456   9.109   7.664   8.204  0.4177 -0.3682 -0.8955
  596MOL0     H80457   8.945   7.726   8.216  0.8516  0.7500 -0.4003
  596MOL0     H80458   9.045   7.810   7.814  2.7900  0.3145 -0.0639
  596MOL0     H80459   8.900   7.210   8.635  3.9700 -1.1663  0.1687
  596MOL0     H80460   8.824   6.997   8.739  1.0685  0.9559 -0.4149
  597MOL0     O80461   7.612   7.811   4.847 -0.1121  0.2238  0.5417
  597MOL0     C80462   7.694   7.774   4.758 -0.3015  0.3757  0.0130
  597MOL0     O80463   7.790   7.669   4.763 -0.8579 -0.6365 -0.3066
  597MOL0     C80464   7.786   7.583   4.872  0.5970  0.2352  1.3722
  597MOL0     C80465   7.669   7.539   4.940 -0.2966 -0.8329 -0.1118
  597MOL0     C80466   7.678   7.445   5.044 -0.7581 -0.0375  1.1425
  597MOL0     C80467   7.804   7.384   5.067 -0.0098  0.2584  0.4916
  597MOL0     O80468   7.829   7.314   5.184  0.9160  0.2641  0.3631
  597MOL0     C80469   7.769   7.387   5.306 -0.5214  0.5846 -0.0308
  597MOL0     C80470   7.844   7.338   5.426  0.9607  0.3282 -0.2712
  597MOL0     C80471   7.836   7.432   5.553  0.9513 -0.6111  0.7956
  597MOL0     C80472   7.898   7.375   5.681 -0.2937 -0.3292 -0.2497
  597MOL0     C80473   7.902   7.480   5.792 -0.2486  0.5754 -0.0632
  597MOL0     C80474   7.957   7.416   5.927 -0.6887  0.3173  1.3295
  597MOL0     C80475   8.047   7.521   6.001  1.0603  0.4475 -0.9397
  597MOL0     C80476   7.964   7.642   6.050 -0.6186 -0.1984 -0.5005
  597MOL0     N80477   7.923   7.630   6.190  0.4379  0.4037  0.4186
  597MOL0     C80478   7.991   7.674   6.301 -0.3154 -0.1855 -0.1880
  597MOL0     C80479   7.896   7.654   6.403 -0.3235 -0.3300  0.5088
  597MOL0     C80480   7.912   7.678   6.545 -0.0570  1.0006  1.2611
  597MOL0     C80481   8.061   7.635   6.580  0.6828 -0.4180  0.0044
  597MOL0     C80482   8.094   7.673   6.731  0.1568 -0.6571  0.2845
  597MOL0     C80483   7.991   7.610   6.830 -0.1827  0.1205 -0.3535
  597MOL0     O80484   8.040   7.609   6.966  0.8703  0.6021 -0.2725
  597MOL0     C80485   7.984   7.692   7.057 -0.0456 -0.1779  0.2511
  597MOL0     C80486   7.848   7.726   7.061  0.3294  0.0459  0.2513
  597MOL0     C80487   7.794   7.800   7.169 -0.0134  0.7766 -0.4856
  597MOL0     C80488   7.649   7.829   7.172  0.4046 -0.1643  0.0436
  597MOL0     C80489   7.879   7.849   7.264 -0.8478 -0.8272 -0.7100
  597MOL0     C80490   7.840   7.928   7.384 -0.5293  0.9149 -0.2026
  597MOL0     O80491   7.743   7.884   7.467 -0.0998  0.7928 -0.3913
  597MOL0     C80492   7.715   7.949   7.583 -0.2972 -0.1970 -0.2496
  597MOL0     C80493   7.731   8.079   7.628  0.6463  0.3222  0.7913
  597MOL0     C80494   7.696   8.118   7.758  0.4812  1.1717  0.0020
  597MOL0     C80495   7.625   8.027   7.835  0.3197 -0.7216  0.4458
  597MOL0     O80496   7.576   8.066   7.951  0.4360  0.5568 -0.3814
  597MOL0     C80497   7.618   7.999   8.065  0.7742 -0.0552  0.0933
  597MOL0     C80498   7.548   8.040   8.196  0.7915 -0.6631 -0.4075
  597MOL0     C80499   7.433   7.942   8.243  0.1167 -0.1214 -0.1583
  597MOL0     C80500   7.476   7.803   8.291 -0.1553  0.5270  1.2231
  597MOL0     C80501   7.361   7.723   8.362 -0.0760 -0.6547 -0.0368
  597MOL0     C80502   7.430   7.594   8.415 -0.1334 -0.2009 -1.0071
  597MOL0     C80503   7.427   7.466   8.334 -0.7555  0.4720  0.6272
  597MOL0     C80504   7.465   7.343   8.415  0.6065 -0.0970  1.2077
  597MOL0    Cl80505   7.445   7.194   8.324  0.0983 -0.2892 -0.2674
  597MOL0     C80506   7.592   7.903   7.789  0.1975  0.1562 -0.2196
  597MOL0     C80507   7.633   7.867   7.666 -0.4032 -0.1459 -1.0758
  597MOL0     O80508   7.897   8.031   7.407 -0.6637 -0.2873 -0.1685
  597MOL0     C80509   8.017   7.822   7.249  0.0769  0.4333 -0.4306
  597MOL0     C80510   8.066   7.744   7.149 -0.2235 -1.2328  0.6362
  597MOL0     N80511   7.782   7.610   6.340  0.1491 -0.3542  0.0430
  597MOL0     N80512   7.800   7.586   6.214 -0.0357 -0.7077 -0.0513
  597MOL0     C80513   7.922   7.415   4.990  0.3197  0.4046 -0.5814
  597MOL0     C80514   7.904   7.513   4.891 -1.2939  0.5525 -1.0628
  597MOL0     C80515   7.689   7.846   4.630  0.4051  0.1304  1.0009
  597MOL0     C80516   7.608   7.958   4.604 -0.1536 -0.0111  0.6921
  597MOL0     C80517   7.599   8.022   4.480 -0.5392 -0.2080 -0.6132
  597MOL0     C80518   7.683   7.976   4.381  0.5790 -0.4565 -0.5856
  597MOL0     O80519   7.686   8.046   4.264 -0.6190  0.0722  0.3752
  597MOL0     C80520   7.564   8.056   4.193 -0.3905  1.0258  0.5853
  597MOL0     C80521   7.602   8.096   4.046  0.0733 -0.8472 -0.5318
  597MOL0     C80522   7.646   7.994   3.947 -0.2242 -0.2768  0.5109
  597MOL0     C80523   7.697   8.068   3.825 -0.1534  0.3545  0.1396
  597MOL0     C80524   7.587   8.121   3.742  0.1415  0.0864 -0.4551
  597MOL0     C80525   7.507   8.140   3.647 -0.7735  0.1162  0.1502
  597MOL0     C80526   7.763   7.865   4.398  0.1694 -0.9045 -0.1561
  597MOL0     C80527   7.754   7.794   4.515 -1.1698 -0.7713  0.4245
  597MOL0     H80528   7.577   7.588   4.910  1.6386  2.2930 -1.4450
  597MOL0     H80529   7.597   7.404   5.104 -2.0374  2.5321  1.3484
  597MOL0     H80530   7.778   7.496   5.294 -1.7035  0.4903 -2.3609
  597MOL0     H80531   7.663   7.368   5.328  0.0799 -2.5166  0.5741
  597MOL0     H80532   7.793   7.247   5.459 -2.8483  3.0636  2.3118
  597MOL0     H80533   7.947   7.310   5.405  0.4849 -1.5830 -0.1909
  597MOL0     H80534   7.886   7.527   5.534  0.3114 -0.2310  0.9591
  597MOL0     H80535   7.735   7.463   5.584  1.0185 -0.0474  0.4658
  597MOL0     H80536   7.816   7.308   5.707 -3.6076  3.5085  0.1185
  597MOL0     H80537   7.996   7.331   5.658 -0.4598  1.0567 -4.6897
  597MOL0     H80538   7.957   7.573   5.773 -0.2609  0.7770  0.8441
  597MOL0     H80539   7.797   7.508   5.809 -1.6463 -3.6194 -0.8056
  597MOL0     H80540   7.873   7.369   5.980 -2.1759  0.4894 -0.7708
  597MOL0     H80541   8.027   7.336   5.901  0.5734  1.6172  0.6547
  597MOL0     H80542   8.105   7.474   6.082 -0.3923 -2.9133 -1.6700
  597MOL0     H80543   8.126   7.553   5.932  3.0580  1.3465  1.6262
  597MOL0     H80544   7.877   7.665   5.988  0.7510  1.1278 -2.0647
  597MOL0     H80545   8.030   7.729   6.038  0.4937 -0.9867 -0.3254
  597MOL0     H80546   8.086   7.727   6.309 -0.5855  0.3996 -0.6882
  597MOL0     H80547   7.891   7.780   6.578  0.6929  1.0224  1.6928
  597MOL0     H80548   7.848   7.601   6.589  2.2350 -2.3599 -0.8096
  597MOL0     H80549   8.137   7.682   6.517  1.3706 -0.7058  0.5936
  597MOL0     H80550   8.074   7.527   6.583 -3.9677 -1.1609 -0.5267
  597MOL0     H80551   8.098   7.781   6.747 -2.4552 -0.6125  0.9251
  597MOL0     H80552   8.193   7.625   6.733  0.6222 -0.1336 -3.3842
  597MOL0     H80553   7.974   7.510   6.788 -2.3029  0.6022 -0.7456
  597MOL0     H80554   7.891   7.653   6.832  0.5540  2.0229  3.0404
  597MOL0     H80555   7.778   7.698   6.983  0.2663  0.1337  0.2764
  597MOL0     H80556   7.622   7.822   7.278 -4.5568  0.6376 -0.9444
  597MOL0     H80557   7.638   7.931   7.133 -1.6474 -0.6922 -0.8753
  597MOL0     H80558   7.582   7.762   7.117 -0.6640  0.9581 -0.0580
  597MOL0     H80559   7.793   8.149   7.573 -1.0560  0.4097 -1.1117
  597MOL0     H80560   7.713   8.219   7.793  0.2458  1.2825 -0.2000
  597MOL0     H80561   7.612   7.890   8.054 -3.5144  0.1637 -1.3448
  597MOL0     H80562   7.717   8.039   8.086 -1.3482  4.4604  3.0306
  597MOL0     H80563   7.621   8.033   8.277 -0.4345  3.2272  1.2569
  597MOL0     H80564   7.513   8.143   8.188  5.3619  1.8835  5.2055
  597MOL0     H80565   7.346   7.938   8.177  0.2460  3.3541 -0.7657
  597MOL0     H80566   7.389   7.995   8.328  3.4557  2.7177  0.0359
  597MOL0     H80567   7.526   7.753   8.208  3.0107  2.2632  1.9015
  597MOL0     H80568   7.556   7.809   8.365  0.5521 -1.0997  0.6289
  597MOL0     H80569   7.272   7.706   8.300  0.9318 -0.3086 -1.6331
  597MOL0     H80570   7.311   7.776   8.443  0.5514 -1.2238  0.7302
  597MOL0     H80571   7.534   7.621   8.439  0.3198 -2.8737  0.4253
  597MOL0     H80572   7.390   7.569   8.514  1.2439  1.1395 -0.0507
  597MOL0     H80573   7.499   7.480   8.254 -0.4216 -3.7100 -0.0292
  597MOL0     H80574   7.328   7.453   8.290 -0.2481 -1.3673 -0.0383
  597MOL0     H80575   7.404   7.350   8.506  1.6876 -1.4117  2.0649
  597MOL0     H80576   7.566   7.344   8.457  1.1697 -1.3244 -0.0711
  597MOL0     H80577   7.548   7.834   7.859  1.8672 -0.2682  0.4672
  597MOL0     H80578   7.620   7.763   7.639  2.0005 -1.0481  0.8117
  597MOL0     H80579   8.080   7.859   7.329 -1.1937  2.2501 -0.2159
  597MOL0     H80580   8.173   7.732   7.137 -0.0870  1.4813 -1.7751
  597MOL0     H80581   8.019   7.373   5.016  0.6290  2.4529  2.0041
  597MOL0     H80582   7.993   7.534   4.833 -0.9449  0.7363 -0.4656
  597MOL0     H80583   7.541   7.979   4.687 -0.7820  0.5023  0.0768
  597MOL0     H80584   7.528   8.103   4.466 -3.4122 -1.8777  2.8692
  597MOL0     H80585   7.517   7.957   4.197 -0.7954  1.1163 -1.1850
  597MOL0     H80586   7.498   8.132   4.235  0.6626  2.9760 -1.0858
  597MOL0     H80587   7.670   8.182   4.045  1.8235 -2.1613 -2.4889
  597MOL0     H80588   7.510   8.134   4.001  0.7615  1.8425  0.1096
  597MOL0     H80589   7.570   7.918   3.925  1.8467 -2.2521 -0.1494
  597MOL0     H80590   7.729   7.945   3.998  1.8998  1.9497 -0.6492
  597MOL0     H80591   7.751   7.998   3.760 -1.4662 -0.9423  0.4048
  597MOL0     H80592   7.753   8.158   3.853 -0.3753 -0.1771  2.5161
  597MOL0     H80593   7.435   8.147   3.569 -1.7857 -0.8413  0.9765
  597MOL0     H80594   7.813   7.816   4.315  2.9963 -3.4060  2.7757
  597MOL0     H80595   7.811   7.701   4.516  0.5831  0.2564  0.6238
  598MOL0     O80596   5.804   9.434   5.237  0.3306 -0.5972 -0.6459
  598MOL0     C80597   5.903   9.441   5.302  0.3659 -0.1029 -0.5314
  598MOL0     O80598   5.934   9.356   5.410 -0.2754  0.7930 -0.5654
  598MOL0     C80599   5.864   9.232   5.436 -0.7912  0.6739  0.0072
  598MOL0     C80600   5.870   9.173   5.559 -0.4625 -0.6883  0.1335
  598MOL0     C80601   5.801   9.052   5.585  0.7315 -1.1165 -0.1618
  598MOL0     C80602   5.738   8.979   5.482 -0.8354  1.2617 -0.2955
  598MOL0     O80603   5.692   8.848   5.503 -0.4090 -0.4492  0.8881
  598MOL0     C80604   5.809   8.759   5.519  0.5215 -0.1128 -0.6814
  598MOL0     C80605   5.780   8.614   5.565 -0.0314  0.6151  0.5415
  598MOL0     C80606   5.897   8.549   5.629 -0.6698  0.2818  0.8236
  598MOL0     C80607   5.887   8.405   5.678 -0.3170 -0.0309 -1.0864
  598MOL0     C80608   5.784   8.373   5.782 -0.2360 -0.0445 -0.0707
  598MOL0     C80609   5.793   8.458   5.912 -0.5736 -0.2437  0.6478
  598MOL0     C80610   5.934   8.452   5.981 -1.2465 -0.1663  1.0131
  598MOL0     C80611   5.919   8.534   6.110 -0.4127  0.1842 -0.3464
  598MOL0     N80612   6.042   8.607   6.133 -1.0387 -0.3275 -0.8727
  598MOL0     C80613   6.162   8.533   6.152  0.2150 -0.2511 -0.6105
  598MOL0     C80614   6.262   8.634   6.169  0.3779  0.2929  0.3217
  598MOL0     C80615   6.409   8.610   6.193 -0.4802  0.2428  0.9409
  598MOL0     C80616   6.431   8.472   6.258  0.8636  0.9477 -1.1323
  598MOL0     C80617   6.583   8.445   6.284 -0.6999  0.1108  0.2679
  598MOL0     C80618   6.606   8.316   6.360  0.5553 -0.3900  0.2202
  598MOL0     O80619   6.734   8.278   6.377 -0.0416 -0.0274 -1.0309
  598MOL0     C80620   6.765   8.158   6.440 -0.1050  0.3311 -0.0640
  598MOL0     C80621   6.670   8.068   6.469 -0.3068  0.2200 -0.3831
  598MOL0     C80622   6.690   7.952   6.540  0.2131  0.0160  1.2569
  598MOL0     C80623   6.585   7.838   6.564 -0.4530  0.1692  0.3029
  598MOL0     C80624   6.819   7.928   6.580 -0.8855 -0.5540 -0.5250
  598MOL0     C80625   6.848   7.817   6.674  0.1401 -0.2533 -0.3052
  598MOL0     O80626   6.864   7.692   6.619  0.1665 -0.5302 -0.6964
  598MOL0     C80627   6.846   7.574   6.696  0.6112  0.5631 -0.5912
  598MOL0     C80628   6.932   7.464   6.666  0.2228  0.7056  0.8019
  598MOL0     C80629   6.915   7.349   6.743  1.2677 -0.2070 -0.0861
  598MOL0     C80630   6.815   7.337   6.847 -0.1189 -0.3538  0.1316
  598MOL0     O80631   6.799   7.217   6.915  0.1982 -0.8528 -0.0732
  598MOL0     C80632   6.714   7.208   7.027 -0.5781  0.1505 -0.9350
  598MOL0     C80633   6.699   7.064   7.064  0.7321  0.7018 -0.6886
  598MOL0     C80634   6.593   7.039   7.182 -0.7432 -0.7131  0.2817
  598MOL0     C80635   6.567   6.893   7.241  0.5536 -0.8703  0.2578
  598MOL0     C80636   6.698   6.832   7.283  0.9136 -0.3429  0.5219
  598MOL0     C80637   6.696   6.693   7.343  0.2318  0.1237  0.1528
  598MOL0     C80638   6.657   6.681   7.486  0.0842  0.5789 -0.6051
  598MOL0     C80639   6.714   6.572   7.564 -0.0571  0.1124  0.2266
  598MOL0    Cl80640   6.682   6.412   7.488  0.3227 -0.3742  0.0598
  598MOL0     C80641   6.736   7.452   6.875  0.2520 -0.5673  0.3217
  598MOL0     C80642   6.749   7.567   6.803 -0.0302  0.4690  0.4022
  598MOL0     O80643   6.860   7.853   6.791 -0.0003  0.1085  0.6361
  598MOL0     C80644   6.921   8.015   6.547 -0.5858 -0.3794  0.5968
  598MOL0     C80645   6.895   8.129   6.466 -0.8322  0.5102  0.0953
  598MOL0     N80646   6.203   8.758   6.139 -0.2789  0.4565  0.1252
  598MOL0     N80647   6.072   8.742   6.124  0.3697  0.6913 -0.0947
  598MOL0     C80648   5.748   9.030   5.360 -0.0922  0.3390  0.1183
  598MOL0     C80649   5.807   9.153   5.329 -0.1637  0.0233  0.0613
  598MOL0     C80650   5.986   9.566   5.292 -0.4162  0.5573  0.1776
  598MOL0     C80651   6.061   9.620   5.399 -0.2972 -0.0916 -0.2474
  598MOL0     C80652   6.158   9.721   5.382  0.4973 -0.0537 -0.1892
  598MOL0     C80653   6.193   9.743   5.245 -1.0134 -0.4867  0.5163
  598MOL0     O80654   6.299   9.830   5.202 -0.2579  0.4518  0.4097
  598MOL0     C80655   6.353   9.930   5.291  0.4738  1.0323  0.4676
  598MOL0     C80656   6.403  10.050   5.216  0.8617 -0.1546 -0.1364
  598MOL0     C80657   6.337  10.077   5.080  0.2773  0.2976  0.2052
  598MOL0     C80658   6.399  10.209   5.027  0.7759  0.1672 -0.8021
  598MOL0     C80659   6.537  10.206   4.992 -0.2319  0.6495 -0.3434
  598MOL0     C80660   6.654  10.182   4.962  1.2542  0.4546  0.7020
  598MOL0     C80661   6.128   9.688   5.139  0.1051  0.1678 -0.6121
  598MOL0     C80662   6.012   9.613   5.163 -0.1147  0.0726 -0.5502
  598MOL0     H80663   5.929   9.217   5.638 -0.2719  3.9986 -2.2933
  598MOL0     H80664   5.799   9.021   5.689 -1.1728 -0.3287  0.0741
  598MOL0     H80665   5.860   8.756   5.423  1.6708  0.6159 -0.1234
  598MOL0     H80666   5.877   8.807   5.591 -0.4161  2.7146 -1.5740
  598MOL0     H80667   5.695   8.616   5.634 -0.2092  0.9415  0.3129
  598MOL0     H80668   5.751   8.552   5.480 -0.2506 -0.4510  1.3682
  598MOL0     H80669   5.976   8.547   5.554 -0.8610 -0.3805  0.6314
  598MOL0     H80670   5.935   8.614   5.708 -0.5786  0.0623  0.9598
  598MOL0     H80671   5.889   8.339   5.591  0.0481 -0.4442 -0.7745
  598MOL0     H80672   5.984   8.394   5.727 -0.4188  2.0686 -0.2890
  598MOL0     H80673   5.681   8.386   5.748 -0.3839 -0.2821  0.2767
  598MOL0     H80674   5.807   8.269   5.810  2.9266  0.3727 -0.7038
  598MOL0     H80675   5.769   8.563   5.894 -0.0208 -0.2300 -0.0778
  598MOL0     H80676   5.725   8.416   5.986 -1.4710  0.7310  0.4073
  598MOL0     H80677   5.966   8.348   5.990  0.1864 -0.4338 -4.0309
  598MOL0     H80678   6.009   8.511   5.928 -2.1942 -0.3580 -0.5961
  598MOL0     H80679   5.899   8.466   6.193  3.2815 -1.7581 -0.8235
  598MOL0     H80680   5.840   8.608   6.101 -1.9026 -1.2814  0.2311
  598MOL0     H80681   6.168   8.424   6.154 -0.7844 -0.3360 -1.4915
  598MOL0     H80682   6.465   8.606   6.099 -1.8426 -3.8025  0.1327
  598MOL0     H80683   6.438   8.685   6.268  0.9704  0.9719 -0.2784
  598MOL0     H80684   6.394   8.385   6.203  0.1844 -0.1099  0.9007
  598MOL0     H80685   6.381   8.473   6.356  0.3369 -2.5723 -1.2335
  598MOL0     H80686   6.614   8.530   6.345  0.3111  1.2559 -1.7106
  598MOL0     H80687   6.637   8.436   6.189 -2.1310 -0.9554 -0.5089
  598MOL0     H80688   6.550   8.239   6.307 -2.0841  0.8268  1.0803
  598MOL0     H80689   6.559   8.320   6.459  1.7120 -1.6181  0.8525
  598MOL0     H80690   6.565   8.087   6.450 -0.2211  1.5091  0.3427
  598MOL0     H80691   6.488   7.855   6.517  0.1988 -1.0498 -1.5812
  598MOL0     H80692   6.624   7.746   6.521  3.5473  2.6076 -1.9311
  598MOL0     H80693   6.561   7.815   6.668 -0.8373  0.9520  0.4005
  598MOL0     H80694   7.005   7.483   6.587  1.4243 -1.7789  1.2292
  598MOL0     H80695   6.975   7.261   6.726  3.2439  0.8703  0.9370
  598MOL0     H80696   6.771   7.249   7.111  0.3958 -3.3437  0.2580
  598MOL0     H80697   6.618   7.258   7.010 -0.8772 -0.2450 -0.4321
  598MOL0     H80698   6.656   7.007   6.980 -2.9503 -0.5816  1.8186
  598MOL0     H80699   6.792   7.012   7.088  0.6049  1.2943  1.1847
  598MOL0     H80700   6.503   7.064   7.125 -0.7774 -0.7156  0.3353
  598MOL0     H80701   6.606   7.109   7.265 -1.9600  2.1488 -1.7614
  598MOL0     H80702   6.498   6.914   7.323  0.4197  0.5772 -0.1905
  598MOL0     H80703   6.510   6.839   7.164  1.1354 -0.0099 -0.7996
  598MOL0     H80704   6.742   6.898   7.359  1.2092  0.0800 -0.0115
  598MOL0     H80705   6.759   6.839   7.193 -0.1996 -1.3875 -0.3493
  598MOL0     H80706   6.628   6.632   7.284 -2.3104 -1.3377  4.1520
  598MOL0     H80707   6.794   6.644   7.335 -0.7123 -1.7607 -0.5660
  598MOL0     H80708   6.549   6.672   7.500 -0.0465  1.1766 -1.1894
  598MOL0     H80709   6.692   6.771   7.537 -3.1723 -0.2578  3.6854
  598MOL0     H80710   6.670   6.563   7.664  0.7395 -2.7720  0.4293
  598MOL0     H80711   6.821   6.593   7.573  0.1076 -1.4482  3.2121
  598MOL0     H80712   6.651   7.449   6.941 -0.4129  1.9831 -0.2962
  598MOL0     H80713   6.681   7.650   6.817  2.1489  2.1345  1.6498
  598MOL0     H80714   7.020   7.989   6.583  0.2235 -2.3101 -2.6593
  598MOL0     H80715   6.976   8.192   6.429 -1.3438 -0.1327 -2.3433
  598MOL0     H80716   5.709   8.972   5.277 -0.5505  3.2967 -1.8832
  598MOL0     H80717   5.807   9.192   5.228 -0.0427  2.7368  1.0188
  598MOL0     H80718   6.052   9.585   5.502  0.6000  0.2057 -0.0582
  598MOL0     H80719   6.208   9.760   5.470 -1.0092  0.4176  0.4933
  598MOL0     H80720   6.271   9.960   5.357 -0.4625  1.9077 -1.0366
  598MOL0     H80721   6.439   9.892   5.348  0.4315 -0.3188 -0.3191
  598MOL0     H80722   6.509  10.042   5.192  0.1252 -0.7110 -3.8872
  598MOL0     H80723   6.392  10.139   5.279  1.8949  1.9682 -2.7543
  598MOL0     H80724   6.229  10.088   5.095  0.1230 -1.6455  0.7739
  598MOL0     H80725   6.344   9.993   5.010 -3.5888 -0.9527  1.0255
  598MOL0     H80726   6.386  10.288   5.101 -3.4014 -1.8665  0.9580
  598MOL0     H80727   6.351  10.247   4.936  0.8894 -0.4800 -1.1372
  598MOL0     H80728   6.760  10.179   4.945  0.8689  0.7540 -2.2802
  598MOL0     H80729   6.149   9.715   5.036 -2.3698  2.7803 -0.5730
  598MOL0     H80730   5.952   9.561   5.089 -0.4855  2.0780 -1.7232
  599MOL0     O80731  10.954   1.287   8.610  0.1275 -0.1987  0.4001
  599MOL0     C80732  10.923   1.179   8.659  0.8653  0.0698  0.5991
  599MOL0     O80733  11.007   1.078   8.689 -0.0630  0.3165  0.4396
  599MOL0     C80734  11.136   1.115   8.691 -0.0743 -0.4492  0.3826
  599MOL0     C80735  11.218   1.074   8.589  0.6164 -0.9963 -0.0933
  599MOL0     C80736  11.358   1.092   8.584 -0.8361 -0.1546  0.9327
  599MOL0     C80737  11.421   1.149   8.695  0.3620  0.0329 -0.7011
  599MOL0     O80738  11.560   1.168   8.672 -0.4285  0.1265 -0.0871
  599MOL0     C80739  11.635   1.192   8.793  0.4847  0.3204 -0.1568
  599MOL0     C80740  11.784   1.179   8.743  1.0025 -0.3401 -0.2274
  599MOL0     C80741  11.822   1.050   8.673 -0.8825 -0.1735 -0.2014
  599MOL0     C80742  11.966   1.073   8.627 -0.2228 -0.8896 -0.7228
  599MOL0     C80743  12.036   0.928   8.598 -0.5794  0.1011 -0.2481
  599MOL0     C80744  11.972   0.858   8.483  0.8279  0.5024  0.2588
  599MOL0     C80745  12.039   0.718   8.458  0.1174 -0.8067  0.2728
  599MOL0     C80746  12.153   0.665   8.554  0.8692  0.5976  0.0738
  599MOL0     N80747  12.183   0.522   8.532 -0.4445  0.2586 -0.1268
  599MOL0     C80748  12.212   0.469   8.415  0.4165  0.3079 -0.1331
  599MOL0     C80749  12.244   0.343   8.441 -0.3254 -0.1764 -0.0707
  599MOL0     C80750  12.293   0.238   8.341 -0.1628  0.5874  0.2797
  599MOL0     C80751  12.426   0.283   8.298 -1.0184  0.6990 -0.9397
  599MOL0     C80752  12.536   0.203   8.380 -0.6051 -0.3437  0.4177
  599MOL0     C80753  12.685   0.234   8.336  0.0238  0.6857 -0.6060
  599MOL0     O80754  12.715   0.215   8.197  0.3669 -0.7019  0.6129
  599MOL0     C80755  12.807   0.117   8.171  0.0407 -0.2808 -0.3247
  599MOL0     C80756  12.939   0.121   8.207  0.2914 -0.2243  0.1556
  599MOL0     C80757  13.032   0.020   8.175  0.5497  0.2504 -0.7661
  599MOL0     C80758  13.172   0.047   8.218 -0.0216  0.9258  0.3245
  599MOL0     C80759  12.986  -0.105   8.122  0.1311 -0.4248 -0.3779
  599MOL0     C80760  13.061  -0.234   8.097  0.3413 -0.4576  0.0221
  599MOL0     O80761  12.983  -0.331   8.040 -0.8527  0.0546 -0.1548
  599MOL0     C80762  13.042  -0.451   8.009  0.1340  0.4719 -0.1837
  599MOL0     C80763  13.119  -0.522   8.105 -0.2657  0.6497  0.6775
  599MOL0     C80764  13.186  -0.636   8.054  0.9161  0.2239 -0.2720
  599MOL0     C80765  13.162  -0.688   7.920  0.3931 -0.2254  0.0890
  599MOL0     O80766  13.221  -0.795   7.875  0.3219 -0.1888 -0.6907
  599MOL0     C80767  13.318  -0.866   7.955 -0.1194 -0.9826  0.4768
  599MOL0     C80768  13.238  -0.969   8.045  0.5110 -0.0191  0.1380
  599MOL0     C80769  13.337  -1.073   8.100 -0.4241  0.7282  1.2025
  599MOL0     C80770  13.267  -1.199   8.146  1.1696 -0.2522  0.1850
  599MOL0     C80771  13.182  -1.278   8.040  0.1119 -0.4863 -0.1113
  599MOL0     C80772  13.295  -1.334   7.939  0.4535  0.4589 -0.1891
  599MOL0     C80773  13.234  -1.438   7.846 -0.6566  0.1456  0.5451
  599MOL0     C80774  13.327  -1.507   7.750  0.0728  0.0564  0.0927
  599MOL0    Cl80775  13.498  -1.529   7.804  0.1232 -0.0656 -0.5474
  599MOL0     C80776  13.080  -0.617   7.832 -0.0746  0.2030 -0.5535
  599MOL0     C80777  13.021  -0.496   7.880 -0.3462  0.5849  0.1764
  599MOL0     O80778  13.175  -0.246   8.126  0.5772 -0.2752  0.3889
  599MOL0     C80779  12.848  -0.109   8.094 -0.0074 -0.6978 -0.1883
  599MOL0     C80780  12.763   0.001   8.110  0.1321 -0.0602  0.3675
  599MOL0     N80781  12.222   0.322   8.580 -0.5371  0.6300 -0.1226
  599MOL0     N80782  12.188   0.428   8.630 -0.4777  0.3045  0.3988
  599MOL0     C80783  11.352   1.190   8.804  1.1723  0.2693 -0.3050
  599MOL0     C80784  11.210   1.173   8.802 -0.2949  0.1328 -0.2302
  599MOL0     C80785  10.777   1.144   8.680 -0.1068 -1.0822 -0.0971
  599MOL0     C80786  10.745   1.015   8.736  0.6929  0.0377 -0.0866
  599MOL0     C80787  10.609   0.988   8.760 -0.6134  0.8982 -0.9300
  599MOL0     C80788  10.511   1.090   8.748 -0.5734 -0.3897 -0.3061
  599MOL0     O80789  10.376   1.073   8.761 -0.0678  0.0931 -0.4586
  599MOL0     C80790  10.326   0.947   8.799  0.6474  0.1731 -0.5555
  599MOL0     C80791  10.199   0.954   8.886  0.4057 -0.9331 -0.1344
  599MOL0     C80792  10.224   1.008   9.022  0.3592  0.1065  0.3626
  599MOL0     C80793  10.097   1.043   9.100 -0.0295  0.7785  0.0238
  599MOL0     C80794  10.020   1.138   9.017 -1.1265  0.6742 -0.5537
  599MOL0     C80795   9.977   1.239   8.968 -1.1877 -0.6749  0.5728
  599MOL0     C80796  10.545   1.212   8.689  0.5387 -0.0406 -0.1359
  599MOL0     C80797  10.673   1.239   8.648  0.7859 -0.2671 -0.6862
  599MOL0     H80798  11.169   1.022   8.507  1.7355 -0.1913 -1.3200
  599MOL0     H80799  11.407   1.066   8.491  1.4859  0.1435  1.9923
  599MOL0     H80800  11.613   1.295   8.821  0.5204 -0.1580  1.7824
  599MOL0     H80801  11.601   1.129   8.876  1.6179 -3.1759 -2.1026
  599MOL0     H80802  11.782   1.269   8.682 -1.9420  0.9284  1.5718
  599MOL0     H80803  11.854   1.205   8.823 -0.0079 -0.6732  0.7948
  599MOL0     H80804  11.820   0.961   8.736 -0.7879 -0.5311 -0.7011
  599MOL0     H80805  11.752   1.035   8.590 -0.6846  1.6554 -0.7537
  599MOL0     H80806  11.975   1.135   8.537 -0.4588  1.7364  0.9655
  599MOL0     H80807  12.019   1.123   8.708  0.6909 -3.3206  0.2772
  599MOL0     H80808  12.134   0.962   8.564 -1.0699 -1.5210 -3.7976
  599MOL0     H80809  12.047   0.871   8.690  0.8334 -0.1731 -0.5613
  599MOL0     H80810  11.867   0.843   8.507  0.7442 -1.4588 -1.1060
  599MOL0     H80811  11.968   0.922   8.393  3.5967 -1.2438 -1.2381
  599MOL0     H80812  11.956   0.649   8.475 -1.3078  0.2905 -1.8180
  599MOL0     H80813  12.071   0.712   8.354  0.3082  0.4280  0.2423
  599MOL0     H80814  12.113   0.669   8.656 -0.0824 -4.9547  0.2420
  599MOL0     H80815  12.244   0.726   8.553 -0.7613  3.1725  0.5019
  599MOL0     H80816  12.216   0.521   8.320  0.4722 -2.4781 -1.7696
  599MOL0     H80817  12.291   0.132   8.365  1.7374 -0.2887 -2.7854
  599MOL0     H80818  12.232   0.239   8.250 -0.6633 -0.2160  0.5981
  599MOL0     H80819  12.448   0.386   8.329  2.6599 -0.8546  2.6811
  599MOL0     H80820  12.439   0.264   8.192 -0.4848  0.4600 -0.8331
  599MOL0     H80821  12.525   0.096   8.366  2.3348 -0.7237  0.2973
  599MOL0     H80822  12.538   0.227   8.487  0.3038 -0.1723  0.3767
  599MOL0     H80823  12.747   0.167   8.396 -1.9378 -1.0882 -0.4529
  599MOL0     H80824  12.711   0.336   8.364  0.8676 -0.0254  1.3528
  599MOL0     H80825  12.966   0.215   8.254  0.1643 -0.2289  0.2383
  599MOL0     H80826  13.234   0.030   8.130 -0.1087  4.1488 -0.4784
  599MOL0     H80827  13.189   0.145   8.262  1.7612  0.3176  1.0854
  599MOL0     H80828  13.203  -0.030   8.290 -0.6035 -2.5895 -2.8583
  599MOL0     H80829  13.144  -0.483   8.203 -3.7456  2.0313  1.1448
  599MOL0     H80830  13.261  -0.684   8.116 -0.4825 -2.5882 -0.5952
  599MOL0     H80831  13.373  -0.919   7.877 -2.4549  2.1805 -3.7933
  599MOL0     H80832  13.386  -0.804   8.014 -0.7708  2.0665 -1.7032
  599MOL0     H80833  13.191  -0.933   8.137  1.9768 -3.8500  2.6050
  599MOL0     H80834  13.152  -1.020   7.999 -1.7352  2.1210  1.6827
  599MOL0     H80835  13.389  -1.030   8.187 -1.2304 -0.0903  2.1096
  599MOL0     H80836  13.406  -1.095   8.019 -0.9210  0.4609  0.8504
  599MOL0     H80837  13.342  -1.271   8.180  0.5020 -1.0836 -0.0419
  599MOL0     H80838  13.204  -1.179   8.233  0.4726 -0.1693 -0.3305
  599MOL0     H80839  13.113  -1.212   7.986  0.4403  0.4524  0.5959
  599MOL0     H80840  13.127  -1.357   8.093 -0.7913  0.9844  1.2605
  599MOL0     H80841  13.335  -1.254   7.875  1.7286 -1.6360 -2.1882
  599MOL0     H80842  13.384  -1.377   7.985 -0.8617 -0.7586  1.3222
  599MOL0     H80843  13.147  -1.393   7.796 -1.1025  1.6319  2.5020
  599MOL0     H80844  13.190  -1.519   7.905  1.1158 -3.3782 -2.5755
  599MOL0     H80845  13.333  -1.450   7.657 -0.9342  2.8842  1.6252
  599MOL0     H80846  13.278  -1.603   7.727  0.9386 -0.2327 -0.5877
  599MOL0     H80847  13.073  -0.640   7.726  0.5184  0.5152 -0.6648
  599MOL0     H80848  12.957  -0.438   7.815 -1.3598 -1.0817 -0.3866
  599MOL0     H80849  12.796  -0.203   8.077  0.0782 -0.3775 -2.6911
  599MOL0     H80850  12.658  -0.001   8.082  0.4698 -1.6043 -0.9095
  599MOL0     H80851  11.409   1.229   8.887 -0.5332 -1.2437  1.7102
  599MOL0     H80852  11.156   1.209   8.889 -1.5453  0.2764 -1.0420
  599MOL0     H80853  10.833   0.957   8.761  0.4615  0.8954  3.1238
  599MOL0     H80854  10.584   0.893   8.806 -2.4815  1.5713 -0.4720
  599MOL0     H80855  10.287   0.893   8.712  0.1703 -0.9281  0.3023
  599MOL0     H80856  10.400   0.881   8.845  1.1926  1.7187  0.8785
  599MOL0     H80857  10.167   0.850   8.896  0.2229 -0.6988  2.2898
  599MOL0     H80858  10.120   1.014   8.841  0.9211 -0.4904 -0.4612
  599MOL0     H80859  10.283   1.100   9.012  0.0575  0.2476 -0.1755
  599MOL0     H80860  10.275   0.926   9.073  4.2892  1.0159 -1.6935
  599MOL0     H80861  10.117   1.087   9.199 -1.4151  0.1462  0.6073
  599MOL0     H80862  10.033   0.963   9.136 -1.1315  2.1552  1.2494
  599MOL0     H80863   9.931   1.321   8.916  2.0612 -0.0341 -1.6056
  599MOL0     H80864  10.479   1.299   8.684  1.8618  0.9364 -2.8214
  599MOL0     H80865  10.681   1.327   8.585 -0.2853 -0.5416 -1.2336
  600MOL0     O80866  10.914   8.345   5.268  0.6727 -0.1232 -0.3118
  600MOL0     C80867  10.927   8.318   5.150  0.5799 -0.0042  0.4128
  600MOL0     O80868  10.829   8.311   5.058 -0.4912  0.0461  0.7726
  600MOL0     C80869  10.699   8.351   5.078  0.6536  0.3155  0.5993
  600MOL0     C80870  10.602   8.284   5.007 -0.5300 -0.2991 -0.1378
  600MOL0     C80871  10.478   8.335   5.006  0.1483 -0.5180  0.4638
  600MOL0     C80872  10.440   8.444   5.095 -0.7212  0.0833  0.0267
  600MOL0     O80873  10.314   8.495   5.105  0.7530 -0.2683 -0.2311
  600MOL0     C80874  10.203   8.408   5.074 -0.1685 -0.5716 -0.9130
  600MOL0     C80875  10.086   8.508   5.073  0.0971  1.2400  0.3339
  600MOL0     C80876   9.950   8.439   5.077 -0.4672  0.2723 -0.4167
  600MOL0     C80877   9.923   8.373   5.214 -0.3745 -0.3416  0.3160
  600MOL0     C80878   9.782   8.316   5.204  0.9220 -1.3295  0.8570
  600MOL0     C80879   9.735   8.252   5.331  0.3612  0.2263  0.3932
  600MOL0     C80880   9.601   8.189   5.295 -0.1051  0.4535 -0.0912
  600MOL0     C80881   9.526   8.128   5.418 -0.1529  0.7224  0.5641
  600MOL0     N80882   9.604   8.039   5.511  0.0857 -0.4266 -0.2978
  600MOL0     C80883   9.623   8.056   5.643 -0.0635  0.8068 -0.0658
  600MOL0     C80884   9.685   7.943   5.684  0.4133 -0.6067 -0.4139
  600MOL0     C80885   9.722   7.913   5.831 -0.8762 -0.0988 -0.5813
  600MOL0     C80886   9.807   7.781   5.830 -0.2540 -0.5025  0.4695
  600MOL0     C80887   9.958   7.806   5.771 -0.4488  0.3697 -0.2899
  600MOL0     C80888  10.058   7.690   5.789  0.3733  0.0928 -0.2590
  600MOL0     O80889  10.199   7.746   5.793 -0.0566 -0.1241  1.1255
  600MOL0     C80890  10.300   7.656   5.823  0.9187  0.5921  0.0598
  600MOL0     C80891  10.334   7.560   5.730  0.3505 -0.9277 -0.6572
  600MOL0     C80892  10.433   7.472   5.763 -0.4818  0.4264 -0.4000
  600MOL0     C80893  10.478   7.377   5.663 -0.0640 -1.2715 -0.0708
  600MOL0     C80894  10.508   7.478   5.896 -0.0235 -0.8929 -0.4528
  600MOL0     C80895  10.624   7.391   5.928 -0.4001  0.0141 -0.3039
  600MOL0     O80896  10.722   7.453   6.010 -0.0645  0.1705  0.2000
  600MOL0     C80897  10.837   7.399   6.049 -0.4557 -0.1758  0.8369
  600MOL0     C80898  10.925   7.498   6.098 -0.0438  0.5047 -0.7214
  600MOL0     C80899  11.057   7.464   6.151 -0.1805  0.4559 -0.4802
  600MOL0     C80900  11.107   7.336   6.122  0.9977 -0.0979  0.5718
  600MOL0     O80901  11.240   7.315   6.152 -0.2456 -0.3020  0.1273
  600MOL0     C80902  11.338   7.282   6.057 -0.0753  0.0580 -0.1505
  600MOL0     C80903  11.373   7.129   6.088  0.0393 -0.1551 -0.3577
  600MOL0     C80904  11.432   7.056   5.965 -0.0327 -1.3776  0.4455
  600MOL0     C80905  11.581   7.085   5.936 -0.1429 -0.1577  0.6666
  600MOL0     C80906  11.645   6.987   5.835  0.7102 -0.6090 -0.3742
  600MOL0     C80907  11.794   7.002   5.807 -0.6291 -0.5636 -0.3341
  600MOL0     C80908  11.869   6.939   5.928 -1.1079 -0.4245  0.4470
  600MOL0     C80909  12.015   6.909   5.890  1.2821 -0.0818  0.5319
  600MOL0    Cl80910  12.101   7.070   5.873 -0.3994  0.1846  0.4932
  600MOL0     C80911  11.028   7.239   6.061  0.1556  0.2524 -0.5920
  600MOL0     C80912  10.891   7.270   6.029 -0.2599 -0.6177  0.3174
  600MOL0     O80913  10.617   7.274   5.895  0.3885 -0.1255  0.1273
  600MOL0     C80914  10.474   7.592   5.976 -0.0047 -0.3314 -0.3479
  600MOL0     C80915  10.370   7.675   5.945 -1.1116 -0.5210  0.2004
  600MOL0     N80916   9.704   7.865   5.569  0.3975  0.1403 -0.9587
  600MOL0     N80917   9.660   7.925   5.466 -0.0261 -0.2141 -0.1577
  600MOL0     C80918  10.540   8.505   5.164  0.3425  0.6953 -0.8929
  600MOL0     C80919  10.669   8.464   5.145  0.2895  0.2395 -0.0036
  600MOL0     C80920  11.066   8.318   5.096 -0.3353  1.1160  0.5030
  600MOL0     C80921  11.174   8.386   5.160  0.5644 -0.6290 -1.0543
  600MOL0     C80922  11.295   8.410   5.095 -0.3663 -0.2508  0.0240
  600MOL0     C80923  11.324   8.351   4.964 -0.4435  0.1253 -0.0631
  600MOL0     O80924  11.454   8.345   4.916  0.2628 -0.5058  0.0936
  600MOL0     C80925  11.462   8.327   4.774 -0.5931 -0.0857  0.7542
  600MOL0     C80926  11.525   8.187   4.750  0.5830  0.0834 -0.6882
  600MOL0     C80927  11.573   8.173   4.612  1.3886 -0.5680 -0.1723
  600MOL0     C80928  11.673   8.268   4.565 -0.0132  0.4375 -0.0767
  600MOL0     C80929  11.775   8.308   4.667  0.6060  0.2348  0.5956
  600MOL0     C80930  11.868   8.335   4.738  0.2959  0.1539  0.2895
  600MOL0     C80931  11.219   8.268   4.909  0.1538 -0.6211 -0.2642
  600MOL0     C80932  11.092   8.268   4.964 -0.3952 -0.2676 -0.7043
  600MOL0     H80933  10.625   8.189   4.959  1.8979 -1.9574  3.8338
  600MOL0     H80934  10.402   8.277   4.955  4.2578 -5.7983 -0.6744
  600MOL0     H80935  10.200   8.357   4.978 -0.2807 -1.6869 -0.3303
  600MOL0     H80936  10.203   8.343   5.162  0.0626  1.2629  0.5142
  600MOL0     H80937  10.104   8.568   5.163 -0.1221 -0.6217  1.6699
  600MOL0     H80938  10.096   8.567   4.982 -0.2396 -0.0324 -0.5500
  600MOL0     H80939   9.882   8.522   5.057  0.6455  1.5205  0.8624
  600MOL0     H80940   9.950   8.369   4.992  0.0656  1.7596 -1.6921
  600MOL0     H80941   9.993   8.290   5.231  0.0783  0.1173  0.7299
  600MOL0     H80942   9.936   8.437   5.302 -0.4343 -3.0101  2.4035
  600MOL0     H80943   9.713   8.400   5.190 -1.5059 -3.3691 -0.2040
  600MOL0     H80944   9.760   8.261   5.112 -2.9358  2.3370 -0.7386
  600MOL0     H80945   9.814   8.181   5.355  1.5553  1.5835  0.6014
  600MOL0     H80946   9.730   8.323   5.415 -0.1585  0.4149  0.2096
  600MOL0     H80947   9.532   8.262   5.252 -0.9001  1.7376  3.0547
  600MOL0     H80948   9.626   8.110   5.223  2.6607 -1.7608  2.9894
  600MOL0     H80949   9.444   8.073   5.371  1.1136  2.4141 -4.2459
  600MOL0     H80950   9.503   8.217   5.478  1.9619 -1.1696  4.5185
  600MOL0     H80951   9.599   8.144   5.700  0.9647 -0.9959  3.4571
  600MOL0     H80952   9.782   7.991   5.879 -0.1155 -2.2457  2.2139
  600MOL0     H80953   9.627   7.918   5.886  0.3896  2.8795  1.6059
  600MOL0     H80954   9.766   7.705   5.763  2.5557 -2.4467  0.7701
  600MOL0     H80955   9.814   7.752   5.936  1.6291 -1.2823  0.1720
  600MOL0     H80956  10.004   7.886   5.830 -1.6469  0.9028 -0.0445
  600MOL0     H80957   9.960   7.845   5.668 -2.0140  2.0246  0.2508
  600MOL0     H80958  10.062   7.614   5.710  1.1199  2.0679 -2.2285
  600MOL0     H80959  10.030   7.649   5.887  0.3978 -2.2043 -1.1502
  600MOL0     H80960  10.285   7.564   5.634 -1.7038  0.6345  0.3754
  600MOL0     H80961  10.437   7.278   5.688  1.6042 -2.0968 -0.4160
  600MOL0     H80962  10.447   7.403   5.561  2.1815 -2.3704 -1.1030
  600MOL0     H80963  10.586   7.394   5.653 -0.5336  2.4182 -0.2308
  600MOL0     H80964  10.879   7.595   6.115  0.8106  1.2925 -2.6062
  600MOL0     H80965  11.121   7.540   6.194  0.6682  1.2579 -2.9914
  600MOL0     H80966  11.307   7.306   5.955  0.3020  1.3630  0.0176
  600MOL0     H80967  11.432   7.335   6.077 -0.2479  0.1423  0.4656
  600MOL0     H80968  11.441   7.128   6.174  2.6078 -0.9513 -2.2517
  600MOL0     H80969  11.280   7.073   6.101 -1.5066  2.3350 -0.1603
  600MOL0     H80970  11.366   7.078   5.880  2.1875  0.4134 -0.9305
  600MOL0     H80971  11.422   6.951   5.995 -0.0762 -0.8424  2.4592
  600MOL0     H80972  11.598   7.190   5.909 -0.7084 -0.3839 -0.6124
  600MOL0     H80973  11.653   7.075   6.018  2.9140  0.5132 -1.7282
  600MOL0     H80974  11.596   7.010   5.740  1.3853 -0.2452 -0.6479
  600MOL0     H80975  11.621   6.883   5.858  0.4502 -0.9915 -2.2605
  600MOL0     H80976  11.832   6.950   5.719  1.5263 -0.9515  0.7484
  600MOL0     H80977  11.807   7.111   5.804 -1.8755 -0.4072 -0.5930
  600MOL0     H80978  11.822   6.847   5.965 -1.5473 -1.0104 -1.4572
  600MOL0     H80979  11.857   7.014   6.007 -4.2524 -1.5256  1.1649
  600MOL0     H80980  12.004   6.854   5.796 -4.5798 -0.8063  1.2865
  600MOL0     H80981  12.069   6.852   5.966  0.9592  1.9092  2.3608
  600MOL0     H80982  11.074   7.143   6.042  0.7092  0.4729 -0.3847
  600MOL0     H80983  10.825   7.195   5.986  2.0235 -2.5420 -0.1028
  600MOL0     H80984  10.517   7.602   6.075  2.8650  0.1794 -1.5518
  600MOL0     H80985  10.353   7.768   5.999 -2.3144 -0.8918  0.4733
  600MOL0     H80986  10.507   8.568   5.247  0.8033  1.2049 -1.0908
  600MOL0     H80987  10.744   8.520   5.200  0.3922 -0.4647  0.5982
  600MOL0     H80988  11.163   8.436   5.255  2.5717 -1.0029 -0.5713
  600MOL0     H80989  11.380   8.455   5.145  0.2105  0.3361 -1.4288
  600MOL0     H80990  11.362   8.326   4.728 -1.4524 -1.5528  2.5341
  600MOL0     H80991  11.523   8.411   4.739  1.1333 -1.6696 -0.2162
  600MOL0     H80992  11.449   8.112   4.774 -0.7497  2.0145  1.5860
  600MOL0     H80993  11.607   8.170   4.820  0.8641 -0.5701 -1.1702
  600MOL0     H80994  11.483   8.168   4.550  0.0482 -1.7736  1.7433
  600MOL0     H80995  11.619   8.075   4.593 -1.0447 -1.4526 -1.9878
  600MOL0     H80996  11.626   8.361   4.531 -0.5047  0.0256 -0.5365
  600MOL0     H80997  11.724   8.227   4.477 -0.7101  0.0298 -0.2971
  600MOL0     H80998  11.960   8.346   4.793  1.0938 -3.2384 -0.1609
  600MOL0     H80999  11.245   8.206   4.824  3.1037  0.8912 -0.6135
  600MOL0     H81000  11.014   8.219   4.907  0.7159 -2.9444 -0.0815
  601MOL0     O81001  11.276   7.993   8.968  0.1472  0.4845  0.6128
  601MOL0     C81002  11.190   7.984   8.879 -0.0932  0.4704 -0.0233
  601MOL0     O81003  11.136   8.090   8.801 -0.3243 -0.2179 -0.0281
  601MOL0     C81004  11.170   8.220   8.827 -0.4832 -0.8919 -0.0750
  601MOL0     C81005  11.111   8.274   8.937 -0.6334 -0.2816  0.1192
  601MOL0     C81006  11.115   8.412   8.955  1.2962  0.2088  0.3544
  601MOL0     C81007  11.199   8.488   8.867  0.2944 -0.4814 -0.4884
  601MOL0     O81008  11.201   8.625   8.889 -0.5830  0.3145  0.2812
  601MOL0     C81009  11.235   8.713   8.778 -0.4805 -0.5999  0.1741
  601MOL0     C81010  11.176   8.862   8.810 -0.3677 -1.0407  0.0684
  601MOL0     C81011  11.227   8.907   8.953  0.0111 -0.2010  0.2812
  601MOL0     C81012  11.130   8.864   9.077  0.1137  0.2458  0.0743
  601MOL0     C81013  11.207   8.869   9.216  0.5599  0.2842  0.6123
  601MOL0     C81014  11.112   8.824   9.320 -1.1634 -0.8483  0.9058
  601MOL0     C81015  11.178   8.849   9.463 -0.0010  0.1912  0.1762
  601MOL0     C81016  11.086   8.815   9.579  0.3550  0.2031  0.2316
  601MOL0     N81017  10.963   8.895   9.581  0.4185 -0.2013 -1.1630
  601MOL0     C81018  10.938   9.012   9.642  0.0749 -0.4351 -1.1243
  601MOL0     C81019  10.803   9.041   9.623  0.4038  0.7308  0.3955
  601MOL0     C81020  10.728   9.151   9.686 -0.2546 -0.3374 -0.1328
  601MOL0     C81021  10.788   9.291   9.670 -0.8295 -0.1999 -0.0933
  601MOL0     C81022  10.674   9.389   9.688 -0.4816  0.3595  0.6140
  601MOL0     C81023  10.616   9.406   9.827  0.1716  0.5443 -0.6092
  601MOL0     O81024  10.520   9.303   9.842  0.1148 -0.4324  0.2467
  601MOL0     C81025  10.455   9.282   9.962 -0.4504 -0.0488  1.1279
  601MOL0     C81026  10.373   9.164   9.961 -0.2571 -0.0357 -0.5294
  601MOL0     C81027  10.294   9.129  10.080 -0.3591  0.1456  1.4121
  601MOL0     C81028  10.214   9.002  10.064 -0.1829  0.8757 -0.2089
  601MOL0     C81029  10.315   9.195  10.196 -0.2825 -0.0790  0.3795
  601MOL0     C81030  10.254   9.161  10.323 -0.0743 -0.2518 -1.2435
  601MOL0     O81031  10.117   9.155  10.314  0.2518  0.4478 -0.9208
  601MOL0     C81032  10.042   9.103  10.418 -0.2921  0.1728 -0.2049
  601MOL0     C81033  10.084   8.991  10.484  0.1915  0.1982  0.3228
  601MOL0     C81034  10.010   8.935  10.590 -0.3097 -0.3172  0.5150
  601MOL0     C81035   9.897   9.004  10.635 -0.3767 -0.8942  0.9903
  601MOL0     O81036   9.809   8.960  10.723 -0.1821  0.1925 -0.3076
  601MOL0     C81037   9.692   8.895  10.667 -0.0130  0.6054 -0.0632
  601MOL0     C81038   9.618   8.832  10.783  0.0146 -0.5443  0.3928
  601MOL0     C81039   9.554   8.942  10.877 -0.1996  0.4077 -0.3106
  601MOL0     C81040   9.615   8.910  11.018  0.1418 -0.1103  0.4520
  601MOL0     C81041   9.568   8.995  11.139  0.9540  0.2377  1.2060
  601MOL0     C81042   9.414   9.012  11.136 -0.4611 -0.3913  0.8388
  601MOL0     C81043   9.391   9.121  11.242  0.9697  0.4781  0.1006
  601MOL0     C81044   9.263   9.099  11.318  0.7439  0.6907  0.4534
  601MOL0    Cl81045   9.248   9.243  11.427  0.1802  0.0701  0.0151
  601MOL0     C81046   9.855   9.120  10.571  0.6764 -0.8141 -0.2393
  601MOL0     C81047   9.928   9.165  10.456 -0.1063  0.7925 -0.3242
  601MOL0     O81048  10.325   9.154  10.430  0.6034 -0.2588 -0.1076
  601MOL0     C81049  10.403   9.310  10.192  0.3256  0.4703  0.8190
  601MOL0     C81050  10.464   9.357  10.078  0.1736  0.5998 -0.3120
  601MOL0     N81051  10.748   8.935   9.556 -0.6785  0.0469  0.0691
  601MOL0     N81052  10.844   8.851   9.534  0.3036 -0.4843  1.2233
  601MOL0     C81053  11.265   8.423   8.758 -0.7646 -0.9582 -0.3929
  601MOL0     C81054  11.247   8.289   8.739  0.4149  0.1722 -0.3517
  601MOL0     C81055  11.134   7.857   8.838 -1.1306  0.6827 -0.1736
  601MOL0     C81056  11.194   7.733   8.884 -0.0744 -0.7885  0.0357
  601MOL0     C81057  11.139   7.612   8.851 -0.0471  0.2817  0.7673
  601MOL0     C81058  11.024   7.604   8.774 -0.0163 -0.1291  0.4330
  601MOL0     O81059  10.959   7.492   8.726 -0.0781  0.6702 -1.0994
  601MOL0     C81060  11.014   7.362   8.774  0.1647 -0.0139  0.4444
  601MOL0     C81061  10.938   7.250   8.708  0.2087  0.3181  0.9024
  601MOL0     C81062  10.961   7.107   8.766 -0.4932  1.6548  0.1676
  601MOL0     C81063  10.936   7.107   8.917 -0.3548  0.5872  0.4541
  601MOL0     C81064  10.923   6.973   8.958  0.5335 -0.0665 -0.7912
  601MOL0     C81065  10.885   6.864   9.000  0.4321 -1.1014 -0.1517
  601MOL0     C81066  10.954   7.720   8.723 -1.0953 -0.4012  0.2660
  601MOL0     C81067  11.013   7.843   8.768 -0.6864 -0.1348 -0.4256
  601MOL0     H81068  11.045   8.210   8.996 -0.6171  0.7295  1.2849
  601MOL0     H81069  11.048   8.456   9.028 -2.0541 -2.7813 -0.6011
  601MOL0     H81070  11.345   8.710   8.773 -0.4466  0.4772  0.1405
  601MOL0     H81071  11.193   8.682   8.682  3.1557  2.4528 -2.7466
  601MOL0     H81072  11.218   8.929   8.734  0.3447  0.5742  1.8183
  601MOL0     H81073  11.067   8.867   8.801 -0.4252 -4.0853 -3.1551
  601MOL0     H81074  11.329   8.871   8.970 -0.4406 -1.2023  0.9153
  601MOL0     H81075  11.231   9.016   8.948 -2.1542 -0.0978 -0.1401
  601MOL0     H81076  11.052   8.941   9.067  2.7354  2.8564 -2.2365
  601MOL0     H81077  11.088   8.763   9.064  3.5336 -1.3797  0.6710
  601MOL0     H81078  11.289   8.798   9.200 -1.1340 -1.6736  0.1593
  601MOL0     H81079  11.246   8.970   9.229 -0.6826  0.7637  0.8242
  601MOL0     H81080  11.022   8.884   9.307 -0.5022  0.1428  0.7785
  601MOL0     H81081  11.095   8.717   9.308  1.5616 -1.3888  1.0847
  601MOL0     H81082  11.267   8.787   9.471 -0.2595 -0.0368  1.4162
  601MOL0     H81083  11.205   8.955   9.475  1.5812 -0.4836  4.1582
  601MOL0     H81084  11.130   8.827   9.679 -1.7755 -0.7056  1.3566
  601MOL0     H81085  11.051   8.711   9.579  0.2688  0.1609  2.6270
  601MOL0     H81086  11.004   9.077   9.698 -0.8041 -0.9485  0.5850
  601MOL0     H81087  10.638   9.162   9.624 -0.7437 -1.6694  0.3190
  601MOL0     H81088  10.715   9.122   9.790  0.3155  0.8659  0.2905
  601MOL0     H81089  10.825   9.298   9.567  0.0902 -0.4797  0.2087
  601MOL0     H81090  10.859   9.322   9.747 -0.9858  0.6256 -0.2663
  601MOL0     H81091  10.603   9.369   9.607 -2.0381  1.7425  1.5600
  601MOL0     H81092  10.722   9.485   9.664  0.1975 -0.4656 -1.5610
  601MOL0     H81093  10.576   9.507   9.843  0.5789  0.5356  0.5711
  601MOL0     H81094  10.696   9.382   9.898 -0.7631  0.7586  0.5543
  601MOL0     H81095  10.373   9.104   9.871 -2.4287 -0.1388 -0.5348
  601MOL0     H81096  10.192   8.975   9.960 -2.3525 -1.6756  0.8030
  601MOL0     H81097  10.262   8.912  10.105 -1.4568  1.0498  1.7758
  601MOL0     H81098  10.120   8.999  10.119  0.8269 -0.3774  1.5455
  601MOL0     H81099  10.182   8.951  10.461 -1.1226 -4.8123  1.9785
  601MOL0     H81100  10.041   8.843  10.639  0.3335 -0.6230 -0.4249
  601MOL0     H81101   9.635   8.970  10.612  2.6765  0.5718 -3.2078
  601MOL0     H81102   9.724   8.825  10.589  2.9809  0.8445  0.8297
  601MOL0     H81103   9.538   8.772  10.740 -0.8080  1.4856 -1.0461
  601MOL0     H81104   9.699   8.780  10.836 -0.1230  1.2287  2.4846
  601MOL0     H81105   9.445   8.938  10.890 -0.1419 -2.0827 -0.0828
  601MOL0     H81106   9.584   9.042  10.846  3.2114 -0.5219 -0.4212
  601MOL0     H81107   9.605   8.806  11.047 -0.3367 -0.8075 -1.9486
  601MOL0     H81108   9.723   8.930  11.010 -0.1365  1.2052 -0.5710
  601MOL0     H81109   9.626   9.088  11.145  0.8821  0.6347 -2.0832
  601MOL0     H81110   9.604   8.950  11.231 -0.2990 -2.8644  0.2897
  601MOL0     H81111   9.394   9.052  11.036  2.1238  0.8893  0.7466
  601MOL0     H81112   9.377   8.910  11.149  4.3618 -2.9800 -2.5156
  601MOL0     H81113   9.407   9.221  11.201  0.7417 -0.2298 -1.8010
  601MOL0     H81114   9.461   9.114  11.326  4.5613  3.7361 -2.3213
  601MOL0     H81115   9.265   9.003  11.369  2.3873  0.5975  0.2559
  601MOL0     H81116   9.188   9.099  11.238  3.9958  0.6931 -2.8840
  601MOL0     H81117   9.772   9.179  10.610  1.2724 -1.5930  2.4218
  601MOL0     H81118   9.890   9.256  10.412 -3.3628  0.9731  2.4143
  601MOL0     H81119  10.416   9.374  10.278 -0.3266  0.4167  0.9665
  601MOL0     H81120  10.517   9.452  10.077  0.8850  0.2193 -1.6430
  601MOL0     H81121  11.337   8.474   8.694 -1.4322 -0.3528 -0.6821
  601MOL0     H81122  11.290   8.231   8.658 -2.4944  0.9795 -2.6516
  601MOL0     H81123  11.285   7.726   8.942  0.5276 -0.4831 -0.8400
  601MOL0     H81124  11.198   7.531   8.893 -0.7981 -0.6126  0.1369
  601MOL0     H81125  11.122   7.357   8.758  1.1985  3.9254  4.4659
  601MOL0     H81126  10.993   7.351   8.880  0.8075 -1.7510  0.4209
  601MOL0     H81127  10.972   7.239   8.605 -3.0948 -3.8178  0.0089
  601MOL0     H81128  10.831   7.270   8.703  0.0996  0.4463  2.7997
  601MOL0     H81129  11.066   7.083   8.745 -0.4100  2.3056 -0.2018
  601MOL0     H81130  10.896   7.032   8.720  0.6529 -2.3863  4.3436
  601MOL0     H81131  10.839   7.154   8.936  0.8199  3.6608 -0.5883
  601MOL0     H81132  11.005   7.167   8.977  0.0166 -1.5561  2.3173
  601MOL0     H81133  10.841   6.773   9.038 -0.9486 -0.0578  0.8453
  601MOL0     H81134  10.857   7.707   8.677 -1.0645 -0.8505  0.3207
  601MOL0     H81135  10.968   7.936   8.736  2.0137  1.1528 -0.7510
  602MOL0     O81136   9.061   7.257  10.092  0.2881 -0.0471  0.0581
  602MOL0     C81137   9.029   7.371  10.046 -0.4603  0.1643 -0.7192
  602MOL0     O81138   8.958   7.389   9.925 -0.7831 -0.5158  0.7523
  602MOL0     C81139   8.939   7.289   9.837  0.0543 -0.7806 -0.4528
  602MOL0     C81140   8.990   7.306   9.705  0.9494  0.1237 -0.3351
  602MOL0     C81141   8.965   7.201   9.615 -0.7359  0.3051 -0.3265
  602MOL0     C81142   8.914   7.078   9.655  0.5903  0.6857  0.1925
  602MOL0     O81143   8.910   6.968   9.571 -0.0683  0.0201  0.6035
  602MOL0     C81144   8.793   6.883   9.580 -0.4469 -0.3131  0.2612
  602MOL0     C81145   8.745   6.843   9.446 -1.0530  0.0247 -0.3473
  602MOL0     C81146   8.843   6.760   9.368  0.0541 -0.5718 -0.6043
  602MOL0     C81147   8.773   6.681   9.256 -0.1035 -0.4556  1.3193
  602MOL0     C81148   8.763   6.531   9.268 -0.0167  0.7836 -0.0294
  602MOL0     C81149   8.671   6.490   9.392  0.0124  0.2396 -0.2633
  602MOL0     C81150   8.658   6.343   9.429  0.0092 -0.5071  0.1748
  602MOL0     C81151   8.565   6.320   9.556  0.3945 -0.1760  0.6729
  602MOL0     N81152   8.418   6.347   9.534 -0.3668  0.6705  0.5345
  602MOL0     C81153   8.331   6.246   9.498 -0.5563  0.4547  0.1042
  602MOL0     C81154   8.202   6.293   9.511  0.3714  0.0416 -0.1839
  602MOL0     C81155   8.073   6.224   9.480 -0.7133 -0.9679  0.1507
  602MOL0     C81156   8.026   6.141   9.597 -0.0086  0.9623  0.6424
  602MOL0     C81157   7.942   6.186   9.716 -0.3033 -0.2966  0.2797
  602MOL0     C81158   7.795   6.236   9.692 -0.9728  0.5858 -0.1534
  602MOL0     O81159   7.746   6.169   9.581 -0.4370 -0.2277  0.5952
  602MOL0     C81160   7.617   6.126   9.567 -1.5151  0.3101 -0.1493
  602MOL0     C81161   7.523   6.125   9.668 -0.0512 -0.5935 -0.8005
  602MOL0     C81162   7.401   6.065   9.641  0.3433  0.3398  0.4971
  602MOL0     C81163   7.300   6.050   9.759  0.4324 -0.2101  0.3436
  602MOL0     C81164   7.364   6.035   9.505  0.0091 -0.2579 -0.0338
  602MOL0     C81165   7.234   5.979   9.458  0.5083 -0.2994 -0.7451
  602MOL0     O81166   7.128   6.009   9.544  0.1089  0.0196  0.6649
  602MOL0     C81167   7.013   5.941   9.519 -0.2158  1.2816  1.0070
  602MOL0     C81168   6.995   5.808   9.562 -1.2578  0.5354  0.3805
  602MOL0     C81169   6.865   5.748   9.549  0.2037  0.1710 -1.1043
  602MOL0     C81170   6.757   5.822   9.487 -0.1861  0.7937 -0.0515
  602MOL0     O81171   6.642   5.759   9.463  0.3107  0.7569  0.1783
  602MOL0     C81172   6.532   5.811   9.535  0.0090 -0.5108 -0.8105
  602MOL0     C81173   6.417   5.710   9.530  0.0047  0.8059  1.2960
  602MOL0     C81174   6.299   5.761   9.621  0.2728 -0.1833  0.4080
  602MOL0     C81175   6.201   5.649   9.591  0.4934  0.1625 -0.3046
  602MOL0     C81176   6.085   5.654   9.696 -0.4564 -0.4976  0.2356
  602MOL0     C81177   6.113   5.634   9.847  0.8253 -0.8054  0.3241
  602MOL0     C81178   5.990   5.605   9.937  0.1417 -0.1334  0.4722
  602MOL0     C81179   5.973   5.453   9.970  0.5501  0.9333  0.2166
  602MOL0    Cl81180   5.993   5.346   9.818 -0.0004  0.3230 -0.2702
  602MOL0     C81181   6.786   5.951   9.435 -0.0508  0.3328  0.1833
  602MOL0     C81182   6.917   6.008   9.442 -0.1566  0.0603 -0.3934
  602MOL0     O81183   7.234   5.904   9.360  0.0288 -0.4860  0.0941
  602MOL0     C81184   7.461   6.052   9.405  0.2090 -0.1972 -0.5566
  602MOL0     C81185   7.582   6.094   9.435 -0.0991 -0.1778 -1.3516
  602MOL0     N81186   8.218   6.421   9.567 -0.6819 -1.1466 -0.6606
  602MOL0     N81187   8.345   6.452   9.581 -0.5680 -0.2625 -0.0030
  602MOL0     C81188   8.869   7.068   9.791 -0.2455 -0.1541 -0.3627
  602MOL0     C81189   8.872   7.177   9.878 -0.0492  1.1262 -0.1576
  602MOL0     C81190   9.073   7.486  10.125 -0.2802  0.4028 -0.2866
  602MOL0     C81191   9.153   7.481  10.244 -0.0204  0.3530 -0.5766
  602MOL0     C81192   9.182   7.591  10.326  0.5203 -0.5371  0.1564
  602MOL0     C81193   9.133   7.715  10.284 -1.0089 -0.1203 -0.2175
  602MOL0     O81194   9.173   7.824  10.337 -0.1703 -0.9392 -0.0396
  602MOL0     C81195   9.312   7.856  10.367  0.3209 -0.7149 -0.2860
  602MOL0     C81196   9.315   7.902  10.512  0.4168 -0.0492  0.4514
  602MOL0     C81197   9.455   7.929  10.555 -0.0167 -0.3941  0.5604
  602MOL0     C81198   9.466   7.932  10.711  0.1333  0.5722 -0.4460
  602MOL0     C81199   9.360   8.011  10.776 -0.0470  0.3352  0.2887
  602MOL0     C81200   9.257   8.065  10.810  0.7112 -0.4586  0.4103
  602MOL0     C81201   9.067   7.722  10.158  0.1156  0.0080  0.7737
  602MOL0     C81202   9.043   7.611  10.078  0.3419  0.3560  0.2357
  602MOL0     H81203   9.039   7.400   9.681  2.2189 -0.4433 -0.0335
  602MOL0     H81204   8.993   7.219   9.512 -1.2801  1.3924 -0.3081
  602MOL0     H81205   8.814   6.797   9.645 -0.2840 -1.2599 -1.0013
  602MOL0     H81206   8.699   6.931   9.611 -1.3705 -3.3156  2.5962
  602MOL0     H81207   8.654   6.783   9.451 -2.6661  1.9973 -3.0016
  602MOL0     H81208   8.718   6.935   9.393 -0.1838 -0.2493 -1.3048
  602MOL0     H81209   8.924   6.816   9.320  1.9886 -0.6928  2.2694
  602MOL0     H81210   8.885   6.681   9.431 -1.8506 -0.4303  0.9003
  602MOL0     H81211   8.674   6.717   9.228  0.6565  0.8541  0.1755
  602MOL0     H81212   8.825   6.693   9.160 -2.0759 -0.1184  0.2386
  602MOL0     H81213   8.716   6.491   9.178  0.4167 -0.6281  0.3301
  602MOL0     H81214   8.862   6.488   9.288 -1.4004 -1.6867  2.1822
  602MOL0     H81215   8.709   6.540   9.482  1.9280  0.3339 -1.0685
  602MOL0     H81216   8.579   6.542   9.365  0.7808  2.1064  0.4628
  602MOL0     H81217   8.628   6.278   9.346 -2.4304 -0.2543  0.7909
  602MOL0     H81218   8.757   6.314   9.464 -0.7360 -1.0601  1.9551
  602MOL0     H81219   8.595   6.386   9.638  0.6780  0.3675  0.1366
  602MOL0     H81220   8.573   6.213   9.578  0.0525  0.0137  1.7798
  602MOL0     H81221   8.345   6.139   9.484  0.4764  0.2793  2.0836
  602MOL0     H81222   7.992   6.294   9.456  0.0019  2.6418  6.1133
  602MOL0     H81223   8.085   6.156   9.396 -2.3703  1.2906 -2.0483
  602MOL0     H81224   8.114   6.100   9.646  0.2596  2.2569  1.2889
  602MOL0     H81225   7.968   6.062   9.549  0.9486  2.1319 -2.7090
  602MOL0     H81226   7.999   6.263   9.769 -1.2611 -1.8595  3.9226
  602MOL0     H81227   7.932   6.099   9.782 -2.1010 -2.0651 -2.1202
  602MOL0     H81228   7.796   6.342   9.665  3.1674  0.6867 -0.3068
  602MOL0     H81229   7.738   6.251   9.784  2.2696  2.8125  1.7211
  602MOL0     H81230   7.549   6.156   9.769 -1.6712 -0.7791 -0.2893
  602MOL0     H81231   7.347   6.051   9.858 -0.9593 -3.4442  1.1854
  602MOL0     H81232   7.216   6.120   9.759 -0.5412 -1.3180 -0.6884
  602MOL0     H81233   7.242   5.957   9.765 -2.4387  1.0511 -3.6486
  602MOL0     H81234   7.086   5.775   9.611 -1.7151 -1.3220  0.0372
  602MOL0     H81235   6.866   5.644   9.577  1.3362  1.3043  4.0940
  602MOL0     H81236   6.554   5.834   9.640 -0.7138  2.1963 -1.1829
  602MOL0     H81237   6.497   5.899   9.481 -1.2138 -0.0514  0.6520
  602MOL0     H81238   6.387   5.707   9.425  0.5182  0.2202  1.1569
  602MOL0     H81239   6.448   5.608   9.558  0.2916  0.2864 -0.7427
  602MOL0     H81240   6.265   5.861   9.593 -0.4306 -0.9956 -1.9130
  602MOL0     H81241   6.333   5.749   9.724 -0.6211 -0.9359  0.6237
  602MOL0     H81242   6.176   5.664   9.486  3.7147  0.7396 -1.0815
  602MOL0     H81243   6.247   5.550   9.602 -1.9000 -0.7725  3.7048
  602MOL0     H81244   6.018   5.572   9.671 -0.3969 -1.1490  2.0862
  602MOL0     H81245   6.034   5.749   9.683  1.0871  0.4690  0.9202
  602MOL0     H81246   6.195   5.561   9.843  2.3045  0.8151 -0.5249
  602MOL0     H81247   6.166   5.722   9.885  1.6461 -1.9626  2.0478
  602MOL0     H81248   5.900   5.649   9.893 -0.3009  1.7367  3.0339
  602MOL0     H81249   6.005   5.663  10.028  1.2761 -0.8612  0.7726
  602MOL0     H81250   5.879   5.425  10.017  0.7246  0.3901  0.2500
  602MOL0     H81251   6.052   5.426  10.041  1.4216 -0.8297 -1.3227
  602MOL0     H81252   6.706   6.014   9.398 -0.0288  0.8139  0.9398
  602MOL0     H81253   6.934   6.107   9.401 -3.1454  0.3081 -1.2778
  602MOL0     H81254   7.448   6.028   9.300 -3.3651  1.1954 -0.5883
  602MOL0     H81255   7.656   6.116   9.358  0.4958  0.6672 -0.5635
  602MOL0     H81256   8.849   6.967   9.826  0.1737 -0.4315 -0.8988
  602MOL0     H81257   8.850   7.160   9.983  3.2114 -3.2106  0.0990
  602MOL0     H81258   9.183   7.384  10.282 -0.0683  0.5635  0.0115
  602MOL0     H81259   9.239   7.557  10.412 -0.7549 -0.6291  0.9919
  602MOL0     H81260   9.382   7.772  10.357  0.8557 -0.6738  2.4290
  602MOL0     H81261   9.346   7.934  10.298 -2.4833  0.1748 -0.7934
  602MOL0     H81262   9.280   7.819  10.574  1.3165 -1.2566 -0.6117
  602MOL0     H81263   9.246   7.987  10.521  1.6107  1.2104 -1.4848
  602MOL0     H81264   9.471   8.032  10.521  1.9716 -1.0347 -0.6241
  602MOL0     H81265   9.539   7.872  10.516 -0.4913 -1.3764  0.9225
  602MOL0     H81266   9.555   7.992  10.731 -1.5628  3.5042 -1.0579
  602MOL0     H81267   9.469   7.831  10.752  0.9312  0.9600  0.4830
  602MOL0     H81268   9.170   8.122  10.838  2.1007  2.7484 -1.3231
  602MOL0     H81269   9.033   7.813  10.108 -1.4034  0.4159  2.4124
  602MOL0     H81270   8.982   7.617   9.989  2.5556 -1.6015 -1.5261
  603MOL0     O81271  11.185   5.607   2.957  0.1312  0.4406 -1.0022
  603MOL0     C81272  11.091   5.638   3.028  0.7758  0.0164  0.8518
  603MOL0     O81273  11.047   5.561   3.137 -0.0265 -0.8426 -0.3376
  603MOL0     C81274  11.096   5.426   3.156  0.0738 -0.1376 -0.6972
  603MOL0     C81275  11.150   5.332   3.062 -0.1096 -0.1168  0.5385
  603MOL0     C81276  11.174   5.202   3.100 -0.8857 -0.6789 -0.1940
  603MOL0     C81277  11.126   5.151   3.225  0.4761  0.2669 -0.3519
  603MOL0     O81278  11.151   5.031   3.282 -0.3497  0.1254 -0.4547
  603MOL0     C81279  11.206   4.928   3.205 -0.1527 -0.3059  0.6242
  603MOL0     C81280  11.263   4.823   3.297 -0.0451 -0.3033 -0.2981
  603MOL0     C81281  11.331   4.714   3.234 -0.3540 -0.5913 -0.3154
  603MOL0     C81282  11.234   4.605   3.187 -0.1193  0.0939  0.8357
  603MOL0     C81283  11.317   4.495   3.108 -0.6233  0.7533 -0.3911
  603MOL0     C81284  11.243   4.367   3.091  0.4707  0.2076  0.0519
  603MOL0     C81285  11.303   4.269   3.003  0.1960 -0.2105  0.7720
  603MOL0     C81286  11.295   4.315   2.848 -0.1886 -0.5791 -0.7384
  603MOL0     N81287  11.337   4.201   2.759  0.2445 -0.4135  0.3316
  603MOL0     C81288  11.448   4.113   2.769 -0.6088  0.2870  0.3936
  603MOL0     C81289  11.433   4.030   2.670  0.7451  0.0852  0.7764
  603MOL0     C81290  11.523   3.914   2.641 -0.9710 -0.1376 -0.0622
  603MOL0     C81291  11.477   3.786   2.713 -0.2093  1.5669 -0.5969
  603MOL0     C81292  11.534   3.659   2.643  0.8175  0.3666 -0.5978
  603MOL0     C81293  11.665   3.619   2.714  0.2291  0.8240  0.1769
  603MOL0     O81294  11.696   3.481   2.684 -0.3159  0.8388 -0.6593
  603MOL0     C81295  11.750   3.449   2.562  0.5365  0.0943  0.3905
  603MOL0     C81296  11.801   3.530   2.462  0.2085  0.2987 -0.0881
  603MOL0     C81297  11.827   3.493   2.330  0.6067  1.1834  0.9817
  603MOL0     C81298  11.862   3.603   2.230 -0.1004 -0.4991 -0.7148
  603MOL0     C81299  11.809   3.355   2.293  0.4234  0.9568  0.5510
  603MOL0     C81300  11.824   3.306   2.154 -0.2451 -0.8309 -0.6488
  603MOL0     O81301  11.788   3.185   2.141  0.7535 -0.2320 -0.1568
  603MOL0     C81302  11.779   3.137   2.009  0.1000 -0.2353  0.0165
  603MOL0     C81303  11.654   3.143   1.946  0.1880 -0.8397  0.2626
  603MOL0     C81304  11.640   3.089   1.815 -0.4272 -0.7217 -0.2126
  603MOL0     C81305  11.747   3.027   1.751  0.8021 -0.0980  0.0240
  603MOL0     O81306  11.747   2.969   1.625  0.9222 -0.3971  0.2043
  603MOL0     C81307  11.621   2.914   1.569 -0.7693 -0.9526 -0.3216
  603MOL0     C81308  11.625   2.905   1.415  0.3218 -0.2150 -1.3653
  603MOL0     C81309  11.563   3.020   1.342 -0.0514  0.6198  1.0667
  603MOL0     C81310  11.563   3.004   1.187  0.1582 -0.1545  0.7589
  603MOL0     C81311  11.519   3.144   1.122 -0.0508  0.8665 -0.2416
  603MOL0     C81312  11.435   3.110   0.992  0.5015 -0.5966 -0.4823
  603MOL0     C81313  11.524   3.068   0.870  0.3754  0.2169 -0.3481
  603MOL0     C81314  11.455   3.042   0.749 -0.4639 -0.4214  0.6468
  603MOL0    Cl81315  11.381   3.200   0.672 -0.6658 -0.2594  0.4472
  603MOL0     C81316  11.867   3.011   1.825  0.2989  0.7845 -1.0344
  603MOL0     C81317  11.887   3.072   1.948 -0.5218 -0.2219  0.7661
  603MOL0     O81318  11.860   3.381   2.061 -0.6743 -0.7829 -0.3943
  603MOL0     C81319  11.776   3.265   2.399  0.4869  0.4430  0.2235
  603MOL0     C81320  11.736   3.311   2.529 -0.5608  0.1013  0.1876
  603MOL0     N81321  11.320   4.067   2.596  0.7522  0.8589 -0.5262
  603MOL0     N81322  11.271   4.169   2.648 -0.7287  0.0276 -0.3415
  603MOL0     C81323  11.054   5.238   3.308 -0.5320 -0.0658 -0.3980
  603MOL0     C81324  11.043   5.372   3.272  0.1359  0.1425 -0.6860
  603MOL0     C81325  11.007   5.764   3.001 -1.2852 -0.6572 -0.2818
  603MOL0     C81326  10.891   5.800   3.076 -0.2255  0.2008  0.3645
  603MOL0     C81327  10.812   5.912   3.036 -0.1779 -0.4159  0.4496
  603MOL0     C81328  10.845   5.982   2.913 -0.2360  0.4792 -0.0983
  603MOL0     O81329  10.768   6.085   2.873 -0.1318  0.0705 -0.6505
  603MOL0     C81330  10.789   6.166   2.763 -0.4190  0.1596 -0.0452
  603MOL0     C81331  10.668   6.253   2.734 -0.6681 -0.2018 -0.0096
  603MOL0     C81332  10.558   6.174   2.665  0.6330  0.8025 -1.1564
  603MOL0     C81333  10.484   6.067   2.742  0.0012  0.9328  0.3027
  603MOL0     C81334  10.358   6.055   2.679  1.3188  0.3262  1.0369
  603MOL0     C81335  10.246   6.048   2.630 -0.9178  0.5082 -0.2245
  603MOL0     C81336  10.963   5.944   2.843 -0.4980 -0.3492 -0.2846
  603MOL0     C81337  11.043   5.835   2.887 -0.5201 -0.4119 -0.7557
  603MOL0     H81338  11.194   5.366   2.969 -1.8518  0.1596 -0.2329
  603MOL0     H81339  11.216   5.131   3.029  0.3743 -3.0799  2.7256
  603MOL0     H81340  11.126   4.879   3.148 -1.4171  2.9577 -0.6532
  603MOL0     H81341  11.286   4.965   3.140  1.6649  0.5914  3.2441
  603MOL0     H81342  11.340   4.873   3.357 -0.2148  0.2972 -0.5755
  603MOL0     H81343  11.184   4.781   3.360 -2.3175  1.2749 -1.9395
  603MOL0     H81344  11.391   4.746   3.148  0.9494  0.5476  0.9652
  603MOL0     H81345  11.402   4.684   3.312  2.1993  1.9661 -1.4353
  603MOL0     H81346  11.176   4.564   3.271  1.6339 -1.0532  1.5524
  603MOL0     H81347  11.161   4.639   3.113  0.6481 -1.6127 -0.7762
  603MOL0     H81348  11.350   4.532   3.010 -0.7173 -0.1827 -0.7890
  603MOL0     H81349  11.415   4.486   3.157  0.2184 -0.4221 -2.1698
  603MOL0     H81350  11.247   4.317   3.188  0.9109 -0.2745 -0.2119
  603MOL0     H81351  11.138   4.386   3.066  0.3534 -1.4469 -0.8477
  603MOL0     H81352  11.408   4.256   3.033  1.3029  1.4767 -1.9458
  603MOL0     H81353  11.243   4.179   3.016 -0.5789  0.4713  2.1710
  603MOL0     H81354  11.370   4.388   2.818  0.3750 -0.3199  1.1546
  603MOL0     H81355  11.194   4.336   2.812 -1.6134  0.5871  3.3658
  603MOL0     H81356  11.524   4.120   2.846 -0.3538 -0.0342  0.1773
  603MOL0     H81357  11.542   3.891   2.536 -0.0007 -2.0297  0.4754
  603MOL0     H81358  11.627   3.933   2.673 -0.7935 -0.4193 -0.4674
  603MOL0     H81359  11.370   3.781   2.694  0.0183 -2.9647 -1.6653
  603MOL0     H81360  11.489   3.786   2.822 -3.0179  0.1388 -0.2187
  603MOL0     H81361  11.551   3.682   2.538  2.5875  1.3229 -0.1494
  603MOL0     H81362  11.475   3.568   2.657 -0.1767  1.0366 -0.2839
  603MOL0     H81363  11.649   3.643   2.819  2.1044  2.0916  0.2035
  603MOL0     H81364  11.751   3.680   2.687  0.6596 -0.6485 -2.0430
  603MOL0     H81365  11.812   3.635   2.484 -0.2301  0.7205 -1.7324
  603MOL0     H81366  11.897   3.696   2.274 -2.9342 -0.6371  2.1960
  603MOL0     H81367  11.944   3.567   2.168  1.1821 -4.4044  2.8060
  603MOL0     H81368  11.774   3.627   2.169 -0.7018  0.8758  0.6289
  603MOL0     H81369  11.581   3.207   1.994  1.0941 -0.1279  0.7260
  603MOL0     H81370  11.545   3.098   1.763 -0.2910  0.0881 -0.3316
  603MOL0     H81371  11.601   2.814   1.609 -2.4602  0.0768  1.6044
  603MOL0     H81372  11.537   2.983   1.583  1.2798  2.2052 -2.2939
  603MOL0     H81373  11.729   2.888   1.385  0.9328  0.7161  0.0911
  603MOL0     H81374  11.574   2.810   1.395 -0.4588 -0.8676  2.8061
  603MOL0     H81375  11.597   3.119   1.374  0.3369  1.2447 -1.1058
  603MOL0     H81376  11.456   3.018   1.367 -0.1277  0.1058  0.7051
  603MOL0     H81377  11.658   2.972   1.143 -0.2548 -1.4559  0.7804
  603MOL0     H81378  11.489   2.926   1.167 -2.9124  2.4261  1.3291
  603MOL0     H81379  11.603   3.212   1.108 -0.5547  1.4619 -0.4477
  603MOL0     H81380  11.455   3.191   1.198 -0.6326 -1.2863  0.6779
  603MOL0     H81381  11.354   3.042   1.020  0.2005 -0.8636 -1.9440
  603MOL0     H81382  11.383   3.201   0.962 -1.1947 -1.4846 -0.3681
  603MOL0     H81383  11.581   2.980   0.900  0.6061  0.6080  0.3858
  603MOL0     H81384  11.594   3.150   0.849 -0.9280  1.3534 -0.3685
  603MOL0     H81385  11.370   2.976   0.768  0.5791 -1.8145  0.6765
  603MOL0     H81386  11.514   2.986   0.676  1.0494 -1.3064  2.4503
  603MOL0     H81387  11.957   2.975   1.775  2.7269  3.1137  1.3023
  603MOL0     H81388  11.980   3.049   1.999 -1.1143 -4.4359  0.3087
  603MOL0     H81389  11.741   3.165   2.374 -3.3732  1.4082  1.1022
  603MOL0     H81390  11.702   3.241   2.604 -0.8730  0.3406  0.2744
  603MOL0     H81391  11.030   5.208   3.409  0.7325  2.7357  0.8420
  603MOL0     H81392  10.999   5.440   3.344  0.6263  0.9982 -1.1931
  603MOL0     H81393  10.867   5.738   3.161 -3.1715 -1.3793 -1.4364
  603MOL0     H81394  10.731   5.948   3.099 -0.2118  0.8878 -0.2956
  603MOL0     H81395  10.878   6.221   2.797  0.9900 -3.4185  2.6251
  603MOL0     H81396  10.815   6.109   2.673  2.8209 -1.6799  1.8506
  603MOL0     H81397  10.704   6.333   2.668 -1.0579  1.0019  1.1845
  603MOL0     H81398  10.634   6.298   2.827  2.0878 -2.1952  2.1446
  603MOL0     H81399  10.593   6.130   2.570 -0.4957  0.7946 -1.5820
  603MOL0     H81400  10.484   6.247   2.632  1.5256  1.5865 -1.4820
  603MOL0     H81401  10.464   6.090   2.847 -2.9384 -0.9335  0.2703
  603MOL0     H81402  10.530   5.968   2.738 -0.4363  0.5722  2.6089
  603MOL0     H81403  10.157   6.070   2.575 -0.2061  0.4697 -1.4323
  603MOL0     H81404  10.996   5.993   2.752 -0.1699 -0.3457 -0.1632
  603MOL0     H81405  11.125   5.803   2.824  1.2829 -1.6298  2.0443
  604MOL0     O81406   1.294   1.109   1.911 -0.7361 -0.1860  0.3318
  604MOL0     C81407   1.231   1.007   1.954 -0.8909 -0.3976  0.0300
  604MOL0     O81408   1.104   0.971   1.935 -0.0544  0.2828 -0.0815
  604MOL0     C81409   1.038   1.053   1.852 -0.2742  0.6053 -0.4507
  604MOL0     C81410   0.926   1.122   1.893 -0.2356  0.1684 -0.6475
  604MOL0     C81411   0.868   1.209   1.809  0.0947 -0.1989 -0.1314
  604MOL0     C81412   0.904   1.222   1.674 -0.4939  0.6174  0.1885
  604MOL0     O81413   0.817   1.297   1.599 -0.6080  0.2781 -0.1436
  604MOL0     C81414   0.867   1.346   1.475  0.2044  0.0212  0.7489
  604MOL0     C81415   0.764   1.440   1.421 -0.1143  0.0020 -0.3875
  604MOL0     C81416   0.804   1.523   1.299  0.0180 -0.2663  0.8255
  604MOL0     C81417   0.706   1.623   1.248  0.0613  0.7383 -0.5173
  604MOL0     C81418   0.667   1.720   1.356 -0.1767 -0.1476 -1.1888
  604MOL0     C81419   0.618   1.847   1.295  0.7068  0.3037  0.2908
  604MOL0     C81420   0.729   1.937   1.247  0.4749  0.4759  0.0833
  604MOL0     C81421   0.716   1.995   1.107  0.2445  0.0915  0.4715
  604MOL0     N81422   0.725   1.885   1.016  0.3860 -0.3324  0.7132
  604MOL0     C81423   0.834   1.839   0.953 -0.0689 -0.7164 -0.7304
  604MOL0     C81424   0.798   1.725   0.885  0.3351 -0.8548 -0.0669
  604MOL0     C81425   0.893   1.637   0.817  0.4253 -0.3189  0.0226
  604MOL0     C81426   0.915   1.520   0.911 -1.2491  0.7911  1.0092
  604MOL0     C81427   1.002   1.404   0.859  0.6130  0.9200 -0.1274
  604MOL0     C81428   0.958   1.348   0.731  0.4804 -0.7433  0.9619
  604MOL0     O81429   1.001   1.217   0.715 -1.0843 -0.4386  0.4293
  604MOL0     C81430   1.138   1.192   0.683  0.2393  0.8093 -0.0897
  604MOL0     C81431   1.172   1.057   0.675 -0.7019  1.4289  0.1359
  604MOL0     C81432   1.303   1.005   0.674 -0.3726  0.8006 -0.4017
  604MOL0     C81433   1.323   0.851   0.667 -0.9323  0.7446 -0.2340
  604MOL0     C81434   1.409   1.109   0.679 -0.1771  0.0123  0.1834
  604MOL0     C81435   1.555   1.084   0.689 -0.2016 -0.0721 -0.1255
  604MOL0     O81436   1.647   1.184   0.708 -0.1001  0.3360 -0.0847
  604MOL0     C81437   1.773   1.174   0.659 -0.7364  1.1054  0.9185
  604MOL0     C81438   1.792   1.147   0.522  0.8037  0.2735 -1.3458
  604MOL0     C81439   1.921   1.140   0.472 -0.1533 -0.0815  0.0846
  604MOL0     C81440   2.034   1.156   0.558  0.2829  0.0216  0.7566
  604MOL0     O81441   2.165   1.167   0.523  0.3267 -0.3695  0.1010
  604MOL0     C81442   2.210   1.081   0.413  0.6870 -0.6881 -0.5061
  604MOL0     C81443   2.360   1.069   0.387  0.0737 -0.6535 -0.9100
  604MOL0     C81444   2.388   0.967   0.276 -0.8568 -0.0420  0.3730
  604MOL0     C81445   2.537   0.979   0.232 -0.4009  0.3906  0.1345
  604MOL0     C81446   2.580   0.861   0.144 -0.1442 -0.2360  0.1335
  604MOL0     C81447   2.730   0.869   0.115 -0.8018 -0.1828  0.6896
  604MOL0     C81448   2.808   0.769   0.035 -1.0466  0.7874  0.8746
  604MOL0     C81449   2.965   0.802   0.056 -0.3218  0.8374  0.2400
  604MOL0    Cl81450   3.071   0.664  -0.003  0.3149 -0.6661 -0.0315
  604MOL0     C81451   2.017   1.166   0.694 -0.4515  0.4800  0.3405
  604MOL0     C81452   1.886   1.182   0.741  1.2088  0.4290 -0.1383
  604MOL0     O81453   1.585   0.964   0.684  0.0436 -0.0787  0.4630
  604MOL0     C81454   1.376   1.243   0.689  0.4320 -0.3317 -0.6391
  604MOL0     C81455   1.241   1.283   0.684  0.6793 -0.3291 -0.1577
  604MOL0     N81456   0.666   1.702   0.914 -0.2821 -0.0436  0.0904
  604MOL0     N81457   0.624   1.797   0.982  0.6523  0.2148 -1.1555
  604MOL0     C81458   1.009   1.140   1.627 -0.1490  0.7679 -0.4880
  604MOL0     C81459   1.077   1.058   1.714  0.4631  0.1397 -1.2085
  604MOL0     C81460   1.317   0.907   2.032 -0.1913 -0.7797 -0.3285
  604MOL0     C81461   1.449   0.930   2.071  0.5388  0.4930  0.3882
  604MOL0     C81462   1.517   0.834   2.148 -1.0429 -0.6197 -0.2612
  604MOL0     C81463   1.450   0.720   2.190 -0.4609  0.2034 -0.1303
  604MOL0     O81464   1.510   0.626   2.272  0.7125  0.3449 -0.0440
  604MOL0     C81465   1.640   0.642   2.327 -0.0063 -0.6417 -0.3412
  604MOL0     C81466   1.671   0.496   2.360 -0.4741 -0.3007 -0.3583
  604MOL0     C81467   1.743   0.435   2.227 -0.0718 -0.1397 -0.2528
  604MOL0     C81468   1.662   0.441   2.093 -0.4005 -0.1705  0.2567
  604MOL0     C81469   1.714   0.347   1.994 -0.2840  0.8597  0.2771
  604MOL0     C81470   1.759   0.261   1.928 -0.9438 -0.3767  0.5047
  604MOL0     C81471   1.319   0.698   2.166  0.5538 -0.2570  0.5627
  604MOL0     C81472   1.248   0.794   2.090 -0.0673  0.4844 -0.2196
  604MOL0     H81473   0.896   1.093   1.993 -0.8386 -1.8463 -1.3749
  604MOL0     H81474   0.777   1.255   1.845  2.0813  0.7421  4.3492
  604MOL0     H81475   0.966   1.391   1.488  0.3956 -0.1106 -0.1863
  604MOL0     H81476   0.872   1.252   1.419  0.7412 -0.7905  2.1063
  604MOL0     H81477   0.676   1.380   1.396 -0.3592 -0.5225  1.5960
  604MOL0     H81478   0.722   1.505   1.498 -0.7858 -1.6923  0.7309
  604MOL0     H81479   0.903   1.563   1.323  1.3245 -2.4901 -0.5278
  604MOL0     H81480   0.823   1.459   1.212 -2.1799 -0.8759  0.7307
  604MOL0     H81481   0.751   1.668   1.159 -0.5382 -0.1640 -1.2877
  604MOL0     H81482   0.609   1.573   1.237  1.3614 -2.3435  0.9629
  604MOL0     H81483   0.586   1.680   1.418  0.2096 -1.7110 -1.6569
  604MOL0     H81484   0.750   1.734   1.426  0.9092 -1.8648 -2.0716
  604MOL0     H81485   0.529   1.828   1.236  1.4523 -2.1335 -0.1649
  604MOL0     H81486   0.579   1.899   1.382  3.4080 -0.8313  2.3325
  604MOL0     H81487   0.732   2.022   1.316 -4.1721 -0.4162  1.7154
  604MOL0     H81488   0.827   1.887   1.249  1.6006  2.5553  0.1383
  604MOL0     H81489   0.781   2.079   1.080  1.4828 -0.8991  0.2422
  604MOL0     H81490   0.616   2.040   1.111  0.7044  1.3351 -0.9588
  604MOL0     H81491   0.931   1.887   0.951 -0.0705 -0.6389  0.5909
  604MOL0     H81492   0.860   1.591   0.723  0.4923 -2.8157  1.1281
  604MOL0     H81493   0.988   1.691   0.815  0.8794 -1.0686  0.8247
  604MOL0     H81494   0.820   1.467   0.927 -0.2312 -1.0424  1.2975
  604MOL0     H81495   0.978   1.541   0.998 -0.0557 -5.4734  2.1945
  604MOL0     H81496   0.999   1.325   0.935 -0.3120  0.3530 -0.7380
  604MOL0     H81497   1.106   1.438   0.847  0.9018  0.2787  0.4568
  604MOL0     H81498   0.984   1.414   0.648 -0.2115 -1.4200  0.1973
  604MOL0     H81499   0.849   1.353   0.732  0.4966  3.5952  1.8713
  604MOL0     H81500   1.091   0.988   0.659  0.7194  0.1512 -2.1580
  604MOL0     H81501   1.352   0.800   0.759  0.8716  2.9324  0.4877
  604MOL0     H81502   1.231   0.807   0.626 -0.7277 -1.1102  1.1685
  604MOL0     H81503   1.402   0.835   0.593  1.5089  0.8742  2.2279
  604MOL0     H81504   1.710   1.147   0.450 -2.5007  0.3381  2.0957
  604MOL0     H81505   1.941   1.124   0.367  0.3485 -4.3021  0.6603
  604MOL0     H81506   2.171   0.983   0.443 -0.9406 -0.0694 -0.4998
  604MOL0     H81507   2.158   1.137   0.335 -1.9720  0.2951  1.8155
  604MOL0     H81508   2.392   1.172   0.366 -0.6772  0.8985  4.1887
  604MOL0     H81509   2.407   1.046   0.483 -2.2163  0.9220  0.6748
  604MOL0     H81510   2.323   0.987   0.191  1.1126  1.7898 -0.7882
  604MOL0     H81511   2.374   0.874   0.333 -0.6898  1.4181  2.9675
  604MOL0     H81512   2.555   1.075   0.181 -3.0960  0.5732 -0.6418
  604MOL0     H81513   2.600   0.974   0.321 -1.5153 -0.5940  0.8810
  604MOL0     H81514   2.524   0.860   0.050 -0.5769  0.9254  0.3692
  604MOL0     H81515   2.559   0.766   0.194  1.2688  0.7415  2.7697
  604MOL0     H81516   2.746   0.965   0.064  0.5415 -1.0162 -0.5206
  604MOL0     H81517   2.787   0.880   0.208 -0.7037 -0.7410  0.6980
  604MOL0     H81518   2.774   0.774  -0.068  1.2447  1.9374  0.0929
  604MOL0     H81519   2.787   0.665   0.062 -0.5570 -0.2753 -2.4598
  604MOL0     H81520   2.986   0.822   0.162  3.7314  1.5004 -0.5163
  604MOL0     H81521   2.994   0.893   0.002  1.5337  0.9875  1.4072
  604MOL0     H81522   2.091   1.179   0.772  1.8987  0.0380 -1.7110
  604MOL0     H81523   1.888   1.209   0.846 -0.9097 -4.0913  1.2719
  604MOL0     H81524   1.451   1.320   0.705  1.1178 -0.9218 -0.9619
  604MOL0     H81525   1.224   1.389   0.705 -0.0639 -0.6862  1.1935
  604MOL0     H81526   1.037   1.129   1.523 -1.4413 -0.9532 -0.7052
  604MOL0     H81527   1.155   0.997   1.669  2.0052  0.0692  1.3453
  604MOL0     H81528   1.494   1.014   2.018 -1.1703 -0.1848 -2.3033
  604MOL0     H81529   1.617   0.860   2.183 -0.9273 -2.8300  1.2544
  604MOL0     H81530   1.710   0.694   2.261 -1.5003  3.5967  1.0580
  604MOL0     H81531   1.634   0.696   2.422 -3.2884  0.1769 -0.8983
  604MOL0     H81532   1.590   0.447   2.413 -0.0955  0.8116  1.3181
  604MOL0     H81533   1.762   0.501   2.420  0.3496 -2.7791 -1.2695
  604MOL0     H81534   1.774   0.335   2.261  4.3841  1.4390  1.0105
  604MOL0     H81535   1.833   0.493   2.205  0.7114 -1.4352 -0.6197
  604MOL0     H81536   1.684   0.542   2.056  0.2833 -0.4988 -0.2480
  604MOL0     H81537   1.557   0.419   2.109 -0.2231 -2.5003 -1.3416
  604MOL0     H81538   1.823   0.190   1.879  1.0092  1.1484  0.7542
  604MOL0     H81539   1.271   0.611   2.211 -0.3761 -0.7968 -1.3911
  604MOL0     H81540   1.141   0.787   2.073  0.1458 -1.2351 -1.1266
  605MOL0     O81541  10.701   2.053   4.013  0.3153 -0.2551 -0.2285
  605MOL0     C81542  10.622   2.104   3.935 -0.4993 -0.1800  0.5054
  605MOL0     O81543  10.493   2.148   3.963 -0.4317  0.5276  0.1150
  605MOL0     C81544  10.441   2.144   4.093 -0.6382 -0.2976  0.3024
  605MOL0     C81545  10.519   2.156   4.210 -0.0178  0.1025 -0.8771
  605MOL0     C81546  10.461   2.139   4.343  0.1846 -0.8465 -0.9308
  605MOL0     C81547  10.325   2.116   4.350  0.2290 -1.4988 -0.2535
  605MOL0     O81548  10.251   2.113   4.468  0.1964  0.0078  0.1074
  605MOL0     C81549  10.311   2.141   4.593  0.8799 -0.0381  0.8982
  605MOL0     C81550  10.199   2.125   4.693 -0.3229  0.1168  0.9475
  605MOL0     C81551  10.245   2.161   4.827  0.0238  0.1814 -1.0487
  605MOL0     C81552  10.141   2.142   4.938 -0.1031 -1.1357 -0.2627
  605MOL0     C81553  10.205   2.121   5.075 -1.0837 -0.3864  0.1784
  605MOL0     C81554  10.113   2.110   5.188 -0.6464 -0.3539 -0.3908
  605MOL0     C81555  10.167   2.100   5.326 -0.0216  0.5769 -1.2439
  605MOL0     C81556  10.063   2.140   5.442 -1.0068 -0.1738 -0.6148
  605MOL0     N81557  10.083   2.275   5.498 -0.1534  0.8230 -0.1521
  605MOL0     C81558  10.147   2.295   5.621  0.6985  0.1523 -0.2539
  605MOL0     C81559  10.119   2.422   5.655 -0.6393 -0.3689 -0.1651
  605MOL0     C81560  10.178   2.489   5.776  0.6672 -0.4470  0.1316
  605MOL0     C81561  10.317   2.544   5.738 -1.0622 -0.6178  0.8690
  605MOL0     C81562  10.411   2.563   5.862  0.2439  0.2569  0.3551
  605MOL0     C81563  10.388   2.670   5.964  1.2377  0.8888  0.3921
  605MOL0     O81564  10.299   2.600   6.056 -0.4630 -0.5419  0.3266
  605MOL0     C81565  10.307   2.619   6.186  0.1669 -0.3886  1.2672
  605MOL0     C81566  10.384   2.719   6.252 -0.5402 -0.0264  0.4044
  605MOL0     C81567  10.371   2.735   6.393 -0.1186  0.7222  0.2644
  605MOL0     C81568  10.442   2.848   6.452  0.0253  0.3011 -0.4998
  605MOL0     C81569  10.299   2.639   6.463  0.5002 -0.4262 -0.6572
  605MOL0     C81570  10.280   2.642   6.613 -1.1300  0.0132  0.4606
  605MOL0     O81571  10.225   2.533   6.668  0.6709 -1.3537  0.4713
  605MOL0     C81572  10.159   2.538   6.788  0.1755 -0.4953  0.2014
  605MOL0     C81573  10.061   2.635   6.826 -0.0315  0.2906  0.4949
  605MOL0     C81574  10.003   2.632   6.955  0.6682 -0.3203  0.2001
  605MOL0     C81575  10.023   2.527   7.039  0.1202  0.7831 -0.4673
  605MOL0     O81576   9.995   2.516   7.173 -0.0170 -0.0971 -0.8837
  605MOL0     C81577   9.998   2.645   7.245  0.8440 -0.4327 -0.5793
  605MOL0     C81578   9.993   2.617   7.394 -0.0612  0.1469  1.2587
  605MOL0     C81579  10.111   2.541   7.448 -0.1763  0.1037  0.5072
  605MOL0     C81580  10.085   2.401   7.519  0.1492 -0.9896  0.1803
  605MOL0     C81581  10.025   2.300   7.424  0.7983 -0.3210 -0.4652
  605MOL0     C81582   9.995   2.154   7.492 -0.4035  0.1387  0.4770
  605MOL0     C81583   9.920   2.175   7.634  1.5754  0.5951 -0.3972
  605MOL0     C81584   9.848   2.040   7.667 -1.0309 -0.0589 -0.3768
  605MOL0    Cl81585   9.740   2.040   7.815  0.0084  0.2294  0.3208
  605MOL0     C81586  10.101   2.418   6.998 -0.8889 -0.2386  0.1358
  605MOL0     C81587  10.178   2.429   6.877  0.3471  0.1006 -0.0532
  605MOL0     O81588  10.332   2.736   6.676  0.2952 -0.3766 -0.4238
  605MOL0     C81589  10.232   2.539   6.396 -0.3799  0.5201  0.6631
  605MOL0     C81590  10.237   2.528   6.258 -0.1540 -0.2703 -0.7705
  605MOL0     N81591  10.053   2.477   5.549 -0.1899 -0.6418  0.1841
  605MOL0     N81592  10.029   2.392   5.454 -0.3589 -0.3415  0.4636
  605MOL0     C81593  10.246   2.106   4.230  0.0465 -0.1785  0.0941
  605MOL0     C81594  10.306   2.119   4.107 -0.0388 -0.1744 -0.1216
  605MOL0     C81595  10.680   2.135   3.802  0.2889 -0.8113  0.2272
  605MOL0     C81596  10.605   2.183   3.690  0.1113 -0.0099 -0.8376
  605MOL0     C81597  10.676   2.236   3.578 -0.0594  0.4909 -0.0569
  605MOL0     C81598  10.818   2.219   3.563 -0.2659 -0.1005  0.4841
  605MOL0     O81599  10.856   2.234   3.431 -0.4850  0.0112  0.7660
  605MOL0     C81600  10.974   2.183   3.388 -0.6062  0.5882  0.5032
  605MOL0     C81601  11.093   2.285   3.400  0.4749 -0.1525  0.7710
  605MOL0     C81602  11.228   2.240   3.327 -0.9855  0.5950  0.6349
  605MOL0     C81603  11.319   2.163   3.419  0.0046  0.4135 -0.3095
  605MOL0     C81604  11.277   2.023   3.454 -0.1999 -0.5407 -0.7717
  605MOL0     C81605  11.259   1.910   3.487 -0.0633 -0.0886  0.5097
  605MOL0     C81606  10.886   2.168   3.668  0.4777  0.5318 -0.7241
  605MOL0     C81607  10.821   2.135   3.786  0.0008  0.0122  0.0365
  605MOL0     H81608  10.625   2.176   4.198 -0.0875  1.4234  0.4129
  605MOL0     H81609  10.529   2.149   4.428 -0.3403 -3.2743 -0.1462
  605MOL0     H81610  10.390   2.069   4.619 -0.4031 -1.7885  0.1594
  605MOL0     H81611  10.338   2.246   4.580  1.6129 -0.4639 -1.7559
  605MOL0     H81612  10.123   2.198   4.666 -0.0119 -0.4137 -1.7040
  605MOL0     H81613  10.158   2.023   4.688 -1.4020  0.3275  3.6865
  605MOL0     H81614  10.321   2.086   4.852 -0.8197 -0.1480  0.6880
  605MOL0     H81615  10.290   2.260   4.824  0.8715 -0.2126 -1.9077
  605MOL0     H81616  10.085   2.236   4.943  0.7174 -0.6846  3.7807
  605MOL0     H81617  10.067   2.064   4.917 -1.9345  0.9754 -2.2465
  605MOL0     H81618  10.259   2.027   5.074 -2.8366 -1.5944  3.1517
  605MOL0     H81619  10.274   2.206   5.081 -0.7296 -0.5810 -1.0940
  605MOL0     H81620  10.053   2.202   5.183  1.4752  1.1819  0.7366
  605MOL0     H81621  10.046   2.026   5.166 -2.7499  1.4142 -1.1370
  605MOL0     H81622  10.197   1.998   5.352  0.8802  1.0055 -0.5673
  605MOL0     H81623  10.255   2.162   5.340  0.8733 -0.8638 -0.2146
  605MOL0     H81624  10.073   2.066   5.522 -1.7645 -0.2888 -0.6149
  605MOL0     H81625   9.960   2.134   5.406 -1.3830 -1.9515  0.5946
  605MOL0     H81626  10.209   2.225   5.676  2.5333  1.2844 -0.7767
  605MOL0     H81627  10.118   2.577   5.803 -0.0395 -0.1558 -2.1679
  605MOL0     H81628  10.175   2.416   5.857  0.5870 -0.8944 -0.2653
  605MOL0     H81629  10.306   2.638   5.684  0.2875 -1.3317 -0.7213
  605MOL0     H81630  10.353   2.474   5.662  1.9994  0.0795  1.5469
  605MOL0     H81631  10.509   2.585   5.819  2.1667 -0.8632  3.7485
  605MOL0     H81632  10.425   2.466   5.912 -2.4747 -0.3922  0.0119
  605MOL0     H81633  10.334   2.759   5.930 -4.3870 -3.0409 -2.4873
  605MOL0     H81634  10.482   2.691   6.016 -0.0665  1.5153  2.6399
  605MOL0     H81635  10.441   2.797   6.203  2.6738 -0.4980  3.0009
  605MOL0     H81636  10.487   2.914   6.377  2.7958  2.3268  2.6977
  605MOL0     H81637  10.381   2.923   6.503  0.7922  0.7402 -0.2126
  605MOL0     H81638  10.522   2.820   6.520 -0.7990  0.6792  0.6654
  605MOL0     H81639  10.040   2.708   6.749  0.0977 -0.7786 -0.5736
  605MOL0     H81640   9.934   2.708   6.989  0.2957 -1.6447  2.6558
  605MOL0     H81641  10.081   2.715   7.236  1.3475 -0.3064  3.2929
  605MOL0     H81642   9.905   2.701   7.227  1.0329 -0.2482 -0.9993
  605MOL0     H81643   9.998   2.714   7.443  0.2282  1.1673 -0.6987
  605MOL0     H81644   9.908   2.550   7.413  0.1860 -0.0595  1.6417
  605MOL0     H81645  10.153   2.604   7.528 -1.9620  0.3544  1.2829
  605MOL0     H81646  10.190   2.539   7.371 -0.6430 -1.0584  0.0361
  605MOL0     H81647  10.169   2.358   7.573  0.6762 -1.5788 -1.0717
  605MOL0     H81648  10.007   2.425   7.592  0.3153  2.5644 -0.6122
  605MOL0     H81649  10.091   2.286   7.338 -0.1181 -1.4871 -1.0082
  605MOL0     H81650   9.932   2.334   7.378 -0.2879 -1.6897  0.6352
  605MOL0     H81651   9.948   2.090   7.416 -0.1647  0.8107 -0.2563
  605MOL0     H81652  10.089   2.105   7.518 -0.2810 -1.3870 -2.4608
  605MOL0     H81653   9.846   2.255   7.630  0.9431  0.1740  1.5358
  605MOL0     H81654   9.992   2.190   7.715 -0.2327 -0.1866  1.4501
  605MOL0     H81655   9.922   1.959   7.672 -1.9318 -0.9431 -1.1607
  605MOL0     H81656   9.792   2.017   7.576  0.5682 -1.0969 -1.1380
  605MOL0     H81657  10.108   2.336   7.068 -2.2206 -0.7326 -0.2965
  605MOL0     H81658  10.255   2.361   6.842  0.9364  0.3711  0.6916
  605MOL0     H81659  10.161   2.469   6.439  0.2651 -1.4699 -1.2626
  605MOL0     H81660  10.179   2.454   6.203  1.9413 -1.0894 -1.9779
  605MOL0     H81661  10.140   2.082   4.232  0.5349 -2.9816 -1.7615
  605MOL0     H81662  10.251   2.106   4.014  1.8827 -2.1984 -1.0758
  605MOL0     H81663  10.497   2.188   3.690  0.0062  0.0794  2.7006
  605MOL0     H81664  10.616   2.278   3.497 -1.4395 -1.5060 -0.1455
  605MOL0     H81665  10.996   2.094   3.448 -0.5099  0.2139 -0.0849
  605MOL0     H81666  10.955   2.147   3.287 -0.7195  1.7587  0.0835
  605MOL0     H81667  11.128   2.299   3.503  0.8237 -2.2012  0.9647
  605MOL0     H81668  11.061   2.382   3.360  0.6596 -0.5807 -0.4615
  605MOL0     H81669  11.289   2.324   3.294  3.5211 -1.3469  3.0570
  605MOL0     H81670  11.214   2.185   3.234 -1.4330  0.4178  0.8041
  605MOL0     H81671  11.329   2.223   3.510 -0.6694 -0.6979  0.5247
  605MOL0     H81672  11.422   2.162   3.383  0.0965 -1.7616 -0.1279
  605MOL0     H81673  11.237   1.816   3.535  0.9491  0.7322  2.7293
  605MOL0     H81674  10.993   2.153   3.671  0.2778 -1.7990 -2.3337
  605MOL0     H81675  10.895   2.087   3.849  1.7575 -1.3718 -2.8543
  606MOL0     O81676   8.535   2.213   3.021 -0.2798  0.3096  0.0350
  606MOL0     C81677   8.629   2.141   3.057  0.8658 -0.2446 -0.6109
  606MOL0     O81678   8.654   2.092   3.183 -0.4906 -0.1337  0.2409
  606MOL0     C81679   8.569   2.097   3.293 -0.5175  0.3967 -0.2245
  606MOL0     C81680   8.622   2.062   3.420  0.6832 -0.0430  0.7593
  606MOL0     C81681   8.533   2.058   3.528  0.6012 -0.1383  0.0247
  606MOL0     C81682   8.397   2.089   3.516 -0.3824  0.2995  0.4187
  606MOL0     O81683   8.309   2.083   3.620  0.1067  0.0817 -0.4687
  606MOL0     C81684   8.218   2.195   3.638 -1.0097 -0.2052 -0.4062
  606MOL0     C81685   8.286   2.324   3.708 -0.9185  0.0149 -0.0423
  606MOL0     C81686   8.365   2.287   3.832 -0.4770 -0.2488 -0.2108
  606MOL0     C81687   8.318   2.378   3.950  0.3515 -0.5688  0.2190
  606MOL0     C81688   8.412   2.384   4.075  0.1185  0.6179  0.7268
  606MOL0     C81689   8.328   2.380   4.215 -0.0193 -0.1063  0.1089
  606MOL0     C81690   8.219   2.490   4.222  0.6597  0.0200 -0.3269
  606MOL0     C81691   8.115   2.450   4.330  0.1722 -0.2524  0.2583
  606MOL0     N81692   8.166   2.431   4.467 -0.1051 -0.5290  0.0727
  606MOL0     C81693   8.242   2.510   4.549  0.0262  0.0024  0.1941
  606MOL0     C81694   8.267   2.432   4.658 -0.4364 -0.1465  0.5604
  606MOL0     C81695   8.350   2.481   4.771  0.5913  0.3097  0.7514
  606MOL0     C81696   8.268   2.541   4.887 -1.3587 -0.4108  0.0436
  606MOL0     C81697   8.364   2.577   5.003  0.6906  0.7309  0.6835
  606MOL0     C81698   8.320   2.692   5.096  0.5637 -0.0809  0.1624
  606MOL0     O81699   8.195   2.653   5.146  0.3079  0.0527  0.7414
  606MOL0     C81700   8.143   2.735   5.250  0.8154 -0.4269  0.3403
  606MOL0     C81701   8.069   2.661   5.342  0.4727 -0.8824 -1.3446
  606MOL0     C81702   7.989   2.737   5.439 -0.2406  0.3042  0.5635
  606MOL0     C81703   7.902   2.655   5.519 -0.2914  1.0109 -0.6087
  606MOL0     C81704   7.991   2.880   5.437  0.8760 -0.0102 -0.9356
  606MOL0     C81705   7.925   2.970   5.529 -0.8640 -0.1016 -0.0808
  606MOL0     O81706   7.926   2.932   5.662  0.1981 -0.1749  0.1317
  606MOL0     C81707   7.918   3.017   5.768  0.8057  0.4949  0.8788
  606MOL0     C81708   7.964   3.150   5.782 -0.9946 -0.0440  0.2642
  606MOL0     C81709   7.975   3.206   5.910  0.2849  1.0755  0.2347
  606MOL0     C81710   7.936   3.135   6.032 -0.4573 -0.3148 -0.2114
  606MOL0     O81711   7.954   3.209   6.147  0.2563 -0.2164 -0.5406
  606MOL0     C81712   7.941   3.143   6.279  1.0784 -1.3243 -0.2205
  606MOL0     C81713   8.074   3.067   6.315 -0.9452  0.3943  0.3805
  606MOL0     C81714   8.197   3.163   6.328  1.4839 -0.9364  0.4575
  606MOL0     C81715   8.332   3.092   6.331  0.8018  0.2867  0.0728
  606MOL0     C81716   8.451   3.197   6.325  0.2269  0.6577 -0.3348
  606MOL0     C81717   8.571   3.112   6.364  0.7841  0.1219  0.4673
  606MOL0     C81718   8.700   3.195   6.348 -0.8847  0.7957  0.3908
  606MOL0     C81719   8.837   3.119   6.341  0.3771 -0.7121 -0.2474
  606MOL0    Cl81720   8.811   2.985   6.238  0.2279  0.1389 -0.0851
  606MOL0     C81721   7.894   2.999   6.018  0.0363 -0.1032 -0.4133
  606MOL0     C81722   7.894   2.943   5.887  0.5185  0.1181  0.3208
  606MOL0     O81723   7.882   3.076   5.486 -0.2327  0.3786 -0.1426
  606MOL0     C81724   8.078   2.947   5.353  1.5262 -0.0246  0.2227
  606MOL0     C81725   8.149   2.880   5.255 -0.0830  0.5097 -0.7542
  606MOL0     N81726   8.208   2.309   4.642 -0.8534 -0.0275 -0.0252
  606MOL0     N81727   8.152   2.309   4.529 -0.0937 -0.3102 -0.1887
  606MOL0     C81728   8.345   2.119   3.390 -0.3235 -0.4898  1.1533
  606MOL0     C81729   8.435   2.118   3.284  0.3059  0.5950  0.1532
  606MOL0     C81730   8.713   2.108   2.945 -0.1815  0.4064  0.3268
  606MOL0     C81731   8.818   2.005   2.962  0.3958 -0.4028  0.5554
  606MOL0     C81732   8.902   1.967   2.861  0.0160 -0.0952  0.1448
  606MOL0     C81733   8.893   2.029   2.733  0.1501 -0.7307 -0.1069
  606MOL0     O81734   8.977   2.015   2.624  0.2042  0.1002 -0.8812
  606MOL0     C81735   9.102   1.953   2.650  0.6962 -0.3130  0.4720
  606MOL0     C81736   9.198   2.005   2.546 -0.2089  1.3002 -0.5911
  606MOL0     C81737   9.188   1.924   2.411  0.2490 -0.9022 -0.5634
  606MOL0     C81738   9.068   1.964   2.324  0.3739 -0.4041  0.2911
  606MOL0     C81739   9.093   2.094   2.264 -0.5681 -0.6148 -0.0468
  606MOL0     C81740   9.145   2.202   2.234  0.3579  0.3067  0.5662
  606MOL0     C81741   8.802   2.144   2.716  0.6234  1.1923  0.7288
  606MOL0     C81742   8.705   2.175   2.815 -0.7556  0.6046 -0.4995
  606MOL0     H81743   8.727   2.033   3.422  0.4379 -1.1320 -0.7404
  606MOL0     H81744   8.568   2.017   3.622 -2.5410 -2.4715  0.3257
  606MOL0     H81745   8.170   2.229   3.546  2.6952 -1.3613 -2.9783
  606MOL0     H81746   8.137   2.156   3.700 -0.2116  0.9848  1.4856
  606MOL0     H81747   8.359   2.367   3.639 -1.8579 -0.1572 -1.1762
  606MOL0     H81748   8.208   2.398   3.729 -1.8574 -1.0464  0.4008
  606MOL0     H81749   8.367   2.181   3.857 -1.6857 -0.8980 -2.6860
  606MOL0     H81750   8.470   2.313   3.815 -0.7798 -0.9271 -3.8913
  606MOL0     H81751   8.298   2.474   3.902  2.3954 -0.3799 -0.3516
  606MOL0     H81752   8.222   2.335   3.979 -0.2838  0.8111  0.2147
  606MOL0     H81753   8.486   2.304   4.075 -0.2386  0.2539  2.4683
  606MOL0     H81754   8.470   2.477   4.076  0.2774  0.5218  1.8252
  606MOL0     H81755   8.282   2.280   4.213 -0.1634 -0.0318 -0.3193
  606MOL0     H81756   8.394   2.394   4.302 -0.7196 -1.7093  0.9402
  606MOL0     H81757   8.264   2.589   4.229  3.8119 -1.1954 -1.8304
  606MOL0     H81758   8.163   2.491   4.128  0.7970  0.8384 -0.4015
  606MOL0     H81759   8.066   2.360   4.292 -0.5363 -0.3122  1.2836
  606MOL0     H81760   8.032   2.520   4.341 -0.2702 -1.0241  2.3872
  606MOL0     H81761   8.278   2.609   4.524  1.6358  0.2748  3.1821
  606MOL0     H81762   8.415   2.397   4.798 -0.4448 -1.5111 -2.0098
  606MOL0     H81763   8.429   2.548   4.735 -2.2807  3.4438 -0.2763
  606MOL0     H81764   8.191   2.467   4.913  0.3857 -2.0778  0.6919
  606MOL0     H81765   8.222   2.631   4.846 -0.2148 -0.4216 -1.3658
  606MOL0     H81766   8.465   2.604   4.970  2.0116 -3.5228  0.7277
  606MOL0     H81767   8.386   2.488   5.062 -3.6797 -1.8544 -1.1020
  606MOL0     H81768   8.314   2.789   5.045  0.8688  1.9908  3.7444
  606MOL0     H81769   8.384   2.709   5.183 -1.4681  1.9209  1.3614
  606MOL0     H81770   8.055   2.555   5.326  0.5375 -1.0453 -0.3867
  606MOL0     H81771   7.961   2.588   5.582 -2.0213 -2.4575 -2.3727
  606MOL0     H81772   7.831   2.706   5.586 -0.5677  1.5334 -1.2917
  606MOL0     H81773   7.846   2.580   5.462  2.7199 -1.3906 -0.6614
  606MOL0     H81774   8.005   3.213   5.703 -0.9821  1.1113  1.1580
  606MOL0     H81775   8.016   3.305   5.923 -0.2617  1.2836  0.4059
  606MOL0     H81776   7.934   3.212   6.363 -3.9321  0.0055 -1.3720
  606MOL0     H81777   7.850   3.084   6.287  0.1484 -1.1708 -5.6305
  606MOL0     H81778   8.067   3.015   6.411 -0.9889  1.6851  1.1049
  606MOL0     H81779   8.098   2.995   6.236 -0.5633  1.3050 -0.3475
  606MOL0     H81780   8.182   3.225   6.417  5.8681 -1.6897  1.9596
  606MOL0     H81781   8.204   3.246   6.257  0.9748 -0.1416  1.3244
  606MOL0     H81782   8.325   3.033   6.422 -3.1048  0.9098  0.3422
  606MOL0     H81783   8.347   3.028   6.243 -0.6762  1.8991 -1.4414
  606MOL0     H81784   8.424   3.274   6.399 -2.8636  0.5410 -1.2046
  606MOL0     H81785   8.449   3.241   6.225  0.0427  3.5614  0.8220
  606MOL0     H81786   8.569   3.088   6.470  1.5466  0.7447  0.6246
  606MOL0     H81787   8.579   3.024   6.299  2.4466  1.0828 -0.6938
  606MOL0     H81788   8.709   3.254   6.440 -0.2679  1.5511 -0.1372
  606MOL0     H81789   8.695   3.259   6.259  0.8740 -0.7157 -0.8833
  606MOL0     H81790   8.873   3.090   6.439 -1.5772 -1.2101  0.3718
  606MOL0     H81791   8.908   3.183   6.287 -0.9923  1.4177  0.3448
  606MOL0     H81792   7.877   2.936   6.105 -0.9529  1.7548  0.8202
  606MOL0     H81793   7.865   2.838   5.891  0.8703  0.0353  0.8147
  606MOL0     H81794   8.079   3.055   5.361  2.9993  0.0810 -0.8265
  606MOL0     H81795   8.198   2.942   5.181  0.2320  0.2325 -0.7781
  606MOL0     H81796   8.236   2.122   3.382 -0.7725 -0.5845  5.0870
  606MOL0     H81797   8.375   2.134   3.195 -1.9962  1.7187  1.8016
  606MOL0     H81798   8.826   1.949   3.054  0.1785  0.6412  1.2323
  606MOL0     H81799   8.976   1.888   2.874  1.7535  1.1642 -1.5593
  606MOL0     H81800   9.136   1.987   2.749 -0.5550  2.2780  0.1070
  606MOL0     H81801   9.107   1.846   2.630 -0.7608 -0.3228  0.0879
  606MOL0     H81802   9.296   1.990   2.592 -0.6026  0.8038  0.1010
  606MOL0     H81803   9.178   2.112   2.539 -1.9757  1.4081  3.3632
  606MOL0     H81804   9.174   1.816   2.418 -3.4539 -0.4828  0.5647
  606MOL0     H81805   9.284   1.945   2.364  0.1235  0.0721 -0.4049
  606MOL0     H81806   8.980   1.981   2.387 -0.5187  0.6346 -1.1758
  606MOL0     H81807   9.044   1.888   2.249  0.0479 -0.2589  0.2506
  606MOL0     H81808   9.186   2.295   2.201  0.9546  0.1818  0.9379
  606MOL0     H81809   8.815   2.196   2.622 -1.0151  0.1593 -0.1206
  606MOL0     H81810   8.645   2.265   2.800 -1.2059  0.2840 -0.6251
  607MOL0     O81811  10.839   5.337   5.426 -0.7549 -0.4946 -0.3146
  607MOL0     C81812  10.716   5.329   5.434  0.0931  0.3727  0.0294
  607MOL0     O81813  10.630   5.290   5.339 -0.3595 -1.0074 -0.3256
  607MOL0     C81814  10.668   5.278   5.206 -0.5487 -0.2536  0.4176
  607MOL0     C81815  10.637   5.156   5.141 -0.8437 -0.1343 -0.2559
  607MOL0     C81816  10.669   5.140   5.002 -0.5027  0.9029  0.0213
  607MOL0     C81817  10.758   5.225   4.941  0.6881  0.9268 -0.6277
  607MOL0     O81818  10.802   5.197   4.816  0.8121 -0.7646  1.0227
  607MOL0     C81819  10.806   5.067   4.764 -0.3467 -0.3619  0.2032
  607MOL0     C81820  10.915   5.043   4.664 -0.8740 -0.2333  0.5205
  607MOL0     C81821  11.063   5.065   4.724 -0.0970  0.9728  0.5609
  607MOL0     C81822  11.121   5.208   4.719  0.1644  0.4185  0.3744
  607MOL0     C81823  11.265   5.190   4.779  0.8475 -0.3769  0.3285
  607MOL0     C81824  11.342   5.326   4.804  0.5382 -0.6393 -0.3592
  607MOL0     C81825  11.279   5.423   4.902 -0.1000 -0.9064  1.0545
  607MOL0     C81826  11.372   5.515   4.978 -1.2072  0.0699  0.2474
  607MOL0     N81827  11.463   5.453   5.080  0.5594  0.2180 -0.2335
  607MOL0     C81828  11.458   5.477   5.218 -0.5727  0.6200 -0.5092
  607MOL0     C81829  11.576   5.430   5.265 -0.4561 -0.6394 -0.3390
  607MOL0     C81830  11.631   5.415   5.405 -0.4938  0.6275 -0.1338
  607MOL0     C81831  11.602   5.546   5.488  0.6775  0.4734 -0.1883
  607MOL0     C81832  11.593   5.531   5.640  0.2255  0.3692 -0.5540
  607MOL0     C81833  11.462   5.468   5.699  0.6333 -0.0739  0.1604
  607MOL0     O81834  11.358   5.570   5.721  0.0166 -0.3529  0.6926
  607MOL0     C81835  11.271   5.563   5.616  0.5487  0.0353  0.0807
  607MOL0     C81836  11.211   5.692   5.615 -0.0660  0.0162  0.5721
  607MOL0     C81837  11.107   5.723   5.527  0.4284 -0.2627 -0.8127
  607MOL0     C81838  11.050   5.859   5.544 -1.0280  0.3176 -0.8252
  607MOL0     C81839  11.055   5.628   5.442  0.2988  0.0603  0.3495
  607MOL0     C81840  10.934   5.645   5.369 -0.2874  0.0162  0.1822
  607MOL0     O81841  10.827   5.703   5.429  0.4205 -1.4149 -0.2215
  607MOL0     C81842  10.729   5.754   5.351  0.6173 -0.3950  0.7428
  607MOL0     C81843  10.601   5.699   5.373 -0.0334  0.0233 -0.5288
  607MOL0     C81844  10.489   5.728   5.296  0.4917  0.9899 -0.3281
  607MOL0     C81845  10.506   5.810   5.182 -0.1068  0.2453 -0.1502
  607MOL0     O81846  10.399   5.821   5.097  0.5037  0.5384 -0.1150
  607MOL0     C81847  10.430   5.841   4.958 -0.1251  0.6117  0.3331
  607MOL0     C81848  10.513   5.728   4.894  1.4411 -0.6015 -0.7380
  607MOL0     C81849  10.525   5.733   4.743 -0.1745  0.8349 -1.0035
  607MOL0     C81850  10.618   5.614   4.694 -1.1242 -0.7099 -0.0614
  607MOL0     C81851  10.677   5.653   4.557 -0.0498  0.1842 -0.1168
  607MOL0     C81852  10.774   5.550   4.500 -0.5519  0.2349 -0.2911
  607MOL0     C81853  10.745   5.398   4.499 -0.0495 -0.2429  0.6541
  607MOL0     C81854  10.637   5.375   4.394 -0.3532  0.3832 -0.2342
  607MOL0    Cl81855  10.641   5.194   4.366  0.5680  0.2914 -0.1754
  607MOL0     C81856  10.637   5.874   5.162  0.6670 -1.1396  0.6218
  607MOL0     C81857  10.745   5.847   5.243  1.3584 -0.1803  0.7303
  607MOL0     O81858  10.953   5.620   5.244  0.5030 -0.5219  0.2283
  607MOL0     C81859  11.112   5.499   5.450 -0.5905  0.0164  0.0110
  607MOL0     C81860  11.219   5.465   5.533  0.7370  0.2849  0.2939
  607MOL0     N81861  11.641   5.375   5.149  0.4859 -0.1869 -0.3855
  607MOL0     N81862  11.573   5.390   5.043 -1.2834  0.0053  0.7141
  607MOL0     C81863  10.793   5.343   5.011  1.0084  0.6099  0.3629
  607MOL0     C81864  10.747   5.366   5.138  0.4500  0.4538 -0.5413
  607MOL0     C81865  10.661   5.356   5.568  0.3576 -0.5953  0.2129
  607MOL0     C81866  10.521   5.389   5.589 -0.1119 -1.3559  0.2662
  607MOL0     C81867  10.471   5.439   5.714  0.1495  0.1192 -0.4806
  607MOL0     C81868  10.552   5.452   5.825  0.3732 -0.7339 -0.1076
  607MOL0     O81869  10.497   5.512   5.935 -0.3546 -0.1159 -0.4355
  607MOL0     C81870  10.577   5.520   6.062 -1.0840 -0.1755  0.0294
  607MOL0     C81871  10.499   5.590   6.163 -0.4523 -0.1846 -0.7232
  607MOL0     C81872  10.387   5.495   6.220  0.4936 -0.3336 -0.1958
  607MOL0     C81873  10.435   5.397   6.334 -0.2115  0.5606  0.8671
  607MOL0     C81874  10.328   5.334   6.404 -0.0788  0.1697  0.0299
  607MOL0     C81875  10.240   5.254   6.436 -0.5365 -0.6160  0.0547
  607MOL0     C81876  10.684   5.424   5.807 -0.0109  0.6948  0.6578
  607MOL0     C81877  10.740   5.376   5.684  0.9588  0.3438  0.1969
  607MOL0     H81878  10.577   5.084   5.195  1.1450 -1.5276  0.2238
  607MOL0     H81879  10.624   5.048   4.966  1.2906 -0.9279  2.1532
  607MOL0     H81880  10.807   4.987   4.839  3.3135  1.2130  2.1075
  607MOL0     H81881  10.710   5.056   4.712 -0.7898 -0.0482  0.9441
  607MOL0     H81882  10.902   4.943   4.620 -0.1073  0.2562 -0.9093
  607MOL0     H81883  10.897   5.113   4.582  1.8313 -1.8790 -1.6492
  607MOL0     H81884  11.058   5.027   4.826  2.8249 -1.5284 -0.0898
  607MOL0     H81885  11.141   5.010   4.670 -1.8757  1.2099 -2.4816
  607MOL0     H81886  11.128   5.256   4.621  1.7259  0.0657  0.2779
  607MOL0     H81887  11.058   5.258   4.793  0.3559 -0.1226  0.9137
  607MOL0     H81888  11.258   5.143   4.878 -1.6539 -1.5583 -0.3395
  607MOL0     H81889  11.324   5.125   4.715 -0.9609 -0.9556 -0.8228
  607MOL0     H81890  11.437   5.300   4.852 -0.4176 -0.1378  1.9277
  607MOL0     H81891  11.346   5.372   4.705 -2.4548  3.8311  1.2606
  607MOL0     H81892  11.202   5.479   4.848  0.9464 -1.6177 -1.3247
  607MOL0     H81893  11.226   5.358   4.972 -3.8269  1.6615  0.8819
  607MOL0     H81894  11.320   5.593   5.034  0.0952  1.0586  0.1292
  607MOL0     H81895  11.439   5.564   4.907 -1.2400  3.0294  2.0765
  607MOL0     H81896  11.377   5.521   5.276 -0.7158 -1.1264  0.7013
  607MOL0     H81897  11.615   5.317   5.451 -1.0060 -1.3587 -4.0762
  607MOL0     H81898  11.740   5.413   5.407 -0.3298  0.6079 -3.1802
  607MOL0     H81899  11.499   5.577   5.465 -0.1666  0.4523  3.0292
  607MOL0     H81900  11.681   5.616   5.460  0.2037  1.0452 -0.1149
  607MOL0     H81901  11.604   5.629   5.688  0.7787 -0.0525  0.1893
  607MOL0     H81902  11.673   5.468   5.680  1.6564  2.3396 -0.1862
  607MOL0     H81903  11.487   5.426   5.797  2.6954  2.2635  0.7176
  607MOL0     H81904  11.440   5.380   5.639  0.2691  0.8179 -1.0440
  607MOL0     H81905  11.249   5.772   5.678  0.9189 -0.0963  0.1478
  607MOL0     H81906  10.993   5.886   5.454 -4.6379  1.8208  1.6814
  607MOL0     H81907  10.989   5.867   5.634  1.5665 -0.4910  1.1108
  607MOL0     H81908  11.133   5.928   5.562 -0.0201 -1.5632  2.5097
  607MOL0     H81909  10.589   5.634   5.458 -2.1391  2.0244  0.8118
  607MOL0     H81910  10.396   5.686   5.333  1.0136  2.8077  3.5952
  607MOL0     H81911  10.334   5.853   4.906  2.4257  3.0637 -4.5157
  607MOL0     H81912  10.478   5.936   4.936 -0.7766  0.8303 -0.1878
  607MOL0     H81913  10.610   5.711   4.941  0.2248 -3.5760  0.9705
  607MOL0     H81914  10.454   5.637   4.912 -3.1676  2.2762  0.5257
  607MOL0     H81915  10.567   5.822   4.697  2.7578  0.3900  0.5554
  607MOL0     H81916  10.425   5.724   4.701 -0.4702 -2.0639  0.0931
  607MOL0     H81917  10.706   5.613   4.760 -0.7316 -0.5278 -0.5756
  607MOL0     H81918  10.567   5.518   4.694 -0.8646 -0.9905  3.3878
  607MOL0     H81919  10.728   5.750   4.558  0.6484 -0.1779 -0.0779
  607MOL0     H81920  10.600   5.669   4.480  1.2897  0.2121 -1.5072
  607MOL0     H81921  10.813   5.597   4.410 -0.0866  4.0829  1.6985
  607MOL0     H81922  10.863   5.564   4.562  0.1484  1.4691 -1.5397
  607MOL0     H81923  10.726   5.365   4.602  0.7582 -0.4732  0.7320
  607MOL0     H81924  10.827   5.344   4.451 -0.6837  0.6042 -1.5325
  607MOL0     H81925  10.671   5.409   4.296 -0.2976 -1.3887 -0.8765
  607MOL0     H81926  10.552   5.424   4.441  0.4768  1.9161 -0.2931
  607MOL0     H81927  10.651   5.940   5.078  1.7782 -1.5499  0.4738
  607MOL0     H81928  10.840   5.894   5.221  1.0830 -0.1438 -0.4756
  607MOL0     H81929  11.060   5.412   5.411 -2.2722  0.7245  0.5984
  607MOL0     H81930  11.253   5.362   5.529  3.3989  1.0971 -3.0473
  607MOL0     H81931  10.851   5.420   4.961 -0.6428 -0.4337 -3.5080
  607MOL0     H81932  10.769   5.454   5.199  0.0896 -1.1976  2.1434
  607MOL0     H81933  10.455   5.391   5.503  0.2237 -0.2306  0.0110
  607MOL0     H81934  10.369   5.469   5.735  0.5476 -0.1554  2.1852
  607MOL0     H81935  10.609   5.419   6.090  2.2897 -0.3003 -3.4260
  607MOL0     H81936  10.671   5.575   6.048 -1.4071  0.9411  1.8565
  607MOL0     H81937  10.448   5.672   6.112  1.3889  0.7898 -1.0584
  607MOL0     H81938  10.562   5.629   6.243 -1.7269 -1.6356  1.0976
  607MOL0     H81939  10.336   5.432   6.147  1.4711 -0.4645 -0.7730
  607MOL0     H81940  10.309   5.560   6.262  0.2607  0.3060 -1.5709
  607MOL0     H81941  10.504   5.453   6.398 -1.9103  2.0327  1.4863
  607MOL0     H81942  10.478   5.312   6.281 -0.2177  1.6297 -0.9230
  607MOL0     H81943  10.163   5.182   6.455  0.6953 -2.4313 -1.4015
  607MOL0     H81944  10.759   5.441   5.884  0.0383 -3.8055  1.8472
  607MOL0     H81945  10.847   5.360   5.672  0.7214 -0.9604 -0.4783
  608MOL0     O81946   3.892   6.873   3.385  0.1578 -1.5505  0.2714
  608MOL0     C81947   3.958   6.908   3.285 -0.4957 -0.4373 -0.1171
  608MOL0     O81948   3.986   6.822   3.179 -0.0243 -0.2889  0.4071
  608MOL0     C81949   3.968   6.686   3.199 -0.8496  0.2975  0.6061
  608MOL0     C81950   4.001   6.617   3.317  0.1727  0.3757 -0.1927
  608MOL0     C81951   4.005   6.474   3.317  0.1951  0.5364  1.1526
  608MOL0     C81952   3.975   6.405   3.198  0.4920 -0.2387 -0.4619
  608MOL0     O81953   3.972   6.264   3.186 -0.3540 -0.2093  0.9786
  608MOL0     C81954   3.975   6.191   3.310 -0.1316  0.1645 -0.3367
  608MOL0     C81955   3.907   6.051   3.289 -0.6508 -0.6270 -0.2530
  608MOL0     C81956   3.795   6.016   3.382  0.4579 -0.1013  1.0718
  608MOL0     C81957   3.677   6.111   3.361 -0.1473 -1.0781 -0.9143
  608MOL0     C81958   3.576   6.078   3.480 -0.3241  0.8067  0.1426
  608MOL0     C81959   3.451   6.150   3.470 -1.0795 -0.7247 -0.7688
  608MOL0     C81960   3.333   6.105   3.565 -0.2990 -0.2499 -0.1766
  608MOL0     C81961   3.318   5.953   3.565 -0.3125  0.1189  0.9280
  608MOL0     N81962   3.211   5.905   3.649  1.0994  0.2480  0.2830
  608MOL0     C81963   3.119   5.981   3.722 -0.2720 -0.2876 -0.3612
  608MOL0     C81964   3.012   5.904   3.746  0.8383  0.7295  0.4566
  608MOL0     C81965   2.888   5.938   3.825  0.4246 -0.3343 -0.6820
  608MOL0     C81966   2.767   5.918   3.727 -0.2150 -1.8920 -0.3876
  608MOL0     C81967   2.636   5.902   3.815 -0.5502  0.9959  0.2589
  608MOL0     C81968   2.507   5.922   3.735  0.6838  0.0734  0.2555
  608MOL0     O81969   2.467   6.060   3.732  0.1209 -0.4830 -0.1537
  608MOL0     C81970   2.340   6.080   3.697  0.3687  0.9625  0.1881
  608MOL0     C81971   2.289   6.200   3.755 -0.1995  0.8435  0.6632
  608MOL0     C81972   2.161   6.229   3.736  0.2880  1.3685 -0.5580
  608MOL0     C81973   2.108   6.347   3.812 -0.3426 -1.3387  0.5848
  608MOL0     C81974   2.073   6.150   3.656 -0.2871  0.1705 -0.3682
  608MOL0     C81975   1.935   6.188   3.614  0.9063 -0.3141 -0.1658
  608MOL0     O81976   1.883   6.126   3.496 -0.1858 -0.4023 -0.1745
  608MOL0     C81977   1.750   6.130   3.488  0.0235 -0.7429 -0.2156
  608MOL0     C81978   1.682   6.224   3.399 -0.7394 -0.1318 -0.0103
  608MOL0     C81979   1.548   6.244   3.401  0.5096  1.1793  0.0388
  608MOL0     C81980   1.467   6.169   3.496  0.3506  0.1659 -0.6178
  608MOL0     O81981   1.330   6.205   3.499 -0.2586  0.5773  0.1115
  608MOL0     C81982   1.254   6.166   3.608  0.2704  1.1798 -0.4935
  608MOL0     C81983   1.115   6.218   3.599  0.5676  0.0026 -0.1284
  608MOL0     C81984   1.021   6.149   3.496  0.0877 -0.5162 -0.3852
  608MOL0     C81985   0.869   6.179   3.517  0.7546 -0.2297 -0.2173
  608MOL0     C81986   0.832   6.297   3.597 -0.6182  0.1519  0.4935
  608MOL0     C81987   0.684   6.335   3.566 -0.2370  0.3305 -0.3246
  608MOL0     C81988   0.617   6.392   3.695  0.1752  0.7168 -0.0404
  608MOL0     C81989   0.478   6.459   3.660 -0.6529  0.0690 -0.2360
  608MOL0    Cl81990   0.424   6.538   3.820 -0.1212  0.2777  0.1418
  608MOL0     C81991   1.528   6.076   3.577 -0.1405 -0.0854 -0.1147
  608MOL0     C81992   1.667   6.054   3.568  0.0294  0.7656  1.1391
  608MOL0     O81993   1.871   6.277   3.678 -0.1799  0.6333  0.0136
  608MOL0     C81994   2.127   6.025   3.606  0.0274 -0.3936  0.2373
  608MOL0     C81995   2.263   5.997   3.624  0.3587  0.1693  1.1052
  608MOL0     N81996   3.045   5.776   3.694  1.6994  0.3319  0.2525
  608MOL0     N81997   3.157   5.779   3.638 -1.3356 -0.5477  0.6966
  608MOL0     C81998   3.948   6.470   3.085 -0.3581 -1.1237 -0.2270
  608MOL0     C81999   3.945   6.614   3.082  0.1082  0.4621 -0.7851
  608MOL0     C82000   4.022   7.040   3.293 -0.5624 -0.6879 -0.4017
  608MOL0     C82001   4.066   7.102   3.176  0.4206  0.7587  1.2350
  608MOL0     C82002   4.102   7.238   3.174 -0.1495  0.1823  0.2531
  608MOL0     C82003   4.088   7.324   3.295  0.1114  0.7403 -0.1384
  608MOL0     O82004   4.092   7.463   3.313 -0.0781 -0.6905  0.5103
  608MOL0     C82005   4.094   7.546   3.196  0.5921 -0.0645  1.1653
  608MOL0     C82006   4.082   7.696   3.221 -0.7432  0.1157 -0.1580
  608MOL0     C82007   4.229   7.763   3.259  0.7210 -0.1760  1.3445
  608MOL0     C82008   4.234   7.907   3.300 -0.1910  0.4827  0.3368
  608MOL0     C82009   4.187   8.016   3.213  0.1631 -0.1659 -0.1241
  608MOL0     C82010   4.146   8.106   3.161  0.3467 -0.8739  0.7549
  608MOL0     C82011   4.049   7.257   3.414 -0.2580  0.2116 -0.2473
  608MOL0     C82012   4.014   7.119   3.408 -0.2802  0.3579  0.0283
  608MOL0     H82013   4.046   6.670   3.401  2.0191 -3.8278  1.7329
  608MOL0     H82014   4.048   6.420   3.402  1.2539 -2.9917 -1.3995
  608MOL0     H82015   4.077   6.184   3.349 -0.5639  4.4159  2.1023
  608MOL0     H82016   3.911   6.248   3.377 -3.5356 -2.0707 -1.4228
  608MOL0     H82017   3.882   6.044   3.183  0.0671 -0.8410 -0.4129
  608MOL0     H82018   3.982   5.971   3.291 -1.2740 -1.2337  2.5421
  608MOL0     H82019   3.761   5.912   3.380 -0.6264  0.2196 -2.0184
  608MOL0     H82020   3.835   6.037   3.482  2.3296 -0.7800  0.5013
  608MOL0     H82021   3.715   6.213   3.373  1.5692 -1.9268  1.9909
  608MOL0     H82022   3.624   6.088   3.269 -3.6661 -0.8340  0.8950
  608MOL0     H82023   3.565   5.971   3.462  0.5615  0.6880  0.2515
  608MOL0     H82024   3.632   6.099   3.571  0.5128  3.5256 -0.9057
  608MOL0     H82025   3.471   6.257   3.482  1.0506 -1.0127 -1.3803
  608MOL0     H82026   3.422   6.134   3.366  0.8240 -4.3245 -0.9068
  608MOL0     H82027   3.329   6.134   3.670 -1.9732  1.2190 -0.6054
  608MOL0     H82028   3.245   6.153   3.522 -0.0522 -0.0899 -0.5132
  608MOL0     H82029   3.416   5.915   3.595 -0.8505 -2.8465 -0.7240
  608MOL0     H82030   3.307   5.926   3.460  1.0219  0.3041  0.7215
  608MOL0     H82031   3.133   6.078   3.768  1.2604 -2.2475  3.7794
  608MOL0     H82032   2.888   5.874   3.914  2.5547  1.1373  0.4415
  608MOL0     H82033   2.887   6.043   3.855 -0.4100 -0.1229 -1.4035
  608MOL0     H82034   2.766   5.830   3.661 -2.2516 -2.9960  0.9900
  608MOL0     H82035   2.760   6.005   3.661 -0.7837 -0.9343  0.8912
  608MOL0     H82036   2.636   5.968   3.902 -2.4835  2.4799 -0.7750
  608MOL0     H82037   2.637   5.795   3.839 -1.0987  0.4166 -2.0883
  608MOL0     H82038   2.420   5.870   3.774  0.4719 -1.1257 -1.7171
  608MOL0     H82039   2.516   5.890   3.630 -0.4981  2.3926 -0.6231
  608MOL0     H82040   2.348   6.258   3.826  0.3990 -0.2971  1.1217
  608MOL0     H82041   2.100   6.434   3.746  1.9580 -3.2351 -2.4849
  608MOL0     H82042   2.022   6.320   3.873  1.7556 -0.9772  3.9824
  608MOL0     H82043   2.188   6.378   3.881  1.3017 -4.4270  0.2369
  608MOL0     H82044   1.744   6.290   3.338  0.9222 -0.2951  1.3985
  608MOL0     H82045   1.500   6.319   3.339  2.0500  1.0250 -1.4203
  608MOL0     H82046   1.245   6.057   3.601 -3.7372  1.3025  0.4655
  608MOL0     H82047   1.301   6.195   3.702  2.0748 -3.5126  0.3214
  608MOL0     H82048   1.088   6.220   3.704  0.7951  1.4378 -0.0713
  608MOL0     H82049   1.112   6.324   3.572 -1.5949  0.5374  1.8943
  608MOL0     H82050   1.037   6.041   3.500 -1.4109 -0.7490  0.2694
  608MOL0     H82051   1.048   6.197   3.402 -1.8016 -1.2204 -1.3480
  608MOL0     H82052   0.845   6.209   3.415  1.4852 -1.3349 -0.7328
  608MOL0     H82053   0.825   6.086   3.554  2.3488  0.0811  2.8467
  608MOL0     H82054   0.892   6.387   3.582  2.4410 -1.8940 -0.4977
  608MOL0     H82055   0.836   6.250   3.696 -1.9211 -0.9631  0.0618
  608MOL0     H82056   0.666   6.400   3.480 -1.8675  1.0204  0.4999
  608MOL0     H82057   0.635   6.240   3.545  0.7193 -0.3361  0.3831
  608MOL0     H82058   0.687   6.472   3.724 -0.6026  2.1084 -1.7766
  608MOL0     H82059   0.601   6.310   3.765  0.1646 -1.4416 -2.4093
  608MOL0     H82060   0.408   6.381   3.629 -0.1504  0.1912 -1.7379
  608MOL0     H82061   0.501   6.526   3.577  0.7063 -0.5490 -0.3798
  608MOL0     H82062   1.487   6.010   3.652  1.0251 -0.8652 -0.1468
  608MOL0     H82063   1.714   5.979   3.630 -0.1983  0.1907  0.6347
  608MOL0     H82064   2.062   5.968   3.541 -2.2815  1.8321  0.4358
  608MOL0     H82065   2.300   5.909   3.573  0.1191  1.4747 -1.5132
  608MOL0     H82066   3.925   6.421   2.991  0.8623 -0.3188 -0.9544
  608MOL0     H82067   3.926   6.646   2.980  0.5765 -2.9552 -2.0899
  608MOL0     H82068   4.080   7.042   3.087 -0.0019  1.3696  0.7559
  608MOL0     H82069   4.134   7.297   3.090  1.6197  2.8334  2.6239
  608MOL0     H82070   4.183   7.528   3.135  0.6365 -0.8988  1.4672
  608MOL0     H82071   4.005   7.532   3.134  2.5055  0.1017 -1.7930
  608MOL0     H82072   4.000   7.718   3.291 -1.1597  0.0525 -0.6199
  608MOL0     H82073   4.049   7.737   3.125  3.0007 -1.6727 -2.4105
  608MOL0     H82074   4.300   7.759   3.176 -0.4658  2.6803  0.0732
  608MOL0     H82075   4.263   7.703   3.344 -0.6400  0.5717  2.4531
  608MOL0     H82076   4.333   7.931   3.340 -0.7074 -0.2155  2.1859
  608MOL0     H82077   4.162   7.922   3.381  1.4177  3.8683  1.3124
  608MOL0     H82078   4.118   8.199   3.116  0.9594 -0.3300  1.4617
  608MOL0     H82079   4.043   7.316   3.505  1.6203  0.1862 -0.0658
  608MOL0     H82080   3.985   7.072   3.501  0.9294 -1.4782 -0.4838
  609MOL0     O82081   0.386   0.684   2.102  0.3209  0.1236 -0.8277
  609MOL0     C82082   0.298   0.613   2.158 -0.8188  1.4817  0.1389
  609MOL0     O82083   0.163   0.620   2.129  0.6254  0.5537 -0.4172
  609MOL0     C82084   0.120   0.695   2.020 -0.1183  0.5559  0.5683
  609MOL0     C82085   0.007   0.771   2.047  1.0723  0.1209  0.5645
  609MOL0     C82086  -0.039   0.843   1.933  0.2654  0.3119 -0.1591
  609MOL0     C82087   0.018   0.831   1.804  0.1804 -0.0470  0.8062
  609MOL0     O82088  -0.044   0.889   1.695 -0.0430  0.6656 -0.5086
  609MOL0     C82089   0.022   0.885   1.559 -0.2985  0.8072  0.4153
  609MOL0     C82090  -0.042   0.997   1.477  0.3791 -0.0848 -0.3063
  609MOL0     C82091   0.022   0.999   1.330  0.6858  0.1611 -0.5707
  609MOL0     C82092  -0.023   1.126   1.259 -0.6228  0.0205  0.6001
  609MOL0     C82093  -0.003   1.114   1.096  0.5841 -0.0284 -0.5110
  609MOL0     C82094  -0.117   1.200   1.024 -0.6918  0.6658  0.5487
  609MOL0     C82095  -0.095   1.179   0.869 -0.3292 -0.0966  0.0774
  609MOL0     C82096  -0.218   1.120   0.791 -0.1271 -0.6454  0.0857
  609MOL0     N82097  -0.264   0.990   0.840  0.3179  0.1889  0.1812
  609MOL0     C82098  -0.367   0.976   0.931 -0.8778  0.1605  0.3255
  609MOL0     C82099  -0.374   0.841   0.955  0.0361 -0.7678  1.2711
  609MOL0     C82100  -0.460   0.774   1.057 -0.5017 -0.5091  0.0868
  609MOL0     C82101  -0.384   0.720   1.173 -0.0982 -0.3570  0.2635
  609MOL0     C82102  -0.472   0.721   1.311  0.4979 -0.4764  0.5636
  609MOL0     C82103  -0.537   0.584   1.321 -0.4372 -0.7691 -0.1178
  609MOL0     O82104  -0.614   0.540   1.210  0.4019 -0.0382 -0.0053
  609MOL0     C82105  -0.747   0.518   1.230 -0.0144 -0.2973  0.1464
  609MOL0     C82106  -0.833   0.612   1.297 -0.9212  0.8129  0.0326
  609MOL0     C82107  -0.970   0.592   1.316 -0.6984 -0.4344 -0.7127
  609MOL0     C82108  -1.052   0.711   1.374  0.4573  0.4528 -0.2989
  609MOL0     C82109  -1.027   0.481   1.258  0.0440  0.7566 -0.3993
  609MOL0     C82110  -1.171   0.441   1.252  0.4495  0.0035  0.3908
  609MOL0     O82111  -1.206   0.343   1.157 -0.7720  0.5444  0.3807
  609MOL0     C82112  -1.334   0.314   1.122 -0.5619 -0.3483  0.1562
  609MOL0     C82113  -1.440   0.411   1.120 -0.6764  0.6489 -0.7964
  609MOL0     C82114  -1.564   0.373   1.085  0.1977 -0.0782 -0.2371
  609MOL0     C82115  -1.594   0.245   1.039 -0.3963  0.2102 -0.5337
  609MOL0     O82116  -1.720   0.214   0.999  0.0833 -0.1072  0.1467
  609MOL0     C82117  -1.778   0.104   1.072 -0.4795  0.1478 -0.3841
  609MOL0     C82118  -1.909   0.143   1.133 -0.1070 -0.8937 -0.4401
  609MOL0     C82119  -1.946   0.291   1.127 -0.3324 -0.2494  0.0102
  609MOL0     C82120  -2.086   0.319   1.194 -1.5311 -0.7396  0.3890
  609MOL0     C82121  -2.088   0.466   1.221  0.3461 -0.6489 -0.0275
  609MOL0     C82122  -2.234   0.517   1.244  0.5541 -0.3309 -1.1360
  609MOL0     C82123  -2.249   0.647   1.329  0.6312  0.6014  0.2700
  609MOL0     C82124  -2.335   0.757   1.267  0.1946 -0.5720 -0.4529
  609MOL0    Cl82125  -2.258   0.853   1.138 -0.8468 -0.0656  0.7327
  609MOL0     C82126  -1.487   0.153   1.020 -0.0829 -0.0787  0.2076
  609MOL0     C82127  -1.359   0.180   1.075 -0.3169  1.2522 -0.6893
  609MOL0     O82128  -1.246   0.507   1.320  0.1605  0.1218 -0.1947
  609MOL0     C82129  -0.945   0.383   1.194  0.2530  0.7704 -0.2168
  609MOL0     C82130  -0.808   0.407   1.171 -0.5052  0.7902  0.1993
  609MOL0     N82131  -0.269   0.782   0.891 -0.3021  0.2469 -0.6786
  609MOL0     N82132  -0.198   0.871   0.827 -0.1842  0.5993  0.0249
  609MOL0     C82133   0.133   0.757   1.796 -0.2955 -0.6074  0.2100
  609MOL0     C82134   0.194   0.693   1.899  0.3527 -0.4641  0.9607
  609MOL0     C82135   0.352   0.510   2.253 -1.6346 -0.1677 -0.6207
  609MOL0     C82136   0.495   0.478   2.250  0.7433  0.0511  0.0738
  609MOL0     C82137   0.547   0.377   2.333 -0.5429 -0.6599  0.4637
  609MOL0     C82138   0.475   0.302   2.423  1.1559  0.4005  0.5371
  609MOL0     O82139   0.523   0.205   2.505 -0.2045 -0.3178 -0.0808
  609MOL0     C82140   0.621   0.110   2.460  0.4163  0.0715  0.1743
  609MOL0     C82141   0.631   0.007   2.571  0.5936  1.5884  0.0111
  609MOL0     C82142   0.728  -0.103   2.538 -1.4353  0.2594 -1.0155
  609MOL0     C82143   0.876  -0.073   2.524  0.4517 -0.0413  0.4481
  609MOL0     C82144   0.931  -0.028   2.653 -0.3710 -0.5658  0.7235
  609MOL0     C82145   0.976   0.003   2.766 -1.3221 -0.6158  0.4585
  609MOL0     C82146   0.331   0.328   2.421 -0.3556  0.2865 -0.7157
  609MOL0     C82147   0.279   0.436   2.340 -0.0621  0.3014 -0.2353
  609MOL0     H82148  -0.045   0.769   2.142  1.7305  0.1605  0.9278
  609MOL0     H82149  -0.126   0.907   1.943 -2.3130 -2.4117 -3.0439
  609MOL0     H82150   0.131   0.884   1.559 -0.1778 -2.7365  1.4493
  609MOL0     H82151   0.005   0.790   1.507  3.0232 -1.7002  3.3826
  609MOL0     H82152  -0.152   0.992   1.476  0.1331  3.3390 -0.8774
  609MOL0     H82153  -0.031   1.090   1.533 -0.1911 -1.1082  1.6428
  609MOL0     H82154   0.131   1.003   1.342  0.6045 -0.4601  0.4556
  609MOL0     H82155  -0.011   0.910   1.275 -1.7054  1.3898 -1.2740
  609MOL0     H82156  -0.128   1.141   1.288 -0.1392 -0.2901  2.7094
  609MOL0     H82157   0.030   1.213   1.297  2.2842 -2.0147  1.5753
  609MOL0     H82158   0.091   1.156   1.058 -0.0113  1.0475 -0.8524
  609MOL0     H82159   0.001   1.012   1.057  0.8546  0.9899 -3.4193
  609MOL0     H82160  -0.212   1.159   1.059 -0.6041 -1.0876 -1.0836
  609MOL0     H82161  -0.113   1.305   1.055 -3.5871  1.0309 -0.0105
  609MOL0     H82162  -0.072   1.277   0.827  0.0240 -1.1473 -2.3496
  609MOL0     H82163  -0.003   1.125   0.845  0.5846  0.6642  1.7125
  609MOL0     H82164  -0.184   1.095   0.690 -0.5452  0.9714 -0.4931
  609MOL0     H82165  -0.291   1.201   0.782  1.6575  0.8875 -1.6148
  609MOL0     H82166  -0.419   1.051   0.990  1.3768 -0.4360  3.3182
  609MOL0     H82167  -0.537   0.847   1.086 -3.4102 -2.4853 -1.9852
  609MOL0     H82168  -0.524   0.694   1.019 -3.3627  0.8804  1.6238
  609MOL0     H82169  -0.294   0.781   1.186 -0.0493 -0.4725  0.4727
  609MOL0     H82170  -0.352   0.617   1.153  1.4126 -0.2646  1.9661
  609MOL0     H82171  -0.551   0.796   1.315  0.5148 -0.4740  0.9072
  609MOL0     H82172  -0.401   0.733   1.394  0.7688 -2.4589  0.6730
  609MOL0     H82173  -0.598   0.581   1.411  1.1524  0.1755  1.0367
  609MOL0     H82174  -0.464   0.502   1.332 -0.2105 -0.6013 -0.3508
  609MOL0     H82175  -0.795   0.707   1.332 -3.4633  0.8876  3.0715
  609MOL0     H82176  -1.120   0.671   1.450 -3.2391  1.4698 -2.8152
  609MOL0     H82177  -0.974   0.773   1.419  1.1817 -0.2920 -0.4955
  609MOL0     H82178  -1.092   0.775   1.296 -1.6532  0.3613  0.6482
  609MOL0     H82179  -1.419   0.512   1.155  0.8240 -0.4177  1.6192
  609MOL0     H82180  -1.646   0.444   1.090 -1.3089 -1.7540  0.1633
  609MOL0     H82181  -1.788   0.011   1.016 -0.0454  0.4552 -0.9841
  609MOL0     H82182  -1.707   0.074   1.150  0.1775  1.8576 -0.2702
  609MOL0     H82183  -1.989   0.085   1.086  0.2387 -0.2150 -1.9414
  609MOL0     H82184  -1.909   0.127   1.241  0.9467  1.0767 -0.1058
  609MOL0     H82185  -1.947   0.338   1.029 -1.3378 -2.0240 -0.8820
  609MOL0     H82186  -1.871   0.344   1.187  0.1221  0.0708 -0.8351
  609MOL0     H82187  -2.171   0.282   1.137 -0.7001 -3.9160  1.0343
  609MOL0     H82188  -2.094   0.265   1.288 -0.4166 -0.5589  0.6064
  609MOL0     H82189  -2.032   0.528   1.151 -0.6005  0.4117  0.1305
  609MOL0     H82190  -2.015   0.487   1.299  3.0795 -2.9802 -1.7703
  609MOL0     H82191  -2.279   0.528   1.146  3.0163 -1.8581 -2.5660
  609MOL0     H82192  -2.285   0.436   1.298 -1.1024  0.1474 -1.9579
  609MOL0     H82193  -2.155   0.695   1.355  2.0665 -1.4793 -0.7435
  609MOL0     H82194  -2.311   0.605   1.408  0.7013 -3.0913 -1.4148
  609MOL0     H82195  -2.363   0.821   1.351  1.7513 -0.0334 -0.3030
  609MOL0     H82196  -2.420   0.707   1.221 -1.1699 -0.6687  2.0135
  609MOL0     H82197  -1.501   0.055   0.976  0.6586  0.7699 -2.0385
  609MOL0     H82198  -1.291   0.095   1.074 -0.7770  0.8752 -1.8380
  609MOL0     H82199  -0.979   0.286   1.162  0.7849  1.4022 -2.8940
  609MOL0     H82200  -0.744   0.333   1.124  0.1250  0.2982  1.7491
  609MOL0     H82201   0.169   0.736   1.696 -3.1008  1.9628 -1.5262
  609MOL0     H82202   0.283   0.631   1.892  0.3558 -0.3345 -0.2364
  609MOL0     H82203   0.566   0.526   2.184  0.2837 -0.1912 -0.6083
  609MOL0     H82204   0.655   0.367   2.321 -0.7657 -0.1270 -2.8705
  609MOL0     H82205   0.593   0.056   2.370  0.0412 -1.0216  0.9312
  609MOL0     H82206   0.718   0.159   2.443 -0.6661  2.8414  1.4263
  609MOL0     H82207   0.537  -0.048   2.580  1.1077  0.6310 -0.2381
  609MOL0     H82208   0.660   0.050   2.667  0.4381 -2.6521  2.2070
  609MOL0     H82209   0.708  -0.158   2.445 -0.0563  1.5662 -2.1246
  609MOL0     H82210   0.724  -0.171   2.623  1.4183  1.2964  0.0641
  609MOL0     H82211   0.870  -0.007   2.438 -0.1470 -2.0150 -1.0912
  609MOL0     H82212   0.940  -0.157   2.497  2.1680  1.2765  0.2539
  609MOL0     H82213   1.030   0.032   2.854 -0.4726  0.0390 -0.2521
  609MOL0     H82214   0.257   0.273   2.477  0.1876 -0.3502 -0.6034
  609MOL0     H82215   0.175   0.468   2.339  0.3645  1.7937  0.7756
  610MOL0     O82216   0.695   2.347   8.256 -0.2232  1.0321  0.2536
  610MOL0     C82217   0.763   2.243   8.224 -0.7582 -0.4876 -0.7196
  610MOL0     O82218   0.875   2.244   8.154 -0.2847 -0.3076 -0.2596
  610MOL0     C82219   0.935   2.369   8.139  0.0593  0.8807  0.0683
  610MOL0     C82220   0.956   2.423   8.013  0.0227  0.7870 -0.3568
  610MOL0     C82221   1.041   2.528   7.980  0.3784 -0.2303  0.2008
  610MOL0     C82222   1.086   2.602   8.085 -0.0867 -0.6568 -0.0237
  610MOL0     O82223   1.185   2.699   8.062  0.0270  0.7443  0.4768
  610MOL0     C82224   1.214   2.750   7.931 -0.4513  0.5129 -0.0922
  610MOL0     C82225   1.343   2.843   7.941  0.5650 -0.5728 -0.4132
  610MOL0     C82226   1.351   2.966   7.848  0.5238  0.3116 -0.4953
  610MOL0     C82227   1.473   2.946   7.747  0.0058 -0.0493 -0.0094
  610MOL0     C82228   1.455   2.828   7.646 -0.1215  0.4671 -0.0536
  610MOL0     C82229   1.323   2.824   7.561  0.7834 -0.0280  0.1932
  610MOL0     C82230   1.321   2.942   7.452  0.1744  0.0936 -0.2288
  610MOL0     C82231   1.269   2.897   7.317  0.0032  0.0118 -0.4411
  610MOL0     N82232   1.129   2.891   7.309  0.0245 -0.2952  0.8643
  610MOL0     C82233   1.048   2.967   7.227 -0.3349  0.6673 -0.5468
  610MOL0     C82234   0.927   2.905   7.234 -0.5625  0.8500 -0.3206
  610MOL0     C82235   0.808   2.955   7.155 -0.0426  0.2772  0.0167
  610MOL0     C82236   0.819   2.916   7.004  0.1872 -0.0421 -0.1747
  610MOL0     C82237   0.687   2.915   6.938 -0.2083 -0.4013 -0.1298
  610MOL0     C82238   0.692   2.861   6.793  0.8157  0.2736  0.8021
  610MOL0     O82239   0.788   2.933   6.701  0.5163  0.0254 -0.3426
  610MOL0     C82240   0.814   2.862   6.583  0.7098  0.3386 -0.3059
  610MOL0     C82241   0.939   2.798   6.570  0.2414 -0.1024 -0.3790
  610MOL0     C82242   0.969   2.709   6.470  0.0399 -0.2052  0.1708
  610MOL0     C82243   1.095   2.627   6.477 -0.2492 -0.4316  0.0184
  610MOL0     C82244   0.871   2.697   6.368 -0.0481  0.1272 -0.0232
  610MOL0     C82245   0.906   2.619   6.253 -0.1753  0.4832 -0.4191
  610MOL0     O82246   1.008   2.667   6.169  0.0944 -0.4433  0.5458
  610MOL0     C82247   1.028   2.600   6.051  0.4644 -0.5305 -0.1314
  610MOL0     C82248   1.143   2.528   6.031 -0.4705  0.6886 -0.2935
  610MOL0     C82249   1.160   2.456   5.918 -0.3385  1.3962  0.0425
  610MOL0     C82250   1.069   2.458   5.815 -0.1978 -0.8378  0.4167
  610MOL0     O82251   1.078   2.388   5.694 -0.0709 -0.2448  0.6059
  610MOL0     C82252   1.157   2.259   5.699  0.3404  0.2384 -0.4558
  610MOL0     C82253   1.082   2.171   5.599 -1.1395 -0.3351  0.9130
  610MOL0     C82254   1.165   2.044   5.576 -0.8404  0.6264  0.2070
  610MOL0     C82255   1.175   1.959   5.700 -0.1976  0.8751 -0.3796
  610MOL0     C82256   1.034   1.907   5.759 -0.1208  0.2659 -0.5191
  610MOL0     C82257   0.943   1.847   5.652  0.2568 -0.1690  0.0855
  610MOL0     C82258   0.840   1.749   5.712  1.1034  0.0071  0.8530
  610MOL0     C82259   0.803   1.651   5.601 -0.1450  0.0515  0.7374
  610MOL0    Cl82260   0.730   1.728   5.452 -0.1027 -0.1461  0.4655
  610MOL0     C82261   0.947   2.530   5.832 -0.6476  0.2591  0.1657
  610MOL0     C82262   0.924   2.601   5.947 -0.8018 -0.1375 -0.4317
  610MOL0     O82263   0.857   2.504   6.250 -0.4227 -0.2099  0.3695
  610MOL0     C82264   0.746   2.745   6.387  0.5317 -0.1026 -0.6509
  610MOL0     C82265   0.716   2.832   6.487  0.4396 -0.1701  1.4873
  610MOL0     N82266   0.952   2.794   7.308  0.2122  0.5811  0.0735
  610MOL0     N82267   1.059   2.779   7.347 -1.0853 -0.7525 -0.0903
  610MOL0     C82268   1.076   2.544   8.217 -0.9868  0.8706  0.2236
  610MOL0     C82269   1.007   2.424   8.247  0.1147 -0.1275 -0.1725
  610MOL0     C82270   0.716   2.105   8.250  0.6325 -0.3630 -0.2308
  610MOL0     C82271   0.600   2.079   8.331 -1.0250  0.1329 -0.2753
  610MOL0     C82272   0.571   1.944   8.356  0.5873  0.6029  0.1851
  610MOL0     C82273   0.622   1.837   8.287 -0.1080 -0.8902  0.2170
  610MOL0     O82274   0.582   1.706   8.298  0.0072 -0.5641  0.6642
  610MOL0     C82275   0.486   1.660   8.401 -0.0469  0.4933  1.2840
  610MOL0     C82276   0.447   1.517   8.367 -0.2116  0.8736  0.7527
  610MOL0     C82277   0.369   1.500   8.244  0.1690 -0.7155  0.0056
  610MOL0     C82278   0.329   1.359   8.214 -0.3049 -0.1065 -1.2362
  610MOL0     C82279   0.438   1.260   8.214  1.1351  0.4551  0.0756
  610MOL0     C82280   0.514   1.157   8.222 -0.1075 -0.0511 -0.3597
  610MOL0     C82281   0.723   1.864   8.188 -0.0363 -0.8017  0.0273
  610MOL0     C82282   0.766   1.998   8.173 -0.0886 -0.1243 -0.1893
  610MOL0     H82283   0.913   2.363   7.933  1.3082  0.7322 -1.0454
  610MOL0     H82284   1.056   2.539   7.873  0.5997 -1.2545  0.1159
  610MOL0     H82285   1.249   2.660   7.880 -0.6446 -0.8555  2.0525
  610MOL0     H82286   1.128   2.793   7.880 -0.9701 -0.8192 -0.3762
  610MOL0     H82287   1.355   2.885   8.041 -2.6610  0.1705 -0.2488
  610MOL0     H82288   1.433   2.782   7.925  2.0288  1.2708  0.3908
  610MOL0     H82289   1.254   2.972   7.796  0.9311 -2.9209 -1.8841
  610MOL0     H82290   1.362   3.059   7.904  1.4249 -1.2861  2.1515
  610MOL0     H82291   1.487   3.032   7.681  0.7258  1.5423  2.1322
  610MOL0     H82292   1.568   2.935   7.801  1.3478  0.3313 -2.1640
  610MOL0     H82293   1.545   2.833   7.585 -0.2531  2.5555 -0.1479
  610MOL0     H82294   1.472   2.732   7.695  0.7810 -0.3328 -1.8284
  610MOL0     H82295   1.328   2.735   7.498 -2.0668  1.2613 -2.0524
  610MOL0     H82296   1.232   2.814   7.621  0.5655  0.7742 -0.0020
  610MOL0     H82297   1.275   3.038   7.479  1.4183  0.1020  2.1596
  610MOL0     H82298   1.423   2.956   7.417 -0.4334  0.5483 -1.9211
  610MOL0     H82299   1.305   2.796   7.295  1.4607 -0.4865  3.4983
  610MOL0     H82300   1.306   2.965   7.239  1.3259  0.4972  0.5631
  610MOL0     H82301   1.075   3.062   7.181  1.2539  1.9636  2.7351
  610MOL0     H82302   0.717   2.905   7.189 -0.7301  0.6649 -1.2024
  610MOL0     H82303   0.807   3.064   7.158  3.8581  0.4238  1.6187
  610MOL0     H82304   0.849   2.811   6.991 -2.5098 -0.5185 -4.6285
  610MOL0     H82305   0.876   2.984   6.939 -0.6906  0.3028 -0.5893
  610MOL0     H82306   0.656   3.020   6.942  0.9104 -0.0860  3.2479
  610MOL0     H82307   0.617   2.848   6.988 -0.1946  1.2950  2.3195
  610MOL0     H82308   0.598   2.835   6.742  1.5587  2.4733 -1.9543
  610MOL0     H82309   0.726   2.758   6.807  0.3516 -0.1683 -1.0062
  610MOL0     H82310   1.005   2.807   6.656 -2.4330  1.4964  1.6827
  610MOL0     H82311   1.101   2.563   6.566  0.2282  3.0203  2.7293
  610MOL0     H82312   1.116   2.560   6.394  1.7577  0.8208 -0.5448
  610MOL0     H82313   1.180   2.695   6.487  0.1001 -0.5068 -2.0166
  610MOL0     H82314   1.222   2.524   6.105 -0.7814  1.4450  0.0906
  610MOL0     H82315   1.242   2.385   5.910 -2.9165 -1.8282  0.2042
  610MOL0     H82316   1.263   2.277   5.679 -0.1997  0.6949 -3.2371
  610MOL0     H82317   1.145   2.219   5.801  0.1618 -2.1579 -1.3554
  610MOL0     H82318   0.982   2.161   5.640 -1.8617 -0.1069 -0.7017
  610MOL0     H82319   1.083   2.227   5.504 -0.5271 -0.0178  1.0967
  610MOL0     H82320   1.265   2.075   5.544  0.1147 -2.7431 -0.4704
  610MOL0     H82321   1.131   1.987   5.489  3.6477  0.0887 -1.4758
  610MOL0     H82322   1.234   1.875   5.662 -2.4151 -0.1394 -1.8407
  610MOL0     H82323   1.235   2.012   5.774  0.0816  0.3665 -0.2340
  610MOL0     H82324   0.982   1.992   5.804 -1.1902 -2.0047  3.0260
  610MOL0     H82325   1.062   1.847   5.847 -0.5324 -0.3761 -0.8170
  610MOL0     H82326   0.887   1.930   5.607  1.3415  0.7002  0.2902
  610MOL0     H82327   1.000   1.795   5.575  0.8712  0.9731 -0.2534
  610MOL0     H82328   0.754   1.808   5.746  1.2512  1.8110 -1.6848
  610MOL0     H82329   0.859   1.682   5.796 -2.9664 -1.8137  0.5690
  610MOL0     H82330   0.728   1.594   5.657  2.4536 -0.8940  3.4871
  610MOL0     H82331   0.881   1.589   5.557 -0.3833  1.3705 -1.7575
  610MOL0     H82332   0.874   2.534   5.752 -1.5852  0.4106  1.0095
  610MOL0     H82333   0.834   2.662   5.948 -1.7247 -1.4608 -0.1561
  610MOL0     H82334   0.674   2.725   6.309 -3.1204  1.8087  1.9573
  610MOL0     H82335   0.625   2.891   6.481 -0.9409 -2.2266  1.2327
  610MOL0     H82336   1.140   2.581   8.296 -2.0082  0.1577  1.4313
  610MOL0     H82337   0.996   2.378   8.345 -0.8653  2.4689  1.0116
  610MOL0     H82338   0.536   2.161   8.363  1.6048  1.4134  2.1637
  610MOL0     H82339   0.506   1.930   8.441  0.3224  2.8363  0.4041
  610MOL0     H82340   0.528   1.656   8.501  1.3327 -0.0871  0.7079
  610MOL0     H82341   0.395   1.720   8.388 -0.3185  0.1184  1.4328
  610MOL0     H82342   0.403   1.467   8.454  1.3186  0.7183  1.4698
  610MOL0     H82343   0.540   1.462   8.346 -0.8969  0.8769 -2.9612
  610MOL0     H82344   0.434   1.515   8.157  2.2026  1.7465  1.8217
  610MOL0     H82345   0.283   1.567   8.233  1.6328  1.5734  1.6528
  610MOL0     H82346   0.279   1.358   8.117 -0.9384 -2.8475 -0.9498
  610MOL0     H82347   0.246   1.327   8.278  0.5103 -1.5327 -0.8576
  610MOL0     H82348   0.574   1.070   8.235  0.6534  0.4949 -0.1482
  610MOL0     H82349   0.763   1.790   8.119 -0.0762 -3.6688  2.8091
  610MOL0     H82350   0.842   2.021   8.099  0.1600  0.1703  0.1592
  611MOL0     O82351   9.714   7.890   6.322  0.3065 -0.0135  0.8170
  611MOL0     C82352   9.739   7.770   6.322  0.8420  0.9122 -0.6347
  611MOL0     O82353   9.825   7.707   6.409 -0.4294 -0.0788 -0.1341
  611MOL0     C82354   9.875   7.774   6.520  0.0231 -0.3695 -0.0276
  611MOL0     C82355  10.007   7.753   6.550 -0.3797  1.0178 -0.0167
  611MOL0     C82356  10.067   7.808   6.674  0.7743  0.0337  0.5648
  611MOL0     C82357   9.984   7.879   6.758 -0.6285  0.2874  0.5647
  611MOL0     O82358  10.029   7.939   6.871  0.6356 -0.0850 -0.3706
  611MOL0     C82359  10.136   7.878   6.938  0.0717  0.5771  0.3299
  611MOL0     C82360  10.148   7.939   7.069 -1.1451 -0.3040  0.1843
  611MOL0     C82361  10.279   7.896   7.138  0.4390  0.5813  0.9011
  611MOL0     C82362  10.277   7.894   7.296 -0.2146  0.1447 -0.4198
  611MOL0     C82363  10.285   8.040   7.350 -0.1885  0.3890 -0.1938
  611MOL0     C82364  10.179   8.063   7.463  0.0978  0.3369 -0.0555
  611MOL0     C82365  10.234   8.136   7.586 -0.0476 -0.6901 -0.5140
  611MOL0     C82366  10.236   8.289   7.557 -0.5987 -0.3822  0.2055
  611MOL0     N82367  10.160   8.360   7.660  0.8069 -0.1141  0.2510
  611MOL0     C82368  10.025   8.382   7.660 -0.7712 -0.3885 -0.3584
  611MOL0     C82369   9.999   8.442   7.780 -0.3988 -0.3732 -0.1829
  611MOL0     C82370   9.876   8.471   7.848 -0.0868 -0.4407 -0.9785
  611MOL0     C82371   9.876   8.498   8.005 -0.4247 -1.0239 -0.0141
  611MOL0     C82372   9.928   8.377   8.092 -0.4128  0.1546  0.3331
  611MOL0     C82373   9.939   8.425   8.240 -0.1798 -1.2737  1.1505
  611MOL0     O82374  10.017   8.336   8.323  0.7066 -0.0663 -0.1185
  611MOL0     C82375   9.983   8.213   8.371  0.0441  0.4678 -0.0338
  611MOL0     C82376  10.079   8.157   8.454  0.3115  0.0241 -0.4618
  611MOL0     C82377  10.072   8.022   8.488 -0.3400 -0.1377  0.1363
  611MOL0     C82378  10.184   7.964   8.573  0.6510  0.4531 -0.1335
  611MOL0     C82379   9.957   7.942   8.441 -0.3400  0.5202 -1.1438
  611MOL0     C82380   9.954   7.794   8.459 -0.2959  0.3272  0.3362
  611MOL0     O82381   9.835   7.741   8.434 -0.0781 -0.4129 -0.7103
  611MOL0     C82382   9.814   7.610   8.399  0.2462  0.1062  0.8915
  611MOL0     C82383   9.710   7.541   8.462 -0.0867 -0.6474 -0.2278
  611MOL0     C82384   9.683   7.407   8.420 -0.1049  0.2319 -0.2831
  611MOL0     C82385   9.765   7.340   8.323 -0.2575 -0.2473 -0.2816
  611MOL0     O82386   9.766   7.212   8.271  0.9210  0.0718 -0.2903
  611MOL0     C82387   9.646   7.138   8.301 -0.1892 -0.1284  0.1765
  611MOL0     C82388   9.655   7.005   8.232  0.4606  0.8313 -0.7353
  611MOL0     C82389   9.762   6.903   8.285 -0.0129 -0.2958 -0.4529
  611MOL0     C82390   9.829   6.816   8.179 -0.0290  1.2121 -0.5132
  611MOL0     C82391   9.953   6.739   8.232 -0.0989  0.4194 -0.1283
  611MOL0     C82392  10.067   6.833   8.252  0.0296  0.2262  0.1198
  611MOL0     C82393  10.195   6.748   8.277 -0.1014 -0.5807  0.5773
  611MOL0     C82394  10.316   6.837   8.293  0.4094  0.1333 -0.9627
  611MOL0    Cl82395  10.335   6.940   8.147  0.4553 -0.1637  0.0349
  611MOL0     C82396   9.873   7.414   8.278  0.2894 -0.4506  0.5682
  611MOL0     C82397   9.898   7.547   8.310  0.0090 -0.6428  0.9888
  611MOL0     O82398  10.051   7.725   8.484  0.1451 -0.3037 -0.2476
  611MOL0     C82399   9.851   8.008   8.371  1.2318  0.0973  0.1080
  611MOL0     C82400   9.864   8.141   8.332 -0.6759  0.0236  0.9217
  611MOL0     N82401  10.125   8.471   7.839  0.7464  0.3522  0.0579
  611MOL0     N82402  10.216   8.415   7.771 -0.5333 -0.0576 -0.0045
  611MOL0     C82403   9.850   7.903   6.718 -0.2783 -0.3607 -1.4623
  611MOL0     C82404   9.792   7.850   6.604 -0.0937  0.6341  0.1052
  611MOL0     C82405   9.672   7.683   6.223  0.5661 -0.5125  0.1961
  611MOL0     C82406   9.688   7.550   6.211  0.7115 -0.5048  0.7938
  611MOL0     C82407   9.619   7.474   6.124 -0.1214 -0.7426 -0.0301
  611MOL0     C82408   9.542   7.526   6.032 -0.0954 -0.2390  0.9450
  611MOL0     O82409   9.478   7.440   5.941 -0.2736  0.5469  0.1571
  611MOL0     C82410   9.452   7.481   5.806 -0.1485  0.2475  0.6032
  611MOL0     C82411   9.531   7.384   5.719 -0.2508 -0.9255  0.1376
  611MOL0     C82412   9.491   7.402   5.573  0.0283 -1.0329  0.5818
  611MOL0     C82413   9.558   7.520   5.507  0.7808  0.2180  0.6626
  611MOL0     C82414   9.703   7.510   5.506  0.1883  0.1768  0.3813
  611MOL0     C82415   9.824   7.514   5.490  0.6471 -0.6465 -0.6039
  611MOL0     C82416   9.521   7.664   6.031  0.6141 -0.1061  0.2696
  611MOL0     C82417   9.589   7.742   6.126 -0.0807 -0.3051 -0.1198
  611MOL0     H82418  10.062   7.686   6.485 -1.2399 -1.1583  1.3907
  611MOL0     H82419  10.166   7.782   6.710  0.9896 -4.4354 -2.3734
  611MOL0     H82420  10.130   7.770   6.954  0.6199  0.8980  3.2550
  611MOL0     H82421  10.225   7.894   6.876  0.4544  0.9333  0.9588
  611MOL0     H82422  10.161   8.047   7.060 -2.4683 -0.1045  0.3783
  611MOL0     H82423  10.061   7.934   7.135 -0.7757 -0.1645  0.6883
  611MOL0     H82424  10.321   7.804   7.098  1.5784  1.5800 -0.3224
  611MOL0     H82425  10.349   7.971   7.099  0.0381  1.1997  1.3354
  611MOL0     H82426  10.195   7.842   7.346  1.3940 -1.8345  0.3143
  611MOL0     H82427  10.368   7.840   7.324 -0.3032  0.1391 -0.1413
  611MOL0     H82428  10.382   8.071   7.389  0.4533 -0.1278 -1.3074
  611MOL0     H82429  10.261   8.113   7.272 -1.8721  0.8447  0.7008
  611MOL0     H82430  10.094   8.110   7.413 -0.3432 -0.7857 -0.4014
  611MOL0     H82431  10.142   7.973   7.512 -0.9895  0.0819 -1.2735
  611MOL0     H82432  10.169   8.116   7.672  1.3361 -0.5247  0.6010
  611MOL0     H82433  10.327   8.091   7.622 -0.2197 -3.5372 -3.2037
  611MOL0     H82434  10.201   8.308   7.455 -0.7306 -1.3121  0.0623
  611MOL0     H82435  10.341   8.316   7.572 -0.3457 -1.6942  0.9295
  611MOL0     H82436   9.964   8.357   7.574  3.1081 -3.1910 -2.6475
  611MOL0     H82437   9.838   8.560   7.798 -1.3374  0.4954  1.4340
  611MOL0     H82438   9.809   8.388   7.825 -0.4685 -0.0301 -1.3637
  611MOL0     H82439   9.773   8.522   8.035 -0.8758 -0.1280 -2.1157
  611MOL0     H82440   9.923   8.595   8.025 -1.9836  0.1085 -1.5661
  611MOL0     H82441  10.026   8.338   8.063 -0.4460 -1.2062  1.9202
  611MOL0     H82442   9.853   8.297   8.080  0.1813 -0.7184  2.1138
  611MOL0     H82443   9.835   8.433   8.272 -0.6519  0.0906 -0.5661
  611MOL0     H82444   9.979   8.524   8.261 -2.1354 -0.4469  1.2480
  611MOL0     H82445  10.172   8.206   8.480 -0.3678  0.0801  2.0675
  611MOL0     H82446  10.251   8.037   8.619 -0.8062 -0.1068  3.1963
  611MOL0     H82447  10.143   7.895   8.648  0.5225  0.1522 -0.4791
  611MOL0     H82448  10.247   7.899   8.512  1.7071 -0.3732  1.7458
  611MOL0     H82449   9.647   7.588   8.537  0.5375 -2.6008  1.6336
  611MOL0     H82450   9.596   7.370   8.473 -0.0924  0.1856 -0.2947
  611MOL0     H82451   9.627   7.128   8.408 -2.4485 -2.1892 -0.3358
  611MOL0     H82452   9.563   7.186   8.249 -0.7694 -0.0584  1.1615
  611MOL0     H82453   9.560   6.953   8.246  2.1210 -2.1271  0.4694
  611MOL0     H82454   9.663   7.012   8.124 -4.6244 -0.5431 -1.4550
  611MOL0     H82455   9.708   6.828   8.343 -0.0055 -0.3092 -0.4632
  611MOL0     H82456   9.830   6.950   8.356  0.2444  0.9236 -1.4648
  611MOL0     H82457   9.772   6.729   8.144 -0.3272  0.7657  0.9952
  611MOL0     H82458   9.856   6.887   8.101  1.2526  1.7922  0.4095
  611MOL0     H82459   9.983   6.660   8.163  0.2268  0.7519 -0.3701
  611MOL0     H82460   9.920   6.702   8.330 -2.4377  1.5460 -0.4313
  611MOL0     H82461  10.089   6.901   8.169  0.1941 -0.7839 -0.6799
  611MOL0     H82462  10.043   6.903   8.332 -4.0089  0.2130 -0.8560
  611MOL0     H82463  10.219   6.697   8.183  0.2147  1.7114 -0.6690
  611MOL0     H82464  10.193   6.678   8.361  0.9990 -0.8981  0.3518
  611MOL0     H82465  10.409   6.781   8.299 -0.2857 -0.9328  0.3516
  611MOL0     H82466  10.316   6.897   8.385  2.7041  0.5821 -1.1918
  611MOL0     H82467   9.929   7.359   8.203  2.8458 -2.0407  3.4322
  611MOL0     H82468   9.969   7.609   8.257 -3.1712  2.6641  0.1575
  611MOL0     H82469   9.762   7.951   8.345  0.4529  1.7183 -0.9485
  611MOL0     H82470   9.783   8.187   8.277 -0.5692 -2.1357 -1.1950
  611MOL0     H82471   9.791   7.961   6.789  1.5347 -0.9487  0.6221
  611MOL0     H82472   9.689   7.870   6.577 -0.2751  0.3024  0.5525
  611MOL0     H82473   9.755   7.492   6.274 -0.1796 -1.1986  1.1320
  611MOL0     H82474   9.632   7.366   6.116  3.2854 -0.7551  2.8745
  611MOL0     H82475   9.346   7.469   5.782 -0.7091  3.9002  0.6286
  611MOL0     H82476   9.470   7.589   5.802  3.6376 -0.2578 -1.6714
  611MOL0     H82477   9.500   7.280   5.736 -0.7272 -0.5464  1.8397
  611MOL0     H82478   9.637   7.400   5.742 -0.2477  2.9631 -1.7842
  611MOL0     H82479   9.382   7.407   5.572 -0.0570  3.8067  2.7568
  611MOL0     H82480   9.525   7.314   5.518  1.4500  1.8497 -3.7106
  611MOL0     H82481   9.527   7.609   5.562  3.2772  1.1917  0.6187
  611MOL0     H82482   9.519   7.536   5.406  1.6032  1.7630  0.5489
  611MOL0     H82483   9.930   7.524   5.478  0.7125 -0.8988 -0.2373
  611MOL0     H82484   9.442   7.708   5.971 -1.7761 -2.8611  1.1537
  611MOL0     H82485   9.567   7.849   6.129  0.1126 -0.1231 -2.7665
  612MOL0     O82486   5.353   8.782  10.083 -0.1442  0.4900  0.0576
  612MOL0     C82487   5.444   8.838  10.023 -0.2697 -0.2272 -0.1456
  612MOL0     O82488   5.574   8.796  10.035  0.8075  0.6965 -0.2531
  612MOL0     C82489   5.599   8.694  10.126 -0.2927  0.5398  0.0826
  612MOL0     C82490   5.617   8.558  10.099  0.1257 -0.3331 -0.3222
  612MOL0     C82491   5.626   8.462  10.200 -0.8180 -0.0551 -0.5874
  612MOL0     C82492   5.619   8.510  10.335 -0.2369 -0.1814  0.2472
  612MOL0     O82493   5.641   8.424  10.436  0.4602 -0.6784  0.2464
  612MOL0     C82494   5.567   8.299  10.428 -0.5356 -0.1450  0.4958
  612MOL0     C82495   5.556   8.233  10.565 -0.4123 -0.4997  0.0974
  612MOL0     C82496   5.447   8.300  10.662 -0.4614  0.0371 -0.2328
  612MOL0     C82497   5.500   8.377  10.783  0.7834  0.4530  0.0796
  612MOL0     C82498   5.385   8.401  10.883 -0.1233 -0.3597 -0.1770
  612MOL0     C82499   5.425   8.477  11.009  0.9259 -0.2417  0.3587
  612MOL0     C82500   5.315   8.505  11.118  0.4919  0.2662  0.1265
  612MOL0     C82501   5.252   8.379  11.172 -0.3373  0.1134 -0.2856
  612MOL0     N82502   5.243   8.399  11.319 -0.0451  0.4652 -0.4995
  612MOL0     C82503   5.323   8.325  11.403  0.6800 -0.2202  0.1474
  612MOL0     C82504   5.271   8.362  11.520 -0.2923 -0.7242 -0.0775
  612MOL0     C82505   5.325   8.304  11.648  0.3620 -0.4679  0.1528
  612MOL0     C82506   5.462   8.339  11.688  0.2145  0.7671 -0.1006
  612MOL0     C82507   5.565   8.273  11.596 -0.1413 -0.4595  0.3066
  612MOL0     C82508   5.686   8.206  11.663 -0.7366 -0.2051  0.3604
  612MOL0     O82509   5.628   8.096  11.745  0.2720 -0.2734 -0.8817
  612MOL0     C82510   5.688   8.085  11.872 -0.0928 -0.1061  1.1819
  612MOL0     C82511   5.618   8.120  11.984  0.3975  0.3129  0.0019
  612MOL0     C82512   5.672   8.114  12.115  0.0308 -0.2867 -0.3790
  612MOL0     C82513   5.580   8.141  12.241 -1.1579 -0.0153  0.0860
  612MOL0     C82514   5.807   8.074  12.127  1.0065  0.4069  0.4001
  612MOL0     C82515   5.885   8.044  12.252  0.7275 -1.3409 -0.0886
  612MOL0     O82516   5.826   8.067  12.372 -0.0450 -0.0187 -0.5998
  612MOL0     C82517   5.881   7.991  12.474 -0.3198 -0.6410  0.4774
  612MOL0     C82518   5.822   7.878  12.514  0.5258  0.1384 -0.4603
  612MOL0     C82519   5.868   7.814  12.631  1.3909  1.0345 -0.5280
  612MOL0     C82520   5.975   7.855  12.705  0.0337  0.3236  0.3186
  612MOL0     O82521   6.007   7.776  12.814 -0.2478  0.1028  0.4032
  612MOL0     C82522   6.149   7.776  12.851  0.0353 -0.0225 -0.1450
  612MOL0     C82523   6.156   7.711  12.993  0.9310 -0.0137  0.1956
  612MOL0     C82524   6.295   7.714  13.064 -0.6414 -0.0197  0.0062
  612MOL0     C82525   6.290   7.662  13.207 -0.0487 -0.4998 -0.6983
  612MOL0     C82526   6.434   7.659  13.268 -0.0712 -0.1818 -0.2518
  612MOL0     C82527   6.428   7.630  13.416  0.3920  0.2054 -0.8533
  612MOL0     C82528   6.564   7.595  13.481  0.6526 -0.3189 -0.6692
  612MOL0     C82529   6.579   7.630  13.627  0.4055 -0.4401  0.3151
  612MOL0    Cl82530   6.751   7.623  13.671 -0.2169  0.0453  0.1007
  612MOL0     C82531   6.041   7.976  12.659  1.4823  0.7767  0.4645
  612MOL0     C82532   5.989   8.038  12.541 -0.1035 -1.0336  0.6649
  612MOL0     O82533   5.990   7.983  12.235  0.2667  0.0849  0.1844
  612MOL0     C82534   5.881   8.046  12.006 -0.2598  0.0966 -0.2659
  612MOL0     C82535   5.821   8.044  11.879  1.0446  0.9309 -0.0265
  612MOL0     N82536   5.154   8.437  11.507  0.0874  1.2715  0.8330
  612MOL0     N82537   5.139   8.463  11.380  0.1643 -0.0624 -0.3382
  612MOL0     C82538   5.618   8.650  10.360 -0.6466 -0.1136  0.3684
  612MOL0     C82539   5.609   8.739  10.255  0.5635  1.0661  0.1657
  612MOL0     C82540   5.402   8.950   9.939 -1.3536 -0.3226 -0.5331
  612MOL0     C82541   5.504   9.020   9.869  0.1123  0.3114  0.2303
  612MOL0     C82542   5.468   9.122   9.789  0.4508  0.1661  0.4975
  612MOL0     C82543   5.340   9.157   9.765  0.0129 -0.8142 -0.3504
  612MOL0     O82544   5.307   9.251   9.668 -0.3791  0.5940 -0.5350
  612MOL0     C82545   5.347   9.219   9.534 -0.6084  0.5495 -0.1710
  612MOL0     C82546   5.276   9.306   9.430 -0.8447 -0.1596  0.1596
  612MOL0     C82547   5.152   9.259   9.367 -0.3421 -0.4146 -1.7000
  612MOL0     C82548   5.031   9.277   9.459 -0.1890  0.7928 -0.5047
  612MOL0     C82549   4.919   9.255   9.377  0.2590  0.6343 -0.3241
  612MOL0     C82550   4.822   9.219   9.309 -0.0407  0.5595  0.6524
  612MOL0     C82551   5.235   9.078   9.819  0.4561 -0.6234 -0.6697
  612MOL0     C82552   5.264   8.979   9.924 -0.2444 -0.0086  0.2937
  612MOL0     H82553   5.610   8.510  10.001  0.7334 -1.2665  0.0776
  612MOL0     H82554   5.616   8.360  10.165  1.4190 -0.2925 -0.6265
  612MOL0     H82555   5.469   8.312  10.381 -0.0141 -2.9387 -1.6460
  612MOL0     H82556   5.615   8.230  10.358 -0.1322 -0.6515  1.2508
  612MOL0     H82557   5.530   8.127  10.560 -2.4167 -0.2220  2.6587
  612MOL0     H82558   5.655   8.240  10.612 -1.1278  4.6482  1.4902
  612MOL0     H82559   5.380   8.358  10.597  1.6979  0.1042 -2.5415
  612MOL0     H82560   5.383   8.224  10.708 -3.5127  0.9356 -2.6149
  612MOL0     H82561   5.576   8.315  10.831  2.1117 -0.5410 -3.0349
  612MOL0     H82562   5.542   8.475  10.756 -0.0336  1.4390  2.1170
  612MOL0     H82563   5.302   8.447  10.829  0.1794  1.4696  0.8548
  612MOL0     H82564   5.356   8.301  10.919 -1.4050  0.0037 -0.1401
  612MOL0     H82565   5.507   8.434  11.066 -0.5709 -1.9068  1.3477
  612MOL0     H82566   5.470   8.572  10.979  1.8139 -0.6203  0.4697
  612MOL0     H82567   5.378   8.560  11.189 -0.7266  1.4237  0.3673
  612MOL0     H82568   5.241   8.577  11.080  0.3918  2.2415  3.5805
  612MOL0     H82569   5.305   8.285  11.159 -0.2312 -0.1725  1.8577
  612MOL0     H82570   5.158   8.355  11.121 -0.7541  1.0014  0.0291
  612MOL0     H82571   5.409   8.263  11.379 -0.4104 -1.1451 -1.5911
  612MOL0     H82572   5.250   8.327  11.724 -0.6301  0.6560 -1.1140
  612MOL0     H82573   5.321   8.195  11.640 -0.3436 -0.4752  0.4849
  612MOL0     H82574   5.480   8.305  11.790 -0.3076 -0.7288 -0.4831
  612MOL0     H82575   5.480   8.447  11.685  0.4241  0.7130 -1.5083
  612MOL0     H82576   5.592   8.343  11.516 -1.5869 -0.8303 -0.5557
  612MOL0     H82577   5.516   8.186  11.551 -0.9316 -0.0957  0.4350
  612MOL0     H82578   5.732   8.288  11.719  1.1161 -0.5921 -0.5392
  612MOL0     H82579   5.757   8.159  11.595 -1.6193 -0.0323 -0.7125
  612MOL0     H82580   5.515   8.152  11.976 -0.7770 -1.8171  3.9960
  612MOL0     H82581   5.554   8.045  12.285  2.6884 -2.5960 -2.6632
  612MOL0     H82582   5.640   8.205  12.307 -3.6321 -0.4667  2.9583
  612MOL0     H82583   5.493   8.200  12.210 -2.2879 -2.5859 -1.9238
  612MOL0     H82584   5.735   7.839  12.462  0.4539 -1.3852  0.7349
  612MOL0     H82585   5.808   7.737  12.677  1.6633  0.8609 -0.4623
  612MOL0     H82586   6.210   7.713  12.785 -0.7346  0.9361 -1.8391
  612MOL0     H82587   6.182   7.876  12.877  2.8777 -1.7343  3.8797
  612MOL0     H82588   6.091   7.781  13.047 -0.6957 -2.7384  2.0447
  612MOL0     H82589   6.111   7.611  12.996 -1.7115  1.1108  1.3724
  612MOL0     H82590   6.326   7.819  13.070  1.6335 -0.5928 -0.4892
  612MOL0     H82591   6.372   7.663  13.005 -0.1767 -1.3682  1.6706
  612MOL0     H82592   6.234   7.730  13.271 -1.9051 -1.4320 -1.2662
  612MOL0     H82593   6.234   7.569  13.220 -1.5268  0.2268 -1.6635
  612MOL0     H82594   6.484   7.756  13.254  0.6098 -0.6005 -0.8031
  612MOL0     H82595   6.482   7.582  13.206  1.0513  1.5710 -1.6998
  612MOL0     H82596   6.407   7.723  13.469  3.4859  1.0627 -0.9373
  612MOL0     H82597   6.353   7.550  13.426  0.4648  0.0007 -1.7893
  612MOL0     H82598   6.635   7.653  13.421 -0.4134  0.9914 -0.6971
  612MOL0     H82599   6.577   7.486  13.478  0.9300 -0.4091  1.7148
  612MOL0     H82600   6.515   7.556  13.677  0.3749 -0.2159  0.6135
  612MOL0     H82601   6.538   7.730  13.643  0.8133 -0.2301  0.0293
  612MOL0     H82602   6.129   8.011  12.711  2.1160 -1.4740  0.9986
  612MOL0     H82603   6.030   8.127  12.496  1.0995 -2.2235 -0.7232
  612MOL0     H82604   5.987   8.025  12.001 -0.4966 -1.1871 -0.2740
  612MOL0     H82605   5.860   8.014  11.782 -5.2622  1.6180 -3.3371
  612MOL0     H82606   5.620   8.692  10.460 -1.9359 -0.3986  0.5330
  612MOL0     H82607   5.577   8.839  10.280 -1.4709  0.2234  1.2119
  612MOL0     H82608   5.609   8.990   9.868 -0.4879 -1.9652 -0.5641
  612MOL0     H82609   5.545   9.171   9.730 -0.6938  0.3153 -0.9197
  612MOL0     H82610   5.455   9.236   9.529 -0.4623 -0.5095 -0.9346
  612MOL0     H82611   5.333   9.112   9.517 -2.7215  0.7866 -0.2203
  612MOL0     H82612   5.347   9.316   9.347  2.2355 -2.2308  2.3181
  612MOL0     H82613   5.265   9.403   9.479 -1.5207  0.3651 -0.9817
  612MOL0     H82614   5.168   9.152   9.352 -1.9572 -0.7898 -0.9506
  612MOL0     H82615   5.133   9.307   9.270  2.1682  1.2387 -1.4682
  612MOL0     H82616   5.025   9.381   9.490 -2.7219  0.8744 -0.9873
  612MOL0     H82617   5.035   9.210   9.545  1.2709 -1.4498 -2.1949
  612MOL0     H82618   4.745   9.178   9.247 -0.0429 -0.7901  1.5226
  612MOL0     H82619   5.131   9.087   9.789 -0.5097 -0.1794  2.4096
  612MOL0     H82620   5.185   8.918   9.968 -1.3923  0.2024 -1.3983
  613MOL0     O82621   9.839   4.357   3.972 -0.2043  0.0319  0.2824
  613MOL0     C82622   9.924   4.410   4.045  0.5008 -0.7307  0.6170
  613MOL0     O82623  10.050   4.452   4.003 -0.0903  0.8500 -0.2326
  613MOL0     C82624  10.099   4.456   3.870 -0.5841 -0.3672  0.1100
  613MOL0     C82625  10.234   4.496   3.861  0.2081  0.6181 -0.2209
  613MOL0     C82626  10.298   4.509   3.737 -0.1382  0.7999  0.6145
  613MOL0     C82627  10.232   4.478   3.617  0.9756 -0.5617  0.0150
  613MOL0     O82628  10.299   4.469   3.494  0.3892 -0.6745  0.3540
  613MOL0     C82629  10.251   4.404   3.377  0.0812 -0.4347  1.2116
  613MOL0     C82630  10.276   4.252   3.383  0.6233 -0.6939  1.0306
  613MOL0     C82631  10.191   4.206   3.256 -0.8815  0.1736  0.8937
  613MOL0     C82632  10.225   4.058   3.218  0.8492  0.0997 -0.5668
  613MOL0     C82633  10.116   3.986   3.144  0.1454  0.2217 -0.2479
  613MOL0     C82634  10.178   3.857   3.073 -1.4153  0.2725  0.1635
  613MOL0     C82635  10.257   3.758   3.168 -0.2309 -0.0258 -0.5989
  613MOL0     C82636  10.185   3.707   3.290  0.2101 -0.5698  0.3973
  613MOL0     N82637  10.062   3.638   3.251  0.8144 -0.4088 -0.9567
  613MOL0     C82638  10.051   3.503   3.221  0.7386  0.2991  0.0411
  613MOL0     C82639   9.917   3.488   3.200 -0.3710 -0.1436  0.1727
  613MOL0     C82640   9.838   3.363   3.177 -0.8176  0.4993  1.2095
  613MOL0     C82641   9.900   3.279   3.057  0.4756  0.6458 -0.4258
  613MOL0     C82642   9.809   3.159   3.014 -1.0352 -0.5035 -0.6546
  613MOL0     C82643   9.859   3.076   2.897 -0.1625  0.0972 -0.4384
  613MOL0     O82644   9.995   3.037   2.920 -0.0609  0.0009 -0.3237
  613MOL0     C82645  10.060   2.938   2.849 -0.3214  0.6894  0.4303
  613MOL0     C82646  10.024   2.885   2.724 -0.8828  0.0589  0.1276
  613MOL0     C82647  10.093   2.778   2.656 -0.1704  0.5669 -0.1510
  613MOL0     C82648  10.027   2.723   2.529  0.4646  0.4860 -0.0838
  613MOL0     C82649  10.207   2.720   2.725  0.1735  0.1511 -0.2102
  613MOL0     C82650  10.281   2.601   2.681  0.4057  0.2607  0.0747
  613MOL0     O82651  10.417   2.590   2.726  0.9148 -0.9570  0.2285
  613MOL0     C82652  10.482   2.476   2.693  0.2898 -0.4618  0.2778
  613MOL0     C82653  10.614   2.503   2.640 -0.0778 -0.5455  0.3535
  613MOL0     C82654  10.705   2.405   2.596  0.4566  0.1765 -0.3267
  613MOL0     C82655  10.659   2.273   2.620 -0.5008  0.1680 -0.1061
  613MOL0     O82656  10.750   2.171   2.590  0.3222 -0.8146  0.6542
  613MOL0     C82657  10.730   2.147   2.450  0.5883  0.0617 -0.1364
  613MOL0     C82658  10.839   2.047   2.408 -0.1353 -0.1764 -0.6089
  613MOL0     C82659  10.881   2.074   2.264  0.5091 -0.3959 -1.3832
  613MOL0     C82660  10.993   2.185   2.262 -0.1202  0.4283 -0.5775
  613MOL0     C82661  11.027   2.222   2.116 -0.3760 -0.3087  0.3110
  613MOL0     C82662  11.141   2.324   2.111  1.2987 -0.0020 -0.3512
  613MOL0     C82663  11.168   2.352   1.966  0.4470  0.9764 -0.7640
  613MOL0     C82664  11.083   2.467   1.912 -0.0230 -0.9873  0.0094
  613MOL0    Cl82665  10.945   2.391   1.822 -0.7564 -0.0246  0.3463
  613MOL0     C82666  10.534   2.247   2.665  0.0838 -0.2804 -0.1263
  613MOL0     C82667  10.443   2.349   2.714 -0.8124  0.8896  0.3418
  613MOL0     O82668  10.217   2.522   2.605 -0.6258 -0.1934 -0.0040
  613MOL0     C82669  10.249   2.782   2.849 -0.2728 -0.7931  0.6734
  613MOL0     C82670  10.180   2.897   2.902 -0.3338  1.2293 -0.4028
  613MOL0     N82671   9.858   3.616   3.222 -0.4115  0.6198 -0.0230
  613MOL0     N82672   9.942   3.706   3.249 -0.7373 -0.2554 -0.2844
  613MOL0     C82673  10.097   4.428   3.624  0.7864  0.7636 -1.9636
  613MOL0     C82674  10.029   4.425   3.749 -0.0834  0.9144 -0.9274
  613MOL0     C82675   9.903   4.408   4.193  0.2262 -1.4719 -0.0712
  613MOL0     C82676   9.775   4.377   4.245  0.1665  1.0230  0.4861
  613MOL0     C82677   9.766   4.359   4.387 -0.8426  0.3541 -0.1151
  613MOL0     C82678   9.878   4.370   4.462 -0.6003  0.8013 -0.2738
  613MOL0     O82679   9.884   4.357   4.596  0.2733  0.2068  0.0347
  613MOL0     C82680   9.763   4.332   4.663  0.0453  0.9465 -0.8160
  613MOL0     C82681   9.767   4.349   4.814  0.0731 -1.2606 -1.3506
  613MOL0     C82682   9.654   4.281   4.895  0.8263 -0.1615 -0.2990
  613MOL0     C82683   9.670   4.260   5.043  0.0357 -0.2818  0.0910
  613MOL0     C82684   9.717   4.394   5.090 -0.2320  1.3523 -0.3089
  613MOL0     C82685   9.755   4.502   5.132 -0.2501  0.2757  0.1524
  613MOL0     C82686  10.008   4.412   4.418  0.2412 -0.1082  0.6530
  613MOL0     C82687  10.022   4.431   4.276 -0.0010  0.2614 -1.3638
  613MOL0     H82688  10.287   4.495   3.956 -1.7793 -1.3713  0.9754
  613MOL0     H82689  10.403   4.536   3.742  0.0952 -0.1572  1.0938
  613MOL0     H82690  10.143   4.419   3.361  0.1249 -1.1707  0.1694
  613MOL0     H82691  10.292   4.453   3.289 -2.5120 -0.7947 -0.2989
  613MOL0     H82692  10.385   4.243   3.387  1.0344  2.9129  4.2236
  613MOL0     H82693  10.222   4.208   3.468 -2.4450  1.3072  0.2874
  613MOL0     H82694  10.087   4.194   3.288 -1.4371 -0.8675 -1.1143
  613MOL0     H82695  10.201   4.271   3.168  1.7770  0.2010  1.1570
  613MOL0     H82696  10.318   4.066   3.162  1.1134  1.0177 -0.0211
  613MOL0     H82697  10.243   4.006   3.312  1.8898  0.6237 -0.4661
  613MOL0     H82698  10.047   3.952   3.222 -1.4455  2.3706 -0.6314
  613MOL0     H82699  10.063   4.040   3.066 -0.6823  2.0335  1.4947
  613MOL0     H82700  10.089   3.800   3.044 -0.3639 -0.5649 -1.5236
  613MOL0     H82701  10.219   3.876   2.974 -2.5055 -2.6436 -0.9706
  613MOL0     H82702  10.298   3.673   3.113  1.8195  0.2866  0.3480
  613MOL0     H82703  10.346   3.808   3.209 -0.4630 -2.0412  2.7109
  613MOL0     H82704  10.156   3.796   3.347  3.0457  0.9517 -0.3511
  613MOL0     H82705  10.240   3.636   3.353  0.5168  0.0433  0.8316
  613MOL0     H82706  10.132   3.431   3.220  0.4893  0.0214 -0.4237
  613MOL0     H82707   9.835   3.293   3.261 -1.0795 -1.0905 -0.0762
  613MOL0     H82708   9.736   3.389   3.148  0.0840 -0.0999 -3.1989
  613MOL0     H82709   9.994   3.233   3.091  0.9866 -0.2835 -2.8739
  613MOL0     H82710   9.920   3.345   2.972  1.8058 -0.6565 -1.1717
  613MOL0     H82711   9.710   3.198   2.988 -0.0922  1.7402 -1.0298
  613MOL0     H82712   9.817   3.080   3.090  0.0291  0.5628  0.3738
  613MOL0     H82713   9.844   3.133   2.805 -2.6998 -1.3238 -0.9978
  613MOL0     H82714   9.804   2.982   2.897 -0.7632  0.3887  1.9151
  613MOL0     H82715   9.938   2.934   2.680 -1.7936  0.0772  1.8382
  613MOL0     H82716   9.958   2.641   2.551 -2.1710  3.2152  2.9305
  613MOL0     H82717   9.967   2.794   2.472 -1.1177 -1.4073 -0.9163
  613MOL0     H82718  10.099   2.680   2.458 -0.9307 -0.1778 -1.1594
  613MOL0     H82719  10.649   2.604   2.620 -1.1315 -0.6442 -2.5600
  613MOL0     H82720  10.807   2.423   2.565  0.4875  2.0232  0.6483
  613MOL0     H82721  10.628   2.108   2.437  1.0253 -0.8672 -0.9435
  613MOL0     H82722  10.748   2.235   2.389 -0.6958  0.3421 -0.1488
  613MOL0     H82723  10.926   2.062   2.473  0.9313  4.4426 -2.6700
  613MOL0     H82724  10.806   1.945   2.429  0.7283 -0.2504  0.5256
  613MOL0     H82725  10.797   2.109   2.203  0.0785 -1.2087 -1.2769
  613MOL0     H82726  10.910   1.984   2.208 -4.6639 -1.7583 -2.3924
  613MOL0     H82727  10.981   2.271   2.329  1.5564 -0.4052  0.8813
  613MOL0     H82728  11.081   2.139   2.308 -1.6892  0.7627  3.1502
  613MOL0     H82729  10.940   2.256   2.058 -0.0836  0.9814  0.5894
  613MOL0     H82730  11.061   2.137   2.057  1.2624  1.8281 -2.0121
  613MOL0     H82731  11.103   2.415   2.158  1.1790 -1.1794  1.9867
  613MOL0     H82732  11.233   2.283   2.154  1.4419 -0.8769 -1.4546
  613MOL0     H82733  11.152   2.256   1.916  2.2798  0.1088  0.2163
  613MOL0     H82734  11.272   2.387   1.967  0.0648  2.2309  1.2605
  613MOL0     H82735  11.140   2.508   1.828  1.0434 -1.1247  0.6504
  613MOL0     H82736  11.054   2.548   1.980  0.9333  0.7309 -1.5428
  613MOL0     H82737  10.502   2.144   2.656  0.7690 -0.6298  1.1772
  613MOL0     H82738  10.349   2.312   2.753 -0.7910 -0.1685 -0.5760
  613MOL0     H82739  10.329   2.742   2.911  0.8633  1.6177  0.8807
  613MOL0     H82740  10.207   2.946   2.995  3.7825  2.1269 -1.8398
  613MOL0     H82741  10.032   4.415   3.539 -4.2791 -0.2073  1.5690
  613MOL0     H82742   9.927   4.390   3.735  0.1862 -0.7389  0.8150
  613MOL0     H82743   9.687   4.354   4.186  0.9346 -1.4497  0.1715
  613MOL0     H82744   9.667   4.344   4.429 -0.2883  0.6716  1.3592
  613MOL0     H82745   9.690   4.406   4.628  0.3442  0.6749 -2.0704
  613MOL0     H82746   9.733   4.232   4.630  0.5441  0.2750  0.6873
  613MOL0     H82747   9.761   4.455   4.839 -0.6202 -1.7051  0.5493
  613MOL0     H82748   9.862   4.303   4.845  0.0145 -1.8161 -1.9713
  613MOL0     H82749   9.626   4.185   4.852 -0.8729 -0.0139  0.3952
  613MOL0     H82750   9.572   4.352   4.894  0.4027 -0.5492  1.7721
  613MOL0     H82751   9.740   4.176   5.045  1.3830  0.7834 -0.9049
  613MOL0     H82752   9.578   4.219   5.087 -0.7764  1.9088  0.5930
  613MOL0     H82753   9.774   4.600   5.172  0.6696  0.3111 -0.3650
  613MOL0     H82754  10.092   4.432   4.484  1.0004  0.8961 -0.5605
  613MOL0     H82755  10.125   4.458   4.255 -0.0795  2.6256  0.7880
  614MOL0     O82756   5.657   5.950   5.891  0.0719  0.0972 -0.1861
  614MOL0     C82757   5.640   5.868   5.983 -0.4611 -0.7046  0.5447
  614MOL0     O82758   5.549   5.771   5.998  0.6994 -0.7583  0.2412
  614MOL0     C82759   5.476   5.742   5.888  0.0578  0.0664 -0.8667
  614MOL0     C82760   5.363   5.811   5.853 -0.2998 -0.0997 -0.4896
  614MOL0     C82761   5.287   5.781   5.745  0.2471 -0.5296  0.0078
  614MOL0     C82762   5.323   5.674   5.662  0.6633 -0.4296 -0.3559
  614MOL0     O82763   5.264   5.671   5.538  0.3191 -0.7053  1.7245
  614MOL0     C82764   5.226   5.532   5.495  0.7506  0.1340  0.7132
  614MOL0     C82765   5.083   5.527   5.439 -0.1976  0.0855  0.3857
  614MOL0     C82766   5.096   5.565   5.287  0.4944 -1.2073  0.1896
  614MOL0     C82767   5.140   5.450   5.192  0.4792 -0.5886  0.7302
  614MOL0     C82768   5.144   5.503   5.050  0.0599  1.2590 -0.0641
  614MOL0     C82769   5.145   5.386   4.949 -0.1555 -0.1008  0.0878
  614MOL0     C82770   5.010   5.325   4.914 -0.6347 -0.0242  0.6734
  614MOL0     C82771   5.031   5.210   4.813 -0.1574 -0.1062  0.8321
  614MOL0     N82772   5.061   5.251   4.678 -0.1404 -0.0065 -0.0251
  614MOL0     C82773   4.975   5.321   4.587  0.4113 -0.1835  0.3091
  614MOL0     C82774   5.055   5.329   4.470  0.3935  0.1348  0.2965
  614MOL0     C82775   5.012   5.365   4.328 -0.9433 -1.1515 -1.0189
  614MOL0     C82776   4.877   5.298   4.281  0.3259 -0.5643  0.0120
  614MOL0     C82777   4.842   5.345   4.142  0.3974  0.5936 -0.5628
  614MOL0     C82778   4.691   5.311   4.102  0.7941 -0.3390  0.0593
  614MOL0     O82779   4.661   5.167   4.108  0.0301 -0.6390  0.5571
  614MOL0     C82780   4.541   5.120   4.084 -0.4938  0.1238  0.0119
  614MOL0     C82781   4.420   5.184   4.083  0.6891  0.1498 -1.1113
  614MOL0     C82782   4.298   5.118   4.063  0.0171 -0.0275  0.0892
  614MOL0     C82783   4.168   5.203   4.045  0.6849 -0.1964 -0.3280
  614MOL0     C82784   4.305   4.978   4.044  0.8536  0.0729 -0.8680
  614MOL0     C82785   4.182   4.887   4.040  0.7078 -0.4640 -0.2466
  614MOL0     O82786   4.206   4.756   4.009 -0.3984 -0.5388  0.8033
  614MOL0     C82787   4.105   4.660   4.014  0.6188  0.2121 -0.2861
  614MOL0     C82788   4.065   4.598   3.894  0.0922  0.0276  0.2276
  614MOL0     C82789   3.974   4.493   3.902 -0.3937  0.1352 -1.0144
  614MOL0     C82790   3.912   4.450   4.024 -0.5595 -0.3211 -0.0228
  614MOL0     O82791   3.813   4.358   4.028 -0.0797  0.1873 -0.0484
  614MOL0     C82792   3.859   4.234   4.056  0.9656  1.3442 -0.2605
  614MOL0     C82793   3.748   4.151   4.138 -0.4688 -0.0807  0.5571
  614MOL0     C82794   3.636   4.104   4.038  0.5350 -0.3372 -0.6965
  614MOL0     C82795   3.679   4.004   3.931  0.2238 -0.3436  0.0212
  614MOL0     C82796   3.561   3.942   3.844  0.6794  0.4141  0.0298
  614MOL0     C82797   3.594   3.831   3.739 -0.2075 -0.4728  0.3799
  614MOL0     C82798   3.472   3.806   3.648  1.6713  0.6836 -0.5141
  614MOL0     C82799   3.516   3.702   3.547  0.8885  0.5387  0.7965
  614MOL0    Cl82800   3.613   3.799   3.429  0.0556  0.0059 -0.0375
  614MOL0     C82801   3.943   4.516   4.141  0.4219 -0.2418 -0.0870
  614MOL0     C82802   4.042   4.619   4.136  0.9010  0.2596 -0.4494
  614MOL0     O82803   4.074   4.927   4.097 -0.6109 -0.3222 -0.1400
  614MOL0     C82804   4.424   4.917   4.029 -0.2611 -0.0524 -0.3210
  614MOL0     C82805   4.538   4.982   4.042 -0.1432 -0.3191  0.2043
  614MOL0     N82806   5.171   5.267   4.491 -0.2905  0.7795 -0.0029
  614MOL0     N82807   5.182   5.231   4.613  0.2059 -0.4621  0.2048
  614MOL0     C82808   5.435   5.598   5.687 -0.1884 -0.0881  0.2991
  614MOL0     C82809   5.514   5.632   5.805 -0.0613 -0.7096  0.1150
  614MOL0     C82810   5.743   5.884   6.093  0.4996  0.9818  0.5585
  614MOL0     C82811   5.721   5.823   6.220 -0.2386  0.3795  0.4563
  614MOL0     C82812   5.819   5.841   6.312  0.7051  0.2855 -0.0862
  614MOL0     C82813   5.936   5.907   6.299 -0.0832 -0.9728  0.8732
  614MOL0     O82814   6.021   5.899   6.407 -0.0972  0.9476 -0.0082
  614MOL0     C82815   6.142   5.975   6.412 -0.0466  0.6301 -0.0948
  614MOL0     C82816   6.132   6.132   6.416 -0.2096 -0.1109  0.6995
  614MOL0     C82817   6.266   6.182   6.485 -0.3740  1.2070 -0.4206
  614MOL0     C82818   6.268   6.335   6.511 -0.7728  0.4203 -0.5895
  614MOL0     C82819   6.396   6.364   6.581  0.2932  0.1133  0.1541
  614MOL0     C82820   6.495   6.376   6.643  0.2106 -1.0335 -0.0057
  614MOL0     C82821   5.955   5.974   6.176  1.1778 -0.8096  1.8179
  614MOL0     C82822   5.859   5.963   6.070 -0.7324  0.7910 -0.7996
  614MOL0     H82823   5.322   5.874   5.931  1.4737  0.0915  0.3493
  614MOL0     H82824   5.195   5.839   5.747  0.3229 -0.3324  2.8394
  614MOL0     H82825   5.298   5.487   5.425 -0.2521  1.1817 -1.0793
  614MOL0     H82826   5.214   5.468   5.583 -0.1142  1.9926  2.0224
  614MOL0     H82827   5.050   5.424   5.455  2.5013 -0.8304  0.6147
  614MOL0     H82828   5.014   5.598   5.486 -2.5288 -1.5614 -0.3791
  614MOL0     H82829   5.000   5.594   5.243  1.1376  2.0791  0.6808
  614MOL0     H82830   5.168   5.647   5.280 -1.3351  0.5406  0.7980
  614MOL0     H82831   5.232   5.406   5.233 -0.7523 -1.1033  3.0855
  614MOL0     H82832   5.061   5.376   5.202 -2.0371  1.9187  0.6503
  614MOL0     H82833   5.067   5.570   5.013 -2.3090  0.5945  3.1723
  614MOL0     H82834   5.242   5.552   5.041  0.2192  0.8908 -0.3635
  614MOL0     H82835   5.199   5.424   4.862  0.1734  1.3282  0.8818
  614MOL0     H82836   5.203   5.305   4.995 -3.7431 -3.2613 -0.4719
  614MOL0     H82837   4.957   5.288   5.003  0.0912 -0.4926  0.9256
  614MOL0     H82838   4.934   5.392   4.872 -2.6234 -2.5660 -0.0579
  614MOL0     H82839   4.936   5.157   4.800 -0.1285 -0.1714  0.8853
  614MOL0     H82840   5.112   5.142   4.839 -1.9499 -1.2869  3.9972
  614MOL0     H82841   4.872   5.346   4.609 -0.5736 -2.5343 -1.2172
  614MOL0     H82842   5.003   5.473   4.338 -1.9979 -1.4327  2.2644
  614MOL0     H82843   5.088   5.335   4.255 -0.2273  1.7055 -1.5731
  614MOL0     H82844   4.798   5.327   4.350 -0.1879 -1.6216 -0.1166
  614MOL0     H82845   4.897   5.191   4.291  1.4666 -0.2760  1.1591
  614MOL0     H82846   4.916   5.305   4.071 -0.3585 -1.0049 -0.4905
  614MOL0     H82847   4.851   5.454   4.136 -0.3548  0.5810 -3.4812
  614MOL0     H82848   4.681   5.345   3.999 -1.6006 -0.1880  0.2774
  614MOL0     H82849   4.618   5.362   4.166 -0.4249 -0.1033 -1.4450
  614MOL0     H82850   4.421   5.292   4.089 -0.1042  0.1881 -1.5027
  614MOL0     H82851   4.183   5.291   3.983 -1.9192  0.3927 -0.2442
  614MOL0     H82852   4.092   5.139   3.998  0.5135  0.6333 -1.2017
  614MOL0     H82853   4.137   5.230   4.146  1.3034  1.5863 -0.5855
  614MOL0     H82854   4.112   4.647   3.809  2.1509  0.3263  1.4531
  614MOL0     H82855   3.943   4.447   3.809  3.4962  0.7656 -2.8072
  614MOL0     H82856   3.888   4.176   3.968  3.3526 -2.6572  2.8246
  614MOL0     H82857   3.943   4.230   4.126  2.1290 -3.3293 -1.5589
  614MOL0     H82858   3.791   4.061   4.182 -0.3185 -0.1813  0.2064
  614MOL0     H82859   3.726   4.201   4.233 -0.4660 -2.4535  1.8946
  614MOL0     H82860   3.596   4.199   4.001  1.5672  0.1340 -0.6215
  614MOL0     H82861   3.557   4.056   4.097  1.2480 -1.2859 -0.4942
  614MOL0     H82862   3.751   4.050   3.862  2.8260 -2.7104  0.9645
  614MOL0     H82863   3.720   3.916   3.981 -0.9114 -1.8775 -1.6342
  614MOL0     H82864   3.519   4.022   3.783  0.6162 -0.5621 -1.2355
  614MOL0     H82865   3.484   3.909   3.914  1.1844 -2.4381 -0.6292
  614MOL0     H82866   3.688   3.845   3.685 -0.6170 -1.5773 -0.6785
  614MOL0     H82867   3.611   3.739   3.795 -1.2490  0.6364  2.6430
  614MOL0     H82868   3.436   3.902   3.609  0.2084  2.9177  5.3958
  614MOL0     H82869   3.395   3.768   3.715  2.1649  0.0629 -0.2794
  614MOL0     H82870   3.431   3.654   3.497 -1.0788  2.6628  1.9316
  614MOL0     H82871   3.581   3.623   3.586  0.6881  0.3902  0.8300
  614MOL0     H82872   3.894   4.489   4.235  1.1092  0.6104  0.5352
  614MOL0     H82873   4.056   4.659   4.236 -2.3749  1.5738 -0.3993
  614MOL0     H82874   4.432   4.813   4.001 -1.2153  0.1363 -1.3236
  614MOL0     H82875   4.637   4.939   4.033 -0.3302 -0.8050  0.4041
  614MOL0     H82876   5.467   5.523   5.615 -0.3668  2.0330 -2.1046
  614MOL0     H82877   5.608   5.579   5.816  0.8664  0.3272 -2.0584
  614MOL0     H82878   5.637   5.763   6.252  0.3858  0.1079  1.6481
  614MOL0     H82879   5.798   5.784   6.402  0.0253 -2.4289 -1.8129
  614MOL0     H82880   6.198   5.939   6.500 -1.2666  0.2642  0.5541
  614MOL0     H82881   6.204   5.955   6.324  0.3113 -1.0574  0.4955
  614MOL0     H82882   6.038   6.163   6.462 -1.2468 -1.1484 -0.6238
  614MOL0     H82883   6.137   6.177   6.316  2.1610 -0.6190  0.5251
  614MOL0     H82884   6.353   6.172   6.418  1.0101  0.0808  1.4358
  614MOL0     H82885   6.287   6.124   6.575  0.6948  0.3995 -1.1592
  614MOL0     H82886   6.180   6.356   6.572 -0.9447 -1.4938 -0.1245
  614MOL0     H82887   6.264   6.394   6.419 -1.1508  1.0052 -0.2088
  614MOL0     H82888   6.596   6.386   6.675 -0.0907 -2.5754  1.6003
  614MOL0     H82889   6.040   6.039   6.163 -1.4004  2.3579 -0.8732
  614MOL0     H82890   5.869   6.016   5.975  1.3872 -0.1390 -1.1583
  615MOL0     O82891   4.651   2.080   7.547  0.0404  0.8328 -0.7348
  615MOL0     C82892   4.685   2.023   7.438  0.0079 -0.7305 -0.0920
  615MOL0     O82893   4.601   2.022   7.326  0.0359 -0.2989 -0.2528
  615MOL0     C82894   4.468   2.035   7.348 -0.2771 -0.4274  0.6084
  615MOL0     C82895   4.388   2.144   7.290 -0.0378 -0.6907  0.8451
  615MOL0     C82896   4.257   2.165   7.331  0.7848 -0.2554  0.4118
  615MOL0     C82897   4.196   2.085   7.424  0.4787  0.5815 -0.0204
  615MOL0     O82898   4.060   2.093   7.460  0.5435  0.1268 -0.1320
  615MOL0     C82899   3.977   2.195   7.401 -0.0556  0.4017 -0.6223
  615MOL0     C82900   3.834   2.138   7.423  0.8788 -0.2122  0.1916
  615MOL0     C82901   3.728   2.236   7.406  0.4644 -0.4397  0.2735
  615MOL0     C82902   3.736   2.334   7.521 -0.0095 -0.8836  0.7233
  615MOL0     C82903   3.599   2.359   7.590  0.1996  0.1435 -0.0144
  615MOL0     C82904   3.607   2.460   7.710  0.8270 -0.1855  0.0945
  615MOL0     C82905   3.577   2.610   7.670  0.3522 -0.0199 -0.4107
  615MOL0     C82906   3.422   2.657   7.686 -1.2187 -1.3621 -0.7335
  615MOL0     N82907   3.385   2.654   7.829  0.1438  0.3220  0.2884
  615MOL0     C82908   3.355   2.756   7.912 -0.1452  0.0777 -0.8000
  615MOL0     C82909   3.309   2.696   8.030 -0.6543  0.1942 -0.2400
  615MOL0     C82910   3.274   2.762   8.159 -0.8338  0.0596 -0.3122
  615MOL0     C82911   3.397   2.848   8.206 -0.3716 -0.2624 -0.1473
  615MOL0     C82912   3.518   2.775   8.269 -0.5769 -0.0614  0.8547
  615MOL0     C82913   3.607   2.693   8.180  0.0004  0.3759 -0.0836
  615MOL0     O82914   3.745   2.704   8.216  0.2165 -0.0105  0.6925
  615MOL0     C82915   3.790   2.635   8.322 -0.3989  1.8457  0.4712
  615MOL0     C82916   3.721   2.547   8.403 -0.4827 -1.6292 -1.1915
  615MOL0     C82917   3.777   2.496   8.520  0.5847  0.1127 -0.2724
  615MOL0     C82918   3.683   2.402   8.607 -0.4114 -1.1408  0.2037
  615MOL0     C82919   3.917   2.514   8.553 -0.0726  0.3176  0.3397
  615MOL0     C82920   3.990   2.458   8.664 -0.7938 -0.4307 -0.3663
  615MOL0     O82921   4.119   2.462   8.642  0.3763 -0.0027 -0.1575
  615MOL0     C82922   4.198   2.450   8.749  0.3600  0.0197  0.7060
  615MOL0     C82923   4.264   2.322   8.763 -0.3752 -0.7129 -0.2411
  615MOL0     C82924   4.365   2.299   8.852  0.6662  1.2776 -0.1635
  615MOL0     C82925   4.395   2.397   8.946  0.0748  0.1206 -0.2815
  615MOL0     O82926   4.500   2.370   9.042  0.7044  0.0239 -0.1204
  615MOL0     C82927   4.482   2.243   9.114 -0.1507 -0.8681 -0.5022
  615MOL0     C82928   4.580   2.236   9.240  0.1546  0.2664 -0.0630
  615MOL0     C82929   4.545   2.334   9.350  1.2492 -0.1237 -0.4677
  615MOL0     C82930   4.596   2.478   9.321  0.3279  1.0780  0.1380
  615MOL0     C82931   4.537   2.584   9.421 -0.0733  0.2013  0.1181
  615MOL0     C82932   4.392   2.625   9.371 -0.2921  0.0490  0.3629
  615MOL0     C82933   4.350   2.758   9.446 -0.0943 -0.7102  0.4242
  615MOL0     C82934   4.246   2.840   9.365  0.1058 -0.4401  0.4312
  615MOL0    Cl82935   4.092   2.728   9.348  0.1969 -0.2761  0.0584
  615MOL0     C82936   4.331   2.516   8.953  1.3220 -0.2708 -0.0787
  615MOL0     C82937   4.235   2.540   8.840  0.3329  0.0021 -1.1950
  615MOL0     O82938   3.936   2.410   8.765  0.3292  0.6661  0.0878
  615MOL0     C82939   3.985   2.596   8.459 -0.1307  0.2991 -0.2427
  615MOL0     C82940   3.923   2.649   8.343 -0.1911  0.2202 -0.2356
  615MOL0     N82941   3.292   2.563   8.013 -0.0635 -0.0450 -0.1474
  615MOL0     N82942   3.319   2.547   7.886  0.6470 -0.4839  0.7455
  615MOL0     C82943   4.265   1.970   7.475  0.2367 -0.2099  0.2820
  615MOL0     C82944   4.399   1.950   7.439 -0.8183  0.0659 -0.2248
  615MOL0     C82945   4.829   1.971   7.431 -0.9299 -0.0204 -0.8622
  615MOL0     C82946   4.872   1.872   7.341  0.7028 -0.4375  0.4033
  615MOL0     C82947   5.004   1.832   7.340 -0.2524 -0.8139  0.3625
  615MOL0     C82948   5.101   1.880   7.432 -1.0453  0.5398  0.4659
  615MOL0     O82949   5.224   1.829   7.432  0.2488  0.3306 -0.0131
  615MOL0     C82950   5.256   1.740   7.543 -0.3954  0.6810 -0.3497
  615MOL0     C82951   5.406   1.691   7.556 -0.4451 -0.2931  0.7238
  615MOL0     C82952   5.520   1.795   7.553 -0.4335  0.6688 -0.9286
  615MOL0     C82953   5.628   1.774   7.451 -0.7817  0.9070 -0.2674
  615MOL0     C82954   5.562   1.766   7.319 -0.8968  0.2755  0.3795
  615MOL0     C82955   5.514   1.761   7.205 -0.6496  0.4368  0.0074
  615MOL0     C82956   5.057   1.968   7.525 -1.0252 -0.5801 -0.2813
  615MOL0     C82957   4.925   2.016   7.531  1.2427  0.3471  0.6375
  615MOL0     H82958   4.435   2.218   7.225  2.3307 -1.4269  1.6043
  615MOL0     H82959   4.198   2.241   7.281  2.4909  0.7295 -0.1563
  615MOL0     H82960   3.988   2.294   7.446 -3.9263  0.3485  0.8116
  615MOL0     H82961   3.976   2.183   7.292 -1.6332  1.6295 -0.7811
  615MOL0     H82962   3.823   2.047   7.363 -2.4546 -1.3059  2.1746
  615MOL0     H82963   3.820   2.092   7.522 -1.2293  0.5561  0.2916
  615MOL0     H82964   3.724   2.288   7.310 -1.3445  1.1201  1.1242
  615MOL0     H82965   3.631   2.186   7.403  0.2049  0.1185 -1.4470
  615MOL0     H82966   3.798   2.299   7.604  0.4351 -0.6999  0.4694
  615MOL0     H82967   3.777   2.431   7.492 -0.9438 -0.2206  1.5796
  615MOL0     H82968   3.526   2.394   7.516  0.0029  0.6315  0.4040
  615MOL0     H82969   3.576   2.261   7.632  1.4557 -0.6047 -1.0145
  615MOL0     H82970   3.534   2.448   7.790 -0.0655 -2.4853 -0.9938
  615MOL0     H82971   3.708   2.471   7.753  0.1791 -0.1134  1.6558
  615MOL0     H82972   3.641   2.679   7.726  0.5228  1.4088 -2.2791
  615MOL0     H82973   3.610   2.629   7.568  0.4051  3.3843  0.1225
  615MOL0     H82974   3.337   2.604   7.642 -2.2982 -1.1576  0.9796
  615MOL0     H82975   3.420   2.758   7.643 -1.4625 -2.0370 -2.3592
  615MOL0     H82976   3.362   2.864   7.902 -1.8836  0.4939  1.5834
  615MOL0     H82977   3.180   2.813   8.141 -0.7305  0.4930  0.3464
  615MOL0     H82978   3.254   2.691   8.240 -0.2262  0.6873  0.4057
  615MOL0     H82979   3.354   2.919   8.278 -2.3308 -1.8795  0.3904
  615MOL0     H82980   3.435   2.902   8.119  0.6748 -0.2228  0.3166
  615MOL0     H82981   3.484   2.718   8.356  0.7082  1.4281  2.4241
  615MOL0     H82982   3.580   2.847   8.324 -0.1550  0.3554 -0.1460
  615MOL0     H82983   3.599   2.715   8.074 -1.2520 -2.1858 -0.6053
  615MOL0     H82984   3.564   2.593   8.172 -2.3097  1.0167  2.4698
  615MOL0     H82985   3.619   2.527   8.373 -1.5910  2.3846 -0.7279
  615MOL0     H82986   3.648   2.451   8.698 -0.1669  0.9505 -0.7740
  615MOL0     H82987   3.597   2.357   8.557  1.4049 -2.9287 -1.5221
  615MOL0     H82988   3.730   2.316   8.657 -2.7007 -2.8361 -0.4118
  615MOL0     H82989   4.255   2.265   8.671  1.2395 -0.3776 -0.6470
  615MOL0     H82990   4.437   2.219   8.841  0.7815  1.3456  0.0900
  615MOL0     H82991   4.374   2.230   9.133 -0.5284 -2.2577 -3.1356
  615MOL0     H82992   4.504   2.154   9.055  1.5609 -0.0415 -1.1637
  615MOL0     H82993   4.578   2.139   9.291  0.2339  0.2131 -0.1614
  615MOL0     H82994   4.681   2.242   9.199  0.2799 -0.7136  0.0759
  615MOL0     H82995   4.574   2.287   9.444 -1.4465 -2.4844 -0.6675
  615MOL0     H82996   4.436   2.331   9.359  1.4209 -3.2872  2.5683
  615MOL0     H82997   4.703   2.483   9.342  0.6158  0.2297 -1.0754
  615MOL0     H82998   4.604   2.510   9.217  3.3587 -1.3084 -0.5055
  615MOL0     H82999   4.604   2.671   9.425  1.2766 -0.8515  1.2593
  615MOL0     H83000   4.541   2.548   9.524  2.5514 -0.9995 -0.3266
  615MOL0     H83001   4.390   2.654   9.266 -2.1037  1.9547  0.8515
  615MOL0     H83002   4.318   2.547   9.393 -0.0641 -1.1681 -2.7844
  615MOL0     H83003   4.438   2.822   9.450  0.0015 -0.8825  1.6479
  615MOL0     H83004   4.320   2.727   9.547 -0.8460  0.2491  0.5039
  615MOL0     H83005   4.280   2.868   9.265 -0.1382  0.8738  0.6988
  615MOL0     H83006   4.217   2.937   9.408 -6.1953  0.1943 -3.8882
  615MOL0     H83007   4.343   2.593   9.028 -1.3079  0.0434  0.1012
  615MOL0     H83008   4.196   2.641   8.825  0.0556  0.3507  1.3743
  615MOL0     H83009   4.092   2.616   8.453  0.0500 -0.9951 -2.6700
  615MOL0     H83010   3.967   2.705   8.261 -0.8416 -0.6538 -1.2273
  615MOL0     H83011   4.217   1.903   7.546  2.3577 -2.5510 -0.3160
  615MOL0     H83012   4.444   1.869   7.496  1.6555  1.6450  0.2158
  615MOL0     H83013   4.807   1.827   7.267  4.5970 -2.4066 -2.1636
  615MOL0     H83014   5.041   1.761   7.266  1.0045 -2.1626  2.1943
  615MOL0     H83015   5.224   1.783   7.638 -1.2823 -0.6862 -0.0131
  615MOL0     H83016   5.194   1.651   7.532 -1.8914  1.2807  2.3281
  615MOL0     H83017   5.437   1.611   7.488  2.0758 -1.1842  2.7559
  615MOL0     H83018   5.421   1.635   7.649  0.1365 -0.8084  0.3251
  615MOL0     H83019   5.574   1.800   7.648 -1.6084 -1.1766 -0.1033
  615MOL0     H83020   5.463   1.887   7.539  0.8182  1.9013  1.3966
  615MOL0     H83021   5.688   1.685   7.472  0.2924  1.3499 -1.3984
  615MOL0     H83022   5.692   1.862   7.455 -1.4858  1.4483 -0.6181
  615MOL0     H83023   5.466   1.756   7.109 -1.8784 -0.6889  0.6468
  615MOL0     H83024   5.130   2.014   7.590 -1.6262  2.3587 -1.5634
  615MOL0     H83025   4.900   2.076   7.618  0.2431 -0.6449  1.0659
  616MOL0     O83026   9.805   9.652   4.165 -0.4656  0.3434 -0.5173
  616MOL0     C83027   9.917   9.623   4.211 -0.5623 -0.4237 -0.4822
  616MOL0     O83028   9.980   9.503   4.203 -0.3057 -1.0108 -0.3800
  616MOL0     C83029   9.924   9.393   4.137  0.2151 -0.4383  0.2034
  616MOL0     C83030   9.808   9.332   4.191 -1.1955 -0.1413  0.8410
  616MOL0     C83031   9.761   9.219   4.125 -0.1392 -0.3053 -0.5198
  616MOL0     C83032   9.804   9.176   3.993 -0.0826  0.2442 -0.0513
  616MOL0     O83033   9.757   9.068   3.917 -0.5209 -0.0080  0.5764
  616MOL0     C83034   9.620   9.023   3.936 -0.2563 -1.3948  0.7824
  616MOL0     C83035   9.625   8.874   3.948  0.6234 -0.7727 -0.8093
  616MOL0     C83036   9.710   8.825   4.078  0.4770  0.6207  0.0263
  616MOL0     C83037   9.670   8.678   4.085  0.7294 -0.5337 -0.1814
  616MOL0     C83038   9.706   8.629   4.231 -0.7356  0.4449  0.6010
  616MOL0     C83039   9.712   8.476   4.244 -0.4135 -0.0883  0.2005
  616MOL0     C83040   9.753   8.441   4.383  0.1489 -0.2159  0.3081
  616MOL0     C83041   9.739   8.294   4.426 -0.4549  0.1205  0.5237
  616MOL0     N83042   9.812   8.268   4.550  0.5837  0.2146  0.5318
  616MOL0     C83043   9.879   8.150   4.576  0.6886 -0.8492 -0.7467
  616MOL0     C83044   9.941   8.182   4.693 -0.1438  0.0193  0.6279
  616MOL0     C83045  10.039   8.098   4.776 -1.2258 -0.4058  0.1071
  616MOL0     C83046  10.094   7.983   4.697 -0.7714  1.6199  0.5805
  616MOL0     C83047  10.204   7.916   4.782 -0.7168 -0.3207  0.9246
  616MOL0     C83048  10.330   7.990   4.763 -0.2632 -1.1369  0.0345
  616MOL0     O83049  10.424   7.907   4.823  0.2078  0.6542  0.6506
  616MOL0     C83050  10.556   7.939   4.809 -1.6570 -0.7930 -0.9137
  616MOL0     C83051  10.613   8.042   4.731  0.8575  0.0592 -0.1100
  616MOL0     C83052  10.749   8.065   4.722 -0.1764  0.4621  0.3464
  616MOL0     C83053  10.797   8.178   4.631  0.1658  0.2009  1.0890
  616MOL0     C83054  10.846   7.987   4.788  0.0906  0.1582 -0.9434
  616MOL0     C83055  10.997   7.992   4.772  0.2939  1.5310  0.9959
  616MOL0     O83056  11.056   7.907   4.854 -0.1902  0.0070 -0.0228
  616MOL0     C83057  11.193   7.882   4.840  0.5196 -0.7099 -0.3464
  616MOL0     C83058  11.241   7.804   4.739  0.5670 -0.5636 -0.3101
  616MOL0     C83059  11.385   7.796   4.742  0.9262 -0.1015  0.3803
  616MOL0     C83060  11.465   7.847   4.845  0.1597 -0.4599 -0.0926
  616MOL0     O83061  11.597   7.826   4.835  0.5418  0.3923  0.2236
  616MOL0     C83062  11.684   7.906   4.921 -1.2682 -0.5277  1.1895
  616MOL0     C83063  11.824   7.918   4.855 -0.0773  0.8608  0.3614
  616MOL0     C83064  11.878   7.767   4.827  0.2732  0.0851  0.2598
  616MOL0     C83065  12.031   7.763   4.824 -0.3173  0.4587 -0.2677
  616MOL0     C83066  12.093   7.743   4.968  0.6172 -0.2119 -0.3106
  616MOL0     C83067  12.081   7.599   5.023  0.0772 -0.3369  0.0266
  616MOL0     C83068  12.149   7.579   5.153 -0.6468  0.1617 -0.2672
  616MOL0     C83069  12.041   7.560   5.262 -0.0089  0.0783 -0.0489
  616MOL0    Cl83070  12.123   7.584   5.408 -0.3835 -0.1622  0.1463
  616MOL0     C83071  11.400   7.902   4.953 -0.4401  0.4667 -0.1228
  616MOL0     C83072  11.262   7.917   4.955 -0.5835 -0.8624  0.4518
  616MOL0     O83073  11.056   8.065   4.697 -0.4529 -0.8104  0.4955
  616MOL0     C83074  10.781   7.890   4.869 -0.3047  0.8911  0.0095
  616MOL0     C83075  10.644   7.861   4.888  0.0941  0.4230  0.6855
  616MOL0     N83076   9.906   8.312   4.730  0.1326  0.4509 -0.3420
  616MOL0     N83077   9.822   8.360   4.650  0.2922 -0.1681  0.9075
  616MOL0     C83078   9.916   9.244   3.938 -0.4990  0.0206 -0.8177
  616MOL0     C83079   9.977   9.347   4.014 -1.1522  0.2694  0.0826
  616MOL0     C83080   9.997   9.739   4.264 -0.0049 -0.3404  0.5450
  616MOL0     C83081  10.131   9.713   4.311 -0.0686 -0.1879 -0.0516
  616MOL0     C83082  10.212   9.819   4.343 -0.6021  0.3563 -0.0768
  616MOL0     C83083  10.176   9.947   4.330  0.6187  0.1704 -0.2140
  616MOL0     O83084  10.271  10.040   4.368  0.6655 -0.5228 -0.3832
  616MOL0     C83085  10.257  10.179   4.354  0.6577  0.1357  0.1725
  616MOL0     C83086  10.386  10.244   4.405 -0.3220 -0.2527 -0.4115
  616MOL0     C83087  10.427  10.200   4.543  0.5409  0.0787  0.7969
  616MOL0     C83088  10.570  10.233   4.586  0.2068  0.1378  0.1120
  616MOL0     C83089  10.576  10.185   4.730 -0.5475  0.2599  1.7003
  616MOL0     C83090  10.593  10.141   4.842  0.1425  0.3428 -0.2851
  616MOL0     C83091  10.037   9.974   4.290 -0.6943  0.4148 -0.3122
  616MOL0     C83092   9.946   9.873   4.260 -0.6476  0.0721 -0.4316
  616MOL0     H83093   9.756   9.348   4.285 -1.7078 -1.0510  0.7256
  616MOL0     H83094   9.684   9.157   4.169  0.3928 -2.8658 -2.8639
  616MOL0     H83095   9.565   9.074   4.015 -3.0870 -1.5336 -0.9369
  616MOL0     H83096   9.567   9.040   3.842  1.0462 -0.9472  0.1034
  616MOL0     H83097   9.523   8.834   3.950 -0.8474  2.6387  1.2005
  616MOL0     H83098   9.669   8.825   3.861 -0.4308 -0.5980 -1.4537
  616MOL0     H83099   9.818   8.839   4.066  0.3344  3.6245  1.4124
  616MOL0     H83100   9.691   8.880   4.171 -0.2225  1.0329 -0.3516
  616MOL0     H83101   9.561   8.671   4.075  0.6091 -0.0373  0.6874
  616MOL0     H83102   9.712   8.608   4.012 -1.7875 -1.9512 -0.3958
  616MOL0     H83103   9.807   8.664   4.254 -0.0251 -0.2493 -1.2785
  616MOL0     H83104   9.632   8.661   4.305  0.1773  1.2136  1.2078
  616MOL0     H83105   9.609   8.447   4.219  0.0405 -0.5032 -1.2242
  616MOL0     H83106   9.776   8.441   4.164 -1.7675  0.4375 -1.1584
  616MOL0     H83107   9.858   8.463   4.407  0.2925 -0.5131 -0.0267
  616MOL0     H83108   9.685   8.499   4.445 -0.2100  2.0954 -2.0461
  616MOL0     H83109   9.786   8.237   4.345  0.2440 -0.4235  1.2867
  616MOL0     H83110   9.633   8.281   4.450 -0.5660  1.9827  1.1691
  616MOL0     H83111   9.866   8.056   4.524  0.8058 -1.0375 -0.4389
  616MOL0     H83112  10.117   8.159   4.823 -3.1448  1.8335  0.5657
  616MOL0     H83113   9.980   8.051   4.855 -1.5657 -0.6944 -0.3125
  616MOL0     H83114  10.123   8.014   4.596  0.5489  2.5481  1.2067
  616MOL0     H83115  10.016   7.907   4.693  0.2468  0.4782  1.6546
  616MOL0     H83116  10.222   7.816   4.741  1.6758  0.7043 -0.7973
  616MOL0     H83117  10.183   7.902   4.888 -0.9588  0.5250  0.9939
  616MOL0     H83118  10.344   8.092   4.800  1.4798 -1.5783  0.6645
  616MOL0     H83119  10.342   7.993   4.654 -1.2377 -0.3230 -0.0721
  616MOL0     H83120  10.551   8.098   4.662 -1.1802 -0.5088  1.1877
  616MOL0     H83121  10.838   8.266   4.682 -1.1555  3.0359 -2.2921
  616MOL0     H83122  10.881   8.155   4.565 -1.8270 -0.8690 -1.2504
  616MOL0     H83123  10.721   8.225   4.567 -0.6004  1.4194  2.8146
  616MOL0     H83124  11.166   7.772   4.668 -0.0617  1.2754 -0.5277
  616MOL0     H83125  11.432   7.749   4.656 -0.1810  0.3113 -0.4667
  616MOL0     H83126  11.638   8.005   4.932 -0.2112 -0.0365  1.3016
  616MOL0     H83127  11.703   7.861   5.019 -0.0047 -1.8828  0.3580
  616MOL0     H83128  11.803   7.977   4.765 -1.0217  1.0883  0.7090
  616MOL0     H83129  11.891   7.973   4.923  1.3871 -1.0427  0.5331
  616MOL0     H83130  11.851   7.728   4.728  2.8537 -2.4946  0.4593
  616MOL0     H83131  11.838   7.698   4.900  0.1223 -1.5943 -1.3368
  616MOL0     H83132  12.068   7.695   4.748  1.5849  2.8882 -1.6418
  616MOL0     H83133  12.069   7.859   4.789  2.3157 -0.6547 -0.6718
  616MOL0     H83134  12.030   7.810   5.027  0.3582 -0.2852 -0.5011
  616MOL0     H83135  12.196   7.779   4.956 -0.3188  2.1792 -1.8887
  616MOL0     H83136  11.976   7.568   5.028 -0.3179  0.8792 -0.3324
  616MOL0     H83137  12.129   7.536   4.948  1.4016  0.5307  0.1226
  616MOL0     H83138  12.208   7.669   5.172 -0.4819 -0.1292  0.6981
  616MOL0     H83139  12.217   7.493   5.149 -0.1232  0.6144 -2.0244
  616MOL0     H83140  11.989   7.464   5.258 -0.1817  0.1472  0.4798
  616MOL0     H83141  11.961   7.634   5.256 -0.3439  0.0796  2.7380
  616MOL0     H83142  11.447   7.938   5.044  0.2330 -1.8261  0.4996
  616MOL0     H83143  11.200   7.966   5.030 -0.8612 -1.6803  0.7658
  616MOL0     H83144  10.844   7.820   4.924  3.1457  0.6070 -3.7955
  616MOL0     H83145  10.615   7.775   4.948  3.9631 -0.6819  1.2395
  616MOL0     H83146   9.969   9.208   3.851  1.8662  1.3775 -0.0369
  616MOL0     H83147  10.068   9.402   3.991  1.2173 -2.8995  1.0426
  616MOL0     H83148  10.175   9.614   4.312 -0.9596 -0.5984 -0.2100
  616MOL0     H83149  10.318   9.811   4.366 -0.7731 -0.9136  0.3666
  616MOL0     H83150  10.249  10.212   4.250  0.9644  0.4551  0.2484
  616MOL0     H83151  10.168  10.208   4.410 -0.8347 -0.2604 -1.8573
  616MOL0     H83152  10.373  10.353   4.414 -0.9851 -0.1691 -1.9554
  616MOL0     H83153  10.462  10.231   4.328  0.4098 -2.7619  0.6591
  616MOL0     H83154  10.401  10.095   4.558 -0.4215  0.3432  1.0393
  616MOL0     H83155  10.359  10.253   4.610 -1.4873 -4.1438  2.4480
  616MOL0     H83156  10.586  10.340   4.572 -0.3744 -0.1076 -3.5439
  616MOL0     H83157  10.631  10.170   4.520 -0.6927  0.1397 -0.7502
  616MOL0     H83158  10.621  10.113   4.941  2.5482 -1.5193 -1.3810
  616MOL0     H83159  10.010  10.076   4.266 -0.3748  1.0272  1.7367
  616MOL0     H83160   9.840   9.886   4.240 -1.0464  1.3464  1.9982
  617MOL0     O83161   0.130   0.238   2.158 -0.1404 -1.2637 -0.4595
  617MOL0     C83162   0.095   0.173   2.257 -0.0571 -0.5828  0.1402
  617MOL0     O83163  -0.012   0.201   2.329  0.3165 -0.1534 -0.8563
  617MOL0     C83164  -0.073   0.322   2.302 -0.0365  0.3635 -0.4252
  617MOL0     C83165  -0.083   0.419   2.403  0.3127  0.3771  0.6256
  617MOL0     C83166  -0.157   0.536   2.380 -0.8416  0.2643 -0.5430
  617MOL0     C83167  -0.216   0.548   2.249  0.2084  0.1809  0.2610
  617MOL0     O83168  -0.275   0.668   2.228 -0.3235  0.5973  0.4032
  617MOL0     C83169  -0.315   0.700   2.097  0.1536  1.1900 -0.6814
  617MOL0     C83170  -0.370   0.839   2.090 -0.2907  1.1893 -0.1308
  617MOL0     C83171  -0.495   0.852   2.172  0.6155  0.6952 -1.0249
  617MOL0     C83172  -0.552   0.994   2.161 -0.0042 -1.2622 -0.4952
  617MOL0     C83173  -0.681   1.026   2.230 -0.1712 -0.0492  0.1528
  617MOL0     C83174  -0.712   1.178   2.205  0.3768  1.1036 -0.4575
  617MOL0     C83175  -0.857   1.218   2.248  1.0747  0.5437  0.8340
  617MOL0     C83176  -0.882   1.367   2.186 -0.3291  0.2362  0.5428
  617MOL0     N83177  -1.010   1.421   2.211 -0.2866  0.3980 -0.1281
  617MOL0     C83178  -1.044   1.509   2.308  0.4040 -0.9231 -0.7214
  617MOL0     C83179  -1.167   1.557   2.262 -0.8403  0.4445 -0.4394
  617MOL0     C83180  -1.259   1.654   2.342 -0.5462  0.2907  0.3263
  617MOL0     C83181  -1.379   1.591   2.409  0.0239  0.4870  0.1504
  617MOL0     C83182  -1.447   1.684   2.516 -0.3872  1.1897 -0.8941
  617MOL0     C83183  -1.557   1.615   2.590 -0.8765  0.1527 -0.5779
  617MOL0     O83184  -1.638   1.704   2.665 -0.3029  0.6632  0.1612
  617MOL0     C83185  -1.720   1.641   2.744 -0.8888 -0.0239 -0.5554
  617MOL0     C83186  -1.779   1.523   2.711  0.3343  0.3378  1.0633
  617MOL0     C83187  -1.865   1.450   2.803 -0.9631 -0.1292 -0.7638
  617MOL0     C83188  -1.945   1.329   2.753  0.7732 -0.1378  0.0700
  617MOL0     C83189  -1.900   1.523   2.927 -0.1118  0.9436 -0.1504
  617MOL0     C83190  -2.009   1.479   3.009 -0.2474 -0.8224 -0.3171
  617MOL0     O83191  -2.041   1.566   3.107  0.7254  0.8060  0.1584
  617MOL0     C83192  -2.140   1.535   3.200 -0.1002 -1.1495 -0.6105
  617MOL0     C83193  -2.263   1.472   3.180 -0.5519 -0.1931 -0.1982
  617MOL0     C83194  -2.356   1.452   3.291  0.5852 -0.5027 -0.2128
  617MOL0     C83195  -2.324   1.493   3.419  0.8516  0.1483 -1.0018
  617MOL0     O83196  -2.403   1.456   3.523  0.3934  0.3956 -0.2465
  617MOL0     C83197  -2.343   1.416   3.642 -0.6697 -0.4592  0.2721
  617MOL0     C83198  -2.458   1.389   3.743 -0.0378  0.1720  0.2021
  617MOL0     C83199  -2.395   1.383   3.882  0.1323 -0.5109  0.4950
  617MOL0     C83200  -2.289   1.290   3.917  0.8841 -0.1243  0.2686
  617MOL0     C83201  -2.246   1.290   4.064 -0.3086  0.1612  0.2688
  617MOL0     C83202  -2.117   1.192   4.085 -0.5647  0.4924  0.7564
  617MOL0     C83203  -2.060   1.172   4.231  0.0092  0.2359  0.0578
  617MOL0     C83204  -1.969   1.049   4.263 -0.5932  0.3666  0.8549
  617MOL0    Cl83205  -1.984   1.021   4.438 -0.0172  0.3234  0.1372
  617MOL0     C83206  -2.217   1.586   3.435 -0.8536  0.1043  1.0200
  617MOL0     C83207  -2.120   1.596   3.329 -0.4792  0.2952  0.2512
  617MOL0     O83208  -2.062   1.371   2.988  0.4700  0.3077 -0.1500
  617MOL0     C83209  -1.836   1.642   2.959 -0.2036  0.3125  0.0172
  617MOL0     C83210  -1.748   1.698   2.867  0.1569 -0.4676 -0.5383
  617MOL0     N83211  -1.198   1.502   2.147 -0.8967  0.3185  0.3610
  617MOL0     N83212  -1.104   1.414   2.113 -0.0626  0.7953  0.3468
  617MOL0     C83213  -0.215   0.449   2.147 -0.0260  0.2787 -0.5056
  617MOL0     C83214  -0.141   0.339   2.184 -0.5006 -0.5237  0.4729
  617MOL0     C83215   0.168   0.062   2.312 -0.1696  0.0291  0.5125
  617MOL0     C83216   0.287   0.024   2.254 -0.1517 -0.7063 -0.0829
  617MOL0     C83217   0.360  -0.080   2.310  0.3254 -0.7719 -0.1466
  617MOL0     C83218   0.313  -0.156   2.409  0.3380  1.1044  0.4658
  617MOL0     O83219   0.401  -0.252   2.447  0.3245  0.5095  0.3615
  617MOL0     C83220   0.346  -0.383   2.471  0.0018  0.0947  0.1797
  617MOL0     C83221   0.451  -0.496   2.464 -0.4150 -0.3620 -0.2660
  617MOL0     C83222   0.385  -0.639   2.445 -0.3175  0.6252 -0.5926
  617MOL0     C83223   0.496  -0.749   2.433 -0.6079 -0.3738  0.9176
  617MOL0     C83224   0.556  -0.754   2.300 -0.3986  0.0952 -0.0016
  617MOL0     C83225   0.613  -0.739   2.183  1.0654  0.3522 -0.2844
  617MOL0     C83226   0.196  -0.129   2.466  0.1639 -0.6625  0.9691
  617MOL0     C83227   0.119  -0.022   2.417 -0.7346 -0.3018 -0.2685
  617MOL0     H83228  -0.035   0.386   2.496 -1.4071 -2.8726  0.5026
  617MOL0     H83229  -0.166   0.610   2.458  2.4703  2.6890 -2.2330
  617MOL0     H83230  -0.230   0.691   2.029  1.2275 -0.4375  0.8161
  617MOL0     H83231  -0.390   0.626   2.068  2.1704 -2.3601  2.4142
  617MOL0     H83232  -0.287   0.902   2.122  0.0153  0.2326  1.0373
  617MOL0     H83233  -0.398   0.865   1.987 -0.9857 -0.2216 -0.3350
  617MOL0     H83234  -0.562   0.774   2.135  0.9903 -2.3190  3.6689
  617MOL0     H83235  -0.485   0.830   2.279 -1.0604  0.5289 -0.8675
  617MOL0     H83236  -0.475   1.062   2.199 -0.6619 -0.0522 -1.2558
  617MOL0     H83237  -0.542   1.021   2.056  2.3049 -0.1192 -0.0452
  617MOL0     H83238  -0.757   0.967   2.179  1.0398 -1.8799  0.3434
  617MOL0     H83239  -0.685   1.012   2.339 -4.1593  1.8421  0.4145
  617MOL0     H83240  -0.645   1.243   2.261  0.2539  0.6556  0.2329
  617MOL0     H83241  -0.691   1.195   2.099  2.0133 -1.0858 -0.5551
  617MOL0     H83242  -0.926   1.147   2.201  1.2958  0.5714  0.4631
  617MOL0     H83243  -0.873   1.212   2.356 -0.3519 -0.9333  0.5770
  617MOL0     H83244  -0.856   1.364   2.080  1.2293 -0.5504  0.9095
  617MOL0     H83245  -0.807   1.435   2.227 -1.3534  2.6455 -1.3843
  617MOL0     H83246  -0.990   1.542   2.396  0.2033 -1.2103 -0.4899
  617MOL0     H83247  -1.189   1.709   2.406  0.2284 -0.2006 -0.0841
  617MOL0     H83248  -1.287   1.732   2.271  1.7678  0.5718 -0.3597
  617MOL0     H83249  -1.339   1.504   2.463 -0.6023  1.5225  2.4045
  617MOL0     H83250  -1.443   1.582   2.322  0.9936  4.3905 -1.1806
  617MOL0     H83251  -1.474   1.780   2.470  3.1811  2.6996 -0.1168
  617MOL0     H83252  -1.374   1.704   2.595  2.1863 -1.5193 -2.3820
  617MOL0     H83253  -1.505   1.550   2.661  0.5056  2.0894  0.2677
  617MOL0     H83254  -1.617   1.567   2.512  3.0525 -1.7167 -2.7894
  617MOL0     H83255  -1.755   1.469   2.620 -1.2773 -2.6798  2.2885
  617MOL0     H83256  -1.908   1.314   2.651  0.0223  0.5564 -0.3140
  617MOL0     H83257  -1.940   1.236   2.812  2.1986 -0.1404 -0.0185
  617MOL0     H83258  -2.047   1.367   2.748  1.3879  2.0996  2.3667
  617MOL0     H83259  -2.299   1.446   3.081 -3.0022  0.0480  0.5579
  617MOL0     H83260  -2.446   1.392   3.289  1.7763 -2.3535 -1.1830
  617MOL0     H83261  -2.290   1.321   3.626 -1.1269 -0.7859  0.6894
  617MOL0     H83262  -2.266   1.484   3.678 -1.0730 -0.7694  1.7584
  617MOL0     H83263  -2.534   1.467   3.743 -0.8241 -0.5012 -2.4274
  617MOL0     H83264  -2.518   1.301   3.717  1.3471 -0.2105 -1.9645
  617MOL0     H83265  -2.477   1.369   3.952 -1.2715 -2.6939 -1.4177
  617MOL0     H83266  -2.357   1.483   3.903  0.2489  0.0755 -2.0951
  617MOL0     H83267  -2.321   1.190   3.886  1.3679  0.4432 -2.3361
  617MOL0     H83268  -2.200   1.313   3.858  1.2740  3.1381  1.9129
  617MOL0     H83269  -2.327   1.259   4.130  0.1800  2.7350  2.2636
  617MOL0     H83270  -2.238   1.388   4.112 -0.3769 -0.1305  0.8884
  617MOL0     H83271  -2.129   1.087   4.058  2.1172  0.6407 -1.5029
  617MOL0     H83272  -2.039   1.236   4.021 -3.1242  0.3002 -2.7785
  617MOL0     H83273  -2.145   1.169   4.300 -0.6520  0.3301 -0.7327
  617MOL0     H83274  -2.001   1.260   4.258  3.3158 -1.9038  0.4564
  617MOL0     H83275  -1.865   1.064   4.231  0.8992 -0.0069  4.9403
  617MOL0     H83276  -2.003   0.966   4.201  0.6825  1.1705 -1.0440
  617MOL0     H83277  -2.209   1.643   3.527  1.4967  3.1124 -0.8540
  617MOL0     H83278  -2.020   1.637   3.332  0.3482 -1.5386 -0.9485
  617MOL0     H83279  -1.863   1.694   3.050  0.6619 -2.9043  2.2948
  617MOL0     H83280  -1.700   1.795   2.877  0.5738 -0.7088 -0.1609
  617MOL0     H83281  -0.263   0.462   2.050  0.0144  1.5509 -0.3772
  617MOL0     H83282  -0.136   0.266   2.104  3.0757  2.2387 -2.1599
  617MOL0     H83283   0.345   0.081   2.182 -1.6356  1.6238  0.4561
  617MOL0     H83284   0.461  -0.091   2.273 -0.0051  0.2362 -1.4043
  617MOL0     H83285   0.299  -0.384   2.570  0.5136 -0.2876  0.4210
  617MOL0     H83286   0.284  -0.396   2.381  1.1811 -5.2200 -0.2209
  617MOL0     H83287   0.513  -0.493   2.554  0.9501  0.9310 -1.2231
  617MOL0     H83288   0.522  -0.479   2.383  1.3483 -0.5209  1.1922
  617MOL0     H83289   0.318  -0.645   2.359  0.6870  1.0570 -1.4144
  617MOL0     H83290   0.332  -0.670   2.536  0.9731  1.0460  0.3336
  617MOL0     H83291   0.457  -0.849   2.454 -0.2219 -0.1386  3.0119
  617MOL0     H83292   0.579  -0.723   2.500  2.1754 -2.4105 -1.4990
  617MOL0     H83293   0.667  -0.725   2.092  0.5314 -0.9600 -0.8230
  617MOL0     H83294   0.152  -0.190   2.544  0.9911 -2.7035 -0.0912
  617MOL0     H83295   0.018  -0.014   2.455 -0.8182 -0.1183 -0.5249
  618MOL0     O83296   2.182   5.401   3.566 -1.0913 -0.0431  0.2871
  618MOL0     C83297   2.171   5.523   3.590  0.3393 -0.2454 -0.4845
  618MOL0     O83298   2.260   5.624   3.555 -0.0189 -0.2296 -0.2389
  618MOL0     C83299   2.375   5.589   3.501 -0.9189 -0.2468  0.2569
  618MOL0     C83300   2.454   5.479   3.546 -0.1715 -0.8770 -0.0469
  618MOL0     C83301   2.586   5.467   3.487  0.9394  0.0562  0.3075
  618MOL0     C83302   2.631   5.555   3.377 -0.6215  0.2232  0.3537
  618MOL0     O83303   2.750   5.526   3.329 -0.4304 -0.1622  0.1935
  618MOL0     C83304   2.841   5.642   3.344 -0.9172  0.5165 -0.5504
  618MOL0     C83305   2.988   5.599   3.345  0.5589 -0.8861 -0.5727
  618MOL0     C83306   3.072   5.712   3.282 -0.2528  0.0774 -1.0057
  618MOL0     C83307   3.179   5.649   3.182 -0.2652 -1.0529 -0.3393
  618MOL0     C83308   3.272   5.754   3.125 -0.5553 -0.4213  0.6141
  618MOL0     C83309   3.210   5.858   3.040  0.6627 -0.3156  0.2107
  618MOL0     C83310   3.154   5.776   2.911  0.1839  0.0141 -0.3755
  618MOL0     C83311   3.156   5.855   2.785  0.2373  0.1758 -1.1597
  618MOL0     N83312   3.063   5.962   2.796  0.2918 -0.6681 -0.6545
  618MOL0     C83313   3.100   6.095   2.807  0.0071 -1.0103  0.2000
  618MOL0     C83314   2.986   6.176   2.806 -0.3776  0.1988  0.0540
  618MOL0     C83315   2.989   6.320   2.817  0.1910  0.1357 -0.0910
  618MOL0     C83316   2.999   6.403   2.680 -0.0093  0.9122 -0.1003
  618MOL0     C83317   3.115   6.366   2.591 -0.1665  0.4350 -0.2148
  618MOL0     C83318   3.112   6.456   2.461  0.8836 -0.0182  0.3452
  618MOL0     O83319   3.233   6.436   2.379  0.5182  0.3061 -0.3468
  618MOL0     C83320   3.357   6.471   2.419  0.5480 -0.2568 -0.1338
  618MOL0     C83321   3.381   6.585   2.497 -0.6522  1.1267  0.0239
  618MOL0     C83322   3.509   6.607   2.544 -0.5013 -0.0133  0.1247
  618MOL0     C83323   3.530   6.706   2.657 -0.1037  0.7000  0.0533
  618MOL0     C83324   3.617   6.535   2.489 -0.0266 -0.3313  0.1681
  618MOL0     C83325   3.761   6.548   2.520  0.7048 -0.2380 -0.1978
  618MOL0     O83326   3.852   6.481   2.438  0.6014  0.9152 -1.0763
  618MOL0     C83327   3.970   6.532   2.433 -0.5695 -0.7292  0.6500
  618MOL0     C83328   3.991   6.669   2.394  0.2448  0.0911  0.3865
  618MOL0     C83329   4.111   6.730   2.373 -0.8412 -0.0147 -0.1794
  618MOL0     C83330   4.232   6.646   2.388  0.3656 -0.3486 -0.4231
  618MOL0     O83331   4.364   6.685   2.390  0.4466  0.4188  0.1622
  618MOL0     C83332   4.381   6.827   2.376  0.3075  0.0666  0.8883
  618MOL0     C83333   4.522   6.854   2.374 -0.0307 -0.6980  0.3322
  618MOL0     C83334   4.550   7.005   2.353  0.4046  0.2016 -0.6375
  618MOL0     C83335   4.700   7.032   2.357  0.4343 -1.2102 -0.5622
  618MOL0     C83336   4.738   7.170   2.413 -0.4046  0.0434 -0.0660
  618MOL0     C83337   4.717   7.178   2.564 -0.3155 -0.9518 -0.5162
  618MOL0     C83338   4.743   7.327   2.610  0.0937  0.3008  0.5111
  618MOL0     C83339   4.632   7.373   2.697 -0.1636  0.0094  0.2098
  618MOL0    Cl83340   4.504   7.408   2.581 -0.8306 -0.3077  0.4030
  618MOL0     C83341   4.213   6.514   2.430  0.0306  0.1149 -0.5187
  618MOL0     C83342   4.088   6.453   2.456  0.5238 -0.1504  0.4300
  618MOL0     O83343   3.793   6.625   2.609 -0.7065 -0.8890 -0.1062
  618MOL0     C83344   3.591   6.441   2.396 -0.2841  0.6026 -0.3452
  618MOL0     C83345   3.465   6.404   2.360  0.6692  0.7038 -0.1296
  618MOL0     N83346   2.878   6.086   2.787 -0.2907 -0.0816 -0.0031
  618MOL0     N83347   2.927   5.968   2.777 -0.3173  0.0199  0.5203
  618MOL0     C83348   2.544   5.665   3.339 -0.0215  0.0153 -0.0546
  618MOL0     C83349   2.423   5.674   3.401 -0.3289  0.4533  1.1734
  618MOL0     C83350   2.054   5.561   3.667 -0.2083  0.1254 -0.0780
  618MOL0     C83351   1.953   5.471   3.697 -1.6838  0.4759 -0.6786
  618MOL0     C83352   1.851   5.496   3.786  0.0789 -0.6599  1.0755
  618MOL0     C83353   1.837   5.623   3.846 -0.0930  0.1039  0.1870
  618MOL0     O83354   1.735   5.629   3.942  0.4251  0.4307  0.2767
  618MOL0     C83355   1.686   5.762   3.987 -0.6499 -0.2789  0.9548
  618MOL0     C83356   1.540   5.762   4.026  0.4164 -0.1628  0.2233
  618MOL0     C83357   1.457   5.828   3.907  0.3478 -0.3208 -0.0447
  618MOL0     C83358   1.318   5.753   3.901  0.1469 -0.5619  0.1401
  618MOL0     C83359   1.239   5.767   4.023  0.2128 -0.0720 -0.3847
  618MOL0     C83360   1.180   5.787   4.127  0.5315 -0.8064 -0.6329
  618MOL0     C83361   1.938   5.724   3.823 -0.3743 -0.0755  0.3089
  618MOL0     C83362   2.053   5.691   3.740 -0.2585  0.4060  0.6267
  618MOL0     H83363   2.419   5.413   3.624  1.0930  1.4415  2.6743
  618MOL0     H83364   2.648   5.386   3.523  0.7811  1.9701  5.7500
  618MOL0     H83365   2.827   5.703   3.254 -1.6931 -3.0272 -3.0530
  618MOL0     H83366   2.826   5.702   3.433  2.1610  3.1894 -1.6521
  618MOL0     H83367   3.021   5.591   3.449 -1.7066 -1.8464  0.1327
  618MOL0     H83368   3.013   5.501   3.304 -0.3946 -1.0687 -0.7485
  618MOL0     H83369   3.010   5.775   3.217 -0.5205  1.1499  0.2546
  618MOL0     H83370   3.123   5.775   3.355 -2.0800  0.3441  0.0963
  618MOL0     H83371   3.240   5.573   3.230  0.9508 -1.8654 -2.9880
  618MOL0     H83372   3.127   5.593   3.103 -0.5020 -0.9158 -0.2821
  618MOL0     H83373   3.317   5.814   3.205 -1.3583 -2.6357  2.8551
  618MOL0     H83374   3.357   5.708   3.074 -1.5278 -2.2358  0.5431
  618MOL0     H83375   3.140   5.929   3.086 -1.3132  1.5130 -4.8521
  618MOL0     H83376   3.296   5.915   3.003 -0.1065 -0.5255 -2.0129
  618MOL0     H83377   3.222   5.693   2.891 -1.7675 -1.7279 -0.0962
  618MOL0     H83378   3.053   5.740   2.931 -0.0776 -0.9359 -3.0399
  618MOL0     H83379   3.136   5.808   2.689  0.4149  1.4280 -1.8374
  618MOL0     H83380   3.262   5.881   2.776  0.5234  0.2763  1.5386
  618MOL0     H83381   3.207   6.114   2.815  0.0146 -0.6904 -0.5078
  618MOL0     H83382   2.907   6.364   2.875  0.0274  1.6711 -1.4362
  618MOL0     H83383   3.076   6.352   2.875  1.6790  1.2552 -2.7450
  618MOL0     H83384   3.022   6.507   2.708 -0.5562  1.2569 -0.9103
  618MOL0     H83385   2.902   6.408   2.630 -0.3864 -1.0572  0.3598
  618MOL0     H83386   3.104   6.262   2.561 -0.8699  1.1872 -2.8118
  618MOL0     H83387   3.219   6.380   2.625 -0.1802 -0.3231  0.1596
  618MOL0     H83388   3.101   6.564   2.468 -1.8850  0.0175 -2.3750
  618MOL0     H83389   3.027   6.417   2.403 -0.0565  0.0556  1.6250
  618MOL0     H83390   3.297   6.647   2.528 -0.8909  0.5601  0.5387
  618MOL0     H83391   3.586   6.792   2.620 -0.1377  0.6788 -0.0484
  618MOL0     H83392   3.432   6.743   2.690  0.6702  4.0761 -1.1026
  618MOL0     H83393   3.586   6.667   2.742 -2.2671 -0.7374  0.9238
  618MOL0     H83394   3.899   6.723   2.377 -2.2855 -4.0672 -0.5719
  618MOL0     H83395   4.113   6.834   2.342  0.6618  1.1132  3.3143
  618MOL0     H83396   4.352   6.860   2.276 -0.8837 -1.1211  0.8063
  618MOL0     H83397   4.324   6.884   2.450  1.1447  2.0089  0.0893
  618MOL0     H83398   4.560   6.823   2.472 -2.4598  2.1348  2.3712
  618MOL0     H83399   4.576   6.806   2.292  2.1001  3.4899 -0.9753
  618MOL0     H83400   4.506   7.065   2.433  4.2150  1.8080  0.5017
  618MOL0     H83401   4.508   7.039   2.258  1.0129 -1.7022 -1.6367
  618MOL0     H83402   4.765   6.966   2.416  1.4362  0.3626  0.1501
  618MOL0     H83403   4.736   7.041   2.254 -2.4280  1.1975 -1.4761
  618MOL0     H83404   4.671   7.247   2.372  2.5418  2.4353 -0.7731
  618MOL0     H83405   4.844   7.189   2.390 -0.1945  0.2903  1.0684
  618MOL0     H83406   4.614   7.149   2.586  0.0160 -1.6118  0.1814
  618MOL0     H83407   4.775   7.098   2.611 -1.5874 -2.9585 -2.1607
  618MOL0     H83408   4.749   7.391   2.522  0.3230  1.0729  1.0804
  618MOL0     H83409   4.841   7.319   2.659 -0.4621 -3.7535  1.3575
  618MOL0     H83410   4.656   7.465   2.749  0.5489  0.5302 -0.9900
  618MOL0     H83411   4.596   7.309   2.778 -2.7957  2.4246  1.1337
  618MOL0     H83412   4.308   6.463   2.444  1.0390  2.4320  1.7185
  618MOL0     H83413   4.072   6.350   2.485 -1.1927  0.4524  1.8052
  618MOL0     H83414   3.668   6.382   2.346 -1.9701 -2.3045  0.2404
  618MOL0     H83415   3.440   6.333   2.282  1.1642  0.8127 -0.3966
  618MOL0     H83416   2.575   5.735   3.263  0.7353  0.1271  0.3487
  618MOL0     H83417   2.364   5.751   3.352  0.8581  1.1744  0.8418
  618MOL0     H83418   1.980   5.371   3.666  3.8988  1.5253 -0.2267
  618MOL0     H83419   1.777   5.418   3.805 -2.3218  0.6179 -2.2297
  618MOL0     H83420   1.739   5.785   4.080 -1.1463  4.3605  0.3233
  618MOL0     H83421   1.720   5.840   3.918 -0.5490  0.0258  1.3457
  618MOL0     H83422   1.527   5.808   4.124  0.9215 -1.4347  0.9031
  618MOL0     H83423   1.499   5.662   4.036 -1.6009  0.4555 -1.1822
  618MOL0     H83424   1.513   5.816   3.815 -0.1862 -1.3420 -0.2528
  618MOL0     H83425   1.439   5.934   3.928  0.4131 -0.2903 -0.1420
  618MOL0     H83426   1.325   5.650   3.867  2.2928 -1.9120  4.0253
  618MOL0     H83427   1.266   5.801   3.818  1.5958 -1.6833 -1.4921
  618MOL0     H83428   1.128   5.809   4.218 -0.0831 -1.4712 -0.8153
  618MOL0     H83429   1.926   5.817   3.877 -3.6172 -0.8386  1.1646
  618MOL0     H83430   2.131   5.764   3.723  1.3873 -1.6238 -1.0230
  619MOL0     O83431   6.023   4.815   9.230 -0.6408  0.5958 -0.1836
  619MOL0     C83432   6.147   4.827   9.246  0.1097 -0.2878  0.0129
  619MOL0     O83433   6.245   4.762   9.182  0.7223 -0.7072 -0.3904
  619MOL0     C83434   6.204   4.672   9.091  0.6189 -0.4849 -0.4492
  619MOL0     C83435   6.116   4.564   9.112 -0.5857 -0.3612 -0.3319
  619MOL0     C83436   6.074   4.470   9.006 -0.3823 -0.1629 -0.8366
  619MOL0     C83437   6.134   4.492   8.880  0.9231  0.5738 -0.0366
  619MOL0     O83438   6.098   4.413   8.777 -0.1069 -0.0587  0.1572
  619MOL0     C83439   6.191   4.304   8.759 -0.2481  0.7617 -0.6479
  619MOL0     C83440   6.130   4.171   8.794  0.6161  1.3780 -0.5001
  619MOL0     C83441   6.019   4.122   8.697  0.3717  1.3539  0.5996
  619MOL0     C83442   5.877   4.123   8.764  0.2032 -1.1467 -0.2779
  619MOL0     C83443   5.763   4.082   8.680 -0.2198  0.9109  0.2154
  619MOL0     C83444   5.701   4.190   8.588 -0.1626 -0.6639 -0.1741
  619MOL0     C83445   5.611   4.285   8.671 -0.8049 -0.6495 -0.3174
  619MOL0     C83446   5.460   4.242   8.684 -0.4050  0.8488  0.4322
  619MOL0     N83447   5.382   4.256   8.569 -0.1938  0.2925 -0.1403
  619MOL0     C83448   5.375   4.377   8.501 -0.9477  0.8384 -0.3134
  619MOL0     C83449   5.319   4.345   8.389  0.3242 -1.4852  0.0591
  619MOL0     C83450   5.285   4.414   8.261  0.1875  0.1482 -0.6065
  619MOL0     C83451   5.157   4.497   8.253  0.6717  0.1986 -0.2261
  619MOL0     C83452   5.129   4.551   8.112 -0.7083  0.8243 -0.2188
  619MOL0     C83453   4.993   4.627   8.113  1.2086  0.6589 -0.1465
  619MOL0     O83454   4.979   4.665   7.972 -0.0122  0.1917  0.0846
  619MOL0     C83455   4.886   4.753   7.921  0.1806 -0.8405 -0.0882
  619MOL0     C83456   4.799   4.831   7.999 -1.8855  0.3534 -0.3560
  619MOL0     C83457   4.711   4.913   7.933 -0.0311 -0.2623  0.4233
  619MOL0     C83458   4.606   4.967   8.029 -0.3717 -0.5902  0.0228
  619MOL0     C83459   4.706   4.935   7.791 -0.5168 -0.1031  0.0335
  619MOL0     C83460   4.599   5.015   7.724 -0.2348  0.5281 -0.4761
  619MOL0     O83461   4.573   4.986   7.590  0.2185  0.3018  0.2726
  619MOL0     C83462   4.471   5.047   7.526  0.3655 -0.4707 -0.3308
  619MOL0     C83463   4.349   5.075   7.580 -0.2183 -0.4716  0.1273
  619MOL0     C83464   4.253   5.149   7.510 -0.4429  0.1662  0.1925
  619MOL0     C83465   4.265   5.160   7.373  0.5109  0.5269  1.0030
  619MOL0     O83466   4.160   5.212   7.305  0.5530  0.6069  0.2278
  619MOL0     C83467   4.152   5.214   7.172  0.3182  0.1695  0.5763
  619MOL0     C83468   4.005   5.221   7.135  0.1940  0.3370  0.0984
  619MOL0     C83469   3.929   5.344   7.175 -0.6368 -0.5290  0.6844
  619MOL0     C83470   3.779   5.322   7.142  0.4070  0.2375 -0.5035
  619MOL0     C83471   3.712   5.459   7.143  0.2873  1.3388  0.4581
  619MOL0     C83472   3.763   5.562   7.045  0.3334  0.2815 -0.1507
  619MOL0     C83473   3.707   5.530   6.900 -0.3623  0.8866  0.1449
  619MOL0     C83474   3.821   5.560   6.800 -0.0397 -0.0803  0.5968
  619MOL0    Cl83475   3.962   5.461   6.836  0.1738 -0.6152 -0.0495
  619MOL0     C83476   4.382   5.118   7.307  0.3210  0.3000  0.8958
  619MOL0     C83477   4.480   5.066   7.386 -1.0709  0.4091 -0.0890
  619MOL0     O83478   4.552   5.111   7.784 -0.1822  0.4550 -0.4886
  619MOL0     C83479   4.789   4.849   7.712 -0.3227  0.3859 -0.0844
  619MOL0     C83480   4.881   4.770   7.783 -0.0252 -0.1849  0.4121
  619MOL0     N83481   5.304   4.211   8.386  0.3675  0.9231  0.4022
  619MOL0     N83482   5.330   4.154   8.501  0.4149 -0.2528 -0.0297
  619MOL0     C83483   6.227   4.595   8.855  0.1513 -0.5620 -0.0266
  619MOL0     C83484   6.266   4.682   8.958  0.5151 -0.0886  0.3877
  619MOL0     C83485   6.190   4.927   9.350  0.0619  0.0866  0.3699
  619MOL0     C83486   6.334   4.926   9.390 -0.5987  0.4223  1.7029
  619MOL0     C83487   6.377   4.995   9.498  0.1938  0.0991 -0.7183
  619MOL0     C83488   6.294   5.070   9.575  0.6825  0.6477 -0.4218
  619MOL0     O83489   6.347   5.117   9.696 -0.4293  0.2798 -0.6569
  619MOL0     C83490   6.287   5.223   9.769 -0.7509  1.2428 -0.0686
  619MOL0     C83491   6.354   5.250   9.909 -0.2508 -0.0314 -0.7472
  619MOL0     C83492   6.482   5.337   9.880  0.8161  0.4347  0.5678
  619MOL0     C83493   6.532   5.392  10.019 -0.2183  1.3131  0.2885
  619MOL0     C83494   6.643   5.484   9.988  0.4992 -0.4296  0.1650
  619MOL0     C83495   6.718   5.565   9.929  0.2987  0.0408  0.1199
  619MOL0     C83496   6.155   5.075   9.541 -0.4587  0.7940 -1.1875
  619MOL0     C83497   6.104   5.003   9.426  1.3077 -1.1376 -0.2790
  619MOL0     H83498   6.067   4.544   9.207  3.0470  0.9938  2.0566
  619MOL0     H83499   6.008   4.384   9.006  1.1693 -1.4482 -2.8300
  619MOL0     H83500   6.221   4.295   8.654  1.5412 -2.1542  0.0074
  619MOL0     H83501   6.290   4.317   8.804  0.1354 -0.9592 -0.9288
  619MOL0     H83502   6.207   4.093   8.792 -0.8334 -0.0913 -0.9428
  619MOL0     H83503   6.102   4.178   8.900  0.6960  4.1678 -0.6119
  619MOL0     H83504   6.033   4.194   8.616 -1.3279  1.0743  0.0170
  619MOL0     H83505   6.032   4.023   8.651 -2.1099 -0.2616  3.0198
  619MOL0     H83506   5.886   4.044   8.839 -0.0928  0.6113  1.6969
  619MOL0     H83507   5.859   4.219   8.813  3.4413  0.1687 -1.3547
  619MOL0     H83508   5.796   3.999   8.618  0.6933 -1.3339  3.4881
  619MOL0     H83509   5.692   4.038   8.750  0.3827  0.0410  0.2947
  619MOL0     H83510   5.781   4.241   8.533  0.9108 -1.8802  0.2088
  619MOL0     H83511   5.634   4.154   8.510 -1.5608  0.2854  0.5367
  619MOL0     H83512   5.657   4.310   8.767  1.3824  0.4136 -1.5705
  619MOL0     H83513   5.610   4.382   8.620 -0.2451  0.7931  2.2134
  619MOL0     H83514   5.410   4.300   8.762 -1.7837 -2.4182  2.1673
  619MOL0     H83515   5.453   4.144   8.732 -1.7930  1.2777  1.1521
  619MOL0     H83516   5.412   4.475   8.529 -0.4784  0.8574 -0.9678
  619MOL0     H83517   5.368   4.483   8.241  2.9561 -2.9149 -0.4604
  619MOL0     H83518   5.283   4.344   8.177  0.7091  1.1052 -1.4379
  619MOL0     H83519   5.153   4.572   8.331 -0.6141  0.1400 -0.2124
  619MOL0     H83520   5.081   4.425   8.283  0.2584  0.7510  0.0619
  619MOL0     H83521   5.123   4.470   8.039 -2.7591  1.1714 -0.4961
  619MOL0     H83522   5.208   4.621   8.084 -1.6340  2.6100  1.4094
  619MOL0     H83523   4.989   4.707   8.188  1.0631 -1.7144  2.5548
  619MOL0     H83524   4.909   4.563   8.141  2.0523 -0.6665 -0.5688
  619MOL0     H83525   4.791   4.820   8.107 -1.5579  1.0401 -0.2534
  619MOL0     H83526   4.584   4.908   8.118  1.1803 -0.5680  0.4412
  619MOL0     H83527   4.642   5.067   8.057 -1.6427  0.0875 -0.6271
  619MOL0     H83528   4.512   4.992   7.979  1.4031  1.3275 -2.6326
  619MOL0     H83529   4.338   5.050   7.685  0.3685 -0.8278  0.1100
  619MOL0     H83530   4.165   5.178   7.567 -1.2865 -3.5224  1.0268
  619MOL0     H83531   4.198   5.306   7.135  1.1176 -0.8158 -1.0009
  619MOL0     H83532   4.206   5.134   7.121  0.0408  1.1955 -1.4261
  619MOL0     H83533   4.009   5.216   7.026  1.1724 -2.9065  0.1696
  619MOL0     H83534   3.964   5.127   7.174 -0.8342  0.6488 -0.2048
  619MOL0     H83535   3.979   5.433   7.136  0.9277 -0.1479  3.2734
  619MOL0     H83536   3.945   5.354   7.283 -0.7103 -2.3443  0.8935
  619MOL0     H83537   3.776   5.273   7.044  1.1302 -0.4306 -0.1990
  619MOL0     H83538   3.731   5.247   7.206  0.2290  1.6549  1.0610
  619MOL0     H83539   3.716   5.499   7.244 -1.2684  0.7995  0.7676
  619MOL0     H83540   3.606   5.454   7.116 -0.2261  2.0455  2.2262
  619MOL0     H83541   3.729   5.656   7.090 -1.6488 -0.6597  0.4450
  619MOL0     H83542   3.868   5.591   7.035  0.2032  0.5295 -0.8408
  619MOL0     H83543   3.614   5.588   6.889 -0.8758  0.1854  0.6336
  619MOL0     H83544   3.688   5.423   6.888  2.1175  0.6090 -2.0908
  619MOL0     H83545   3.834   5.668   6.800 -2.6695  0.3152  0.0403
  619MOL0     H83546   3.793   5.524   6.701  2.6599 -0.4319 -0.1229
  619MOL0     H83547   4.388   5.140   7.201 -4.4170  0.1651  0.3655
  619MOL0     H83548   4.569   5.024   7.339 -1.3461 -1.0975  0.6575
  619MOL0     H83549   4.774   4.839   7.605 -1.4078 -3.9122  0.2686
  619MOL0     H83550   4.941   4.714   7.712 -0.2181 -0.1363  0.2096
  619MOL0     H83551   6.265   4.599   8.753 -1.8817 -0.8442 -0.8401
  619MOL0     H83552   6.338   4.761   8.942  0.1836  0.5247  1.7662
  619MOL0     H83553   6.410   4.872   9.335 -0.5425  0.4852  1.7199
  619MOL0     H83554   6.481   5.003   9.526  0.7022 -0.2251 -2.3766
  619MOL0     H83555   6.296   5.314   9.709 -0.1760  0.8377 -0.6122
  619MOL0     H83556   6.181   5.201   9.786 -0.4551 -0.4103 -0.2044
  619MOL0     H83557   6.379   5.153   9.954  0.3156  0.5271  0.1707
  619MOL0     H83558   6.291   5.302   9.981 -1.2330 -1.8736 -0.2141
  619MOL0     H83559   6.457   5.425   9.820  2.6893  2.4742  2.5902
  619MOL0     H83560   6.555   5.275   9.827 -3.5171 -4.9459 -0.0310
  619MOL0     H83561   6.569   5.317  10.089 -1.9728  0.6455  0.5382
  619MOL0     H83562   6.452   5.439  10.078 -0.7908 -1.3264  1.7700
  619MOL0     H83563   6.773   5.615   9.853  2.1305 -1.0844  0.6268
  619MOL0     H83564   6.085   5.119   9.611  1.5432 -1.6464  2.6767
  619MOL0     H83565   6.001   5.014   9.394  1.3672 -1.1445 -0.4760
  620MOL0     O83566   5.642   9.372   9.900 -0.1514  0.6993  0.5006
  620MOL0     C83567   5.659   9.336  10.024 -0.4917  0.1721 -0.0091
  620MOL0     O83568   5.782   9.322  10.092  0.2766  0.8006 -0.0645
  620MOL0     C83569   5.877   9.414  10.056  0.8946  0.3428 -0.3353
  620MOL0     C83570   6.004   9.369  10.007 -0.5387 -0.1973  0.3029
  620MOL0     C83571   6.111   9.454   9.981 -0.9129 -0.4732 -0.6246
  620MOL0     C83572   6.092   9.592   9.984 -0.7213 -0.5255  0.3202
  620MOL0     O83573   6.195   9.664   9.933  0.4712  0.1415 -0.4164
  620MOL0     C83574   6.172   9.721   9.804 -0.3908 -0.0967 -0.2909
  620MOL0     C83575   6.167   9.876   9.799 -1.4377  0.3523  0.2230
  620MOL0     C83576   6.305   9.943   9.835  0.5283 -0.2837  0.0234
  620MOL0     C83577   6.428   9.911   9.744 -0.9308  1.1072 -0.6020
  620MOL0     C83578   6.408   9.973   9.605 -0.0913 -0.3901  0.3379
  620MOL0     C83579   6.533   9.982   9.520 -0.3823  0.8053 -0.3943
  620MOL0     C83580   6.502  10.020   9.375 -0.0295 -0.3252  0.7058
  620MOL0     C83581   6.415  10.152   9.359 -0.0327  0.2620 -0.7758
  620MOL0     N83582   6.434  10.194   9.222 -0.2512  0.9571  0.0289
  620MOL0     C83583   6.552  10.226   9.164  0.0386  1.4733  0.6019
  620MOL0     C83584   6.526  10.259   9.035  0.0786 -0.5418  0.3393
  620MOL0     C83585   6.619  10.311   8.934  1.1265 -0.3674 -0.2739
  620MOL0     C83586   6.577  10.442   8.863 -0.8473  1.1076 -0.3691
  620MOL0     C83587   6.705  10.519   8.794  0.3636  1.7834 -0.2277
  620MOL0     C83588   6.796  10.422   8.707  0.1493  0.2852 -0.6517
  620MOL0     O83589   6.721  10.395   8.590  0.2144 -0.1038  0.0136
  620MOL0     C83590   6.739  10.472   8.472  0.4360  0.4723 -0.6717
  620MOL0     C83591   6.630  10.470   8.387  1.2728 -0.3862 -0.1149
  620MOL0     C83592   6.618  10.537   8.262 -0.1032 -0.7845 -1.0532
  620MOL0     C83593   6.498  10.523   8.176  1.2613 -0.0117  0.1612
  620MOL0     C83594   6.731  10.606   8.234 -0.3013  0.3160 -0.0404
  620MOL0     C83595   6.742  10.702   8.107  0.1232 -0.5242 -0.3178
  620MOL0     O83596   6.674  10.667   7.994 -0.5725  0.0336 -0.2333
  620MOL0     C83597   6.699  10.721   7.876  0.2785 -0.7004  0.8417
  620MOL0     C83598   6.675  10.648   7.757 -0.5809  0.9303  0.3407
  620MOL0     C83599   6.706  10.695   7.632  0.4039 -0.4306 -0.4901
  620MOL0     C83600   6.758  10.824   7.612  0.4314  0.5616 -0.2852
  620MOL0     O83601   6.776  10.869   7.484  0.3825 -0.2274 -0.0609
  620MOL0     C83602   6.860  10.983   7.455 -0.3601 -0.5756  0.4745
  620MOL0     C83603   7.006  10.931   7.450  1.2221 -0.6413 -0.0065
  620MOL0     C83604   7.089  11.031   7.365 -0.9874  0.1326  0.7444
  620MOL0     C83605   7.215  10.964   7.325  0.1262 -0.5130 -0.3080
  620MOL0     C83606   7.308  11.068   7.275  0.7851 -0.7093 -1.0131
  620MOL0     C83607   7.441  10.994   7.229 -0.1211  0.5547 -0.8319
  620MOL0     C83608   7.563  11.086   7.180  0.3831  0.6893 -1.4042
  620MOL0     C83609   7.527  11.174   7.060  0.3858  0.0861 -0.4276
  620MOL0    Cl83610   7.650  11.302   7.034  0.0435 -0.0783  0.2152
  620MOL0     C83611   6.765  10.904   7.727 -0.0232  0.0654 -0.4690
  620MOL0     C83612   6.741  10.854   7.856 -0.0252 -0.2142  0.3632
  620MOL0     O83613   6.835  10.777   8.121 -0.0939  0.4496  0.3113
  620MOL0     C83614   6.845  10.604   8.317 -0.6847  0.4829 -0.5026
  620MOL0     C83615   6.855  10.540   8.435 -0.2059 -0.0789 -0.3635
  620MOL0     N83616   6.390  10.244   9.010 -0.4916  1.0629 -0.3690
  620MOL0     N83617   6.332  10.206   9.127  0.0537  0.6888  0.6144
  620MOL0     C83618   5.976   9.647  10.034  0.6922  0.0892  0.6165
  620MOL0     C83619   5.868   9.555  10.071  0.0179 -0.0944  0.6275
  620MOL0     C83620   5.544   9.344  10.106  0.3548 -0.0644  0.4814
  620MOL0     C83621   5.543   9.299  10.233  0.1950 -0.6974  0.8362
  620MOL0     C83622   5.425   9.297  10.308 -0.2334 -0.2357  0.1226
  620MOL0     C83623   5.305   9.345  10.251  0.2069 -0.8623  0.2981
  620MOL0     O83624   5.182   9.353  10.313  0.5730 -0.3814 -0.2537
  620MOL0     C83625   5.171   9.286  10.433  0.0362  0.5851  0.0081
  620MOL0     C83626   5.173   9.385  10.546 -0.3278  0.0525 -1.0544
  620MOL0     C83627   5.141   9.319  10.681  0.4779 -0.5345  1.1471
  620MOL0     C83628   5.121   9.414  10.800 -1.1419  0.3954 -0.3520
  620MOL0     C83629   5.247   9.490  10.841  0.3710  0.2772 -0.3881
  620MOL0     C83630   5.336   9.560  10.879  0.3688 -0.7618 -0.3450
  620MOL0     C83631   5.311   9.402  10.125 -0.2891 -0.1984 -0.9512
  620MOL0     C83632   5.423   9.395  10.051 -0.4551 -0.1867 -0.1295
  620MOL0     H83633   6.013   9.262   9.991 -4.0259 -1.2209  3.7172
  620MOL0     H83634   6.201   9.413   9.938 -0.3168  0.3003 -0.1447
  620MOL0     H83635   6.248   9.674   9.740 -2.1367 -3.0831 -0.3749
  620MOL0     H83636   6.081   9.690   9.751  0.9383  0.0873 -2.8287
  620MOL0     H83637   6.144   9.911   9.698 -0.6644 -0.2188 -0.1605
  620MOL0     H83638   6.087   9.924   9.856 -0.0495  2.2148  0.6858
  620MOL0     H83639   6.287  10.051   9.835  1.1341 -0.1738  0.7622
  620MOL0     H83640   6.331   9.925   9.940  1.9888  0.6479 -0.1426
  620MOL0     H83641   6.512   9.961   9.793 -1.7845  2.1265 -0.1234
  620MOL0     H83642   6.445   9.803   9.744 -1.3459  1.0239  0.8108
  620MOL0     H83643   6.339   9.908   9.550  2.1313 -0.6657 -2.3155
  620MOL0     H83644   6.375  10.076   9.621  2.1823  0.6327 -1.0934
  620MOL0     H83645   6.605  10.053   9.563 -2.7111  2.4383  0.9988
  620MOL0     H83646   6.573   9.880   9.521 -2.9135 -0.2587  1.1011
  620MOL0     H83647   6.598  10.033   9.324 -1.0393 -3.8317 -2.6113
  620MOL0     H83648   6.451   9.937   9.325  2.3687 -1.4560 -0.0043
  620MOL0     H83649   6.438  10.224   9.438  0.8114 -2.1010  1.2800
  620MOL0     H83650   6.309  10.127   9.367 -0.1994  0.4478 -2.1844
  620MOL0     H83651   6.650  10.214   9.209  0.4023 -0.6313 -0.6519
  620MOL0     H83652   6.709  10.324   8.994  0.2779 -5.1111  2.5714
  620MOL0     H83653   6.629  10.226   8.865 -1.2491 -0.1757 -0.9410
  620MOL0     H83654   6.540  10.501   8.948 -0.5288  0.2625  0.3752
  620MOL0     H83655   6.495  10.418   8.795 -2.8192  2.0805  1.5240
  620MOL0     H83656   6.766  10.553   8.877 -0.0836  0.8175  0.5249
  620MOL0     H83657   6.676  10.614   8.749 -2.0693  1.6358  0.8969
  620MOL0     H83658   6.820  10.327   8.755 -0.4352  0.2391 -0.4367
  620MOL0     H83659   6.894  10.468   8.691  1.1280 -0.3433  2.7360
  620MOL0     H83660   6.554  10.401   8.423 -0.1902  2.3970  2.6514
  620MOL0     H83661   6.511  10.470   8.082 -1.2985  0.1401 -0.3382
  620MOL0     H83662   6.424  10.486   8.248  0.0302  0.2280 -0.9459
  620MOL0     H83663   6.460  10.620   8.141  3.9110  0.9152 -0.4482
  620MOL0     H83664   6.638  10.546   7.755 -0.0304  0.7382 -0.1181
  620MOL0     H83665   6.684  10.642   7.540 -0.3898 -0.1924 -0.4419
  620MOL0     H83666   6.830  11.026   7.359  3.3074  2.7201  0.5552
  620MOL0     H83667   6.848  11.065   7.527 -2.3635  0.1755 -0.6412
  620MOL0     H83668   7.038  10.921   7.554  1.1795  1.5038  0.2537
  620MOL0     H83669   7.006  10.839   7.391  1.5237  0.3888 -1.6682
  620MOL0     H83670   7.119  11.107   7.437  0.4467 -0.5498  0.8883
  620MOL0     H83671   7.036  11.063   7.274  1.1638 -0.2923 -0.7423
  620MOL0     H83672   7.273  10.934   7.413  2.3620  2.2805 -0.6996
  620MOL0     H83673   7.194  10.880   7.259 -3.3403 -0.1813  0.1480
  620MOL0     H83674   7.324  11.149   7.348  1.7821 -2.0363  0.3001
  620MOL0     H83675   7.266  11.116   7.186  2.1387  1.0640 -0.7665
  620MOL0     H83676   7.470  10.941   7.321 -3.5250  1.8513  1.1415
  620MOL0     H83677   7.418  10.917   7.155 -0.5534  0.6592 -0.8092
  620MOL0     H83678   7.647  11.023   7.149  1.4619  0.5292  1.5130
  620MOL0     H83679   7.596  11.145   7.266 -0.4979 -0.7593 -0.0184
  620MOL0     H83680   7.428  11.216   7.084 -1.2074 -2.8152 -1.3716
  620MOL0     H83681   7.520  11.100   6.980  2.3231 -2.0041  1.2191
  620MOL0     H83682   6.801  11.005   7.717  0.5266 -0.0969 -0.1766
  620MOL0     H83683   6.749  10.923   7.940 -3.3952  1.7689 -0.7137
  620MOL0     H83684   6.938  10.648   8.282  0.8322  0.9427  3.6149
  620MOL0     H83685   6.948  10.551   8.489  1.1098  0.0765 -2.5610
  620MOL0     H83686   5.955   9.750  10.064  1.8609 -0.1798  2.4748
  620MOL0     H83687   5.769   9.586  10.103 -1.3294 -0.7629 -2.4647
  620MOL0     H83688   5.637   9.273  10.280 -0.5228 -2.1002  1.5265
  620MOL0     H83689   5.449   9.256  10.406  0.9188  1.9584  0.8337
  620MOL0     H83690   5.069   9.247  10.444 -0.3610  1.2350 -1.2157
  620MOL0     H83691   5.249   9.213  10.458  0.7185  2.0119  2.3616
  620MOL0     H83692   5.104   9.466  10.520  1.2113  2.8868  2.7491
  620MOL0     H83693   5.273   9.430  10.553  0.3183 -1.5977  2.2631
  620MOL0     H83694   5.226   9.253  10.703  2.2218 -0.1073 -3.1688
  620MOL0     H83695   5.050   9.262  10.665 -1.0585  2.0799 -0.1169
  620MOL0     H83696   5.105   9.356  10.892 -1.9647  2.1822  0.6891
  620MOL0     H83697   5.028   9.471  10.788 -1.3011  0.1790 -0.1565
  620MOL0     H83698   5.413   9.625  10.916 -1.4540  0.5812  1.3121
  620MOL0     H83699   5.220   9.446  10.087 -1.5437 -1.1607  0.8019
  620MOL0     H83700   5.415   9.436   9.951 -1.9666 -0.4590 -0.1541
  621MOL0     O83701   8.426   8.582   6.240 -0.1787 -0.2012 -0.2303
  621MOL0     C83702   8.368   8.505   6.317  0.4120  0.2243  0.4366
  621MOL0     O83703   8.432   8.445   6.423 -0.0797 -0.0710 -0.0875
  621MOL0     C83704   8.558   8.490   6.457  0.6628 -0.0917 -0.1872
  621MOL0     C83705   8.666   8.519   6.373  0.3261  0.2717 -0.1951
  621MOL0     C83706   8.789   8.567   6.426  1.0341 -0.4880 -0.4806
  621MOL0     C83707   8.802   8.578   6.563 -0.6254  0.8738 -0.3134
  621MOL0     O83708   8.917   8.617   6.611 -1.5859  0.9432  0.2633
  621MOL0     C83709   9.005   8.506   6.633 -0.0152 -0.3557 -0.4768
  621MOL0     C83710   9.115   8.539   6.738  0.8840  0.5942 -0.4318
  621MOL0     C83711   9.087   8.649   6.828  0.1992 -0.5293 -0.3144
  621MOL0     C83712   8.980   8.616   6.936  0.5457  0.2399  0.3595
  621MOL0     C83713   9.032   8.511   7.034 -0.0768  0.0761  0.0914
  621MOL0     C83714   8.926   8.469   7.138 -0.4230  0.6031 -0.2652
  621MOL0     C83715   8.997   8.417   7.260  0.5925 -1.0769 -0.8929
  621MOL0     C83716   8.898   8.411   7.377  0.2656 -0.7208  0.8326
  621MOL0     N83717   8.939   8.341   7.503 -0.4537 -0.8238 -0.3754
  621MOL0     C83718   8.909   8.210   7.540 -0.4871  0.3547  0.5850
  621MOL0     C83719   8.969   8.196   7.659  0.6509 -0.0980  0.2847
  621MOL0     C83720   8.953   8.069   7.735 -0.1582 -0.3018 -0.4596
  621MOL0     C83721   8.851   8.073   7.851  0.2357 -0.3050 -1.1682
  621MOL0     C83722   8.844   8.199   7.945 -0.5123  0.6835  0.2440
  621MOL0     C83723   8.795   8.174   8.090  0.0325  0.5740  0.8465
  621MOL0     O83724   8.897   8.091   8.154 -0.2643  0.5150 -0.2067
  621MOL0     C83725   8.857   8.061   8.277  0.5138 -0.3225  0.1438
  621MOL0     C83726   8.942   7.991   8.345 -0.7403  0.2851  0.1785
  621MOL0     C83727   8.913   7.937   8.466  0.9803  0.0385  0.0587
  621MOL0     C83728   9.006   7.833   8.521  0.0923 -0.5396  0.2372
  621MOL0     C83729   8.786   7.958   8.525  0.2065 -0.0193 -0.2593
  621MOL0     C83730   8.734   7.882   8.646 -0.6020 -0.5082  1.3701
  621MOL0     O83731   8.803   7.778   8.693 -0.4816  0.2167  1.4022
  621MOL0     C83732   8.748   7.673   8.754  1.0743  0.3020 -0.9354
  621MOL0     C83733   8.842   7.606   8.841 -0.7650  0.2707  0.0555
  621MOL0     C83734   8.794   7.494   8.920  0.6460  0.3244  0.2715
  621MOL0     C83735   8.661   7.452   8.912  0.0133 -0.0831 -0.3375
  621MOL0     O83736   8.613   7.338   8.979 -0.0954  0.2055 -0.1950
  621MOL0     C83737   8.600   7.224   8.888 -0.1947 -0.3902  0.3314
  621MOL0     C83738   8.600   7.090   8.968  0.3354  0.6085 -0.2179
  621MOL0     C83739   8.459   7.063   9.018  0.0649 -0.2039  0.0683
  621MOL0     C83740   8.464   6.933   9.107  0.6523 -0.4066 -0.1561
  621MOL0     C83741   8.330   6.876   9.168 -0.3215 -0.1150 -0.2054
  621MOL0     C83742   8.341   6.776   9.296 -0.2429 -0.2324  0.2129
  621MOL0     C83743   8.201   6.756   9.366 -0.2526  0.0434 -0.1169
  621MOL0     C83744   8.095   6.711   9.267 -0.2725 -0.1523 -0.3292
  621MOL0    Cl83745   8.134   6.559   9.186 -0.1193 -0.2721 -0.2783
  621MOL0     C83746   8.578   7.522   8.831 -0.0462 -0.7533  0.0356
  621MOL0     C83747   8.617   7.617   8.741 -0.6462  0.5422  0.0423
  621MOL0     O83748   8.646   7.942   8.705  0.1475 -0.3075  0.0294
  621MOL0     C83749   8.706   8.058   8.465 -0.3341 -0.8009 -0.9251
  621MOL0     C83750   8.740   8.112   8.345  0.4528  0.1897 -0.0220
  621MOL0     N83751   9.032   8.310   7.691 -0.3758 -0.2514 -0.9225
  621MOL0     N83752   9.031   8.395   7.596  0.7491 -1.3433 -0.1910
  621MOL0     C83753   8.693   8.561   6.642 -0.3589  0.0516 -0.8622
  621MOL0     C83754   8.578   8.517   6.589  1.3490 -0.1937  0.3362
  621MOL0     C83755   8.229   8.482   6.276 -0.1796  0.2141  0.3419
  621MOL0     C83756   8.180   8.536   6.155  0.0577  0.2215  0.4105
  621MOL0     C83757   8.042   8.526   6.122 -1.0023  1.2682  0.2592
  621MOL0     C83758   7.956   8.475   6.222  0.4184  0.7935  1.3514
  621MOL0     O83759   7.820   8.491   6.221 -0.6559  0.0399  0.4265
  621MOL0     C83760   7.755   8.529   6.099 -0.2360  0.1225 -0.9207
  621MOL0     C83761   7.761   8.420   5.988 -0.1635 -0.0734  0.1397
  621MOL0     C83762   7.654   8.320   6.016  0.1507 -0.5472  0.9844
  621MOL0     C83763   7.646   8.183   5.950  0.2052 -0.1361  0.0993
  621MOL0     C83764   7.627   8.205   5.805  0.3556 -0.9051  0.6951
  621MOL0     C83765   7.631   8.236   5.687 -0.5933  0.2746  0.0245
  621MOL0     C83766   8.011   8.409   6.332  0.2484 -0.3610 -0.5344
  621MOL0     C83767   8.151   8.410   6.354  0.6920 -0.4145  0.6509
  621MOL0     H83768   8.655   8.505   6.266  1.9475  1.4612 -0.5661
  621MOL0     H83769   8.874   8.606   6.370  1.7793 -0.7652  0.4336
  621MOL0     H83770   8.953   8.417   6.670  2.0293 -1.9978 -1.2744
  621MOL0     H83771   9.064   8.488   6.542  0.6452 -3.3915  0.4152
  621MOL0     H83772   9.148   8.452   6.795 -0.3731 -0.1340 -0.7888
  621MOL0     H83773   9.193   8.570   6.667  1.2349 -0.4596 -0.5245
  621MOL0     H83774   9.186   8.667   6.869  0.8699  2.3721 -2.8375
  621MOL0     H83775   9.064   8.736   6.766 -1.7900 -1.0090 -0.3194
  621MOL0     H83776   8.952   8.710   6.985 -0.0631  0.7634 -0.9605
  621MOL0     H83777   8.897   8.566   6.885  1.4888  1.6786 -2.7967
  621MOL0     H83778   9.056   8.422   6.975 -1.9863  0.1102 -0.7847
  621MOL0     H83779   9.134   8.537   7.063  0.4094  2.4065 -3.1586
  621MOL0     H83780   8.860   8.551   7.168 -2.8055 -0.8747 -1.1194
  621MOL0     H83781   8.861   8.400   7.083 -1.0416  2.7554 -2.4066
  621MOL0     H83782   9.026   8.315   7.235 -1.4969 -2.1119  0.6474
  621MOL0     H83783   9.091   8.472   7.276 -0.1774  0.8853 -2.6769
  621MOL0     H83784   8.817   8.356   7.327  1.9731  1.3336 -4.9125
  621MOL0     H83785   8.861   8.512   7.397 -2.2514 -1.5532  0.7608
  621MOL0     H83786   8.863   8.131   7.482  0.1333 -0.5819  1.3469
  621MOL0     H83787   8.927   7.992   7.661  0.6229  1.7341 -3.0007
  621MOL0     H83788   9.050   8.043   7.779  0.3346  2.6916  0.4846
  621MOL0     H83789   8.869   7.984   7.912  0.1511 -1.7183 -3.1178
  621MOL0     H83790   8.745   8.074   7.825  0.5300  0.1790 -2.4336
  621MOL0     H83791   8.787   8.281   7.902  0.5345 -0.3537 -3.4701
  621MOL0     H83792   8.943   8.243   7.953 -1.2260  2.2521  0.8283
  621MOL0     H83793   8.701   8.118   8.085  0.4682 -0.0973 -0.3575
  621MOL0     H83794   8.773   8.266   8.144 -1.8377  2.0940 -2.2499
  621MOL0     H83795   9.037   7.968   8.298 -2.1919 -0.5531 -2.5853
  621MOL0     H83796   9.093   7.853   8.457  1.1597  4.0533  2.6675
  621MOL0     H83797   9.045   7.854   8.621 -0.2281  1.2994  0.0140
  621MOL0     H83798   8.967   7.732   8.513 -0.5606 -0.3364  0.7954
  621MOL0     H83799   8.946   7.638   8.842 -0.5918 -0.2721  0.8609
  621MOL0     H83800   8.862   7.436   8.980 -1.7118 -1.7879  1.0372
  621MOL0     H83801   8.509   7.225   8.827 -0.4504  0.3498  0.7156
  621MOL0     H83802   8.689   7.221   8.824  1.9063 -0.8661  3.1023
  621MOL0     H83803   8.630   7.006   8.904 -0.0174  0.5783 -0.3468
  621MOL0     H83804   8.662   7.085   9.057 -0.4086  0.7326  0.3166
  621MOL0     H83805   8.388   7.037   8.938  0.7147 -0.7828 -0.3350
  621MOL0     H83806   8.412   7.147   9.070 -0.8330 -0.8613  0.3343
  621MOL0     H83807   8.502   6.871   9.025 -3.5854  0.1549 -2.8471
  621MOL0     H83808   8.539   6.938   9.186 -0.0773 -1.3448  0.6254
  621MOL0     H83809   8.269   6.833   9.087 -1.2602  1.4248 -0.3492
  621MOL0     H83810   8.286   6.966   9.212  2.8282  1.1778  0.5573
  621MOL0     H83811   8.375   6.679   9.258 -0.4074 -0.0603 -0.3775
  621MOL0     H83812   8.419   6.808   9.367  0.1188  3.8324 -1.7304
  621MOL0     H83813   8.164   6.846   9.415 -3.0134  0.2717 -2.3981
  621MOL0     H83814   8.214   6.674   9.439 -1.0738  0.8087  0.9196
  621MOL0     H83815   8.088   6.791   9.193  2.6461  1.6424  1.1211
  621MOL0     H83816   7.996   6.695   9.310 -1.3124  3.6709 -0.9567
  621MOL0     H83817   8.476   7.483   8.837  0.3660 -1.6769  3.0991
  621MOL0     H83818   8.544   7.653   8.670 -0.0781  1.8700  0.1057
  621MOL0     H83819   8.617   8.090   8.519  1.4402 -0.4752  2.0501
  621MOL0     H83820   8.666   8.185   8.314 -1.3540 -0.5189  2.2984
  621MOL0     H83821   8.693   8.569   6.750 -0.2027 -0.3497 -0.8333
  621MOL0     H83822   8.496   8.498   6.658  2.2936  3.0716  2.6264
  621MOL0     H83823   8.247   8.583   6.084  0.0596 -0.7009 -0.2149
  621MOL0     H83824   8.003   8.568   6.030  1.2333 -0.4173 -1.5709
  621MOL0     H83825   7.649   8.549   6.121  0.1702  2.6164 -0.8500
  621MOL0     H83826   7.795   8.626   6.068 -0.0203  0.1314 -0.6272
  621MOL0     H83827   7.857   8.368   5.984  0.3108  0.8219 -1.9587
  621MOL0     H83828   7.746   8.460   5.887 -2.3619 -0.6162  0.2165
  621MOL0     H83829   7.550   8.352   6.028 -1.0595 -3.9505  0.6444
  621MOL0     H83830   7.675   8.296   6.121  3.3529  2.0802  1.1024
  621MOL0     H83831   7.559   8.127   5.985 -1.0516  2.5831  1.5870
  621MOL0     H83832   7.737   8.125   5.969  0.5353  0.8516  1.7200
  621MOL0     H83833   7.634   8.248   5.581  0.0468 -3.7149 -0.5970
  621MOL0     H83834   7.939   8.351   6.388 -0.1989  0.6519 -0.0523
  621MOL0     H83835   8.184   8.369   6.449  0.7699  0.3188  0.9417
  622MOL0     O83836  10.356   0.396   7.497 -0.3212 -0.4642  0.4581
  622MOL0     C83837  10.310   0.410   7.379 -0.2135  0.0355 -0.1585
  622MOL0     O83838  10.318   0.320   7.278  0.3905  0.2653 -0.4349
  622MOL0     C83839  10.405   0.206   7.294  0.3260 -0.6148  0.0279
  622MOL0     C83840  10.504   0.171   7.200  0.1196 -0.3191  0.3725
  622MOL0     C83841  10.582   0.065   7.220  0.1772 -0.0770 -0.6303
  622MOL0     C83842  10.584  -0.006   7.342 -0.0431 -0.5757  0.6741
  622MOL0     O83843  10.691  -0.097   7.367 -0.3005  0.0896  0.3489
  622MOL0     C83844  10.694  -0.191   7.476  0.4161 -0.8858 -0.8587
  622MOL0     C83845  10.831  -0.269   7.455  0.3213 -0.2415  0.6938
  622MOL0     C83846  10.948  -0.176   7.470 -0.2645  0.9310 -0.5397
  622MOL0     C83847  11.079  -0.258   7.461  0.6183  0.0312 -0.8347
  622MOL0     C83848  11.214  -0.181   7.449  0.9781 -0.9861 -0.4002
  622MOL0     C83849  11.323  -0.276   7.399 -0.3800  0.1720  0.1470
  622MOL0     C83850  11.281  -0.350   7.273  0.4223  0.2421  0.4072
  622MOL0     C83851  11.408  -0.398   7.188  0.2397  0.1684  0.7934
  622MOL0     N83852  11.479  -0.499   7.264  0.6616 -0.6520 -0.1014
  622MOL0     C83853  11.575  -0.472   7.353 -0.4924 -0.8563  0.0173
  622MOL0     C83854  11.562  -0.561   7.445  0.7795  1.9106 -0.3931
  622MOL0     C83855  11.634  -0.568   7.576  0.7850  0.8971 -0.0099
  622MOL0     C83856  11.777  -0.618   7.555  0.6289 -0.2281 -0.5804
  622MOL0     C83857  11.769  -0.757   7.488 -0.4658  0.6394  0.1303
  622MOL0     C83858  11.704  -0.872   7.564  0.5650 -0.9877 -0.0797
  622MOL0     O83859  11.769  -0.886   7.691 -0.3766  0.5028 -0.6757
  622MOL0     C83860  11.812  -1.011   7.741  0.3272  0.3353  0.6205
  622MOL0     C83861  11.711  -1.115   7.741 -1.6170 -1.2663 -0.5698
  622MOL0     C83862  11.737  -1.242   7.799 -0.8254  0.0419  0.6347
  622MOL0     C83863  11.628  -1.342   7.793  0.4438  0.0264  0.3219
  622MOL0     C83864  11.859  -1.256   7.869  0.0176  0.4238  1.0147
  622MOL0     C83865  11.884  -1.370   7.956 -0.1527  0.2842  0.0675
  622MOL0     O83866  12.012  -1.400   7.962 -0.2615  0.1770 -0.0573
  622MOL0     C83867  12.056  -1.473   8.067  0.5107 -0.7034  0.5509
  622MOL0     C83868  12.093  -1.403   8.177 -0.7377  0.2819  0.6184
  622MOL0     C83869  12.169  -1.464   8.279 -0.5144  0.1895 -0.4161
  622MOL0     C83870  12.209  -1.590   8.267  0.5746 -0.6914  0.6311
  622MOL0     O83871  12.287  -1.642   8.371  0.0246 -0.0751  0.3854
  622MOL0     C83872  12.211  -1.749   8.434 -0.1494 -0.5192  0.3849
  622MOL0     C83873  12.300  -1.812   8.537  0.0053  0.0271 -0.2074
  622MOL0     C83874  12.249  -1.943   8.605 -0.7984 -0.4675  0.4261
  622MOL0     C83875  12.366  -2.005   8.684  0.3566 -0.7308  0.2350
  622MOL0     C83876  12.316  -2.134   8.728 -0.5831 -0.0426  0.6749
  622MOL0     C83877  12.405  -2.203   8.837  0.0042  0.8879 -0.0885
  622MOL0     C83878  12.541  -2.246   8.791 -0.2659 -0.2098 -0.1683
  622MOL0     C83879  12.591  -2.349   8.895  0.4089  0.1533 -0.2530
  622MOL0    Cl83880  12.734  -2.417   8.817  0.1621  0.2498  0.6552
  622MOL0     C83881  12.169  -1.668   8.160 -0.3269  0.2963 -0.6007
  622MOL0     C83882  12.092  -1.609   8.054 -0.4601  0.8719 -0.5599
  622MOL0     O83883  11.795  -1.409   8.031 -0.7978 -0.6481 -0.0943
  622MOL0     C83884  11.949  -1.150   7.894  0.1121 -0.7774  0.4614
  622MOL0     C83885  11.927  -1.037   7.818  0.5562 -0.7718 -0.3166
  622MOL0     N83886  11.456  -0.653   7.413  0.5060  0.0031 -0.3404
  622MOL0     N83887  11.417  -0.611   7.301 -0.2284 -1.1432  0.8647
  622MOL0     C83888  10.483   0.026   7.433  0.6438  0.3687  0.1239
  622MOL0     C83889  10.404   0.131   7.406  0.3355 -0.1814  0.7205
  622MOL0     C83890  10.238   0.525   7.327 -0.3136 -0.6457 -0.1510
  622MOL0     C83891  10.220   0.636   7.416 -0.0618  0.1037 -0.7188
  622MOL0     C83892  10.172   0.755   7.364 -0.4605 -0.2246  0.2356
  622MOL0     C83893  10.129   0.773   7.233  0.3804  0.2857  0.1955
  622MOL0     O83894  10.069   0.888   7.194  0.3748 -0.0876 -0.0495
  622MOL0     C83895  10.035   0.928   7.056 -0.2686  0.5091  1.1940
  622MOL0     C83896  10.084   1.066   7.048  0.4992  0.3483  0.7498
  622MOL0     C83897  10.236   1.090   7.059 -0.8777 -0.5865  0.3331
  622MOL0     C83898  10.269   1.231   7.000  0.6274  0.6719  1.2697
  622MOL0     C83899  10.267   1.349   7.091 -0.5149  1.1840  0.2139
  622MOL0     C83900  10.257   1.432   7.179 -0.9086 -0.9629  0.6925
  622MOL0     C83901  10.146   0.662   7.150 -0.5633 -0.2294 -0.2317
  622MOL0     C83902  10.202   0.540   7.191 -0.0070  0.3772  0.2667
  622MOL0     H83903  10.514   0.247   7.123  4.0983 -0.5957  0.3892
  622MOL0     H83904  10.654   0.050   7.140  0.4560 -3.2212  0.1087
  622MOL0     H83905  10.702  -0.145   7.575  0.5968 -1.3157 -0.6698
  622MOL0     H83906  10.603  -0.251   7.480 -0.4943  0.5096  0.5515
  622MOL0     H83907  10.834  -0.354   7.524 -3.1695  2.1969  4.3191
  622MOL0     H83908  10.838  -0.321   7.359  2.5797 -4.4543  2.8614
  622MOL0     H83909  10.958  -0.097   7.395  3.7586  0.7816 -0.3844
  622MOL0     H83910  10.927  -0.125   7.564  0.3110 -1.2303  0.8284
  622MOL0     H83911  11.087  -0.325   7.547 -0.7394  1.3052  0.3489
  622MOL0     H83912  11.058  -0.322   7.375 -0.7628 -0.6618 -0.0132
  622MOL0     H83913  11.207  -0.101   7.374  3.0431  0.6639  1.0380
  622MOL0     H83914  11.244  -0.137   7.545 -2.5921  0.8932  0.0190
  622MOL0     H83915  11.407  -0.207   7.384  1.6687 -1.1476  4.0522
  622MOL0     H83916  11.356  -0.349   7.473 -2.2208 -1.2081 -0.3198
  622MOL0     H83917  11.220  -0.436   7.299 -3.3200  1.6614 -2.6789
  622MOL0     H83918  11.215  -0.286   7.214  0.1928 -0.2498  0.1251
  622MOL0     H83919  11.471  -0.313   7.160 -1.0230  2.3544  4.0883
  622MOL0     H83920  11.364  -0.441   7.097  1.8692 -1.3028  0.6344
  622MOL0     H83921  11.637  -0.383   7.368  1.4768 -2.2780  0.7815
  622MOL0     H83922  11.622  -0.470   7.625 -3.3487 -0.0909  1.3194
  622MOL0     H83923  11.572  -0.631   7.641  1.3300  1.1038  0.7212
  622MOL0     H83924  11.829  -0.629   7.650  2.7477  2.3068 -1.3308
  622MOL0     H83925  11.834  -0.543   7.499  1.2300 -0.4065 -0.2186
  622MOL0     H83926  11.872  -0.792   7.474  0.5764  2.4832  2.3643
  622MOL0     H83927  11.724  -0.748   7.389 -3.2238  0.0028  1.2427
  622MOL0     H83928  11.689  -0.963   7.506 -1.7086 -2.1272  2.0977
  622MOL0     H83929  11.602  -0.847   7.595  0.6440 -0.4061 -0.2708
  622MOL0     H83930  11.609  -1.089   7.713 -1.0212  0.7776 -1.0534
  622MOL0     H83931  11.657  -1.446   7.811  1.0685  0.3779  1.3778
  622MOL0     H83932  11.548  -1.312   7.862 -0.1501 -3.0741  1.1344
  622MOL0     H83933  11.589  -1.343   7.690  1.9106  0.7923 -0.2626
  622MOL0     H83934  12.070  -1.297   8.171 -3.9676 -0.2644  1.4430
  622MOL0     H83935  12.206  -1.415   8.369  2.4398  0.9359 -1.9185
  622MOL0     H83936  12.120  -1.711   8.482  0.4783 -0.1013  1.2702
  622MOL0     H83937  12.173  -1.820   8.360 -1.4093 -0.0964  0.5950
  622MOL0     H83938  12.383  -1.852   8.478 -0.4201 -0.4775 -0.4589
  622MOL0     H83939  12.333  -1.741   8.614 -1.5501 -0.7422  1.2238
  622MOL0     H83940  12.210  -2.009   8.528 -0.1915  0.5642 -0.7945
  622MOL0     H83941  12.164  -1.935   8.674 -2.0271 -0.6378 -1.0036
  622MOL0     H83942  12.461  -2.004   8.631 -0.3240  0.4609 -1.0390
  622MOL0     H83943  12.371  -1.942   8.774 -1.0837  2.6523 -1.8728
  622MOL0     H83944  12.303  -2.194   8.638  0.2375 -1.1429  1.2668
  622MOL0     H83945  12.216  -2.108   8.765 -0.3315  3.3175 -0.6052
  622MOL0     H83946  12.411  -2.125   8.913 -0.2562  1.5169 -0.7047
  622MOL0     H83947  12.352  -2.286   8.885  3.1617 -0.1263  1.9927
  622MOL0     H83948  12.609  -2.160   8.792 -0.2928 -0.1844 -0.6001
  622MOL0     H83949  12.536  -2.292   8.692 -0.9086 -0.3840 -0.0564
  622MOL0     H83950  12.525  -2.429   8.931  1.1293  0.5238  2.0892
  622MOL0     H83951  12.621  -2.289   8.982 -1.1148  1.7266 -0.7467
  622MOL0     H83952  12.205  -1.770   8.150 -2.0016 -0.4036  0.2037
  622MOL0     H83953  12.058  -1.657   7.963  0.7481  1.6448 -1.4479
  622MOL0     H83954  12.035  -1.146   7.961 -0.3807 -1.6588  1.1524
  622MOL0     H83955  11.988  -0.947   7.815  1.9527 -1.6087  1.0610
  622MOL0     H83956  10.462  -0.020   7.530 -1.8171  2.7772  0.8617
  622MOL0     H83957  10.321   0.144   7.474  0.5067  0.2391  0.8539
  622MOL0     H83958  10.254   0.631   7.519  2.0381  0.6294 -1.3262
  622MOL0     H83959  10.154   0.838   7.431  4.6587 -1.5344  3.8807
  622MOL0     H83960  10.083   0.867   6.979  1.0171  1.8761  0.8601
  622MOL0     H83961   9.926   0.917   7.048  0.0197 -1.4659 -0.9726
  622MOL0     H83962  10.034   1.131   7.121  0.5233 -0.2062  1.2670
  622MOL0     H83963  10.064   1.104   6.948  2.4009  1.2248  0.6428
  622MOL0     H83964  10.299   1.021   7.002  0.0117 -0.2368  0.8782
  622MOL0     H83965  10.271   1.077   7.161  1.8149  2.6326 -0.0098
  622MOL0     H83966  10.201   1.249   6.916  3.2208 -1.6139 -1.6118
  622MOL0     H83967  10.370   1.222   6.957  1.1128 -0.6791  2.5801
  622MOL0     H83968  10.252   1.496   7.265 -1.4888 -1.9371  1.4140
  622MOL0     H83969  10.131   0.682   7.044 -0.4185  1.0486 -0.0248
  622MOL0     H83970  10.219   0.466   7.114 -0.8210 -0.5147  0.9360
  623MOL0     O83971   3.735   1.651   3.953 -0.7080 -0.6784  0.3799
  623MOL0     C83972   3.816   1.650   3.861  0.9810  0.1723 -0.7854
  623MOL0     O83973   3.820   1.545   3.773 -0.7242  0.5055 -0.9757
  623MOL0     C83974   3.730   1.437   3.777 -0.2659 -1.1798 -0.1811
  623MOL0     C83975   3.631   1.409   3.691  0.2629 -0.0053 -0.7609
  623MOL0     C83976   3.555   1.290   3.706  0.3144 -0.2655  0.2206
  623MOL0     C83977   3.606   1.192   3.800 -0.9724  0.7194  0.9993
  623MOL0     O83978   3.545   1.070   3.809  0.3850  0.5782  0.2704
  623MOL0     C83979   3.619   0.958   3.758  0.4927 -0.1688 -0.3181
  623MOL0     C83980   3.538   0.834   3.757 -0.6092  0.0905 -0.0219
  623MOL0     C83981   3.624   0.735   3.681 -0.4007  0.3331 -0.8313
  623MOL0     C83982   3.584   0.590   3.688  0.4325 -0.1567  0.6652
  623MOL0     C83983   3.669   0.499   3.593 -0.6896  0.5025 -0.2748
  623MOL0     C83984   3.620   0.358   3.575  0.1522 -0.2748  0.5763
  623MOL0     C83985   3.704   0.292   3.456  0.4338  0.5335  0.4728
  623MOL0     C83986   3.613   0.283   3.325 -0.3589 -0.4309  0.3732
  623MOL0     N83987   3.676   0.197   3.221  0.9742 -0.7724 -0.4014
  623MOL0     C83988   3.718   0.253   3.108 -0.7618  0.1844  0.2894
  623MOL0     C83989   3.774   0.153   3.038 -0.3830 -0.1015  0.2609
  623MOL0     C83990   3.812   0.159   2.890  0.2626  0.1504 -0.2992
  623MOL0     C83991   3.966   0.171   2.878  0.0341  0.1759  0.0852
  623MOL0     C83992   4.034   0.034   2.887 -0.0513 -0.8483 -0.1408
  623MOL0     C83993   4.041  -0.048   2.760  0.5182  0.3422 -0.1296
  623MOL0     O83994   3.927  -0.134   2.744  0.3676  0.0923  0.2363
  623MOL0     C83995   3.939  -0.264   2.726 -0.2758 -0.3010  0.5183
  623MOL0     C83996   3.976  -0.322   2.600 -0.1857 -0.5733  0.0755
  623MOL0     C83997   3.980  -0.460   2.580 -0.9243 -0.0565  0.4970
  623MOL0     C83998   4.036  -0.498   2.448  0.4753  0.1456 -0.4213
  623MOL0     C83999   3.955  -0.541   2.693  0.0767  1.2719  0.6854
  623MOL0     C84000   3.974  -0.686   2.694  0.1561  0.2894  0.6167
  623MOL0     O84001   3.981  -0.748   2.820 -0.8044  0.8773  0.0314
  623MOL0     C84002   3.947  -0.875   2.847  0.5315 -0.6117  0.9501
  623MOL0     C84003   3.956  -0.907   2.982  0.0693 -0.2960  0.4644
  623MOL0     C84004   3.951  -1.041   3.015  0.4594 -0.1103 -0.4072
  623MOL0     C84005   3.933  -1.144   2.920 -0.0504 -0.1070  0.8838
  623MOL0     O84006   3.927  -1.272   2.969 -0.1469 -0.2318  0.7397
  623MOL0     C84007   3.962  -1.376   2.870  0.1529  0.4396 -0.0189
  623MOL0     C84008   4.013  -1.487   2.968  0.6128 -0.6172 -0.5832
  623MOL0     C84009   4.055  -1.615   2.905 -0.2560 -0.1395 -1.0024
  623MOL0     C84010   4.198  -1.641   2.911 -0.4643  0.3612  0.2501
  623MOL0     C84011   4.237  -1.764   2.829 -0.6298  1.1255  0.4474
  623MOL0     C84012   4.394  -1.778   2.820 -0.0570 -0.5229  0.4378
  623MOL0     C84013   4.466  -1.650   2.749  0.5268  0.0361  0.2757
  623MOL0     C84014   4.611  -1.665   2.718 -0.8320  0.3814 -0.7606
  623MOL0    Cl84015   4.694  -1.502   2.686  0.1826 -0.0855 -0.0807
  623MOL0     C84016   3.907  -1.108   2.780  0.6285 -0.2177  0.1991
  623MOL0     C84017   3.910  -0.974   2.751 -1.4085  0.5578 -0.6806
  623MOL0     O84018   3.987  -0.741   2.582 -0.4031 -0.1095  0.0291
  623MOL0     C84019   3.925  -0.485   2.821  0.5838  0.3881 -0.7216
  623MOL0     C84020   3.916  -0.351   2.836 -0.3731 -0.3184  0.2146
  623MOL0     N84021   3.755   0.032   3.109  0.3459  0.4939  1.1276
  623MOL0     N84022   3.692   0.068   3.215  0.1857 -0.1399  1.1853
  623MOL0     C84023   3.713   1.213   3.877  0.1910 -1.1019 -0.4204
  623MOL0     C84024   3.777   1.346   3.870  1.1016  1.3183 -0.5834
  623MOL0     C84025   3.910   1.757   3.832  0.5075 -1.1521 -0.5914
  623MOL0     C84026   4.021   1.736   3.752 -0.0398 -0.5648  0.2604
  623MOL0     C84027   4.126   1.833   3.749  1.5181 -0.0638 -0.3825
  623MOL0     C84028   4.117   1.945   3.828 -0.7198 -0.5093 -0.3090
  623MOL0     O84029   4.227   2.034   3.806 -0.0253  0.4404  0.2030
  623MOL0     C84030   4.179   2.152   3.747  0.3109 -0.6380  0.8621
  623MOL0     C84031   4.122   2.136   3.606  1.3669 -0.8386  0.0070
  623MOL0     C84032   4.159   2.255   3.515  0.4324 -0.6918  0.0092
  623MOL0     C84033   4.306   2.301   3.499  0.5923  1.0832 -0.7579
  623MOL0     C84034   4.371   2.181   3.444 -0.6652  0.6260 -0.4134
  623MOL0     C84035   4.405   2.076   3.392 -0.0785 -1.1020 -0.4783
  623MOL0     C84036   4.006   1.969   3.905 -0.7002 -0.0452  0.8630
  623MOL0     C84037   3.903   1.880   3.909  1.0865  0.2362 -0.0710
  623MOL0     H84038   3.616   1.482   3.612  1.6670 -1.2903 -2.2946
  623MOL0     H84039   3.480   1.256   3.635  1.4209 -0.0279 -1.1093
  623MOL0     H84040   3.641   0.982   3.654  0.1803 -4.2383 -1.4781
  623MOL0     H84041   3.715   0.956   3.812 -0.4747  4.3613  2.0897
  623MOL0     H84042   3.525   0.809   3.863  1.9483 -1.8725 -0.0651
  623MOL0     H84043   3.446   0.851   3.700 -0.7539 -1.4693 -0.2988
  623MOL0     H84044   3.643   0.751   3.574  1.5234 -3.4848 -1.2499
  623MOL0     H84045   3.721   0.726   3.730  1.5133  1.1004 -4.1888
  623MOL0     H84046   3.560   0.550   3.787 -1.2271  0.2460  0.4566
  623MOL0     H84047   3.483   0.598   3.645  0.7073  0.8153  0.1730
  623MOL0     H84048   3.668   0.545   3.494 -4.8848  0.0843 -0.6080
  623MOL0     H84049   3.770   0.491   3.635  0.2144 -3.8483 -2.6662
  623MOL0     H84050   3.640   0.305   3.669  0.9073  1.9825  1.7700
  623MOL0     H84051   3.513   0.349   3.554  0.0540  0.7515  0.5978
  623MOL0     H84052   3.800   0.343   3.451  0.6622  0.1438  0.8138
  623MOL0     H84053   3.728   0.188   3.478  0.6803  0.4781 -0.0515
  623MOL0     H84054   3.594   0.390   3.313  2.2645  0.1706  0.8396
  623MOL0     H84055   3.518   0.235   3.349 -0.2546 -1.0976 -0.4764
  623MOL0     H84056   3.713   0.359   3.086 -3.5393  0.1250  0.3607
  623MOL0     H84057   3.774   0.080   2.825  3.0384  0.6606 -2.7631
  623MOL0     H84058   3.764   0.251   2.856 -2.0020  0.1732  2.5510
  623MOL0     H84059   3.990   0.227   2.969 -0.8536 -2.1665  1.8690
  623MOL0     H84060   3.994   0.219   2.784  0.2053 -0.4467 -0.1816
  623MOL0     H84061   3.978  -0.020   2.964 -0.8724  0.0598 -0.0826
  623MOL0     H84062   4.135   0.051   2.926 -0.5033 -1.3789  1.3327
  623MOL0     H84063   4.133  -0.108   2.763 -0.4535 -1.1485  2.5649
  623MOL0     H84064   4.038   0.017   2.671  1.1323 -0.0633 -0.4568
  623MOL0     H84065   3.999  -0.256   2.517 -4.2025  1.6758  0.4533
  623MOL0     H84066   3.965  -0.564   2.398 -0.2019 -0.5575  1.3842
  623MOL0     H84067   4.062  -0.411   2.387  0.9547  0.2811 -0.0366
  623MOL0     H84068   4.127  -0.558   2.455 -0.6560 -1.6090 -0.2600
  623MOL0     H84069   3.977  -0.829   3.055 -0.2591  0.3901 -0.1597
  623MOL0     H84070   3.946  -1.070   3.120  3.3635 -2.8157 -0.8672
  623MOL0     H84071   3.879  -1.418   2.812 -0.5243  1.0100  0.5055
  623MOL0     H84072   4.041  -1.340   2.804 -1.8732  3.2106 -1.1464
  623MOL0     H84073   4.086  -1.443   3.037  0.7256 -1.0853 -0.4000
  623MOL0     H84074   3.937  -1.516   3.042  2.4237 -0.7485  1.3255
  623MOL0     H84075   4.009  -1.630   2.807 -3.0258 -1.1982  0.3341
  623MOL0     H84076   4.008  -1.695   2.963  1.7820  0.0058  0.9875
  623MOL0     H84077   4.245  -1.556   2.861  3.0433  0.3767  3.1035
  623MOL0     H84078   4.234  -1.660   3.013  0.6426 -0.3479 -0.2399
  623MOL0     H84079   4.200  -1.751   2.727  0.7980  1.3226 -0.0623
  623MOL0     H84080   4.200  -1.863   2.857  1.2679 -0.9570 -3.5861
  623MOL0     H84081   4.447  -1.792   2.915 -1.7499  0.8484  1.6307
  623MOL0     H84082   4.414  -1.864   2.755  0.0178  0.2720 -0.6139
  623MOL0     H84083   4.442  -1.560   2.806 -0.4579  0.2988 -0.5325
  623MOL0     H84084   4.421  -1.620   2.654 -0.5657 -1.9129  0.1318
  623MOL0     H84085   4.620  -1.724   2.626 -0.7415 -1.4220  0.3569
  623MOL0     H84086   4.664  -1.714   2.799  1.5911  2.5894 -0.8909
  623MOL0     H84087   3.889  -1.182   2.702  3.4207  0.3499 -1.1153
  623MOL0     H84088   3.885  -0.950   2.648 -2.4189 -1.7551 -1.0363
  623MOL0     H84089   3.900  -0.547   2.907 -2.8390  0.8656 -1.2354
  623MOL0     H84090   3.881  -0.315   2.932 -1.4521  1.4352 -0.7753
  623MOL0     H84091   3.729   1.135   3.951 -2.7125 -1.3400  0.0698
  623MOL0     H84092   3.870   1.360   3.924  1.0099  0.9419 -0.3193
  623MOL0     H84093   4.038   1.644   3.698 -0.5430 -0.5179  0.0142
  623MOL0     H84094   4.209   1.816   3.681  0.7213  0.2346 -1.4400
  623MOL0     H84095   4.104   2.191   3.816  0.1712 -3.0779  2.2121
  623MOL0     H84096   4.258   2.228   3.751 -0.3683  0.1812 -0.4434
  623MOL0     H84097   4.016   2.110   3.606  0.5651  1.6606 -3.5749
  623MOL0     H84098   4.175   2.047   3.570  0.9990 -1.2283  0.4315
  623MOL0     H84099   4.097   2.337   3.551  0.6576 -1.5749  2.6038
  623MOL0     H84100   4.111   2.226   3.421 -0.9520  0.8521  0.1971
  623MOL0     H84101   4.344   2.336   3.595 -2.8020 -2.6480  2.2817
  623MOL0     H84102   4.323   2.387   3.433  3.7452  0.1933 -1.2916
  623MOL0     H84103   4.419   1.982   3.343 -2.5863 -1.0347 -1.4725
  623MOL0     H84104   3.995   2.048   3.978  3.0442 -0.2563  1.8553
  623MOL0     H84105   3.840   1.902   3.995  2.1095 -2.2062  1.4227
  624MOL0     O84106   1.518  11.044   5.327  0.5535  0.3734  0.2595
  624MOL0     C84107   1.631  11.036   5.379 -1.1439  0.2469 -0.2870
  624MOL0     O84108   1.704  11.143   5.417  0.8385  0.5246 -0.2166
  624MOL0     C84109   1.693  11.266   5.369 -1.0456 -1.2446  0.5554
  624MOL0     C84110   1.780  11.355   5.434  0.6891 -0.3858  0.2850
  624MOL0     C84111   1.791  11.493   5.398 -0.2253 -0.0188  0.2012
  624MOL0     C84112   1.722  11.539   5.281  0.1678  0.2121  0.5431
  624MOL0     O84113   1.703  11.664   5.230  0.2382  0.3556  0.0904
  624MOL0     C84114   1.771  11.771   5.286 -0.1416 -0.2376 -0.8808
  624MOL0     C84115   1.790  11.893   5.186  0.1591  0.0426 -0.4906
  624MOL0     C84116   1.848  12.013   5.263  0.2655  0.4520  0.2389
  624MOL0     C84117   1.921  12.121   5.187  0.4291  0.1441  0.9542
  624MOL0     C84118   1.978  12.217   5.284  0.6753 -0.4305 -0.9428
  624MOL0     C84119   2.059  12.325   5.205 -0.1657  0.2713  0.5254
  624MOL0     C84120   2.144  12.424   5.293 -0.5080 -0.2643 -0.6234
  624MOL0     C84121   2.251  12.356   5.378  0.2611 -1.3468 -0.7903
  624MOL0     N84122   2.334  12.454   5.439  0.2115 -0.2166 -0.0017
  624MOL0     C84123   2.299  12.557   5.526 -0.2491 -0.6468 -0.8398
  624MOL0     C84124   2.416  12.605   5.582 -0.0953  0.4078  0.2153
  624MOL0     C84125   2.419  12.712   5.680  0.6072  0.4439  0.7659
  624MOL0     C84126   2.560  12.766   5.702  0.3292  0.3167  0.7639
  624MOL0     C84127   2.574  12.903   5.640  0.1688  0.3555 -0.2249
  624MOL0     C84128   2.709  12.960   5.677 -0.3910 -0.7729 -0.3734
  624MOL0     O84129   2.711  13.101   5.642  0.6684 -0.0003  0.4484
  624MOL0     C84130   2.784  13.183   5.723 -0.4252 -0.8248 -1.2253
  624MOL0     C84131   2.879  13.167   5.834  0.5988 -0.3748  0.2585
  624MOL0     C84132   2.932  13.281   5.910 -0.0762  0.7878  0.1117
  624MOL0     C84133   3.060  13.264   6.000  0.7002  0.8225 -0.0934
  624MOL0     C84134   2.876  13.414   5.879 -1.0465 -0.0499  0.3209
  624MOL0     C84135   2.906  13.540   5.949 -0.6519 -0.3186  0.4794
  624MOL0     O84136   2.814  13.640   5.935 -0.2395 -0.7481 -0.2096
  624MOL0     C84137   2.814  13.748   6.021  0.6753 -0.4596 -0.5385
  624MOL0     C84138   2.718  13.769   6.123  0.1835  0.4153  0.1800
  624MOL0     C84139   2.735  13.874   6.211  0.4156 -0.1772  0.4853
  624MOL0     C84140   2.831  13.969   6.205 -0.1805 -0.2859  0.1082
  624MOL0     O84141   2.844  14.055   6.302  0.1210  0.4392 -0.1475
  624MOL0     C84142   2.950  14.151   6.295  0.2698 -0.6419  0.5489
  624MOL0     C84143   2.962  14.216   6.430 -0.2863  0.3581  0.6820
  624MOL0     C84144   3.071  14.311   6.451 -0.8861 -0.0677 -0.2020
  624MOL0     C84145   3.088  14.428   6.342 -0.2709 -0.0627 -0.0993
  624MOL0     C84146   2.961  14.512   6.328  1.0722  0.2217  0.3313
  624MOL0     C84147   2.906  14.579   6.444 -0.7077 -0.1941 -0.2126
  624MOL0     C84148   2.984  14.703   6.482 -1.0407  0.0455  0.0268
  624MOL0     C84149   2.905  14.795   6.571  0.0262  0.2247  0.7353
  624MOL0    Cl84150   2.771  14.860   6.469 -0.0304 -0.6256  0.2615
  624MOL0     C84151   2.914  13.961   6.089 -0.4497 -0.3151 -0.0394
  624MOL0     C84152   2.916  13.847   6.003  0.6337 -0.3919 -0.5849
  624MOL0     O84153   3.015  13.549   6.005 -0.0152  0.2448  0.2561
  624MOL0     C84154   2.775  13.429   5.791  0.6673 -0.1556  0.1257
  624MOL0     C84155   2.739  13.317   5.714 -1.1069  0.7599  0.5075
  624MOL0     N84156   2.508  12.518   5.538 -0.4743  0.6168  0.0337
  624MOL0     N84157   2.465  12.429   5.458 -0.2300  0.1649 -0.1511
  624MOL0     C84158   1.635  11.443   5.214 -0.8627  0.6362  0.6955
  624MOL0     C84159   1.626  11.314   5.256 -1.4796 -0.1713  0.4102
  624MOL0     C84160   1.702  10.906   5.403  0.7114  0.1321 -0.2675
  624MOL0     C84161   1.644  10.788   5.357 -0.1806 -0.0525 -0.9776
  624MOL0     C84162   1.698  10.663   5.393 -1.0012  0.8011 -0.0348
  624MOL0     C84163   1.813  10.657   5.480  0.0623  0.5700 -0.2598
  624MOL0     O84164   1.852  10.528   5.508 -0.2825  0.2817 -0.5297
  624MOL0     C84165   1.899  10.506   5.645  0.2382  0.6528  0.6676
  624MOL0     C84166   1.863  10.358   5.686 -0.0712  0.0656 -0.2555
  624MOL0     C84167   1.901  10.245   5.595  0.2341 -0.0972 -0.3247
  624MOL0     C84168   2.044  10.228   5.587 -0.6759  0.2660  0.6150
  624MOL0     C84169   2.102  10.173   5.702 -0.2967  0.2817 -1.6239
  624MOL0     C84170   2.150  10.124   5.803 -0.0362  0.9432 -0.6404
  624MOL0     C84171   1.865  10.777   5.526 -0.3789  0.0589  0.3565
  624MOL0     C84172   1.814  10.895   5.493 -0.5294  0.4255 -0.3063
  624MOL0     H84173   1.847  11.320   5.512  3.0294 -0.5449 -1.6693
  624MOL0     H84174   1.847  11.550   5.471  0.4015 -1.2011  0.6786
  624MOL0     H84175   1.718  11.815   5.370  0.0586  2.2917 -1.9956
  624MOL0     H84176   1.875  11.748   5.312  0.3436 -2.2601 -3.9990
  624MOL0     H84177   1.859  11.864   5.107  0.0583 -3.2704  0.4699
  624MOL0     H84178   1.698  11.931   5.141  0.5369  0.1879 -1.1489
  624MOL0     H84179   1.774  12.069   5.321 -1.8047  1.8081 -3.3180
  624MOL0     H84180   1.927  11.970   5.325  2.4781  1.4584 -1.7158
  624MOL0     H84181   2.000  12.081   5.124 -0.8435 -0.1488 -0.5125
  624MOL0     H84182   1.858  12.170   5.112  0.1951 -1.2029  0.2356
  624MOL0     H84183   1.904  12.273   5.342  1.5521  2.1530 -2.1656
  624MOL0     H84184   2.036  12.167   5.362 -0.9621  2.4339  2.3550
  624MOL0     H84185   2.119  12.276   5.128 -2.7697  0.6379 -1.9097
  624MOL0     H84186   1.985  12.394   5.163 -0.6893  0.1219  1.1751
  624MOL0     H84187   2.177  12.503   5.226 -2.0593  2.7270  1.8938
  624MOL0     H84188   2.070  12.461   5.363 -2.2458 -1.6998 -1.6224
  624MOL0     H84189   2.307  12.280   5.324  1.8184  0.8017 -2.3873
  624MOL0     H84190   2.196  12.315   5.463 -1.4871  0.3571 -1.0049
  624MOL0     H84191   2.197  12.582   5.556 -0.5934  0.4071 -2.7658
  624MOL0     H84192   2.366  12.796   5.636  1.7912  0.9357  0.2310
  624MOL0     H84193   2.374  12.674   5.772 -1.9506 -0.0281 -0.6063
  624MOL0     H84194   2.633  12.700   5.654 -0.6198 -0.6421  0.5816
  624MOL0     H84195   2.570  12.759   5.810  4.5205  1.3605  0.5905
  624MOL0     H84196   2.495  12.969   5.679  1.3038  1.4162  0.3330
  624MOL0     H84197   2.575  12.909   5.531  0.9225  0.3751 -0.2194
  624MOL0     H84198   2.789  12.900   5.633 -0.6316 -1.4473  0.0900
  624MOL0     H84199   2.728  12.941   5.783  1.9445 -0.9911 -0.7689
  624MOL0     H84200   2.930  13.076   5.864 -1.0277 -1.7114 -0.7978
  624MOL0     H84201   3.152  13.307   5.958  1.8151 -1.6231 -0.3013
  624MOL0     H84202   3.045  13.310   6.097 -1.3020 -0.6732  0.3601
  624MOL0     H84203   3.084  13.159   6.019 -1.4567  0.2130 -0.4648
  624MOL0     H84204   2.638  13.696   6.132  0.3756  0.0948 -0.6747
  624MOL0     H84205   2.663  13.880   6.291 -1.3036  1.1396 -1.0613
  624MOL0     H84206   3.044  14.111   6.259  0.6325  0.7256 -0.0951
  624MOL0     H84207   2.924  14.223   6.217  3.1201 -3.0588 -2.9206
  624MOL0     H84208   2.870  14.272   6.450 -0.1548  1.4301 -1.4347
  624MOL0     H84209   2.955  14.137   6.505 -0.9023 -0.3214 -0.0778
  624MOL0     H84210   3.166  14.257   6.441  1.6865  3.3255  3.2842
  624MOL0     H84211   3.066  14.355   6.551 -1.5628 -0.4534 -0.0619
  624MOL0     H84212   3.174  14.491   6.366 -0.3216  1.2811 -2.9929
  624MOL0     H84213   3.123  14.398   6.243  1.2925  0.0848  0.3704
  624MOL0     H84214   2.880  14.448   6.294  1.9002 -0.2927 -0.7617
  624MOL0     H84215   2.973  14.585   6.246 -0.5122  3.0983  2.4794
  624MOL0     H84216   2.800  14.597   6.429 -0.7410  1.0120  1.2637
  624MOL0     H84217   2.910  14.520   6.536 -0.4677 -3.8133 -2.3481
  624MOL0     H84218   3.018  14.754   6.391  1.0207 -0.4154  0.4799
  624MOL0     H84219   3.072  14.664   6.534 -0.5619  1.4369  0.3114
  624MOL0     H84220   2.963  14.878   6.612 -2.3357  2.6089 -0.4532
  624MOL0     H84221   2.862  14.745   6.658  0.8699 -2.2869 -0.1997
  624MOL0     H84222   2.995  14.032   6.081  0.5332 -1.5015 -0.9669
  624MOL0     H84223   2.999  13.833   5.933  0.6075  2.7987 -1.3900
  624MOL0     H84224   2.722  13.521   5.769  0.1616 -0.6905 -0.9756
  624MOL0     H84225   2.672  13.344   5.633 -0.8654  3.4399  1.1195
  624MOL0     H84226   1.571  11.473   5.131  1.7297  0.0352 -1.6860
  624MOL0     H84227   1.554  11.254   5.201  0.0692 -1.0200 -0.7825
  624MOL0     H84228   1.556  10.788   5.293 -1.3375  0.8974  0.5527
  624MOL0     H84229   1.653  10.568   5.365  1.9988 -0.9328  0.6924
  624MOL0     H84230   2.004  10.531   5.664 -0.5565  1.5394  5.2418
  624MOL0     H84231   1.851  10.572   5.717 -0.7460  2.6433 -1.7022
  624MOL0     H84232   1.756  10.341   5.699  0.0193  0.2664  0.9369
  624MOL0     H84233   1.901  10.346   5.788  0.5137  1.7090 -0.2334
  624MOL0     H84234   1.867  10.273   5.494  2.3326  0.2015 -0.9965
  624MOL0     H84235   1.861  10.145   5.613  1.4198 -1.3226 -3.7235
  624MOL0     H84236   2.093  10.322   5.558  1.3747 -0.4373  1.5507
  624MOL0     H84237   2.056  10.159   5.503  1.2468  2.9873 -1.5204
  624MOL0     H84238   2.191  10.054   5.874  0.1285  1.6397 -0.0386
  624MOL0     H84239   1.953  10.779   5.589  2.7054 -1.5726 -3.4539
  624MOL0     H84240   1.866  10.984   5.523  0.2637 -0.2533  0.3853
  625MOL0     O84241   5.544   8.661   9.400 -0.5673 -0.6114 -0.2001
  625MOL0     C84242   5.534   8.684   9.519  0.3005 -0.8410  0.6859
  625MOL0     O84243   5.540   8.812   9.576 -0.3922  0.3619 -0.4225
  625MOL0     C84244   5.554   8.916   9.495 -0.1476 -0.6906  1.0685
  625MOL0     C84245   5.654   9.015   9.527  0.9282  1.1688 -0.4040
  625MOL0     C84246   5.693   9.118   9.437  0.5892  0.0401  0.7027
  625MOL0     C84247   5.613   9.132   9.319 -0.1244  0.1930 -0.5106
  625MOL0     O84248   5.622   9.232   9.227  0.7456 -0.4294 -0.4481
  625MOL0     C84249   5.670   9.356   9.260  0.0181 -0.3312 -0.7039
  625MOL0     C84250   5.577   9.470   9.201 -0.3202  0.2614  0.1428
  625MOL0     C84251   5.629   9.605   9.252 -0.3824 -0.3090 -0.1310
  625MOL0     C84252   5.727   9.684   9.151 -0.4382 -0.1401  0.1734
  625MOL0     C84253   5.799   9.802   9.223  0.6836 -0.5540  0.0935
  625MOL0     C84254   5.693   9.889   9.296  0.5849  0.1024  0.2983
  625MOL0     C84255   5.583   9.966   9.216 -0.9622 -1.2753 -0.1623
  625MOL0     C84256   5.633  10.062   9.108  0.1915  0.9386 -0.0505
  625MOL0     N84257   5.546  10.180   9.079 -0.1260 -0.6784 -0.7692
  625MOL0     C84258   5.589  10.309   9.051 -1.0200  0.6195  0.0425
  625MOL0     C84259   5.478  10.369   9.016  0.7442  0.9842  0.4563
  625MOL0     C84260   5.474  10.513   8.978 -0.1650  0.1425 -0.2451
  625MOL0     C84261   5.367  10.544   8.866  0.2921  0.5485 -0.3395
  625MOL0     C84262   5.220  10.556   8.922 -0.7044  0.5037  0.2589
  625MOL0     C84263   5.195  10.678   9.023  0.4243 -1.2235  0.0758
  625MOL0     O84264   5.258  10.794   8.967  0.0813  0.1425  0.5032
  625MOL0     C84265   5.184  10.885   8.901 -0.0321 -0.3268 -0.6039
  625MOL0     C84266   5.085  10.950   8.965  0.3410  0.0611  0.0850
  625MOL0     C84267   5.006  11.050   8.906 -0.6349 -0.5675 -0.1029
  625MOL0     C84268   4.887  11.100   8.982  0.8776  1.6121 -0.6779
  625MOL0     C84269   5.021  11.088   8.771 -1.0961 -0.0642  1.6082
  625MOL0     C84270   4.942  11.189   8.678  0.1416  0.2232  0.6710
  625MOL0     O84271   4.967  11.195   8.537  0.6302 -0.5614  1.2674
  625MOL0     C84272   4.901  11.279   8.451  0.5218  1.9640  0.0151
  625MOL0     C84273   4.885  11.410   8.497  0.6395  0.2376  0.7087
  625MOL0     C84274   4.812  11.495   8.420 -0.4036 -0.2441  0.6009
  625MOL0     C84275   4.765  11.459   8.291  0.5885  0.6333 -0.1632
  625MOL0     O84276   4.710  11.559   8.216 -0.7319  0.3820  0.0915
  625MOL0     C84277   4.664  11.529   8.091  0.7784 -0.3000  0.2545
  625MOL0     C84278   4.591  11.658   8.033 -0.1090  0.3231  0.7596
  625MOL0     C84279   4.532  11.658   7.889  0.4023  0.7904 -0.7384
  625MOL0     C84280   4.611  11.571   7.789  0.1376 -0.6872 -0.0470
  625MOL0     C84281   4.553  11.577   7.652  0.4729 -0.0339 -0.9846
  625MOL0     C84282   4.647  11.492   7.569 -0.6630  0.4607  0.3203
  625MOL0     C84283   4.600  11.482   7.425  0.5211 -0.1813 -0.2750
  625MOL0     C84284   4.659  11.367   7.346 -0.4476  0.0240 -0.0258
  625MOL0    Cl84285   4.837  11.386   7.347 -0.1956 -0.1953  0.2933
  625MOL0     C84286   4.785  11.334   8.241 -0.1133  0.4416 -0.0622
  625MOL0     C84287   4.862  11.244   8.322  0.1955 -0.5728  0.1286
  625MOL0     O84288   4.857  11.253   8.735 -0.8198  0.0418  0.1814
  625MOL0     C84289   5.133  11.025   8.711 -0.2862  0.2880 -0.1315
  625MOL0     C84290   5.206  10.915   8.770  0.0275  0.4105 -0.3325
  625MOL0     N84291   5.370  10.280   9.023  0.0453  0.2139  0.5371
  625MOL0     N84292   5.416  10.164   9.063 -0.3106 -0.6313  0.1791
  625MOL0     C84293   5.522   9.034   9.285 -0.8481 -0.7068 -0.4878
  625MOL0     C84294   5.498   8.928   9.372 -0.1151 -0.1947 -0.7631
  625MOL0     C84295   5.490   8.579   9.615 -0.9141  0.1047  1.0570
  625MOL0     C84296   5.535   8.447   9.597  0.0762 -1.0507  0.5721
  625MOL0     C84297   5.504   8.348   9.692 -1.1639  0.7594 -0.1794
  625MOL0     C84298   5.439   8.381   9.817  0.8904 -0.0269  1.2648
  625MOL0     O84299   5.430   8.274   9.907 -0.8983 -0.7757  1.2042
  625MOL0     C84300   5.341   8.287  10.010  0.7937  0.3262 -0.7364
  625MOL0     C84301   5.351   8.181  10.123 -0.2429 -0.5771 -0.0702
  625MOL0     C84302   5.319   8.041  10.093  1.0105  0.8887 -0.8078
  625MOL0     C84303   5.396   7.922  10.152  0.2037 -0.1049 -0.7597
  625MOL0     C84304   5.532   7.918  10.105  0.1537 -0.9309 -0.4546
  625MOL0     C84305   5.640   7.935  10.059  0.0403 -0.6457 -1.0542
  625MOL0     C84306   5.382   8.513   9.819 -0.4429  0.3507 -1.7234
  625MOL0     C84307   5.407   8.611   9.725  0.7878  0.5788 -1.2027
  625MOL0     H84308   5.701   9.008   9.624 -0.0662 -0.8694 -0.0161
  625MOL0     H84309   5.757   9.201   9.463  1.0433  0.5801 -1.9343
  625MOL0     H84310   5.671   9.363   9.370 -0.2060 -0.7742 -0.6722
  625MOL0     H84311   5.775   9.372   9.235 -0.2431 -1.1883 -2.4466
  625MOL0     H84312   5.566   9.458   9.093  3.2868  2.0900 -0.5770
  625MOL0     H84313   5.478   9.476   9.249 -0.5278  3.0219 -0.4482
  625MOL0     H84314   5.537   9.664   9.262 -1.7450 -2.2306 -0.5716
  625MOL0     H84315   5.679   9.600   9.349 -1.3277 -0.3202  0.3654
  625MOL0     H84316   5.809   9.617   9.124  0.1408 -1.1947  3.8890
  625MOL0     H84317   5.677   9.722   9.062 -2.6952  1.9917  2.2022
  625MOL0     H84318   5.867   9.764   9.299  1.3457  0.8761  0.2502
  625MOL0     H84319   5.854   9.872   9.158 -1.2317  0.6802 -0.2795
  625MOL0     H84320   5.662   9.831   9.383  0.1782  0.4325  0.3760
  625MOL0     H84321   5.759   9.967   9.336 -0.4532  1.5273 -0.6882
  625MOL0     H84322   5.515   9.908   9.154 -1.5045 -1.5987  0.7207
  625MOL0     H84323   5.529  10.022   9.293  1.2828  0.9921 -0.0812
  625MOL0     H84324   5.640   9.998   9.019  1.5622 -1.0179  1.3743
  625MOL0     H84325   5.735  10.094   9.131  0.5302 -0.8884  1.2350
  625MOL0     H84326   5.691  10.344   9.060 -0.7921 -0.2700  1.1746
  625MOL0     H84327   5.473  10.578   9.066 -2.4496  0.7686 -0.6671
  625MOL0     H84328   5.571  10.519   8.929  0.2567 -0.4984  0.5000
  625MOL0     H84329   5.363  10.468   8.788  0.8335 -2.3329  2.2388
  625MOL0     H84330   5.399  10.641   8.825  2.8243 -0.0766  0.0329
  625MOL0     H84331   5.191  10.463   8.970 -1.0901  0.2094 -0.5143
  625MOL0     H84332   5.158  10.568   8.833 -0.8547  2.7736  0.6107
  625MOL0     H84333   5.247  10.654   9.117  0.9034  2.2783  0.8393
  625MOL0     H84334   5.089  10.696   9.045  0.6847  2.7950 -1.1879
  625MOL0     H84335   5.048  10.913   9.060 -1.0745 -0.2560 -0.5519
  625MOL0     H84336   4.893  11.063   9.084 -1.4043  2.9528  0.0209
  625MOL0     H84337   4.892  11.209   8.991  0.7840  1.4702  1.5417
  625MOL0     H84338   4.788  11.078   8.940  1.6248  0.0439 -1.7343
  625MOL0     H84339   4.911  11.442   8.597 -0.2929  3.1160  0.1402
  625MOL0     H84340   4.808  11.591   8.471 -0.1325  0.8184 -1.2719
  625MOL0     H84341   4.754  11.511   8.033  1.2010  0.5690  0.6171
  625MOL0     H84342   4.592  11.446   8.090  0.1460  0.2417 -0.0627
  625MOL0     H84343   4.503  11.689   8.091 -2.0414  4.2091 -3.5559
  625MOL0     H84344   4.671  11.731   8.047 -0.6401  0.5339  3.1980
  625MOL0     H84345   4.524  11.761   7.854 -1.0251  0.2234 -2.2495
  625MOL0     H84346   4.428  11.627   7.900  0.4973 -1.1050 -3.7941
  625MOL0     H84347   4.717  11.600   7.785 -0.3789  1.3737 -0.3958
  625MOL0     H84348   4.596  11.472   7.831 -3.9670 -1.4772 -2.7345
  625MOL0     H84349   4.545  11.680   7.617  0.3575  0.7729  1.2629
  625MOL0     H84350   4.449  11.543   7.661 -0.3337  2.3416 -0.7023
  625MOL0     H84351   4.750  11.530   7.574  0.6742 -2.5930 -0.8122
  625MOL0     H84352   4.651  11.391   7.613  0.0762  0.7981  1.0751
  625MOL0     H84353   4.624  11.580   7.384 -4.4852  0.8250 -1.5082
  625MOL0     H84354   4.491  11.467   7.429  0.6487 -0.8160  2.0803
  625MOL0     H84355   4.633  11.361   7.240 -1.0194  3.9661 -0.2532
  625MOL0     H84356   4.643  11.268   7.389  2.9766  0.0848  1.7362
  625MOL0     H84357   4.764  11.308   8.138  3.0747 -3.9793  0.0762
  625MOL0     H84358   4.897  11.150   8.280  0.2351  0.7734 -3.1331
  625MOL0     H84359   5.149  11.069   8.613 -2.6144 -0.9984 -1.1542
  625MOL0     H84360   5.275  10.864   8.704  1.8951  0.8703  1.1804
  625MOL0     H84361   5.460   9.043   9.196 -1.4625  0.8546  0.0814
  625MOL0     H84362   5.404   8.875   9.366 -0.5809 -0.3111  3.9072
  625MOL0     H84363   5.605   8.412   9.522 -1.3116  0.0856 -1.3480
  625MOL0     H84364   5.531   8.246   9.669 -0.9223  1.0961 -1.4462
  625MOL0     H84365   5.345   8.388  10.053  0.1559 -1.2030  3.4006
  625MOL0     H84366   5.237   8.275   9.978 -0.6447 -0.7449  3.5496
  625MOL0     H84367   5.296   8.207  10.213 -0.1317 -3.9689  1.1315
  625MOL0     H84368   5.458   8.186  10.147  0.2005  0.3088 -2.0289
  625MOL0     H84369   5.337   8.026   9.986  1.8187  0.4411 -0.6196
  625MOL0     H84370   5.211   8.031  10.105  0.9322  1.6161 -0.8370
  625MOL0     H84371   5.346   7.827  10.131 -0.3126  0.2423 -1.1213
  625MOL0     H84372   5.402   7.912  10.261 -0.5987 -2.3985 -0.8539
  625MOL0     H84373   5.733   7.963  10.013 -0.6351  2.7568 -0.6039
  625MOL0     H84374   5.324   8.555   9.901 -0.4855  1.1703 -2.1656
  625MOL0     H84375   5.366   8.708   9.751 -4.7575 -1.4229 -1.1316
  626MOL0     O84376   4.570   1.818  11.333  0.3109  0.5459 -0.7967
  626MOL0     C84377   4.562   1.878  11.442 -0.3407 -0.2229 -0.4739
  626MOL0     O84378   4.627   1.987  11.466 -0.0532  0.4888  0.5988
  626MOL0     C84379   4.634   2.081  11.361 -0.1765 -0.0934 -0.5796
  626MOL0     C84380   4.559   2.200  11.371 -0.0163 -0.7681  0.0551
  626MOL0     C84381   4.577   2.297  11.265  0.0138 -0.6603  0.5042
  626MOL0     C84382   4.665   2.289  11.160 -0.6093  0.3900  0.1171
  626MOL0     O84383   4.670   2.347  11.032 -0.2783  0.7016  0.0051
  626MOL0     C84384   4.555   2.415  10.976 -1.1409 -0.2614 -0.3395
  626MOL0     C84385   4.544   2.565  11.015  0.0431  0.5758  0.5100
  626MOL0     C84386   4.643   2.657  10.944  0.5001  0.1138 -0.4100
  626MOL0     C84387   4.786   2.610  10.953 -0.2624 -0.0539  0.0063
  626MOL0     C84388   4.886   2.730  10.941  0.2299  0.9053 -0.0257
  626MOL0     C84389   4.915   2.801  11.073 -0.1028  0.3568 -0.7241
  626MOL0     C84390   4.929   2.954  11.066 -0.7417  0.2578 -0.3923
  626MOL0     C84391   4.806   3.031  11.110 -0.3959  0.5200 -0.5451
  626MOL0     N84392   4.820   3.067  11.254  0.4522 -0.1139 -0.4099
  626MOL0     C84393   4.926   3.032  11.343 -0.1625 -0.9326 -0.2894
  626MOL0     C84394   4.889   3.081  11.469  0.3185  0.4211  0.0573
  626MOL0     C84395   4.958   3.066  11.598  0.0047  0.6985  0.4816
  626MOL0     C84396   5.011   3.205  11.636 -0.3651  0.5328  0.1656
  626MOL0     C84397   4.941   3.259  11.760  0.9714  0.0025 -0.0485
  626MOL0     C84398   5.012   3.382  11.820 -0.1846 -0.4997 -0.6994
  626MOL0     O84399   4.936   3.450  11.911 -0.3578 -0.4558 -0.2449
  626MOL0     C84400   4.955   3.588  11.924  0.5347  0.6875  0.7842
  626MOL0     C84401   4.871   3.680  11.875  0.8626 -0.4019  0.3185
  626MOL0     C84402   4.882   3.820  11.876  0.0929  0.3717 -0.3822
  626MOL0     C84403   4.779   3.895  11.809 -0.2111  0.2837  0.5483
  626MOL0     C84404   4.996   3.867  11.944  0.2047 -0.9116  0.9125
  626MOL0     C84405   5.033   4.016  11.952 -0.8067  0.7401  0.5870
  626MOL0     O84406   5.157   4.043  12.022 -0.2408  0.8827 -0.1612
  626MOL0     C84407   5.195   4.171  12.057 -0.1830 -0.8613 -0.2286
  626MOL0     C84408   5.330   4.204  12.067 -0.8164  0.1434  0.7320
  626MOL0     C84409   5.369   4.336  12.102  0.4582 -0.0794 -0.1313
  626MOL0     C84410   5.283   4.436  12.131  0.7709  0.0679 -0.3890
  626MOL0     O84411   5.319   4.566  12.172  0.4603 -0.4775  0.9116
  626MOL0     C84412   5.452   4.613  12.132  0.1596  0.2450  0.5553
  626MOL0     C84413   5.467   4.760  12.154  0.2741 -0.3033 -0.0029
  626MOL0     C84414   5.619   4.804  12.136 -0.1134 -0.0139  0.1287
  626MOL0     C84415   5.651   4.939  12.208 -0.6254 -0.6925  0.5449
  626MOL0     C84416   5.800   4.975  12.196 -0.0340  0.4941  0.8906
  626MOL0     C84417   5.862   5.045  12.312  0.7756 -0.4617  0.4332
  626MOL0     C84418   5.792   5.179  12.329  0.2418 -0.3502 -0.0078
  626MOL0     C84419   5.848   5.266  12.442  0.4397 -0.1973  0.4708
  626MOL0    Cl84420   5.781   5.429  12.434 -0.2370  0.3229 -0.1469
  626MOL0     C84421   5.145   4.409  12.125  0.8502  0.8804 -0.5052
  626MOL0     C84422   5.104   4.279  12.087  0.6475  0.9929  0.4015
  626MOL0     O84423   4.985   4.098  11.874  0.1540 -0.0113 -0.0284
  626MOL0     C84424   5.087   3.768  12.005  0.3147  0.0849 -0.5027
  626MOL0     C84425   5.070   3.637  11.984  0.5317  0.4526  0.5985
  626MOL0     N84426   4.761   3.135  11.451 -1.1563  0.0851 -0.1094
  626MOL0     N84427   4.722   3.130  11.329 -0.0817 -0.8826  0.1516
  626MOL0     C84428   4.747   2.177  11.160 -0.4329  0.9127 -0.0057
  626MOL0     C84429   4.727   2.068  11.254  0.5656 -0.2324 -0.6309
  626MOL0     C84430   4.488   1.828  11.562  0.5262  0.8486 -0.8262
  626MOL0     C84431   4.414   1.709  11.549 -0.8752  0.3566 -0.3235
  626MOL0     C84432   4.360   1.647  11.664  0.1579 -1.0899  0.0147
  626MOL0     C84433   4.373   1.711  11.793 -0.6525  0.1411 -0.4483
  626MOL0     O84434   4.322   1.628  11.894 -0.1699 -0.1695 -0.0087
  626MOL0     C84435   4.312   1.691  12.024  0.5700  0.8904  0.3116
  626MOL0     C84436   4.254   1.606  12.134  0.4162 -0.2910  0.8379
  626MOL0     C84437   4.125   1.538  12.088  0.1981  0.1366 -0.2264
  626MOL0     C84438   4.045   1.466  12.192 -0.0278 -0.3970  0.9970
  626MOL0     C84439   3.942   1.556  12.238  0.3339 -0.3197  0.4983
  626MOL0     C84440   3.848   1.622  12.279 -0.4157 -0.3201  0.1511
  626MOL0     C84441   4.443   1.838  11.800  0.5878  0.6001 -0.1364
  626MOL0     C84442   4.492   1.894  11.686  0.0593 -0.1931 -0.0408
  626MOL0     H84443   4.483   2.201  11.448 -0.7584 -0.4123 -0.6613
  626MOL0     H84444   4.511   2.383  11.257  2.6822  1.4486 -0.4070
  626MOL0     H84445   4.564   2.398  10.868 -0.6773  1.6682 -0.6280
  626MOL0     H84446   4.464   2.359  10.999 -1.5239  0.5383  0.1044
  626MOL0     H84447   4.445   2.593  10.978 -0.0778  1.0627  1.1885
  626MOL0     H84448   4.541   2.585  11.123 -1.0191  0.4481  0.5115
  626MOL0     H84449   4.604   2.676  10.843 -2.0841 -2.4028  0.0034
  626MOL0     H84450   4.655   2.756  10.989  1.1285 -0.6973  1.2680
  626MOL0     H84451   4.810   2.570  11.052  5.2658  0.0093 -1.0045
  626MOL0     H84452   4.814   2.530  10.884 -0.4009  0.6896 -0.9281
  626MOL0     H84453   4.980   2.680  10.914  1.2126  1.3222  2.3473
  626MOL0     H84454   4.850   2.803  10.868 -0.5814  0.6819  0.1517
  626MOL0     H84455   4.830   2.788  11.141 -1.7970 -0.1538 -2.8169
  626MOL0     H84456   5.007   2.767  11.120 -0.2637  1.7224  0.6495
  626MOL0     H84457   5.021   2.981  11.118 -0.8569 -0.6300  0.2885
  626MOL0     H84458   4.958   2.991  10.967  2.0969  0.4443  0.4267
  626MOL0     H84459   4.710   2.990  11.079 -1.7390  2.5869  0.6442
  626MOL0     H84460   4.823   3.122  11.052  1.8360  1.4783  1.4364
  626MOL0     H84461   5.015   2.973  11.323  0.7086 -0.8543  2.8438
  626MOL0     H84462   4.888   3.025  11.671  0.6323  2.0947  1.9336
  626MOL0     H84463   5.033   2.987  11.584 -2.2151 -2.0685  2.9596
  626MOL0     H84464   5.003   3.277  11.554  1.9556 -0.9031 -1.4545
  626MOL0     H84465   5.117   3.191  11.656 -0.7283 -2.0029  0.6838
  626MOL0     H84466   4.926   3.180  11.834 -0.9308  1.8113  1.6245
  626MOL0     H84467   4.838   3.285  11.736  1.0351  1.4269  1.1129
  626MOL0     H84468   5.031   3.460  11.744 -0.7225  3.7132  3.0652
  626MOL0     H84469   5.110   3.356  11.860 -0.6179  1.4170  1.8365
  626MOL0     H84470   4.797   3.640  11.806 -0.3676 -2.5832  2.7133
  626MOL0     H84471   4.739   3.971  11.878  0.5435  0.6447  0.6023
  626MOL0     H84472   4.832   3.945  11.728  1.4218 -1.9783  0.1396
  626MOL0     H84473   4.690   3.845  11.770 -0.2174  0.1127  0.7766
  626MOL0     H84474   5.411   4.134  12.049 -0.7794  0.2630  0.4155
  626MOL0     H84475   5.476   4.349  12.108  0.3777 -0.1225  2.4087
  626MOL0     H84476   5.529   4.554  12.182 -0.6722 -0.4084  1.0965
  626MOL0     H84477   5.469   4.600  12.024  3.3090 -2.8255  1.2367
  626MOL0     H84478   5.403   4.831  12.100 -1.2571 -1.0867  0.7340
  626MOL0     H84479   5.442   4.780  12.258 -0.1552  5.0017 -0.8314
  626MOL0     H84480   5.644   4.814  12.030 -3.1476  2.0661 -0.5152
  626MOL0     H84481   5.683   4.729  12.183  0.3430  2.0836  3.1413
  626MOL0     H84482   5.592   5.019  12.163 -1.4499 -2.2911 -1.3770
  626MOL0     H84483   5.615   4.933  12.311 -1.0244  0.5284  0.4961
  626MOL0     H84484   5.810   5.026  12.100  0.0027 -3.0474 -1.1710
  626MOL0     H84485   5.853   4.880  12.189 -1.2857 -0.2379  0.9318
  626MOL0     H84486   5.837   4.988  12.401 -2.6375 -1.0313 -0.7124
  626MOL0     H84487   5.969   5.055  12.294  0.7802  0.8704  1.1026
  626MOL0     H84488   5.685   5.177  12.352  0.2030  3.7333  0.9842
  626MOL0     H84489   5.793   5.243  12.240 -2.9055  2.3697  1.6893
  626MOL0     H84490   5.956   5.275  12.431  0.4195 -1.3865 -0.9674
  626MOL0     H84491   5.829   5.222  12.541  3.4808 -1.2194  0.7196
  626MOL0     H84492   5.072   4.488  12.140  0.5071  0.0955  2.6364
  626MOL0     H84493   5.000   4.256  12.070  0.3779  0.9288  2.0076
  626MOL0     H84494   5.178   3.802  12.053  1.2253 -0.8611 -1.5036
  626MOL0     H84495   5.141   3.574  12.036  0.2121  1.4512  2.3122
  626MOL0     H84496   4.810   2.164  11.073  0.8742  1.9916  0.7428
  626MOL0     H84497   4.791   1.980  11.258  2.8036  1.3245 -0.0289
  626MOL0     H84498   4.390   1.681  11.447  0.0909 -0.9941 -0.2051
  626MOL0     H84499   4.306   1.555  11.641  2.2255 -2.4005  0.2079
  626MOL0     H84500   4.410   1.736  12.043  0.4826  1.0649  0.3531
  626MOL0     H84501   4.239   1.772  12.021 -0.6508 -0.2115 -0.9342
  626MOL0     H84502   4.222   1.678  12.210  0.1267  0.8115 -0.2983
  626MOL0     H84503   4.315   1.519  12.162  1.4573 -0.9880 -2.9557
  626MOL0     H84504   4.146   1.455  12.021  0.0686  1.5242 -2.0738
  626MOL0     H84505   4.061   1.609  12.035 -0.5409 -0.7154 -0.4840
  626MOL0     H84506   4.105   1.451  12.282  2.3980  0.3545 -0.3901
  626MOL0     H84507   3.990   1.380  12.152 -1.4911  0.6214  0.7301
  626MOL0     H84508   3.764   1.645  12.340  1.6555 -1.5816  3.7835
  626MOL0     H84509   4.459   1.883  11.897  0.2297  0.1461  0.1366
  626MOL0     H84510   4.543   1.990  11.693  0.6081 -0.4950  0.1646
  627MOL0     O84511   3.330   0.785   0.145  0.1001 -0.1498  0.1264
  627MOL0     C84512   3.424   0.789   0.232 -0.5003  0.3568  0.7709
  627MOL0     O84513   3.504   0.893   0.265 -0.6350  0.1350  1.2189
  627MOL0     C84514   3.540   0.986   0.172 -0.4879 -0.2716  0.8015
  627MOL0     C84515   3.575   1.103   0.235 -0.2592 -0.2098 -0.5747
  627MOL0     C84516   3.610   1.217   0.169  0.2953  0.2902 -0.7732
  627MOL0     C84517   3.615   1.217   0.031 -0.0828  0.1141  0.8709
  627MOL0     O84518   3.638   1.321  -0.059  0.0370  0.2148 -0.4561
  627MOL0     C84519   3.670   1.452  -0.000  0.3905  1.4465 -0.5851
  627MOL0     C84520   3.546   1.541   0.042 -0.3552 -0.2848 -0.7487
  627MOL0     C84521   3.438   1.569  -0.068  0.2998 -0.4806 -0.7495
  627MOL0     C84522   3.348   1.683  -0.028  0.9108 -0.6117  0.4367
  627MOL0     C84523   3.215   1.673  -0.106  0.3208  0.8223  0.5091
  627MOL0     C84524   3.101   1.753  -0.050  0.5441  1.0294  0.7037
  627MOL0     C84525   2.992   1.781  -0.158 -0.5767  0.1340 -0.2624
  627MOL0     C84526   2.891   1.666  -0.175  0.3248 -0.2901 -0.5229
  627MOL0     N84527   2.776   1.701  -0.252 -0.5587  0.0745  0.5803
  627MOL0     C84528   2.658   1.630  -0.246  0.4727 -0.6303 -0.4218
  627MOL0     C84529   2.582   1.687  -0.345  0.3716  0.0162  0.0932
  627MOL0     C84530   2.439   1.660  -0.377  0.1545 -0.7501 -0.2334
  627MOL0     C84531   2.365   1.572  -0.272 -0.1945 -0.5462 -0.0444
  627MOL0     C84532   2.217   1.544  -0.305  0.6721  0.2194  0.1178
  627MOL0     C84533   2.183   1.459  -0.434  0.1430  0.2998 -0.9606
  627MOL0     O84534   2.038   1.481  -0.461  0.1614 -0.5938  0.3641
  627MOL0     C84535   1.960   1.389  -0.531 -0.5088  0.4288 -0.1728
  627MOL0     C84536   1.827   1.368  -0.487 -1.3679 -0.4373  0.1995
  627MOL0     C84537   1.746   1.275  -0.556 -0.6670 -0.4091  0.8155
  627MOL0     C84538   1.605   1.259  -0.501 -1.7397  0.0328  0.3735
  627MOL0     C84539   1.796   1.210  -0.680 -0.0314 -0.4941 -0.5593
  627MOL0     C84540   1.714   1.117  -0.762  0.4721  0.2530  0.5950
  627MOL0     O84541   1.782   1.044  -0.856 -0.7727 -0.6845 -0.3205
  627MOL0     C84542   1.694   1.004  -0.955 -0.3200 -0.6287 -0.2018
  627MOL0     C84543   1.737   0.879  -1.006  0.5353 -0.0367 -0.0503
  627MOL0     C84544   1.661   0.826  -1.114 -0.8308  0.2526  0.2589
  627MOL0     C84545   1.561   0.898  -1.168  0.6507 -0.8880  0.4771
  627MOL0     O84546   1.497   0.840  -1.275  0.2110 -0.0851 -0.0720
  627MOL0     C84547   1.360   0.850  -1.299 -0.1140  0.5156 -0.4989
  627MOL0     C84548   1.325   0.937  -1.413 -0.2628 -0.4606 -0.4787
  627MOL0     C84549   1.196   0.903  -1.481 -0.3052 -0.8749 -0.9223
  627MOL0     C84550   1.124   1.015  -1.559 -0.4585 -0.4660 -0.6845
  627MOL0     C84551   1.208   1.092  -1.653  0.4219  1.0758 -0.0915
  627MOL0     C84552   1.124   1.195  -1.733 -1.0792  0.6846  0.2061
  627MOL0     C84553   1.202   1.275  -1.850 -0.0418 -0.7121  0.7187
  627MOL0     C84554   1.159   1.421  -1.850  0.2285 -0.0970 -0.2097
  627MOL0    Cl84555   0.993   1.433  -1.913 -0.6378 -0.4583 -0.2096
  627MOL0     C84556   1.539   1.031  -1.135 -0.1600 -0.4630 -0.1518
  627MOL0     C84557   1.604   1.081  -1.025 -0.1203  0.2610  0.5859
  627MOL0     O84558   1.594   1.096  -0.734  0.2350 -0.1725  0.0755
  627MOL0     C84559   1.927   1.226  -0.712 -0.1620 -0.5426  0.2162
  627MOL0     C84560   2.009   1.315  -0.640  0.6597  0.0186  0.1577
  627MOL0     N84561   2.661   1.773  -0.419 -0.6411  1.2246  0.6157
  627MOL0     N84562   2.778   1.781  -0.361  0.0378  0.4770 -0.2271
  627MOL0     C84563   3.589   1.093  -0.037  0.0363 -0.4892  0.4090
  627MOL0     C84564   3.537   0.981   0.034  0.5148  0.2852  0.5149
  627MOL0     C84565   3.449   0.657   0.294  0.2907 -0.1128  0.2197
  627MOL0     C84566   3.541   0.642   0.405  0.1420 -0.1301  0.6108
  627MOL0     C84567   3.571   0.517   0.452  1.1039  0.6040 -0.3267
  627MOL0     C84568   3.514   0.398   0.399  1.0365 -0.2873 -0.3453
  627MOL0     O84569   3.544   0.274   0.424  0.0687 -0.0406  0.1735
  627MOL0     C84570   3.684   0.246   0.440 -0.3685 -0.3383  1.3998
  627MOL0     C84571   3.778   0.254   0.315  0.7016  0.2335  0.7985
  627MOL0     C84572   3.921   0.283   0.368 -0.3115  0.4870  0.9478
  627MOL0     C84573   3.991   0.155   0.415  0.3497  0.1776  0.0695
  627MOL0     C84574   4.137   0.170   0.426 -0.3523  0.4425  0.3139
  627MOL0     C84575   4.254   0.193   0.442 -0.6222 -0.5772 -0.7843
  627MOL0     C84576   3.426   0.415   0.302  0.9467  0.1302  0.5223
  627MOL0     C84577   3.388   0.541   0.247 -0.4964 -0.6865  0.2814
  627MOL0     H84578   3.580   1.106   0.344  0.8259 -2.2377 -0.5280
  627MOL0     H84579   3.633   1.311   0.218 -0.0051 -0.4231  0.7768
  627MOL0     H84580   3.735   1.441   0.087 -0.3985 -0.5453 -0.1924
  627MOL0     H84581   3.727   1.507  -0.076  0.7023  2.0796  0.0960
  627MOL0     H84582   3.509   1.498   0.135  0.5434 -0.5438 -0.4996
  627MOL0     H84583   3.590   1.637   0.072 -1.1979 -0.3594  0.8157
  627MOL0     H84584   3.479   1.607  -0.162  0.1562  1.4490 -0.0700
  627MOL0     H84585   3.379   1.481  -0.093 -3.2005  2.1918 -2.7321
  627MOL0     H84586   3.334   1.667   0.080 -0.9137 -1.4274  0.1207
  627MOL0     H84587   3.391   1.783  -0.024 -0.2609 -0.0533 -0.2581
  627MOL0     H84588   3.246   1.703  -0.206 -0.0001 -1.2852 -0.2863
  627MOL0     H84589   3.181   1.569  -0.110 -0.1990  1.0282 -0.5241
  627MOL0     H84590   3.046   1.701   0.029 -1.2018  0.9024 -0.5234
  627MOL0     H84591   3.147   1.846  -0.016 -0.5043  1.3489  1.2790
  627MOL0     H84592   2.939   1.873  -0.131  1.3107  1.0217  0.6787
  627MOL0     H84593   3.060   1.805  -0.240  0.9796 -0.6603  0.7464
  627MOL0     H84594   2.868   1.628  -0.075 -0.6394 -0.9516 -0.9785
  627MOL0     H84595   2.948   1.582  -0.217  2.4494  1.0627 -0.5359
  627MOL0     H84596   2.647   1.553  -0.170  1.8880  0.4146  0.9082
  627MOL0     H84597   2.389   1.757  -0.372  0.2158 -0.7790  2.1964
  627MOL0     H84598   2.421   1.619  -0.477  2.1336  1.7256 -1.7428
  627MOL0     H84599   2.369   1.632  -0.180  4.7082 -1.4034  0.5889
  627MOL0     H84600   2.418   1.481  -0.242  1.7960 -0.2300 -2.3685
  627MOL0     H84601   2.156   1.635  -0.305  0.0756 -0.1240  1.8305
  627MOL0     H84602   2.182   1.503  -0.209 -0.9277  1.9514  0.3204
  627MOL0     H84603   2.205   1.355  -0.407  2.4958  0.9087 -0.2805
  627MOL0     H84604   2.238   1.505  -0.516  1.5806  0.2086 -0.0862
  627MOL0     H84605   1.788   1.428  -0.405  2.0025  0.3851  1.3797
  627MOL0     H84606   1.568   1.156  -0.494 -0.5894 -0.3001  2.5786
  627MOL0     H84607   1.602   1.300  -0.399 -1.3399  1.4718 -0.1735
  627MOL0     H84608   1.540   1.312  -0.571  0.4031  2.0711 -0.2200
  627MOL0     H84609   1.814   0.823  -0.954  1.9205  1.2738 -0.6329
  627MOL0     H84610   1.681   0.725  -1.150  0.0022  0.9679 -1.3867
  627MOL0     H84611   1.337   0.747  -1.330  0.5084  0.3030 -0.2760
  627MOL0     H84612   1.303   0.860  -1.206  1.2179 -1.0372  0.5468
  627MOL0     H84613   1.332   1.038  -1.372 -4.0319 -1.3857  3.1494
  627MOL0     H84614   1.401   0.925  -1.491 -1.2586 -1.5228 -1.3113
  627MOL0     H84615   1.130   0.864  -1.403  1.0166 -3.3517 -0.9510
  627MOL0     H84616   1.222   0.823  -1.551  0.4404 -0.3162 -1.2939
  627MOL0     H84617   1.052   0.958  -1.618  2.7419 -3.0872 -2.4232
  627MOL0     H84618   1.081   1.085  -1.487  1.0228  0.3585 -0.5694
  627MOL0     H84619   1.254   1.025  -1.726  2.3214 -0.0318  1.9866
  627MOL0     H84620   1.294   1.139  -1.604  1.0308 -0.4959  0.3834
  627MOL0     H84621   1.032   1.153  -1.775 -1.6269  0.5042  1.5408
  627MOL0     H84622   1.097   1.273  -1.661  0.5506  2.9927 -1.5518
  627MOL0     H84623   1.191   1.217  -1.942  1.5861 -1.0566  0.7124
  627MOL0     H84624   1.308   1.270  -1.824  0.5571 -0.3720 -1.4927
  627MOL0     H84625   1.221   1.462  -1.931  0.2723  0.4037  0.0735
  627MOL0     H84626   1.184   1.483  -1.763  0.3323  1.3690 -1.2346
  627MOL0     H84627   1.452   1.075  -1.184 -1.4378 -3.1945 -0.5199
  627MOL0     H84628   1.571   1.182  -1.001  0.6712 -0.4840  5.7454
  627MOL0     H84629   1.972   1.175  -0.796 -1.3232  2.0184 -2.1164
  627MOL0     H84630   2.116   1.321  -0.657  0.7447 -1.6759 -0.0818
  627MOL0     H84631   3.598   1.093  -0.145  1.7987  1.8514  0.4537
  627MOL0     H84632   3.503   0.897  -0.025 -1.6204 -0.5985  2.8434
  627MOL0     H84633   3.594   0.729   0.443 -1.2766 -0.0095  2.4246
  627MOL0     H84634   3.657   0.494   0.513  1.4361  3.6180  0.4556
  627MOL0     H84635   3.726   0.289   0.531  1.3620 -0.9391  0.9208
  627MOL0     H84636   3.691   0.138   0.457 -0.5200 -0.6794 -0.4178
  627MOL0     H84637   3.751   0.344   0.259  0.4723 -0.3789 -0.1124
  627MOL0     H84638   3.771   0.163   0.254  2.4441  1.3581 -1.2420
  627MOL0     H84639   3.925   0.364   0.441  1.3044  2.2756 -0.9758
  627MOL0     H84640   3.982   0.306   0.280  2.0608 -1.4333  1.9738
  627MOL0     H84641   3.963   0.071   0.351 -0.6216  1.0431 -0.6661
  627MOL0     H84642   3.965   0.124   0.517  2.5533 -1.4779  0.2103
  627MOL0     H84643   4.359   0.197   0.464 -1.3993  2.2062  3.7039
  627MOL0     H84644   3.381   0.323   0.266  3.3999 -0.0918 -2.4416
  627MOL0     H84645   3.324   0.552   0.160 -0.0705 -2.2302 -0.2701
  628MOL0     O84646   7.186   6.852   3.657 -0.0133 -0.0433  0.3424
  628MOL0     C84647   7.131   6.926   3.570 -0.5142 -1.0868  0.4438
  628MOL0     O84648   6.992   6.947   3.547  0.1071 -0.4462 -0.0171
  628MOL0     C84649   6.892   6.904   3.638  0.0442 -0.9389 -0.3940
  628MOL0     C84650   6.909   6.878   3.772 -0.5427  0.3870 -0.5597
  628MOL0     C84651   6.817   6.833   3.855  0.2574 -0.0943 -0.0018
  628MOL0     C84652   6.685   6.817   3.806 -0.1643  0.1135 -0.1519
  628MOL0     O84653   6.596   6.778   3.907  0.6568  0.7949  0.1122
  628MOL0     C84654   6.467   6.747   3.869 -1.6100  0.0270  0.2027
  628MOL0     C84655   6.460   6.609   3.796  0.1640  0.7702 -0.4345
  628MOL0     C84656   6.310   6.576   3.759  0.0771 -0.0501  0.3453
  628MOL0     C84657   6.298   6.444   3.681  0.2936 -0.5635 -1.0889
  628MOL0     C84658   6.154   6.393   3.674  0.6445  0.2104 -0.0531
  628MOL0     C84659   6.134   6.286   3.569 -0.2016  0.1793  0.4211
  628MOL0     C84660   6.163   6.315   3.415  0.2328 -0.1847 -0.0082
  628MOL0     C84661   6.069   6.415   3.356  0.6568 -0.3301 -1.0171
  628MOL0     N84662   6.103   6.465   3.225 -0.8760  0.3395 -0.4620
  628MOL0     C84663   6.219   6.440   3.157 -0.5541 -0.3694  0.2226
  628MOL0     C84664   6.201   6.521   3.048  0.1339 -0.6887  0.2176
  628MOL0     C84665   6.315   6.527   2.954  0.2680 -0.0398  1.3252
  628MOL0     C84666   6.324   6.680   2.913  0.6072  0.3492 -0.5465
  628MOL0     C84667   6.472   6.717   2.872  0.1191 -0.0708 -0.3314
  628MOL0     C84668   6.499   6.869   2.878  0.5606  0.0932  0.0814
  628MOL0     O84669   6.457   6.942   2.995  0.3050 -0.2733 -0.8157
  628MOL0     C84670   6.543   7.028   3.061  0.2824  0.3155 -0.5575
  628MOL0     C84671   6.501   7.058   3.192  0.2499  0.2050 -0.0963
  628MOL0     C84672   6.587   7.145   3.269  0.2231 -0.1771  0.3688
  628MOL0     C84673   6.557   7.150   3.420  0.3064 -0.1709  1.0657
  628MOL0     C84674   6.677   7.230   3.198 -0.0968 -0.3024  0.4659
  628MOL0     C84675   6.787   7.314   3.273 -0.5139 -0.1532 -0.6410
  628MOL0     O84676   6.873   7.393   3.190  0.2400  0.3365 -0.1742
  628MOL0     C84677   6.942   7.494   3.247 -0.1551 -0.7589 -0.1999
  628MOL0     C84678   6.875   7.620   3.273  0.3287  0.7358  0.4537
  628MOL0     C84679   6.943   7.729   3.325  0.0384 -0.2564 -0.6905
  628MOL0     C84680   7.077   7.702   3.368 -0.1780  0.6596  0.2970
  628MOL0     O84681   7.131   7.824   3.406 -0.1205  0.5862 -0.3940
  628MOL0     C84682   7.271   7.828   3.415 -0.0904  0.0618  1.0892
  628MOL0     C84683   7.333   7.856   3.278  0.2006 -0.0458 -0.1814
  628MOL0     C84684   7.472   7.918   3.273 -0.4393  0.2578 -0.1460
  628MOL0     C84685   7.582   7.832   3.337 -0.0446 -0.0365  0.2371
  628MOL0     C84686   7.720   7.906   3.315 -1.5478  0.8845 -0.0070
  628MOL0     C84687   7.836   7.816   3.362 -0.7210 -0.0375  0.2142
  628MOL0     C84688   7.883   7.703   3.266  0.3838 -0.6220  0.3201
  628MOL0     C84689   7.990   7.609   3.329  0.4996 -0.0022  0.2169
  628MOL0    Cl84690   7.899   7.501   3.443  0.3569  0.1616 -0.4589
  628MOL0     C84691   7.142   7.583   3.344  0.2719  0.1611 -0.1541
  628MOL0     C84692   7.076   7.484   3.276 -1.3645  0.6407  0.2329
  628MOL0     O84693   6.798   7.308   3.398  0.3302 -0.5001  0.1207
  628MOL0     C84694   6.695   7.207   3.063  0.0734 -0.9163  0.3978
  628MOL0     C84695   6.639   7.103   2.994 -0.1241  0.3664  0.0295
  628MOL0     N84696   6.079   6.588   3.046  0.2957 -0.0174  0.5306
  628MOL0     N84697   6.024   6.552   3.151  0.6155 -0.6498  0.4875
  628MOL0     C84698   6.656   6.862   3.676 -0.7724 -0.5562 -0.4625
  628MOL0     C84699   6.759   6.910   3.593 -0.3943 -1.1817  0.4663
  628MOL0     C84700   7.218   6.970   3.472  0.2203  0.2819 -0.3560
  628MOL0     C84701   7.351   6.998   3.510 -0.8110 -0.6463  0.1360
  628MOL0     C84702   7.430   7.071   3.414  0.7123  0.0338 -0.0687
  628MOL0     C84703   7.383   7.101   3.285 -0.3105 -1.3620 -0.1780
  628MOL0     O84704   7.458   7.154   3.182 -0.9761 -0.5344 -0.6980
  628MOL0     C84705   7.602   7.140   3.182 -0.4154 -0.2462  0.6425
  628MOL0     C84706   7.666   7.248   3.086  0.6991  0.1739  0.5694
  628MOL0     C84707   7.804   7.294   3.140  0.6704  1.1858  0.4988
  628MOL0     C84708   7.877   7.377   3.039 -0.1919 -0.2278 -0.0889
  628MOL0     C84709   7.896   7.306   2.910  0.0720  0.2673  0.8926
  628MOL0     C84710   7.907   7.253   2.804 -0.0158 -0.1102 -0.3806
  628MOL0     C84711   7.254   7.078   3.258 -0.2745  0.1464  0.7646
  628MOL0     C84712   7.176   7.012   3.345 -0.1186  0.6219 -0.0901
  628MOL0     H84713   7.005   6.900   3.817  0.8090  2.3553 -4.0008
  628MOL0     H84714   6.853   6.802   3.953 -2.3871 -0.5742  0.8937
  628MOL0     H84715   6.401   6.737   3.956 -2.0575  2.0484  0.1402
  628MOL0     H84716   6.434   6.837   3.817  1.3048  1.7845  1.1409
  628MOL0     H84717   6.516   6.624   3.703 -0.5890  0.8922 -0.8746
  628MOL0     H84718   6.496   6.528   3.860 -1.7697 -0.0223 -0.2995
  628MOL0     H84719   6.263   6.564   3.857  0.5827  1.9608  0.8829
  628MOL0     H84720   6.252   6.657   3.715 -0.5302 -0.4508  0.4017
  628MOL0     H84721   6.334   6.459   3.578  2.9418 -0.2462 -0.2014
  628MOL0     H84722   6.375   6.372   3.710  1.2362  0.2771 -1.4161
  628MOL0     H84723   6.133   6.343   3.769  0.9537  2.6197  1.3487
  628MOL0     H84724   6.088   6.478   3.656 -2.6286 -1.9587  0.7689
  628MOL0     H84725   6.186   6.196   3.603  1.0573  0.6396 -0.1956
  628MOL0     H84726   6.028   6.261   3.559  0.3288 -1.4574 -1.8596
  628MOL0     H84727   6.260   6.366   3.410 -0.3067  0.8463 -0.3003
  628MOL0     H84728   6.167   6.220   3.360  0.4338 -1.4677  2.1084
  628MOL0     H84729   6.054   6.489   3.436  0.1040 -4.0304  2.6619
  628MOL0     H84730   5.970   6.368   3.357 -1.3425  3.1607  3.2069
  628MOL0     H84731   6.307   6.384   3.186  0.4720  1.6343  1.1510
  628MOL0     H84732   6.406   6.503   3.010  1.6997  0.1123 -0.7910
  628MOL0     H84733   6.310   6.454   2.873  4.4673  1.0475 -0.1954
  628MOL0     H84734   6.302   6.743   3.000  0.7382 -1.6450  0.9810
  628MOL0     H84735   6.251   6.706   2.836 -1.4497 -0.7836  0.9167
  628MOL0     H84736   6.488   6.686   2.769 -1.8464  1.5026 -1.1796
  628MOL0     H84737   6.533   6.658   2.941 -1.3116 -2.8550 -1.2862
  628MOL0     H84738   6.438   6.908   2.796 -0.4924 -2.6991 -0.5868
  628MOL0     H84739   6.598   6.895   2.840  0.1520 -0.0415 -1.1235
  628MOL0     H84740   6.425   6.991   3.231  0.1055 -0.7618 -1.9065
  628MOL0     H84741   6.638   7.132   3.491 -0.4441  0.6109  2.1489
  628MOL0     H84742   6.514   7.248   3.444 -0.2739  0.3408 -1.6865
  628MOL0     H84743   6.494   7.063   3.440  0.8638 -0.7419  0.4007
  628MOL0     H84744   6.768   7.616   3.255  0.3448 -3.8943  0.2357
  628MOL0     H84745   6.893   7.825   3.338  3.3518  1.5985 -0.2072
  628MOL0     H84746   7.285   7.914   3.481  0.3594 -0.0813  1.1762
  628MOL0     H84747   7.321   7.741   3.457 -1.0546 -1.3473 -0.5429
  628MOL0     H84748   7.318   7.776   3.205 -2.4516  1.7714 -1.8134
  628MOL0     H84749   7.268   7.928   3.229 -2.2966 -1.7951  0.3840
  628MOL0     H84750   7.456   8.010   3.331 -0.0048  1.8106 -2.3851
  628MOL0     H84751   7.505   7.948   3.174  0.2410  2.9760  0.8184
  628MOL0     H84752   7.572   7.820   3.445 -0.1618  1.3615  0.3963
  628MOL0     H84753   7.587   7.731   3.294 -1.1365  1.3753 -3.5412
  628MOL0     H84754   7.733   7.994   3.378 -0.0508 -1.1588  2.7133
  628MOL0     H84755   7.737   7.939   3.212 -0.9905 -0.1511 -0.2652
  628MOL0     H84756   7.917   7.888   3.379 -0.2814 -0.5193  0.1794
  628MOL0     H84757   7.811   7.774   3.459 -0.0623  0.1021  0.4502
  628MOL0     H84758   7.918   7.754   3.176 -0.9655 -1.7980 -0.9218
  628MOL0     H84759   7.805   7.638   3.226  0.8632  0.4101 -2.4475
  628MOL0     H84760   8.068   7.667   3.380  1.3602 -0.3455 -0.6691
  628MOL0     H84761   8.044   7.545   3.258 -1.3653 -2.9712  1.2973
  628MOL0     H84762   7.246   7.571   3.371 -0.2161 -2.5915  0.7869
  628MOL0     H84763   7.133   7.394   3.252 -1.4598  0.8054 -0.6432
  628MOL0     H84764   6.773   7.254   3.005 -0.3543  0.4122  0.8634
  628MOL0     H84765   6.662   7.092   2.889  2.1122  0.3710  0.4739
  628MOL0     H84766   6.557   6.847   3.634 -0.0850  0.3137 -2.5188
  628MOL0     H84767   6.732   6.934   3.490 -0.1709 -0.7080  0.5156
  628MOL0     H84768   7.388   6.974   3.609  0.6345 -1.3954 -0.5574
  628MOL0     H84769   7.530   7.107   3.434  1.6410 -1.5718 -1.5070
  628MOL0     H84770   7.640   7.161   3.282 -1.8136 -1.4135  1.4594
  628MOL0     H84771   7.629   7.039   3.149  1.7303  0.1675  0.9648
  628MOL0     H84772   7.591   7.327   3.077 -0.8326 -1.4371 -2.8410
  628MOL0     H84773   7.666   7.196   2.990 -2.3740 -1.1562  1.1694
  628MOL0     H84774   7.872   7.214   3.170  0.3405  1.2584  1.4663
  628MOL0     H84775   7.791   7.352   3.232  0.4949  1.8815  0.0411
  628MOL0     H84776   7.968   7.415   3.086 -1.3151 -1.8046  3.6585
  628MOL0     H84777   7.822   7.464   3.002  1.7298  0.9316 -0.3213
  628MOL0     H84778   7.923   7.200   2.712 -1.4207 -0.2717 -0.5477
  628MOL0     H84779   7.219   7.099   3.158 -0.4550 -1.1833  0.5246
  628MOL0     H84780   7.074   6.991   3.314  0.8447 -1.6473 -2.1077
  629MOL0     O84781   2.759   8.291   6.869  0.5345  0.6744  0.0762
  629MOL0     C84782   2.768   8.387   6.795  1.0740  0.2274  0.4114
  629MOL0     O84783   2.858   8.399   6.691  0.1012 -0.3035  0.1604
  629MOL0     C84784   2.994   8.365   6.723 -0.1903  0.0731  0.1875
  629MOL0     C84785   3.062   8.266   6.656  0.1907 -0.9907 -0.6348
  629MOL0     C84786   3.199   8.243   6.687  0.7686 -1.0674  0.0255
  629MOL0     C84787   3.269   8.315   6.785  0.1440 -0.1038  0.8619
  629MOL0     O84788   3.405   8.305   6.790 -0.5540  0.6243  0.6017
  629MOL0     C84789   3.485   8.348   6.899 -0.0841  0.2993  0.6226
  629MOL0     C84790   3.626   8.281   6.897  0.8606  0.5352  0.3446
  629MOL0     C84791   3.620   8.155   6.984  0.2339  0.8670  0.4890
  629MOL0     C84792   3.587   8.021   6.916 -0.4833  0.0159 -1.6071
  629MOL0     C84793   3.646   7.899   7.001 -0.8171  0.1203  0.2529
  629MOL0     C84794   3.606   7.896   7.147 -0.0867  0.3627  0.2423
  629MOL0     C84795   3.452   7.876   7.184  0.0645 -0.6678 -0.2427
  629MOL0     C84796   3.387   7.991   7.260 -0.3098  0.9013  0.1950
  629MOL0     N84797   3.239   7.998   7.236  0.2149 -0.1799 -0.0431
  629MOL0     C84798   3.187   8.019   7.109  0.0355 -0.6982  0.3792
  629MOL0     C84799   3.057   8.038   7.134 -0.3469 -1.1099 -0.2910
  629MOL0     C84800   2.957   8.053   7.023 -0.3913  0.0977 -0.1190
  629MOL0     C84801   2.918   7.911   6.961  0.1088 -0.1451 -0.8478
  629MOL0     C84802   2.800   7.840   7.041 -0.4271 -1.1772 -0.7413
  629MOL0     C84803   2.772   7.719   6.961  0.6981  0.2750  0.1144
  629MOL0     O84804   2.676   7.633   7.032  0.0561 -0.0512 -0.6061
  629MOL0     C84805   2.652   7.499   6.994  0.1534 -0.0320 -1.0338
  629MOL0     C84806   2.661   7.458   6.863 -0.3166 -0.2619  0.6361
  629MOL0     C84807   2.631   7.325   6.825 -0.1240  0.7838  0.2042
  629MOL0     C84808   2.625   7.286   6.677  0.3165 -1.2628 -0.7690
  629MOL0     C84809   2.603   7.227   6.931  0.0008  0.3862 -0.8520
  629MOL0     C84810   2.581   7.089   6.905  0.2083 -0.2497 -0.3442
  629MOL0     O84811   2.486   7.039   6.981 -0.8859  0.2577  0.5624
  629MOL0     C84812   2.476   6.907   6.986  0.0031  0.5909 -0.2534
  629MOL0     C84813   2.564   6.818   7.045 -0.9379 -1.2022 -0.2136
  629MOL0     C84814   2.535   6.680   7.051 -0.1480 -0.2989 -0.9973
  629MOL0     C84815   2.420   6.627   6.990  0.3428  1.1217  0.4829
  629MOL0     O84816   2.386   6.487   6.992  0.2265  0.9248 -0.7854
  629MOL0     C84817   2.493   6.389   6.996 -0.2764 -0.4457 -0.3957
  629MOL0     C84818   2.597   6.403   6.880  0.5139 -0.4241  0.5833
  629MOL0     C84819   2.579   6.271   6.800 -0.8367 -0.2837  1.0769
  629MOL0     C84820   2.685   6.296   6.691  0.6757  0.4807 -0.3759
  629MOL0     C84821   2.676   6.184   6.588  0.5010  0.5192 -0.2565
  629MOL0     C84822   2.780   6.193   6.476  0.6649 -0.6953 -1.0562
  629MOL0     C84823   2.737   6.133   6.338  0.9213 -0.0889 -0.9273
  629MOL0     C84824   2.845   6.153   6.235 -0.2437  0.0525 -0.2261
  629MOL0    Cl84825   2.882   6.333   6.209  0.3798  0.0237 -0.6726
  629MOL0     C84826   2.328   6.709   6.927 -1.2150  0.1227  0.1680
  629MOL0     C84827   2.360   6.853   6.927 -0.3505 -0.0362  0.4206
  629MOL0     O84828   2.636   7.035   6.807 -0.5421 -0.9759 -0.3361
  629MOL0     C84829   2.589   7.278   7.065 -0.0261 -0.2175 -0.1199
  629MOL0     C84830   2.612   7.413   7.103 -0.0928  0.3409 -0.4320
  629MOL0     N84831   3.035   8.017   7.272 -0.4530 -0.6065  0.1345
  629MOL0     N84832   3.153   8.003   7.331  0.0121 -0.5514 -0.8905
  629MOL0     C84833   3.193   8.412   6.853 -0.4700 -0.3108 -0.5894
  629MOL0     C84834   3.059   8.430   6.831  0.3228 -0.2521 -0.8745
  629MOL0     C84835   2.663   8.488   6.803  0.3080  0.2352  0.0241
  629MOL0     C84836   2.560   8.488   6.890  0.4223  0.6608 -0.3504
  629MOL0     C84837   2.469   8.595   6.904  0.3259  0.4264  0.0518
  629MOL0     C84838   2.490   8.715   6.833  0.0577 -0.3761 -0.1797
  629MOL0     O84839   2.426   8.829   6.858 -0.5880 -0.3177 -0.1434
  629MOL0     C84840   2.327   8.827   6.957  0.3820  1.0534 -0.4397
  629MOL0     C84841   2.247   8.960   6.941  0.1704 -0.1476  0.6309
  629MOL0     C84842   2.131   8.971   7.046  0.2968 -0.5047 -0.2454
  629MOL0     C84843   2.010   9.020   6.971  0.0886  1.1152 -0.5859
  629MOL0     C84844   2.019   9.158   6.935  0.1922  0.7667 -1.0025
  629MOL0     C84845   2.016   9.275   6.913  0.1438 -0.8632  0.0622
  629MOL0     C84846   2.587   8.717   6.730  0.1256  0.9493  0.0636
  629MOL0     C84847   2.667   8.596   6.707 -0.0204  0.0057 -0.3217
  629MOL0     H84848   3.022   8.215   6.569 -2.4243  1.9681 -1.3812
  629MOL0     H84849   3.252   8.182   6.615 -2.2955 -3.4123 -0.4919
  629MOL0     H84850   3.504   8.455   6.880 -4.6313  1.0411 -0.9703
  629MOL0     H84851   3.432   8.348   6.995 -1.7624  0.4643 -0.2734
  629MOL0     H84852   3.662   8.254   6.797 -1.0171 -1.0216  0.0220
  629MOL0     H84853   3.707   8.337   6.943  2.6972 -1.1637 -0.6827
  629MOL0     H84854   3.719   8.134   7.025  0.1132 -2.4910 -0.6272
  629MOL0     H84855   3.556   8.158   7.073  1.9855  0.7939  1.8059
  629MOL0     H84856   3.480   8.018   6.894 -1.4612  0.1060  2.3300
  629MOL0     H84857   3.650   8.025   6.827  5.3136  0.0672  1.9658
  629MOL0     H84858   3.607   7.810   6.951 -0.7530  0.4813 -0.4600
  629MOL0     H84859   3.755   7.908   7.000 -0.7988 -0.0653  0.5998
  629MOL0     H84860   3.658   7.809   7.189  0.3451 -0.5763 -2.0674
  629MOL0     H84861   3.642   7.984   7.201 -0.1665 -0.1431  1.1391
  629MOL0     H84862   3.398   7.851   7.093 -2.9979  0.1453  1.2263
  629MOL0     H84863   3.436   7.791   7.251  2.1170 -2.8853 -2.3462
  629MOL0     H84864   3.422   8.091   7.232 -2.5034  2.6187  3.0176
  629MOL0     H84865   3.417   7.979   7.365 -2.0382  1.3630  0.7811
  629MOL0     H84866   3.236   8.021   7.012  2.5286 -1.7267  1.5027
  629MOL0     H84867   2.877   8.113   7.067  1.4898  1.7328  1.2584
  629MOL0     H84868   3.002   8.115   6.945 -1.1892  1.6098  0.5813
  629MOL0     H84869   3.005   7.845   6.957 -1.3123 -2.1142 -0.5060
  629MOL0     H84870   2.888   7.927   6.857  3.5577  2.6549 -1.6469
  629MOL0     H84871   2.712   7.902   7.059  0.4099  0.9850 -3.3203
  629MOL0     H84872   2.831   7.807   7.140 -0.2678 -2.7967 -1.3096
  629MOL0     H84873   2.861   7.664   6.928  0.0209 -1.8842  1.7456
  629MOL0     H84874   2.726   7.747   6.866 -2.2367 -1.7790  0.8237
  629MOL0     H84875   2.667   7.536   6.787  1.2009 -0.9625 -0.0044
  629MOL0     H84876   2.537   7.222   6.663 -0.3691 -0.6103  0.3704
  629MOL0     H84877   2.609   7.377   6.618  0.5297 -0.3708  0.5179
  629MOL0     H84878   2.717   7.239   6.640  0.6331 -2.8392  1.8007
  629MOL0     H84879   2.649   6.858   7.100 -1.9976  1.5551 -0.4169
  629MOL0     H84880   2.609   6.622   7.104 -2.5832 -0.4830  2.5747
  629MOL0     H84881   2.553   6.409   7.086 -1.4171  1.4752  0.0030
  629MOL0     H84882   2.457   6.286   7.002 -3.4604  0.6304  1.0920
  629MOL0     H84883   2.575   6.495   6.825  0.4162 -1.6323 -1.5070
  629MOL0     H84884   2.699   6.414   6.917  0.8331 -2.9618  0.6155
  629MOL0     H84885   2.482   6.248   6.753  1.5386 -3.0675 -3.0858
  629MOL0     H84886   2.605   6.180   6.854  3.6128  0.7524  1.0069
  629MOL0     H84887   2.666   6.387   6.634  2.5248 -0.8251 -3.2857
  629MOL0     H84888   2.783   6.298   6.739  0.8237 -1.3176 -0.5264
  629MOL0     H84889   2.575   6.172   6.548  1.1430 -2.8608 -1.1694
  629MOL0     H84890   2.693   6.094   6.648  2.5554 -1.3354 -3.3305
  629MOL0     H84891   2.805   6.299   6.467 -0.7490 -0.5010 -3.8355
  629MOL0     H84892   2.867   6.140   6.516 -0.2044 -2.1227 -0.9986
  629MOL0     H84893   2.641   6.173   6.306  0.3242 -2.1852 -1.8887
  629MOL0     H84894   2.722   6.025   6.348  2.5129 -0.5046 -2.4338
  629MOL0     H84895   2.816   6.110   6.139  0.1356  1.2216 -0.8904
  629MOL0     H84896   2.936   6.099   6.264  0.2082  0.5965 -0.6110
  629MOL0     H84897   2.240   6.670   6.876  0.0760 -1.8222 -0.6761
  629MOL0     H84898   2.295   6.930   6.886  0.6401  1.2764  1.2402
  629MOL0     H84899   2.547   7.210   7.139  0.1893 -1.6357 -1.2372
  629MOL0     H84900   2.618   7.458   7.201  1.4162 -2.5283  0.9209
  629MOL0     H84901   3.231   8.457   6.944 -1.8347  0.8220 -0.5438
  629MOL0     H84902   2.996   8.500   6.886 -2.4681 -2.4084 -1.1196
  629MOL0     H84903   2.531   8.403   6.951 -0.8477  1.3764  0.0690
  629MOL0     H84904   2.386   8.575   6.972 -0.3880  1.2363 -0.5558
  629MOL0     H84905   2.258   8.743   6.960 -0.0299  1.3725  2.8510
  629MOL0     H84906   2.383   8.825   7.051 -0.9454  3.9213  0.5242
  629MOL0     H84907   2.214   8.978   6.838 -4.0900  5.0304  2.3938
  629MOL0     H84908   2.310   9.048   6.955 -1.2939  1.0417  0.0228
  629MOL0     H84909   2.153   9.041   7.127  0.8709 -1.2592  0.2739
  629MOL0     H84910   2.107   8.868   7.075  0.1566 -0.7227 -1.1288
  629MOL0     H84911   1.926   9.016   7.041  0.1867  2.3831 -0.3724
  629MOL0     H84912   1.992   8.956   6.884  1.2740 -2.0792  1.3202
  629MOL0     H84913   2.020   9.373   6.869 -2.6892 -0.2807  0.8850
  629MOL0     H84914   2.616   8.806   6.676 -1.0541 -0.1986 -2.6261
  629MOL0     H84915   2.745   8.603   6.633  0.5861 -3.3423 -0.1453
  630MOL0     O84916   6.415   7.136   6.804  0.6972 -0.4461 -0.0621
  630MOL0     C84917   6.313   7.182   6.856 -0.0882 -0.6862  1.3243
  630MOL0     O84918   6.230   7.114   6.934  0.0273 -0.2458 -0.5240
  630MOL0     C84919   6.243   6.975   6.943  0.3316  0.0325  0.2611
  630MOL0     C84920   6.224   6.894   6.836  0.2770  0.8161  0.2848
  630MOL0     C84921   6.220   6.756   6.854  0.0725  0.4281 -0.5621
  630MOL0     C84922   6.220   6.693   6.979 -0.5854  0.3183 -0.4224
  630MOL0     O84923   6.206   6.557   6.986 -0.8397 -0.5834  0.0670
  630MOL0     C84924   6.164   6.501   7.106 -0.8065 -0.6808 -0.2981
  630MOL0     C84925   6.180   6.350   7.065 -0.2814  1.1535  0.1734
  630MOL0     C84926   6.087   6.312   6.948  0.2337  0.8105  0.7675
  630MOL0     C84927   6.051   6.162   6.928  0.3644  0.3157 -0.0049
  630MOL0     C84928   6.002   6.149   6.786  0.0460 -0.3602 -0.4620
  630MOL0     C84929   5.951   6.010   6.761 -0.8575 -0.1012 -0.6454
  630MOL0     C84930   6.060   5.902   6.780 -0.0623 -0.5293  0.1814
  630MOL0     C84931   6.016   5.767   6.718  0.1941  0.2346  1.1907
  630MOL0     N84932   6.088   5.668   6.793 -0.5312  0.7968  0.6816
  630MOL0     C84933   6.212   5.621   6.759  0.3833  0.2612 -0.4825
  630MOL0     C84934   6.250   5.554   6.869  0.1683  0.2830  0.0549
  630MOL0     C84935   6.382   5.493   6.893 -0.5610 -0.3013 -1.2446
  630MOL0     C84936   6.467   5.598   6.983 -0.4322 -0.6490  0.4970
  630MOL0     C84937   6.593   5.549   7.060  0.2445  0.8982 -0.1065
  630MOL0     C84938   6.568   5.426   7.152  0.3648 -0.6863  0.5253
  630MOL0     O84939   6.675   5.420   7.252 -0.0079 -0.0203  0.4554
  630MOL0     C84940   6.763   5.315   7.263 -0.0214 -0.1633 -0.2284
  630MOL0     C84941   6.732   5.188   7.222 -0.3913  0.8506  0.6251
  630MOL0     C84942   6.835   5.092   7.224 -0.6597  0.0946  0.0194
  630MOL0     C84943   6.791   4.958   7.207 -0.0568 -0.6373 -0.6513
  630MOL0     C84944   6.965   5.118   7.278  0.6324 -0.1725  0.3073
  630MOL0     C84945   7.065   5.016   7.305 -1.0218  0.4497 -0.3314
  630MOL0     O84946   7.170   5.058   7.395  0.0324  0.0985  0.4606
  630MOL0     C84947   7.224   4.957   7.471 -1.0431 -0.4885 -0.2998
  630MOL0     C84948   7.164   4.833   7.495 -0.5087 -0.1033 -0.1392
  630MOL0     C84949   7.223   4.733   7.579  0.1693  0.0126 -0.2986
  630MOL0     C84950   7.355   4.742   7.627  0.4915 -0.6864 -0.5300
  630MOL0     O84951   7.433   4.661   7.697  0.0447  0.2434  0.2959
  630MOL0     C84952   7.369   4.555   7.772  0.9128 -0.1763 -0.3186
  630MOL0     C84953   7.448   4.513   7.894 -0.8705  0.1321  0.2861
  630MOL0     C84954   7.545   4.412   7.856 -1.0427 -0.3446 -0.2959
  630MOL0     C84955   7.662   4.409   7.959  0.3430 -0.1137  0.7270
  630MOL0     C84956   7.648   4.351   8.092  0.3486  0.6901  0.3566
  630MOL0     C84957   7.784   4.315   8.160 -0.3494  1.3551  0.4094
  630MOL0     C84958   7.860   4.434   8.208 -0.3347 -0.0647  1.2385
  630MOL0     C84959   7.982   4.392   8.284 -0.1297 -0.6420 -0.6251
  630MOL0    Cl84960   7.987   4.275   8.412  0.0058  0.1659  0.1856
  630MOL0     C84961   7.416   4.873   7.606 -0.4284  0.7054  1.2209
  630MOL0     C84962   7.348   4.974   7.531 -0.2574  0.6021 -0.3064
  630MOL0     O84963   7.067   4.910   7.241 -0.6495  0.9246 -0.1299
  630MOL0     C84964   6.991   5.248   7.328 -0.1645  0.3035 -0.2352
  630MOL0     C84965   6.891   5.341   7.320 -0.6119 -1.0604  0.5086
  630MOL0     N84966   6.151   5.561   6.961 -0.1281 -0.2180  1.2484
  630MOL0     N84967   6.056   5.633   6.916 -0.3133 -1.6682  0.0747
  630MOL0     C84968   6.240   6.775   7.087  0.5116 -0.0562  0.7886
  630MOL0     C84969   6.249   6.915   7.068 -0.0129  0.7593  0.3348
  630MOL0     C84970   6.271   7.318   6.818  0.7542  0.0144  0.0335
  630MOL0     C84971   6.154   7.369   6.871  0.0767 -0.7849 -0.1994
  630MOL0     C84972   6.108   7.491   6.822  0.2813  0.1700  0.5086
  630MOL0     C84973   6.177   7.560   6.717 -0.4809  0.4468  0.6499
  630MOL0     O84974   6.144   7.676   6.667  0.3071 -0.6225  0.1234
  630MOL0     C84975   6.028   7.665   6.575 -0.2462  0.5632 -0.6536
  630MOL0     C84976   5.949   7.797   6.609 -0.6264  0.1989  0.7609
  630MOL0     C84977   5.803   7.787   6.547 -0.3207  0.5952  0.5220
  630MOL0     C84978   5.717   7.909   6.594  0.1482 -0.3316  0.0204
  630MOL0     C84979   5.577   7.897   6.552 -0.4074  1.1124  0.0346
  630MOL0     C84980   5.459   7.903   6.544 -0.0224  0.8015 -0.4490
  630MOL0     C84981   6.311   7.519   6.685  0.1868 -0.8247 -0.5959
  630MOL0     C84982   6.348   7.393   6.724 -0.2389 -0.0858  0.2539
  630MOL0     H84983   6.223   6.945   6.741  1.0269  1.2470  0.5018
  630MOL0     H84984   6.207   6.688   6.770  2.8534 -0.3709 -0.4597
  630MOL0     H84985   6.225   6.526   7.193 -1.5794  0.2718 -0.0132
  630MOL0     H84986   6.068   6.535   7.145  1.1957  1.4010  3.3764
  630MOL0     H84987   6.283   6.337   7.030 -0.2049  0.2901  0.6748
  630MOL0     H84988   6.156   6.278   7.144  1.3453 -2.7071 -2.5344
  630MOL0     H84989   5.999   6.372   6.974 -0.4766  0.4004 -0.5830
  630MOL0     H84990   6.127   6.358   6.857  0.9079  0.8081  1.0550
  630MOL0     H84991   6.142   6.102   6.937 -0.9763 -1.5409  2.5629
  630MOL0     H84992   5.968   6.134   6.994  1.8739  2.5803  3.0715
  630MOL0     H84993   5.928   6.229   6.779  0.5933  0.1244 -0.7765
  630MOL0     H84994   6.086   6.180   6.724  1.4379  1.0657  1.9996
  630MOL0     H84995   5.861   6.000   6.821 -1.4556 -1.7502 -1.7463
  630MOL0     H84996   5.918   6.015   6.656 -1.6781  1.7324 -0.3364
  630MOL0     H84997   6.153   5.940   6.737 -0.1195 -2.0638 -1.4304
  630MOL0     H84998   6.088   5.885   6.885  1.2351  3.3971  0.6333
  630MOL0     H84999   6.042   5.763   6.612 -0.0932  3.1786  0.9449
  630MOL0     H85000   5.910   5.743   6.731  0.5697 -2.2666  0.2581
  630MOL0     H85001   6.261   5.624   6.662 -1.3462 -2.4174 -1.5650
  630MOL0     H85002   6.363   5.410   6.961 -0.4647  1.4179  1.0246
  630MOL0     H85003   6.428   5.468   6.797  0.7285  2.6532 -1.5359
  630MOL0     H85004   6.414   5.660   7.055  0.5619  1.5941 -0.6074
  630MOL0     H85005   6.513   5.669   6.914  0.4436 -0.7879  0.9171
  630MOL0     H85006   6.638   5.616   7.134  0.8239 -2.2104  2.6031
  630MOL0     H85007   6.674   5.536   6.987 -0.5916  0.9068 -1.0637
  630MOL0     H85008   6.565   5.340   7.084  1.3721 -1.0380  0.9054
  630MOL0     H85009   6.471   5.425   7.203  0.7728  0.8294  1.4020
  630MOL0     H85010   6.635   5.164   7.180  0.8511 -1.0578 -1.3497
  630MOL0     H85011   6.850   4.913   7.126  0.5696 -4.9624  1.8924
  630MOL0     H85012   6.789   4.913   7.307  0.4580 -2.1040 -1.2695
  630MOL0     H85013   6.690   4.958   7.163 -2.1393  0.2980  3.6289
  630MOL0     H85014   7.066   4.815   7.452 -0.3035  1.2542 -1.2495
  630MOL0     H85015   7.173   4.638   7.597  1.0832  0.1402  4.1897
  630MOL0     H85016   7.282   4.606   7.815  1.3768  2.4352 -2.2316
  630MOL0     H85017   7.333   4.475   7.707  2.3782 -0.6598 -0.5587
  630MOL0     H85018   7.492   4.600   7.943  2.5494 -0.2297 -1.8110
  630MOL0     H85019   7.379   4.467   7.965  2.3156 -2.0908  2.2427
  630MOL0     H85020   7.586   4.431   7.757 -1.1618  3.5694  0.2774
  630MOL0     H85021   7.492   4.317   7.870 -0.5453 -0.2897  2.5420
  630MOL0     H85022   7.732   4.343   7.906 -1.3738  0.3153 -2.2697
  630MOL0     H85023   7.707   4.508   7.965 -0.9436  0.8002 -2.5938
  630MOL0     H85024   7.587   4.262   8.108  2.9459 -1.0735  1.0614
  630MOL0     H85025   7.604   4.427   8.157  1.3723  1.5991  0.0091
  630MOL0     H85026   7.766   4.245   8.243  0.3023 -1.4375 -1.6503
  630MOL0     H85027   7.851   4.260   8.093  1.1009  0.4016  2.5336
  630MOL0     H85028   7.786   4.495   8.260 -2.9194 -1.4182 -0.6058
  630MOL0     H85029   7.890   4.484   8.115 -2.3386 -0.8250  0.1075
  630MOL0     H85030   8.044   4.475   8.319  3.1134 -3.1132 -0.0819
  630MOL0     H85031   8.047   4.333   8.219 -0.5807 -0.7358 -0.9916
  630MOL0     H85032   7.512   4.903   7.646 -0.2432  1.8055  0.0170
  630MOL0     H85033   7.399   5.067   7.509 -1.1815  0.9124 -1.1902
  630MOL0     H85034   7.086   5.269   7.376 -0.4594 -0.6684  0.8471
  630MOL0     H85035   6.902   5.444   7.354 -0.3510 -1.1683  0.7601
  630MOL0     H85036   6.267   6.722   7.178  4.0633 -1.9529 -1.1425
  630MOL0     H85037   6.280   6.972   7.155 -1.2738  0.3531  1.0812
  630MOL0     H85038   6.104   7.319   6.953 -0.6227  0.8062  0.3996
  630MOL0     H85039   6.017   7.531   6.867  0.5102  0.7800  0.4371
  630MOL0     H85040   6.063   7.653   6.472  0.6343 -2.7849 -0.0921
  630MOL0     H85041   5.965   7.581   6.605  1.6685 -0.3415  1.1447
  630MOL0     H85042   5.996   7.878   6.552 -1.2604  1.7192  2.2987
  630MOL0     H85043   5.957   7.817   6.716  2.5868  0.7198  0.5006
  630MOL0     H85044   5.753   7.691   6.565  3.4603 -2.2457 -2.4721
  630MOL0     H85045   5.821   7.790   6.439 -1.8048 -0.0628  0.2325
  630MOL0     H85046   5.759   8.001   6.553  1.3093 -0.3872  1.0308
  630MOL0     H85047   5.719   7.916   6.704  3.9420 -2.2566  0.2420
  630MOL0     H85048   5.356   7.911   6.517 -0.3319  0.1281  0.4900
  630MOL0     H85049   6.381   7.588   6.639 -0.6066  1.5579  1.5467
  630MOL0     H85050   6.444   7.358   6.687 -0.7163  0.9374 -2.1196
  631MOL0     O85051   4.540   9.971  10.974 -0.0043 -0.3782  0.0690
  631MOL0     C85052   4.584  10.073  11.017  0.5255  0.3743  0.3402
  631MOL0     O85053   4.531  10.199  11.001  0.4144 -0.6727  0.4471
  631MOL0     C85054   4.447  10.229  10.897  0.1663 -0.5172 -0.2736
  631MOL0     C85055   4.413  10.157  10.786  0.2570 -0.3206 -0.5396
  631MOL0     C85056   4.334  10.205  10.688  0.0283  0.3495  0.5899
  631MOL0     C85057   4.277  10.317  10.700 -0.0028  0.4462  0.4086
  631MOL0     O85058   4.179  10.339  10.607 -0.2981  0.2299 -0.4746
  631MOL0     C85059   4.175  10.464  10.546 -0.1760 -0.3653 -1.1018
  631MOL0     C85060   4.085  10.472  10.428  0.2828 -0.2093 -0.7733
  631MOL0     C85061   4.122  10.376  10.322 -0.0764  0.2293  0.8175
  631MOL0     C85062   4.012  10.279  10.274  0.0601 -0.4443 -0.7574
  631MOL0     C85063   4.059  10.191  10.154 -0.5884 -0.0284 -0.5622
  631MOL0     C85064   4.013  10.042  10.174 -0.1230  0.0780 -0.5135
  631MOL0     C85065   3.862  10.031  10.200  0.3328  0.7010  0.4110
  631MOL0     C85066   3.814   9.890  10.168 -0.9432  0.8844  1.1485
  631MOL0     N85067   3.677   9.864  10.211 -0.5975  0.8015  1.5105
  631MOL0     C85068   3.583   9.883  10.116 -0.1263 -0.8149 -0.1041
  631MOL0     C85069   3.465   9.891  10.184  0.0244 -1.1011 -0.5889
  631MOL0     C85070   3.320   9.896  10.124 -0.0616 -0.9797  0.4001
  631MOL0     C85071   3.251  10.029  10.170 -0.0703  0.9265 -0.1570
  631MOL0     C85072   3.147  10.068  10.065  0.5185  0.3569 -0.2990
  631MOL0     C85073   3.086  10.200  10.102  0.4946 -1.1245  0.0641
  631MOL0     O85074   2.959  10.195  10.035  0.0428  1.1795  0.5039
  631MOL0     C85075   2.856  10.274  10.070  0.3921  0.7107 -0.4555
  631MOL0     C85076   2.730  10.258  10.013  0.4922  0.1765  0.9876
  631MOL0     C85077   2.624  10.348  10.053 -0.1155  0.4573  0.6025
  631MOL0     C85078   2.494  10.326   9.983 -0.5351 -0.2554 -0.1311
  631MOL0     C85079   2.652  10.445  10.150  0.4389  0.9325 -0.5503
  631MOL0     C85080   2.562  10.550  10.183 -0.7377  0.5786  0.4344
  631MOL0     O85081   2.609  10.680  10.162  0.4217  0.3292  0.4710
  631MOL0     C85082   2.528  10.779  10.219 -0.3926 -1.2343  0.5358
  631MOL0     C85083   2.394  10.793  10.176 -0.3203 -0.9958  0.3008
  631MOL0     C85084   2.301  10.887  10.228  0.5582  0.4748  0.8211
  631MOL0     C85085   2.348  10.971  10.325  0.5010 -0.9637  1.3421
  631MOL0     O85086   2.265  11.061  10.390 -0.2278 -0.1520  0.1353
  631MOL0     C85087   2.156  11.011  10.466  0.0706  0.2739  0.3084
  631MOL0     C85088   2.079  11.131  10.526 -0.4386 -0.4419 -0.3233
  631MOL0     C85089   2.074  11.261  10.432 -1.0244  0.8407 -0.1186
  631MOL0     C85090   1.969  11.349  10.480  0.3293 -0.5334 -0.1973
  631MOL0     C85091   1.972  11.466  10.389  1.4528 -0.2796 -0.2029
  631MOL0     C85092   2.028  11.591  10.460  0.3989  0.1906  0.5677
  631MOL0     C85093   2.032  11.718  10.375 -0.1906 -0.5746 -1.1345
  631MOL0     C85094   2.128  11.691  10.256  0.1186 -0.1508 -0.0764
  631MOL0    Cl85095   2.296  11.679  10.325 -0.0259  0.3150 -0.1352
  631MOL0     C85096   2.479  10.970  10.363 -0.4700  0.3670  0.0454
  631MOL0     C85097   2.568  10.873  10.315 -0.7016  0.6018  0.6283
  631MOL0     O85098   2.458  10.515  10.231 -0.4423  0.1440  0.2888
  631MOL0     C85099   2.771  10.464  10.201  0.2275 -0.1821  0.7657
  631MOL0     C85100   2.872  10.373  10.164 -1.0775  0.9914  0.1371
  631MOL0     N85101   3.503   9.891  10.320 -0.3066 -0.1154 -0.0480
  631MOL0     N85102   3.617   9.837  10.326 -0.4392  0.3032 -0.9875
  631MOL0     C85103   4.295  10.403  10.816  0.6195 -0.4147 -0.4174
  631MOL0     C85104   4.390  10.364  10.911  0.2069  0.5205 -0.8611
  631MOL0     C85105   4.700  10.064  11.112  0.3908 -0.5348 -0.0199
  631MOL0     C85106   4.760  10.182  11.157  0.0638  0.8210  0.7265
  631MOL0     C85107   4.848  10.186  11.263  0.6967  0.0890 -0.0441
  631MOL0     C85108   4.895  10.064  11.314  0.6022 -0.3330  0.0310
  631MOL0     O85109   4.992  10.089  11.404  0.1469  0.3531 -1.2094
  631MOL0     C85110   5.044   9.965  11.464 -0.2872  0.0243 -0.2242
  631MOL0     C85111   5.169   9.980  11.554  0.0922  0.1210 -0.8685
  631MOL0     C85112   5.126  10.059  11.682  0.3335  0.2684 -1.0228
  631MOL0     C85113   5.251  10.071  11.771 -0.6535  0.3171 -0.1998
  631MOL0     C85114   5.339  10.183  11.725  0.6541  0.2207 -0.1849
  631MOL0     C85115   5.403  10.277  11.689  1.2175 -0.5624 -0.5088
  631MOL0     C85116   4.844   9.939  11.274 -0.7847  0.9436 -0.2751
  631MOL0     C85117   4.745   9.945  11.167  0.6812  0.1334 -0.1352
  631MOL0     H85118   4.457  10.059  10.773  2.7824  0.9766 -2.6723
  631MOL0     H85119   4.290  10.143  10.610 -0.9054 -0.1190  1.4663
  631MOL0     H85120   4.144  10.540  10.618 -0.2408  0.2628 -1.7773
  631MOL0     H85121   4.274  10.499  10.513 -0.7260 -0.5233 -3.0445
  631MOL0     H85122   3.979  10.472  10.457 -0.0185  0.9793 -1.7883
  631MOL0     H85123   4.100  10.577  10.402 -3.8999  1.2726  1.7865
  631MOL0     H85124   4.152  10.447  10.244  2.9039 -0.8170  0.8953
  631MOL0     H85125   4.212  10.324  10.355 -0.0939 -0.6307 -0.4256
  631MOL0     H85126   4.000  10.210  10.358 -0.8623 -1.0840 -1.3992
  631MOL0     H85127   3.919  10.334  10.252 -0.3449 -0.7661  0.0830
  631MOL0     H85128   4.011  10.232  10.064 -3.0975 -0.8795  0.3113
  631MOL0     H85129   4.166  10.204  10.135 -1.3729  3.6481 -3.8476
  631MOL0     H85130   4.043   9.983  10.087  0.2898 -2.2834  1.1576
  631MOL0     H85131   4.068  10.004  10.261  0.8632  0.3290 -1.0095
  631MOL0     H85132   3.840  10.049  10.306 -1.6608  1.1501 -0.0276
  631MOL0     H85133   3.807  10.111  10.151 -1.5844  0.3004  1.7840
  631MOL0     H85134   3.879   9.822  10.224  0.0891 -0.3715 -1.3785
  631MOL0     H85135   3.825   9.860  10.063  2.0072  0.1831  1.5714
  631MOL0     H85136   3.596   9.904  10.010 -3.5114  4.4309  0.1233
  631MOL0     H85137   3.322   9.897  10.015 -4.2168 -0.3961  0.1674
  631MOL0     H85138   3.261   9.805  10.143  0.7130 -1.6457 -0.2978
  631MOL0     H85139   3.335  10.099  10.178  2.9953 -2.4194 -0.2449
  631MOL0     H85140   3.208  10.014  10.269 -3.4853 -0.4433 -1.6784
  631MOL0     H85141   3.064   9.998  10.074  0.2188  0.9277  2.0802
  631MOL0     H85142   3.182  10.069   9.961  1.1886  1.0400 -0.0774
  631MOL0     H85143   3.152  10.280  10.069  0.9080 -0.9411  1.3013
  631MOL0     H85144   3.070  10.223  10.208  4.2949  1.1237  0.3200
  631MOL0     H85145   2.709  10.189   9.931 -0.1471  0.4459  0.9179
  631MOL0     H85146   2.425  10.411   9.978 -1.9755 -1.4409 -1.4894
  631MOL0     H85147   2.512  10.299   9.879 -0.1895  0.7632 -0.3521
  631MOL0     H85148   2.446  10.245  10.039  0.6063  0.0083  1.3001
  631MOL0     H85149   2.348  10.721  10.109 -1.2167 -0.1900  0.0317
  631MOL0     H85150   2.201  10.892  10.186  2.5198  0.3972 -4.8051
  631MOL0     H85151   2.093  10.955  10.396 -1.3519  0.7789  1.1351
  631MOL0     H85152   2.192  10.946  10.547  2.8842  2.6950  1.1774
  631MOL0     H85153   1.977  11.107  10.557 -1.1572  3.2739  0.6725
  631MOL0     H85154   2.134  11.165  10.613 -0.1758  0.6826 -0.9112
  631MOL0     H85155   2.041  11.226  10.334  3.7150  1.1687 -2.1147
  631MOL0     H85156   2.174  11.306  10.434 -0.6755  0.0807  1.9208
  631MOL0     H85157   1.875  11.293  10.486 -0.0751  0.0863 -0.6108
  631MOL0     H85158   1.999  11.373  10.582  0.5616  3.7409 -1.0722
  631MOL0     H85159   1.865  11.484  10.371  1.5010  1.3432  0.9275
  631MOL0     H85160   2.015  11.448  10.290  0.1386  1.9641 -1.2799
  631MOL0     H85161   1.975  11.629  10.548 -0.0091  0.0832  0.3740
  631MOL0     H85162   2.128  11.567  10.497 -0.6851 -0.5348  3.2354
  631MOL0     H85163   2.057  11.794  10.450 -1.2389  0.0829 -1.4353
  631MOL0     H85164   1.939  11.748  10.328 -1.5232 -1.7968  0.5739
  631MOL0     H85165   2.118  11.775  10.187 -1.2623 -0.4289 -0.2535
  631MOL0     H85166   2.101  11.606  10.192  0.3630  1.4560 -2.4421
  631MOL0     H85167   2.504  11.044  10.439  0.1177  1.0296 -0.7710
  631MOL0     H85168   2.672  10.861  10.343 -0.3498 -3.1243 -1.6533
  631MOL0     H85169   2.791  10.534  10.282  2.8516 -0.1483  0.1565
  631MOL0     H85170   2.969  10.398  10.206 -0.0308 -0.4120 -1.3513
  631MOL0     H85171   4.229  10.487  10.834  1.2109 -0.2743  1.2535
  631MOL0     H85172   4.412  10.422  11.000 -0.3345  0.9217 -0.9817
  631MOL0     H85173   4.731  10.272  11.105 -1.6329 -1.7558 -3.2570
  631MOL0     H85174   4.901  10.272  11.302  2.4298 -0.6627 -0.6365
  631MOL0     H85175   4.965   9.909  11.517  1.2094 -0.7781  1.2483
  631MOL0     H85176   5.075   9.899  11.383 -3.9181 -0.5050 -1.3718
  631MOL0     H85177   5.247  10.035  11.501  0.3963  1.6435  1.0679
  631MOL0     H85178   5.193   9.878  11.588 -0.5136  1.3117  3.6949
  631MOL0     H85179   5.058   9.987  11.730  1.0109  0.2085 -0.1190
  631MOL0     H85180   5.078  10.155  11.660  1.9433  1.2937 -0.2229
  631MOL0     H85181   5.310   9.979  11.779  1.6337  1.8727  2.0981
  631MOL0     H85182   5.220  10.098  11.872  1.3892 -0.9636  0.8381
  631MOL0     H85183   5.451  10.356  11.634 -2.9240 -0.9285 -5.3865
  631MOL0     H85184   4.878   9.844  11.316 -1.5603 -0.1544 -2.0190
  631MOL0     H85185   4.711   9.848  11.130  2.1551 -1.1042  1.5416
  632MOL0     O85186   2.473   0.049   0.313 -0.0973  0.1422  0.3893
  632MOL0     C85187   2.468   0.025   0.193  0.0354 -0.0073 -0.6009
  632MOL0     O85188   2.438   0.117   0.098  0.0686 -0.4919  0.4340
  632MOL0     C85189   2.391   0.246   0.123 -0.5957 -0.2387 -0.3578
  632MOL0     C85190   2.314   0.302   0.020  0.0296  0.5323 -0.8064
  632MOL0     C85191   2.282   0.439   0.014  0.9521 -0.3684  0.1547
  632MOL0     C85192   2.305   0.520   0.124 -0.1120  0.8243 -0.9043
  632MOL0     O85193   2.265   0.654   0.141 -0.4523  0.6807 -0.4707
  632MOL0     C85194   2.126   0.680   0.123  0.0472 -0.0585 -0.0043
  632MOL0     C85195   2.088   0.839   0.121 -0.2210  1.0183 -0.8605
  632MOL0     C85196   1.951   0.878   0.080  0.8963 -0.2007  0.5643
  632MOL0     C85197   1.830   0.793   0.126 -0.4916 -0.2755  0.4067
  632MOL0     C85198   1.689   0.856   0.090  0.8193  0.0380  0.5795
  632MOL0     C85199   1.608   0.885   0.212 -0.8396  0.4592  0.0175
  632MOL0     C85200   1.468   0.855   0.191  0.1632 -0.3214  0.2729
  632MOL0     C85201   1.436   0.720   0.246 -0.9270  0.9223  0.6484
  632MOL0     N85202   1.305   0.672   0.207  0.0907  0.1598 -0.2493
  632MOL0     C85203   1.258   0.648   0.080  0.5499 -0.9208  0.6031
  632MOL0     C85204   1.158   0.563   0.096 -0.3405  0.0885 -0.9723
  632MOL0     C85205   1.072   0.508  -0.004  1.1235  0.5410 -0.5638
  632MOL0     C85206   1.065   0.602  -0.126  0.6818 -0.1182  0.5399
  632MOL0     C85207   0.961   0.565  -0.233  0.5927 -1.1178  0.6279
  632MOL0     C85208   0.941   0.672  -0.332  0.3124 -0.2425 -0.8373
  632MOL0     O85209   1.059   0.745  -0.363  0.2126  0.5673 -0.2058
  632MOL0     C85210   1.044   0.864  -0.428  0.1050 -0.6382 -0.3182
  632MOL0     C85211   1.154   0.946  -0.452 -0.4363  0.3695  0.7468
  632MOL0     C85212   1.160   1.075  -0.507  0.1490 -0.5692 -1.0682
  632MOL0     C85213   1.295   1.148  -0.506  0.1240  1.0682 -0.1425
  632MOL0     C85214   1.038   1.126  -0.539 -0.2989  0.1280 -0.4553
  632MOL0     C85215   1.003   1.255  -0.603 -0.3023 -0.3481 -0.2546
  632MOL0     O85216   1.111   1.313  -0.661  0.2467 -0.6134 -0.4763
  632MOL0     C85217   1.105   1.432  -0.725  0.1535 -0.5300  0.2601
  632MOL0     C85218   1.172   1.539  -0.667  0.1393  0.5039  0.8017
  632MOL0     C85219   1.178   1.664  -0.735  0.0055 -1.4118  1.0131
  632MOL0     C85220   1.125   1.681  -0.866  0.3727  0.8256  0.6528
  632MOL0     O85221   1.117   1.804  -0.930  0.7552 -0.3396 -0.5343
  632MOL0     C85222   1.063   1.828  -1.054 -1.0062 -0.3947 -0.0320
  632MOL0     C85223   1.062   1.974  -1.082 -0.3227  0.6564  0.1987
  632MOL0     C85224   1.196   2.041  -1.130  0.7882 -0.5904  0.6463
  632MOL0     C85225   1.302   2.059  -1.014  0.4162  0.7344  0.3665
  632MOL0     C85226   1.426   2.144  -1.052  1.0893  0.0160 -0.1008
  632MOL0     C85227   1.549   2.093  -0.971  0.9730 -0.0380 -0.8338
  632MOL0     C85228   1.676   2.139  -1.043 -0.2502  0.2815  0.3704
  632MOL0     C85229   1.805   2.092  -0.977 -1.1932  0.8869  0.6209
  632MOL0    Cl85230   1.810   1.913  -0.971  0.0058  0.2338 -0.1050
  632MOL0     C85231   1.060   1.567  -0.927  0.8154 -0.2874 -1.1476
  632MOL0     C85232   1.047   1.448  -0.847  0.6356  0.4438 -0.1139
  632MOL0     O85233   0.887   1.298  -0.611  0.8754  0.0851 -0.1143
  632MOL0     C85234   0.924   1.045  -0.536  0.0419  0.0252 -0.6629
  632MOL0     C85235   0.931   0.914  -0.481 -0.4219 -0.7775  0.7266
  632MOL0     N85236   1.119   0.559   0.226  0.0019  0.3105  0.2225
  632MOL0     N85237   1.213   0.621   0.292 -0.4814  0.2547  0.3861
  632MOL0     C85238   2.382   0.465   0.232  0.1516 -0.6204 -0.1329
  632MOL0     C85239   2.416   0.327   0.237 -0.1458 -0.9426  0.4210
  632MOL0     C85240   2.497  -0.109   0.149 -0.5674 -0.1824 -0.5168
  632MOL0     C85241   2.606  -0.176   0.213 -0.6387 -0.0298  0.4744
  632MOL0     C85242   2.645  -0.300   0.176 -0.9114 -0.0828  1.5497
  632MOL0     C85243   2.587  -0.363   0.069  0.0517  0.8204  0.5336
  632MOL0     O85244   2.619  -0.494   0.037  0.1731 -0.2540 -0.6537
  632MOL0     C85245   2.553  -0.565  -0.072  0.2181 -0.0999 -0.8493
  632MOL0     C85246   2.626  -0.687  -0.108 -0.4495  0.6243  0.2593
  632MOL0     C85247   2.639  -0.779   0.015  0.2945  0.7538  0.0392
  632MOL0     C85248   2.565  -0.918   0.010 -0.7828  1.1048 -0.3458
  632MOL0     C85249   2.574  -0.995  -0.113 -0.2797 -0.5412 -1.1224
  632MOL0     C85250   2.576  -1.043  -0.225  0.5256  0.2525  0.1196
  632MOL0     C85251   2.481  -0.296   0.001 -0.8841  0.1459  0.4906
  632MOL0     C85252   2.435  -0.173   0.044 -0.4868  0.9965  0.0348
  632MOL0     H85253   2.287   0.235  -0.061 -3.8301  2.0592 -0.9797
  632MOL0     H85254   2.214   0.467  -0.066  1.3528 -0.7629 -0.3342
  632MOL0     H85255   2.099   0.628   0.031  2.1257 -0.5659 -0.3702
  632MOL0     H85256   2.073   0.644   0.212 -0.5741  0.9039  0.0320
  632MOL0     H85257   2.100   0.877   0.223 -2.5723 -0.0875 -0.0927
  632MOL0     H85258   2.163   0.893   0.063  0.4534  0.8082 -0.1878
  632MOL0     H85259   1.948   0.979   0.124  2.5493 -0.1372  0.5985
  632MOL0     H85260   1.950   0.890  -0.028 -2.0003 -0.1456  0.5077
  632MOL0     H85261   1.840   0.696   0.078  1.5917  0.1576 -0.1379
  632MOL0     H85262   1.838   0.775   0.234 -0.2163  0.2685  0.4839
  632MOL0     H85263   1.711   0.944   0.029  0.4609 -1.8346 -2.5040
  632MOL0     H85264   1.634   0.796   0.017 -0.9965 -1.9469  3.3752
  632MOL0     H85265   1.638   0.820   0.295 -1.2807 -2.9223 -2.2477
  632MOL0     H85266   1.619   0.990   0.240  1.6382  1.0596 -2.6689
  632MOL0     H85267   1.418   0.934   0.247 -0.8014 -0.8168  0.1320
  632MOL0     H85268   1.442   0.852   0.085 -1.5680 -1.0561  0.6814
  632MOL0     H85269   1.453   0.709   0.353  0.5986 -1.5734  0.2310
  632MOL0     H85270   1.497   0.643   0.197 -2.5793  2.3597 -4.3261
  632MOL0     H85271   1.317   0.680  -0.005 -1.0579  1.4723  0.3021
  632MOL0     H85272   1.120   0.417  -0.041 -1.0603 -0.6517 -0.6071
  632MOL0     H85273   0.981   0.469   0.043  1.4281  0.2549 -0.2039
  632MOL0     H85274   1.160   0.595  -0.180 -0.5122 -1.7542 -1.4632
  632MOL0     H85275   1.041   0.699  -0.081 -1.2141 -2.1403  4.3583
  632MOL0     H85276   0.863   0.535  -0.193 -0.1128  1.4033  0.9892
  632MOL0     H85277   0.998   0.477  -0.285 -1.3717 -2.0572  0.7407
  632MOL0     H85278   0.870   0.745  -0.292  2.3912  1.1476  0.5839
  632MOL0     H85279   0.903   0.634  -0.427 -2.7919 -0.4886  0.3919
  632MOL0     H85280   1.252   0.903  -0.433 -0.4023 -1.5734 -2.9571
  632MOL0     H85281   1.296   1.258  -0.503  0.7062  1.1151 -1.2483
  632MOL0     H85282   1.362   1.109  -0.429  0.9723 -0.3830 -1.5551
  632MOL0     H85283   1.334   1.114  -0.603 -0.5319 -2.7479  0.7869
  632MOL0     H85284   1.216   1.521  -0.570  1.9726  5.9434  1.2925
  632MOL0     H85285   1.228   1.747  -0.685  0.0968  0.5602 -2.0742
  632MOL0     H85286   1.113   1.755  -1.118 -0.1050 -2.3778  2.7372
  632MOL0     H85287   0.956   1.804  -1.056 -1.0084 -0.3522 -0.6951
  632MOL0     H85288   0.994   1.988  -1.168  2.8970 -0.5877 -2.7985
  632MOL0     H85289   1.018   2.020  -0.993 -1.3684  2.8701 -1.3541
  632MOL0     H85290   1.169   2.140  -1.166 -0.7070 -0.4550  2.0047
  632MOL0     H85291   1.231   1.983  -1.215 -1.0063 -0.2783 -0.3459
  632MOL0     H85292   1.253   2.104  -0.926 -0.5910 -4.9360  3.1333
  632MOL0     H85293   1.337   1.961  -0.980  2.5174  2.0836  2.4198
  632MOL0     H85294   1.399   2.250  -1.044 -2.3300 -0.3459 -3.7551
  632MOL0     H85295   1.430   2.133  -1.161 -1.0419 -2.7879 -0.0167
  632MOL0     H85296   1.548   2.132  -0.868  0.6648 -0.1630 -0.7870
  632MOL0     H85297   1.558   1.985  -0.968  0.3021 -0.1602 -2.3847
  632MOL0     H85298   1.678   2.248  -1.053  2.0276  0.3003  0.5054
  632MOL0     H85299   1.688   2.100  -1.144 -1.2956 -0.2773  0.4535
  632MOL0     H85300   1.794   2.134  -0.877  1.6362  0.0723  1.3484
  632MOL0     H85301   1.890   2.131  -1.033 -3.5493  2.6089 -2.0513
  632MOL0     H85302   1.003   1.585  -1.018  0.1990  0.5305 -0.6137
  632MOL0     H85303   1.001   1.361  -0.894 -2.4817  1.0087  1.5859
  632MOL0     H85304   0.823   1.077  -0.559 -0.3584 -0.3089  0.5443
  632MOL0     H85305   0.844   0.851  -0.471 -1.3855  0.5306  0.9167
  632MOL0     H85306   2.413   0.532   0.311 -1.0638  0.1838 -0.3178
  632MOL0     H85307   2.484   0.304   0.319  3.1462  2.2503 -1.1347
  632MOL0     H85308   2.647  -0.125   0.299 -0.0619  0.5198 -0.1235
  632MOL0     H85309   2.732  -0.336   0.230  1.2392  2.2282 -0.0896
  632MOL0     H85310   2.458  -0.604  -0.033 -0.6879 -0.9286 -3.6623
  632MOL0     H85311   2.532  -0.498  -0.155  1.4040 -2.1554 -2.9123
  632MOL0     H85312   2.726  -0.658  -0.142 -0.1338 -1.7510 -1.0592
  632MOL0     H85313   2.577  -0.726  -0.198 -0.6951 -0.9827  1.0545
  632MOL0     H85314   2.610  -0.723   0.105 -0.1074  0.8411 -0.1396
  632MOL0     H85315   2.743  -0.808   0.029  0.0804  0.2959  0.7401
  632MOL0     H85316   2.461  -0.907   0.041 -1.0970 -2.4210  0.2569
  632MOL0     H85317   2.600  -0.978   0.095  0.6075  1.0478 -0.9289
  632MOL0     H85318   2.588  -1.110  -0.307 -0.3942 -0.0632  0.2259
  632MOL0     H85319   2.432  -0.327  -0.091 -0.4377  1.3071 -0.1658
  632MOL0     H85320   2.364  -0.116  -0.014 -1.2746 -1.0496 -1.1121
  633MOL0     O85321   9.335   0.746   4.769 -0.0459 -1.1919  0.0570
  633MOL0     C85322   9.221   0.700   4.785 -0.5104  0.1065 -1.0583
  633MOL0     O85323   9.161   0.678   4.912 -0.4573  0.6253  0.1088
  633MOL0     C85324   9.238   0.707   5.018  0.9193 -0.0961 -1.1788
  633MOL0     C85325   9.263   0.605   5.111  0.4439 -0.2631 -0.0099
  633MOL0     C85326   9.330   0.622   5.229  0.3471 -0.5282 -0.2057
  633MOL0     C85327   9.398   0.735   5.251  0.1437 -0.2264  0.0768
  633MOL0     O85328   9.482   0.739   5.355 -0.3347 -0.5381 -0.1111
  633MOL0     C85329   9.426   0.789   5.468  0.4036 -0.3822  0.1585
  633MOL0     C85330   9.518   0.817   5.586 -0.2304 -0.1828  0.9139
  633MOL0     C85331   9.440   0.845   5.710  0.1192 -0.5941  0.7024
  633MOL0     C85332   9.537   0.861   5.833  0.8087  0.7281  0.1606
  633MOL0     C85333   9.462   0.904   5.966  0.0776 -0.0105  0.1672
  633MOL0     C85334   9.369   1.033   5.974 -0.1109  0.4840  0.0761
  633MOL0     C85335   9.346   1.088   6.114 -0.5145 -0.2424 -0.1210
  633MOL0     C85336   9.320   0.981   6.226 -0.5513 -0.3020  0.5339
  633MOL0     N85337   9.288   1.046   6.352 -0.3129 -0.3091  0.5973
  633MOL0     C85338   9.164   1.086   6.382 -0.2498 -0.9420 -0.2966
  633MOL0     C85339   9.178   1.129   6.511 -0.6727  0.5517  0.5528
  633MOL0     C85340   9.061   1.156   6.594  0.1230 -0.7091  0.0549
  633MOL0     C85341   9.012   1.300   6.567  0.8005 -0.2142  0.2668
  633MOL0     C85342   8.877   1.327   6.629  0.5649  0.0297 -0.5671
  633MOL0     C85343   8.837   1.468   6.582  0.7826  0.0361  0.4431
  633MOL0     O85344   8.797   1.488   6.441  0.3230  0.0857  0.0396
  633MOL0     C85345   8.678   1.444   6.396 -0.2509  0.4869 -0.5168
  633MOL0     C85346   8.648   1.461   6.269  0.0891  0.1267  0.4580
  633MOL0     C85347   8.528   1.423   6.207 -0.0532  0.0968 -0.5962
  633MOL0     C85348   8.517   1.463   6.063  0.5151 -0.2551  0.4217
  633MOL0     C85349   8.423   1.363   6.282 -0.0736  0.7990  0.7548
  633MOL0     C85350   8.282   1.328   6.240 -0.1053 -0.1023  0.2856
  633MOL0     O85351   8.238   1.214   6.297 -0.0927  0.0123 -0.2645
  633MOL0     C85352   8.114   1.157   6.275 -0.1780 -1.0661 -0.5086
  633MOL0     C85353   8.098   1.028   6.310 -1.1153 -0.2147  0.4731
  633MOL0     C85354   7.975   0.961   6.297 -0.1846  0.6514  0.0317
  633MOL0     C85355   7.864   1.031   6.241  0.5500 -0.3881 -0.5344
  633MOL0     O85356   7.745   0.968   6.221 -0.1536 -0.0068 -0.8008
  633MOL0     C85357   7.684   0.981   6.086 -0.8877 -0.5519 -0.9586
  633MOL0     C85358   7.777   0.928   5.977 -0.0167 -0.3506  0.6230
  633MOL0     C85359   7.817   0.787   6.011  0.5991  0.1470  0.4435
  633MOL0     C85360   7.895   0.709   5.907  0.6866  0.5876 -0.3533
  633MOL0     C85361   7.942   0.566   5.954  0.3770  0.4175 -0.0539
  633MOL0     C85362   8.027   0.499   5.836 -0.0466 -0.4148  0.4902
  633MOL0     C85363   8.103   0.370   5.874 -0.4853  0.0925  0.0709
  633MOL0     C85364   8.213   0.320   5.787  0.8892  0.0822  0.2934
  633MOL0    Cl85365   8.130   0.253   5.636 -0.0251 -0.1808  0.1220
  633MOL0     C85366   7.879   1.168   6.200 -0.3336  0.5345  1.1765
  633MOL0     C85367   8.002   1.226   6.213 -0.6463 -0.3509  0.5049
  633MOL0     O85368   8.227   1.394   6.148 -0.2024 -0.3566  0.4777
  633MOL0     C85369   8.453   1.350   6.423  0.2272 -0.3874  0.6268
  633MOL0     C85370   8.574   1.387   6.473 -0.3921 -0.2257  0.6929
  633MOL0     N85371   9.314   1.108   6.553  1.1895  0.1826  0.1359
  633MOL0     N85372   9.379   1.062   6.448  0.9700 -0.4114 -0.3661
  633MOL0     C85373   9.377   0.850   5.161  0.6454 -0.0346 -0.2910
  633MOL0     C85374   9.298   0.828   5.047 -0.5601  0.4049  0.2429
  633MOL0     C85375   9.144   0.674   4.665 -0.3248  1.5371  0.7050
  633MOL0     C85376   9.006   0.648   4.667  0.4847 -0.4804  0.2254
  633MOL0     C85377   8.938   0.624   4.550  0.3581  0.8967  0.8717
  633MOL0     C85378   9.004   0.600   4.437 -0.5516 -0.6029 -0.1972
  633MOL0     O85379   8.937   0.562   4.321  0.4904  1.1770  0.1397
  633MOL0     C85380   8.816   0.617   4.277 -0.4000  0.5415  0.1851
  633MOL0     C85381   8.804   0.604   4.121  1.3279  0.5713 -0.1836
  633MOL0     C85382   8.934   0.661   4.062 -1.2613 -0.1046 -0.5685
  633MOL0     C85383   8.931   0.660   3.901 -0.0949  0.8430 -0.2073
  633MOL0     C85384   8.861   0.784   3.860  0.4264  0.2280 -0.0207
  633MOL0     C85385   8.798   0.882   3.826  0.6163  0.1334  0.0619
  633MOL0     C85386   9.143   0.611   4.430  1.2981 -1.4136 -0.3058
  633MOL0     C85387   9.217   0.661   4.546  0.5369 -0.6170  0.5007
  633MOL0     H85388   9.230   0.506   5.082  2.0800 -1.9761  3.4062
  633MOL0     H85389   9.338   0.536   5.294 -1.8046  1.6536  3.2871
  633MOL0     H85390   9.367   0.876   5.437 -2.7062 -2.0767  0.9588
  633MOL0     H85391   9.349   0.723   5.510 -2.6465  1.6991 -1.7559
  633MOL0     H85392   9.586   0.732   5.597 -0.6932 -0.5814  0.7073
  633MOL0     H85393   9.583   0.900   5.557  0.7866 -1.9422 -2.3577
  633MOL0     H85394   9.383   0.937   5.693 -0.7390 -0.8619  2.0027
  633MOL0     H85395   9.371   0.767   5.742 -0.2707 -1.5005 -2.0978
  633MOL0     H85396   9.599   0.772   5.851 -0.0201 -0.2450 -1.5768
  633MOL0     H85397   9.596   0.946   5.800 -0.0987  1.7048  0.9786
  633MOL0     H85398   9.417   0.815   6.010 -0.7691  0.6242  0.5866
  633MOL0     H85399   9.545   0.931   6.032 -0.2917 -1.7320  1.4268
  633MOL0     H85400   9.426   1.112   5.925  1.2334  0.7039  1.8691
  633MOL0     H85401   9.277   1.023   5.917  0.1323 -4.5911  0.1822
  633MOL0     H85402   9.438   1.135   6.150 -1.2562  0.6801  0.6118
  633MOL0     H85403   9.275   1.171   6.111 -1.8509 -1.3578  0.0953
  633MOL0     H85404   9.404   0.917   6.256 -1.6672 -0.7532  2.9400
  633MOL0     H85405   9.248   0.901   6.203 -2.4119  0.5491  2.9942
  633MOL0     H85406   9.070   1.080   6.327 -1.6798  2.0811  1.5189
  633MOL0     H85407   8.978   1.088   6.574 -0.4267 -0.8584  2.5086
  633MOL0     H85408   9.093   1.150   6.699  1.5129  0.9921 -0.2148
  633MOL0     H85409   9.008   1.329   6.461 -0.6699  4.7865  1.4104
  633MOL0     H85410   9.081   1.370   6.616  0.2778 -0.8838  2.0199
  633MOL0     H85411   8.877   1.323   6.738 -0.5401 -0.8037 -0.5760
  633MOL0     H85412   8.795   1.260   6.601 -0.0527  0.9561 -1.0154
  633MOL0     H85413   8.929   1.524   6.597  1.3547 -1.1427  1.5384
  633MOL0     H85414   8.751   1.502   6.641 -0.5441 -0.3059 -1.2241
  633MOL0     H85415   8.720   1.517   6.209  2.0121  2.1163  4.2871
  633MOL0     H85416   8.607   1.456   6.001  1.6487  0.0636  1.9722
  633MOL0     H85417   8.441   1.406   6.009  0.6422  0.4854 -0.5573
  633MOL0     H85418   8.491   1.569   6.057 -0.5281 -0.5321 -0.2217
  633MOL0     H85419   8.185   0.971   6.338 -0.4395 -0.1884 -1.4356
  633MOL0     H85420   7.970   0.854   6.313  0.4537  0.2602 -2.1419
  633MOL0     H85421   7.596   0.916   6.085 -0.2825 -1.3781 -1.0971
  633MOL0     H85422   7.645   1.083   6.082 -1.0079 -0.2818  3.0168
  633MOL0     H85423   7.733   0.923   5.877  1.5240 -0.9682 -0.0526
  633MOL0     H85424   7.869   0.987   5.969 -0.5450  0.3808 -0.1955
  633MOL0     H85425   7.729   0.728   6.037  0.3600  0.3409  0.0817
  633MOL0     H85426   7.885   0.792   6.098  1.6626  1.2229 -0.4064
  633MOL0     H85427   7.832   0.688   5.819  0.4670 -0.8728  0.1324
  633MOL0     H85428   7.983   0.769   5.883  2.4507 -0.7838  2.2901
  633MOL0     H85429   7.877   0.492   6.002  1.4337 -0.8850 -0.5451
  633MOL0     H85430   8.019   0.588   6.028  1.2774  1.5919 -1.2885
  633MOL0     H85431   7.944   0.474   5.769 -0.6133  2.2928  0.0800
  633MOL0     H85432   8.093   0.575   5.795 -2.2697  1.2961 -0.1537
  633MOL0     H85433   8.035   0.284   5.883 -2.0942  0.8697 -3.2243
  633MOL0     H85434   8.149   0.385   5.972 -1.1381 -2.2217  0.8104
  633MOL0     H85435   8.265   0.234   5.831  0.2208 -0.6655 -0.3433
  633MOL0     H85436   8.286   0.399   5.768 -0.2841  2.1376  3.5387
  633MOL0     H85437   7.803   1.234   6.161  0.5487  0.0554 -1.5878
  633MOL0     H85438   8.000   1.330   6.183  0.3439 -0.4210  0.1709
  633MOL0     H85439   8.378   1.312   6.492  0.0922 -0.5210  0.4109
  633MOL0     H85440   8.589   1.376   6.580  4.2242  1.8808  0.5317
  633MOL0     H85441   9.421   0.947   5.179  2.7091 -1.3195  2.4706
  633MOL0     H85442   9.271   0.905   4.975 -2.1538 -0.3546 -0.0332
  633MOL0     H85443   8.953   0.669   4.760 -0.0136  5.7660 -1.0326
  633MOL0     H85444   8.830   0.611   4.543  0.5401  0.1347 -3.2005
  633MOL0     H85445   8.750   0.545   4.327  2.1748 -2.1348  0.0620
  633MOL0     H85446   8.814   0.721   4.310 -0.1725 -0.0613  2.2621
  633MOL0     H85447   8.714   0.652   4.080  0.4915 -1.3239 -0.7213
  633MOL0     H85448   8.792   0.498   4.094 -2.2699  1.1271 -1.3371
  633MOL0     H85449   9.009   0.590   4.098  0.6909  2.2031  0.1614
  633MOL0     H85450   8.958   0.757   4.109 -0.3310 -0.3914 -0.4420
  633MOL0     H85451   8.889   0.565   3.868  0.2337 -0.0793  1.8722
  633MOL0     H85452   9.035   0.658   3.868 -0.5133  0.1635 -1.5194
  633MOL0     H85453   8.735   0.963   3.792 -2.1037 -1.6267  0.5829
  633MOL0     H85454   9.181   0.587   4.331 -1.9675 -0.4127 -1.9645
  633MOL0     H85455   9.325   0.663   4.550  0.4815  0.5342  2.8747
  634MOL0     O85456   2.540   2.456   7.859 -0.2575 -0.4500 -0.4069
  634MOL0     C85457   2.658   2.474   7.815  1.1082  0.5470 -0.0803
  634MOL0     O85458   2.693   2.569   7.726  0.4307  0.7972  0.3095
  634MOL0     C85459   2.595   2.655   7.684  0.2093 -0.0424  0.8424
  634MOL0     C85460   2.544   2.638   7.558  0.5575  0.2957  0.6800
  634MOL0     C85461   2.434   2.713   7.511 -0.4038 -0.4928  0.2283
  634MOL0     C85462   2.380   2.816   7.598  0.6110  0.9752  0.4375
  634MOL0     O85463   2.292   2.918   7.558 -0.0627  0.2129 -0.3538
  634MOL0     C85464   2.218   2.905   7.438 -0.5214  0.9513  0.5741
  634MOL0     C85465   2.310   2.947   7.317  0.8292 -0.3347  0.1028
  634MOL0     C85466   2.322   3.088   7.300  1.0769  0.1878  0.2529
  634MOL0     C85467   2.383   3.155   7.418  1.3623 -0.4493  0.2861
  634MOL0     C85468   2.446   3.290   7.387  0.1891 -0.6051 -0.5440
  634MOL0     C85469   2.356   3.399   7.323 -0.1083  0.4683  0.2671
  634MOL0     C85470   2.422   3.529   7.308  0.1868  0.0110  0.3927
  634MOL0     C85471   2.321   3.629   7.249 -0.4611 -0.4578  0.5670
  634MOL0     N85472   2.211   3.640   7.342 -0.2437 -0.6253 -0.6508
  634MOL0     C85473   2.210   3.713   7.462  1.0170 -0.7765 -0.3566
  634MOL0     C85474   2.091   3.690   7.509  0.2519  0.8574 -0.3721
  634MOL0     C85475   2.039   3.733   7.645 -0.1553 -0.7825 -0.3534
  634MOL0     C85476   1.928   3.838   7.631 -0.2047  0.2954  0.0278
  634MOL0     C85477   1.795   3.758   7.632 -0.2892  0.1975 -0.6102
  634MOL0     C85478   1.685   3.867   7.637  0.2001  0.2314 -0.2932
  634MOL0     O85479   1.674   3.952   7.521  0.5672 -0.1539 -0.4008
  634MOL0     C85480   1.610   3.913   7.408  0.2098  0.1601  0.7845
  634MOL0     C85481   1.662   3.963   7.288 -0.0864 -0.3653  0.0433
  634MOL0     C85482   1.614   3.923   7.168  0.5872  0.2921 -0.8211
  634MOL0     C85483   1.670   3.992   7.050 -0.2345  0.2719  1.1251
  634MOL0     C85484   1.512   3.824   7.151  0.2991  0.2171 -0.3904
  634MOL0     C85485   1.432   3.800   7.028  0.2531 -1.2257  0.2221
  634MOL0     O85486   1.309   3.752   7.040  0.2972  0.7890 -0.5487
  634MOL0     C85487   1.232   3.716   6.927  0.4231 -0.1509 -0.1657
  634MOL0     C85488   1.216   3.579   6.904 -0.1080  0.2563 -0.7786
  634MOL0     C85489   1.146   3.538   6.796  0.2715  0.3490 -0.5379
  634MOL0     C85490   1.070   3.625   6.712  0.7125 -0.3630 -0.0680
  634MOL0     O85491   1.007   3.609   6.589  0.0166  0.0973  0.8353
  634MOL0     C85492   0.998   3.470   6.551 -0.7355  0.5987  0.1465
  634MOL0     C85493   0.961   3.484   6.401  0.2786 -0.3693 -0.6294
  634MOL0     C85494   0.820   3.541   6.386  0.1434 -0.4875  0.0109
  634MOL0     C85495   0.794   3.545   6.226  0.3224 -0.1896 -0.3858
  634MOL0     C85496   0.648   3.591   6.204 -0.6027  0.5228  0.0866
  634MOL0     C85497   0.619   3.584   6.056 -0.8208  0.3310  0.8992
  634MOL0     C85498   0.468   3.593   6.022 -0.8381  0.0534  0.5681
  634MOL0     C85499   0.413   3.733   6.013  0.1011 -0.8808 -0.9450
  634MOL0    Cl85500   0.377   3.766   5.845  0.4602  0.4522  0.0600
  634MOL0     C85501   1.078   3.761   6.749 -0.2301  0.1981  0.8338
  634MOL0     C85502   1.164   3.806   6.849 -0.1564 -0.3754  0.4987
  634MOL0     O85503   1.476   3.841   6.920  0.3527 -0.2202 -0.5654
  634MOL0     C85504   1.462   3.765   7.272  0.2632  0.7231 -0.3838
  634MOL0     C85505   1.511   3.813   7.396 -0.1920 -0.3418 -0.5531
  634MOL0     N85506   2.009   3.620   7.424 -0.8139  0.6734  0.3846
  634MOL0     N85507   2.088   3.591   7.322  0.0053  0.3054  0.7224
  634MOL0     C85508   2.435   2.833   7.730 -0.5827  0.6805  1.0218
  634MOL0     C85509   2.544   2.752   7.771 -0.8872 -0.3611  0.0723
  634MOL0     C85510   2.772   2.395   7.892  0.6005 -0.6862 -0.3055
  634MOL0     C85511   2.906   2.433   7.877  0.0381  0.5360 -0.8063
  634MOL0     C85512   3.009   2.351   7.935 -0.6391 -0.7038 -0.5881
  634MOL0     C85513   2.977   2.253   8.029  0.7660 -0.5761 -1.3217
  634MOL0     O85514   3.072   2.174   8.087 -0.0276  0.1484  1.3523
  634MOL0     C85515   3.212   2.212   8.087  0.0992 -1.4069 -0.3938
  634MOL0     C85516   3.292   2.133   8.189 -0.3389 -0.5539  0.4471
  634MOL0     C85517   3.433   2.184   8.219  0.2998  0.5945 -0.3773
  634MOL0     C85518   3.433   2.331   8.257 -0.3819  0.0589  0.8190
  634MOL0     C85519   3.370   2.357   8.387  0.1151  0.4944 -0.6042
  634MOL0     C85520   3.315   2.400   8.493 -0.4218  1.0205  0.2678
  634MOL0     C85521   2.839   2.226   8.052 -0.3830 -0.5127 -1.5840
  634MOL0     C85522   2.736   2.290   7.984 -1.0530 -0.3592  0.6655
  634MOL0     H85523   2.581   2.562   7.489 -1.8044 -0.1152 -0.2201
  634MOL0     H85524   2.396   2.699   7.410  0.1531 -2.3442  0.2397
  634MOL0     H85525   2.194   2.800   7.418 -0.0473  1.1775 -1.3677
  634MOL0     H85526   2.122   2.957   7.432 -3.0877 -3.2107  1.0754
  634MOL0     H85527   2.413   2.911   7.329  1.8804  1.8588 -1.6847
  634MOL0     H85528   2.283   2.907   7.219  2.6845 -0.9897 -0.1732
  634MOL0     H85529   2.393   3.105   7.219  1.1036 -0.9024  0.0442
  634MOL0     H85530   2.228   3.136   7.271  2.0136  1.6644 -0.4648
  634MOL0     H85531   2.315   3.166   7.502  1.9418 -3.9424  1.3843
  634MOL0     H85532   2.462   3.089   7.456  1.4443 -1.0394 -0.8622
  634MOL0     H85533   2.488   3.324   7.482  1.0444 -2.1752 -0.3087
  634MOL0     H85534   2.529   3.272   7.318  1.9486  0.4798  1.1887
  634MOL0     H85535   2.311   3.358   7.232 -1.9522  2.8362  0.0400
  634MOL0     H85536   2.275   3.409   7.396  0.9602 -1.6190  1.8742
  634MOL0     H85537   2.462   3.569   7.401  0.4313  0.0073  0.2895
  634MOL0     H85538   2.494   3.513   7.227 -0.3423  2.0715 -0.5592
  634MOL0     H85539   2.287   3.603   7.148 -0.6103  1.8539 -0.0336
  634MOL0     H85540   2.375   3.723   7.239 -1.5273 -0.0401 -2.3144
  634MOL0     H85541   2.286   3.767   7.517 -0.6960  1.3730  0.0476
  634MOL0     H85542   2.021   3.644   7.706  4.1597  0.1167  2.6977
  634MOL0     H85543   2.122   3.778   7.699  0.8528 -3.2973  0.3669
  634MOL0     H85544   1.930   3.901   7.542  1.5548  2.1209  1.2489
  634MOL0     H85545   1.924   3.899   7.722  1.1486 -0.3269  0.5322
  634MOL0     H85546   1.800   3.695   7.721 -1.7036  1.9698  0.8305
  634MOL0     H85547   1.797   3.703   7.538  1.6676  0.3405 -0.6836
  634MOL0     H85548   1.698   3.934   7.722  0.1177  0.0515 -0.1409
  634MOL0     H85549   1.583   3.828   7.637  0.3921 -0.3816  1.5927
  634MOL0     H85550   1.726   4.051   7.294 -0.1627 -0.3358  0.4068
  634MOL0     H85551   1.762   4.049   7.066  0.8535  0.7923 -4.8359
  634MOL0     H85552   1.688   3.917   6.973 -0.6679  0.2021  1.0904
  634MOL0     H85553   1.600   4.070   7.017 -1.2591 -1.4666 -1.0140
  634MOL0     H85554   1.246   3.518   6.989 -0.0529  2.1562  0.6426
  634MOL0     H85555   1.159   3.431   6.781  0.1055  0.3197 -0.4724
  634MOL0     H85556   1.095   3.421   6.547 -1.5930 -1.0988 -1.5619
  634MOL0     H85557   0.930   3.417   6.619  0.3340  1.9623  2.4017
  634MOL0     H85558   1.031   3.554   6.354  0.1873 -1.2237 -2.0928
  634MOL0     H85559   0.968   3.385   6.356  1.9731 -1.8965  2.5889
  634MOL0     H85560   0.802   3.645   6.418 -0.5128 -0.7533  0.5310
  634MOL0     H85561   0.746   3.480   6.439  0.0717  1.3076  2.1570
  634MOL0     H85562   0.859   3.615   6.173 -0.8326 -1.2102 -3.3487
  634MOL0     H85563   0.806   3.452   6.168  2.1882  0.0834 -0.5159
  634MOL0     H85564   0.623   3.682   6.258 -0.3986 -0.8576  2.6631
  634MOL0     H85565   0.584   3.513   6.246  2.0241 -1.8161  0.0677
  634MOL0     H85566   0.688   3.647   6.000  0.4719 -2.2269 -0.6008
  634MOL0     H85567   0.662   3.487   6.027  3.1007  1.3357  2.6820
  634MOL0     H85568   0.414   3.528   6.091 -2.0044 -0.6105 -0.8971
  634MOL0     H85569   0.452   3.547   5.924  0.7450  3.3250 -1.4193
  634MOL0     H85570   0.490   3.806   6.039 -0.8457  1.9691 -5.0379
  634MOL0     H85571   0.315   3.744   6.061  1.6255  1.8172  1.8767
  634MOL0     H85572   1.005   3.833   6.715 -1.5139 -1.5291 -0.2530
  634MOL0     H85573   1.171   3.912   6.870  2.5227  0.4124 -3.4071
  634MOL0     H85574   1.390   3.685   7.262 -0.9551  1.7285  0.1264
  634MOL0     H85575   1.472   3.781   7.492 -1.7501  4.3117  0.6379
  634MOL0     H85576   2.395   2.913   7.790  0.4733  0.8618  1.5085
  634MOL0     H85577   2.598   2.774   7.863  3.0812 -3.4134 -1.2555
  634MOL0     H85578   2.943   2.507   7.806  2.7720 -0.9978 -1.1153
  634MOL0     H85579   3.109   2.369   7.896  1.4605 -1.4295  3.8778
  634MOL0     H85580   3.264   2.205   7.991  1.0800 -0.9550  0.0873
  634MOL0     H85581   3.215   2.318   8.116 -0.8886 -2.2244  3.0802
  634MOL0     H85582   3.312   2.031   8.155  1.7104 -0.0761  0.0746
  634MOL0     H85583   3.232   2.130   8.280 -2.4737  0.7779 -0.8077
  634MOL0     H85584   3.484   2.179   8.122  0.1436 -0.6458 -0.4075
  634MOL0     H85585   3.493   2.126   8.290  1.4136  2.2319  0.0846
  634MOL0     H85586   3.403   2.391   8.171  1.3863  1.4739  1.1218
  634MOL0     H85587   3.537   2.365   8.263 -0.4413  0.7763 -1.3010
  634MOL0     H85588   3.287   2.460   8.577 -0.6510  0.3660  0.6710
  634MOL0     H85589   2.805   2.150   8.122 -1.4505  1.0462 -0.3325
  634MOL0     H85590   2.632   2.266   8.000 -0.9029 -2.4040 -0.9793
  635MOL0     O85591   3.583   7.731   3.599 -0.1345  0.1542  0.9501
  635MOL0     C85592   3.532   7.787   3.693 -0.2234 -0.5524  0.6592
  635MOL0     O85593   3.426   7.875   3.681  0.4218  0.5419 -0.3855
  635MOL0     C85594   3.370   7.901   3.550 -0.3852 -0.2028 -0.3091
  635MOL0     C85595   3.231   7.894   3.521 -0.7012  0.5413  0.5590
  635MOL0     C85596   3.178   7.922   3.395 -0.4223  1.0167 -0.5069
  635MOL0     C85597   3.261   7.952   3.285  0.6684 -0.9097  0.3560
  635MOL0     O85598   3.222   8.018   3.168 -0.4076 -0.1047  0.4632
  635MOL0     C85599   3.118   8.114   3.191  0.3699  0.2789  0.2820
  635MOL0     C85600   3.105   8.198   3.061  0.6585  0.8365  0.0476
  635MOL0     C85601   3.226   8.286   3.035 -0.3538  1.2254 -0.1066
  635MOL0     C85602   3.183   8.397   2.934  0.8765  0.8025 -0.1476
  635MOL0     C85603   3.302   8.471   2.871 -0.2299 -0.1780  0.0147
  635MOL0     C85604   3.408   8.531   2.974 -0.6057 -0.4173  0.6345
  635MOL0     C85605   3.507   8.633   2.918 -0.5055  0.3730 -0.4471
  635MOL0     C85606   3.540   8.753   3.013  0.0828 -0.5382 -0.5968
  635MOL0     N85607   3.682   8.795   3.018  0.2128  0.7644  0.1255
  635MOL0     C85608   3.749   8.858   2.920  0.1507  1.1299  1.4827
  635MOL0     C85609   3.877   8.868   2.975  0.1087  0.1118  0.1763
  635MOL0     C85610   3.997   8.946   2.916 -0.2361 -0.2803 -0.0764
  635MOL0     C85611   4.113   8.855   2.903 -0.2307  0.3493  0.1072
  635MOL0     C85612   4.205   8.835   3.027 -0.7651  0.7267  0.7569
  635MOL0     C85613   4.334   8.752   2.994  0.5183 -0.2740 -0.0210
  635MOL0     O85614   4.293   8.628   2.938  0.3727 -0.0889 -0.2113
  635MOL0     C85615   4.377   8.521   2.935 -0.9362 -1.0960 -0.4507
  635MOL0     C85616   4.321   8.400   2.896 -0.5155 -0.0528  0.5693
  635MOL0     C85617   4.407   8.288   2.871 -0.4469  0.2889 -0.0308
  635MOL0     C85618   4.330   8.168   2.830  0.0137  0.3468 -0.3956
  635MOL0     C85619   4.546   8.295   2.883 -0.5773  0.8627  0.2480
  635MOL0     C85620   4.638   8.179   2.877 -0.4532  0.7845 -0.1962
  635MOL0     O85621   4.585   8.055   2.877 -0.3793 -0.0069 -0.3414
  635MOL0     C85622   4.677   7.949   2.890 -0.5196  0.3095  0.3341
  635MOL0     C85623   4.773   7.945   2.997 -0.7619 -0.5002 -0.0162
  635MOL0     C85624   4.864   7.838   3.008  0.2430 -0.6063  0.0316
  635MOL0     C85625   4.858   7.739   2.907  0.2780  0.5037 -0.3380
  635MOL0     O85626   4.952   7.643   2.930  0.2435  0.3977  0.3292
  635MOL0     C85627   5.030   7.591   2.816  0.6264  0.1785  0.5702
  635MOL0     C85628   5.176   7.608   2.853 -0.2308  0.8264 -0.4879
  635MOL0     C85629   5.222   7.500   2.951 -0.0501  0.4881 -0.8922
  635MOL0     C85630   5.307   7.566   3.061  0.2360  0.6159 -0.3234
  635MOL0     C85631   5.378   7.465   3.150 -0.1644 -0.6847 -0.6876
  635MOL0     C85632   5.373   7.510   3.299  0.7921  0.4403  0.4031
  635MOL0     C85633   5.495   7.432   3.374  0.5727 -0.3202 -0.0759
  635MOL0     C85634   5.572   7.524   3.468  0.0879  0.4390 -0.3881
  635MOL0    Cl85635   5.468   7.619   3.584  0.3937  0.2097  0.0201
  635MOL0     C85636   4.765   7.742   2.805 -0.0507 -0.3458 -1.0938
  635MOL0     C85637   4.669   7.843   2.798 -0.2426  0.8726 -0.4373
  635MOL0     O85638   4.758   8.205   2.866  0.2922 -0.5753  0.7379
  635MOL0     C85639   4.594   8.423   2.935 -0.0096  0.2780  0.6810
  635MOL0     C85640   4.520   8.534   2.957 -0.1003 -0.0984 -0.2402
  635MOL0     N85641   3.883   8.819   3.097  0.6176 -0.7636 -0.3372
  635MOL0     N85642   3.759   8.784   3.132 -0.4335 -0.2040  0.4853
  635MOL0     C85643   3.400   7.950   3.305  0.7878  0.4466 -0.7050
  635MOL0     C85644   3.441   7.946   3.440 -0.4989 -0.1764 -1.0538
  635MOL0     C85645   3.580   7.764   3.827  0.3624 -0.2268 -0.4816
  635MOL0     C85646   3.650   7.645   3.856 -0.4810 -0.7431  0.6045
  635MOL0     C85647   3.690   7.605   3.979 -0.1386  0.5775  0.4279
  635MOL0     C85648   3.675   7.699   4.083  0.1937 -0.2341 -1.1615
  635MOL0     O85649   3.708   7.674   4.216 -0.4108  0.3035  0.3302
  635MOL0     C85650   3.742   7.536   4.262 -0.8616 -0.0805  0.5156
  635MOL0     C85651   3.769   7.530   4.401 -0.0490 -0.4742 -0.4162
  635MOL0     C85652   3.810   7.396   4.448  0.2824  0.8815  0.3847
  635MOL0     C85653   3.958   7.357   4.443  0.7706  0.3431  0.8976
  635MOL0     C85654   3.990   7.231   4.507 -0.6617  0.1494  0.1242
  635MOL0     C85655   4.003   7.118   4.542  0.1065  0.1342  0.7613
  635MOL0     C85656   3.624   7.830   4.056  0.4511 -0.0861  0.6591
  635MOL0     C85657   3.574   7.859   3.930  0.3906 -0.7550 -0.6990
  635MOL0     H85658   3.180   7.860   3.610 -3.3659  2.1757 -0.2135
  635MOL0     H85659   3.073   7.917   3.370 -0.3827 -1.6045 -0.3956
  635MOL0     H85660   3.019   8.070   3.206  0.3505  0.0228 -0.4970
  635MOL0     H85661   3.133   8.179   3.277  0.8254 -1.0099  1.1968
  635MOL0     H85662   3.075   8.143   2.971  2.3812  0.5419 -0.3734
  635MOL0     H85663   3.021   8.265   3.078  0.4913  1.0386 -1.4057
  635MOL0     H85664   3.255   8.338   3.127  2.4944 -2.5328  1.3435
  635MOL0     H85665   3.308   8.224   2.997 -1.9884 -1.9795  1.2607
  635MOL0     H85666   3.127   8.346   2.855  1.0605 -1.7103  1.2396
  635MOL0     H85667   3.109   8.468   2.973 -0.9628 -1.7710  1.3348
  635MOL0     H85668   3.349   8.407   2.796  2.7176  1.0455  0.6495
  635MOL0     H85669   3.262   8.549   2.805  1.2440 -1.2853 -2.3239
  635MOL0     H85670   3.346   8.586   3.046 -0.4283 -2.5855  2.5987
  635MOL0     H85671   3.455   8.451   3.033 -1.7111 -0.4754  1.4804
  635MOL0     H85672   3.602   8.579   2.908  0.1110  0.5779  2.8830
  635MOL0     H85673   3.477   8.677   2.822  1.2838  2.8693  0.0200
  635MOL0     H85674   3.511   8.732   3.117 -0.8872  1.3220 -0.4425
  635MOL0     H85675   3.486   8.841   2.977 -0.2467  0.7487  2.6636
  635MOL0     H85676   3.714   8.896   2.825 -0.4044 -0.3409  1.0666
  635MOL0     H85677   3.968   8.993   2.822  2.7719  1.9675 -0.0111
  635MOL0     H85678   4.031   9.026   2.982 -0.1941  1.7540 -2.4298
  635MOL0     H85679   4.171   8.896   2.819 -0.2422  0.3949  0.1221
  635MOL0     H85680   4.084   8.757   2.863  0.0153  1.2904 -2.5960
  635MOL0     H85681   4.153   8.781   3.106  0.4240 -0.2464  0.8966
  635MOL0     H85682   4.231   8.933   3.068 -1.0320  0.9407  0.4203
  635MOL0     H85683   4.371   8.736   3.095  2.3395 -1.2913 -0.7964
  635MOL0     H85684   4.410   8.805   2.936 -2.4257  3.9781 -0.4545
  635MOL0     H85685   4.216   8.409   2.871 -0.9859 -1.0897  2.0742
  635MOL0     H85686   4.238   8.209   2.787 -2.2146 -1.3154  2.4122
  635MOL0     H85687   4.378   8.112   2.750  0.5529 -0.6624  0.6107
  635MOL0     H85688   4.305   8.108   2.918  0.6703  2.3803  1.2856
  635MOL0     H85689   4.782   8.028   3.066 -2.4047 -1.2566  1.1577
  635MOL0     H85690   4.946   7.833   3.080 -0.2392 -0.1390  0.6173
  635MOL0     H85691   5.010   7.484   2.802 -0.4365 -0.0224  3.1114
  635MOL0     H85692   5.008   7.636   2.719  2.5566 -0.3728 -0.1719
  635MOL0     H85693   5.237   7.614   2.762  0.5049  1.4882  0.0291
  635MOL0     H85694   5.183   7.707   2.899  0.1535  2.2694 -3.4163
  635MOL0     H85695   5.293   7.440   2.893 -0.1602  0.3694 -0.9022
  635MOL0     H85696   5.142   7.442   2.996  2.4118 -0.3187  2.8721
  635MOL0     H85697   5.368   7.645   3.016 -1.9321  3.3697  1.2459
  635MOL0     H85698   5.238   7.624   3.123  0.2200  0.5702 -0.2994
  635MOL0     H85699   5.482   7.460   3.117 -0.3701 -0.9883 -1.2996
  635MOL0     H85700   5.332   7.368   3.130  0.7031 -0.4857 -4.2228
  635MOL0     H85701   5.376   7.619   3.303 -2.3172  0.5639  2.2990
  635MOL0     H85702   5.274   7.479   3.333 -0.0620  0.4280 -1.9213
  635MOL0     H85703   5.558   7.387   3.297 -1.7645 -1.2734 -1.5614
  635MOL0     H85704   5.447   7.356   3.435 -1.9851  0.3205 -1.1385
  635MOL0     H85705   5.620   7.595   3.400  1.8076  0.3415  0.6525
  635MOL0     H85706   5.648   7.470   3.526 -0.6555  1.6668  1.8523
  635MOL0     H85707   4.761   7.660   2.733  4.4081 -3.6660  1.8859
  635MOL0     H85708   4.584   7.822   2.733 -0.4154  0.1833 -0.0044
  635MOL0     H85709   4.701   8.438   2.937  0.3123 -1.1959 -1.6099
  635MOL0     H85710   4.563   8.631   2.980  1.0148 -0.3228 -1.2650
  635MOL0     H85711   3.470   7.970   3.225  0.3015 -0.2877 -1.3298
  635MOL0     H85712   3.544   7.966   3.466 -0.8625  0.8824 -0.3542
  635MOL0     H85713   3.669   7.573   3.778 -0.1259  1.0138 -1.0055
  635MOL0     H85714   3.722   7.504   4.001  1.8265  1.1560  0.3985
  635MOL0     H85715   3.656   7.471   4.245  0.1257 -0.8000 -2.1138
  635MOL0     H85716   3.829   7.496   4.209  0.4298 -0.2883  2.6414
  635MOL0     H85717   3.676   7.543   4.457  1.3754 -0.5741  2.1534
  635MOL0     H85718   3.838   7.606   4.439 -0.5780 -0.6051  0.8788
  635MOL0     H85719   3.761   7.326   4.379  1.0787  1.4777 -0.8233
  635MOL0     H85720   3.776   7.376   4.550 -0.0223  1.3717  0.3841
  635MOL0     H85721   4.017   7.441   4.482 -1.3017  0.9132  3.0634
  635MOL0     H85722   3.988   7.336   4.340 -0.4000 -0.1623  0.6499
  635MOL0     H85723   4.048   7.023   4.563  2.9198  1.4944  1.3572
  635MOL0     H85724   3.623   7.907   4.132  2.3195 -1.3052  2.0171
  635MOL0     H85725   3.523   7.954   3.910 -1.9999 -1.9427 -0.6099
  636MOL0     O85726   6.549   3.903   7.490  0.4327  0.0319 -0.1193
  636MOL0     C85727   6.656   3.873   7.537 -0.6202  0.9590 -0.0416
  636MOL0     O85728   6.678   3.776   7.634 -0.3703 -0.4158  0.1195
  636MOL0     C85729   6.578   3.712   7.690  0.2151  0.8156  0.3983
  636MOL0     C85730   6.520   3.594   7.641 -0.2685  0.3236 -0.3765
  636MOL0     C85731   6.408   3.533   7.687 -0.3957  0.4711  0.2829
  636MOL0     C85732   6.345   3.581   7.807 -0.0307 -0.0910 -0.1487
  636MOL0     O85733   6.224   3.530   7.865  0.2882  0.1134  0.5136
  636MOL0     C85734   6.115   3.513   7.771  0.3710  0.6353  0.4847
  636MOL0     C85735   6.077   3.371   7.754 -0.4035 -0.0243  0.1013
  636MOL0     C85736   5.999   3.335   7.636 -0.3144  0.3490 -0.1154
  636MOL0     C85737   5.879   3.426   7.606 -1.3811  0.3891  0.8138
  636MOL0     C85738   5.764   3.416   7.716 -0.3332 -0.7976  0.3872
  636MOL0     C85739   5.640   3.502   7.686  0.3861 -0.0822  0.3311
  636MOL0     C85740   5.693   3.646   7.672  0.2170 -0.1291 -0.0530
  636MOL0     C85741   5.578   3.759   7.673  0.4239  0.4565 -0.2603
  636MOL0     N85742   5.486   3.767   7.782 -0.1360 -0.6885 -0.2530
  636MOL0     C85743   5.524   3.798   7.911  0.5420 -0.2221 -0.4243
  636MOL0     C85744   5.410   3.821   7.978  0.6430  1.0919  0.8699
  636MOL0     C85745   5.399   3.859   8.125  0.1177 -0.1459  0.6318
  636MOL0     C85746   5.501   3.968   8.169  0.3243  0.2165  0.3335
  636MOL0     C85747   5.624   3.906   8.220  0.5054  1.3188  0.3575
  636MOL0     C85748   5.735   4.008   8.222  0.5813 -0.6238  0.0030
  636MOL0     O85749   5.845   3.972   8.141 -0.4114  0.2314  0.6015
  636MOL0     C85750   5.965   4.046   8.144  1.0121  0.2843 -0.0687
  636MOL0     C85751   6.075   4.009   8.063  0.8810  0.1434 -0.6483
  636MOL0     C85752   6.195   4.072   8.071 -0.1030 -0.0608 -0.0435
  636MOL0     C85753   6.294   4.040   7.961 -0.4702 -0.6401  0.0751
  636MOL0     C85754   6.209   4.169   8.174  0.0822 -0.4916  0.2500
  636MOL0     C85755   6.331   4.249   8.208 -0.2512  0.2731 -0.0295
  636MOL0     O85756   6.359   4.284   8.345 -0.2011 -0.4732  1.0643
  636MOL0     C85757   6.482   4.341   8.374  0.4980 -0.1932  0.3710
  636MOL0     C85758   6.608   4.333   8.301 -0.4146 -0.5981 -0.3180
  636MOL0     C85759   6.723   4.401   8.352  0.5153 -0.0257  0.2778
  636MOL0     C85760   6.718   4.484   8.469 -0.4548 -0.6300  0.2277
  636MOL0     O85761   6.823   4.568   8.483 -0.6139  0.0631  0.1918
  636MOL0     C85762   6.880   4.572   8.609  0.2560  0.5612 -0.2509
  636MOL0     C85763   7.033   4.572   8.609 -0.8192  0.3229  0.2050
  636MOL0     C85764   7.104   4.538   8.738 -0.2758 -0.5509 -0.2598
  636MOL0     C85765   7.253   4.530   8.728  0.0910 -1.1990 -0.3377
  636MOL0     C85766   7.303   4.417   8.817 -0.5446 -0.3512  0.0686
  636MOL0     C85767   7.452   4.401   8.796  0.9550 -0.0562  0.5722
  636MOL0     C85768   7.504   4.270   8.855 -0.7038 -0.7965 -0.6855
  636MOL0     C85769   7.660   4.253   8.828  0.8385 -1.0301 -1.5701
  636MOL0    Cl85770   7.714   4.099   8.905 -0.3074  0.2192  0.1330
  636MOL0     C85771   6.596   4.496   8.532  0.2255 -0.1533 -0.3875
  636MOL0     C85772   6.479   4.429   8.481  0.1946 -0.0348 -0.5798
  636MOL0     O85773   6.395   4.286   8.107 -0.0730 -0.3602 -0.0687
  636MOL0     C85774   6.101   4.200   8.257 -0.0500  0.3333 -0.0811
  636MOL0     C85775   5.980   4.139   8.249  0.1386 -0.2809  1.0814
  636MOL0     N85776   5.305   3.800   7.887 -0.9089 -0.2819 -0.4027
  636MOL0     N85777   5.350   3.771   7.774 -0.0089 -0.7851  0.0746
  636MOL0     C85778   6.416   3.686   7.868 -0.3965 -0.4702  0.3415
  636MOL0     C85779   6.522   3.758   7.805 -0.3434  0.4432  0.2119
  636MOL0     C85780   6.770   3.957   7.502 -0.3280  0.4384 -0.6463
  636MOL0     C85781   6.750   4.064   7.415  0.7395  0.3291  0.1067
  636MOL0     C85782   6.837   4.171   7.397  0.1381 -0.1824  0.0853
  636MOL0     C85783   6.964   4.161   7.458 -0.3179 -0.2150 -0.2035
  636MOL0     O85784   7.054   4.269   7.476 -0.0677  0.0130  1.0380
  636MOL0     C85785   7.007   4.406   7.458  0.5025 -0.4993 -0.1253
  636MOL0     C85786   6.920   4.445   7.580 -1.1016 -0.6828  1.2617
  636MOL0     C85787   6.875   4.590   7.577  0.3275  0.1341  0.5815
  636MOL0     C85788   6.725   4.601   7.615 -0.4259  0.0004 -0.6216
  636MOL0     C85789   6.662   4.720   7.556  0.6771 -0.4140  0.4354
  636MOL0     C85790   6.602   4.818   7.517  0.1808 -0.7067  0.2997
  636MOL0     C85791   6.990   4.049   7.546 -0.5411 -0.1872  0.1040
  636MOL0     C85792   6.898   3.952   7.559  1.0050  0.2858 -1.0743
  636MOL0     H85793   6.553   3.552   7.546 -4.4776 -0.5925 -1.6255
  636MOL0     H85794   6.366   3.443   7.644  0.2447 -0.2759  1.1649
  636MOL0     H85795   6.021   3.559   7.804 -1.3309 -1.5410 -1.0671
  636MOL0     H85796   6.142   3.556   7.674 -1.3839  0.1157 -0.2758
  636MOL0     H85797   6.176   3.325   7.748  0.5122  1.9849 -0.8455
  636MOL0     H85798   6.027   3.348   7.849 -2.5249  1.6312 -0.5321
  636MOL0     H85799   6.064   3.325   7.548 -0.8890  0.3422 -0.5444
  636MOL0     H85800   5.967   3.233   7.655  2.6949 -0.2713  2.2950
  636MOL0     H85801   5.907   3.530   7.586  1.4028 -0.5439 -0.5833
  636MOL0     H85802   5.834   3.391   7.513  0.7130 -0.8869  0.2276
  636MOL0     H85803   5.730   3.312   7.718  2.1987 -1.8624 -2.9644
  636MOL0     H85804   5.803   3.443   7.815 -1.2097 -0.1850  0.5759
  636MOL0     H85805   5.592   3.475   7.592 -1.2417  0.2854  1.0191
  636MOL0     H85806   5.563   3.501   7.763  0.0629  0.7750  0.0308
  636MOL0     H85807   5.766   3.664   7.751  1.6248 -3.8993 -0.2927
  636MOL0     H85808   5.745   3.663   7.577  1.7248 -0.1860  0.7414
  636MOL0     H85809   5.527   3.737   7.578  0.6392 -2.3555  0.1731
  636MOL0     H85810   5.633   3.853   7.676  3.0821 -1.0031 -0.1876
  636MOL0     H85811   5.629   3.799   7.940  0.6530  0.5230 -0.8269
  636MOL0     H85812   5.301   3.905   8.137  0.6433  1.1946 -0.0564
  636MOL0     H85813   5.404   3.775   8.195 -0.3973 -0.5472  0.1955
  636MOL0     H85814   5.463   4.024   8.255  3.6923  2.3956  0.5722
  636MOL0     H85815   5.512   4.038   8.086 -1.6294  0.3958  0.1821
  636MOL0     H85816   5.658   3.839   8.140  1.5080  1.6719  0.4793
  636MOL0     H85817   5.625   3.842   8.308 -0.3361 -0.7900 -1.0800
  636MOL0     H85818   5.758   4.004   8.329  0.0686 -1.4652  0.0913
  636MOL0     H85819   5.699   4.105   8.188  1.7064 -1.0575 -2.6196
  636MOL0     H85820   6.047   3.931   7.993  1.3014  1.0792 -1.8831
  636MOL0     H85821   6.243   3.951   7.924  1.0856 -2.0136  1.0904
  636MOL0     H85822   6.298   4.122   7.889 -0.9018 -0.3447  0.3846
  636MOL0     H85823   6.395   4.023   8.001 -0.2313  1.0897  0.3023
  636MOL0     H85824   6.616   4.269   8.214 -1.7557 -1.4929  0.1869
  636MOL0     H85825   6.811   4.395   8.289 -0.3482  2.0430 -1.2328
  636MOL0     H85826   6.841   4.661   8.658  2.0976  1.4580 -0.3413
  636MOL0     H85827   6.841   4.489   8.669  2.0672 -0.2093 -0.0772
  636MOL0     H85828   7.067   4.490   8.545  3.3978  2.5895 -0.8647
  636MOL0     H85829   7.070   4.670   8.578 -1.6900  0.6801  0.2693
  636MOL0     H85830   7.062   4.444   8.776  0.6055 -0.8680 -0.0575
  636MOL0     H85831   7.084   4.619   8.810  1.0049 -0.1266 -0.3456
  636MOL0     H85832   7.290   4.514   8.626 -0.5944  0.3675 -0.8730
  636MOL0     H85833   7.283   4.629   8.763 -0.4189 -1.2875  0.3683
  636MOL0     H85834   7.249   4.322   8.809 -2.2529  0.5245  0.6565
  636MOL0     H85835   7.298   4.438   8.925  0.5596 -0.2425  0.1119
  636MOL0     H85836   7.477   4.408   8.690 -0.0722  0.9119  0.3721
  636MOL0     H85837   7.503   4.486   8.841  2.0457  1.8804 -3.7770
  636MOL0     H85838   7.436   4.196   8.812 -0.7072 -1.3656  0.2846
  636MOL0     H85839   7.481   4.282   8.961 -0.3902 -0.9840 -0.5925
  636MOL0     H85840   7.711   4.334   8.880 -0.5025 -2.1508  1.7482
  636MOL0     H85841   7.680   4.249   8.720  0.5184  1.3636 -1.7588
  636MOL0     H85842   6.584   4.559   8.620 -3.0934 -2.4642  1.0506
  636MOL0     H85843   6.384   4.459   8.524 -0.5927 -2.6169 -0.3758
  636MOL0     H85844   6.109   4.275   8.335  0.5204  2.0220 -1.7214
  636MOL0     H85845   5.904   4.171   8.319 -0.8911  1.8124 -0.8446
  636MOL0     H85846   6.386   3.724   7.965  1.4516  0.1061  0.7349
  636MOL0     H85847   6.568   3.845   7.851 -1.6028  2.1811 -1.6755
  636MOL0     H85848   6.655   4.055   7.364  2.6576 -1.8581 -3.4404
  636MOL0     H85849   6.799   4.243   7.326  0.1639  0.9407  1.1731
  636MOL0     H85850   7.108   4.448   7.451  0.4630 -0.3817 -0.0045
  636MOL0     H85851   6.951   4.421   7.365  0.3696 -0.0284  0.0295
  636MOL0     H85852   6.980   4.422   7.668 -0.6768 -0.3532  1.0635
  636MOL0     H85853   6.830   4.384   7.581 -1.5956 -0.0125 -0.1528
  636MOL0     H85854   6.907   4.639   7.484  3.8178  1.1745  2.1556
  636MOL0     H85855   6.932   4.648   7.650 -2.2879  4.6373 -0.5505
  636MOL0     H85856   6.711   4.611   7.723 -3.6529 -1.6529 -0.7374
  636MOL0     H85857   6.668   4.511   7.590 -0.0197 -0.2610 -0.6175
  636MOL0     H85858   6.554   4.900   7.468  1.0498 -1.4858 -1.9776
  636MOL0     H85859   7.082   4.058   7.603  0.2806 -0.6510 -1.1333
  636MOL0     H85860   6.919   3.878   7.636  0.5967  0.8620 -0.3952
  637MOL0     O85861   0.363   6.943  10.726  0.1025 -0.4722 -0.3395
  637MOL0     C85862   0.396   7.064  10.730  0.9651 -0.1800  1.0005
  637MOL0     O85863   0.404   7.148  10.840  0.0020 -0.4270 -0.2695
  637MOL0     C85864   0.398   7.091  10.966  0.0952 -1.0773  1.5194
  637MOL0     C85865   0.288   7.122  11.043 -0.5748 -0.7284  0.3402
  637MOL0     C85866   0.255   7.056  11.161 -0.6616 -0.8309 -0.7230
  637MOL0     C85867   0.340   6.962  11.206 -0.4119 -1.4710 -0.2658
  637MOL0     O85868   0.325   6.902  11.323 -0.8548  0.2431 -0.8259
  637MOL0     C85869   0.271   6.946  11.451  0.5477 -0.1136  1.1743
  637MOL0     C85870   0.368   7.033  11.536 -0.0576 -0.0358 -0.8199
  637MOL0     C85871   0.277   7.116  11.631 -0.0767  0.0832  0.2380
  637MOL0     C85872   0.330   7.242  11.694 -0.1014  0.6096  0.3595
  637MOL0     C85873   0.242   7.310  11.799  0.3162 -0.2567 -0.0632
  637MOL0     C85874   0.333   7.406  11.867 -0.3051  1.0994 -0.1655
  637MOL0     C85875   0.259   7.500  11.962  0.7950  0.2347 -0.7502
  637MOL0     C85876   0.353   7.574  12.056 -0.3455 -0.2174  0.1649
  637MOL0     N85877   0.445   7.667  11.989 -0.5112 -0.7007 -0.0172
  637MOL0     C85878   0.401   7.760  11.897  0.1362  0.3033  0.4799
  637MOL0     C85879   0.503   7.842  11.878  0.4272  0.2375 -0.8225
  637MOL0     C85880   0.508   7.969  11.797 -0.3067  0.4564 -0.4523
  637MOL0     C85881   0.439   8.103  11.856 -0.0694 -0.0690 -0.3210
  637MOL0     C85882   0.498   8.149  11.995 -0.4833 -0.3355 -0.9107
  637MOL0     C85883   0.639   8.221  11.989 -0.0206 -0.3341 -0.0193
  637MOL0     O85884   0.673   8.295  12.102  1.0496 -0.2726 -0.7414
  637MOL0     C85885   0.675   8.226  12.222 -0.3579 -0.0341 -0.1488
  637MOL0     C85886   0.659   8.299  12.342 -0.9046  0.0911 -0.2456
  637MOL0     C85887   0.679   8.250  12.474 -0.4693  0.4770  0.1989
  637MOL0     C85888   0.652   8.346  12.584 -0.5334 -0.1666  0.3687
  637MOL0     C85889   0.715   8.116  12.490  0.1031  0.1461  0.3526
  637MOL0     C85890   0.747   8.050  12.618 -0.5937  0.4514 -0.3994
  637MOL0     O85891   0.796   8.134  12.708 -0.7195  0.1668 -0.1914
  637MOL0     C85892   0.880   8.088  12.809 -0.6209  0.2226  0.2150
  637MOL0     C85893   0.907   7.955  12.849  0.6970 -0.3627  0.0754
  637MOL0     C85894   1.003   7.931  12.945 -0.3412  0.5126  0.6347
  637MOL0     C85895   1.077   8.029  13.010  0.4425 -0.2225 -0.0329
  637MOL0     O85896   1.177   8.007  13.097  0.0650 -0.9119  0.4073
  637MOL0     C85897   1.292   8.096  13.087  1.0505 -0.9873 -0.5819
  637MOL0     C85898   1.392   8.063  13.194 -0.0107 -0.0374  0.4279
  637MOL0     C85899   1.335   8.062  13.334 -0.6275  0.3204  1.3651
  637MOL0     C85900   1.422   8.008  13.443  0.1476  0.4094  0.4178
  637MOL0     C85901   1.329   8.004  13.569  0.2720 -0.2228  0.2537
  637MOL0     C85902   1.392   7.941  13.693  0.4656  0.1925  0.0480
  637MOL0     C85903   1.298   7.993  13.801 -0.5361  0.6662 -0.2120
  637MOL0     C85904   1.350   7.955  13.951  0.5316 -0.1049 -0.4268
  637MOL0    Cl85905   1.496   8.058  13.980  0.2971  0.0261  0.2046
  637MOL0     C85906   1.034   8.163  12.980 -0.0890  0.7249 -0.1936
  637MOL0     C85907   0.946   8.191  12.878 -0.6730  0.0253  0.1020
  637MOL0     O85908   0.729   7.930  12.636 -0.2607 -0.4320  1.1328
  637MOL0     C85909   0.717   8.038  12.372 -0.3587  1.2757 -0.7551
  637MOL0     C85910   0.694   8.089  12.243  0.4324 -0.5035  0.9050
  637MOL0     N85911   0.603   7.803  11.968  0.0224 -0.7836 -0.5798
  637MOL0     N85912   0.566   7.705  12.035 -0.0479  0.0806  0.7141
  637MOL0     C85913   0.455   6.931  11.128 -0.0917 -1.3406  0.5356
  637MOL0     C85914   0.492   6.994  11.001  1.4872  0.3120  0.4918
  637MOL0     C85915   0.407   7.131  10.597 -0.1481  0.4735  0.0621
  637MOL0     C85916   0.410   7.060  10.469  0.4567 -0.3203 -0.2569
  637MOL0     C85917   0.425   7.135  10.351  0.2839 -0.4227  0.4314
  637MOL0     C85918   0.432   7.268  10.359  0.3128 -0.6736  0.3743
  637MOL0     O85919   0.452   7.350  10.252  0.5060  0.5714  0.1248
  637MOL0     C85920   0.585   7.402  10.236  0.5717 -0.3252  0.4879
  637MOL0     C85921   0.633   7.377  10.096  0.1655 -0.0577 -0.4288
  637MOL0     C85922   0.565   7.457   9.988  0.4412  0.3819  0.6237
  637MOL0     C85923   0.638   7.431   9.854  0.5422  0.2096  0.2791
  637MOL0     C85924   0.759   7.510   9.828  0.4724 -0.1653  0.4542
  637MOL0     C85925   0.854   7.571   9.801 -0.4688  0.7319 -0.3194
  637MOL0     C85926   0.419   7.342  10.482  0.0873 -0.1775  0.2318
  637MOL0     C85927   0.409   7.271  10.602 -0.8300 -0.3121  0.4849
  637MOL0     H85928   0.202   7.183  11.020  1.8622  2.4896 -1.0074
  637MOL0     H85929   0.167   7.079  11.219  1.6770  2.3144  1.9978
  637MOL0     H85930   0.169   6.985  11.441  0.7137  0.6168  2.1199
  637MOL0     H85931   0.260   6.853  11.507  0.8920 -1.4445 -0.8758
  637MOL0     H85932   0.437   6.967  11.589 -1.1730 -0.3120  0.3406
  637MOL0     H85933   0.431   7.105  11.484  0.5068  0.7326  0.8559
  637MOL0     H85934   0.186   7.131  11.572 -1.2227 -0.2173  1.8519
  637MOL0     H85935   0.259   7.050  11.716  1.9892  1.1701  1.6078
  637MOL0     H85936   0.418   7.204  11.747  0.1818 -1.3349 -1.3840
  637MOL0     H85937   0.373   7.311  11.620  1.7964 -1.2763 -0.4080
  637MOL0     H85938   0.151   7.358  11.762  0.2193 -1.5675 -1.6209
  637MOL0     H85939   0.214   7.238  11.876  0.3345  0.2797  0.4481
  637MOL0     H85940   0.400   7.347  11.931 -2.4859 -1.1095  0.2540
  637MOL0     H85941   0.398   7.455  11.795  0.2523 -0.2350 -0.6051
  637MOL0     H85942   0.200   7.569  11.901  0.9163  2.9672  1.9541
  637MOL0     H85943   0.199   7.445  12.035  2.2737 -0.1615  0.2281
  637MOL0     H85944   0.412   7.501  12.111  0.1322 -1.0622 -1.4195
  637MOL0     H85945   0.287   7.636  12.118 -0.7468 -0.0462 -0.4235
  637MOL0     H85946   0.299   7.787  11.873 -0.7035 -1.6410  1.6739
  637MOL0     H85947   0.615   7.982  11.777  0.3798 -2.9587  0.2503
  637MOL0     H85948   0.474   7.956  11.694 -1.7145  1.1288 -0.0890
  637MOL0     H85949   0.333   8.082  11.871  0.1955 -0.8048  0.6645
  637MOL0     H85950   0.448   8.184  11.784 -0.2118 -0.3554 -0.6638
  637MOL0     H85951   0.495   8.062  12.062  0.4002 -2.1070 -3.0130
  637MOL0     H85952   0.429   8.216  12.046 -2.7348 -0.7926 -3.1753
  637MOL0     H85953   0.636   8.293  11.907 -0.8021 -1.1445 -0.7213
  637MOL0     H85954   0.715   8.148  11.961  0.7287 -0.2513  1.6856
  637MOL0     H85955   0.655   8.406  12.329 -2.7530 -0.1214 -1.8707
  637MOL0     H85956   0.560   8.319  12.638 -0.2009 -0.0571  1.0006
  637MOL0     H85957   0.739   8.357  12.649  1.2807  0.6200 -2.0432
  637MOL0     H85958   0.639   8.442  12.535 -1.8714 -0.9855 -0.9481
  637MOL0     H85959   0.856   7.866  12.812  2.0208 -1.4670  0.8467
  637MOL0     H85960   1.018   7.833  12.989  2.4566  0.6597  0.2038
  637MOL0     H85961   1.346   8.084  12.993  0.2770 -0.9730 -1.0393
  637MOL0     H85962   1.262   8.201  13.100  0.6749 -1.1727  0.1375
  637MOL0     H85963   1.424   7.962  13.167 -0.6947 -0.1345 -0.0757
  637MOL0     H85964   1.481   8.125  13.185  0.3238 -0.6988 -1.3129
  637MOL0     H85965   1.248   7.996  13.341  0.7565 -1.6627  0.6102
  637MOL0     H85966   1.298   8.161  13.364  1.7465  1.7316 -0.0456
  637MOL0     H85967   1.468   7.911  13.421  2.1241  1.1004  1.3148
  637MOL0     H85968   1.507   8.076  13.456  2.2473 -1.3361 -2.7500
  637MOL0     H85969   1.239   7.952  13.533 -0.8232  1.5704  0.2796
  637MOL0     H85970   1.289   8.104  13.590 -0.8418 -0.4055 -0.8583
  637MOL0     H85971   1.380   7.832  13.688  0.6319  0.1370  0.7150
  637MOL0     H85972   1.495   7.975  13.712  1.7351 -2.3624 -1.6470
  637MOL0     H85973   1.206   7.938  13.777  0.5019  0.3300 -4.2541
  637MOL0     H85974   1.289   8.102  13.799  0.9693  0.8489  1.3019
  637MOL0     H85975   1.368   7.848  13.959 -0.5544 -0.2366  0.5908
  637MOL0     H85976   1.275   7.989  14.023 -0.1392 -0.7436 -0.8160
  637MOL0     H85977   1.086   8.249  13.020  0.5404  1.0546 -1.6610
  637MOL0     H85978   0.930   8.296  12.855 -1.1425  0.1632  1.0092
  637MOL0     H85979   0.756   7.936  12.368  1.2128  1.7719  0.6547
  637MOL0     H85980   0.730   8.028  12.162  6.2412  0.5037  2.2928
  637MOL0     H85981   0.530   6.865  11.170 -1.0583 -0.6291  3.5969
  637MOL0     H85982   0.577   6.983  10.935 -0.6848 -2.4939 -2.1091
  637MOL0     H85983   0.411   6.951  10.465 -1.9307 -0.3889 -1.1601
  637MOL0     H85984   0.430   7.082  10.256  0.0566 -1.1890  0.8415
  637MOL0     H85985   0.598   7.506  10.269  0.9406 -0.1944 -0.0490
  637MOL0     H85986   0.654   7.343  10.298  1.9108  1.2676  0.5903
  637MOL0     H85987   0.604   7.274  10.072 -2.1067 -0.0825  1.9495
  637MOL0     H85988   0.742   7.382  10.087  0.2367 -1.5801 -0.6498
  637MOL0     H85989   0.557   7.565  10.006 -0.1453  0.9891 -2.5993
  637MOL0     H85990   0.463   7.420   9.975  0.7353  0.2126 -1.7695
  637MOL0     H85991   0.566   7.444   9.774  0.2998 -0.3502  0.3970
  637MOL0     H85992   0.669   7.326   9.855  2.1143  0.6437 -0.2822
  637MOL0     H85993   0.940   7.628   9.770  0.3677 -0.0829  0.4463
  637MOL0     H85994   0.415   7.450  10.471  1.0087 -0.1827 -0.2786
  637MOL0     H85995   0.401   7.321  10.698 -0.5697 -0.4678  0.5883
  638MOL0     O85996   6.079   4.654   8.428 -0.4583  0.0600  0.1001
  638MOL0     C85997   6.082   4.626   8.309  0.6429 -0.2393 -0.5450
  638MOL0     O85998   6.187   4.654   8.224  0.6764 -0.2845 -1.1637
  638MOL0     C85999   6.294   4.730   8.264 -0.2448 -0.3813 -0.1703
  638MOL0     C86000   6.291   4.861   8.313  0.1379 -0.0804  0.8363
  638MOL0     C86001   6.401   4.931   8.329 -0.6681  0.0880  0.1062
  638MOL0     C86002   6.530   4.879   8.320 -0.4164 -0.8142 -0.4773
  638MOL0     O86003   6.641   4.958   8.347  0.6070 -0.1028 -0.1318
  638MOL0     C86004   6.766   4.886   8.380  0.4620 -0.3969  0.8985
  638MOL0     C86005   6.876   4.988   8.417 -0.1913 -0.0010 -0.7470
  638MOL0     C86006   6.934   5.078   8.302 -0.4549  0.5615 -0.3170
  638MOL0     C86007   6.880   5.217   8.306  0.4532  0.6972  0.0223
  638MOL0     C86008   6.963   5.299   8.206 -0.0782 -0.3280  0.1520
  638MOL0     C86009   6.901   5.282   8.059 -0.1575 -0.7951 -0.2149
  638MOL0     C86010   6.968   5.387   7.963  0.2231 -0.1127 -0.0830
  638MOL0     C86011   6.947   5.363   7.814 -0.1999  0.1828  0.2583
  638MOL0     N86012   6.981   5.488   7.738 -0.6651 -0.5055  0.4411
  638MOL0     C86013   7.104   5.528   7.707 -0.5593 -0.8664  0.0433
  638MOL0     C86014   7.083   5.592   7.583 -0.5676  0.0169 -1.0794
  638MOL0     C86015   7.186   5.650   7.494 -0.3646 -0.2985  1.2904
  638MOL0     C86016   7.328   5.589   7.525  0.0310 -0.1463 -0.7678
  638MOL0     C86017   7.432   5.662   7.442 -0.3359 -0.5029 -0.5271
  638MOL0     C86018   7.576   5.638   7.484  1.1161  0.9187  0.5508
  638MOL0     O86019   7.621   5.722   7.583  0.3268 -0.6508 -0.4319
  638MOL0     C86020   7.657   5.853   7.564  0.6011 -0.2429 -0.1864
  638MOL0     C86021   7.708   5.899   7.449 -0.0887 -0.6654  0.8220
  638MOL0     C86022   7.750   6.033   7.434  0.7000 -0.8894 -0.5794
  638MOL0     C86023   7.783   6.073   7.295  0.4425 -0.3143  0.7659
  638MOL0     C86024   7.741   6.122   7.545  0.0802 -0.2387 -0.6219
  638MOL0     C86025   7.787   6.262   7.545 -0.5190 -0.1966 -0.2536
  638MOL0     O86026   7.765   6.334   7.659 -0.3757 -1.1062 -0.2982
  638MOL0     C86027   7.751   6.467   7.661  1.3187  0.1534 -0.2658
  638MOL0     C86028   7.744   6.551   7.554 -0.5490  0.3577  0.9491
  638MOL0     C86029   7.724   6.687   7.566  1.0116  0.4735  0.2464
  638MOL0     C86030   7.691   6.745   7.699  0.1458  0.3259 -0.7244
  638MOL0     O86031   7.690   6.882   7.710  0.0957  0.1113  0.0038
  638MOL0     C86032   7.654   6.955   7.829 -0.2019 -0.1033  0.3567
  638MOL0     C86033   7.503   6.969   7.841 -0.5468 -1.0463 -0.2843
  638MOL0     C86034   7.452   7.055   7.723  0.4261 -0.6263  0.3760
  638MOL0     C86035   7.541   7.167   7.667 -0.7953  0.3916  0.4201
  638MOL0     C86036   7.557   7.274   7.778 -0.4874  0.8639 -0.2056
  638MOL0     C86037   7.609   7.395   7.711 -0.3517 -0.4917 -0.5838
  638MOL0     C86038   7.660   7.494   7.820  0.0822 -0.3327  0.1891
  638MOL0     C86039   7.542   7.531   7.912 -0.5608 -0.6243 -0.2550
  638MOL0    Cl86040   7.399   7.586   7.814 -0.5847  0.2251  0.2541
  638MOL0     C86041   7.692   6.656   7.804  0.0964  0.5599  0.2432
  638MOL0     C86042   7.723   6.519   7.782  0.4298  1.0330 -0.0365
  638MOL0     O86043   7.849   6.306   7.450 -0.3816 -0.6800 -0.2023
  638MOL0     C86044   7.690   6.071   7.663  0.0734  0.8350 -0.1835
  638MOL0     C86045   7.644   5.939   7.669  0.0441 -0.6529  0.0666
  638MOL0     N86046   6.954   5.605   7.566  0.8413  0.4460  0.9290
  638MOL0     N86047   6.890   5.550   7.655 -1.2974 -0.5234  0.2594
  638MOL0     C86048   6.538   4.741   8.287  0.0760 -0.2362 -0.5454
  638MOL0     C86049   6.425   4.672   8.248  0.0598  0.0274  0.0779
  638MOL0     C86050   5.971   4.541   8.266 -0.7063 -0.2186 -0.0816
  638MOL0     C86051   5.985   4.486   8.141  0.4114 -0.7234  0.7212
  638MOL0     C86052   5.874   4.426   8.082  0.7025  1.0788  0.2459
  638MOL0     C86053   5.749   4.409   8.156 -0.3658 -0.1316  0.4720
  638MOL0     O86054   5.624   4.359   8.111  0.4667  0.1954 -0.7135
  638MOL0     C86055   5.614   4.343   7.974  0.1190 -1.2054 -0.1240
  638MOL0     C86056   5.466   4.327   7.942  0.6002 -0.3606  0.1252
  638MOL0     C86057   5.428   4.307   7.792  1.0334 -0.0115  0.0950
  638MOL0     C86058   5.376   4.160   7.775 -0.7432  0.0360  0.0455
  638MOL0     C86059   5.383   4.120   7.634  0.1330 -1.2545 -0.1566
  638MOL0     C86060   5.386   4.082   7.522 -0.4760 -0.9924  0.5876
  638MOL0     C86061   5.733   4.459   8.287  0.5171 -0.4066 -0.0081
  638MOL0     C86062   5.843   4.520   8.349 -0.3274 -0.4211 -0.5127
  638MOL0     H86063   6.195   4.908   8.330  0.7327  1.6263 -0.2802
  638MOL0     H86064   6.404   5.032   8.367  2.1932  0.4250 -0.7742
  638MOL0     H86065   6.762   4.812   8.460  0.8788 -0.6094  0.7295
  638MOL0     H86066   6.800   4.829   8.293  1.0236  1.1557  0.0530
  638MOL0     H86067   6.837   5.053   8.496 -2.0393 -2.4776  0.5226
  638MOL0     H86068   6.955   4.925   8.461 -0.2228  1.9253  2.3468
  638MOL0     H86069   7.041   5.097   8.305  0.0296 -1.2052 -3.0979
  638MOL0     H86070   6.914   5.018   8.212 -0.6475  0.0804  0.0409
  638MOL0     H86071   6.774   5.212   8.280  0.5419  0.2937 -0.2731
  638MOL0     H86072   6.891   5.265   8.404  0.4680  1.0023 -0.1278
  638MOL0     H86073   6.952   5.400   8.248 -2.6312 -1.0242  1.3305
  638MOL0     H86074   7.070   5.275   8.206  0.6268  2.3848  1.2124
  638MOL0     H86075   6.928   5.182   8.024  1.3481 -0.2132 -0.7920
  638MOL0     H86076   6.792   5.293   8.062 -0.4747 -3.1453 -1.0532
  638MOL0     H86077   6.926   5.485   7.986  0.8346  0.4111 -1.1269
  638MOL0     H86078   7.075   5.405   7.982 -0.0848  0.2523  1.3961
  638MOL0     H86079   6.844   5.333   7.792  0.3144 -2.0040  0.6032
  638MOL0     H86080   7.014   5.279   7.794  0.7377  1.0065 -0.1933
  638MOL0     H86081   7.196   5.494   7.753  1.7748  0.6111 -3.1797
  638MOL0     H86082   7.149   5.623   7.395 -3.2239 -0.9450  2.4183
  638MOL0     H86083   7.183   5.757   7.513 -0.2682  0.0177 -0.4058
  638MOL0     H86084   7.343   5.482   7.506  0.1962  0.0256 -1.6405
  638MOL0     H86085   7.350   5.604   7.631 -0.3857 -0.2726 -0.6608
  638MOL0     H86086   7.412   5.769   7.452 -3.4051 -1.0362 -0.0589
  638MOL0     H86087   7.417   5.645   7.335  0.8108  1.8982 -1.1219
  638MOL0     H86088   7.641   5.646   7.396 -1.2418 -0.2603 -1.4432
  638MOL0     H86089   7.587   5.531   7.505 -0.3709  0.1017 -2.2647
  638MOL0     H86090   7.704   5.830   7.365  1.4052  1.3890 -1.0451
  638MOL0     H86091   7.892   6.077   7.289  0.3915 -1.0302 -1.7118
  638MOL0     H86092   7.738   5.994   7.233  1.6814 -2.0483  1.9745
  638MOL0     H86093   7.742   6.168   7.261  3.2995  1.0661  0.8533
  638MOL0     H86094   7.766   6.523   7.451  0.3127  2.8882  0.3859
  638MOL0     H86095   7.710   6.754   7.483 -3.1315  1.9148  1.8305
  638MOL0     H86096   7.692   6.909   7.920  2.0601  2.5048  0.8934
  638MOL0     H86097   7.702   7.052   7.809  0.4401 -0.4233  0.3034
  638MOL0     H86098   7.447   6.876   7.853 -1.5713 -0.5526 -1.0795
  638MOL0     H86099   7.475   7.033   7.926 -0.4413  0.6917 -1.5162
  638MOL0     H86100   7.350   7.090   7.743  0.6595  0.7909 -0.7352
  638MOL0     H86101   7.425   6.993   7.637 -1.2972  3.2908 -2.1961
  638MOL0     H86102   7.640   7.135   7.634 -0.0189  2.2566  0.7809
  638MOL0     H86103   7.484   7.196   7.578  0.3958  2.7898  0.3541
  638MOL0     H86104   7.627   7.235   7.852  0.2570  0.7144 -0.9680
  638MOL0     H86105   7.455   7.283   7.817 -1.1607 -2.4276 -0.9502
  638MOL0     H86106   7.694   7.354   7.657 -0.6535 -0.1863 -1.3131
  638MOL0     H86107   7.538   7.447   7.645 -0.2736  4.6410  2.8280
  638MOL0     H86108   7.690   7.587   7.771  1.0560 -0.4418  0.5397
  638MOL0     H86109   7.745   7.458   7.880  0.0143  1.4098  1.3940
  638MOL0     H86110   7.561   7.619   7.974 -0.3199  1.0098 -2.5331
  638MOL0     H86111   7.504   7.448   7.973 -0.7738 -1.3587 -1.3604
  638MOL0     H86112   7.658   6.669   7.907 -0.1887 -2.8900  0.6780
  638MOL0     H86113   7.726   6.446   7.861  4.0970 -1.3170 -2.0741
  638MOL0     H86114   7.681   6.129   7.755  0.1987 -1.5098  1.3756
  638MOL0     H86115   7.609   5.903   7.765  2.5529  2.9289  2.5473
  638MOL0     H86116   6.630   4.684   8.290  0.3799  0.2575 -0.4489
  638MOL0     H86117   6.436   4.567   8.222  2.7118  0.0102  0.9552
  638MOL0     H86118   6.074   4.497   8.079 -0.9361 -2.4257 -1.7027
  638MOL0     H86119   5.879   4.387   7.981 -2.7396  1.4598 -0.2225
  638MOL0     H86120   5.647   4.439   7.933 -0.6254  0.5212  2.9872
  638MOL0     H86121   5.665   4.258   7.928  2.9598  1.1705 -1.7815
  638MOL0     H86122   5.404   4.411   7.972  1.5853  1.0778 -1.6008
  638MOL0     H86123   5.425   4.241   7.994 -2.5078  1.5790  1.1305
  638MOL0     H86124   5.513   4.329   7.727 -0.1750 -1.6023 -2.1529
  638MOL0     H86125   5.346   4.374   7.765 -0.2943 -2.4225 -2.4049
  638MOL0     H86126   5.270   4.159   7.802 -1.2130 -2.7139 -1.4937
  638MOL0     H86127   5.439   4.095   7.836  3.2430  3.9822  0.5958
  638MOL0     H86128   5.404   4.059   7.419 -1.0503  0.3440  0.1638
  638MOL0     H86129   5.640   4.454   8.341 -0.1719 -0.0955 -1.1335
  638MOL0     H86130   5.830   4.566   8.447  0.4556  2.3424 -1.6148
  639MOL0     O86131   8.450  11.224   3.498 -0.2699  0.7357  0.2356
  639MOL0     C86132   8.418  11.305   3.415  0.9647 -0.1196  0.6483
  639MOL0     O86133   8.495  11.343   3.309  1.0358 -0.2937  0.3064
  639MOL0     C86134   8.628  11.337   3.318 -0.4800 -0.3788 -0.7782
  639MOL0     C86135   8.712  11.253   3.393 -0.5342  0.4905  0.3842
  639MOL0     C86136   8.849  11.271   3.409 -0.0683 -0.1839 -0.5434
  639MOL0     C86137   8.908  11.374   3.341  1.6278 -0.4881  0.3918
  639MOL0     O86138   9.036  11.396   3.361 -0.9086  0.3745  0.1184
  639MOL0     C86139   9.060  11.534   3.398  0.2600 -0.6577  0.6617
  639MOL0     C86140   9.173  11.552   3.492  0.3125  0.2809 -0.6564
  639MOL0     C86141   9.306  11.575   3.424 -0.8143 -0.2716  0.4990
  639MOL0     C86142   9.407  11.593   3.550 -0.2308  0.1272  1.0073
  639MOL0     C86143   9.555  11.614   3.512  0.4559  1.2567 -0.5751
  639MOL0     C86144   9.636  11.666   3.634 -0.0290  0.0349  0.3373
  639MOL0     C86145   9.701  11.567   3.727 -0.9550  0.5815  0.5567
  639MOL0     C86146   9.810  11.480   3.662 -0.6371  0.4433  0.4823
  639MOL0     N86147   9.921  11.559   3.599 -0.0082 -0.4783 -0.2871
  639MOL0     C86148  10.025  11.606   3.662 -0.0077  0.2196  0.5865
  639MOL0     C86149  10.105  11.654   3.557  0.2083  0.1743  0.0953
  639MOL0     C86150  10.233  11.723   3.600  0.2497 -0.5644 -0.7773
  639MOL0     C86151  10.315  11.759   3.477  0.2339 -0.2553  0.9591
  639MOL0     C86152  10.423  11.856   3.525 -0.3388 -0.7478  0.2299
  639MOL0     C86153  10.542  11.861   3.427 -0.3227 -0.9421  0.3008
  639MOL0     O86154  10.637  11.948   3.485 -0.7426 -0.1946 -0.3205
  639MOL0     C86155  10.749  11.900   3.540 -0.0076  0.9941  0.3655
  639MOL0     C86156  10.822  11.987   3.625  0.8715  0.5346  1.5456
  639MOL0     C86157  10.945  11.959   3.688 -0.2025 -0.2593  0.8441
  639MOL0     C86158  11.011  12.067   3.762 -0.9433 -0.6162  0.2747
  639MOL0     C86159  10.990  11.826   3.662 -0.2713  0.6313 -0.8757
  639MOL0     C86160  11.127  11.784   3.711 -0.0447  0.8568 -0.2213
  639MOL0     O86161  11.234  11.874   3.703  0.1410 -0.1535  0.5878
  639MOL0     C86162  11.350  11.862   3.768  0.8175 -0.0286 -1.1248
  639MOL0     C86163  11.361  11.872   3.914  0.2783  0.5604 -0.0772
  639MOL0     C86164  11.479  11.885   3.976  1.0385  0.7207 -0.1421
  639MOL0     C86165  11.594  11.875   3.913 -0.0777  0.9876  0.0514
  639MOL0     O86166  11.706  11.851   3.996  0.5538 -0.5383 -0.2085
  639MOL0     C86167  11.777  11.735   3.949 -0.7781 -0.0533  0.3022
  639MOL0     C86168  11.856  11.688   4.075  0.0211  0.8707  0.3305
  639MOL0     C86169  11.921  11.551   4.048  0.4311 -0.7972 -0.2858
  639MOL0     C86170  11.961  11.493   4.189 -0.4718 -0.3889  0.3173
  639MOL0     C86171  12.031  11.363   4.189  0.1183  1.0336  0.5034
  639MOL0     C86172  12.176  11.378   4.145  0.2423  0.7548  0.3959
  639MOL0     C86173  12.248  11.249   4.156 -0.1310  0.6480 -0.5974
  639MOL0     C86174  12.241  11.166   4.028  0.3186 -0.0577 -0.6028
  639MOL0    Cl86175  12.390  11.084   3.954 -0.5062  0.1263  0.2888
  639MOL0     C86176  11.587  11.842   3.773  0.0996  0.2847  0.5866
  639MOL0     C86177  11.469  11.840   3.698 -0.6801  0.1267 -0.6376
  639MOL0     O86178  11.114  11.692   3.798 -0.3309  0.2958  0.2117
  639MOL0     C86179  10.917  11.731   3.592  0.1369 -0.5594  0.1768
  639MOL0     C86180  10.803  11.773   3.526 -1.0014 -0.1588  1.2459
  639MOL0     N86181  10.050  11.629   3.438  0.9902  0.2696 -0.4744
  639MOL0     N86182   9.934  11.580   3.458 -0.2149  0.5848 -0.4301
  639MOL0     C86183   8.836  11.447   3.253  1.2848 -0.4119  0.1967
  639MOL0     C86184   8.697  11.437   3.245 -1.2413 -0.2548 -0.0306
  639MOL0     C86185   8.297  11.390   3.450 -0.7434  0.4441 -0.6486
  639MOL0     C86186   8.211  11.354   3.555 -0.2829  0.0615  0.1020
  639MOL0     C86187   8.098  11.434   3.573 -0.2221  0.1020 -0.7018
  639MOL0     C86188   8.063  11.549   3.492 -1.5628  0.5899  0.2293
  639MOL0     O86189   7.953  11.634   3.510  0.1043 -0.4351  0.3568
  639MOL0     C86190   7.964  11.688   3.648 -0.1164  0.0401  0.2350
  639MOL0     C86191   7.833  11.764   3.688  0.0206 -0.2994 -0.6879
  639MOL0     C86192   7.827  11.810   3.838  0.6294 -0.1070 -0.1641
  639MOL0     C86193   7.747  11.936   3.839  0.3870  0.3924 -0.6690
  639MOL0     C86194   7.735  11.975   3.979  0.7543 -0.0338 -0.1798
  639MOL0     C86195   7.741  12.015   4.086  0.9729  0.1209 -0.6041
  639MOL0     C86196   8.154  11.575   3.389 -0.0581 -0.6905  0.2288
  639MOL0     C86197   8.268  11.498   3.365 -0.1815  0.2154 -0.6905
  639MOL0     H86198   8.680  11.166   3.450  0.0745 -1.5591 -2.1846
  639MOL0     H86199   8.911  11.209   3.473  0.4093 -0.0731 -0.8887
  639MOL0     H86200   9.077  11.590   3.305 -2.4966  0.9651  1.0387
  639MOL0     H86201   8.972  11.573   3.449  0.3922 -0.5876  0.8399
  639MOL0     H86202   9.146  11.629   3.566 -2.1485 -2.1487  1.1665
  639MOL0     H86203   9.173  11.456   3.544 -2.6527  0.2806 -0.4842
  639MOL0     H86204   9.331  11.504   3.345  0.4407  1.8621 -1.1341
  639MOL0     H86205   9.312  11.666   3.364 -4.5613 -1.3707 -1.9127
  639MOL0     H86206   9.366  11.681   3.601 -4.2968 -0.8040 -0.2809
  639MOL0     H86207   9.396  11.510   3.620  0.2150 -0.9266 -0.1374
  639MOL0     H86208   9.593  11.514   3.490  0.7325  1.3991 -0.7525
  639MOL0     H86209   9.576  11.677   3.425  2.6591 -0.0232 -1.0476
  639MOL0     H86210   9.694  11.745   3.586 -0.4642 -0.3196 -0.8028
  639MOL0     H86211   9.577  11.726   3.704  0.8879  1.7978 -0.3512
  639MOL0     H86212   9.742  11.619   3.814  1.7338  0.8636 -0.7870
  639MOL0     H86213   9.620  11.501   3.759  0.0947 -1.4461 -0.7771
  639MOL0     H86214   9.760  11.410   3.595 -1.4263  0.3877  1.1099
  639MOL0     H86215   9.849  11.413   3.740  1.8320  2.0497  0.7454
  639MOL0     H86216  10.034  11.610   3.770 -1.1700  0.4656  0.6886
  639MOL0     H86217  10.202  11.810   3.659 -1.0073 -2.2361  1.1369
  639MOL0     H86218  10.287  11.651   3.663 -2.1012 -1.6158  0.1585
  639MOL0     H86219  10.274  11.799   3.384 -0.2911 -0.1623  1.2245
  639MOL0     H86220  10.364  11.666   3.446 -0.1822 -0.6581  1.4894
  639MOL0     H86221  10.461  11.837   3.626 -0.3665 -2.0811  0.0116
  639MOL0     H86222  10.373  11.953   3.519  2.3375  0.6178 -2.4356
  639MOL0     H86223  10.514  11.894   3.326 -0.8555 -0.0377  0.7302
  639MOL0     H86224  10.576  11.761   3.400  3.9974  0.9595 -2.4280
  639MOL0     H86225  10.785  12.088   3.642  0.4119  0.4128  1.2907
  639MOL0     H86226  11.092  12.115   3.707 -0.6278  0.0547  1.3011
  639MOL0     H86227  10.941  12.149   3.777 -0.6169 -0.1321 -0.7763
  639MOL0     H86228  11.047  12.029   3.858 -2.8162 -0.6792  0.9959
  639MOL0     H86229  11.273  11.867   3.977 -0.1003 -0.4665 -0.6577
  639MOL0     H86230  11.487  11.897   4.083 -2.2218  3.0583  0.0186
  639MOL0     H86231  11.716  11.652   3.912  0.8615 -1.1720  0.0131
  639MOL0     H86232  11.852  11.771   3.879 -1.8117 -1.4799 -1.6196
  639MOL0     H86233  11.932  11.759   4.109 -0.1126  0.0891  2.3838
  639MOL0     H86234  11.776  11.671   4.148  0.2038 -2.9777 -0.1556
  639MOL0     H86235  12.007  11.567   3.982  1.3728 -2.1595  0.5702
  639MOL0     H86236  11.854  11.486   3.990 -3.2966  1.4037  1.2134
  639MOL0     H86237  12.035  11.565   4.224 -0.3508 -0.0965 -0.5195
  639MOL0     H86238  11.877  11.483   4.258 -1.2448 -2.1448 -0.7982
  639MOL0     H86239  11.979  11.309   4.109 -2.1469  1.6680  1.4809
  639MOL0     H86240  12.020  11.305   4.280 -0.6679 -0.9569 -0.7964
  639MOL0     H86241  12.199  11.424   4.048  5.4442 -1.6950  0.1320
  639MOL0     H86242  12.230  11.439   4.218 -0.6406  0.5276  1.2492
  639MOL0     H86243  12.205  11.201   4.245 -0.4156  2.0208  0.0240
  639MOL0     H86244  12.355  11.266   4.177  0.3453 -1.7830 -0.7730
  639MOL0     H86245  12.200  11.229   3.948  0.0969 -0.0070 -0.4517
  639MOL0     H86246  12.165  11.091   4.054 -0.2672  0.8755  0.4814
  639MOL0     H86247  11.675  11.828   3.712 -0.4454  0.6422 -0.3021
  639MOL0     H86248  11.464  11.816   3.592 -1.2417 -2.7209 -0.0442
  639MOL0     H86249  10.944  11.626   3.583 -1.4141 -1.0870  1.3536
  639MOL0     H86250  10.751  11.689   3.482  2.4396 -1.3890 -0.8950
  639MOL0     H86251   8.885  11.527   3.200  2.7046  0.1609  2.2522
  639MOL0     H86252   8.630  11.498   3.185 -1.7175 -0.5579  0.1885
  639MOL0     H86253   8.217  11.257   3.604 -1.9867 -0.9082 -1.4668
  639MOL0     H86254   8.032  11.396   3.650  1.5722  0.9120  1.3576
  639MOL0     H86255   7.967  11.601   3.714 -2.1061 -1.2387 -1.2678
  639MOL0     H86256   8.051  11.755   3.649 -1.0949  1.3572  0.5140
  639MOL0     H86257   7.750  11.693   3.677 -0.9378  0.2431  2.2923
  639MOL0     H86258   7.832  11.850   3.620  0.4516  0.8270  0.6919
  639MOL0     H86259   7.925  11.818   3.885  0.5372  2.2581 -0.2375
  639MOL0     H86260   7.765  11.728   3.876 -1.0270  1.0834 -0.1515
  639MOL0     H86261   7.649  11.900   3.807 -0.2540 -0.4807  2.0580
  639MOL0     H86262   7.786  12.018   3.778 -0.5342  1.9276  0.7469
  639MOL0     H86263   7.762  12.021   4.191 -0.3088 -0.2837 -0.3046
  639MOL0     H86264   8.133  11.669   3.340  1.5646  1.0067  2.6035
  639MOL0     H86265   8.329  11.524   3.279 -0.9754  5.6283  0.0181
  640MOL0     O86266   0.726  10.725  10.675 -0.0602  0.8590 -0.3804
  640MOL0     C86267   0.692  10.785  10.579  0.8936 -0.4532  0.4389
  640MOL0     O86268   0.574  10.770  10.512 -0.2003  0.3467 -0.2397
  640MOL0     C86269   0.453  10.734  10.566 -0.1334  0.3344 -1.0188
  640MOL0     C86270   0.440  10.634  10.662 -0.2123 -0.4928 -0.4965
  640MOL0     C86271   0.317  10.610  10.719  0.1366  0.1552 -0.4884
  640MOL0     C86272   0.195  10.681  10.686 -0.1419 -0.2081 -0.4789
  640MOL0     O86273   0.074  10.654  10.752 -0.7638  0.2962  1.5022
  640MOL0     C86274  -0.038  10.739  10.725  0.3447 -0.7968  0.1634
  640MOL0     C86275  -0.152  10.701  10.827  0.1875 -0.0029 -0.4705
  640MOL0     C86276  -0.097  10.720  10.966 -1.2344 -0.3829 -0.4593
  640MOL0     C86277  -0.124  10.854  11.028 -0.0291 -0.1653 -0.2870
  640MOL0     C86278  -0.069  10.855  11.175  0.4944  0.4909  0.1447
  640MOL0     C86279  -0.152  10.950  11.280 -0.4635  1.2929  1.6022
  640MOL0     C86280  -0.133  10.931  11.424  0.2740  0.7984 -0.2764
  640MOL0     C86281  -0.194  11.043  11.507  0.3715 -1.7478 -0.1311
  640MOL0     N86282  -0.114  11.165  11.519  0.6174  0.5359 -0.7526
  640MOL0     C86283  -0.059  11.212  11.632  0.2616 -0.3756  0.0432
  640MOL0     C86284   0.015  11.325  11.596  0.3770 -0.1455  0.1706
  640MOL0     C86285   0.082  11.404  11.701  0.1026  0.9280 -0.1388
  640MOL0     C86286   0.204  11.471  11.641  0.1668  0.2502  0.6037
  640MOL0     C86287   0.262  11.575  11.744  0.5002  0.0158  1.1394
  640MOL0     C86288   0.356  11.678  11.677  0.7351 -0.3839 -0.0092
  640MOL0     O86289   0.384  11.795  11.757 -0.8005  0.0247  0.1815
  640MOL0     C86290   0.285  11.895  11.747  0.4912 -0.3146 -1.2281
  640MOL0     C86291   0.281  12.001  11.662 -0.3986  0.1660 -0.1079
  640MOL0     C86292   0.194  12.114  11.662 -0.5473  0.4436 -0.4148
  640MOL0     C86293   0.213  12.237  11.562  0.5677 -0.4657  0.0035
  640MOL0     C86294   0.095  12.108  11.762  0.2503 -0.2475 -0.6104
  640MOL0     C86295   0.001  12.211  11.773  0.2614  0.0785  0.2528
  640MOL0     O86296  -0.047  12.238  11.899  0.7864 -0.3654 -0.0136
  640MOL0     C86297  -0.158  12.316  11.910  0.8877  0.0349  0.2923
  640MOL0     C86298  -0.247  12.261  12.011  0.5649  0.2159  0.0101
  640MOL0     C86299  -0.366  12.323  12.054 -0.5731 -0.4703 -0.5974
  640MOL0     C86300  -0.398  12.452  11.992  0.1532 -0.3388 -0.1557
  640MOL0     O86301  -0.519  12.513  12.003  0.0312 -0.4061  0.5539
  640MOL0     C86302  -0.594  12.479  12.126  0.0149 -0.1769 -0.4851
  640MOL0     C86303  -0.723  12.561  12.115  0.4535  0.1933  0.8019
  640MOL0     C86304  -0.694  12.715  12.135  1.0838  0.6897 -0.7519
  640MOL0     C86305  -0.669  12.756  12.285  0.5116  0.4903  0.3970
  640MOL0     C86306  -0.668  12.913  12.290  0.5487  0.1182  0.2171
  640MOL0     C86307  -0.658  12.968  12.427 -0.1245 -0.4291  0.8086
  640MOL0     C86308  -0.627  13.131  12.443 -0.0878 -0.0015  0.0964
  640MOL0     C86309  -0.486  13.171  12.397  0.4884 -0.3421  0.3931
  640MOL0    Cl86310  -0.366  13.040  12.439  0.3039 -0.3443 -0.1774
  640MOL0     C86311  -0.307  12.501  11.893  0.3963  0.6091  0.7899
  640MOL0     C86312  -0.193  12.434  11.844  0.0642 -1.0776 -0.4954
  640MOL0     O86313  -0.054  12.239  11.664 -0.2060  0.1539 -0.9814
  640MOL0     C86314   0.094  12.003  11.859  0.5743 -0.4325  0.1500
  640MOL0     C86315   0.191  11.903  11.854 -0.1114  0.3946 -0.1964
  640MOL0     N86316  -0.003  11.352  11.463  0.8037 -0.0916 -0.5253
  640MOL0     N86317  -0.074  11.250  11.412 -0.1381  0.0385 -0.3051
  640MOL0     C86318   0.213  10.783  10.601 -0.7225  0.2441 -1.0029
  640MOL0     C86319   0.329  10.805  10.537 -0.4936  0.6298  0.3970
  640MOL0     C86320   0.802  10.860  10.498  0.1270 -0.0308 -1.7325
  640MOL0     C86321   0.779  10.898  10.359  0.5459 -0.4476  0.1430
  640MOL0     C86322   0.875  10.950  10.283 -0.1198  0.4966 -0.7613
  640MOL0     C86323   0.992  10.985  10.339 -0.8929  0.2786  0.3172
  640MOL0     O86324   1.085  11.033  10.240 -0.0936  0.3194 -0.2792
  640MOL0     C86325   1.206  10.957  10.238  0.8512 -0.6289  0.7701
  640MOL0     C86326   1.321  11.052  10.224  0.0999  0.0995 -0.7273
  640MOL0     C86327   1.348  11.112  10.354 -0.7522 -0.6266  0.1557
  640MOL0     C86328   1.463  11.222  10.341  0.2741  0.3963 -0.4609
  640MOL0     C86329   1.600  11.177  10.313 -0.2345 -0.7072 -0.9051
  640MOL0     C86330   1.714  11.128  10.288  0.3328 -0.1066  0.3020
  640MOL0     C86331   1.021  10.976  10.479  0.6634  0.7771  0.2486
  640MOL0     C86332   0.926  10.914  10.558  0.6636 -0.6613 -0.4888
  640MOL0     H86333   0.510  10.565  10.709 -5.0325 -2.0447  5.7812
  640MOL0     H86334   0.306  10.524  10.784 -1.9273 -0.1355 -1.1607
  640MOL0     H86335  -0.018  10.847  10.728 -2.6308 -0.1206 -0.3874
  640MOL0     H86336  -0.087  10.712  10.631 -0.6786  0.0732  0.4298
  640MOL0     H86337  -0.233  10.773  10.815  0.2013  0.1998  0.5497
  640MOL0     H86338  -0.182  10.597  10.812  0.2836 -0.2655  1.0146
  640MOL0     H86339  -0.140  10.647  11.035  2.8332 -1.6845  0.9924
  640MOL0     H86340   0.008  10.691  10.974 -2.0056 -3.1311  1.2168
  640MOL0     H86341  -0.078  10.927  10.962  0.8696 -1.8186 -1.5849
  640MOL0     H86342  -0.232  10.868  11.019 -0.3968 -1.6493  1.3167
  640MOL0     H86343  -0.070  10.755  11.220 -2.5018  0.2507 -0.2474
  640MOL0     H86344   0.033  10.894  11.165  0.6069  0.0601 -0.4637
  640MOL0     H86345  -0.131  11.056  11.264  0.5932  1.0727  1.4357
  640MOL0     H86346  -0.258  10.937  11.255 -0.0000 -0.3346  0.2769
  640MOL0     H86347  -0.189  10.838  11.442  1.9775  0.1925  2.4559
  640MOL0     H86348  -0.028  10.919  11.453 -0.5040  3.1068  4.5102
  640MOL0     H86349  -0.208  10.998  11.606 -1.9520  1.0436  0.9826
  640MOL0     H86350  -0.290  11.063  11.460 -0.2875 -2.9779  0.6400
  640MOL0     H86351  -0.084  11.186  11.734 -0.7029  1.6599  0.3777
  640MOL0     H86352   0.005  11.478  11.725  1.0135  2.1906 -1.0158
  640MOL0     H86353   0.103  11.343  11.790 -0.8173  0.9804  0.1307
  640MOL0     H86354   0.187  11.524  11.547  2.7515  2.2592  1.1496
  640MOL0     H86355   0.280  11.393  11.626  2.8765  2.8695 -0.1800
  640MOL0     H86356   0.317  11.522  11.822  1.5571 -0.8051 -0.1311
  640MOL0     H86357   0.178  11.631  11.787  0.7794  0.7367  0.7681
  640MOL0     H86358   0.315  11.728  11.589  2.3886  0.6600 -0.2167
  640MOL0     H86359   0.445  11.636  11.631  1.0060 -0.4840  0.5953
  640MOL0     H86360   0.351  11.995  11.579  1.2385  2.4112  0.9702
  640MOL0     H86361   0.284  12.212  11.482  0.4146 -0.6377 -0.0789
  640MOL0     H86362   0.120  12.252  11.507  0.5691  2.0579  0.5670
  640MOL0     H86363   0.239  12.329  11.616 -2.6676 -0.2961  1.5265
  640MOL0     H86364  -0.233  12.186  12.088 -0.6852  0.5192  0.5447
  640MOL0     H86365  -0.422  12.267  12.129 -0.5093 -0.1624 -0.3177
  640MOL0     H86366  -0.627  12.375  12.134 -0.7620  0.1803  1.4582
  640MOL0     H86367  -0.536  12.512  12.213 -1.1104 -0.2493  0.3190
  640MOL0     H86368  -0.762  12.552  12.013  1.2491  0.7734  0.4323
  640MOL0     H86369  -0.802  12.533  12.184 -2.2101  0.1889 -2.0503
  640MOL0     H86370  -0.780  12.775  12.104 -1.2500 -1.1179  1.7677
  640MOL0     H86371  -0.616  12.753  12.068  0.7943 -0.5939 -1.8841
  640MOL0     H86372  -0.754  12.716  12.342  1.4468 -1.0852  0.7395
  640MOL0     H86373  -0.582  12.713  12.334 -1.8581 -1.6302  3.1283
  640MOL0     H86374  -0.761  12.955  12.251  0.4839 -1.9548 -2.1135
  640MOL0     H86375  -0.584  12.954  12.233 -0.9614  0.9284 -1.5170
  640MOL0     H86376  -0.753  12.944  12.475 -1.6107 -0.9843 -2.1847
  640MOL0     H86377  -0.578  12.918  12.482 -0.5188 -0.6594  1.1758
  640MOL0     H86378  -0.634  13.151  12.550  0.1830  0.1411  0.0873
  640MOL0     H86379  -0.701  13.196  12.395 -2.0397  0.7847  3.8284
  640MOL0     H86380  -0.443  13.259  12.448 -1.0424 -0.6012  2.2464
  640MOL0     H86381  -0.484  13.203  12.293 -1.9212  1.7127  0.8629
  640MOL0     H86382  -0.334  12.588  11.834 -1.2293 -1.9022 -2.5149
  640MOL0     H86383  -0.146  12.483  11.760  1.7831 -3.9919 -1.3569
  640MOL0     H86384   0.025  12.015  11.941  2.6476  4.4764  1.5503
  640MOL0     H86385   0.187  11.834  11.937 -2.5239  0.6226 -0.0458
  640MOL0     H86386   0.136  10.855  10.575  0.9527  2.9263  0.8942
  640MOL0     H86387   0.322  10.885  10.464 -2.3173 -0.9833 -1.3154
  640MOL0     H86388   0.692  10.860  10.307 -0.3707  0.0379  1.2670
  640MOL0     H86389   0.858  10.960  10.176  0.6882 -0.0086 -0.9499
  640MOL0     H86390   1.220  10.897  10.329 -3.6731 -0.7438  1.5937
  640MOL0     H86391   1.197  10.889  10.152  1.3471  0.6999 -0.3734
  640MOL0     H86392   1.302  11.127  10.147  2.1132  1.9194  0.4040
  640MOL0     H86393   1.406  10.993  10.189  0.3330  1.2158 -2.1343
  640MOL0     H86394   1.391  11.049  10.433  0.3230  0.8720  0.8049
  640MOL0     H86395   1.260  11.161  10.394 -0.1652  0.5791  0.0110
  640MOL0     H86396   1.470  11.276  10.436  1.0153 -1.3721  0.5578
  640MOL0     H86397   1.445  11.288  10.256  1.2446 -0.3027 -1.2359
  640MOL0     H86398   1.814  11.091  10.301 -0.0102 -0.3004  3.1777
  640MOL0     H86399   1.117  11.006  10.519  0.8667 -1.6977  1.8575
  640MOL0     H86400   0.946  10.908  10.665 -2.1950  0.8406  0.2493
  641MOL0     O86401   7.022   6.364  10.388  0.7301  0.3608 -0.0209
  641MOL0     C86402   6.945   6.290  10.322  0.3687 -0.0910 -0.3487
  641MOL0     O86403   6.981   6.216  10.214  0.3712 -1.0124 -0.2434
  641MOL0     C86404   7.100   6.248  10.155 -0.6325  0.4997 -0.4584
  641MOL0     C86405   7.094   6.308  10.024  0.6403 -0.4294 -0.4423
  641MOL0     C86406   7.217   6.348   9.953 -0.0990  0.3543 -0.3606
  641MOL0     C86407   7.344   6.309  10.003  0.8737 -0.1401 -0.5204
  641MOL0     O86408   7.461   6.321   9.934 -0.1661 -0.1647  0.5245
  641MOL0     C86409   7.486   6.444   9.865  0.9669 -0.6943 -0.1236
  641MOL0     C86410   7.489   6.555   9.974 -0.4579 -0.2148  0.3018
  641MOL0     C86411   7.514   6.699   9.938  0.0317 -0.7944  0.4699
  641MOL0     C86412   7.393   6.761   9.861  0.3913 -0.5352 -0.6274
  641MOL0     C86413   7.401   6.915   9.835 -0.2284 -0.1045 -0.3190
  641MOL0     C86414   7.509   6.956   9.728 -0.1684  0.5241 -0.6430
  641MOL0     C86415   7.526   7.102   9.714 -0.0282 -0.2309  0.3335
  641MOL0     C86416   7.632   7.163   9.816  0.3569 -0.3846 -0.0994
  641MOL0     N86417   7.603   7.306   9.810 -0.2444  0.1568 -0.2787
  641MOL0     C86418   7.701   7.391   9.761  1.4839  0.4974 -0.7341
  641MOL0     C86419   7.641   7.515   9.756 -0.5831  0.9063 -0.6724
  641MOL0     C86420   7.701   7.648   9.697  0.4781  0.6679 -1.3970
  641MOL0     C86421   7.608   7.772   9.728 -0.7344 -0.1065 -0.0341
  641MOL0     C86422   7.592   7.812   9.881 -0.6252  0.4283  0.5464
  641MOL0     C86423   7.714   7.899   9.937 -0.3896 -0.7740 -0.2315
  641MOL0     O86424   7.678   7.919  10.076 -0.7332 -0.4542  0.1749
  641MOL0     C86425   7.758   7.987  10.159 -0.7706  0.1926 -0.1375
  641MOL0     C86426   7.745   7.961  10.295 -0.4510  0.1196 -0.6120
  641MOL0     C86427   7.812   8.036  10.391 -0.4771  0.2134 -0.0296
  641MOL0     C86428   7.778   7.999  10.525  0.0870 -0.2263  0.2795
  641MOL0     C86429   7.903   8.133  10.351  0.6060 -0.9344  0.7213
  641MOL0     C86430   7.988   8.222  10.439  0.8544 -0.0920  0.2435
  641MOL0     O86431   8.037   8.340  10.392  0.2495  0.4478  0.3932
  641MOL0     C86432   8.124   8.417  10.461 -0.6202 -0.2214  0.8856
  641MOL0     C86433   8.126   8.551  10.441  0.4700  0.4658 -0.2841
  641MOL0     C86434   8.220   8.635  10.506  0.3000  0.0747  0.7017
  641MOL0     C86435   8.329   8.580  10.581 -0.6199 -0.2274 -0.2762
  641MOL0     O86436   8.423   8.665  10.637 -0.0209 -0.1842  0.6448
  641MOL0     C86437   8.551   8.603  10.640 -0.3490  0.2224 -0.6910
  641MOL0     C86438   8.651   8.715  10.664  0.9161 -0.5889  0.0674
  641MOL0     C86439   8.679   8.793  10.544  0.3989 -0.7814  0.1418
  641MOL0     C86440   8.771   8.916  10.567  0.4521  0.6246  0.0781
  641MOL0     C86441   8.817   8.975  10.428 -0.4077 -1.0236  0.2182
  641MOL0     C86442   8.856   9.114  10.454  0.3445 -0.5351  0.1866
  641MOL0     C86443   8.986   9.137  10.538  0.7036  0.2465 -0.1532
  641MOL0     C86444   9.015   9.283  10.540 -0.5031  0.6134 -0.1345
  641MOL0    Cl86445   9.047   9.376  10.382  0.3916 -0.1333  0.3927
  641MOL0     C86446   8.334   8.445  10.592 -0.2932 -0.5243  0.3557
  641MOL0     C86447   8.225   8.363  10.540 -0.2429  0.6100 -0.0952
  641MOL0     O86448   7.984   8.190  10.556  0.2827 -0.0450 -0.0998
  641MOL0     C86449   7.912   8.158  10.213 -0.6918  0.4404  0.5385
  641MOL0     C86450   7.841   8.088  10.123  0.8120  0.4309  0.3326
  641MOL0     N86451   7.515   7.499   9.804 -0.5147  0.8918  0.0491
  641MOL0     N86452   7.483   7.370   9.824 -0.7687  0.1268  0.1410
  641MOL0     C86453   7.348   6.239  10.126 -0.8536  0.6893  0.4933
  641MOL0     C86454   7.230   6.208  10.207 -1.4799 -0.5707  0.3845
  641MOL0     C86455   6.805   6.272  10.370 -0.3123  0.6742 -0.2723
  641MOL0     C86456   6.711   6.183  10.307  0.7831  0.4494  0.5480
  641MOL0     C86457   6.575   6.173  10.347  0.3580 -0.3923  0.9184
  641MOL0     C86458   6.535   6.256  10.450 -0.1840  0.1966 -1.2457
  641MOL0     O86459   6.408   6.260  10.515 -0.6283  0.1621 -0.4898
  641MOL0     C86460   6.310   6.175  10.454  0.2738 -0.1085  0.2838
  641MOL0     C86461   6.183   6.192  10.536 -0.3028 -0.3974  0.0193
  641MOL0     C86462   6.066   6.172  10.454  0.3462 -0.7048  0.1887
  641MOL0     C86463   5.931   6.161  10.536  0.0085 -0.6379 -0.3846
  641MOL0     C86464   5.907   6.269  10.641 -0.0475  0.8419 -0.2090
  641MOL0     C86465   5.888   6.335  10.741 -1.4369  0.0483 -0.1081
  641MOL0     C86466   6.630   6.352  10.508  0.6604 -0.6450 -0.7873
  641MOL0     C86467   6.766   6.362  10.472  0.7783 -0.7930  0.7774
  641MOL0     H86468   7.000   6.321   9.971 -0.0974 -1.9233  0.4213
  641MOL0     H86469   7.208   6.399   9.858  3.1755 -1.2741 -1.6889
  641MOL0     H86470   7.581   6.426   9.814  1.3462 -1.4565  0.8164
  641MOL0     H86471   7.413   6.467   9.787 -0.1500 -0.5089  0.9528
  641MOL0     H86472   7.394   6.554  10.029 -1.4845  2.4441 -1.2158
  641MOL0     H86473   7.564   6.526  10.047 -0.5095 -0.9049  0.0905
  641MOL0     H86474   7.516   6.746  10.037 -3.1589 -1.4088  0.9361
  641MOL0     H86475   7.610   6.699   9.885  0.4775  0.3358  1.2286
  641MOL0     H86476   7.383   6.718   9.761  1.2645 -0.1746 -0.8752
  641MOL0     H86477   7.302   6.730   9.915  0.1857  2.9007  1.2473
  641MOL0     H86478   7.306   6.953   9.797 -0.0930  1.6000  0.9699
  641MOL0     H86479   7.419   6.956   9.934 -0.5379 -4.1350  1.6055
  641MOL0     H86480   7.607   6.922   9.761  1.0977  1.3652 -3.2594
  641MOL0     H86481   7.479   6.907   9.635 -0.4544  1.2293 -0.9287
  641MOL0     H86482   7.567   7.119   9.614  1.0873 -0.5245  0.7209
  641MOL0     H86483   7.430   7.152   9.729  0.9932  2.0411 -0.3806
  641MOL0     H86484   7.732   7.136   9.782 -1.2569 -3.5894 -3.0009
  641MOL0     H86485   7.615   7.116   9.914  1.1860  0.5765  0.5297
  641MOL0     H86486   7.795   7.355   9.720  1.9846  0.4850  0.4128
  641MOL0     H86487   7.799   7.668   9.743  0.5583 -2.1969 -0.0903
  641MOL0     H86488   7.711   7.626   9.591 -3.8755 -3.0175 -1.3630
  641MOL0     H86489   7.508   7.777   9.684 -0.9297  1.8019  0.5673
  641MOL0     H86490   7.647   7.859   9.675  2.0073  0.7774  3.1474
  641MOL0     H86491   7.571   7.727   9.947 -0.3233 -0.2150 -0.1688
  641MOL0     H86492   7.507   7.880   9.884  1.4646  3.3524 -1.2214
  641MOL0     H86493   7.737   7.985   9.874 -2.6207  0.5727  0.6849
  641MOL0     H86494   7.808   7.844   9.930  0.8004  1.1573 -0.1502
  641MOL0     H86495   7.677   7.878  10.309 -0.7874  0.1352 -2.0156
  641MOL0     H86496   7.676   7.961  10.517  0.2951 -0.5474 -1.2347
  641MOL0     H86497   7.842   7.917  10.559 -2.5109 -2.7307 -0.4358
  641MOL0     H86498   7.775   8.091  10.584 -0.8446 -0.5449  0.7435
  641MOL0     H86499   8.055   8.600  10.375  2.4401  0.8758 -2.2035
  641MOL0     H86500   8.216   8.743  10.494  0.8383 -0.0979 -1.4316
  641MOL0     H86501   8.552   8.544  10.732  4.0322 -0.3123 -0.9056
  641MOL0     H86502   8.575   8.551  10.547 -0.0860  1.7836 -1.5450
  641MOL0     H86503   8.597   8.779  10.735  0.3188 -0.8266 -0.1589
  641MOL0     H86504   8.745   8.683  10.710  0.9925  0.8012  0.9599
  641MOL0     H86505   8.584   8.835  10.508 -1.1966 -2.7769  1.7738
  641MOL0     H86506   8.734   8.734  10.470 -3.2820 -1.6421 -2.1643
  641MOL0     H86507   8.713   8.981  10.633 -3.4254 -1.7291 -0.6821
  641MOL0     H86508   8.866   8.890  10.613  0.0301 -1.4703 -0.1417
  641MOL0     H86509   8.744   8.975  10.346 -1.5826  0.3649  1.1973
  641MOL0     H86510   8.909   8.926  10.398  1.0230  1.5979  0.0054
  641MOL0     H86511   8.871   9.158  10.354 -0.4859 -0.5472  0.0488
  641MOL0     H86512   8.774   9.173  10.496 -0.2038 -1.1378 -0.0212
  641MOL0     H86513   9.073   9.086  10.496  0.5546  1.6509 -2.2700
  641MOL0     H86514   8.964   9.106  10.641  0.2427 -0.8214 -0.5603
  641MOL0     H86515   9.100   9.308  10.603 -0.8241 -1.9720  1.5038
  641MOL0     H86516   8.923   9.323  10.583 -0.9281  1.0442 -1.3798
  641MOL0     H86517   8.410   8.389  10.645  0.2566 -0.4381 -0.3168
  641MOL0     H86518   8.241   8.256  10.542  2.0828  0.8565 -1.9248
  641MOL0     H86519   7.972   8.235  10.164 -1.5142  2.0451  1.9367
  641MOL0     H86520   7.853   8.131  10.024  1.8881  1.1342  0.7546
  641MOL0     H86521   7.451   6.217  10.155  0.7303  1.7508 -3.5420
  641MOL0     H86522   7.231   6.157  10.303  2.5673  1.2021  1.5118
  641MOL0     H86523   6.755   6.135  10.220 -1.0355 -0.2324 -0.0350
  641MOL0     H86524   6.507   6.105  10.298 -0.5348  0.0654  1.4901
  641MOL0     H86525   6.299   6.189  10.346 -2.5270  1.5186  0.6822
  641MOL0     H86526   6.336   6.069  10.463  2.4509  0.1365 -2.0492
  641MOL0     H86527   6.170   6.295  10.568 -2.4135 -0.5425 -0.2151
  641MOL0     H86528   6.180   6.127  10.624 -0.3827 -2.3253 -1.3394
  641MOL0     H86529   6.080   6.080  10.396  0.3293 -1.5945  1.5526
  641MOL0     H86530   6.052   6.258  10.388 -0.6208 -0.8270  0.2107
  641MOL0     H86531   5.919   6.070  10.596  0.6486 -0.7884 -0.4772
  641MOL0     H86532   5.846   6.162  10.468 -1.1250 -1.3948  0.9579
  641MOL0     H86533   5.864   6.383  10.833 -0.6001 -2.3817  1.4887
  641MOL0     H86534   6.598   6.419  10.588  0.0254 -1.8334 -0.0164
  641MOL0     H86535   6.838   6.434  10.511  0.9321 -0.3388 -0.2962
  642MOL0     O86536   2.033   2.787   1.552  0.3201 -0.2899  0.0128
  642MOL0     C86537   1.957   2.697   1.593  0.6810  0.6916 -0.8204
  642MOL0     O86538   1.996   2.567   1.600  0.3095  0.4386  0.5193
  642MOL0     C86539   2.133   2.547   1.566  0.4200 -0.2320  0.1983
  642MOL0     C86540   2.178   2.559   1.432 -0.0159 -0.0360  0.0622
  642MOL0     C86541   2.309   2.528   1.397  0.9503 -0.2484 -0.5919
  642MOL0     C86542   2.412   2.502   1.488  0.9188 -0.5075 -0.2838
  642MOL0     O86543   2.545   2.475   1.467 -0.0693 -0.7690  0.8993
  642MOL0     C86544   2.617   2.574   1.387  0.3811 -0.4369  0.0009
  642MOL0     C86545   2.758   2.584   1.434  0.8893  0.0983 -0.2462
  642MOL0     C86546   2.843   2.689   1.360 -0.8218  0.8775  0.9505
  642MOL0     C86547   2.996   2.633   1.343 -0.4779 -0.1642 -0.1777
  642MOL0     C86548   3.071   2.625   1.472  0.0824 -0.1814 -0.4080
  642MOL0     C86549   3.070   2.758   1.563  0.7045  0.1297  0.3864
  642MOL0     C86550   3.117   2.891   1.506  0.5319 -0.6155 -0.6739
  642MOL0     C86551   3.191   2.978   1.620  0.7170 -1.4536 -0.1102
  642MOL0     N86552   3.228   3.104   1.571 -0.1883 -0.9560  1.1210
  642MOL0     C86553   3.140   3.211   1.549 -0.1616 -0.0594 -1.3382
  642MOL0     C86554   3.201   3.297   1.468 -0.5946 -0.0076  0.8864
  642MOL0     C86555   3.147   3.423   1.410 -0.5110  0.3009 -0.7606
  642MOL0     C86556   3.188   3.456   1.264 -0.3895 -0.0916 -0.5956
  642MOL0     C86557   3.137   3.355   1.157  0.5307  0.2390  0.4376
  642MOL0     C86558   3.197   3.222   1.163  0.0681 -0.5923 -0.6409
  642MOL0     O86559   3.158   3.144   1.051 -0.0277  0.6187 -0.5690
  642MOL0     C86560   3.202   3.014   1.063  0.0473 -0.6614  0.2795
  642MOL0     C86561   3.176   2.946   0.948  0.4085  0.1209  0.0643
  642MOL0     C86562   3.206   2.812   0.928  0.8782 -0.3501  0.3893
  642MOL0     C86563   3.196   2.748   0.788  0.7620  0.3108  0.6641
  642MOL0     C86564   3.279   2.747   1.032 -0.4496 -0.2502 -0.3238
  642MOL0     C86565   3.340   2.613   1.023 -0.1596 -0.1069 -0.4984
  642MOL0     O86566   3.448   2.590   1.103 -0.1131  0.1164  0.5209
  642MOL0     C86567   3.483   2.469   1.150 -0.2031 -0.4456 -0.3539
  642MOL0     C86568   3.615   2.447   1.201 -0.1941  0.3594  0.5473
  642MOL0     C86569   3.651   2.330   1.270 -0.2485 -0.1751  0.0634
  642MOL0     C86570   3.559   2.230   1.284 -0.1184 -0.1915 -0.5961
  642MOL0     O86571   3.603   2.117   1.350  0.3082 -0.4137  0.1377
  642MOL0     C86572   3.525   2.002   1.340 -0.7413 -0.3142  0.4766
  642MOL0     C86573   3.583   1.884   1.411  1.0249 -0.9929 -0.4807
  642MOL0     C86574   3.479   1.772   1.443  0.0667 -0.1907 -0.3528
  642MOL0     C86575   3.553   1.658   1.517  0.9289  1.0351 -0.3596
  642MOL0     C86576   3.580   1.539   1.427 -0.7676 -0.1178 -0.8002
  642MOL0     C86577   3.674   1.575   1.312 -0.6278  0.2043  1.1226
  642MOL0     C86578   3.741   1.455   1.239 -0.3838  0.2605 -0.1597
  642MOL0     C86579   3.728   1.481   1.087  0.4637 -0.0245  0.7160
  642MOL0    Cl86580   3.791   1.347   0.994  0.0555 -0.4479 -0.3304
  642MOL0     C86581   3.426   2.251   1.237  0.3871  0.8489 -0.2656
  642MOL0     C86582   3.387   2.363   1.169 -1.1196  0.0312  0.1194
  642MOL0     O86583   3.301   2.528   0.943 -0.5248  0.5637 -0.8102
  642MOL0     C86584   3.306   2.814   1.150  0.9705 -0.1446 -0.2386
  642MOL0     C86585   3.257   2.944   1.174  0.5730 -0.1567  0.1220
  642MOL0     N86586   3.331   3.242   1.445 -0.4506 -0.0769 -0.5626
  642MOL0     N86587   3.342   3.130   1.504 -0.4698  0.2793 -0.3631
  642MOL0     C86588   2.367   2.488   1.620  0.9188 -0.0722 -0.1515
  642MOL0     C86589   2.230   2.501   1.659  0.1685  0.1369  0.5705
  642MOL0     C86590   1.814   2.735   1.621  0.4994  0.0224 -0.5048
  642MOL0     C86591   1.762   2.866   1.595  0.3983  0.0640  0.7662
  642MOL0     C86592   1.630   2.904   1.627  0.6475 -1.3331 -0.3717
  642MOL0     C86593   1.542   2.813   1.689 -0.5095  0.0555 -0.7774
  642MOL0     O86594   1.411   2.847   1.729 -0.5846 -0.3921 -0.0272
  642MOL0     C86595   1.391   2.969   1.801  0.4849  0.3891  0.1047
  642MOL0     C86596   1.309   3.072   1.726 -0.3323  0.0191 -0.0770
  642MOL0     C86597   1.167   3.030   1.670  0.0082 -0.5430  0.0283
  642MOL0     C86598   1.084   2.971   1.779  0.0039  1.0099 -0.6155
  642MOL0     C86599   0.948   2.963   1.728 -0.1137 -0.8635  0.8331
  642MOL0     C86600   0.835   2.932   1.693  0.0274 -0.3099  0.6261
  642MOL0     C86601   1.593   2.682   1.711 -0.5610 -0.0569 -0.3469
  642MOL0     C86602   1.721   2.648   1.684 -0.0096  0.8801  0.1038
  642MOL0     H86603   2.104   2.563   1.353  0.1930  2.1526 -0.0768
  642MOL0     H86604   2.322   2.509   1.290 -1.2781 -4.4664 -0.3620
  642MOL0     H86605   2.623   2.541   1.283  1.1447 -0.5765  0.0838
  642MOL0     H86606   2.567   2.672   1.385 -2.0295 -1.5807  0.3472
  642MOL0     H86607   2.761   2.591   1.543 -1.9965 -1.3937  0.0210
  642MOL0     H86608   2.794   2.488   1.397 -2.1020 -1.2303 -0.0142
  642MOL0     H86609   2.808   2.720   1.261 -1.7383  2.2537  1.6743
  642MOL0     H86610   2.860   2.775   1.425 -0.9676  0.7982  1.0953
  642MOL0     H86611   3.003   2.540   1.286 -0.3834 -1.3489  1.6743
  642MOL0     H86612   3.046   2.705   1.277 -0.8379 -2.8287 -3.6229
  642MOL0     H86613   3.035   2.542   1.533  0.9324 -2.7088 -3.1305
  642MOL0     H86614   3.171   2.609   1.430 -0.8151 -3.2284 -1.6499
  642MOL0     H86615   2.972   2.759   1.612  0.3653 -0.1142 -0.2760
  642MOL0     H86616   3.140   2.743   1.646  0.3655  0.4903  0.7471
  642MOL0     H86617   3.185   2.869   1.423 -2.0911 -1.4922 -2.7520
  642MOL0     H86618   3.034   2.944   1.459 -1.1684 -3.2334 -0.8593
  642MOL0     H86619   3.286   2.934   1.653  1.4877  1.8062  2.5324
  642MOL0     H86620   3.119   2.975   1.702 -2.5799 -3.3911 -2.8301
  642MOL0     H86621   3.035   3.212   1.576  0.3236 -0.2197  0.6644
  642MOL0     H86622   3.039   3.405   1.405 -0.5499 -0.6221  2.0443
  642MOL0     H86623   3.179   3.511   1.467  2.2531  1.4230 -3.7472
  642MOL0     H86624   3.297   3.466   1.256  0.0474 -0.4489  3.1417
  642MOL0     H86625   3.150   3.558   1.252  0.6290  0.4297  0.4515
  642MOL0     H86626   3.160   3.398   1.059 -2.5435  1.4200  0.1453
  642MOL0     H86627   3.028   3.350   1.161  0.3987  2.3264  0.7427
  642MOL0     H86628   3.157   3.170   1.251  0.6081  0.2504  0.1316
  642MOL0     H86629   3.306   3.234   1.168  0.2393 -2.3760  1.2801
  642MOL0     H86630   3.138   2.994   0.859  2.1696 -1.4200 -1.6031
  642MOL0     H86631   3.153   2.828   0.727 -1.0209 -1.7744 -0.9528
  642MOL0     H86632   3.292   2.724   0.740 -0.2897 -1.0783 -0.8262
  642MOL0     H86633   3.130   2.662   0.795  0.4023  0.6270  1.2210
  642MOL0     H86634   3.697   2.517   1.189  0.5745 -0.8836 -2.3430
  642MOL0     H86635   3.752   2.329   1.310 -0.1083  2.9831  0.0239
  642MOL0     H86636   3.426   2.022   1.383 -0.8550 -0.7441  0.4234
  642MOL0     H86637   3.522   1.967   1.236 -2.5548 -0.6661  0.6050
  642MOL0     H86638   3.663   1.845   1.347  1.5158  1.2136 -1.2780
  642MOL0     H86639   3.627   1.910   1.508 -1.2183  0.0410  0.3115
  642MOL0     H86640   3.426   1.745   1.351  1.2363  1.3159 -1.5179
  642MOL0     H86641   3.398   1.800   1.511 -1.0617 -0.5167 -1.5205
  642MOL0     H86642   3.639   1.691   1.577 -1.4772 -1.2573  5.0584
  642MOL0     H86643   3.488   1.616   1.594  0.6247  0.3978 -0.9596
  642MOL0     H86644   3.486   1.491   1.401 -0.4762 -0.9312 -0.4012
  642MOL0     H86645   3.625   1.459   1.486  1.8630  1.6099 -0.2564
  642MOL0     H86646   3.607   1.624   1.240 -0.6102 -2.6210 -0.9886
  642MOL0     H86647   3.754   1.647   1.331 -0.4489  0.6549 -0.9853
  642MOL0     H86648   3.684   1.367   1.270 -1.9901  1.2587 -0.1474
  642MOL0     H86649   3.847   1.438   1.258  0.6009 -4.1066 -6.3529
  642MOL0     H86650   3.785   1.571   1.060 -0.9811  0.2311 -1.7697
  642MOL0     H86651   3.624   1.502   1.061  0.8939  1.0167 -0.1949
  642MOL0     H86652   3.344   2.180   1.234 -0.5185  1.8923 -0.9917
  642MOL0     H86653   3.284   2.374   1.135 -1.7167 -0.4865  1.6362
  642MOL0     H86654   3.357   2.784   1.241  1.6487  2.9761  0.5227
  642MOL0     H86655   3.280   2.997   1.266  3.1466  0.8773 -1.0028
  642MOL0     H86656   2.447   2.463   1.688 -0.0773 -1.2802  0.6377
  642MOL0     H86657   2.197   2.485   1.761 -1.9144  2.4902  0.3649
  642MOL0     H86658   1.829   2.940   1.551 -0.4581  0.2523 -0.2494
  642MOL0     H86659   1.601   3.008   1.615  1.0718 -1.1784 -0.1127
  642MOL0     H86660   1.329   2.943   1.887 -4.0606  2.0609 -2.3235
  642MOL0     H86661   1.488   3.005   1.838  0.2679  0.5517  0.5156
  642MOL0     H86662   1.373   3.095   1.641 -1.1328 -3.1658 -1.7356
  642MOL0     H86663   1.289   3.161   1.786 -3.3728 -0.2151 -0.5841
  642MOL0     H86664   1.184   2.947   1.600 -2.6237 -2.1937  1.1811
  642MOL0     H86665   1.125   3.121   1.627 -0.7020 -0.5627  0.6450
  642MOL0     H86666   1.096   3.021   1.875  2.7917 -2.9692  1.3534
  642MOL0     H86667   1.114   2.867   1.794  0.6099  0.7197 -3.2750
  642MOL0     H86668   0.731   2.922   1.668 -0.8060  3.1518  2.0740
  642MOL0     H86669   1.530   2.610   1.763  1.1353 -1.2319  0.1690
  642MOL0     H86670   1.756   2.546   1.695 -0.4357  0.7131 -0.0788
  643MOL0     O86671   2.563   6.313  10.908  0.0683  0.8367 -0.0205
  643MOL0     C86672   2.642   6.327  10.813 -1.4352  0.5297  0.7536
  643MOL0     O86673   2.612   6.386  10.694  0.0066  0.3914 -0.6598
  643MOL0     C86674   2.515   6.480  10.679  0.1183 -0.2601  0.4199
  643MOL0     C86675   2.548   6.604  10.626  0.4565 -0.0568  0.0766
  643MOL0     C86676   2.441   6.693  10.599  1.1267 -0.1882  0.2549
  643MOL0     C86677   2.307   6.657  10.605 -0.0898 -0.1791 -0.6330
  643MOL0     O86678   2.205   6.740  10.569  0.5709 -0.1026  0.1258
  643MOL0     C86679   2.116   6.678  10.466 -0.2376  0.5002 -1.2606
  643MOL0     C86680   2.187   6.694  10.328  1.3735 -0.8519  0.0997
  643MOL0     C86681   2.102   6.628  10.222 -0.4810  0.0528  0.7126
  643MOL0     C86682   2.163   6.647  10.069 -0.1015 -0.8452 -0.2246
  643MOL0     C86683   2.068   6.590   9.969  0.2918 -0.7368  0.2129
  643MOL0     C86684   1.938   6.681   9.957  0.2682 -0.6501  0.2001
  643MOL0     C86685   1.860   6.651   9.827 -0.2217  0.0475 -0.0003
  643MOL0     C86686   1.921   6.722   9.704  0.5301 -0.5187  0.9562
  643MOL0     N86687   1.827   6.720   9.588 -0.1278 -0.0573 -0.0934
  643MOL0     C86688   1.725   6.626   9.573 -0.1546  1.4280  0.0849
  643MOL0     C86689   1.650   6.678   9.470  0.5220  1.1054 -0.7282
  643MOL0     C86690   1.529   6.611   9.402  0.0458 -0.9047 -0.8606
  643MOL0     C86691   1.396   6.660   9.462  0.5908 -0.0623  0.2641
  643MOL0     C86692   1.275   6.582   9.445 -0.0892  0.1562 -0.2805
  643MOL0     C86693   1.229   6.572   9.304  0.0392 -0.2808 -1.0939
  643MOL0     O86694   1.201   6.705   9.249 -0.4929  0.0675  0.1295
  643MOL0     C86695   1.153   6.720   9.116 -0.3503  0.1113 -0.4344
  643MOL0     C86696   1.132   6.620   9.026  0.2100 -0.1477  0.5046
  643MOL0     C86697   1.081   6.647   8.899 -0.0567  0.0376  0.1137
  643MOL0     C86698   1.032   6.523   8.815 -0.3692 -0.1284 -0.2370
  643MOL0     C86699   1.054   6.781   8.852  0.0793  0.8000 -0.1430
  643MOL0     C86700   0.988   6.822   8.721  0.6929 -0.6000  1.1320
  643MOL0     O86701   1.023   6.753   8.606 -0.2106  0.0826 -0.4514
  643MOL0     C86702   0.990   6.776   8.480  0.7056 -0.4168  0.9846
  643MOL0     C86703   0.960   6.907   8.419 -0.8665  0.1928  0.3718
  643MOL0     C86704   0.974   6.924   8.276  0.0915  0.4749 -0.6575
  643MOL0     C86705   0.990   6.808   8.196  0.2654 -0.4784 -0.4731
  643MOL0     O86706   1.011   6.835   8.062  0.0223  0.4259 -0.6509
  643MOL0     C86707   1.025   6.731   7.966 -0.2819 -0.5789  0.2398
  643MOL0     C86708   1.023   6.774   7.824  0.4121  0.1845  0.7241
  643MOL0     C86709   1.142   6.866   7.775  0.2848  0.5696  0.2073
  643MOL0     C86710   1.165   6.875   7.617  1.3968  0.1034  0.9124
  643MOL0     C86711   1.245   7.011   7.584  0.6226 -0.5043  0.7377
  643MOL0     C86712   1.270   7.041   7.435 -0.1084 -0.4067 -1.4275
  643MOL0     C86713   1.152   7.078   7.346  1.1573 -1.0062  0.2336
  643MOL0     C86714   1.089   7.219   7.320  0.1899 -0.6199  0.0709
  643MOL0    Cl86715   0.996   7.277   7.462 -0.0321  0.2364 -0.2283
  643MOL0     C86716   1.008   6.684   8.254 -0.6082  0.3551 -0.7973
  643MOL0     C86717   1.009   6.661   8.390  0.6488  0.1071  0.0033
  643MOL0     O86718   0.908   6.920   8.726 -0.3914 -0.1618  0.6601
  643MOL0     C86719   1.089   6.884   8.945 -0.7389 -0.3804 -0.2662
  643MOL0     C86720   1.148   6.849   9.069 -0.2952 -0.0138  0.3617
  643MOL0     N86721   1.696   6.803   9.433 -0.8008 -0.3103 -0.2102
  643MOL0     N86722   1.807   6.828   9.502  0.2372 -0.2672  0.2196
  643MOL0     C86723   2.288   6.530  10.657  0.5547  0.1759  0.2766
  643MOL0     C86724   2.381   6.443  10.696 -0.0483 -0.3780 -0.4353
  643MOL0     C86725   2.781   6.284  10.828 -0.0510 -0.7837  0.6768
  643MOL0     C86726   2.821   6.212  10.942 -0.4691  1.5887  0.2594
  643MOL0     C86727   2.951   6.159  10.956  0.2103 -0.3905 -1.1800
  643MOL0     C86728   3.045   6.193  10.865 -0.5689 -0.2452 -0.4605
  643MOL0     O86729   3.176   6.143  10.877 -0.2494  0.8092 -0.0215
  643MOL0     C86730   3.223   6.083  10.749 -0.3098  0.2135 -0.6656
  643MOL0     C86731   3.242   5.936  10.757  0.3710  0.7494  0.1639
  643MOL0     C86732   3.247   5.862  10.897  0.4889 -0.7637  0.4799
  643MOL0     C86733   3.215   5.709  10.883 -0.5956 -0.3683 -0.3068
  643MOL0     C86734   3.288   5.641  10.994 -0.8847  1.2106 -0.5845
  643MOL0     C86735   3.337   5.564  11.078 -0.1437  0.2868 -0.4116
  643MOL0     C86736   3.011   6.274  10.760 -0.3570 -0.3428 -0.0445
  643MOL0     C86737   2.886   6.317  10.731  0.7111  0.1219  0.0903
  643MOL0     H86738   2.647   6.640  10.601  0.4399  1.1267  1.5556
  643MOL0     H86739   2.448   6.799  10.574 -1.3606  0.8220  3.1077
  643MOL0     H86740   2.099   6.573  10.492 -0.2197  0.7646 -0.1161
  643MOL0     H86741   2.020   6.729  10.456 -0.4434  0.1604 -1.0247
  643MOL0     H86742   2.183   6.801  10.309 -0.3217 -1.0279 -0.7392
  643MOL0     H86743   2.290   6.656  10.333  2.1730  0.7610 -2.2765
  643MOL0     H86744   2.092   6.521  10.242 -0.1719 -0.3617 -1.1263
  643MOL0     H86745   2.002   6.671  10.231  0.1159  1.4595  0.9233
  643MOL0     H86746   2.182   6.752  10.046 -2.7355  0.1811  1.6937
  643MOL0     H86747   2.260   6.597  10.069  0.6341  0.4758 -2.2434
  643MOL0     H86748   2.116   6.596   9.870 -0.0431 -1.5989 -0.0128
  643MOL0     H86749   2.036   6.487   9.986 -0.4088 -0.0417  4.0281
  643MOL0     H86750   1.874   6.656  10.043  1.5304 -2.2446  0.7193
  643MOL0     H86751   1.977   6.782   9.969 -0.0929 -0.6705  1.9423
  643MOL0     H86752   1.867   6.543   9.811  1.3964 -0.0078  0.8590
  643MOL0     H86753   1.753   6.669   9.833 -0.6872 -2.7474  2.0137
  643MOL0     H86754   2.015   6.676   9.671  0.1361 -0.5062 -0.2215
  643MOL0     H86755   1.945   6.826   9.727 -2.1461 -0.1393  2.4622
  643MOL0     H86756   1.718   6.526   9.614  2.0391  1.8657  1.7316
  643MOL0     H86757   1.522   6.655   9.302 -1.8803  3.1951  0.8533
  643MOL0     H86758   1.543   6.502   9.409  1.9965 -0.6898 -0.9643
  643MOL0     H86759   1.372   6.764   9.438 -1.4957 -0.7867 -0.9763
  643MOL0     H86760   1.415   6.648   9.569  2.5518 -0.7446 -0.1139
  643MOL0     H86761   1.208   6.619   9.523 -0.0713 -3.7027  1.8417
  643MOL0     H86762   1.291   6.479   9.478  0.6255  0.5307  0.5745
  643MOL0     H86763   1.142   6.506   9.307 -1.1799  1.2762  0.3332
  643MOL0     H86764   1.303   6.531   9.236 -0.0703 -0.4029 -1.1389
  643MOL0     H86765   1.148   6.517   9.057  2.1432  0.4388  1.6417
  643MOL0     H86766   0.923   6.522   8.812 -0.4687  0.3411  1.8073
  643MOL0     H86767   1.072   6.530   8.714 -1.6702  0.6958 -0.7226
  643MOL0     H86768   1.066   6.430   8.863  0.7409 -0.7980 -2.2220
  643MOL0     H86769   0.959   7.002   8.471 -2.2557 -0.2615  1.2120
  643MOL0     H86770   0.951   7.020   8.231 -0.6690  0.1419 -0.9881
  643MOL0     H86771   1.114   6.669   7.978  1.0735  1.1554 -0.4677
  643MOL0     H86772   0.931   6.676   7.978  0.2056 -1.2894  0.9049
  643MOL0     H86773   1.017   6.681   7.767  0.9278  0.5895  0.0000
  643MOL0     H86774   0.926   6.822   7.809 -1.6582 -3.1507  2.1827
  643MOL0     H86775   1.234   6.811   7.798 -0.8735 -1.3070  0.5882
  643MOL0     H86776   1.134   6.966   7.818 -3.3842  1.1399 -1.4731
  643MOL0     H86777   1.213   6.788   7.573  1.6528 -0.0910  1.5671
  643MOL0     H86778   1.070   6.890   7.565  2.7100 -0.5838 -1.8483
  643MOL0     H86779   1.351   7.012   7.610  0.5410  1.8205  1.1785
  643MOL0     H86780   1.198   7.099   7.629 -0.9048 -0.9792  0.1114
  643MOL0     H86781   1.348   7.118   7.431  0.6854 -1.0813  0.0739
  643MOL0     H86782   1.302   6.942   7.401 -4.7627 -2.4836 -0.6051
  643MOL0     H86783   1.073   7.009   7.378 -1.8492  1.4617 -1.3763
  643MOL0     H86784   1.181   7.052   7.244  2.5397  0.1033  0.3149
  643MOL0     H86785   1.016   7.206   7.240  0.1874 -0.8754  0.1154
  643MOL0     H86786   1.164   7.295   7.296 -2.5966  3.0349  1.9621
  643MOL0     H86787   1.033   6.598   8.192  3.4038 -1.9768  3.4273
  643MOL0     H86788   1.023   6.561   8.430  3.7408  0.8153  0.9445
  643MOL0     H86789   1.076   6.988   8.920  3.4271  0.2923 -0.3358
  643MOL0     H86790   1.178   6.939   9.122 -1.1558  0.1373  0.6139
  643MOL0     H86791   2.183   6.525  10.684  0.2752  0.9979 -0.6033
  643MOL0     H86792   2.352   6.341  10.721 -3.5816 -0.1700 -2.9526
  643MOL0     H86793   2.751   6.194  11.023 -1.9832 -1.5429 -1.5648
  643MOL0     H86794   2.972   6.090  11.036  1.2758  1.9090  0.6418
  643MOL0     H86795   3.152   6.106  10.669  0.1684  0.3911 -1.0498
  643MOL0     H86796   3.319   6.123  10.715  0.2878 -1.4568 -1.0167
  643MOL0     H86797   3.330   5.900  10.703 -1.1052 -1.3493 -1.0121
  643MOL0     H86798   3.164   5.884  10.701  3.5146 -4.8327  0.2963
  643MOL0     H86799   3.178   5.908  10.969 -0.1777 -0.3824 -0.3859
  643MOL0     H86800   3.347   5.893  10.929 -0.5097  3.2321  0.2082
  643MOL0     H86801   3.238   5.670  10.783 -1.5210  0.5934 -0.9108
  643MOL0     H86802   3.106   5.706  10.888 -0.5436 -0.1084  1.2281
  643MOL0     H86803   3.389   5.502  11.148  1.1058  1.9766  0.2224
  643MOL0     H86804   3.085   6.307  10.687  0.8938 -2.7892  0.0068
  643MOL0     H86805   2.856   6.382  10.650 -1.1288  1.5695  1.8089
  644MOL0     O86806   6.704  11.309   5.095  0.5371  0.3493 -0.0125
  644MOL0     C86807   6.648  11.204   5.141  0.3587 -0.0958  1.2022
  644MOL0     O86808   6.515  11.182   5.146 -0.0511  0.6055  0.4779
  644MOL0     C86809   6.435  11.254   5.069 -0.1827  0.6630  1.5805
  644MOL0     C86810   6.352  11.190   4.976  1.0655 -0.0089  0.9454
  644MOL0     C86811   6.247  11.253   4.900  0.6534  0.3251  0.4746
  644MOL0     C86812   6.235  11.390   4.912 -0.2314 -0.7742  0.2545
  644MOL0     O86813   6.122  11.441   4.851  0.8442  0.2883 -0.6093
  644MOL0     C86814   6.110  11.577   4.836  0.3492 -0.0384  0.5993
  644MOL0     C86815   6.043  11.618   4.695  0.3593  0.3751  0.0695
  644MOL0     C86816   6.081  11.527   4.578  0.6463  0.9885 -0.7870
  644MOL0     C86817   5.983  11.526   4.455  0.1708 -0.7623  0.2082
  644MOL0     C86818   6.035  11.450   4.328  0.4041  0.5553  0.1451
  644MOL0     C86819   5.949  11.465   4.197  0.8134  0.1889  0.5376
  644MOL0     C86820   6.037  11.437   4.070  0.4154  0.4066  0.1056
  644MOL0     C86821   5.972  11.470   3.941 -1.4056 -1.3582  0.0040
  644MOL0     N86822   6.010  11.603   3.895  0.0589 -1.1040 -0.4868
  644MOL0     C86823   5.933  11.691   3.818 -0.6041  0.1124 -0.3174
  644MOL0     C86824   6.005  11.799   3.806 -0.0994  0.7716 -0.0550
  644MOL0     C86825   5.981  11.918   3.724 -0.7105 -0.3537  0.1778
  644MOL0     C86826   6.066  11.908   3.593 -0.0223  0.1611 -0.6853
  644MOL0     C86827   5.998  11.955   3.468 -1.1730 -0.4877 -0.1047
  644MOL0     C86828   6.081  11.930   3.338  0.5771 -0.0855 -0.0457
  644MOL0     O86829   6.022  11.998   3.230  0.2896  0.8063  0.4568
  644MOL0     C86830   6.072  11.991   3.097  0.0478  0.6134 -0.0807
  644MOL0     C86831   6.194  11.929   3.067  0.0786 -0.3206 -0.0256
  644MOL0     C86832   6.241  11.903   2.945  0.7450  0.2124  0.3377
  644MOL0     C86833   6.365  11.806   2.940  1.1787 -0.7109  0.7051
  644MOL0     C86834   6.164  11.946   2.830 -0.0794  0.1616 -0.5744
  644MOL0     C86835   6.212  11.922   2.680 -0.3892  0.1282 -0.0700
  644MOL0     O86836   6.119  11.894   2.585  0.3617  0.1885  0.1100
  644MOL0     C86837   6.010  11.812   2.604 -0.1283  0.1208  0.0298
  644MOL0     C86838   6.018  11.687   2.668 -0.9107  0.0337  0.4068
  644MOL0     C86839   5.907  11.605   2.679 -0.9468  0.4137  0.8896
  644MOL0     C86840   5.790  11.652   2.632  0.5984  0.2837 -0.0733
  644MOL0     O86841   5.689  11.560   2.648 -0.0403 -0.7576 -0.1265
  644MOL0     C86842   5.567  11.605   2.705  0.2521  0.0887  0.1868
  644MOL0     C86843   5.538  11.577   2.847 -0.2215  0.3840 -0.0395
  644MOL0     C86844   5.643  11.656   2.923  0.7209 -0.3204 -0.7438
  644MOL0     C86845   5.614  11.678   3.071  0.1801 -0.1938 -0.8528
  644MOL0     C86846   5.713  11.767   3.143 -0.3702  0.3072 -0.0177
  644MOL0     C86847   5.670  11.789   3.286  0.0500 -0.9227 -0.6311
  644MOL0     C86848   5.603  11.922   3.314 -0.0552  0.3998  0.3535
  644MOL0     C86849   5.577  11.946   3.470 -0.2179 -0.4709 -0.2938
  644MOL0    Cl86850   5.478  11.808   3.545 -0.0090  0.1887 -0.4822
  644MOL0     C86851   5.770  11.777   2.570 -0.7708 -0.2085  0.0337
  644MOL0     C86852   5.887  11.858   2.556 -0.2098 -0.0871  0.2104
  644MOL0     O86853   6.335  11.932   2.664  0.0609  1.3610  0.2833
  644MOL0     C86854   6.051  12.014   2.856  0.0374 -0.8195 -0.1743
  644MOL0     C86855   6.008  12.042   2.988  1.0181  0.5474 -0.2383
  644MOL0     N86856   6.121  11.785   3.875 -0.9069 -0.7114  0.3048
  644MOL0     N86857   6.117  11.674   3.934 -1.2773 -0.5114 -0.0685
  644MOL0     C86858   6.318  11.462   5.003  0.7858 -0.3439 -0.0607
  644MOL0     C86859   6.411  11.392   5.077 -0.9293  0.4255 -0.7533
  644MOL0     C86860   6.737  11.121   5.219  0.6552 -0.3875  0.4047
  644MOL0     C86861   6.701  10.994   5.253  0.0542  0.6011 -0.4540
  644MOL0     C86862   6.784  10.911   5.327 -0.1063  0.5425 -0.9868
  644MOL0     C86863   6.906  10.959   5.382  0.8480  0.5484  0.8263
  644MOL0     O86864   6.998  10.876   5.446 -0.1491  0.7643  0.2308
  644MOL0     C86865   7.137  10.919   5.440  0.4370  0.3741 -0.5465
  644MOL0     C86866   7.178  11.006   5.559 -1.5281  0.8484  0.9038
  644MOL0     C86867   7.177  10.927   5.692 -0.1208 -0.8841  0.2398
  644MOL0     C86868   7.187  11.025   5.809  0.4389  0.3486  0.4410
  644MOL0     C86869   7.145  10.949   5.930 -0.1764  0.3356  0.4369
  644MOL0     C86870   7.114  10.871   6.017  0.5485  0.1026 -0.3026
  644MOL0     C86871   6.920  11.091   5.348 -0.5777  0.1204 -0.3289
  644MOL0     C86872   6.855  11.171   5.260  0.3824  0.1599 -0.4574
  644MOL0     H86873   6.364  11.085   4.952  0.3890 -0.7436  3.5425
  644MOL0     H86874   6.181  11.190   4.841 -2.3645  3.5438  0.0989
  644MOL0     H86875   6.072  11.632   4.923  0.4414  0.3402  0.4025
  644MOL0     H86876   6.215  11.608   4.826  0.8397 -1.1583  1.9424
  644MOL0     H86877   5.935  11.614   4.715  0.9083 -0.8796  3.2108
  644MOL0     H86878   6.069  11.720   4.665 -0.9013  0.1644 -2.0030
  644MOL0     H86879   6.176  11.562   4.536  1.5753  2.0046  1.9372
  644MOL0     H86880   6.072  11.423   4.610  1.3717  0.3229 -2.6522
  644MOL0     H86881   5.885  11.490   4.489  0.5377  0.6021  3.0103
  644MOL0     H86882   5.972  11.629   4.422 -0.7086 -0.5896  1.0042
  644MOL0     H86883   6.141  11.463   4.306  1.2846  0.0821  3.5674
  644MOL0     H86884   6.038  11.344   4.356  2.2881  0.2030 -1.2556
  644MOL0     H86885   5.854  11.412   4.200 -1.1753  3.3859 -0.5174
  644MOL0     H86886   5.915  11.569   4.185  0.6397 -0.0823 -1.6675
  644MOL0     H86887   6.138  11.476   4.081  0.0891  1.4606 -0.4957
  644MOL0     H86888   6.053  11.330   4.052  1.0699  0.7567 -1.5896
  644MOL0     H86889   5.864  11.470   3.960 -1.3831 -0.1343  0.2005
  644MOL0     H86890   6.002  11.398   3.865  2.6652 -0.0200  0.1045
  644MOL0     H86891   5.842  11.665   3.765  0.3649  0.5712 -2.3025
  644MOL0     H86892   5.874  11.925   3.703 -0.9729 -0.1091  1.5077
  644MOL0     H86893   6.015  12.005   3.781 -4.5001  2.4065 -1.4043
  644MOL0     H86894   6.080  11.803   3.567 -2.4157 -0.2715 -0.4466
  644MOL0     H86895   6.161  11.960   3.608  0.1341  0.2900 -2.0172
  644MOL0     H86896   5.997  12.064   3.466  4.4667 -0.1472 -0.0159
  644MOL0     H86897   5.898  11.916   3.447 -1.6563  0.6662 -0.0378
  644MOL0     H86898   6.080  11.824   3.311  2.9087 -0.5278  1.3706
  644MOL0     H86899   6.183  11.969   3.346  0.2898  0.6139  0.3178
  644MOL0     H86900   6.249  11.896   3.155 -1.1149  1.1595  1.3225
  644MOL0     H86901   6.343  11.720   2.875 -3.7791  1.0137 -0.3452
  644MOL0     H86902   6.443  11.875   2.904  1.5924 -2.4029 -1.9717
  644MOL0     H86903   6.399  11.776   3.039  0.4038 -1.3193  0.7927
  644MOL0     H86904   6.119  11.652   2.691 -1.1411 -1.0158 -0.1125
  644MOL0     H86905   5.915  11.501   2.709  1.6537 -0.0811 -1.1782
  644MOL0     H86906   5.551  11.713   2.696 -2.4433 -0.3480 -1.2948
  644MOL0     H86907   5.493  11.542   2.655  0.6668 -0.0631 -0.2473
  644MOL0     H86908   5.437  11.610   2.873  0.3906  0.9628  1.7610
  644MOL0     H86909   5.531  11.470   2.868 -2.1037  0.7337  1.3285
  644MOL0     H86910   5.645  11.753   2.874 -0.1242  0.2013  0.2015
  644MOL0     H86911   5.740  11.607   2.913  0.8842 -1.9385  5.1185
  644MOL0     H86912   5.514  11.721   3.079  0.7207  0.9929 -0.3670
  644MOL0     H86913   5.627  11.579   3.118 -0.1097 -0.7272 -1.8699
  644MOL0     H86914   5.716  11.869   3.104 -1.3974  1.5139  2.8246
  644MOL0     H86915   5.815  11.728   3.137 -0.7583 -0.5803 -1.3150
  644MOL0     H86916   5.603  11.711   3.324  1.6080 -1.6069  0.8137
  644MOL0     H86917   5.757  11.775   3.351 -0.8278 -0.1675  0.7566
  644MOL0     H86918   5.505  11.921   3.266  0.6591  1.7279 -1.2460
  644MOL0     H86919   5.655  12.010   3.274  0.3743 -0.4246 -0.9845
  644MOL0     H86920   5.525  12.040   3.491  1.0702 -0.2427  2.2096
  644MOL0     H86921   5.674  11.965   3.517 -0.1325 -0.4262 -0.4885
  644MOL0     H86922   5.670  11.789   2.531 -1.7772 -0.1046  2.4818
  644MOL0     H86923   5.879  11.954   2.506  1.2813  0.6002  1.2370
  644MOL0     H86924   5.982  12.050   2.781 -1.6068 -0.1282  1.5765
  644MOL0     H86925   5.921  12.104   3.009  1.4702  1.3885 -0.7777
  644MOL0     H86926   6.301  11.568   5.016  0.5701 -0.4162  0.2627
  644MOL0     H86927   6.476  11.455   5.137 -0.8916 -0.1259 -0.1992
  644MOL0     H86928   6.605  10.948   5.232 -1.0083  1.5428  1.9729
  644MOL0     H86929   6.745  10.814   5.354  2.3730  0.0308  1.1795
  644MOL0     H86930   7.205  10.834   5.446 -1.4059 -1.1185  0.6802
  644MOL0     H86931   7.157  10.971   5.346 -3.0369  1.5521 -0.7925
  644MOL0     H86932   7.108  11.090   5.559 -2.1267  0.4366 -2.0807
  644MOL0     H86933   7.275  11.051   5.537 -2.4119  2.3557 -0.0715
  644MOL0     H86934   7.268  10.865   5.699  0.5899 -0.0235 -0.9439
  644MOL0     H86935   7.089  10.863   5.694 -2.5228  1.8029 -4.1822
  644MOL0     H86936   7.111  11.102   5.796 -1.1271 -0.9362  1.5322
  644MOL0     H86937   7.286  11.067   5.825  0.7461  0.3751 -1.3643
  644MOL0     H86938   7.076  10.810   6.096  0.5370  0.5436  0.0388
  644MOL0     H86939   7.000  11.150   5.393  0.2272 -1.0413 -0.1888
  644MOL0     H86940   6.886  11.265   5.216 -4.6028  1.9360 -0.8078
  645MOL0     O86941   2.177   1.341   5.343 -0.2122  0.0844 -0.1104
  645MOL0     C86942   2.108   1.440   5.356  0.0080  0.0831 -0.0586
  645MOL0     O86943   1.977   1.447   5.317 -0.6487 -0.0228  0.2974
  645MOL0     C86944   1.932   1.341   5.255  0.4240 -0.9017  0.2223
  645MOL0     C86945   1.979   1.295   5.129  0.3743  0.4183 -0.0662
  645MOL0     C86946   1.927   1.176   5.074  1.2298 -0.5015 -0.8148
  645MOL0     C86947   1.806   1.127   5.117  0.5088  0.2183 -0.3537
  645MOL0     O86948   1.747   1.010   5.076  0.0722  0.3304 -0.2541
  645MOL0     C86949   1.755   0.975   4.936 -0.2344  0.4264  0.0793
  645MOL0     C86950   1.644   0.898   4.882  0.1424  0.1797 -0.0659
  645MOL0     C86951   1.634   0.755   4.930  0.4779  1.3292 -0.3740
  645MOL0     C86952   1.534   0.748   5.047 -0.1332 -0.5057 -0.6263
  645MOL0     C86953   1.383   0.730   5.013  0.3419  0.8012  0.3984
  645MOL0     C86954   1.349   0.615   4.913 -0.2455 -0.2606  0.5398
  645MOL0     C86955   1.392   0.478   4.959 -0.6552  0.7838  1.0198
  645MOL0     C86956   1.381   0.386   4.843 -0.1636 -0.0805 -0.1087
  645MOL0     N86957   1.246   0.343   4.801  0.0490 -0.6432  0.0371
  645MOL0     C86958   1.159   0.267   4.875  0.0867 -0.1573  0.2311
  645MOL0     C86959   1.063   0.230   4.788 -0.3286  0.1520 -0.4646
  645MOL0     C86960   0.948   0.140   4.815 -0.6362  0.4520  0.3628
  645MOL0     C86961   0.835   0.219   4.862  0.0466 -0.8797  0.0343
  645MOL0     C86962   0.843   0.234   5.013  0.7595 -0.4369 -0.2700
  645MOL0     C86963   0.757   0.114   5.076 -0.5992  0.1695 -0.5867
  645MOL0     O86964   0.611   0.126   5.074 -0.2324  0.3940  0.1768
  645MOL0     C86965   0.522   0.052   5.150  0.1425  0.7196  0.4880
  645MOL0     C86966   0.559  -0.033   5.259 -0.5937  0.5420 -0.6930
  645MOL0     C86967   0.455  -0.087   5.338 -0.6838 -0.3063  0.4345
  645MOL0     C86968   0.501  -0.165   5.457 -0.0150 -0.0345  0.3382
  645MOL0     C86969   0.320  -0.064   5.312 -0.0675  0.2086  0.7190
  645MOL0     C86970   0.211  -0.107   5.398 -0.3141 -0.1054  0.2183
  645MOL0     O86971   0.209  -0.237   5.425  0.4285  0.5151 -0.7744
  645MOL0     C86972   0.134  -0.290   5.527 -0.4342  0.0473 -0.2174
  645MOL0     C86973   0.079  -0.210   5.637 -0.1896 -0.4602  0.5835
  645MOL0     C86974   0.010  -0.271   5.745  0.0094  0.0598  0.0157
  645MOL0     C86975  -0.004  -0.409   5.751 -0.1400  0.5958  0.1540
  645MOL0     O86976  -0.047  -0.471   5.868 -0.3910  0.4153  0.7650
  645MOL0     C86977  -0.169  -0.433   5.927 -0.3584  0.6677 -0.0274
  645MOL0     C86978  -0.181  -0.457   6.074  0.1283 -0.0265  0.2091
  645MOL0     C86979  -0.045  -0.418   6.154  0.5685  0.8463 -0.3931
  645MOL0     C86980   0.031  -0.540   6.196 -0.3641  0.5652 -0.8436
  645MOL0     C86981  -0.019  -0.596   6.326  0.0579 -0.0094 -0.0381
  645MOL0     C86982   0.018  -0.742   6.352 -0.2966 -0.6157  0.0760
  645MOL0     C86983  -0.022  -0.795   6.497  0.2987 -0.5582  0.1313
  645MOL0     C86984   0.028  -0.930   6.523 -0.2040 -0.0679  0.4287
  645MOL0    Cl86985   0.208  -0.927   6.476 -0.0640 -0.0332  0.1589
  645MOL0     C86986   0.044  -0.484   5.639  0.1545 -0.6519 -0.7731
  645MOL0     C86987   0.112  -0.422   5.532  0.2470  0.2570  0.7038
  645MOL0     O86988   0.131  -0.019   5.424  0.5105 -0.6795  0.2891
  645MOL0     C86989   0.293   0.005   5.194 -0.3072  0.5089  0.5150
  645MOL0     C86990   0.390   0.063   5.116  0.0125 -1.1106 -0.3487
  645MOL0     N86991   1.092   0.289   4.673  0.7147  0.4232  0.0281
  645MOL0     N86992   1.201   0.349   4.668  0.5973 -0.9700 -0.6215
  645MOL0     C86993   1.754   1.176   5.242 -0.3272  0.3028  0.1660
  645MOL0     C86994   1.820   1.278   5.304  0.4747 -0.3874  0.0754
  645MOL0     C86995   2.154   1.557   5.424 -0.0624  0.0813 -0.9881
  645MOL0     C86996   2.284   1.576   5.466 -0.5539  0.3745  0.2666
  645MOL0     C86997   2.328   1.699   5.514 -0.3016  0.1707  0.0418
  645MOL0     C86998   2.237   1.806   5.520  0.3679 -0.0139 -0.0861
  645MOL0     O86999   2.281   1.926   5.572 -0.6142 -0.3492 -0.2552
  645MOL0     C87000   2.332   2.011   5.477 -0.2188 -0.7065  0.1275
  645MOL0     C87001   2.228   2.102   5.405  0.2508  1.3892  0.7808
  645MOL0     C87002   2.142   2.171   5.513 -0.4991 -0.7706 -0.0832
  645MOL0     C87003   2.168   2.309   5.544 -0.5804 -0.1537  0.2598
  645MOL0     C87004   2.289   2.332   5.619  0.4084  0.8000 -0.1266
  645MOL0     C87005   2.389   2.343   5.684  0.2771  0.0926 -0.1207
  645MOL0     C87006   2.111   1.788   5.489 -0.2930  1.1761  1.2440
  645MOL0     C87007   2.065   1.669   5.439 -0.8541 -0.0130  0.4081
  645MOL0     H87008   2.059   1.350   5.080 -0.1195 -0.1437 -1.5870
  645MOL0     H87009   1.962   1.119   4.989  0.4128 -0.7600 -0.9843
  645MOL0     H87010   1.752   1.066   4.875  0.8785  0.4005 -0.0274
  645MOL0     H87011   1.852   0.927   4.919 -1.0304 -1.5723  0.9356
  645MOL0     H87012   1.552   0.951   4.908  1.5242  0.5162  5.3134
  645MOL0     H87013   1.657   0.892   4.773  0.1606 -0.9997 -0.0073
  645MOL0     H87014   1.597   0.680   4.859  2.9410 -2.4818  1.9401
  645MOL0     H87015   1.733   0.718   4.961  0.5165  1.3356 -0.4908
  645MOL0     H87016   1.565   0.662   5.106 -1.0022  0.2022  0.9161
  645MOL0     H87017   1.553   0.833   5.113 -0.2107 -0.5242 -0.5805
  645MOL0     H87018   1.341   0.719   5.113  3.2478 -0.4766  1.5802
  645MOL0     H87019   1.352   0.825   4.969  1.0266 -0.1673 -2.3921
  645MOL0     H87020   1.240   0.624   4.907 -0.4032 -0.3389  2.4779
  645MOL0     H87021   1.401   0.645   4.821  2.1944 -1.0540  1.5854
  645MOL0     H87022   1.496   0.479   4.992  0.7731  1.4060 -2.8929
  645MOL0     H87023   1.322   0.438   5.033 -2.6173  0.2067 -1.0415
  645MOL0     H87024   1.423   0.289   4.869 -4.4262 -1.6956  1.5919
  645MOL0     H87025   1.435   0.430   4.758  2.2017  0.9740  1.7901
  645MOL0     H87026   1.167   0.236   4.979  1.1422 -0.2480  0.1371
  645MOL0     H87027   0.910   0.111   4.717 -1.3286  0.7663  0.5338
  645MOL0     H87028   0.973   0.047   4.866 -3.4352 -0.6834 -0.1655
  645MOL0     H87029   0.737   0.187   4.825 -0.9624  2.0869 -0.1389
  645MOL0     H87030   0.850   0.309   4.802  2.3574 -1.4601 -0.3300
  645MOL0     H87031   0.800   0.330   5.042  2.3664  0.7027 -1.4655
  645MOL0     H87032   0.948   0.229   5.045  0.5593 -0.8735  0.3481
  645MOL0     H87033   0.804   0.107   5.175 -0.2897  1.1399 -0.6539
  645MOL0     H87034   0.793   0.028   5.019  1.4012  2.1662 -2.5845
  645MOL0     H87035   0.666  -0.045   5.274 -0.8898 -0.3422  1.0252
  645MOL0     H87036   0.456  -0.263   5.476 -1.3993  0.3888 -0.5582
  645MOL0     H87037   0.603  -0.198   5.437 -0.6921 -2.7604  0.9013
  645MOL0     H87038   0.481  -0.104   5.546  0.8048 -0.9752  1.1863
  645MOL0     H87039   0.103  -0.104   5.645  0.3466 -0.6379  1.4663
  645MOL0     H87040  -0.009  -0.214   5.836  1.6953  1.3643 -0.4022
  645MOL0     H87041  -0.184  -0.325   5.913 -1.7915  0.6965  1.4635
  645MOL0     H87042  -0.247  -0.493   5.878 -1.1677  1.0430  0.7698
  645MOL0     H87043  -0.269  -0.409   6.117 -2.4985  1.0676 -5.4529
  645MOL0     H87044  -0.214  -0.561   6.079 -1.1346  0.3446 -0.1793
  645MOL0     H87045  -0.072  -0.358   6.241 -2.7621  0.4992 -1.0601
  645MOL0     H87046   0.015  -0.365   6.079  0.9844 -3.0865 -3.1523
  645MOL0     H87047   0.027  -0.626   6.128 -1.1168  0.6326 -0.8996
  645MOL0     H87048   0.135  -0.516   6.216 -1.3556  4.1912  0.7779
  645MOL0     H87049  -0.127  -0.580   6.335 -0.1365 -0.1541 -1.7561
  645MOL0     H87050   0.024  -0.527   6.398  2.3933  0.4237 -1.7340
  645MOL0     H87051  -0.031  -0.807   6.279 -1.5986 -0.7851  1.0656
  645MOL0     H87052   0.127  -0.745   6.342 -0.2833 -2.3528  0.4687
  645MOL0     H87053  -0.131  -0.799   6.498  0.2207  0.6696 -1.3492
  645MOL0     H87054   0.018  -0.727   6.573  2.6088 -2.2692  0.5515
  645MOL0     H87055  -0.025  -1.012   6.473  0.4275 -0.3385  0.1855
  645MOL0     H87056   0.016  -0.951   6.630 -0.7427 -1.5666  0.1058
  645MOL0     H87057   0.028  -0.591   5.652  0.6277 -0.6504 -0.0810
  645MOL0     H87058   0.157  -0.485   5.456 -0.5787  0.6369 -0.1196
  645MOL0     H87059   0.189   0.028   5.177  0.1800  2.7454  0.3240
  645MOL0     H87060   0.374   0.128   5.031  4.6299  2.5852  1.1678
  645MOL0     H87061   1.664   1.128   5.280 -0.9476  0.3767 -1.1528
  645MOL0     H87062   1.777   1.318   5.395 -0.4661  1.1366 -0.9913
  645MOL0     H87063   2.353   1.498   5.435 -3.5540 -1.6381 -1.9502
  645MOL0     H87064   2.428   1.721   5.549  0.1315 -1.0392 -0.3955
  645MOL0     H87065   2.401   2.069   5.539  0.1125 -1.6023  0.6212
  645MOL0     H87066   2.370   1.950   5.395 -4.5920 -0.7072 -2.2080
  645MOL0     H87067   2.156   2.040   5.353 -1.9213  3.8134  0.7041
  645MOL0     H87068   2.269   2.175   5.334 -1.5225  1.5367 -0.1414
  645MOL0     H87069   2.142   2.116   5.607  0.4279 -0.6160  0.0098
  645MOL0     H87070   2.040   2.168   5.472  0.7623 -0.8448 -3.5595
  645MOL0     H87071   2.080   2.331   5.604 -1.1240 -0.1680 -0.5207
  645MOL0     H87072   2.170   2.383   5.463 -0.1715  0.9461  1.2348
  645MOL0     H87073   2.485   2.349   5.732 -0.3453 -1.1882  1.3607
  645MOL0     H87074   2.044   1.873   5.495 -0.5967  1.2067 -1.4234
  645MOL0     H87075   1.960   1.674   5.412 -0.8440 -0.5974  0.2496
  646MOL0     O87076   4.367   3.056   6.608 -0.0136  0.0400 -0.3548
  646MOL0     C87077   4.299   3.051   6.704 -0.7406 -0.1178 -0.0015
  646MOL0     O87078   4.344   3.016   6.829  0.5373 -0.5623  0.4760
  646MOL0     C87079   4.471   2.968   6.838 -1.3607 -0.1966  0.4621
  646MOL0     C87080   4.538   2.884   6.741 -0.2534  0.0064 -0.4306
  646MOL0     C87081   4.664   2.826   6.765  0.2630  0.4018 -0.0905
  646MOL0     C87082   4.740   2.864   6.877  0.1919  0.6649  0.6558
  646MOL0     O87083   4.865   2.814   6.904 -0.9309 -0.1969 -0.2536
  646MOL0     C87084   4.881   2.749   7.028 -0.6419  0.3910  0.3869
  646MOL0     C87085   5.002   2.652   7.012 -0.6662  0.7951 -0.1187
  646MOL0     C87086   5.064   2.626   7.148  0.2513  0.1771  0.2996
  646MOL0     C87087   5.020   2.500   7.219  0.1378 -0.3146  0.6452
  646MOL0     C87088   5.023   2.508   7.368 -0.2909 -0.4068 -0.6570
  646MOL0     C87089   5.015   2.371   7.429 -0.0159  0.0743 -0.2370
  646MOL0     C87090   5.047   2.356   7.571 -0.5872 -0.1902 -0.8068
  646MOL0     C87091   4.936   2.393   7.681  0.2332 -0.0840  0.7959
  646MOL0     N87092   4.977   2.404   7.823 -0.8837 -0.2225  0.2418
  646MOL0     C87093   4.889   2.447   7.924  1.0450  0.5506  0.7274
  646MOL0     C87094   4.927   2.395   8.040  0.0664 -0.6232 -0.3426
  646MOL0     C87095   4.860   2.363   8.178  0.7347 -0.4125  0.2890
  646MOL0     C87096   4.714   2.316   8.147  0.3963  0.2554  0.7215
  646MOL0     C87097   4.702   2.181   8.078  0.9457 -0.2247 -0.1000
  646MOL0     C87098   4.775   2.072   8.163  0.2014 -0.2315 -0.7235
  646MOL0     O87099   4.908   2.037   8.132 -0.0239 -0.4344 -0.3136
  646MOL0     C87100   4.921   1.923   8.059  0.0169 -0.5967  0.9174
  646MOL0     C87101   4.863   1.916   7.938  0.6716  0.2807 -0.6412
  646MOL0     C87102   4.857   1.796   7.862 -0.0243 -0.5611  1.1024
  646MOL0     C87103   4.756   1.790   7.752  0.5508 -0.6534  0.1137
  646MOL0     C87104   4.940   1.688   7.896 -0.3942  0.4674 -0.0515
  646MOL0     C87105   4.968   1.569   7.806  1.0090  0.1077  0.4430
  646MOL0     O87106   4.870   1.499   7.745 -1.0223  0.1409  0.1980
  646MOL0     C87107   4.914   1.413   7.638 -0.2349  0.0633 -1.3866
  646MOL0     C87108   4.991   1.449   7.531 -1.0129  0.0868  0.5993
  646MOL0     C87109   5.042   1.359   7.439 -0.0031 -1.0300 -0.1514
  646MOL0     C87110   5.022   1.225   7.469 -0.2694 -0.1661 -0.1053
  646MOL0     O87111   5.082   1.133   7.383  0.1755  0.0945 -0.5975
  646MOL0     C87112   5.100   0.995   7.411 -0.8038  0.0140 -0.4552
  646MOL0     C87113   5.210   0.980   7.514  0.7814 -0.4312 -0.3369
  646MOL0     C87114   5.274   0.842   7.498  0.2023 -1.1175 -0.4489
  646MOL0     C87115   5.366   0.844   7.378 -0.9101 -0.3030 -0.5420
  646MOL0     C87116   5.444   0.710   7.361  0.1847 -1.1631  0.1610
  646MOL0     C87117   5.532   0.665   7.487  0.2945  0.5338  0.3792
  646MOL0     C87118   5.633   0.772   7.544 -0.0019  0.8929  0.0048
  646MOL0     C87119   5.757   0.776   7.448 -0.1961  0.0947  1.1391
  646MOL0    Cl87120   5.901   0.815   7.541  0.0498 -0.0199 -0.2882
  646MOL0     C87121   4.940   1.176   7.573 -0.2976  0.9418  0.0404
  646MOL0     C87122   4.893   1.268   7.665  0.4684 -0.3881  0.6690
  646MOL0     O87123   5.090   1.544   7.788  0.3077  0.1556 -0.3856
  646MOL0     C87124   5.017   1.706   8.019  0.6003  0.6787  0.1890
  646MOL0     C87125   5.007   1.816   8.106 -0.2971  0.2566 -0.6059
  646MOL0     N87126   5.046   2.335   8.011 -0.0165  0.4440  0.2101
  646MOL0     N87127   5.082   2.361   7.894  0.0923  0.1820  0.1668
  646MOL0     C87128   4.683   2.953   6.966 -0.9344  0.3271 -0.0574
  646MOL0     C87129   4.546   2.999   6.951 -0.3606  0.6871  1.4974
  646MOL0     C87130   4.155   3.081   6.688  0.0007 -0.6105  0.4344
  646MOL0     C87131   4.095   3.104   6.570  0.3628 -0.2404 -0.2796
  646MOL0     C87132   3.963   3.160   6.560 -0.6520 -0.7116 -0.7272
  646MOL0     C87133   3.900   3.195   6.683 -0.2480  0.1001  0.2801
  646MOL0     O87134   3.776   3.257   6.684 -0.3898  0.5449 -0.6864
  646MOL0     C87135   3.704   3.269   6.560  0.5585 -0.2154 -0.0406
  646MOL0     C87136   3.644   3.130   6.520  0.5919 -0.6193  0.8847
  646MOL0     C87137   3.558   3.142   6.388 -0.5354 -1.3104 -0.0795
  646MOL0     C87138   3.501   3.014   6.334 -0.0033 -0.7891 -0.2456
  646MOL0     C87139   3.598   2.928   6.277 -0.1006 -0.4169  0.2091
  646MOL0     C87140   3.667   2.851   6.224 -0.6355  0.7420 -0.0827
  646MOL0     C87141   3.959   3.165   6.802 -0.8234  0.4615 -0.3506
  646MOL0     C87142   4.086   3.113   6.810 -0.9023 -0.7176  0.7867
  646MOL0     H87143   4.488   2.867   6.647 -0.6978 -1.5110  0.0537
  646MOL0     H87144   4.698   2.751   6.694  0.4813  3.8899 -4.0847
  646MOL0     H87145   4.891   2.820   7.110  3.2058  0.7460 -0.1880
  646MOL0     H87146   4.791   2.692   7.053 -1.3030  0.6128 -1.3929
  646MOL0     H87147   4.961   2.561   6.969  0.7353 -0.4539  1.0928
  646MOL0     H87148   5.078   2.691   6.943  2.4902 -2.3730  1.2722
  646MOL0     H87149   5.172   2.620   7.133 -0.0687 -0.9112 -1.9601
  646MOL0     H87150   5.039   2.711   7.213 -1.5540  2.3061 -2.8776
  646MOL0     H87151   4.916   2.476   7.196  0.2415 -3.5000  2.9742
  646MOL0     H87152   5.082   2.416   7.189  2.2009  1.3624 -0.0484
  646MOL0     H87153   5.124   2.547   7.386 -0.7269  1.0760 -1.2748
  646MOL0     H87154   4.956   2.572   7.425  0.6161 -0.8426  0.9533
  646MOL0     H87155   4.911   2.338   7.420  0.6477 -2.6958  1.1317
  646MOL0     H87156   5.082   2.304   7.375 -0.0834  1.9744 -2.8917
  646MOL0     H87157   5.096   2.261   7.593  1.8999  0.9742 -0.9405
  646MOL0     H87158   5.127   2.428   7.586 -1.1801  0.3904 -0.3903
  646MOL0     H87159   4.863   2.311   7.681  1.2258 -0.9887  0.0459
  646MOL0     H87160   4.882   2.485   7.660 -0.3592 -0.2390  1.5926
  646MOL0     H87161   4.788   2.481   7.903  0.9892  0.6091  1.0816
  646MOL0     H87162   4.918   2.286   8.230  0.1017 -0.8140  0.4135
  646MOL0     H87163   4.856   2.455   8.237 -1.6646  0.7370 -1.4873
  646MOL0     H87164   4.655   2.387   8.088 -0.4605  0.0348  1.2843
  646MOL0     H87165   4.659   2.315   8.242 -2.5051  0.9527 -0.8231
  646MOL0     H87166   4.740   2.188   7.976 -0.5747  0.2660 -0.6539
  646MOL0     H87167   4.596   2.153   8.074 -0.0501  3.0361 -0.2862
  646MOL0     H87168   4.716   1.983   8.186 -0.2684  0.7894  2.5182
  646MOL0     H87169   4.784   2.118   8.262 -0.4502 -0.4878 -0.5405
  646MOL0     H87170   4.799   1.998   7.908  1.7763  0.5029 -2.5701
  646MOL0     H87171   4.731   1.687   7.723 -1.2705 -0.2739  0.2212
  646MOL0     H87172   4.664   1.842   7.782  1.9830  1.5947  0.8428
  646MOL0     H87173   4.793   1.852   7.669 -1.9051  2.5474  1.1736
  646MOL0     H87174   4.995   1.556   7.515  1.7950  0.1298  1.1281
  646MOL0     H87175   5.112   1.391   7.363  1.9342  0.4979  2.1049
  646MOL0     H87176   5.002   0.966   7.451 -2.5741  1.7017 -3.1636
  646MOL0     H87177   5.116   0.925   7.328  0.3019 -0.7125  0.3351
  646MOL0     H87178   5.279   1.065   7.511 -0.5715  0.6780 -1.0977
  646MOL0     H87179   5.168   0.977   7.615  1.0806 -0.0218 -0.1954
  646MOL0     H87180   5.200   0.761   7.498 -0.8602 -0.1854  0.3450
  646MOL0     H87181   5.331   0.816   7.588 -3.2541  0.2912  2.4142
  646MOL0     H87182   5.309   0.855   7.285  0.4094  2.6541 -1.1124
  646MOL0     H87183   5.425   0.936   7.383 -1.9136  0.3049  2.5180
  646MOL0     H87184   5.507   0.722   7.273  1.8706  4.6273  1.7061
  646MOL0     H87185   5.379   0.624   7.347 -1.7420  0.3196 -0.3593
  646MOL0     H87186   5.471   0.628   7.570  1.3991  1.1727  1.5091
  646MOL0     H87187   5.582   0.574   7.453 -0.0938 -0.2607  1.8568
  646MOL0     H87188   5.654   0.718   7.638 -3.7811  0.0689  0.5116
  646MOL0     H87189   5.597   0.874   7.556  0.4149  1.2000 -1.1841
  646MOL0     H87190   5.736   0.843   7.365 -0.4170 -0.6052  0.6177
  646MOL0     H87191   5.777   0.678   7.402  0.1503  1.0950 -0.9343
  646MOL0     H87192   4.905   1.074   7.582  0.0319  1.0022  3.2426
  646MOL0     H87193   4.839   1.251   7.758  1.6874  0.8039  1.6335
  646MOL0     H87194   5.086   1.636   8.064  3.3357  3.4371  0.5896
  646MOL0     H87195   5.051   1.817   8.205 -3.1820 -1.2214  0.8232
  646MOL0     H87196   4.731   2.984   7.058  0.6465  1.4113 -1.1796
  646MOL0     H87197   4.490   3.059   7.022 -0.0328  3.2762 -0.2817
  646MOL0     H87198   4.151   3.094   6.478  0.1843  1.6727 -0.6452
  646MOL0     H87199   3.930   3.184   6.460  0.6143  2.7910 -0.4436
  646MOL0     H87200   3.626   3.342   6.583 -2.5193 -3.1109 -0.5003
  646MOL0     H87201   3.760   3.318   6.480 -1.1969  0.8426 -0.6834
  646MOL0     H87202   3.588   3.084   6.602  1.0739  0.2182  1.7033
  646MOL0     H87203   3.728   3.065   6.495  1.5224  1.3467 -1.5432
  646MOL0     H87204   3.610   3.194   6.307  1.8152 -1.3774  1.3102
  646MOL0     H87205   3.476   3.209   6.416 -1.3392 -2.7299  1.1453
  646MOL0     H87206   3.438   3.043   6.249 -3.2298 -0.5875  2.0283
  646MOL0     H87207   3.445   2.959   6.409 -0.5323  0.3676  0.2262
  646MOL0     H87208   3.717   2.785   6.155 -0.3327  0.3144  0.5398
  646MOL0     H87209   3.915   3.180   6.901 -1.1260 -1.8621 -0.0570
  646MOL0     H87210   4.136   3.097   6.905  0.3108  1.6009  0.6053
  647MOL0     O87211   1.654   8.136   1.033  0.2582  0.4191  0.6598
  647MOL0     C87212   1.766   8.136   1.087  0.1009  0.2897  0.9599
  647MOL0     O87213   1.887   8.147   1.022 -0.4034  0.3506 -0.3077
  647MOL0     C87214   1.904   8.175   0.887  0.3905 -0.5691 -0.0539
  647MOL0     C87215   2.008   8.270   0.860 -0.8642  0.1811 -0.0572
  647MOL0     C87216   2.028   8.320   0.728  0.5317 -0.2808 -0.3259
  647MOL0     C87217   1.940   8.280   0.625 -0.1862 -0.3482 -0.7486
  647MOL0     O87218   1.968   8.318   0.494  0.5243  0.7034 -0.4672
  647MOL0     C87219   1.860   8.379   0.422  0.1110  0.8778  0.5641
  647MOL0     C87220   1.847   8.291   0.297 -0.3593  0.6248  0.1020
  647MOL0     C87221   1.970   8.295   0.213 -0.6539  0.1966  0.1805
  647MOL0     C87222   2.007   8.433   0.151 -0.1503 -0.0605  0.1374
  647MOL0     C87223   2.130   8.430   0.063  0.1659 -0.4566  0.5091
  647MOL0     C87224   2.253   8.354   0.115 -0.2689 -0.0811 -0.0496
  647MOL0     C87225   2.372   8.367   0.012  0.0510 -0.8868  0.3853
  647MOL0     C87226   2.466   8.253   0.054  0.0959  0.4628 -0.2438
  647MOL0     N87227   2.584   8.244  -0.028 -0.2134  0.0895  1.0567
  647MOL0     C87228   2.666   8.132  -0.045 -0.0696  0.0466 -0.3919
  647MOL0     C87229   2.739   8.163  -0.157 -0.0551  0.3630  0.3603
  647MOL0     C87230   2.828   8.066  -0.222 -0.3299 -0.0230 -0.1101
  647MOL0     C87231   2.940   8.013  -0.135  0.0950 -0.2759 -0.1140
  647MOL0     C87232   3.022   7.908  -0.223  0.1170 -0.6612  0.0149
  647MOL0     C87233   3.138   7.835  -0.152 -1.6397 -0.4985 -0.6094
  647MOL0     O87234   3.210   7.732  -0.236  0.6731  0.0613 -0.3752
  647MOL0     C87235   3.291   7.632  -0.175 -0.0762  0.0272 -0.4846
  647MOL0     C87236   3.365   7.557  -0.260  0.3382  0.0840  0.6673
  647MOL0     C87237   3.463   7.469  -0.221  0.1043 -0.1143  0.4873
  647MOL0     C87238   3.524   7.381  -0.325  0.2842  0.4068  0.1452
  647MOL0     C87239   3.476   7.443  -0.083  0.4162 -0.2496 -0.6747
  647MOL0     C87240   3.591   7.360  -0.029  0.4445  0.4455  0.7745
  647MOL0     O87241   3.668   7.287  -0.117 -0.0318  0.7389 -0.0505
  647MOL0     C87242   3.764   7.203  -0.047 -0.6213 -0.3852 -0.2355
  647MOL0     C87243   3.884   7.208  -0.106 -0.9496 -0.6015 -0.6885
  647MOL0     C87244   3.988   7.138  -0.043  0.1998  0.1573 -0.2226
  647MOL0     C87245   3.966   7.073   0.079 -0.0242 -0.5225  0.6479
  647MOL0     O87246   4.085   7.008   0.119 -0.1161  0.8821  0.3995
  647MOL0     C87247   4.074   6.911   0.223  0.2533  1.2254 -0.4397
  647MOL0     C87248   4.016   6.787   0.163  0.3245  0.4192 -0.2058
  647MOL0     C87249   3.990   6.682   0.271  0.6443 -0.3070  0.6920
  647MOL0     C87250   3.911   6.556   0.202  0.6390 -0.1087  0.2871
  647MOL0     C87251   3.932   6.426   0.276 -1.4152  0.2509 -0.0448
  647MOL0     C87252   3.888   6.302   0.195 -0.2002  0.4406 -0.2574
  647MOL0     C87253   3.740   6.274   0.208  0.4836 -0.0735 -1.1583
  647MOL0     C87254   3.687   6.144   0.153  0.3999 -0.0517 -0.6135
  647MOL0    Cl87255   3.721   6.022   0.281  0.0287 -0.1395 -0.2067
  647MOL0     C87256   3.840   7.061   0.126  0.1480 -0.8175 -0.1776
  647MOL0     C87257   3.739   7.129   0.064  0.5339 -0.3520 -0.1006
  647MOL0     O87258   3.619   7.377   0.090  1.1243 -0.1379  0.4746
  647MOL0     C87259   3.397   7.524   0.009 -0.0884 -0.8316 -0.9919
  647MOL0     C87260   3.306   7.612  -0.040 -0.6167 -0.0171  0.7850
  647MOL0     N87261   2.709   8.294  -0.202  0.0284  1.0239  0.0928
  647MOL0     N87262   2.618   8.343  -0.126  0.1577  0.2283 -1.1004
  647MOL0     C87263   1.834   8.197   0.653  0.8664  0.2604 -0.7298
  647MOL0     C87264   1.819   8.141   0.784  0.4386 -0.9627  0.5147
  647MOL0     C87265   1.781   8.123   1.234 -0.6595  0.0066  0.1567
  647MOL0     C87266   1.895   8.172   1.290  0.1987  0.3460 -0.3062
  647MOL0     C87267   1.916   8.160   1.424  0.0319  0.7707  0.5642
  647MOL0     C87268   1.828   8.081   1.503 -0.2237 -0.5645  0.3851
  647MOL0     O87269   1.846   8.058   1.637 -0.2597 -0.2846  0.9963
  647MOL0     C87270   1.964   8.104   1.713  0.4656 -0.3855  0.3828
  647MOL0     C87271   1.969   8.040   1.840  0.7478  0.4933  0.1313
  647MOL0     C87272   2.064   8.102   1.947  0.7593 -0.3590 -0.6457
  647MOL0     C87273   2.049   8.026   2.083  0.2994  0.2351 -0.3403
  647MOL0     C87274   1.915   8.026   2.150  0.4816  0.2865  0.1679
  647MOL0     C87275   1.812   8.010   2.208  0.6626 -0.5331  0.3900
  647MOL0     C87276   1.707   8.043   1.453  0.2008 -0.6797  0.8054
  647MOL0     C87277   1.681   8.074   1.319  0.0090 -0.8464  0.4944
  647MOL0     H87278   2.078   8.304   0.936  0.3524 -2.1075 -0.0491
  647MOL0     H87279   2.112   8.382   0.697 -0.6305  2.7400  2.1336
  647MOL0     H87280   1.763   8.388   0.472 -0.1077 -1.5607  0.6961
  647MOL0     H87281   1.889   8.479   0.390  0.4176  0.5877 -0.1034
  647MOL0     H87282   1.813   8.189   0.320 -1.3798  0.6844 -1.0372
  647MOL0     H87283   1.760   8.340   0.251 -0.8757 -0.2420  0.1308
  647MOL0     H87284   2.054   8.255   0.269  0.7959  1.5179 -0.9771
  647MOL0     H87285   1.959   8.223   0.131  0.8649 -3.4334  2.9443
  647MOL0     H87286   1.919   8.468   0.096  0.2945  0.7667 -0.0572
  647MOL0     H87287   2.024   8.506   0.230  0.8581  0.8002 -0.8393
  647MOL0     H87288   2.096   8.382  -0.030 -1.4167  0.8898  0.3519
  647MOL0     H87289   2.144   8.536   0.041 -2.5150  0.1242  1.2863
  647MOL0     H87290   2.280   8.390   0.214  2.5831 -0.9484 -0.4344
  647MOL0     H87291   2.222   8.249   0.126  1.2484 -0.6335 -0.6665
  647MOL0     H87292   2.343   8.365  -0.093  1.0890  1.0196  0.0134
  647MOL0     H87293   2.415   8.465   0.033  1.6359 -1.6331  0.8215
  647MOL0     H87294   2.410   8.159   0.055  0.8849 -0.0125  0.3108
  647MOL0     H87295   2.503   8.280   0.153 -0.4198  0.6982 -0.1092
  647MOL0     H87296   2.661   8.039   0.010 -0.8610  0.5760  0.4499
  647MOL0     H87297   2.763   7.988  -0.264 -1.3190  2.8158 -4.5095
  647MOL0     H87298   2.871   8.116  -0.309 -1.7623  1.2924 -0.0999
  647MOL0     H87299   2.908   7.956  -0.046 -0.9391 -2.4873 -1.8001
  647MOL0     H87300   3.000   8.100  -0.107 -0.3834 -1.1528  4.5656
  647MOL0     H87301   3.050   7.958  -0.316  3.5783  4.0177  3.1512
  647MOL0     H87302   2.940   7.841  -0.249  0.2746 -1.7028  2.0050
  647MOL0     H87303   3.105   7.781  -0.063 -0.2883 -0.8323 -0.2900
  647MOL0     H87304   3.202   7.919  -0.123 -1.1298 -0.5788 -1.4686
  647MOL0     H87305   3.336   7.564  -0.365  0.9995  1.4936  0.5635
  647MOL0     H87306   3.501   7.412  -0.428  0.3763 -0.0884 -0.0290
  647MOL0     H87307   3.632   7.390  -0.320  0.4671 -1.8277  1.9912
  647MOL0     H87308   3.495   7.275  -0.317  0.1942  0.5678  2.2710
  647MOL0     H87309   3.902   7.257  -0.201  1.4508  3.3036  1.5012
  647MOL0     H87310   4.090   7.147  -0.077 -0.6647 -0.6543 -3.2989
  647MOL0     H87311   4.167   6.883   0.275 -0.3865  1.3647  0.8193
  647MOL0     H87312   4.007   6.959   0.295 -1.7050 -1.5542 -0.2729
  647MOL0     H87313   3.922   6.814   0.115  0.3106 -2.1920 -1.8020
  647MOL0     H87314   4.081   6.755   0.081 -0.5445  2.4888 -1.8109
  647MOL0     H87315   3.926   6.733   0.344 -1.3919  1.7703 -2.2888
  647MOL0     H87316   4.085   6.657   0.319 -0.5913 -0.2204  3.3715
  647MOL0     H87317   3.806   6.583   0.187  0.7166 -0.6282 -1.3934
  647MOL0     H87318   3.947   6.534   0.101  0.6182  0.5697  0.1294
  647MOL0     H87319   3.884   6.436   0.374 -0.0227  0.9774  0.6120
  647MOL0     H87320   4.037   6.412   0.306 -0.7502  2.2565 -1.2209
  647MOL0     H87321   3.913   6.317   0.090 -2.7624 -2.0318 -1.3274
  647MOL0     H87322   3.952   6.219   0.222  2.3421  1.6515 -2.1567
  647MOL0     H87323   3.685   6.356   0.162  0.5135  0.9745  0.6069
  647MOL0     H87324   3.734   6.277   0.317  0.2196 -1.0021 -1.1346
  647MOL0     H87325   3.734   6.122   0.056  2.9476  0.6984  0.3483
  647MOL0     H87326   3.579   6.140   0.140  0.5211  0.4558 -2.0695
  647MOL0     H87327   3.812   7.004   0.214 -2.1325 -0.2577 -0.4589
  647MOL0     H87328   3.640   7.115   0.107  1.7031  0.1192  3.0525
  647MOL0     H87329   3.416   7.509   0.115  1.5220 -1.4191 -1.3349
  647MOL0     H87330   3.247   7.662   0.037 -0.2414  1.8312 -0.0704
  647MOL0     H87331   1.763   8.174   0.575  1.2743 -3.6279 -0.1601
  647MOL0     H87332   1.727   8.089   0.807  0.2551 -0.3695  1.1517
  647MOL0     H87333   1.962   8.229   1.228  0.7927  1.6701  1.4745
  647MOL0     H87334   2.004   8.206   1.468  0.0583  1.1580  0.1223
  647MOL0     H87335   2.053   8.089   1.651 -1.9083  0.7551 -3.6365
  647MOL0     H87336   1.972   8.212   1.722  2.3096 -0.4365 -0.3084
  647MOL0     H87337   2.003   7.938   1.820 -0.5877  0.1867 -0.7377
  647MOL0     H87338   1.872   8.038   1.891  1.1430 -0.3547  0.8670
  647MOL0     H87339   2.046   8.208   1.964  2.4589 -0.4857  2.7706
  647MOL0     H87340   2.167   8.093   1.911  0.7347  0.6635 -1.0065
  647MOL0     H87341   2.120   8.065   2.157 -2.8571  1.7033  2.2065
  647MOL0     H87342   2.082   7.922   2.074 -1.3363 -0.4177  0.7194
  647MOL0     H87343   1.713   7.996   2.245  1.0317 -0.8229  1.3135
  647MOL0     H87344   1.627   8.008   1.519  0.4220  0.4662  1.7265
  647MOL0     H87345   1.585   8.059   1.270  0.5797 -0.6408 -0.7264
  648MOL0     O87346   4.182  11.196   1.817  0.3463  0.1658 -0.3296
  648MOL0     C87347   4.299  11.202   1.860  0.3259 -1.2292 -0.0921
  648MOL0     O87348   4.381  11.304   1.834 -0.1042 -0.1047  0.0372
  648MOL0     C87349   4.350  11.417   1.756  0.6174 -0.6350  0.9724
  648MOL0     C87350   4.453  11.520   1.737 -0.0833  0.7986  0.4723
  648MOL0     C87351   4.436  11.635   1.661 -0.1923  0.0056 -0.0740
  648MOL0     C87352   4.319  11.651   1.596 -0.0946  0.3110 -0.4121
  648MOL0     O87353   4.299  11.743   1.491  1.0192  0.6407 -0.6970
  648MOL0     C87354   4.413  11.828   1.454 -0.6391  0.3332 -0.2935
  648MOL0     C87355   4.528  11.745   1.380 -0.3271 -0.1632  0.4928
  648MOL0     C87356   4.629  11.834   1.311 -0.0349  0.0380  0.1934
  648MOL0     C87357   4.712  11.923   1.405 -0.3451  0.0456  0.5435
  648MOL0     C87358   4.837  11.958   1.325 -1.3619 -0.8733  0.6574
  648MOL0     C87359   4.825  12.047   1.202  0.6612  1.0933  0.2952
  648MOL0     C87360   4.909  12.007   1.081  0.0345  0.9339 -0.1688
  648MOL0     C87361   4.862  12.071   0.964  1.0301  0.3172 -0.0098
  648MOL0     N87362   4.937  12.027   0.844  0.9868  0.2935 -0.3099
  648MOL0     C87363   5.069  12.064   0.815 -0.8409  0.6193  0.0910
  648MOL0     C87364   5.098  11.991   0.705 -0.2281  0.1290 -0.3464
  648MOL0     C87365   5.229  11.984   0.642  0.7981 -0.9395 -0.6805
  648MOL0     C87366   5.228  12.076   0.518  0.6875 -0.2601 -0.2719
  648MOL0     C87367   5.203  11.991   0.392  0.1268  0.1183 -0.4893
  648MOL0     C87368   5.216  12.060   0.252  0.4817 -0.0124 -0.2142
  648MOL0     O87369   5.352  12.105   0.240  0.2425 -0.6458  0.0343
  648MOL0     C87370   5.381  12.143   0.119  1.2758 -0.4881  0.3181
  648MOL0     C87371   5.439  12.275   0.097 -0.2150  0.7194 -0.0869
  648MOL0     C87372   5.479  12.317  -0.031  0.7164  0.4608  0.2633
  648MOL0     C87373   5.550  12.446  -0.047  0.1328 -0.7627 -0.2809
  648MOL0     C87374   5.446  12.238  -0.145  0.2107  0.3665 -0.5863
  648MOL0     C87375   5.464  12.271  -0.288 -0.3686 -0.6975  0.4048
  648MOL0     O87376   5.574  12.355  -0.306  0.5971  0.1705 -0.6904
  648MOL0     C87377   5.605  12.399  -0.431  0.1177  0.2610 -0.2437
  648MOL0     C87378   5.667  12.312  -0.529  0.1789 -0.7407  0.1769
  648MOL0     C87379   5.687  12.355  -0.660 -0.5023  0.6342  0.4421
  648MOL0     C87380   5.666  12.483  -0.694 -0.4815  0.2472  0.1073
  648MOL0     O87381   5.691  12.518  -0.822  0.0836 -0.1918  0.6697
  648MOL0     C87382   5.805  12.599  -0.834 -0.3643 -0.2356  0.6069
  648MOL0     C87383   5.777  12.742  -0.886  1.4173  0.0658  1.4460
  648MOL0     C87384   5.747  12.732  -1.040 -0.1231 -0.2578 -0.3103
  648MOL0     C87385   5.852  12.822  -1.117  0.5516  0.0185  0.4832
  648MOL0     C87386   5.876  12.771  -1.256 -0.4650  0.4295 -0.3800
  648MOL0     C87387   5.787  12.843  -1.359  0.3766 -0.1359  0.3603
  648MOL0     C87388   5.794  12.784  -1.499 -0.5906  0.4171  0.7001
  648MOL0     C87389   5.944  12.797  -1.555 -0.6468  0.0821 -0.0212
  648MOL0    Cl87390   6.017  12.944  -1.518  0.3742  0.0909 -0.6228
  648MOL0     C87391   5.625  12.568  -0.594 -0.5025 -0.0506  0.2274
  648MOL0     C87392   5.606  12.535  -0.460  0.5681 -0.4979  0.0080
  648MOL0     O87393   5.410  12.216  -0.381 -0.3271 -0.1121  0.2744
  648MOL0     C87394   5.392  12.110  -0.123  0.1118  0.3267  0.0849
  648MOL0     C87395   5.366  12.060   0.005  0.3383 -0.5303 -0.2215
  648MOL0     N87396   4.982  11.919   0.666  1.2506  0.5922  0.2510
  648MOL0     N87397   4.885  11.940   0.749 -0.5550  0.3232 -0.5250
  648MOL0     C87398   4.210  11.575   1.627  0.7031 -0.1531  0.1311
  648MOL0     C87399   4.225  11.456   1.700  0.3883 -0.3680  0.6993
  648MOL0     C87400   4.331  11.105   1.967 -0.0060  0.1315  0.1086
  648MOL0     C87401   4.462  11.120   2.023 -0.1410 -1.0798  0.7817
  648MOL0     C87402   4.494  11.050   2.139 -0.0113  0.2301 -0.7552
  648MOL0     C87403   4.405  10.966   2.202  0.7860  0.3515 -0.0147
  648MOL0     O87404   4.426  10.874   2.299 -0.2807 -0.5929  0.1876
  648MOL0     C87405   4.559  10.798   2.299 -1.1913 -0.2085 -0.9184
  648MOL0     C87406   4.621  10.824   2.433  0.9144 -0.0441  0.1365
  648MOL0     C87407   4.776  10.828   2.433  0.6080 -0.5408 -0.0468
  648MOL0     C87408   4.822  10.684   2.392  0.7763 -0.1865  0.2580
  648MOL0     C87409   4.796  10.573   2.478 -0.0855  0.3548 -0.8697
  648MOL0     C87410   4.769  10.479   2.551  0.1281  0.1627  0.1357
  648MOL0     C87411   4.277  10.963   2.141  0.4786  0.2081  0.1391
  648MOL0     C87412   4.233  11.036   2.035 -0.3469 -0.6868  0.8837
  648MOL0     H87413   4.553  11.508   1.776 -0.5797  0.4602  1.7136
  648MOL0     H87414   4.524  11.695   1.643 -1.6207  1.5542 -2.4280
  648MOL0     H87415   4.391  11.907   1.381 -2.3618 -0.7638 -1.0338
  648MOL0     H87416   4.453  11.870   1.546  1.7210 -2.8361  0.3106
  648MOL0     H87417   4.583  11.693   1.459 -1.2041 -0.8508  0.6750
  648MOL0     H87418   4.486  11.670   1.314  0.1659 -1.4448  1.5934
  648MOL0     H87419   4.689  11.766   1.249 -0.4957  0.6505 -0.9612
  648MOL0     H87420   4.585  11.907   1.241  0.5446 -0.3464 -0.5909
  648MOL0     H87421   4.654  12.009   1.440 -0.3299  2.0962 -3.7155
  648MOL0     H87422   4.739  11.854   1.485  1.0366 -1.6679 -1.2994
  648MOL0     H87423   4.910  12.002   1.394 -0.9349 -0.3780 -0.0922
  648MOL0     H87424   4.882  11.867   1.286  0.0978 -0.2085  0.7080
  648MOL0     H87425   4.719  12.053   1.174  0.0570 -1.3149  1.7526
  648MOL0     H87426   4.854  12.146   1.237  2.8855  0.0614  1.5441
  648MOL0     H87427   5.018  12.022   1.088  0.2096 -0.2507 -0.1094
  648MOL0     H87428   4.902  11.898   1.079 -0.4930  0.8660  2.2824
  648MOL0     H87429   4.877  12.179   0.966 -2.3061  0.9224 -1.3093
  648MOL0     H87430   4.755  12.054   0.948  0.1301  4.8653 -0.1538
  648MOL0     H87431   5.123  12.124   0.887  0.7870  1.6865 -1.9172
  648MOL0     H87432   5.298  12.020   0.719 -1.3714  0.9573  0.5452
  648MOL0     H87433   5.245  11.879   0.619  1.9665 -0.8853 -0.1842
  648MOL0     H87434   5.319  12.136   0.510  0.1186  0.9870  1.9128
  648MOL0     H87435   5.152  12.154   0.524 -1.0480 -1.6817 -2.2372
  648MOL0     H87436   5.106  11.940   0.401 -0.0220  0.4812 -0.0081
  648MOL0     H87437   5.279  11.912   0.404 -1.0967 -0.6652  3.7526
  648MOL0     H87438   5.145  12.143   0.245 -0.6876 -0.8918  0.8522
  648MOL0     H87439   5.195  11.992   0.168 -2.9041  0.5015  0.0654
  648MOL0     H87440   5.463  12.326   0.189  1.3788 -3.6188  2.2361
  648MOL0     H87441   5.656  12.423  -0.058  0.6428 -0.5771  3.0368
  648MOL0     H87442   5.514  12.506  -0.131 -0.6699  0.0626  0.6255
  648MOL0     H87443   5.531  12.496   0.049  1.4754 -0.2554 -0.2682
  648MOL0     H87444   5.674  12.205  -0.509 -2.7917 -1.0576 -0.0768
  648MOL0     H87445   5.719  12.276  -0.726 -0.7613  1.3693 -0.5761
  648MOL0     H87446   5.862  12.596  -0.741  0.2379  0.6756  0.2816
  648MOL0     H87447   5.866  12.541  -0.903  3.1843  0.6346  2.7537
  648MOL0     H87448   5.685  12.765  -0.832  0.6775 -0.6186  0.5326
  648MOL0     H87449   5.862  12.806  -0.861  0.4871  1.8948  0.1887
  648MOL0     H87450   5.645  12.767  -1.057 -0.1487  0.1348  0.5879
  648MOL0     H87451   5.766  12.628  -1.068 -0.9708 -0.9087  1.3959
  648MOL0     H87452   5.818  12.926  -1.123 -0.2183 -0.2755 -0.5508
  648MOL0     H87453   5.952  12.836  -1.075  0.6854  1.4096 -0.2238
  648MOL0     H87454   5.880  12.662  -1.253 -0.7656  0.2877 -3.2107
  648MOL0     H87455   5.976  12.799  -1.291 -0.6555 -0.3648 -1.5973
  648MOL0     H87456   5.683  12.819  -1.336  0.4680 -0.4774  0.4354
  648MOL0     H87457   5.795  12.951  -1.348  0.1153 -0.3176  2.7918
  648MOL0     H87458   5.728  12.840  -1.565 -0.1523  0.4783  0.3066
  648MOL0     H87459   5.753  12.683  -1.507 -0.2545  0.3718 -0.8294
  648MOL0     H87460   5.943  12.784  -1.663  1.1792 -1.2252  0.0777
  648MOL0     H87461   6.005  12.721  -1.505 -0.0453 -1.3583 -2.7441
  648MOL0     H87462   5.623  12.673  -0.621  0.6232 -0.1328 -0.2188
  648MOL0     H87463   5.575  12.612  -0.390 -4.5793 -0.8684 -1.4624
  648MOL0     H87464   5.376  12.047  -0.211  1.2404 -0.3617  0.3575
  648MOL0     H87465   5.347  11.956   0.027  1.7639 -0.1737  3.4271
  648MOL0     H87466   4.114  11.612   1.592 -0.7202  1.7740  5.2107
  648MOL0     H87467   4.132  11.401   1.703  0.5124 -0.8442 -2.1130
  648MOL0     H87468   4.538  11.186   1.983 -0.5193 -0.0987  1.6598
  648MOL0     H87469   4.590  11.077   2.182 -0.5203  1.4494 -0.3600
  648MOL0     H87470   4.551  10.692   2.275  1.9564 -1.0244  1.1178
  648MOL0     H87471   4.629  10.848   2.231 -1.0533 -0.1740 -0.7520
  648MOL0     H87472   4.578  10.749   2.500 -0.0101  0.6580  0.3471
  648MOL0     H87473   4.580  10.915   2.477  0.8448  0.1620 -0.3486
  648MOL0     H87474   4.809  10.836   2.537 -1.1554 -0.1188  0.5124
  648MOL0     H87475   4.815  10.907   2.368 -2.4391 -0.6551 -2.2539
  648MOL0     H87476   4.929  10.699   2.377  0.6095  1.4158  0.4776
  648MOL0     H87477   4.780  10.661   2.293  0.0985  4.1088 -0.6572
  648MOL0     H87478   4.743  10.396   2.614 -2.3087 -0.9576 -2.1359
  648MOL0     H87479   4.211  10.888   2.182  4.0181 -1.2007  3.9438
  648MOL0     H87480   4.131  11.029   2.000  0.3123  0.3214 -1.4430
  649MOL0     O87481   9.177  11.375   3.859 -0.1177  0.0770 -0.5022
  649MOL0     C87482   9.174  11.277   3.786 -1.0210 -0.2485 -0.6310
  649MOL0     O87483   9.068  11.187   3.768  0.1341 -0.5296  0.3479
  649MOL0     C87484   8.941  11.219   3.815  1.1243 -0.1932  0.3970
  649MOL0     C87485   8.844  11.157   3.723 -0.3945  0.4391  0.0634
  649MOL0     C87486   8.711  11.170   3.746  0.3915  0.4932  0.1732
  649MOL0     C87487   8.662  11.241   3.847  0.5749 -0.3555 -0.4420
  649MOL0     O87488   8.525  11.258   3.852 -0.0983  0.2447 -0.4008
  649MOL0     C87489   8.455  11.341   3.942  0.5596 -0.4945 -0.1196
  649MOL0     C87490   8.308  11.357   3.896  0.3277 -0.1732 -0.0168
  649MOL0     C87491   8.240  11.228   3.931  0.1121 -0.1992 -0.0515
  649MOL0     C87492   8.153  11.225   4.058 -0.1579 -0.7937 -0.3962
  649MOL0     C87493   8.105  11.085   4.081  0.6065  0.1919 -0.5297
  649MOL0     C87494   8.020  11.071   4.210 -0.6189  0.1444  0.7572
  649MOL0     C87495   8.010  10.926   4.269 -0.7718 -1.1690  0.2790
  649MOL0     C87496   7.982  10.917   4.418  0.0314 -0.1223  0.3229
  649MOL0     N87497   7.935  10.779   4.458  0.5043 -0.3513  0.1512
  649MOL0     C87498   8.015  10.675   4.498  0.3629  0.6254 -0.1594
  649MOL0     C87499   7.943  10.560   4.484  0.2905 -0.4454 -0.4944
  649MOL0     C87500   7.987  10.419   4.491 -0.1956  0.2731 -0.0564
  649MOL0     C87501   7.968  10.330   4.372  0.3062  0.6521  0.0256
  649MOL0     C87502   8.029  10.194   4.404 -0.2083  0.0717 -0.4173
  649MOL0     C87503   8.159  10.194   4.485 -0.3149  0.3326  0.1793
  649MOL0     O87504   8.141  10.212   4.626 -0.3167 -0.8106 -0.4287
  649MOL0     C87505   8.089  10.119   4.713  0.2710 -0.6230  0.8944
  649MOL0     C87506   8.036   9.990   4.693  0.1537 -0.4805 -0.0104
  649MOL0     C87507   7.998   9.913   4.800  0.3345 -0.5362  0.5390
  649MOL0     C87508   7.941   9.796   4.753  0.1269  0.3001  0.0507
  649MOL0     C87509   8.034   9.958   4.938  0.8652 -0.3790  0.2984
  649MOL0     C87510   8.000   9.879   5.057 -0.1645 -0.8912  0.3616
  649MOL0     O87511   8.040   9.939   5.171  0.3688 -0.1668 -0.1089
  649MOL0     C87512   8.012   9.893   5.294  0.8360 -0.3744 -0.5341
  649MOL0     C87513   7.984   9.756   5.327 -0.4137 -0.6331  0.8636
  649MOL0     C87514   7.944   9.729   5.454 -0.1963  0.2376 -0.2175
  649MOL0     C87515   7.936   9.823   5.552 -0.3062  0.2228 -0.8901
  649MOL0     O87516   7.909   9.789   5.685 -0.0366 -1.1212  0.0204
  649MOL0     C87517   7.801   9.872   5.730 -0.3768  0.9531 -0.9987
  649MOL0     C87518   7.846   9.896   5.882  0.1678 -0.0180 -0.7244
  649MOL0     C87519   7.869   9.779   5.977 -0.8122  0.3249 -0.0792
  649MOL0     C87520   8.024   9.752   5.965  0.1435 -0.1721  1.3526
  649MOL0     C87521   8.074   9.657   6.064 -1.0863  0.0698  1.0687
  649MOL0     C87522   8.009   9.512   6.070  0.1670  0.5467  0.2855
  649MOL0     C87523   8.106   9.432   6.174 -0.2792  0.2037 -0.2587
  649MOL0     C87524   8.089   9.464   6.324 -0.4665  0.5033  0.5011
  649MOL0    Cl87525   8.254   9.434   6.401 -0.2035 -0.0501 -0.5843
  649MOL0     C87526   7.992   9.948   5.528 -0.0227 -0.1475 -0.0130
  649MOL0     C87527   8.032   9.988   5.399  0.1517  0.7997  0.4659
  649MOL0     O87528   7.920   9.791   5.050 -0.3031 -0.3364  0.6488
  649MOL0     C87529   8.101  10.073   4.951 -0.1043  0.1145 -0.1366
  649MOL0     C87530   8.119  10.159   4.838 -0.2201  0.2536 -0.3989
  649MOL0     N87531   7.811  10.609   4.453  0.0867  0.1182 -0.4968
  649MOL0     N87532   7.808  10.740   4.452  0.3971  0.2400  0.2371
  649MOL0     C87533   8.750  11.301   3.941  0.3624 -0.0541 -0.4823
  649MOL0     C87534   8.890  11.293   3.923 -0.3867 -0.3607 -0.0681
  649MOL0     C87535   9.298  11.237   3.718 -0.2551 -0.1242 -0.7124
  649MOL0     C87536   9.423  11.255   3.785 -0.4884 -0.0611  0.3813
  649MOL0     C87537   9.552  11.213   3.730 -0.7194  0.0478 -0.8995
  649MOL0     C87538   9.543  11.164   3.601 -0.2326  0.0358  0.4332
  649MOL0     O87539   9.663  11.123   3.550 -0.6083  1.0068  0.2294
  649MOL0     C87540   9.674  11.102   3.407  0.1318 -0.1981 -0.4550
  649MOL0     C87541   9.813  11.049   3.362 -0.4612  0.8702 -0.4064
  649MOL0     C87542   9.917  11.141   3.435 -0.5535 -0.9355  0.5020
  649MOL0     C87543  10.059  11.131   3.363  0.5851 -0.7498  0.4921
  649MOL0     C87544  10.155  11.225   3.422  0.3209  0.0513 -0.1481
  649MOL0     C87545  10.233  11.307   3.469  0.6692  0.1358  0.5827
  649MOL0     C87546   9.418  11.149   3.530 -0.1651 -0.8356 -1.2030
  649MOL0     C87547   9.299  11.186   3.590  0.1542 -0.0657 -0.4004
  649MOL0     H87548   8.887  11.107   3.636 -2.1305  2.0345 -1.8084
  649MOL0     H87549   8.629  11.136   3.684 -1.6114  2.7507  1.4102
  649MOL0     H87550   8.458  11.307   4.046 -1.4046 -2.7640 -0.7198
  649MOL0     H87551   8.494  11.443   3.934  2.1076 -1.0005  0.5844
  649MOL0     H87552   8.253  11.432   3.953 -0.1316 -3.0167  3.7008
  649MOL0     H87553   8.302  11.386   3.791 -3.3248 -0.1190  0.0975
  649MOL0     H87554   8.177  11.205   3.845  2.2155 -1.7095 -1.2890
  649MOL0     H87555   8.309  11.143   3.937  2.1732  1.3847 -0.2593
  649MOL0     H87556   8.217  11.267   4.135 -0.9600  0.8801 -0.5750
  649MOL0     H87557   8.067  11.294   4.050 -0.6479 -1.0476  2.0247
  649MOL0     H87558   8.045  11.055   3.995 -1.7822  0.8517  0.8078
  649MOL0     H87559   8.191  11.020   4.099  1.6326  0.5278 -3.6353
  649MOL0     H87560   8.073  11.133   4.283 -0.7115  0.6576  0.3991
  649MOL0     H87561   7.921  11.112   4.186  0.5870  3.9831  1.6965
  649MOL0     H87562   7.925  10.877   4.220  0.6594 -1.2769 -2.2633
  649MOL0     H87563   8.099  10.870   4.238  1.6789  3.0667 -1.1823
  649MOL0     H87564   7.902  10.991   4.430  0.6930  1.2832 -2.9673
  649MOL0     H87565   8.071  10.952   4.470  1.3100  1.2214 -2.5778
  649MOL0     H87566   8.114  10.689   4.540  0.1806  0.4483  0.3407
  649MOL0     H87567   8.094  10.437   4.508  0.4395 -4.2050  2.1235
  649MOL0     H87568   7.934  10.364   4.570 -0.3937 -2.1667 -1.7902
  649MOL0     H87569   8.022  10.366   4.284  2.8148  2.9882  2.3013
  649MOL0     H87570   7.865  10.316   4.338  0.4255 -1.5970  0.4212
  649MOL0     H87571   8.050  10.153   4.305  0.1201  0.6805 -0.6083
  649MOL0     H87572   7.950  10.130   4.444 -1.6934  1.2290 -1.4056
  649MOL0     H87573   8.221  10.273   4.442 -2.9051  3.4836  1.8076
  649MOL0     H87574   8.202  10.095   4.468 -2.4267 -1.5160  4.0943
  649MOL0     H87575   8.034   9.957   4.590 -2.3399  0.0810 -0.2032
  649MOL0     H87576   8.011   9.738   4.693 -1.3182  0.9542 -2.4636
  649MOL0     H87577   7.898   9.726   4.825 -0.1408  0.9488  0.5373
  649MOL0     H87578   7.857   9.841   4.698 -0.6263  0.2861  1.1484
  649MOL0     H87579   7.975   9.675   5.256  3.3139 -0.7118  0.3226
  649MOL0     H87580   7.896   9.633   5.469 -0.2784  0.6842  2.8515
  649MOL0     H87581   7.776   9.962   5.673 -1.9273  0.1534 -1.6220
  649MOL0     H87582   7.710   9.812   5.722  1.1204 -1.2575 -2.5284
  649MOL0     H87583   7.917   9.975   5.909 -0.7915  0.2476  1.2537
  649MOL0     H87584   7.759   9.950   5.921 -1.2082 -0.4391 -3.0473
  649MOL0     H87585   7.810   9.693   5.944 -0.5512  0.8859 -2.2012
  649MOL0     H87586   7.843   9.787   6.083  1.5173  2.5367  0.4090
  649MOL0     H87587   8.053   9.726   5.862 -2.9530 -0.0327  0.3458
  649MOL0     H87588   8.061   9.853   5.985 -3.5934  1.5903  0.2507
  649MOL0     H87589   8.045   9.693   6.163  0.7086  0.3121  1.5405
  649MOL0     H87590   8.183   9.646   6.060 -0.8098  2.0973  2.1387
  649MOL0     H87591   7.907   9.516   6.108  0.1846 -0.2245  0.4310
  649MOL0     H87592   8.011   9.453   5.978 -2.4103 -0.5035  0.8123
  649MOL0     H87593   8.211   9.446   6.146 -0.0182 -1.4657 -0.2331
  649MOL0     H87594   8.095   9.325   6.154 -0.6664 -0.1177  1.5619
  649MOL0     H87595   8.010   9.402   6.369 -2.2727  2.6671  0.5210
  649MOL0     H87596   8.048   9.562   6.353 -0.9646  0.0896  1.2383
  649MOL0     H87597   8.007  10.014   5.612 -1.9262 -0.2902  0.4800
  649MOL0     H87598   8.053  10.094   5.388  2.0395  0.6882  2.3385
  649MOL0     H87599   8.139  10.117   5.043  0.4765  1.6207 -1.0503
  649MOL0     H87600   8.172  10.253   4.853  0.4434 -0.2645  0.6028
  649MOL0     H87601   8.715  11.355   4.029  0.5713 -0.5178 -0.1050
  649MOL0     H87602   8.962  11.349   3.981 -0.1025 -1.3879  0.5920
  649MOL0     H87603   9.431  11.279   3.891  0.7449  0.2024  0.2412
  649MOL0     H87604   9.646  11.225   3.784 -0.5924 -2.5637 -0.4227
  649MOL0     H87605   9.592  11.039   3.371 -0.7683 -0.9040  2.5455
  649MOL0     H87606   9.645  11.197   3.362 -4.1679 -1.5719 -1.0778
  649MOL0     H87607   9.814  11.052   3.253 -0.5406  1.0408 -0.4020
  649MOL0     H87608   9.819  10.945   3.395 -0.5883  0.1863 -2.3819
  649MOL0     H87609   9.924  11.113   3.540 -1.3671 -0.2946  0.7363
  649MOL0     H87610   9.876  11.242   3.429  0.4330 -0.5783 -3.4066
  649MOL0     H87611  10.043  11.159   3.259 -2.4053  0.4196  1.1621
  649MOL0     H87612  10.097  11.029   3.356  1.3271 -0.3548 -2.9027
  649MOL0     H87613  10.286  11.388   3.515  0.5087  0.0544  0.9131
  649MOL0     H87614   9.402  11.100   3.435 -1.7879  0.7186 -1.7783
  649MOL0     H87615   9.207  11.178   3.533  0.1088  1.7379 -0.6327
  650MOL0     O87616   2.794   3.110   1.483  0.3274  0.6644 -0.3126
  650MOL0     C87617   2.725   3.011   1.487  0.1090  0.0427 -1.0774
  650MOL0     O87618   2.644   2.965   1.385 -0.0791  0.7253  0.2802
  650MOL0     C87619   2.643   3.038   1.268  0.1880  0.5861  0.6661
  650MOL0     C87620   2.749   3.063   1.186  0.0001  0.3121 -0.1592
  650MOL0     C87621   2.724   3.133   1.065 -0.0510  0.4885 -0.1720
  650MOL0     C87622   2.599   3.185   1.036  0.1488 -0.3108  0.3489
  650MOL0     O87623   2.566   3.245   0.914  1.1067  0.4632 -0.0237
  650MOL0     C87624   2.630   3.376   0.897 -0.6927  1.0334 -0.3446
  650MOL0     C87625   2.568   3.433   0.765 -1.0611  0.3416 -1.0015
  650MOL0     C87626   2.600   3.338   0.650  0.7896 -0.1877 -1.1933
  650MOL0     C87627   2.564   3.402   0.521 -0.0021 -1.2301 -0.2105
  650MOL0     C87628   2.569   3.301   0.415  0.3653 -0.1683 -0.0363
  650MOL0     C87629   2.474   3.179   0.426  0.3144  0.3941  0.0074
  650MOL0     C87630   2.481   3.097   0.299  0.5983 -0.1571 -0.1331
  650MOL0     C87631   2.355   3.012   0.275  0.4819  0.4065 -0.5847
  650MOL0     N87632   2.342   2.970   0.134  0.5159  0.1759 -0.4855
  650MOL0     C87633   2.405   2.860   0.082 -1.4090  0.3708 -0.4330
  650MOL0     C87634   2.369   2.857  -0.046  0.4958 -0.1184  0.4770
  650MOL0     C87635   2.395   2.745  -0.142  0.7270 -0.3140  0.5455
  650MOL0     C87636   2.272   2.677  -0.199 -0.6289 -0.6685  0.7832
  650MOL0     C87637   2.311   2.603  -0.332  0.0096 -0.8613  0.6709
  650MOL0     C87638   2.227   2.478  -0.368  0.8355 -0.3872  0.1606
  650MOL0     O87639   2.112   2.535  -0.422  0.1840 -1.2347 -0.3910
  650MOL0     C87640   2.006   2.457  -0.462  0.1579 -0.7652 -0.2566
  650MOL0     C87641   1.989   2.322  -0.437  0.2022  0.3048  0.8530
  650MOL0     C87642   1.873   2.253  -0.481 -0.9084 -0.3244 -1.4622
  650MOL0     C87643   1.856   2.109  -0.432  0.9921 -0.1687  0.2930
  650MOL0     C87644   1.772   2.332  -0.551  0.6877  0.1970  0.5544
  650MOL0     C87645   1.637   2.280  -0.598  0.3621  0.4940 -0.1106
  650MOL0     O87646   1.593   2.169  -0.539 -1.3110  0.4164 -1.2248
  650MOL0     C87647   1.463   2.125  -0.549 -0.7242 -0.3328  0.5749
  650MOL0     C87648   1.432   2.044  -0.437  0.8804 -0.2226  0.7066
  650MOL0     C87649   1.293   1.991  -0.433  0.1081 -0.8516  0.0356
  650MOL0     C87650   1.194   2.015  -0.532 -0.1484  0.1734  0.2729
  650MOL0     O87651   1.065   1.972  -0.548  0.1781 -0.0264 -0.2829
  650MOL0     C87652   1.033   1.871  -0.448  0.5278  0.6593  0.6838
  650MOL0     C87653   0.878   1.847  -0.438  0.4073 -0.5487  0.0877
  650MOL0     C87654   0.821   1.764  -0.546  0.2746  0.0164  0.1934
  650MOL0     C87655   0.676   1.720  -0.507 -0.8223 -0.3464  0.6140
  650MOL0     C87656   0.567   1.825  -0.531  0.5099 -1.0260 -0.2109
  650MOL0     C87657   0.430   1.768  -0.491 -0.2187  0.3477 -0.7054
  650MOL0     C87658   0.365   1.662  -0.574  0.1996  0.2595 -0.6070
  650MOL0     C87659   0.252   1.590  -0.496 -0.1709 -0.2412 -0.3891
  650MOL0    Cl87660   0.329   1.449  -0.395 -0.0144 -0.0936  0.1782
  650MOL0     C87661   1.237   2.096  -0.642  0.5416  0.2336 -0.1938
  650MOL0     C87662   1.368   2.152  -0.651  0.1639  0.4168  0.2806
  650MOL0     O87663   1.573   2.353  -0.674  0.5072 -0.3794  0.1143
  650MOL0     C87664   1.796   2.465  -0.575  0.5234 -1.4788 -0.3662
  650MOL0     C87665   1.914   2.527  -0.536 -0.2452 -0.1474  0.2221
  650MOL0     N87666   2.272   2.950  -0.062 -0.0525 -0.4249  1.6131
  650MOL0     N87667   2.245   3.020   0.051 -0.4060  0.3131  0.7150
  650MOL0     C87668   2.491   3.152   1.119 -0.3158 -0.3535 -0.5902
  650MOL0     C87669   2.510   3.073   1.235 -0.0136 -1.1632  0.6085
  650MOL0     C87670   2.703   2.949   1.623  0.2093 -0.2475 -0.4658
  650MOL0     C87671   2.787   2.983   1.733  0.6018 -0.0213  0.3816
  650MOL0     C87672   2.747   2.935   1.865 -0.0150 -0.5503  0.1778
  650MOL0     C87673   2.640   2.851   1.882 -0.5761  0.1198 -0.7453
  650MOL0     O87674   2.612   2.803   2.007 -0.6118 -0.1335 -0.4604
  650MOL0     C87675   2.515   2.694   2.029 -0.2811 -0.0707 -0.0591
  650MOL0     C87676   2.517   2.658   2.172  0.4105 -0.2311 -0.1299
  650MOL0     C87677   2.477   2.506   2.179 -0.2480  0.5056 -0.1653
  650MOL0     C87678   2.493   2.457   2.321 -0.7474 -0.3746  0.5306
  650MOL0     C87679   2.455   2.316   2.339  0.5352 -0.1480 -1.1901
  650MOL0     C87680   2.401   2.208   2.361 -0.1608 -0.0812 -0.9082
  650MOL0     C87681   2.572   2.802   1.768  0.3528  0.7666 -0.7511
  650MOL0     C87682   2.607   2.842   1.644  0.0303  0.8636  0.4374
  650MOL0     H87683   2.848   3.022   1.201 -0.0488  0.0182 -0.6217
  650MOL0     H87684   2.807   3.134   0.994  0.5500 -1.3308  0.4560
  650MOL0     H87685   2.605   3.447   0.975  0.4203  1.1340 -0.0547
  650MOL0     H87686   2.736   3.348   0.892 -0.9775  0.0459 -1.3382
  650MOL0     H87687   2.462   3.460   0.776 -0.6439  0.9083  3.1925
  650MOL0     H87688   2.619   3.529   0.759 -0.3616 -0.0768 -2.2177
  650MOL0     H87689   2.699   3.293   0.660 -0.6458 -3.1501  1.3660
  650MOL0     H87690   2.538   3.249   0.665 -1.9246  1.8394  0.5278
  650MOL0     H87691   2.465   3.448   0.522  0.4948  0.1338 -3.4242
  650MOL0     H87692   2.637   3.482   0.508 -3.3025  2.0743 -0.2412
  650MOL0     H87693   2.544   3.358   0.325 -0.3014  0.9801  0.8453
  650MOL0     H87694   2.665   3.249   0.416 -1.2085 -3.3478  0.5224
  650MOL0     H87695   2.507   3.114   0.507 -0.2390  2.6987  2.2438
  650MOL0     H87696   2.375   3.212   0.457 -0.0306 -0.6172  0.0068
  650MOL0     H87697   2.479   3.165   0.213 -1.1225  0.8891  0.6744
  650MOL0     H87698   2.566   3.029   0.304  1.6335  1.0924 -0.2813
  650MOL0     H87699   2.263   3.068   0.294  2.2936  2.5640  2.6073
  650MOL0     H87700   2.350   2.932   0.349 -1.2777  0.5199 -0.5306
  650MOL0     H87701   2.469   2.794   0.139  1.2413  0.3623 -3.1905
  650MOL0     H87702   2.453   2.782  -0.227  0.6861 -1.9600 -0.2322
  650MOL0     H87703   2.447   2.669  -0.083 -0.7383 -3.1423 -1.5478
  650MOL0     H87704   2.189   2.742  -0.227 -0.5648 -0.6535  0.6287
  650MOL0     H87705   2.240   2.604  -0.124  1.5851  0.4959  3.0028
  650MOL0     H87706   2.416   2.576  -0.324  0.3985  0.0869 -0.7440
  650MOL0     H87707   2.315   2.674  -0.415  1.8840 -0.5804  0.9672
  650MOL0     H87708   2.212   2.409  -0.284  2.7584  3.8902  4.5672
  650MOL0     H87709   2.280   2.423  -0.446  5.4894  2.5885  0.7753
  650MOL0     H87710   2.050   2.263  -0.370 -0.7761 -1.0367  0.6016
  650MOL0     H87711   1.787   2.047  -0.492 -2.7806  3.1443  0.7816
  650MOL0     H87712   1.944   2.049  -0.409  3.1981  2.6173 -0.3734
  650MOL0     H87713   1.790   2.115  -0.345 -0.4170 -0.7236 -0.6865
  650MOL0     H87714   1.501   2.037  -0.353  2.5773  2.4173 -0.3418
  650MOL0     H87715   1.266   1.946  -0.338  2.9358 -1.5715  0.5907
  650MOL0     H87716   1.088   1.779  -0.471 -1.9222  0.0561 -4.2301
  650MOL0     H87717   1.070   1.916  -0.356 -1.5744  0.3750  1.7324
  650MOL0     H87718   0.865   1.799  -0.341  0.5763  3.7423  2.4532
  650MOL0     H87719   0.827   1.943  -0.434 -0.1864 -0.8380 -0.2901
  650MOL0     H87720   0.876   1.670  -0.554 -1.6361 -1.3108  1.6844
  650MOL0     H87721   0.819   1.809  -0.646 -0.8169 -1.2090 -0.3610
  650MOL0     H87722   0.663   1.625  -0.559  2.1318 -0.3674 -0.2774
  650MOL0     H87723   0.672   1.697  -0.400 -0.9835  0.9469  0.9002
  650MOL0     H87724   0.568   1.846  -0.638 -2.0658 -1.7158 -0.4408
  650MOL0     H87725   0.607   1.899  -0.461  0.4215  0.3314 -1.5577
  650MOL0     H87726   0.443   1.713  -0.398  3.5005  1.3977 -0.4360
  650MOL0     H87727   0.358   1.850  -0.489 -0.5174  0.0727  0.5494
  650MOL0     H87728   0.442   1.590  -0.605  0.8270  0.6462  0.0238
  650MOL0     H87729   0.320   1.703  -0.665 -2.8927 -1.1060  0.1915
  650MOL0     H87730   0.180   1.560  -0.573 -0.9147 -1.8437  0.8688
  650MOL0     H87731   0.204   1.662  -0.429  1.0027  0.2397 -0.0492
  650MOL0     H87732   1.173   2.132  -0.722  0.0364 -0.8511 -0.2958
  650MOL0     H87733   1.398   2.204  -0.741  0.9629 -1.3602 -0.5452
  650MOL0     H87734   1.726   2.524  -0.635  0.9545 -1.0052 -0.4161
  650MOL0     H87735   1.933   2.622  -0.584  0.4194 -1.1897 -1.6866
  650MOL0     H87736   2.392   3.189   1.094  0.9212  2.6508 -1.6341
  650MOL0     H87737   2.434   3.042   1.306  2.3808 -0.8324  3.5082
  650MOL0     H87738   2.865   3.058   1.724 -1.2749  2.4925  3.3022
  650MOL0     H87739   2.802   2.986   1.944  1.7471  0.5527 -1.6466
  650MOL0     H87740   2.417   2.729   1.996 -0.8386 -0.1076  1.4965
  650MOL0     H87741   2.534   2.604   1.969 -2.3239 -1.3593  1.0873
  650MOL0     H87742   2.445   2.720   2.226 -0.5606 -0.1122 -1.5368
  650MOL0     H87743   2.617   2.675   2.214 -1.0386  1.2185  3.1105
  650MOL0     H87744   2.542   2.444   2.117  0.6263 -0.0025  1.2155
  650MOL0     H87745   2.373   2.490   2.149  0.1980 -1.9975 -0.6078
  650MOL0     H87746   2.427   2.529   2.370 -1.3195  1.5171 -2.7360
  650MOL0     H87747   2.594   2.480   2.356 -1.2348  1.3793  0.8401
  650MOL0     H87748   2.366   2.107   2.363 -0.9120  0.1623 -1.5423
  650MOL0     H87749   2.483   2.744   1.786  1.3179 -0.0158  2.0414
  650MOL0     H87750   2.542   2.801   1.567  1.4608 -0.5168 -0.0802
  651MOL0     O87751   7.041   6.155  11.069  0.6473  0.0721 -0.2346
  651MOL0     C87752   7.158   6.126  11.098 -0.5297  0.7406 -0.5333
  651MOL0     O87753   7.210   6.089  11.211 -0.2524 -0.2589  0.3391
  651MOL0     C87754   7.134   6.110  11.321 -0.2432  0.1179 -1.3745
  651MOL0     C87755   7.100   5.990  11.395 -0.0890  0.2335  0.4109
  651MOL0     C87756   7.018   6.003  11.518  0.2164  0.5597 -0.3195
  651MOL0     C87757   6.951   6.125  11.547  0.0218  0.0985  0.0764
  651MOL0     O87758   6.871   6.128  11.664 -0.0472 -0.3131  0.4110
  651MOL0     C87759   6.799   6.246  11.699 -0.2116  0.5338 -0.3262
  651MOL0     C87760   6.682   6.195  11.778  0.0681 -0.9497  0.0787
  651MOL0     C87761   6.549   6.176  11.694 -0.8822  0.1310  0.1701
  651MOL0     C87762   6.429   6.130  11.785  0.4995  0.6991  0.5377
  651MOL0     C87763   6.358   6.009  11.739 -0.3694 -0.0313 -0.6243
  651MOL0     C87764   6.269   6.034  11.626 -0.0615  0.9722  0.3790
  651MOL0     C87765   6.206   5.899  11.575  0.4999 -0.0913 -0.2040
  651MOL0     C87766   6.095   5.935  11.482 -0.3814  0.4578 -0.2746
  651MOL0     N87767   6.125   5.980  11.346 -0.6942 -0.0396 -0.2665
  651MOL0     C87768   6.236   5.927  11.275 -0.5102 -0.2937  0.0285
  651MOL0     C87769   6.214   5.965  11.149  0.7907 -0.0764  0.3259
  651MOL0     C87770   6.312   5.936  11.032  0.4425 -0.7370  0.1250
  651MOL0     C87771   6.374   5.803  11.046 -0.3113  0.9278 -0.5228
  651MOL0     C87772   6.302   5.668  11.051  0.6664 -0.2980 -0.3848
  651MOL0     C87773   6.198   5.617  10.952  0.5193 -0.0009  0.4724
  651MOL0     O87774   6.272   5.622  10.821  0.4874 -0.0770 -0.2975
  651MOL0     C87775   6.378   5.531  10.796  0.1668  0.3444  0.7006
  651MOL0     C87776   6.473   5.562  10.704  0.1768  0.5794 -0.0884
  651MOL0     C87777   6.601   5.488  10.690 -0.5877 -0.6755 -0.3543
  651MOL0     C87778   6.720   5.540  10.599  0.2740  0.5340  0.1787
  651MOL0     C87779   6.629   5.378  10.781  1.1213 -0.8605 -0.3309
  651MOL0     C87780   6.752   5.298  10.808 -0.5810  0.0786  0.3797
  651MOL0     O87781   6.768   5.244  10.931 -1.2671  0.4706 -0.4017
  651MOL0     C87782   6.892   5.174  10.961  0.4081  0.2423 -0.8979
  651MOL0     C87783   7.016   5.234  10.940  0.0918 -0.1237  0.2495
  651MOL0     C87784   7.130   5.166  10.988 -0.2020  0.1654 -0.1985
  651MOL0     C87785   7.131   5.045  11.054 -0.2044 -0.4493 -0.0805
  651MOL0     O87786   7.250   4.992  11.095  0.2434  0.3173  0.0787
  651MOL0     C87787   7.257   4.859  11.153 -0.3265  0.9990  0.6694
  651MOL0     C87788   7.240   4.863  11.310 -0.4376 -0.0333 -0.5837
  651MOL0     C87789   7.295   5.002  11.368  0.3941  1.2465 -0.2870
  651MOL0     C87790   7.449   4.995  11.354  0.8176 -0.2564  0.6395
  651MOL0     C87791   7.509   5.100  11.451 -0.0719 -0.3545 -0.7724
  651MOL0     C87792   7.512   5.061  11.595 -0.0510  0.6936  0.2473
  651MOL0     C87793   7.561   5.169  11.690  0.3631 -0.3245 -0.2632
  651MOL0     C87794   7.460   5.287  11.692  0.3802 -0.4972 -0.4198
  651MOL0    Cl87795   7.488   5.359  11.854  0.2107 -0.0876  0.1292
  651MOL0     C87796   7.004   4.994  11.088 -0.0152 -0.5711 -0.2655
  651MOL0     C87797   6.884   5.055  11.044 -0.3611  0.0819 -0.0494
  651MOL0     O87798   6.837   5.290  10.723 -0.3722 -0.3563  0.1661
  651MOL0     C87799   6.520   5.346  10.868  0.2875 -0.5834  0.4591
  651MOL0     C87800   6.405   5.421  10.875 -0.5523  0.4439 -0.5440
  651MOL0     N87801   6.089   6.035  11.142  1.0803  0.2216 -0.8114
  651MOL0     N87802   6.039   6.048  11.259  1.3528  0.0515  0.1052
  651MOL0     C87803   6.993   6.242  11.472  0.4134 -0.1982 -1.2946
  651MOL0     C87804   7.086   6.232  11.372 -0.6468  0.1310 -0.0842
  651MOL0     C87805   7.264   6.135  10.988 -0.0755 -0.5833 -0.7721
  651MOL0     C87806   7.370   6.041  10.980  0.0554 -0.1115  0.2546
  651MOL0     C87807   7.459   6.043  10.874  0.2952 -0.7832  0.9740
  651MOL0     C87808   7.444   6.146  10.771 -0.2631  1.2222 -0.7571
  651MOL0     O87809   7.535   6.166  10.672  0.4514  0.4661  0.1336
  651MOL0     C87810   7.657   6.090  10.674  0.0699 -0.8320  0.4424
  651MOL0     C87811   7.755   6.121  10.552  0.4033  0.6185 -0.4602
  651MOL0     C87812   7.686   6.120  10.420 -0.5843 -0.4928  0.0244
  651MOL0     C87813   7.782   6.155  10.309  0.1082 -0.2421  1.1362
  651MOL0     C87814   7.730   6.107  10.182 -0.2971 -0.7911  0.8249
  651MOL0     C87815   7.690   6.071  10.078  0.4413 -0.1855  0.2240
  651MOL0     C87816   7.335   6.235  10.784 -0.2133  0.0885 -0.7447
  651MOL0     C87817   7.242   6.228  10.891  0.1031  1.3495 -0.1207
  651MOL0     H87818   7.126   5.890  11.361  1.7054  1.5584 -2.5403
  651MOL0     H87819   7.012   5.921  11.588  5.0991  2.4562  2.8892
  651MOL0     H87820   6.857   6.310  11.765 -2.9890 -0.1389  3.0627
  651MOL0     H87821   6.763   6.302  11.612 -0.3401 -1.6326 -1.7421
  651MOL0     H87822   6.693   6.103  11.836  0.3140 -1.8021 -1.2612
  651MOL0     H87823   6.661   6.270  11.855  0.7334 -1.9127  1.2286
  651MOL0     H87824   6.525   6.274  11.653  0.3047  1.3002  2.1130
  651MOL0     H87825   6.567   6.108  11.611  0.6679  1.9433 -1.0640
  651MOL0     H87826   6.470   6.106  11.884 -0.5393  0.9389  1.0331
  651MOL0     H87827   6.353   6.209  11.791 -0.7978 -0.4728  0.0066
  651MOL0     H87828   6.431   5.932  11.713  0.3211  0.2755  0.3424
  651MOL0     H87829   6.296   5.967  11.819 -1.9661 -0.2352 -1.9013
  651MOL0     H87830   6.194   6.111  11.648 -0.7237  1.2712 -2.5055
  651MOL0     H87831   6.322   6.069  11.536  2.6077 -2.8577  0.2074
  651MOL0     H87832   6.277   5.830  11.530 -0.4961 -1.1353 -0.2239
  651MOL0     H87833   6.163   5.847  11.661 -1.1687  0.1672 -0.8347
  651MOL0     H87834   6.034   6.007  11.537 -1.9250 -0.4746 -0.6947
  651MOL0     H87835   6.027   5.849  11.471  2.4084 -2.1177  1.1218
  651MOL0     H87836   6.323   5.888  11.326  0.5159  0.1149 -1.3614
  651MOL0     H87837   6.264   5.957  10.937  0.9387 -0.4239 -0.0630
  651MOL0     H87838   6.393   6.009  11.039  2.0186 -2.5263  1.7584
  651MOL0     H87839   6.425   5.792  11.141 -2.0142  0.5402  0.3942
  651MOL0     H87840   6.447   5.796  10.965 -0.1994 -1.1810 -0.3032
  651MOL0     H87841   6.265   5.656  11.153 -0.0557 -1.1431 -0.7373
  651MOL0     H87842   6.379   5.590  11.052 -0.6896 -1.6856  1.0195
  651MOL0     H87843   6.115   5.688  10.952  2.4596  2.4251  1.3461
  651MOL0     H87844   6.174   5.511  10.969  1.2823 -0.6470 -2.0483
  651MOL0     H87845   6.461   5.656  10.650  3.6165  0.8573 -0.5700
  651MOL0     H87846   6.799   5.581  10.663 -0.3216  0.2616  1.0956
  651MOL0     H87847   6.758   5.461  10.534  0.0924  2.4130 -2.4002
  651MOL0     H87848   6.665   5.603  10.528 -5.2251 -1.2208  2.3292
  651MOL0     H87849   7.009   5.334  10.898 -0.7305 -0.9154 -1.6002
  651MOL0     H87850   7.229   5.187  10.949  1.2748 -0.0827  3.1332
  651MOL0     H87851   7.185   4.791  11.106  1.3478 -0.0026 -0.5641
  651MOL0     H87852   7.358   4.818  11.144 -0.1817  1.2000  1.2989
  651MOL0     H87853   7.137   4.835  11.333  0.0058  0.3123  2.0994
  651MOL0     H87854   7.294   4.777  11.350  0.4353 -0.3563 -2.3228
  651MOL0     H87855   7.260   5.006  11.472  2.6166 -0.4499  0.6232
  651MOL0     H87856   7.243   5.088  11.326 -1.8217 -0.7216 -1.8702
  651MOL0     H87857   7.488   4.899  11.389  4.0766  1.0909  0.9984
  651MOL0     H87858   7.470   5.015  11.249 -2.8833  1.2685  0.0460
  651MOL0     H87859   7.469   5.199  11.430  1.0253  0.4351  0.6624
  651MOL0     H87860   7.615   5.115  11.427  0.8051  0.5644  2.9397
  651MOL0     H87861   7.414   5.026  11.626  0.0278  1.6639  1.6834
  651MOL0     H87862   7.583   4.980  11.611  0.7565  1.2594 -0.3605
  651MOL0     H87863   7.662   5.207  11.674 -0.6545  1.6654 -2.5973
  651MOL0     H87864   7.553   5.128  11.791 -0.9874 -1.6372 -0.8690
  651MOL0     H87865   7.354   5.259  11.688 -0.8244  2.9435  2.0988
  651MOL0     H87866   7.480   5.359  11.613  0.0224  3.2832  2.6471
  651MOL0     H87867   7.002   4.906  11.151  1.2273  0.9837  2.0779
  651MOL0     H87868   6.789   5.010  11.068 -0.6063  1.8055  2.6910
  651MOL0     H87869   6.521   5.257  10.931  0.6105 -0.1204  1.1223
  651MOL0     H87870   6.337   5.396  10.956 -0.6915  2.6272  0.0774
  651MOL0     H87871   6.948   6.338  11.495  0.0040 -0.8445  0.8899
  651MOL0     H87872   7.110   6.333  11.339  3.2156 -0.8714 -0.9022
  651MOL0     H87873   7.386   5.958  11.048  0.3515 -0.4929 -0.2756
  651MOL0     H87874   7.546   5.979  10.880  1.3139  0.1694 -1.7523
  651MOL0     H87875   7.706   6.111  10.769 -0.6926 -3.1704  1.4017
  651MOL0     H87876   7.644   5.982  10.668  0.3969 -0.8117 -1.1061
  651MOL0     H87877   7.838   6.051  10.553  1.5315  1.8317  2.5667
  651MOL0     H87878   7.795   6.222  10.567 -1.5287  1.2160  1.1703
  651MOL0     H87879   7.603   6.192  10.415  0.1862  0.3483 -1.4073
  651MOL0     H87880   7.644   6.019  10.420 -0.3845 -0.7276  4.3523
  651MOL0     H87881   7.888   6.133  10.325  0.4636  0.8208  0.3695
  651MOL0     H87882   7.776   6.265  10.307 -0.1645 -0.2450 -1.6269
  651MOL0     H87883   7.631   6.055   9.990 -0.7046  2.3039  0.4508
  651MOL0     H87884   7.318   6.313  10.710 -2.8088 -0.7381 -1.1176
  651MOL0     H87885   7.165   6.305  10.897 -1.9883 -0.7038  1.5223
  652MOL0     O87886   2.260   2.946   3.153  0.3373  0.0377  1.0846
  652MOL0     C87887   2.173   2.927   3.072 -0.4239  0.4266 -0.1968
  652MOL0     O87888   2.163   2.980   2.950 -0.7039 -0.2510  0.3140
  652MOL0     C87889   2.262   3.058   2.904  0.0298 -0.2202 -0.8264
  652MOL0     C87890   2.384   2.998   2.877 -0.3442 -0.6258  0.3945
  652MOL0     C87891   2.496   3.083   2.851 -0.7522  0.3972  0.0867
  652MOL0     C87892   2.477   3.223   2.839 -0.7801  0.2892  0.5042
  652MOL0     O87893   2.572   3.311   2.794 -0.1549 -0.0885  0.3884
  652MOL0     C87894   2.707   3.281   2.836  0.8354 -0.1440  0.8687
  652MOL0     C87895   2.791   3.406   2.812  1.0114  0.7518 -0.4893
  652MOL0     C87896   2.807   3.429   2.667 -0.7303 -0.7385  0.3334
  652MOL0     C87897   2.902   3.548   2.652 -0.0848  0.0533 -0.2935
  652MOL0     C87898   2.852   3.685   2.673 -0.9067 -0.8646 -0.4994
  652MOL0     C87899   2.927   3.793   2.600  0.0917 -0.2830  0.3419
  652MOL0     C87900   2.872   3.933   2.630 -0.5462 -0.1991 -0.0561
  652MOL0     C87901   2.970   4.042   2.582  0.4714  0.6286 -0.0818
  652MOL0     N87902   2.994   4.039   2.437 -0.3388 -0.0133 -0.2255
  652MOL0     C87903   2.918   4.089   2.337 -0.2392 -1.0129 -0.3061
  652MOL0     C87904   2.978   4.055   2.226  0.1338 -0.4640  0.8753
  652MOL0     C87905   2.946   4.118   2.088  1.1459 -0.5585 -0.3813
  652MOL0     C87906   2.881   4.022   1.981  0.8380 -0.1833 -0.7759
  652MOL0     C87907   2.731   4.021   2.007 -0.6889 -0.3838  0.1573
  652MOL0     C87908   2.659   4.131   1.924 -0.3677 -0.8205 -0.6695
  652MOL0     O87909   2.671   4.252   1.991 -0.1563 -0.2854 -1.1470
  652MOL0     C87910   2.649   4.362   1.917  0.0690 -0.7813 -0.2646
  652MOL0     C87911   2.714   4.467   1.965 -0.3880 -0.6457 -0.1847
  652MOL0     C87912   2.711   4.595   1.905  0.0546  0.2151  0.4490
  652MOL0     C87913   2.797   4.704   1.966  0.2022 -0.1302  0.7203
  652MOL0     C87914   2.634   4.607   1.783  0.6305 -0.7387  0.2915
  652MOL0     C87915   2.615   4.735   1.708  0.2571 -0.0821 -0.3457
  652MOL0     O87916   2.609   4.859   1.777 -0.2000  0.7692  0.8077
  652MOL0     C87917   2.557   4.975   1.724  0.7306 -0.2926 -0.0012
  652MOL0     C87918   2.490   4.981   1.601 -0.3197 -1.5187  0.0213
  652MOL0     C87919   2.427   5.100   1.560 -0.8599 -0.0334  0.6485
  652MOL0     C87920   2.454   5.223   1.620  0.1804  0.2487 -0.9011
  652MOL0     O87921   2.395   5.343   1.585  0.8494 -1.0702  0.3959
  652MOL0     C87922   2.478   5.420   1.495  0.8960  0.0136  0.1184
  652MOL0     C87923   2.413   5.409   1.359 -0.0722 -0.0752  0.5605
  652MOL0     C87924   2.501   5.455   1.243 -0.2851 -0.1958  0.6363
  652MOL0     C87925   2.482   5.607   1.220  0.1595  0.4194  0.3097
  652MOL0     C87926   2.554   5.643   1.092  0.1283  0.4522 -0.0230
  652MOL0     C87927   2.481   5.601   0.971  0.4393  0.9046  0.0335
  652MOL0     C87928   2.545   5.661   0.845  0.2024  0.1874 -0.4736
  652MOL0     C87929   2.455   5.761   0.779 -0.2183 -0.2458 -0.2906
  652MOL0    Cl87930   2.381   5.883   0.875  0.6733 -0.2582 -0.0866
  652MOL0     C87931   2.527   5.208   1.741 -0.2745 -0.1327  0.3414
  652MOL0     C87932   2.565   5.093   1.796  0.4942  0.6767 -0.4464
  652MOL0     O87933   2.617   4.720   1.586 -0.3276  0.3291 -0.1323
  652MOL0     C87934   2.571   4.493   1.734  0.0208 -0.4115  0.6633
  652MOL0     C87935   2.574   4.377   1.806 -0.2813 -0.7377  0.5727
  652MOL0     N87936   3.087   3.975   2.255  0.0477  0.0982  0.0374
  652MOL0     N87937   3.098   3.965   2.382  0.2211 -0.4088 -0.0917
  652MOL0     C87938   2.349   3.278   2.847 -0.6361  0.6051  0.1321
  652MOL0     C87939   2.246   3.196   2.891 -0.2322  0.0035  0.2649
  652MOL0     C87940   2.077   2.825   3.100  0.3232 -0.5712  0.1278
  652MOL0     C87941   2.040   2.742   2.994  0.5710  0.1051  0.5276
  652MOL0     C87942   1.949   2.648   3.021 -0.4774  0.5730  0.1528
  652MOL0     C87943   1.893   2.620   3.148 -0.2067 -0.0753  0.8844
  652MOL0     O87944   1.798   2.522   3.186  0.3058  0.8078 -0.1178
  652MOL0     C87945   1.717   2.451   3.087  0.1857  0.7038  0.0273
  652MOL0     C87946   1.594   2.529   3.043 -0.3868 -0.1840  0.7162
  652MOL0     C87947   1.467   2.432   3.020  0.6334 -0.8797  0.9151
  652MOL0     C87948   1.379   2.409   3.143  0.5248 -0.6918  0.0295
  652MOL0     C87949   1.436   2.342   3.260  0.6760  1.1773  0.3098
  652MOL0     C87950   1.472   2.268   3.351 -0.9028 -0.6886 -0.6300
  652MOL0     C87951   1.918   2.718   3.246  0.5164 -1.0290 -0.0699
  652MOL0     C87952   2.014   2.816   3.222  0.7093  0.4640  0.0925
  652MOL0     H87953   2.409   2.894   2.893 -1.3194 -0.8504  0.5073
  652MOL0     H87954   2.597   3.044   2.854 -1.3026 -1.1951  3.9365
  652MOL0     H87955   2.704   3.270   2.945 -4.2494  1.0818  1.0962
  652MOL0     H87956   2.744   3.195   2.779  0.8276  0.2776  0.2276
  652MOL0     H87957   2.742   3.495   2.851  2.6255  1.7885 -0.7236
  652MOL0     H87958   2.881   3.395   2.873  0.0801  1.0261  0.9788
  652MOL0     H87959   2.843   3.338   2.619 -3.6725 -2.0624  0.4459
  652MOL0     H87960   2.711   3.445   2.617  1.0251  1.8021 -2.5762
  652MOL0     H87961   2.988   3.527   2.716  0.5940 -2.5761 -1.8938
  652MOL0     H87962   2.929   3.544   2.546  0.8072 -0.7655 -0.0528
  652MOL0     H87963   2.748   3.690   2.638 -0.5675 -0.1117 -1.4697
  652MOL0     H87964   2.851   3.710   2.779 -0.2994  3.3307 -1.3144
  652MOL0     H87965   3.031   3.797   2.632 -0.2771  1.9435  1.5116
  652MOL0     H87966   2.925   3.783   2.492 -1.5089 -1.0855  0.4168
  652MOL0     H87967   2.767   3.945   2.600 -1.2937 -0.4104  2.2704
  652MOL0     H87968   2.863   3.947   2.738  0.0526  0.8153 -0.1252
  652MOL0     H87969   3.064   4.020   2.633  0.3347  1.3653  0.5049
  652MOL0     H87970   2.929   4.135   2.621 -0.8225 -0.1152  0.4028
  652MOL0     H87971   2.834   4.158   2.347 -0.3830 -1.1908 -0.2749
  652MOL0     H87972   2.870   4.194   2.108 -1.6305 -3.1335 -0.4434
  652MOL0     H87973   3.027   4.171   2.037  2.7263 -0.8039  1.7805
  652MOL0     H87974   2.914   3.919   1.992 -1.7652 -0.9859  0.5095
  652MOL0     H87975   2.905   4.059   1.881 -0.4942  1.7944 -0.4481
  652MOL0     H87976   2.709   4.023   2.114 -0.1752  3.4367  0.3465
  652MOL0     H87977   2.688   3.933   1.958  4.1117 -3.6044  1.0339
  652MOL0     H87978   2.555   4.099   1.907 -0.5416 -1.3242  1.1448
  652MOL0     H87979   2.716   4.127   1.831 -0.0125 -2.1664 -0.4186
  652MOL0     H87980   2.778   4.452   2.052 -2.1171 -0.0719  1.2618
  652MOL0     H87981   2.721   4.749   2.030 -2.8712 -2.6462 -0.8415
  652MOL0     H87982   2.864   4.663   2.042  0.0682 -0.7700  0.5015
  652MOL0     H87983   2.844   4.764   1.888  0.9816  0.7700  1.8517
  652MOL0     H87984   2.459   4.886   1.559 -0.4551 -1.9661  1.0935
  652MOL0     H87985   2.366   5.105   1.471  1.1966 -2.3828 -1.0468
  652MOL0     H87986   2.488   5.522   1.532  0.6582 -0.5302  1.7508
  652MOL0     H87987   2.580   5.379   1.498  0.1678 -1.8468  1.1916
  652MOL0     H87988   2.404   5.301   1.344  1.7778 -0.2841  0.8111
  652MOL0     H87989   2.307   5.439   1.367 -0.3253 -1.3149  2.5841
  652MOL0     H87990   2.474   5.390   1.159  3.3347  0.1304 -0.9608
  652MOL0     H87991   2.607   5.426   1.248 -1.1277 -3.9688 -0.1458
  652MOL0     H87992   2.375   5.629   1.214  0.2346  0.3544 -3.3938
  652MOL0     H87993   2.527   5.660   1.304 -0.8474 -0.4014  1.4186
  652MOL0     H87994   2.657   5.605   1.087  1.5078  3.9073 -4.1708
  652MOL0     H87995   2.542   5.752   1.087 -5.1990  0.0572 -1.4461
  652MOL0     H87996   2.495   5.494   0.956  3.1544  1.6564 -4.9940
  652MOL0     H87997   2.373   5.620   0.971  0.4768  1.1188  0.2606
  652MOL0     H87998   2.570   5.588   0.768  1.7706  0.1723  0.0190
  652MOL0     H87999   2.643   5.705   0.867 -0.1861  0.2335  1.3915
  652MOL0     H88000   2.373   5.712   0.724 -0.1833 -1.9635  1.0974
  652MOL0     H88001   2.499   5.815   0.695  2.3240  0.1501  1.1947
  652MOL0     H88002   2.546   5.301   1.793  0.3933  0.6394 -1.2451
  652MOL0     H88003   2.618   5.097   1.890 -2.9268  0.5301  1.6510
  652MOL0     H88004   2.505   4.504   1.649  1.9467 -0.5130 -0.9114
  652MOL0     H88005   2.523   4.287   1.773  1.3781 -1.8621  0.9485
  652MOL0     H88006   2.333   3.381   2.815 -1.0013  0.8303  1.0175
  652MOL0     H88007   2.147   3.237   2.900 -0.3956  1.1152 -4.2326
  652MOL0     H88008   2.067   2.759   2.891 -1.6962 -2.2765 -0.5753
  652MOL0     H88009   1.910   2.579   2.947 -4.8310  1.4832  1.3264
  652MOL0     H88010   1.779   2.412   3.006  3.2143 -0.0234  2.4861
  652MOL0     H88011   1.673   2.369   3.144  0.2766  1.7520  1.6703
  652MOL0     H88012   1.617   2.580   2.949 -3.0578  1.0327  0.6451
  652MOL0     H88013   1.571   2.600   3.122 -4.4331 -0.1630 -0.2833
  652MOL0     H88014   1.499   2.338   2.976  0.0096 -1.0047  0.7212
  652MOL0     H88015   1.400   2.484   2.951  2.1045  1.3437  1.0565
  652MOL0     H88016   1.286   2.367   3.102 -0.1190  1.7626 -1.2394
  652MOL0     H88017   1.353   2.507   3.183  0.3914 -1.5462  2.1256
  652MOL0     H88018   1.505   2.201   3.428  2.9025 -0.2203 -1.6433
  652MOL0     H88019   1.874   2.696   3.343 -2.7821  0.4308 -1.0714
  652MOL0     H88020   2.042   2.893   3.294 -2.1121  0.9654  0.7739
  653MOL0     O88021   5.362   1.925   1.536 -0.3616 -0.7315  0.5574
  653MOL0     C88022   5.479   1.962   1.515 -1.0729  0.2287  0.3386
  653MOL0     O88023   5.566   2.016   1.604  0.3655  0.2867 -0.0345
  653MOL0     C88024   5.525   2.058   1.733 -0.1411 -0.7073 -0.4059
  653MOL0     C88025   5.599   2.165   1.784 -0.4738  0.1211 -0.1999
  653MOL0     C88026   5.588   2.221   1.910  0.6200 -0.1468  0.2142
  653MOL0     C88027   5.482   2.177   1.996 -0.8845  0.0049  0.5770
  653MOL0     O88028   5.454   2.256   2.105  0.3832  0.5800  0.9259
  653MOL0     C88029   5.335   2.233   2.170  0.6131  0.5513  0.6978
  653MOL0     C88030   5.309   2.321   2.297 -0.6133 -0.4981  0.4144
  653MOL0     C88031   5.432   2.355   2.374  0.3951  1.0233 -0.2719
  653MOL0     C88032   5.477   2.236   2.468 -0.2178 -0.0922 -0.6922
  653MOL0     C88033   5.379   2.221   2.590 -0.4557 -0.5343 -1.1997
  653MOL0     C88034   5.374   2.342   2.678  1.5136 -0.8932  0.1983
  653MOL0     C88035   5.326   2.324   2.823  1.1485  0.1784 -0.5059
  653MOL0     C88036   5.314   2.459   2.896  0.1132  0.6395 -0.5955
  653MOL0     N88037   5.431   2.525   2.953  0.3820 -0.0007  0.4348
  653MOL0     C88038   5.507   2.479   3.056  0.5247  0.2508 -0.0753
  653MOL0     C88039   5.624   2.544   3.042 -0.3076  0.2154 -0.3265
  653MOL0     C88040   5.749   2.514   3.120 -0.1032 -0.2880  0.0929
  653MOL0     C88041   5.822   2.643   3.144  1.0061  0.9535  1.0667
  653MOL0     C88042   5.965   2.621   3.215  0.0775 -0.5880  0.0155
  653MOL0     C88043   6.045   2.745   3.211 -0.0160  1.4564 -1.0685
  653MOL0     O88044   6.165   2.712   3.270 -0.2146 -0.2619 -0.2951
  653MOL0     C88045   6.259   2.819   3.274  0.4505  0.1557 -0.1603
  653MOL0     C88046   6.221   2.952   3.267  1.0083  0.6120  0.3159
  653MOL0     C88047   6.321   3.052   3.296 -0.6784  0.4623 -0.2473
  653MOL0     C88048   6.261   3.186   3.315 -0.6648 -0.0898 -0.0448
  653MOL0     C88049   6.459   3.017   3.305  0.5617 -0.0491 -0.3479
  653MOL0     C88050   6.567   3.121   3.328 -0.1450  0.3588  0.5124
  653MOL0     O88051   6.691   3.072   3.282  0.0707  0.4441  0.7969
  653MOL0     C88052   6.799   3.154   3.267  0.7258 -0.7898  0.2991
  653MOL0     C88053   6.925   3.093   3.270 -1.8873  0.3295  0.5341
  653MOL0     C88054   7.046   3.169   3.258 -0.3373  0.0637 -0.6532
  653MOL0     C88055   7.033   3.307   3.236  1.2268 -0.8843 -0.1933
  653MOL0     O88056   7.136   3.399   3.214  0.0947  0.2119 -0.1488
  653MOL0     C88057   7.272   3.351   3.193  0.8649  0.9312  0.2653
  653MOL0     C88058   7.343   3.482   3.173 -0.1119 -0.4737 -0.0968
  653MOL0     C88059   7.485   3.447   3.136  0.6185  0.1743 -0.7089
  653MOL0     C88060   7.579   3.574   3.133 -0.5738  0.2067  0.1033
  653MOL0     C88061   7.727   3.560   3.090  0.3592 -0.4720 -0.9047
  653MOL0     C88062   7.805   3.482   3.199 -0.1625  0.2864  0.3436
  653MOL0     C88063   7.950   3.446   3.147  0.0610  0.4597  0.5300
  653MOL0     C88064   8.051   3.414   3.256  0.4078 -0.3317  0.3707
  653MOL0    Cl88065   8.000   3.320   3.399 -0.0922 -0.2727  0.2038
  653MOL0     C88066   6.901   3.369   3.234 -0.3441 -0.7456  0.1975
  653MOL0     C88067   6.787   3.291   3.245  0.1908  0.8410 -0.3782
  653MOL0     O88068   6.549   3.223   3.394 -0.7289  0.3064 -0.5009
  653MOL0     C88069   6.494   2.880   3.303  0.3643 -0.6869 -0.2253
  653MOL0     C88070   6.395   2.784   3.301  0.4299  0.1275 -0.5384
  653MOL0     N88071   5.613   2.629   2.931 -0.1667  0.4731  0.0858
  653MOL0     N88072   5.495   2.619   2.880 -0.1409 -0.3113  0.2550
  653MOL0     C88073   5.406   2.066   1.956 -0.2918  0.1829  0.3839
  653MOL0     C88074   5.424   2.007   1.826 -0.4644  0.5433 -0.0542
  653MOL0     C88075   5.536   1.942   1.380  1.0490 -0.2066 -0.1490
  653MOL0     C88076   5.674   1.956   1.354  0.6987 -0.8953 -0.3183
  653MOL0     C88077   5.724   1.963   1.222 -0.3075  0.9714  0.3231
  653MOL0     C88078   5.640   1.929   1.117 -0.6271 -0.7273 -0.3091
  653MOL0     O88079   5.695   1.921   0.994  0.3540  0.3885  0.3816
  653MOL0     C88080   5.644   1.812   0.913 -0.4375 -0.3063 -0.6527
  653MOL0     C88081   5.762   1.735   0.862 -0.9488  0.9822 -0.8609
  653MOL0     C88082   5.721   1.602   0.802 -0.5241  0.6425  0.1967
  653MOL0     C88083   5.818   1.488   0.819 -0.0218  0.0641  0.8344
  653MOL0     C88084   5.931   1.503   0.723 -0.0685  0.8351 -0.6537
  653MOL0     C88085   6.030   1.502   0.647  1.1990  0.4010  0.0818
  653MOL0     C88086   5.507   1.905   1.137  0.3032 -0.0674  0.5590
  653MOL0     C88087   5.459   1.913   1.270 -0.4836  1.4225  0.2878
  653MOL0     H88088   5.672   2.211   1.718  1.4732 -1.3673  0.8010
  653MOL0     H88089   5.648   2.307   1.936 -0.7220  0.6526  0.8254
  653MOL0     H88090   5.257   2.239   2.094  1.4387  2.5051 -0.0570
  653MOL0     H88091   5.335   2.130   2.206  1.2194 -0.4286 -1.8617
  653MOL0     H88092   5.259   2.414   2.271  0.0671  0.0991  1.2071
  653MOL0     H88093   5.235   2.263   2.352  0.5010 -0.6763  1.7717
  653MOL0     H88094   5.512   2.372   2.301  0.7278  1.4362  0.1753
  653MOL0     H88095   5.420   2.446   2.435  0.2176  0.4048  0.6308
  653MOL0     H88096   5.489   2.141   2.415  3.3401 -0.4417  0.4693
  653MOL0     H88097   5.578   2.262   2.500 -1.1370  1.4684  1.1590
  653MOL0     H88098   5.279   2.194   2.556 -1.6228 -0.2356  1.7477
  653MOL0     H88099   5.415   2.140   2.654  0.1238  1.7296  1.5522
  653MOL0     H88100   5.477   2.378   2.686  0.7896  1.3519  0.3865
  653MOL0     H88101   5.321   2.416   2.617  0.1711 -3.3143 -1.7579
  653MOL0     H88102   5.227   2.279   2.807  1.3973  0.2183 -2.2467
  653MOL0     H88103   5.389   2.258   2.884 -2.7577 -1.6732  1.9395
  653MOL0     H88104   5.249   2.441   2.982  0.7990  1.4632  0.1123
  653MOL0     H88105   5.267   2.531   2.828  0.3809  0.7061 -0.7107
  653MOL0     H88106   5.489   2.397   3.124 -0.4688  0.4790 -0.0443
  653MOL0     H88107   5.734   2.478   3.223  1.2077 -1.9362 -0.2486
  653MOL0     H88108   5.813   2.448   3.060 -0.0242  1.8170 -2.3021
  653MOL0     H88109   5.759   2.720   3.188 -4.9768 -0.6385 -3.3908
  653MOL0     H88110   5.840   2.692   3.048 -1.5911  3.0394  1.5659
  653MOL0     H88111   6.024   2.551   3.156  1.9797  1.9305 -1.2401
  653MOL0     H88112   5.970   2.565   3.309  3.3234 -1.1761 -0.3754
  653MOL0     H88113   5.986   2.813   3.273  0.6984  1.8906 -0.8565
  653MOL0     H88114   6.063   2.788   3.112  3.0134  2.2338 -0.2866
  653MOL0     H88115   6.116   2.977   3.251  0.8238 -1.2817 -1.9125
  653MOL0     H88116   6.152   3.179   3.317 -0.6027 -1.7977  2.6574
  653MOL0     H88117   6.284   3.222   3.416 -0.9485  0.5740 -0.2140
  653MOL0     H88118   6.285   3.249   3.229  0.8336 -1.6618 -0.8506
  653MOL0     H88119   6.930   2.987   3.289  2.9086  0.4140  0.9006
  653MOL0     H88120   7.133   3.104   3.264 -0.8454 -0.5465  0.6389
  653MOL0     H88121   7.303   3.296   3.282  0.5766  0.4463  0.0697
  653MOL0     H88122   7.274   3.287   3.105  3.6736  0.6435  0.4497
  653MOL0     H88123   7.294   3.530   3.088 -1.4774 -0.6964  0.5341
  653MOL0     H88124   7.336   3.538   3.266  0.8470 -0.6556  0.0974
  653MOL0     H88125   7.499   3.400   3.039  2.0826  3.3397 -2.1844
  653MOL0     H88126   7.520   3.368   3.203 -2.4758 -2.5035 -1.9851
  653MOL0     H88127   7.536   3.652   3.070  1.7846  1.2021 -0.4014
  653MOL0     H88128   7.596   3.626   3.228  3.5009  1.2621 -0.9754
  653MOL0     H88129   7.762   3.661   3.070 -1.5397  0.8931  1.9577
  653MOL0     H88130   7.732   3.488   3.008 -0.7371  2.0239 -3.3324
  653MOL0     H88131   7.814   3.556   3.280  0.5087  2.2747 -1.4635
  653MOL0     H88132   7.755   3.394   3.242 -1.9572  2.3233  2.7777
  653MOL0     H88133   7.988   3.529   3.087 -1.5073 -0.0088 -1.1611
  653MOL0     H88134   7.940   3.362   3.077 -0.5459  0.6322  0.4095
  653MOL0     H88135   8.088   3.502   3.309  2.6509 -1.3832  0.6771
  653MOL0     H88136   8.131   3.355   3.210  1.4109  0.4386  1.0829
  653MOL0     H88137   6.894   3.473   3.203  2.2272 -0.8725 -1.0739
  653MOL0     H88138   6.693   3.342   3.228 -1.3365 -1.1329  1.6027
  653MOL0     H88139   6.601   2.864   3.309  0.0259 -3.1965 -0.0916
  653MOL0     H88140   6.424   2.680   3.314  1.7587  0.6860  1.2989
  653MOL0     H88141   5.315   2.037   2.007 -1.5209  1.3939 -1.0477
  653MOL0     H88142   5.369   1.922   1.787  3.6801 -2.9960  1.0247
  653MOL0     H88143   5.736   1.974   1.441 -0.9055  1.7442  0.4043
  653MOL0     H88144   5.830   1.978   1.206 -0.0297  0.0561  1.1752
  653MOL0     H88145   5.595   1.745   0.984 -0.2684  0.2465 -0.0073
  653MOL0     H88146   5.582   1.839   0.827 -0.7066  3.8015  0.6165
  653MOL0     H88147   5.810   1.726   0.960 -4.5173  2.5900  1.2639
  653MOL0     H88148   5.824   1.796   0.796 -2.6454  2.8428 -0.8188
  653MOL0     H88149   5.707   1.630   0.697 -0.7013  1.8295  0.5229
  653MOL0     H88150   5.628   1.574   0.851  0.3070  0.8835  1.9893
  653MOL0     H88151   5.772   1.389   0.808 -1.1983  0.6242  0.5754
  653MOL0     H88152   5.860   1.513   0.917  0.9139  4.9280 -0.5648
  653MOL0     H88153   6.128   1.513   0.605  0.8362  1.0167 -0.6151
  653MOL0     H88154   5.448   1.876   1.050 -0.2234 -2.7455  1.7280
  653MOL0     H88155   5.353   1.887   1.275 -0.2985  0.5462 -0.3123
  654MOL0     O88156   1.802   4.786   6.629  0.1837  0.9481 -0.0592
  654MOL0     C88157   1.839   4.863   6.540 -0.2554  0.4412  0.1703
  654MOL0     O88158   1.970   4.911   6.521 -0.0191  0.1944  0.4440
  654MOL0     C88159   2.059   4.924   6.628 -0.0685  0.0182  0.4671
  654MOL0     C88160   2.028   4.932   6.765 -0.1986 -0.0295 -0.0794
  654MOL0     C88161   2.126   4.923   6.864 -0.2723 -0.3763  0.0775
  654MOL0     C88162   2.267   4.898   6.833  0.5489  0.0436 -0.3600
  654MOL0     O88163   2.369   4.878   6.928  0.1672  0.1865 -0.6345
  654MOL0     C88164   2.332   4.889   7.069  0.4033  1.4784  0.0553
  654MOL0     C88165   2.273   4.760   7.119  0.5096  0.3413  0.5081
  654MOL0     C88166   2.383   4.667   7.185  0.4950 -0.0367  0.6308
  654MOL0     C88167   2.384   4.668   7.339 -0.3681 -1.0337 -0.0880
  654MOL0     C88168   2.462   4.544   7.402  0.4810 -0.8998 -0.2545
  654MOL0     C88169   2.613   4.557   7.383  0.1078  0.0285  0.1473
  654MOL0     C88170   2.694   4.435   7.428  0.5005 -1.2048 -0.5899
  654MOL0     C88171   2.841   4.463   7.457 -1.1046 -0.8213 -0.0352
  654MOL0     N88172   2.916   4.343   7.495  0.3972  0.7239 -0.0519
  654MOL0     C88173   2.952   4.250   7.402  0.5535  0.4685 -0.6932
  654MOL0     C88174   3.013   4.153   7.472 -0.0692  0.6937  1.2472
  654MOL0     C88175   3.070   4.033   7.412 -0.1321  0.9821  0.1028
  654MOL0     C88176   3.195   3.995   7.493  0.5109  0.4324  0.0004
  654MOL0     C88177   3.303   4.094   7.482 -0.3121 -0.1104 -0.2763
  654MOL0     C88178   3.450   4.026   7.497  0.2879 -0.0497 -0.2402
  654MOL0     O88179   3.478   3.946   7.383  0.5325  0.6853 -0.0295
  654MOL0     C88180   3.561   3.843   7.399  0.3621 -0.7621  0.4676
  654MOL0     C88181   3.540   3.725   7.332  0.1385  0.8508 -0.3115
  654MOL0     C88182   3.643   3.637   7.324 -0.5479 -0.2716  0.5349
  654MOL0     C88183   3.606   3.491   7.272 -0.3622  0.1004  0.0507
  654MOL0     C88184   3.770   3.657   7.386 -0.2709 -0.7114 -0.1496
  654MOL0     C88185   3.873   3.555   7.402  0.4899 -1.0575  0.2151
  654MOL0     O88186   3.825   3.442   7.448 -0.5626 -0.4440  0.4322
  654MOL0     C88187   3.904   3.379   7.539 -0.0942 -0.2215  0.1817
  654MOL0     C88188   3.853   3.256   7.559 -0.2729  0.1080  0.1784
  654MOL0     C88189   3.903   3.177   7.654 -0.5699  0.3220 -0.4420
  654MOL0     C88190   4.006   3.214   7.743 -0.6668 -0.6294 -0.2722
  654MOL0     O88191   4.070   3.134   7.837 -0.5447  0.3386  0.2124
  654MOL0     C88192   3.997   3.016   7.884 -0.4297 -0.3817  0.3182
  654MOL0     C88193   4.104   2.928   7.961 -0.0887  1.2471  0.6928
  654MOL0     C88194   4.148   2.992   8.095 -0.1396 -1.0686 -1.0269
  654MOL0     C88195   4.224   2.889   8.184 -0.4709 -0.0477  0.1135
  654MOL0     C88196   4.224   2.914   8.336  0.4478  0.1005 -0.6959
  654MOL0     C88197   4.317   2.830   8.410  0.3009  0.5512  0.0429
  654MOL0     C88198   4.301   2.856   8.567 -1.1504 -0.5902  0.4492
  654MOL0     C88199   4.411   2.810   8.659 -0.7303 -0.6114 -0.6235
  654MOL0    Cl88200   4.422   2.905   8.809 -0.0915 -0.2849 -0.2850
  654MOL0     C88201   4.066   3.339   7.722  0.5042  0.4190  0.5376
  654MOL0     C88202   4.012   3.418   7.621 -0.0595  0.8435 -0.3559
  654MOL0     O88203   3.986   3.577   7.367 -0.2323 -0.2975 -0.0736
  654MOL0     C88204   3.791   3.783   7.442  0.4877 -0.0903  0.6316
  654MOL0     C88205   3.686   3.877   7.438 -0.2151  0.4723  0.0592
  654MOL0     N88206   3.015   4.195   7.602 -0.6842  0.2364  0.1903
  654MOL0     N88207   2.949   4.296   7.619  0.7381 -0.1266 -0.4757
  654MOL0     C88208   2.301   4.895   6.696  0.6789 -0.1602 -0.2391
  654MOL0     C88209   2.200   4.916   6.596  0.6956  0.6110  0.2658
  654MOL0     C88210   1.732   4.914   6.459  0.1546  0.5146 -0.4689
  654MOL0     C88211   1.750   5.032   6.388 -0.0223 -0.2151 -0.2664
  654MOL0     C88212   1.638   5.097   6.327  0.1019  0.1708 -0.7758
  654MOL0     C88213   1.508   5.049   6.335 -0.2648  0.5472  0.8963
  654MOL0     O88214   1.406   5.132   6.272  0.0744 -0.1935 -0.1427
  654MOL0     C88215   1.270   5.087   6.295  0.5487  0.1218  0.1330
  654MOL0     C88216   1.162   5.179   6.236 -0.0771  0.2288  0.2860
  654MOL0     C88217   1.180   5.212   6.086 -0.4813 -1.0828 -0.5231
  654MOL0     C88218   1.059   5.154   6.003 -0.1342 -1.3595 -0.9973
  654MOL0     C88219   0.927   5.200   6.042  0.1766 -0.6056 -0.0220
  654MOL0     C88220   0.816   5.222   6.077  0.3235 -0.1560  0.7030
  654MOL0     C88221   1.500   4.916   6.384 -1.1444  0.2607  0.5493
  654MOL0     C88222   1.609   4.841   6.448  0.5783 -0.6914 -0.7144
  654MOL0     H88223   1.922   4.945   6.784  0.2124  3.6671  0.3706
  654MOL0     H88224   2.086   4.925   6.965 -1.5287 -0.9691 -0.3962
  654MOL0     H88225   2.409   4.929   7.137 -0.3887 -1.3365  2.8413
  654MOL0     H88226   2.254   4.964   7.086 -0.5294  0.1802  1.9809
  654MOL0     H88227   2.198   4.783   7.196  1.0635  1.4871  0.7246
  654MOL0     H88228   2.223   4.702   7.041 -2.6538  2.6953  0.6121
  654MOL0     H88229   2.363   4.562   7.161  0.0668 -0.0068  0.8400
  654MOL0     H88230   2.481   4.700   7.149 -0.5191  5.1871  1.7533
  654MOL0     H88231   2.416   4.766   7.377 -1.4781 -0.8063  0.3035
  654MOL0     H88232   2.283   4.659   7.381 -0.8770 -2.1077 -1.4916
  654MOL0     H88233   2.435   4.543   7.508 -1.8542 -0.5565 -0.7811
  654MOL0     H88234   2.407   4.457   7.364  0.0185 -1.6364  1.9699
  654MOL0     H88235   2.627   4.574   7.276  0.2323 -0.7627  0.0321
  654MOL0     H88236   2.638   4.651   7.434 -1.6025  0.4280  0.3099
  654MOL0     H88237   2.638   4.389   7.511 -1.1120 -1.9433 -1.9993
  654MOL0     H88238   2.685   4.368   7.342  1.3803  0.4342 -2.0223
  654MOL0     H88239   2.832   4.536   7.538 -2.6226  2.0322 -2.6191
  654MOL0     H88240   2.903   4.518   7.385  0.2218  0.8541  2.2447
  654MOL0     H88241   2.939   4.258   7.295 -2.1491 -0.3224 -0.4771
  654MOL0     H88242   2.984   3.966   7.410 -0.7396  1.7824 -1.1530
  654MOL0     H88243   3.097   4.048   7.307 -0.3183 -1.8555 -0.4291
  654MOL0     H88244   3.221   3.899   7.448 -0.3308 -0.7303  1.8467
  654MOL0     H88245   3.149   3.965   7.588 -0.2335  0.5753 -0.3128
  654MOL0     H88246   3.301   4.174   7.556 -0.4574 -1.9432  1.8149
  654MOL0     H88247   3.310   4.152   7.390 -0.9045  0.4433  0.0226
  654MOL0     H88248   3.454   3.965   7.588 -2.0698  1.8500  1.2613
  654MOL0     H88249   3.518   4.108   7.521 -2.4062  1.6762  2.3129
  654MOL0     H88250   3.438   3.704   7.300  0.0963  0.0066  0.3506
  654MOL0     H88251   3.697   3.447   7.232  2.4399  4.1300  1.3440
  654MOL0     H88252   3.581   3.422   7.353  1.3740 -3.0563 -1.9128
  654MOL0     H88253   3.533   3.473   7.192 -0.6274 -1.3726  0.5994
  654MOL0     H88254   3.761   3.228   7.508  0.4282  0.8693 -1.5864
  654MOL0     H88255   3.857   3.079   7.661 -0.4359 -0.0413 -3.2959
  654MOL0     H88256   3.910   3.020   7.950 -0.7895 -2.8506  0.0897
  654MOL0     H88257   3.970   2.961   7.793 -3.5192  2.3272 -0.5881
  654MOL0     H88258   4.052   2.833   7.981  0.6762  0.3248 -1.4071
  654MOL0     H88259   4.194   2.903   7.905 -0.9000 -1.2267  0.3551
  654MOL0     H88260   4.068   3.022   8.163  2.5335  1.4072  1.3108
  654MOL0     H88261   4.217   3.076   8.094 -0.2841 -0.9182  0.2084
  654MOL0     H88262   4.181   2.792   8.157  1.8675 -0.7837 -1.3521
  654MOL0     H88263   4.329   2.881   8.152 -0.2104 -0.4780  1.0081
  654MOL0     H88264   4.130   2.885   8.384  0.5987  3.3266  1.8711
  654MOL0     H88265   4.238   3.020   8.358  0.2401  0.7149 -3.2113
  654MOL0     H88266   4.288   2.725   8.395  1.4599 -0.4168  3.6441
  654MOL0     H88267   4.419   2.855   8.380 -0.5884  5.9513  0.5671
  654MOL0     H88268   4.212   2.820   8.619  0.3223 -0.0748  3.5835
  654MOL0     H88269   4.287   2.964   8.581 -3.8773 -0.8324  0.0410
  654MOL0     H88270   4.499   2.818   8.593 -1.4222 -2.4357 -1.8414
  654MOL0     H88271   4.399   2.703   8.676  2.3649 -1.2505 -1.7969
  654MOL0     H88272   4.154   3.376   7.774  1.6101 -1.4676  0.0815
  654MOL0     H88273   4.069   3.510   7.625 -0.5649  1.1387  0.4072
  654MOL0     H88274   3.880   3.820   7.491 -0.4850  0.9986  1.6740
  654MOL0     H88275   3.706   3.978   7.472  0.2059  0.4097  0.0010
  654MOL0     H88276   2.407   4.872   6.690  0.0143 -3.9526 -0.0715
  654MOL0     H88277   2.232   4.923   6.492 -2.5412 -0.6756 -0.9793
  654MOL0     H88278   1.847   5.080   6.385  0.8014 -1.7971 -3.1343
  654MOL0     H88279   1.656   5.192   6.277 -0.1527 -0.0898 -1.3670
  654MOL0     H88280   1.257   4.985   6.257  1.9295 -0.2870  0.7028
  654MOL0     H88281   1.250   5.081   6.402 -1.3122 -0.4716 -0.2113
  654MOL0     H88282   1.154   5.273   6.293  2.8731 -0.0687  1.3643
  654MOL0     H88283   1.067   5.127   6.249  1.1728 -2.2463 -0.0541
  654MOL0     H88284   1.267   5.158   6.047 -1.3745 -1.3316 -2.2203
  654MOL0     H88285   1.206   5.318   6.086  1.9334 -1.5291  2.0143
  654MOL0     H88286   1.056   5.045   6.010  2.0004 -1.3490  3.0928
  654MOL0     H88287   1.079   5.185   5.900 -2.6423  5.7877  0.0725
  654MOL0     H88288   0.717   5.245   6.110  0.4238  0.2148  0.7476
  654MOL0     H88289   1.401   4.871   6.388 -0.8156 -0.4935  0.2882
  654MOL0     H88290   1.587   4.740   6.484 -0.9399 -0.3784 -0.7062
  655MOL0     O88291   1.166   6.178   9.423 -0.2266  0.3016 -0.0652
  655MOL0     C88292   1.229   6.198   9.320 -0.7375 -0.7055  0.6174
  655MOL0     O88293   1.366   6.215   9.307 -0.5570  0.5586  0.7258
  655MOL0     C88294   1.465   6.214   9.401 -0.1598 -0.6479 -0.4100
  655MOL0     C88295   1.459   6.175   9.540  0.1690 -0.7081  0.2343
  655MOL0     C88296   1.576   6.177   9.613 -0.2935  0.2429 -0.3158
  655MOL0     C88297   1.702   6.224   9.560  0.0472  0.4836 -0.0096
  655MOL0     O88298   1.795   6.261   9.647  0.5808  0.4833  0.7216
  655MOL0     C88299   1.917   6.185   9.634 -0.9647  0.4280 -0.8394
  655MOL0     C88300   2.025   6.283   9.680  1.1603  0.5232 -0.2034
  655MOL0     C88301   2.164   6.238   9.650 -0.4248  0.5075 -0.6505
  655MOL0     C88302   2.263   6.326   9.725 -0.1540 -0.0741  0.6526
  655MOL0     C88303   2.334   6.265   9.847 -0.6531  0.9346 -0.1384
  655MOL0     C88304   2.470   6.314   9.887 -0.3376 -0.4939 -0.1886
  655MOL0     C88305   2.575   6.325   9.771 -0.6463  0.3096  0.3797
  655MOL0     C88306   2.600   6.208   9.680 -1.3614  0.6741  0.6057
  655MOL0     N88307   2.700   6.241   9.569  0.4649 -0.2429 -0.9799
  655MOL0     C88308   2.812   6.323   9.581 -0.2749 -0.2452 -0.2423
  655MOL0     C88309   2.880   6.320   9.459 -0.1487  0.2380  0.1238
  655MOL0     C88310   3.005   6.401   9.417  0.0045 -0.2677  0.6270
  655MOL0     C88311   2.962   6.528   9.325 -0.0808  0.8333 -0.3149
  655MOL0     C88312   2.874   6.492   9.202 -0.2570 -0.8269 -0.0359
  655MOL0     C88313   2.886   6.596   9.090 -0.3669 -0.2777 -0.5076
  655MOL0     O88314   2.816   6.719   9.122 -0.0018 -0.6824 -0.7486
  655MOL0     C88315   2.813   6.829   9.041 -0.1258  0.0094  1.7499
  655MOL0     C88316   2.880   6.837   8.918  0.3338  0.4473  0.2678
  655MOL0     C88317   2.872   6.954   8.841 -0.2577  0.5420  0.2719
  655MOL0     C88318   2.951   6.951   8.715  1.0164 -0.1042 -0.4061
  655MOL0     C88319   2.795   7.069   8.895 -0.7117 -0.4820  0.8677
  655MOL0     C88320   2.778   7.201   8.824  0.7184  0.3250  0.9513
  655MOL0     O88321   2.724   7.303   8.894  0.5304 -0.4958  0.9314
  655MOL0     C88322   2.665   7.416   8.826 -0.1022  0.0986  0.3150
  655MOL0     C88323   2.589   7.406   8.714 -0.3866 -0.6305  0.3703
  655MOL0     C88324   2.534   7.523   8.663 -0.4949  0.1868  0.8300
  655MOL0     C88325   2.546   7.649   8.724  0.6796  0.1260 -0.8102
  655MOL0     O88326   2.475   7.753   8.681 -0.6404 -0.1485  0.3602
  655MOL0     C88327   2.493   7.791   8.543 -0.7018  1.1285  0.1842
  655MOL0     C88328   2.474   7.943   8.549 -0.9702  0.3957  0.2129
  655MOL0     C88329   2.331   7.995   8.574 -0.1810 -1.4031  0.8416
  655MOL0     C88330   2.322   8.154   8.584 -0.6566  0.1079 -0.0539
  655MOL0     C88331   2.178   8.196   8.581  1.2406 -0.2127 -0.3567
  655MOL0     C88332   2.154   8.320   8.492 -0.1588 -0.2160  0.2962
  655MOL0     C88333   2.227   8.447   8.538 -0.4046  0.7388  1.0931
  655MOL0     C88334   2.185   8.508   8.672  0.2285 -0.2953  1.1190
  655MOL0    Cl88335   2.016   8.572   8.632  0.1307 -0.0922  0.7207
  655MOL0     C88336   2.624   7.653   8.841 -0.5921 -0.0779 -0.3621
  655MOL0     C88337   2.676   7.540   8.892  0.0858 -0.3638 -0.4377
  655MOL0     O88338   2.829   7.203   8.712 -0.2410  0.0926  0.0110
  655MOL0     C88339   2.737   7.057   9.020  0.8040  0.7217 -0.0017
  655MOL0     C88340   2.751   6.940   9.091 -0.1808  0.0273 -0.5581
  655MOL0     N88341   2.801   6.257   9.373  1.0961 -0.4791  0.2839
  655MOL0     N88342   2.691   6.217   9.436  0.4464 -1.1192 -0.1113
  655MOL0     C88343   1.706   6.247   9.430 -1.5199 -0.7154  0.4210
  655MOL0     C88344   1.590   6.240   9.349 -0.4742  0.1878 -0.4706
  655MOL0     C88345   1.143   6.194   9.196 -0.5711 -0.8551 -0.2500
  655MOL0     C88346   1.011   6.236   9.198 -0.4975  0.2263  0.1561
  655MOL0     C88347   0.929   6.231   9.085 -1.0329 -0.0457  0.4716
  655MOL0     C88348   0.980   6.177   8.957 -1.3030 -0.9135  0.8430
  655MOL0     O88349   0.891   6.163   8.856  0.6005 -0.3583  0.1238
  655MOL0     C88350   0.932   6.093   8.744  0.1784  0.5886  0.3383
  655MOL0     C88351   1.007   6.185   8.645  0.1850 -0.1625  0.8405
  655MOL0     C88352   1.056   6.129   8.507 -0.0642 -0.1890 -0.1590
  655MOL0     C88353   0.946   6.143   8.406 -0.2273  0.4938  0.2035
  655MOL0     C88354   0.830   6.062   8.431 -0.4648 -0.4549 -0.1482
  655MOL0     C88355   0.735   5.987   8.454 -0.5497  0.7032 -0.3146
  655MOL0     C88356   1.115   6.135   8.960 -0.3907 -0.7394 -0.2570
  655MOL0     C88357   1.194   6.149   9.081 -0.2052  0.7007  0.4773
  655MOL0     H88358   1.360   6.146   9.574 -1.5512  0.4740 -3.2196
  655MOL0     H88359   1.562   6.145   9.716  0.7505 -1.0527 -0.5430
  655MOL0     H88360   1.920   6.099   9.702 -1.5489  2.4485  1.9378
  655MOL0     H88361   1.939   6.148   9.534 -1.7671  0.3476 -0.9951
  655MOL0     H88362   2.014   6.377   9.626  0.7086 -0.2683 -1.5270
  655MOL0     H88363   2.011   6.300   9.788 -2.3209  2.9822 -0.8601
  655MOL0     H88364   2.181   6.134   9.680  1.9812  1.1574  0.4604
  655MOL0     H88365   2.178   6.246   9.541  2.6994  0.4454 -0.3440
  655MOL0     H88366   2.338   6.352   9.649 -0.5301  4.0895  1.4955
  655MOL0     H88367   2.224   6.422   9.759  2.4699  0.3508  2.8343
  655MOL0     H88368   2.255   6.258   9.923 -0.2960  3.4387  0.5581
  655MOL0     H88369   2.364   6.163   9.823 -1.1017  0.9767 -0.9132
  655MOL0     H88370   2.455   6.409   9.938 -0.5093 -0.4478 -0.3266
  655MOL0     H88371   2.504   6.246   9.965  2.0249  0.8217  0.0172
  655MOL0     H88372   2.552   6.414   9.711 -4.7514 -0.3108  0.7394
  655MOL0     H88373   2.669   6.341   9.824  0.2370 -2.7269 -0.0924
  655MOL0     H88374   2.506   6.182   9.630 -0.2849 -0.5535 -0.8440
  655MOL0     H88375   2.635   6.122   9.738 -1.7307  0.0242 -0.1209
  655MOL0     H88376   2.841   6.372   9.673  0.4354 -2.3272  0.7018
  655MOL0     H88377   3.054   6.443   9.506 -0.7027  0.7475  0.5576
  655MOL0     H88378   3.081   6.340   9.366 -1.8249 -1.0710 -1.2827
  655MOL0     H88379   3.045   6.597   9.309 -0.0391  1.3853  1.9188
  655MOL0     H88380   2.888   6.592   9.374 -2.2401 -0.3348 -1.8859
  655MOL0     H88381   2.769   6.500   9.230 -1.0175 -1.5917 -2.4015
  655MOL0     H88382   2.902   6.392   9.168 -0.8635 -1.3581  0.9765
  655MOL0     H88383   2.863   6.550   8.993  0.5535 -2.0070  0.0475
  655MOL0     H88384   2.995   6.610   9.086  0.5251 -5.2812 -0.4045
  655MOL0     H88385   2.940   6.752   8.886 -1.2674 -0.4476 -0.4868
  655MOL0     H88386   3.042   7.010   8.734  0.8273  0.2907 -0.6988
  655MOL0     H88387   2.991   6.851   8.696 -0.2271 -0.6660 -0.1431
  655MOL0     H88388   2.897   6.985   8.626 -1.2449  0.3371  1.0637
  655MOL0     H88389   2.558   7.313   8.668 -0.4377 -1.1434  1.4271
  655MOL0     H88390   2.487   7.520   8.565  1.1190  1.3657 -0.0170
  655MOL0     H88391   2.590   7.766   8.500 -2.2353 -1.7369 -1.9778
  655MOL0     H88392   2.411   7.751   8.482  0.1614  2.4689 -1.9167
  655MOL0     H88393   2.553   7.986   8.612  0.4679  1.0018 -1.8574
  655MOL0     H88394   2.504   7.972   8.448 -1.3447  0.6848  0.1848
  655MOL0     H88395   2.282   7.939   8.654 -1.0647 -1.6028  0.1780
  655MOL0     H88396   2.282   7.959   8.483 -1.3123  3.1351 -0.6294
  655MOL0     H88397   2.376   8.184   8.674  2.3230 -3.3509 -0.4527
  655MOL0     H88398   2.388   8.200   8.510  0.9700  1.4376  2.0952
  655MOL0     H88399   2.131   8.230   8.674 -3.2177 -2.5446 -1.4407
  655MOL0     H88400   2.111   8.118   8.543 -0.8900  0.2761  2.0696
  655MOL0     H88401   2.183   8.300   8.388 -0.5063  0.4450  0.0627
  655MOL0     H88402   2.046   8.336   8.499 -0.8276 -3.4474 -1.0535
  655MOL0     H88403   2.215   8.527   8.464 -0.4954 -2.3482 -2.5458
  655MOL0     H88404   2.334   8.425   8.537 -0.8662 -1.8054  0.4156
  655MOL0     H88405   2.246   8.593   8.703 -0.4186  0.8451 -0.5388
  655MOL0     H88406   2.173   8.432   8.749  2.6665 -0.5997  1.2722
  655MOL0     H88407   2.639   7.747   8.894 -1.3143 -0.1394 -0.0347
  655MOL0     H88408   2.731   7.550   8.985 -0.5891  4.9239 -0.3093
  655MOL0     H88409   2.685   7.139   9.069 -0.0175  1.2895 -1.7551
  655MOL0     H88410   2.703   6.933   9.188  2.1557  0.0557  0.6561
  655MOL0     H88411   1.799   6.286   9.390 -1.1162 -0.4397  1.5815
  655MOL0     H88412   1.584   6.254   9.242 -0.4484  1.1065 -0.3580
  655MOL0     H88413   0.961   6.254   9.293  0.5987 -2.9541  1.5019
  655MOL0     H88414   0.825   6.260   9.086 -1.3088 -1.0079  0.1183
  655MOL0     H88415   0.999   6.007   8.758 -0.3572  0.0019 -0.6234
  655MOL0     H88416   0.843   6.051   8.695  0.3573 -1.7346  1.8364
  655MOL0     H88417   1.088   6.225   8.706 -0.2927 -0.4106  1.6462
  655MOL0     H88418   0.939   6.267   8.621 -1.4626 -1.7108 -0.0454
  655MOL0     H88419   1.076   6.023   8.527 -0.8271 -0.3521 -0.2621
  655MOL0     H88420   1.146   6.187   8.481  0.9173 -1.0626  1.1524
  655MOL0     H88421   0.994   6.106   8.315  2.3376 -3.1910  2.7994
  655MOL0     H88422   0.911   6.246   8.396 -1.8777 -0.1047 -0.6016
  655MOL0     H88423   0.667   5.905   8.466  1.5400 -1.0888 -0.1850
  655MOL0     H88424   1.167   6.107   8.868  0.4049 -2.2974  0.6341
  655MOL0     H88425   1.296   6.117   9.063 -0.4836  1.7956 -4.3964
  656MOL0     O88426  10.909   2.862   9.380  0.8449 -0.0021  0.0245
  656MOL0     C88427  10.879   2.981   9.353  0.2442 -0.2075  0.0578
  656MOL0     O88428  10.898   3.085   9.443 -0.0732  0.1012  0.2773
  656MOL0     C88429  10.948   3.080   9.570 -0.0414  0.5408  1.0302
  656MOL0     C88430  11.024   2.972   9.618  1.4883  1.1208 -0.1229
  656MOL0     C88431  11.068   2.974   9.750 -0.3569  0.0905 -0.0630
  656MOL0     C88432  11.030   3.079   9.838  0.1281 -1.1217  0.1821
  656MOL0     O88433  11.062   3.081   9.970  0.1302  0.0603  0.0025
  656MOL0     C88434  11.197   3.021  10.011  0.2712 -0.2117  0.2129
  656MOL0     C88435  11.252   3.106  10.119  0.2182  0.1477 -0.0301
  656MOL0     C88436  11.294   3.247  10.069 -1.1735  0.0696 -0.2913
  656MOL0     C88437  11.386   3.320  10.170  0.0685 -0.0352 -0.9551
  656MOL0     C88438  11.433   3.461  10.132 -0.1505 -0.3913 -0.7083
  656MOL0     C88439  11.390   3.561  10.244 -0.6590 -0.1735  0.5887
  656MOL0     C88440  11.426   3.550  10.389 -0.8263 -0.9143 -0.2933
  656MOL0     C88441  11.575   3.552  10.419 -0.5269  0.4897 -0.5097
  656MOL0     N88442  11.636   3.422  10.388  0.2129  0.5679 -0.0501
  656MOL0     C88443  11.763   3.392  10.342  0.1504 -0.0812 -0.9558
  656MOL0     C88444  11.778   3.260  10.353 -0.5452 -0.3051  1.0593
  656MOL0     C88445  11.891   3.158  10.323 -0.2741  0.0737 -0.2014
  656MOL0     C88446  11.952   3.150  10.183 -0.3004 -0.4879  0.4302
  656MOL0     C88447  11.851   3.150  10.067  0.6539  0.3849  0.3497
  656MOL0     C88448  11.908   3.136   9.930  1.0008  0.6609  0.4128
  656MOL0     O88449  12.006   3.032   9.894  0.8331  0.6971  0.2409
  656MOL0     C88450  12.141   3.044   9.890  0.2950  0.3609 -0.8626
  656MOL0     C88451  12.208   3.165   9.922 -0.3488  0.0638  0.5338
  656MOL0     C88452  12.345   3.177   9.901  0.5804 -0.5232 -1.0148
  656MOL0     C88453  12.411   3.310   9.943  0.0660 -0.5661  0.8843
  656MOL0     C88454  12.417   3.070   9.865 -0.3178 -0.6558  0.0452
  656MOL0     C88455  12.560   3.070   9.836  0.3699 -0.6531  0.0143
  656MOL0     O88456  12.636   2.962   9.876  0.0886 -0.4620 -0.0819
  656MOL0     C88457  12.777   2.992   9.878  0.0797  0.2903  0.4860
  656MOL0     C88458  12.847   2.996   9.996  0.0454 -0.6110  0.5450
  656MOL0     C88459  12.988   3.004  10.001 -0.0991  0.0669 -0.0306
  656MOL0     C88460  13.060   2.996   9.880  0.4726  0.8579 -0.4174
  656MOL0     O88461  13.193   2.980   9.878 -0.8205 -0.1058 -0.2541
  656MOL0     C88462  13.259   3.099   9.932 -0.3298 -0.2069  0.6755
  656MOL0     C88463  13.323   3.056  10.061 -0.1775 -0.2765  0.4020
  656MOL0     C88464  13.388   3.178  10.137  0.8117 -0.1769 -0.3250
  656MOL0     C88465  13.497   3.252  10.062  0.3884  0.6359  0.2358
  656MOL0     C88466  13.593   3.339  10.146 -0.8180  0.5845 -0.4709
  656MOL0     C88467  13.693   3.249  10.233 -0.3681  0.9539 -0.0898
  656MOL0     C88468  13.731   3.308  10.369 -0.9330  0.2494 -0.0899
  656MOL0     C88469  13.620   3.358  10.447  0.4062  0.1937 -0.4585
  656MOL0    Cl88470  13.538   3.211  10.502  0.2186  0.0869 -0.0398
  656MOL0     C88471  12.991   2.987   9.767  0.4400  0.2595  0.2099
  656MOL0     C88472  12.850   2.998   9.760 -0.1635 -0.1631 -0.2466
  656MOL0     O88473  12.612   3.158   9.768  0.4214  0.2339  0.2457
  656MOL0     C88474  12.357   2.946   9.853 -0.3239  0.1875 -0.2675
  656MOL0     C88475  12.223   2.931   9.860 -0.2544 -0.3342  0.0110
  656MOL0     N88476  11.665   3.208  10.397 -0.9329  0.1708 -0.7521
  656MOL0     N88477  11.597   3.304  10.437  0.1239 -0.6129 -0.0893
  656MOL0     C88478  10.951   3.190   9.794 -0.0951  0.5256  0.2255
  656MOL0     C88479  10.912   3.184   9.656  0.9811  0.5659  0.3953
  656MOL0     C88480  10.817   3.018   9.224 -0.6140  0.4886  0.5386
  656MOL0     C88481  10.809   2.925   9.118 -1.7015 -0.0715  0.6485
  656MOL0     C88482  10.748   2.956   8.992 -0.3201 -0.1201 -1.1284
  656MOL0     C88483  10.689   3.078   8.975  0.1354  1.2849 -0.0014
  656MOL0     O88484  10.622   3.095   8.856  0.2334  0.0432  0.4381
  656MOL0     C88485  10.598   3.226   8.798  0.0721  0.6940  0.1105
  656MOL0     C88486  10.458   3.292   8.822 -0.1687  0.4604 -0.2133
  656MOL0     C88487  10.450   3.427   8.744 -0.4712 -0.2001  0.6989
  656MOL0     C88488  10.540   3.547   8.797 -1.0342 -0.3797  0.3377
  656MOL0     C88489  10.511   3.594   8.938  0.6262  0.5753 -0.4230
  656MOL0     C88490  10.484   3.632   9.055 -0.1995  0.3831  0.9223
  656MOL0     C88491  10.691   3.172   9.079 -0.6857 -0.5506 -0.1159
  656MOL0     C88492  10.761   3.145   9.195  0.6249  0.6719  0.1015
  656MOL0     H88493  11.058   2.890   9.556  1.4999 -0.3266  1.7058
  656MOL0     H88494  11.115   2.883   9.787 -0.7934 -0.1503 -0.0897
  656MOL0     H88495  11.182   2.926  10.063 -1.2979 -1.0268 -1.5912
  656MOL0     H88496  11.263   3.011   9.924  0.9290 -2.2552  0.9003
  656MOL0     H88497  11.180   3.119  10.200 -1.1394 -2.3710 -0.7204
  656MOL0     H88498  11.344   3.061  10.159  0.7883  0.7645 -0.6256
  656MOL0     H88499  11.340   3.231   9.971 -0.4053 -0.6234  0.1696
  656MOL0     H88500  11.205   3.300  10.036 -0.2320  1.4260 -0.7684
  656MOL0     H88501  11.325   3.325  10.260 -0.0485  1.3462 -1.0938
  656MOL0     H88502  11.475   3.264  10.199 -0.2747 -0.2352 -0.2597
  656MOL0     H88503  11.542   3.455  10.134  0.0702  2.3083 -0.5192
  656MOL0     H88504  11.388   3.500  10.040 -4.3609  1.6588  1.8906
  656MOL0     H88505  11.416   3.662  10.210 -3.4336  0.6998  0.8424
  656MOL0     H88506  11.281   3.564  10.254 -0.5385  3.0834  2.2398
  656MOL0     H88507  11.369   3.625  10.443 -0.6350  0.4709 -1.9265
  656MOL0     H88508  11.374   3.459  10.419 -1.4997 -0.1184  1.0300
  656MOL0     H88509  11.583   3.587  10.522  0.1247  1.2881 -0.8222
  656MOL0     H88510  11.627   3.630  10.364  0.8976 -0.3998 -0.4757
  656MOL0     H88511  11.845   3.454  10.306  1.1930  1.7007  3.7924
  656MOL0     H88512  11.975   3.177  10.391  0.1818  1.2377 -1.0575
  656MOL0     H88513  11.857   3.056  10.343  1.2094 -0.1620  1.4067
  656MOL0     H88514  12.006   3.056  10.168 -3.2741 -1.9025 -2.6141
  656MOL0     H88515  12.013   3.241  10.179 -0.6727 -0.0293  3.0853
  656MOL0     H88516  11.793   3.243  10.072  0.3681  0.2908 -0.9203
  656MOL0     H88517  11.784   3.067  10.090 -1.3028  1.7276 -0.2985
  656MOL0     H88518  11.944   3.235   9.897 -1.4654  1.8373  1.0359
  656MOL0     H88519  11.818   3.126   9.869  0.0253  1.2800  1.7092
  656MOL0     H88520  12.155   3.253   9.958  0.6332  0.6187  0.6637
  656MOL0     H88521  12.455   3.370   9.863  2.8863 -0.2205  2.5651
  656MOL0     H88522  12.337   3.373   9.994  0.2750 -0.0867  0.6033
  656MOL0     H88523  12.485   3.297  10.023 -1.7766  1.5618  3.1085
  656MOL0     H88524  12.800   2.974  10.091  3.3064 -2.7268  1.8489
  656MOL0     H88525  13.048   3.006  10.091 -1.7835 -4.3547  1.4528
  656MOL0     H88526  13.330   3.136   9.857  1.1613  0.5592  2.3734
  656MOL0     H88527  13.196   3.187   9.945  1.3366  1.6200 -2.4907
  656MOL0     H88528  13.246   3.026  10.133  0.4599  0.4451  1.4028
  656MOL0     H88529  13.390   2.972  10.043 -0.0598 -0.4908  1.7682
  656MOL0     H88530  13.431   3.132  10.227 -3.5986 -0.0121  2.1327
  656MOL0     H88531  13.314   3.255  10.158 -0.8425 -1.3511 -1.5807
  656MOL0     H88532  13.557   3.174  10.013  1.6144 -0.2190  2.9385
  656MOL0     H88533  13.459   3.314   9.979  0.2317  0.2279 -0.0010
  656MOL0     H88534  13.532   3.404  10.210  0.4254  1.9998 -0.6606
  656MOL0     H88535  13.647   3.407  10.080 -2.9068  0.7454 -2.1198
  656MOL0     H88536  13.641   3.153  10.242  3.6683 -1.5192 -0.5328
  656MOL0     H88537  13.785   3.234  10.175  0.5995  3.7144  0.5807
  656MOL0     H88538  13.798   3.390  10.343 -1.9881  0.5944 -1.9420
  656MOL0     H88539  13.772   3.229  10.433  0.1467  4.7077  5.4866
  656MOL0     H88540  13.560   3.430  10.390  0.3583 -0.5846 -1.4176
  656MOL0     H88541  13.664   3.411  10.532 -0.1158  2.3700 -1.4601
  656MOL0     H88542  13.050   2.960   9.680  0.1408  1.0369 -0.2439
  656MOL0     H88543  12.791   2.997   9.669 -0.3322  1.7453 -0.1969
  656MOL0     H88544  12.408   2.854   9.828  1.5746  0.5229  1.9988
  656MOL0     H88545  12.176   2.834   9.861 -0.4722 -0.2287  1.3654
  656MOL0     H88546  10.923   3.264   9.868  1.6151  2.0848 -0.5928
  656MOL0     H88547  10.845   3.257   9.611  0.0423  0.0010  0.8404
  656MOL0     H88548  10.834   2.822   9.143  2.0011 -0.1633 -2.4831
  656MOL0     H88549  10.738   2.873   8.922 -0.6273 -0.7794 -0.3259
  656MOL0     H88550  10.668   3.299   8.840 -0.7381  0.8687  1.2039
  656MOL0     H88551  10.616   3.225   8.690 -1.1413 -0.0345 -0.0986
  656MOL0     H88552  10.440   3.318   8.927 -1.4446  2.4839 -0.8752
  656MOL0     H88553  10.382   3.225   8.783 -0.3467  1.4182 -1.5755
  656MOL0     H88554  10.346   3.458   8.741 -0.3808  0.8581  4.1055
  656MOL0     H88555  10.484   3.417   8.641 -1.2117 -0.5812  0.4904
  656MOL0     H88556  10.514   3.632   8.734 -0.7986 -2.5739 -2.9763
  656MOL0     H88557  10.646   3.524   8.785 -0.2634  2.3639  1.1252
  656MOL0     H88558  10.466   3.660   9.157 -2.1088  1.3683  0.3672
  656MOL0     H88559  10.658   3.274   9.066 -0.1067 -0.4083 -0.5427
  656MOL0     H88560  10.787   3.228   9.260  0.8832  0.0742  0.7809
  657MOL0     O88561   4.262   4.172   6.742 -0.2333  0.3256 -0.4896
  657MOL0     C88562   4.239   4.286   6.769  0.0214  0.5390 -0.1254
  657MOL0     O88563   4.249   4.338   6.895  0.5935  0.6157  0.3013
  657MOL0     C88564   4.294   4.250   6.992  0.1340  0.4064  0.6772
  657MOL0     C88565   4.421   4.258   7.048  0.3718  0.1330 -1.5086
  657MOL0     C88566   4.459   4.187   7.161 -0.0103  0.7277  0.1921
  657MOL0     C88567   4.369   4.097   7.219 -0.2608 -0.9363  0.1227
  657MOL0     O88568   4.406   4.027   7.323 -0.1561  0.5233 -0.0870
  657MOL0     C88569   4.424   4.103   7.446 -0.0383 -0.3906  0.4390
  657MOL0     C88570   4.298   4.141   7.515  0.5279 -0.0881  0.3007
  657MOL0     C88571   4.317   4.172   7.667 -0.4323 -0.3425  0.3915
  657MOL0     C88572   4.327   4.049   7.756 -0.4192 -0.2384 -0.0432
  657MOL0     C88573   4.332   4.091   7.907 -0.2651 -0.0726  0.7251
  657MOL0     C88574   4.265   3.976   7.996  0.8724 -0.1652  0.4950
  657MOL0     C88575   4.329   3.969   8.134  0.2962 -0.1214  0.1184
  657MOL0     C88576   4.278   3.851   8.214  0.2506 -0.1646 -0.3419
  657MOL0     N88577   4.321   3.881   8.352  0.1175  0.3660  0.1717
  657MOL0     C88578   4.454   3.877   8.400 -0.4604 -1.0917 -0.2944
  657MOL0     C88579   4.458   3.935   8.525  0.1881  0.5703  0.0903
  657MOL0     C88580   4.570   3.968   8.628 -0.0049  0.6764  0.5357
  657MOL0     C88581   4.614   3.856   8.727  0.9278  0.7766  0.4840
  657MOL0     C88582   4.556   3.885   8.861 -0.3855  0.2823 -0.1538
  657MOL0     C88583   4.557   3.765   8.959  0.4269  0.7978 -0.2471
  657MOL0     O88584   4.689   3.712   8.967  0.0500  0.1926 -0.1376
  657MOL0     C88585   4.778   3.736   9.071 -0.9976 -0.0768 -0.7574
  657MOL0     C88586   4.905   3.679   9.073  0.1391 -0.1076 -0.1993
  657MOL0     C88587   5.005   3.700   9.174  0.0754  0.0520 -0.2677
  657MOL0     C88588   5.141   3.635   9.167 -0.6349  0.0860 -0.4424
  657MOL0     C88589   4.971   3.797   9.282 -0.6531 -0.2162 -0.7439
  657MOL0     C88590   5.075   3.851   9.374  0.6516 -0.0478 -0.6986
  657MOL0     O88591   5.104   3.990   9.368 -0.1664 -0.0685  0.2675
  657MOL0     C88592   5.190   4.055   9.455 -0.0419  0.9059  0.7708
  657MOL0     C88593   5.211   4.182   9.409 -0.2532 -0.0358  0.2570
  657MOL0     C88594   5.289   4.273   9.472  0.2830 -1.1956  0.2798
  657MOL0     C88595   5.355   4.229   9.595  0.4187 -0.8500 -0.1614
  657MOL0     O88596   5.436   4.323   9.655 -1.1075  0.5461 -0.8220
  657MOL0     C88597   5.546   4.270   9.733  0.1318 -0.6365 -0.1223
  657MOL0     C88598   5.661   4.378   9.732  0.8490  0.0995 -0.4204
  657MOL0     C88599   5.776   4.331   9.821  0.5121  0.1903 -0.4332
  657MOL0     C88600   5.893   4.426   9.818 -0.1995 -0.4278  0.3400
  657MOL0     C88601   6.009   4.354   9.891 -0.1021 -1.3337  0.3564
  657MOL0     C88602   6.135   4.438   9.918 -0.6992  0.0687  0.3206
  657MOL0     C88603   6.245   4.348   9.983 -0.2197 -0.3280 -0.2251
  657MOL0     C88604   6.391   4.388   9.949 -0.1450  0.0436 -0.5765
  657MOL0    Cl88605   6.479   4.315  10.085  0.5231 -0.0987 -0.3170
  657MOL0     C88606   5.333   4.102   9.650  0.0316 -0.3089 -0.8103
  657MOL0     C88607   5.242   4.014   9.578 -1.1107 -0.2181 -0.6010
  657MOL0     O88608   5.143   3.766   9.436 -0.2407 -0.4696  0.2189
  657MOL0     C88609   4.843   3.851   9.279  0.2120  0.5646  0.1688
  657MOL0     C88610   4.748   3.818   9.181  0.3258 -0.5262  0.7861
  657MOL0     N88611   4.316   3.950   8.553 -1.4050 -0.2816 -0.2034
  657MOL0     N88612   4.237   3.920   8.455  0.0897 -0.0242 -0.4579
  657MOL0     C88613   4.243   4.080   7.162  0.0689  0.4151  0.4116
  657MOL0     C88614   4.211   4.162   7.043 -0.5380 -0.3115 -0.1335
  657MOL0     C88615   4.171   4.365   6.676  0.3134  0.4535 -0.5609
  657MOL0     C88616   4.148   4.494   6.706  0.4174 -0.4500  0.4216
  657MOL0     C88617   4.074   4.578   6.612 -0.1109 -0.4070 -0.8435
  657MOL0     C88618   4.035   4.522   6.490  0.5594  0.4734 -0.7733
  657MOL0     O88619   3.970   4.593   6.398  0.3256  1.2128  1.3167
  657MOL0     C88620   3.828   4.548   6.381 -0.0175 -0.1286 -0.3566
  657MOL0     C88621   3.750   4.661   6.309 -0.2649  0.5674 -0.2846
  657MOL0     C88622   3.775   4.805   6.357  0.2847  0.1878 -0.7510
  657MOL0     C88623   3.717   4.922   6.275  0.0254  0.5312  0.5300
  657MOL0     C88624   3.571   4.904   6.264 -0.2509  0.9611  0.6193
  657MOL0     C88625   3.448   4.898   6.266 -0.6751 -0.7731 -1.2652
  657MOL0     C88626   4.075   4.391   6.455 -0.0317 -0.7521 -0.8463
  657MOL0     C88627   4.139   4.321   6.546 -0.4613 -0.4219 -0.5489
  657MOL0     H88628   4.483   4.337   7.006 -1.3117  1.0400 -2.3991
  657MOL0     H88629   4.554   4.216   7.206 -0.4290  3.4266 -0.5302
  657MOL0     H88630   4.485   4.032   7.503  3.6543  0.2196 -2.3876
  657MOL0     H88631   4.494   4.184   7.423  2.5694 -2.1407  1.6818
  657MOL0     H88632   4.254   4.221   7.455 -0.5715 -0.9874 -0.1367
  657MOL0     H88633   4.225   4.060   7.512  1.0297 -0.5957  1.2786
  657MOL0     H88634   4.415   4.221   7.676  0.8528 -2.1748 -2.4137
  657MOL0     H88635   4.239   4.247   7.686  0.4903  0.4227  1.3320
  657MOL0     H88636   4.244   3.980   7.737 -2.3496  1.8922  0.1882
  657MOL0     H88637   4.414   3.986   7.740 -0.8838 -0.8127 -0.3644
  657MOL0     H88638   4.437   4.106   7.933 -0.4934 -0.0387  1.6690
  657MOL0     H88639   4.275   4.184   7.912  0.9415  0.9143 -1.9996
  657MOL0     H88640   4.157   3.991   8.000  0.9935  0.8781  0.1354
  657MOL0     H88641   4.265   3.882   7.940  0.8743  1.4096 -2.3329
  657MOL0     H88642   4.438   3.968   8.133  0.2980 -0.2338 -0.9875
  657MOL0     H88643   4.301   4.069   8.169 -1.0156  0.2927 -1.9057
  657MOL0     H88644   4.320   3.757   8.177  3.6305  1.4255 -0.8977
  657MOL0     H88645   4.168   3.853   8.206  0.2751 -0.6870 -0.8334
  657MOL0     H88646   4.549   3.865   8.349 -0.0755  1.7365 -0.3928
  657MOL0     H88647   4.658   3.990   8.567 -0.2566 -2.0972 -0.9633
  657MOL0     H88648   4.546   4.055   8.690 -1.1806 -0.7118  2.1183
  657MOL0     H88649   4.723   3.856   8.739  0.8664 -2.0253  1.6544
  657MOL0     H88650   4.578   3.762   8.684 -2.3137  1.9620  0.2945
  657MOL0     H88651   4.455   3.926   8.856  1.2786  4.9864 -0.3427
  657MOL0     H88652   4.601   3.970   8.915 -1.1750  0.6946 -0.1317
  657MOL0     H88653   4.491   3.683   8.927  2.1052  0.3830 -2.9316
  657MOL0     H88654   4.516   3.800   9.054 -0.0713 -0.8726  0.1847
  657MOL0     H88655   4.924   3.609   8.992 -2.7346  0.3928 -1.4128
  657MOL0     H88656   5.160   3.556   9.241 -0.0084  2.7897  2.5048
  657MOL0     H88657   5.149   3.587   9.069  2.2022 -0.1916 -0.1528
  657MOL0     H88658   5.227   3.699   9.188 -2.1435  1.3903  2.3568
  657MOL0     H88659   5.164   4.216   9.317  1.8880  0.8502 -0.5645
  657MOL0     H88660   5.290   4.378   9.446  2.8962 -1.0605  0.7435
  657MOL0     H88661   5.519   4.242   9.835  3.1729 -3.0103  0.2152
  657MOL0     H88662   5.582   4.179   9.683  1.2185 -1.3350  1.8255
  657MOL0     H88663   5.688   4.389   9.627 -0.6827  1.4543 -0.7183
  657MOL0     H88664   5.631   4.477   9.767  3.9685  0.4137  1.7849
  657MOL0     H88665   5.805   4.229   9.793  1.3250  0.1065  0.6390
  657MOL0     H88666   5.734   4.327   9.922 -2.3351  0.5906 -1.5113
  657MOL0     H88667   5.936   4.452   9.721  4.5675  0.7786  2.4826
  657MOL0     H88668   5.870   4.516   9.875 -0.6467 -2.1679  3.1317
  657MOL0     H88669   6.044   4.266   9.835  1.2247 -1.4988  1.4028
  657MOL0     H88670   5.969   4.308   9.982  1.0956 -2.0900  0.5277
  657MOL0     H88671   6.166   4.483   9.823 -4.6816  2.3896 -0.0758
  657MOL0     H88672   6.116   4.525   9.981  0.9451 -0.5115  1.7111
  657MOL0     H88673   6.230   4.243   9.953 -1.0983 -0.3454  0.2705
  657MOL0     H88674   6.228   4.349  10.091 -0.2030  0.6492 -0.2308
  657MOL0     H88675   6.407   4.495   9.937 -0.3487  0.0095 -1.1650
  657MOL0     H88676   6.425   4.349   9.853  0.8985  1.4106 -0.7895
  657MOL0     H88677   5.348   4.063   9.750 -1.4352  2.9646  0.8363
  657MOL0     H88678   5.218   3.915   9.616 -0.3185 -1.1748 -2.4095
  657MOL0     H88679   4.821   3.926   9.354  1.2571 -0.7701  1.8980
  657MOL0     H88680   4.658   3.878   9.191  0.5214 -0.5500  3.3282
  657MOL0     H88681   4.169   4.009   7.197 -0.0360  0.5829  0.5343
  657MOL0     H88682   4.115   4.147   6.995 -1.6501  2.4308  1.0070
  657MOL0     H88683   4.184   4.538   6.799 -2.4750 -0.6125  1.7243
  657MOL0     H88684   4.041   4.675   6.649  0.1236 -0.7347  0.2801
  657MOL0     H88685   3.821   4.463   6.312  1.4855  1.2281 -2.2881
  657MOL0     H88686   3.783   4.511   6.474 -2.3860 -1.3195 -1.8697
  657MOL0     H88687   3.646   4.634   6.327  0.4396 -0.9971  1.7676
  657MOL0     H88688   3.767   4.656   6.201  0.1920 -1.6342 -0.1463
  657MOL0     H88689   3.883   4.822   6.357  0.4506 -0.7254 -1.7168
  657MOL0     H88690   3.726   4.811   6.454 -1.1417 -0.6854 -1.3790
  657MOL0     H88691   3.775   4.942   6.184 -0.2705  0.5226  0.3371
  657MOL0     H88692   3.745   5.011   6.331  0.3904 -0.4232  1.9086
  657MOL0     H88693   3.341   4.905   6.262 -0.8282 -0.6464  1.5382
  657MOL0     H88694   4.060   4.363   6.352  0.3095  2.8186 -1.9982
  657MOL0     H88695   4.190   4.227   6.525  4.4747  1.6581  0.7128
  658MOL0     O88696  10.218   5.083   5.639 -0.3342  0.6354 -0.1708
  658MOL0     C88697  10.284   4.998   5.691  0.0742  0.4525  0.0414
  658MOL0     O88698  10.279   4.963   5.828 -0.3919 -0.3774  0.3230
  658MOL0     C88699  10.195   5.019   5.911  0.4789  0.0879  0.1451
  658MOL0     C88700  10.093   4.941   5.969 -0.1021  0.8322 -0.7992
  658MOL0     C88701   9.995   4.997   6.059  0.2506 -0.1390 -0.2596
  658MOL0     C88702  10.013   5.131   6.101 -0.2128 -0.0369  0.0818
  658MOL0     O88703   9.928   5.176   6.201 -0.2982 -0.1496  0.6749
  658MOL0     C88704   9.920   5.325   6.211  0.6331  0.0488  0.1159
  658MOL0     C88705   9.823   5.365   6.317  0.3278 -0.1152  0.5374
  658MOL0     C88706   9.890   5.339   6.451  0.6734  0.8958  0.3893
  658MOL0     C88707   9.773   5.356   6.555 -0.0665  0.3263  0.0996
  658MOL0     C88708   9.800   5.295   6.696 -0.6141  0.0587 -0.0173
  658MOL0     C88709   9.681   5.275   6.795 -0.0259 -0.2741 -0.0460
  658MOL0     C88710   9.726   5.219   6.937  0.1186 -0.6914  0.1542
  658MOL0     C88711   9.591   5.208   7.034 -1.1263  0.2891 -0.8788
  658MOL0     N88712   9.638   5.158   7.168  0.7870 -0.2757 -0.8937
  658MOL0     C88713   9.738   5.206   7.250 -0.5889 -0.4557 -0.3086
  658MOL0     C88714   9.734   5.120   7.353 -0.3128 -0.4084  0.1331
  658MOL0     C88715   9.804   5.152   7.487  0.5806  0.1716  0.2246
  658MOL0     C88716   9.956   5.169   7.460 -0.0277 -0.4261 -0.7698
  658MOL0     C88717  10.050   5.179   7.582 -0.4847  1.0126 -0.9289
  658MOL0     C88718  10.022   5.072   7.684  0.6866 -0.7776 -0.0115
  658MOL0     O88719  10.136   5.082   7.779  0.0038  0.1678 -0.2518
  658MOL0     C88720  10.136   5.024   7.906  0.1461 -0.3146 -0.0586
  658MOL0     C88721  10.200   4.902   7.929 -0.4013  0.2423  0.5951
  658MOL0     C88722  10.224   4.841   8.050  0.1350  0.2035 -0.4616
  658MOL0     C88723  10.277   4.694   8.054 -0.4076 -0.6123 -0.9133
  658MOL0     C88724  10.153   4.888   8.158 -0.3110 -0.3033 -0.1961
  658MOL0     C88725  10.132   4.813   8.278 -0.1781  0.3253 -0.4168
  658MOL0     O88726  10.016   4.733   8.280 -0.6199  0.3676 -0.0673
  658MOL0     C88727   9.973   4.684   8.402  0.3138 -1.0766  0.7435
  658MOL0     C88728   9.932   4.554   8.407 -0.7338 -0.1215  0.3466
  658MOL0     C88729   9.866   4.505   8.523  0.8639  0.3147 -0.4242
  658MOL0     C88730   9.865   4.588   8.639 -0.3353 -1.5264  0.1032
  658MOL0     O88731   9.834   4.536   8.755 -0.1664 -0.8226  0.0485
  658MOL0     C88732   9.907   4.573   8.877  0.1566  0.0347  0.2480
  658MOL0     C88733  10.042   4.520   8.874  0.5349 -0.6178 -0.2332
  658MOL0     C88734  10.046   4.367   8.867  1.1819  0.5466  0.1294
  658MOL0     C88735  10.087   4.305   8.733 -0.2041 -0.1417  0.5205
  658MOL0     C88736  10.044   4.159   8.724 -0.4199 -0.0010  0.5948
  658MOL0     C88737  10.165   4.082   8.677 -0.9940 -0.3153  0.1589
  658MOL0     C88738  10.135   3.926   8.658  0.1710 -0.6469  0.1657
  658MOL0     C88739  10.256   3.851   8.611  1.5708  0.8627 -0.3723
  658MOL0    Cl88740  10.211   3.679   8.601 -0.4548  0.5547 -0.1479
  658MOL0     C88741   9.905   4.729   8.625 -0.3796  0.7962 -0.5203
  658MOL0     C88742   9.957   4.781   8.504  0.5336  0.6727 -0.5162
  658MOL0     O88743  10.220   4.813   8.354 -0.2427  0.2575 -0.2898
  658MOL0     C88744  10.081   5.011   8.137  0.9460  0.2226 -0.3635
  658MOL0     C88745  10.063   5.072   8.012 -0.4646  0.0709 -0.7329
  658MOL0     N88746   9.643   5.019   7.339  0.2832  0.0371 -0.2902
  658MOL0     N88747   9.594   5.035   7.218  0.5166 -0.7987 -0.2926
  658MOL0     C88748  10.119   5.206   6.046 -0.0723  0.4154  0.1291
  658MOL0     C88749  10.205   5.154   5.945  0.3377  0.2972  0.0456
  658MOL0     C88750  10.388   4.925   5.604 -0.6611  0.1595  0.4694
  658MOL0     C88751  10.402   4.961   5.467 -0.9391  0.4550  0.6090
  658MOL0     C88752  10.493   4.886   5.388 -0.2585  1.5475  0.5474
  658MOL0     C88753  10.572   4.781   5.444  0.0680 -0.1196 -1.4300
  658MOL0     O88754  10.670   4.703   5.378 -0.2850  1.5798 -0.1544
  658MOL0     C88755  10.720   4.739   5.245  0.1665 -0.2496 -0.5628
  658MOL0     C88756  10.794   4.877   5.248 -1.2038  0.2935 -0.2768
  658MOL0     C88757  10.900   4.872   5.365 -0.6411  0.4205  0.6282
  658MOL0     C88758  10.969   5.011   5.379  0.8008  0.3280 -0.5280
  658MOL0     C88759  10.997   5.094   5.260 -0.1178  0.9700 -0.0414
  658MOL0     C88760  11.019   5.169   5.163 -0.3285  0.8332 -0.0089
  658MOL0     C88761  10.558   4.751   5.584  0.4200  0.3183  0.2778
  658MOL0     C88762  10.461   4.817   5.661 -0.1839  0.1530 -0.6642
  658MOL0     H88763  10.086   4.834   5.958  1.5308  0.6784 -0.6255
  658MOL0     H88764   9.912   4.941   6.100  0.3120 -0.4112 -0.5085
  658MOL0     H88765  10.014   5.380   6.220 -0.4384  2.6187 -2.7979
  658MOL0     H88766   9.865   5.365   6.126  0.0845 -0.7997  0.0577
  658MOL0     H88767   9.798   5.471   6.304 -5.3271 -1.2864 -1.0827
  658MOL0     H88768   9.727   5.316   6.300  0.9725 -0.9949 -0.7364
  658MOL0     H88769   9.931   5.238   6.443 -2.1951 -0.2528 -3.4051
  658MOL0     H88770   9.976   5.405   6.466 -0.8397  4.3727 -3.9501
  658MOL0     H88771   9.746   5.462   6.567  2.0582  0.7313  2.1688
  658MOL0     H88772   9.675   5.317   6.526  1.2145 -3.0927 -0.0233
  658MOL0     H88773   9.849   5.197   6.692  0.2660  0.4653  0.4400
  658MOL0     H88774   9.875   5.356   6.748  3.0448 -1.3156 -3.1502
  658MOL0     H88775   9.641   5.376   6.807  0.1126 -0.4079  1.7894
  658MOL0     H88776   9.617   5.201   6.745  1.7624 -1.6749 -0.3948
  658MOL0     H88777   9.781   5.125   6.932  2.1804  0.5247 -1.4438
  658MOL0     H88778   9.784   5.301   6.981  0.6028  1.0691 -3.4614
  658MOL0     H88779   9.519   5.138   6.991 -1.2680 -2.9922  3.8686
  658MOL0     H88780   9.530   5.293   7.067 -3.8312 -2.0195  0.5405
  658MOL0     H88781   9.804   5.290   7.234 -2.2174  0.9160 -0.0638
  658MOL0     H88782   9.763   5.238   7.541 -0.3404 -0.2652  0.2292
  658MOL0     H88783   9.796   5.063   7.550  3.5441 -1.4264 -1.4122
  658MOL0     H88784   9.964   5.269   7.416  2.3252  0.8070  2.0865
  658MOL0     H88785   9.992   5.093   7.390  0.8855 -0.9952  0.2776
  658MOL0     H88786  10.033   5.278   7.625 -1.2847  1.5745 -2.4407
  658MOL0     H88787  10.155   5.169   7.553 -0.2467  0.1602  0.1651
  658MOL0     H88788  10.028   4.974   7.635  2.9174  1.1104 -4.0242
  658MOL0     H88789   9.923   5.084   7.727  1.7602  2.0397  2.0086
  658MOL0     H88790  10.240   4.856   7.839 -1.8562 -2.0492  1.0369
  658MOL0     H88791  10.355   4.692   8.131 -2.0201 -1.2830  0.7526
  658MOL0     H88792  10.212   4.617   8.095 -2.0894 -0.5883 -3.3466
  658MOL0     H88793  10.322   4.668   7.957  2.7428 -0.9475  0.5104
  658MOL0     H88794   9.924   4.494   8.317  1.5688  1.2559 -0.8535
  658MOL0     H88795   9.809   4.413   8.521 -0.1946  0.9264  0.2807
  658MOL0     H88796   9.912   4.677   8.909 -1.2674  0.4973 -0.9788
  658MOL0     H88797   9.862   4.510   8.954  0.8028 -0.9215 -0.1322
  658MOL0     H88798  10.111   4.564   8.802  0.2558 -1.3059 -0.9389
  658MOL0     H88799  10.088   4.545   8.970 -2.3944 -2.9566  1.9917
  658MOL0     H88800   9.948   4.320   8.879  2.1376 -0.8871  3.8204
  658MOL0     H88801  10.104   4.327   8.951  0.5651 -0.4971  0.0739
  658MOL0     H88802  10.039   4.365   8.655  1.4184  0.9354  0.3085
  658MOL0     H88803  10.194   4.327   8.730 -0.4298  1.7022  3.1432
  658MOL0     H88804   9.969   4.148   8.644  0.9257 -1.3701 -0.5451
  658MOL0     H88805  10.010   4.122   8.821  1.7530  1.5317  2.0278
  658MOL0     H88806  10.204   4.124   8.584  0.0453  1.0043  1.1412
  658MOL0     H88807  10.247   4.093   8.749 -0.6736 -0.6598 -0.1492
  658MOL0     H88808  10.049   3.916   8.591  0.2033 -0.3420  0.0777
  658MOL0     H88809  10.113   3.888   8.758  0.4810  0.3259  0.6195
  658MOL0     H88810  10.332   3.860   8.690  0.0539 -1.6093  1.5036
  658MOL0     H88811  10.311   3.892   8.525 -0.6141  1.4569 -1.5604
  658MOL0     H88812   9.913   4.792   8.713 -0.1335 -1.5373  1.2361
  658MOL0     H88813  10.001   4.879   8.487  0.2237  1.2875  1.7789
  658MOL0     H88814  10.031   5.053   8.223  2.1663 -3.5677  2.4631
  658MOL0     H88815  10.008   5.164   7.998 -0.4580  0.6007  2.1575
  658MOL0     H88816  10.125   5.313   6.064 -0.8313  0.3490  0.8152
  658MOL0     H88817  10.274   5.225   5.899 -0.3207  1.7991  1.2769
  658MOL0     H88818  10.343   5.040   5.422  2.6314  2.0917 -1.6521
  658MOL0     H88819  10.505   4.901   5.281  1.9703 -0.4707  0.4147
  658MOL0     H88820  10.796   4.664   5.220 -0.5111 -2.4925  3.3405
  658MOL0     H88821  10.636   4.727   5.175 -0.4659 -0.4912  0.2264
  658MOL0     H88822  10.729   4.958   5.281  0.4072  0.4286  3.0404
  658MOL0     H88823  10.830   4.887   5.145 -0.7592  0.1005 -0.1402
  658MOL0     H88824  10.974   4.792   5.355 -1.2350 -0.3056  1.9352
  658MOL0     H88825  10.845   4.851   5.457  2.1545 -4.5904  1.4641
  658MOL0     H88826  11.065   4.997   5.430  0.8770 -0.4032 -0.8636
  658MOL0     H88827  10.912   5.064   5.456  2.1993 -2.1086  2.4387
  658MOL0     H88828  11.049   5.232   5.081  1.0837 -0.4884 -0.5540
  658MOL0     H88829  10.629   4.678   5.621  1.5770  0.3568 -1.6933
  658MOL0     H88830  10.436   4.767   5.754  0.6136 -0.3112 -0.6864
  659MOL0     O88831   5.139   8.109  11.021 -1.1593  0.0362  0.6199
  659MOL0     C88832   5.153   8.001  10.970  0.5191 -0.3674  1.1039
  659MOL0     O88833   5.277   7.923  10.973  0.5256  0.1093  0.6846
  659MOL0     C88834   5.373   7.987  11.045 -0.2905  0.0685 -0.9483
  659MOL0     C88835   5.465   8.061  10.981 -0.6886  0.3413 -0.2692
  659MOL0     C88836   5.557   8.126  11.061 -0.3762  0.5336 -0.3897
  659MOL0     C88837   5.567   8.107  11.201  0.1484  0.2832  0.1708
  659MOL0     O88838   5.673   8.147  11.286  0.3084 -0.5873 -0.4988
  659MOL0     C88839   5.727   8.269  11.234 -0.1645  0.0569  0.0711
  659MOL0     C88840   5.860   8.243  11.166  0.4953 -0.0106  0.2577
  659MOL0     C88841   5.918   8.381  11.128 -1.3609 -0.6925 -0.6824
  659MOL0     C88842   6.072   8.373  11.103 -0.9071 -0.6941 -0.6558
  659MOL0     C88843   6.123   8.253  11.015 -0.2867  0.5718  0.4251
  659MOL0     C88844   6.278   8.258  10.987 -0.1303  0.8233 -1.0389
  659MOL0     C88845   6.348   8.130  11.049  0.7146 -1.1959  0.1179
  659MOL0     C88846   6.500   8.131  11.030 -0.9037 -0.2647 -0.3595
  659MOL0     N88847   6.550   8.109  10.897 -0.5046 -0.5769 -0.1973
  659MOL0     C88848   6.578   8.214  10.810 -0.8083 -0.1588 -0.5980
  659MOL0     C88849   6.676   8.175  10.735 -0.1885 -0.5857  0.2682
  659MOL0     C88850   6.761   8.255  10.642  0.0004  0.6760  0.0632
  659MOL0     C88851   6.668   8.303  10.536 -0.9236 -0.1912  0.2293
  659MOL0     C88852   6.715   8.378  10.414  0.0118  0.2382 -0.2437
  659MOL0     C88853   6.601   8.391  10.309 -0.3369  0.2465 -0.0179
  659MOL0     O88854   6.467   8.381  10.357 -0.0450 -0.1386 -0.2641
  659MOL0     C88855   6.415   8.481  10.433  0.0219  0.0137 -0.0403
  659MOL0     C88856   6.448   8.614  10.430  1.2028 -0.7247  0.3380
  659MOL0     C88857   6.392   8.709  10.522 -0.0183 -0.2795  0.2215
  659MOL0     C88858   6.431   8.850  10.515  0.3612 -0.1710 -0.2444
  659MOL0     C88859   6.288   8.678  10.616 -0.3381 -0.1247  0.0217
  659MOL0     C88860   6.212   8.766  10.709  0.9680 -0.2339  1.1784
  659MOL0     O88861   6.181   8.897  10.668  0.3444  0.1093 -0.3004
  659MOL0     C88862   6.101   8.966  10.760  0.2948  0.4705 -0.5184
  659MOL0     C88863   5.993   9.048  10.716  0.5063 -0.5643  0.8099
  659MOL0     C88864   5.922   9.135  10.802 -0.4801  0.2811  0.9262
  659MOL0     C88865   5.954   9.136  10.932  0.4110  0.1753 -0.2887
  659MOL0     O88866   5.867   9.215  11.004  0.3316  0.6754  0.0385
  659MOL0     C88867   5.871   9.219  11.140  0.1228  0.1186 -0.7933
  659MOL0     C88868   5.982   9.318  11.188  0.5975 -0.4476  0.3818
  659MOL0     C88869   5.947   9.380  11.326  0.1008  0.7451 -0.4718
  659MOL0     C88870   6.042   9.499  11.352  0.0488 -0.0734 -0.7872
  659MOL0     C88871   6.030   9.544  11.506  0.3848  0.0788 -0.2429
  659MOL0     C88872   6.172   9.552  11.576 -0.1370 -0.7163  0.2792
  659MOL0     C88873   6.190   9.670  11.673 -0.3383  0.0729 -0.5779
  659MOL0     C88874   6.321   9.652  11.748 -0.2402  0.4947 -0.9086
  659MOL0    Cl88875   6.313   9.507  11.859  0.0543  0.1015  0.3764
  659MOL0     C88876   6.066   9.065  10.980  0.3648  0.5274 -0.0482
  659MOL0     C88877   6.132   8.977  10.896  0.5367 -0.1170 -0.2341
  659MOL0     O88878   6.168   8.710  10.804 -0.7167  0.4265 -0.3972
  659MOL0     C88879   6.260   8.540  10.619  0.7080 -1.0514  0.5543
  659MOL0     C88880   6.319   8.445  10.523 -0.8958  0.2917 -0.1199
  659MOL0     N88881   6.694   8.043  10.765  0.8338  0.2956 -0.0732
  659MOL0     N88882   6.622   7.999  10.861 -0.4560 -0.2583 -0.4367
  659MOL0     C88883   5.479   8.012  11.254 -0.2914 -0.0512 -1.5551
  659MOL0     C88884   5.374   7.954  11.182 -0.2397  0.1382  1.0594
  659MOL0     C88885   5.050   7.931  10.894  0.6267  0.6783 -0.2262
  659MOL0     C88886   5.077   7.841  10.785 -0.4345  0.3129  0.1906
  659MOL0     C88887   4.978   7.753  10.745  0.0046  0.7627 -0.3544
  659MOL0     C88888   4.838   7.776  10.770 -0.2426 -0.2191  0.7537
  659MOL0     O88889   4.741   7.688  10.739  0.5127  0.7045  0.0954
  659MOL0     C88890   4.773   7.554  10.692  0.1554 -0.5682  0.2927
  659MOL0     C88891   4.761   7.539  10.537 -0.4055  0.5018  0.1757
  659MOL0     C88892   4.627   7.577  10.499  0.6990  0.2534  0.0920
  659MOL0     C88893   4.612   7.612  10.348  0.0830 -0.8426 -1.0772
  659MOL0     C88894   4.476   7.659  10.328  0.3457  0.6199  0.4036
  659MOL0     C88895   4.364   7.706  10.332  0.4230  0.2952 -0.7379
  659MOL0     C88896   4.807   7.884  10.856  0.1748 -0.7097  0.2563
  659MOL0     C88897   4.907   7.952  10.928  0.2309  0.5168 -0.3792
  659MOL0     H88898   5.442   8.075  10.876 -1.9407 -2.7424 -0.5152
  659MOL0     H88899   5.620   8.201  11.014  0.5181  0.6225  0.8969
  659MOL0     H88900   5.655   8.312  11.164 -1.7834 -1.1553  0.9146
  659MOL0     H88901   5.750   8.349  11.305  1.5916 -0.2462 -0.1048
  659MOL0     H88902   5.929   8.201  11.240  1.1869 -0.2880 -0.5355
  659MOL0     H88903   5.840   8.167  11.090  1.3108  1.4213 -1.4610
  659MOL0     H88904   5.861   8.425  11.046  0.7389  1.3436 -1.1424
  659MOL0     H88905   5.916   8.446  11.215  3.5695 -2.1738  0.8491
  659MOL0     H88906   6.108   8.467  11.061  0.9125 -1.5758 -1.1817
  659MOL0     H88907   6.123   8.361  11.199  1.3506  3.0963 -1.1955
  659MOL0     H88908   6.093   8.162  11.068  0.8153 -0.5056 -0.7406
  659MOL0     H88909   6.075   8.243  10.917 -0.1417 -3.5144  0.5944
  659MOL0     H88910   6.298   8.251  10.880 -0.2407  1.3789 -1.0992
  659MOL0     H88911   6.313   8.354  11.025 -0.5380 -0.0818  1.8825
  659MOL0     H88912   6.316   8.126  11.153 -0.9448 -0.3426 -0.3298
  659MOL0     H88913   6.304   8.046  10.995 -2.4399 -0.3134  1.1083
  659MOL0     H88914   6.535   8.043  11.085  0.7563  0.8240  0.4124
  659MOL0     H88915   6.545   8.220  11.077  1.5178 -1.5786 -0.0262
  659MOL0     H88916   6.543   8.316  10.805  1.8050  1.0445  2.4081
  659MOL0     H88917   6.802   8.337  10.701  2.8217  0.7767 -1.8565
  659MOL0     H88918   6.852   8.209  10.603 -0.6169  0.1172 -0.7506
  659MOL0     H88919   6.593   8.363  10.587 -2.8814 -0.0564 -2.6038
  659MOL0     H88920   6.620   8.214  10.493  1.2219  0.1658 -3.3504
  659MOL0     H88921   6.805   8.349  10.360 -0.1323  1.9271 -1.4635
  659MOL0     H88922   6.741   8.477  10.452  1.3875  0.2635 -1.1724
  659MOL0     H88923   6.600   8.300  10.248  0.6466  0.9503 -1.1123
  659MOL0     H88924   6.619   8.478  10.246 -2.0650  0.2392 -0.5918
  659MOL0     H88925   6.524   8.648  10.360 -0.2971  0.9595 -0.5595
  659MOL0     H88926   6.361   8.925  10.477  0.5352 -1.2482 -2.9051
  659MOL0     H88927   6.461   8.876  10.616 -1.2981  0.7939  0.0300
  659MOL0     H88928   6.520   8.862  10.452 -1.3021 -1.3554 -3.0578
  659MOL0     H88929   5.977   9.048  10.608  4.3650  0.4682  0.0797
  659MOL0     H88930   5.833   9.180  10.761 -0.3070  0.0178  0.2563
  659MOL0     H88931   5.775   9.258  11.175  0.3106  0.9786 -1.1989
  659MOL0     H88932   5.884   9.114  11.169 -2.3856  0.1192  0.6506
  659MOL0     H88933   6.083   9.277  11.184  0.2800 -1.4068  1.5841
  659MOL0     H88934   5.970   9.400  11.117  3.0753 -1.5226 -1.4262
  659MOL0     H88935   5.970   9.295  11.390  1.3787  1.1460 -0.3696
  659MOL0     H88936   5.843   9.409  11.343 -0.1430 -0.6016  0.4230
  659MOL0     H88937   6.146   9.474  11.330 -0.0523  0.2217 -1.6186
  659MOL0     H88938   6.007   9.577  11.284 -0.5695  0.2345 -0.1337
  659MOL0     H88939   5.971   9.473  11.565  1.8813 -3.2765 -2.4936
  659MOL0     H88940   5.980   9.640  11.521  0.6443 -0.2173  3.6691
  659MOL0     H88941   6.198   9.458  11.625  0.4940  0.0028  1.3786
  659MOL0     H88942   6.244   9.571  11.496  0.5920  3.3618  1.6677
  659MOL0     H88943   6.098   9.669  11.733 -0.9882 -0.9303 -1.5658
  659MOL0     H88944   6.186   9.765  11.618  2.3096 -0.0834 -1.1980
  659MOL0     H88945   6.350   9.742  11.802 -0.0763  2.1859 -3.6067
  659MOL0     H88946   6.415   9.632  11.696  0.3831 -0.7908  0.6304
  659MOL0     H88947   6.112   9.078  11.078  1.8541  2.5351 -0.9492
  659MOL0     H88948   6.229   8.938  10.926  1.0393  2.2788  1.5360
  659MOL0     H88949   6.184   8.506  10.688 -1.2616 -0.4143 -1.1983
  659MOL0     H88950   6.289   8.341  10.531  2.6582 -1.0306 -1.9251
  659MOL0     H88951   5.502   7.977  11.354 -1.0090 -1.4579 -1.8486
  659MOL0     H88952   5.297   7.891  11.225 -2.4538  2.2642  0.4440
  659MOL0     H88953   5.179   7.821  10.753 -0.4371  2.4802 -1.3376
  659MOL0     H88954   5.015   7.668  10.689  6.7250  2.0716  1.2267
  659MOL0     H88955   4.872   7.517  10.721 -0.5812 -2.0598  1.0355
  659MOL0     H88956   4.696   7.485  10.727 -1.8476  1.6939  0.5654
  659MOL0     H88957   4.787   7.441  10.496  1.2188  0.8157  0.4107
  659MOL0     H88958   4.823   7.601  10.472  0.0214 -1.6112 -1.5833
  659MOL0     H88959   4.587   7.662  10.554  1.2768  1.0180 -0.6478
  659MOL0     H88960   4.563   7.491  10.521  1.8820 -0.0425  2.6407
  659MOL0     H88961   4.617   7.519  10.291 -2.5510 -1.5972 -0.2378
  659MOL0     H88962   4.683   7.676  10.296  2.0397 -1.8715  0.1884
  659MOL0     H88963   4.262   7.738  10.338  0.8911  2.4985 -2.9261
  659MOL0     H88964   4.707   7.896  10.897  0.5046  1.0059  0.6290
  659MOL0     H88965   4.882   8.018  11.011  1.7593  1.9051 -0.9838
  660MOL0     O88966   0.770   4.865   7.201 -0.3589  0.7247  0.0680
  660MOL0     C88967   0.727   4.755   7.231  0.3337  0.1505  0.0574
  660MOL0     O88968   0.661   4.728   7.342 -0.3580  0.2868  0.4653
  660MOL0     C88969   0.625   4.817   7.440  0.0339  0.1704  0.3087
  660MOL0     C88970   0.647   4.951   7.443  0.0932  0.5035 -0.8904
  660MOL0     C88971   0.617   5.030   7.551  0.2424 -0.9860 -0.7471
  660MOL0     C88972   0.551   4.968   7.658 -0.5750 -0.0499  0.6234
  660MOL0     O88973   0.515   5.036   7.769  0.2600 -0.0620 -0.3844
  660MOL0     C88974   0.441   4.987   7.883  1.0806 -0.3790 -0.1713
  660MOL0     C88975   0.412   5.104   7.981  0.7375 -0.6759 -0.7387
  660MOL0     C88976   0.397   5.068   8.129  0.2357 -0.0943  0.4529
  660MOL0     C88977   0.336   5.186   8.214  0.3405  0.4154 -0.0620
  660MOL0     C88978   0.441   5.288   8.247  0.0924 -0.5014  0.1972
  660MOL0     C88979   0.379   5.424   8.291  0.8276 -0.3291  0.6102
  660MOL0     C88980   0.498   5.523   8.308  0.2286  0.1319  0.1227
  660MOL0     C88981   0.565   5.502   8.451 -0.2832 -0.6885 -0.8522
  660MOL0     N88982   0.692   5.586   8.449  0.3481 -0.6590 -1.5203
  660MOL0     C88983   0.762   5.635   8.339  0.6433 -1.2259 -0.5695
  660MOL0     C88984   0.894   5.622   8.363  0.4036 -0.6355 -0.0099
  660MOL0     C88985   1.013   5.662   8.273  0.1492 -0.2949 -0.1551
  660MOL0     C88986   1.064   5.803   8.312 -0.3550 -0.9487  0.4794
  660MOL0     C88987   1.188   5.846   8.244 -0.0556 -0.0933  0.8465
  660MOL0     C88988   1.311   5.760   8.280  0.2810  1.1241  0.9137
  660MOL0     O88989   1.438   5.824   8.250  0.6562  0.4936  0.4909
  660MOL0     C88990   1.555   5.776   8.296 -0.2670 -0.6136 -0.4365
  660MOL0     C88991   1.569   5.666   8.389  0.5205 -0.6750 -0.6126
  660MOL0     C88992   1.693   5.615   8.419  1.1068  0.6307  1.2249
  660MOL0     C88993   1.703   5.491   8.501  0.1210 -0.4076 -0.0575
  660MOL0     C88994   1.809   5.687   8.378  0.3589  0.1600 -0.8740
  660MOL0     C88995   1.944   5.638   8.386 -0.9090 -0.1224 -0.3232
  660MOL0     O88996   2.037   5.739   8.367 -0.2382 -0.0605  0.7281
  660MOL0     C88997   2.168   5.726   8.411 -0.7134  0.1218 -0.3932
  660MOL0     C88998   2.236   5.839   8.394  0.2365 -0.3730  0.6589
  660MOL0     C88999   2.366   5.849   8.438  0.1582  0.7606 -0.8128
  660MOL0     C89000   2.438   5.735   8.469 -0.1749 -0.7608 -0.6204
  660MOL0     O89001   2.571   5.757   8.501  0.3224  0.4493  0.7634
  660MOL0     C89002   2.651   5.654   8.556 -0.4990  0.0011  0.3822
  660MOL0     C89003   2.800   5.681   8.513 -0.9024  0.0338 -0.2863
  660MOL0     C89004   2.859   5.801   8.596 -0.5403  0.4758 -0.5623
  660MOL0     C89005   3.008   5.774   8.623 -0.9050 -0.2661 -0.7300
  660MOL0     C89006   3.098   5.873   8.544  0.2489 -0.3523 -0.2162
  660MOL0     C89007   3.105   6.006   8.611 -1.2601 -0.2492  0.4799
  660MOL0     C89008   3.242   6.087   8.600 -0.2435  0.3632 -0.4292
  660MOL0     C89009   3.254   6.200   8.495  1.3246  1.1215  0.1347
  660MOL0    Cl89010   3.125   6.319   8.512  0.1590 -0.6534 -0.3096
  660MOL0     C89011   2.363   5.612   8.491 -0.6598 -1.3254 -0.3328
  660MOL0     C89012   2.228   5.611   8.473 -0.4388  0.1494  0.3724
  660MOL0     O89013   1.965   5.517   8.389 -0.7827  0.4477  0.3571
  660MOL0     C89014   1.799   5.792   8.288  0.0106 -0.5435  0.1894
  660MOL0     C89015   1.672   5.844   8.262  0.0493  0.2544  0.6868
  660MOL0     N89016   0.896   5.590   8.498 -0.5525  0.6933  0.1941
  660MOL0     N89017   0.780   5.572   8.548  0.5076  0.0940 -0.0514
  660MOL0     C89018   0.521   4.827   7.652  0.4625 -0.3340 -0.2337
  660MOL0     C89019   0.555   4.754   7.537  0.0818 -0.4853 -0.1446
  660MOL0     C89020   0.759   4.635   7.147 -0.5688 -0.2013  0.5583
  660MOL0     C89021   0.712   4.507   7.174 -0.8592 -0.2565 -0.1592
  660MOL0     C89022   0.757   4.402   7.083  0.8377 -0.0639 -0.2917
  660MOL0     C89023   0.838   4.426   6.980 -0.9919  0.5162 -0.7459
  660MOL0     O89024   0.868   4.327   6.887  0.5548  0.0735 -0.7343
  660MOL0     C89025   0.926   4.211   6.954 -0.3141  0.2478 -0.7618
  660MOL0     C89026   1.067   4.234   7.008 -0.4834  0.0818  1.3781
  660MOL0     C89027   1.179   4.254   6.906  0.7774 -0.3695 -0.2107
  660MOL0     C89028   1.309   4.183   6.948 -0.4818  0.0373 -0.3996
  660MOL0     C89029   1.370   4.233   7.072 -0.3069  0.2198  0.7400
  660MOL0     C89030   1.426   4.264   7.175  0.3196 -0.3896  0.2843
  660MOL0     C89031   0.892   4.552   6.959  0.3010 -0.3245  0.0536
  660MOL0     C89032   0.851   4.658   7.040  0.4340 -0.7699 -0.4003
  660MOL0     H89033   0.678   5.010   7.357  0.2264 -1.9092 -2.6258
  660MOL0     H89034   0.652   5.132   7.549 -1.0964 -0.1900  3.7668
  660MOL0     H89035   0.343   4.952   7.849 -0.4905  4.5821 -1.5326
  660MOL0     H89036   0.503   4.916   7.938  0.7356 -0.3282  0.2986
  660MOL0     H89037   0.493   5.177   7.975 -0.9259  1.5360  1.5758
  660MOL0     H89038   0.324   5.158   7.946  1.1089  0.6225  0.2185
  660MOL0     H89039   0.323   4.987   8.131 -1.8234  1.6974  1.4444
  660MOL0     H89040   0.492   5.026   8.164  1.3461 -0.0500 -2.2677
  660MOL0     H89041   0.267   5.238   8.147 -0.8783 -1.0605 -0.0095
  660MOL0     H89042   0.276   5.144   8.295  0.5444 -0.8724 -0.5566
  660MOL0     H89043   0.500   5.248   8.331 -2.3776 -1.6624  1.5166
  660MOL0     H89044   0.525   5.297   8.177  0.6279 -1.6300  0.6466
  660MOL0     H89045   0.324   5.469   8.207 -0.2571 -1.6891  0.5554
  660MOL0     H89046   0.312   5.416   8.377  2.1046 -2.5950  1.4815
  660MOL0     H89047   0.564   5.504   8.223  2.1103 -0.2830  1.6028
  660MOL0     H89048   0.468   5.627   8.318  2.3625  0.5267  4.6058
  660MOL0     H89049   0.584   5.397   8.477 -3.5334 -0.9171  1.1869
  660MOL0     H89050   0.492   5.536   8.525  1.7210  2.4022 -0.1189
  660MOL0     H89051   0.737   5.678   8.242  0.5666  1.8946  0.7305
  660MOL0     H89052   1.095   5.591   8.287 -0.3788 -1.4310 -2.4077
  660MOL0     H89053   0.990   5.652   8.167 -1.3571 -0.0957  0.1363
  660MOL0     H89054   1.087   5.803   8.419  2.0743 -1.1407 -0.0040
  660MOL0     H89055   0.990   5.880   8.287  0.8503 -0.2681 -1.2247
  660MOL0     H89056   1.222   5.946   8.273 -2.5422  0.4362  2.2310
  660MOL0     H89057   1.161   5.845   8.138 -1.8542 -1.2013  1.2737
  660MOL0     H89058   1.304   5.667   8.223 -1.1333  1.4446  0.5035
  660MOL0     H89059   1.300   5.748   8.388  2.3730  1.1295  1.1728
  660MOL0     H89060   1.488   5.615   8.441  0.2517  0.1459 -0.2003
  660MOL0     H89061   1.676   5.406   8.437 -3.2252 -0.1103  0.7761
  660MOL0     H89062   1.793   5.465   8.557 -0.8743  2.5524  3.2933
  660MOL0     H89063   1.618   5.489   8.570  0.0054  0.4876 -0.1612
  660MOL0     H89064   2.196   5.928   8.347  1.4876  1.0230  2.1340
  660MOL0     H89065   2.430   5.935   8.424  0.4423  0.8503  0.7902
  660MOL0     H89066   2.648   5.659   8.665  1.4826 -0.9218  0.5272
  660MOL0     H89067   2.622   5.558   8.512  3.7390 -0.6344 -1.5117
  660MOL0     H89068   2.849   5.584   8.530 -2.4324 -0.3515  2.5246
  660MOL0     H89069   2.799   5.704   8.406 -1.2384 -0.5098 -0.4097
  660MOL0     H89070   2.813   5.802   8.696  1.9383 -0.8738  0.7056
  660MOL0     H89071   2.843   5.901   8.557 -0.5212  1.4312  1.6866
  660MOL0     H89072   3.026   5.773   8.731  0.1365 -0.4761 -0.9000
  660MOL0     H89073   3.041   5.674   8.592  1.3641 -0.9345  3.1136
  660MOL0     H89074   3.080   5.877   8.436  1.5519 -0.2582 -0.4422
  660MOL0     H89075   3.196   5.826   8.552 -0.6879 -2.0789  2.6249
  660MOL0     H89076   3.020   6.068   8.581 -1.1585  0.4312  1.5285
  660MOL0     H89077   3.093   5.981   8.717  1.5294  0.2380  0.9828
  660MOL0     H89078   3.323   6.017   8.580 -0.4147  0.1261 -0.2920
  660MOL0     H89079   3.261   6.135   8.696  0.6301  0.3157 -0.5706
  660MOL0     H89080   3.267   6.146   8.400  0.2373 -3.1836  2.1969
  660MOL0     H89081   3.348   6.256   8.506  1.1031  1.0097  3.5867
  660MOL0     H89082   2.413   5.519   8.518  2.8705  0.2644 -0.9009
  660MOL0     H89083   2.178   5.516   8.485  3.9964 -2.7046 -1.3839
  660MOL0     H89084   1.885   5.846   8.249  1.0504 -2.7831 -0.7815
  660MOL0     H89085   1.654   5.931   8.200  0.0556 -0.1018  0.1724
  660MOL0     H89086   0.461   4.780   7.729  2.9146  2.1378  3.5311
  660MOL0     H89087   0.533   4.648   7.528  1.9650 -0.8962 -0.3446
  660MOL0     H89088   0.653   4.499   7.264  0.9590 -0.4175  1.0859
  660MOL0     H89089   0.714   4.302   7.089  0.7644  0.0436  1.4103
  660MOL0     H89090   0.859   4.183   7.036 -1.9464  2.4673 -1.2275
  660MOL0     H89091   0.925   4.123   6.889  2.6067 -0.1608 -0.4002
  660MOL0     H89092   1.092   4.153   7.076 -1.9602  0.2020  2.1139
  660MOL0     H89093   1.069   4.331   7.059 -0.7919  1.7227 -1.5115
  660MOL0     H89094   1.200   4.360   6.888 -0.8299 -0.1218 -0.7182
  660MOL0     H89095   1.148   4.210   6.810  1.2562 -0.1024 -0.4936
  660MOL0     H89096   1.379   4.193   6.864 -1.1049 -2.4942 -1.3179
  660MOL0     H89097   1.286   4.077   6.957  2.0285 -0.6506 -1.0510
  660MOL0     H89098   1.475   4.293   7.267 -0.9240 -1.0793  1.1927
  660MOL0     H89099   0.958   4.579   6.877 -0.5527  1.3716 -0.1223
  660MOL0     H89100   0.880   4.761   7.023 -1.1407 -0.2229  0.0314
  661MOL0     O89101   1.196   1.204   7.725 -0.2322 -0.0558  0.6847
  661MOL0     C89102   1.290   1.188   7.647 -0.6016 -0.4929 -0.8543
  661MOL0     O89103   1.406   1.265   7.646  0.5918  0.1272  0.0137
  661MOL0     C89104   1.428   1.347   7.753  0.6093 -0.9033  0.2564
  661MOL0     C89105   1.384   1.481   7.758 -0.1496  0.2665 -0.0110
  661MOL0     C89106   1.419   1.559   7.865 -0.2110  0.0785  0.0361
  661MOL0     C89107   1.471   1.506   7.979  0.4808 -0.2244  0.7691
  661MOL0     O89108   1.497   1.554   8.106 -0.5271  0.1994 -0.1669
  661MOL0     C89109   1.458   1.691   8.132 -0.0405 -0.2052 -0.3155
  661MOL0     C89110   1.424   1.713   8.276  0.1839 -0.0545 -0.0042
  661MOL0     C89111   1.329   1.829   8.303  0.2063  0.1426  0.2528
  661MOL0     C89112   1.186   1.767   8.292  0.0824 -0.0718 -0.5017
  661MOL0     C89113   1.079   1.870   8.274 -0.5681 -0.5309 -0.5913
  661MOL0     C89114   1.065   1.964   8.388  0.1220 -0.1375  0.2883
  661MOL0     C89115   1.017   1.905   8.515 -0.3968  0.3536  0.1415
  661MOL0     C89116   1.042   2.012   8.619  0.1664 -0.8539 -0.2474
  661MOL0     N89117   1.188   2.035   8.652 -0.0475  0.7766  0.1124
  661MOL0     C89118   1.272   1.946   8.717 -1.0273 -0.2393 -0.0082
  661MOL0     C89119   1.393   2.012   8.711  0.1356 -0.6838  0.1861
  661MOL0     C89120   1.520   1.953   8.770  0.4068  0.3732 -0.2861
  661MOL0     C89121   1.567   2.024   8.890 -0.4535 -0.5647 -0.5112
  661MOL0     C89122   1.497   1.967   9.020 -0.0651  0.3893 -0.0402
  661MOL0     C89123   1.561   1.841   9.069 -0.1674  0.5701 -0.1022
  661MOL0     O89124   1.475   1.782   9.170 -0.2513 -0.1819 -0.1971
  661MOL0     C89125   1.387   1.675   9.144 -0.1888 -0.8999 -0.4231
  661MOL0     C89126   1.265   1.667   9.208  0.3672  0.0313 -0.1513
  661MOL0     C89127   1.170   1.570   9.178  0.3279 -0.0272 -0.6378
  661MOL0     C89128   1.036   1.562   9.254 -0.4929 -0.0129  1.1142
  661MOL0     C89129   1.204   1.467   9.075 -0.9495  0.3942 -0.4807
  661MOL0     C89130   1.110   1.376   9.016 -0.1639  0.4522  0.6621
  661MOL0     O89131   0.982   1.398   9.022 -0.3462  0.1434  0.6267
  661MOL0     C89132   0.902   1.281   9.016  0.2700  1.1982 -0.5842
  661MOL0     C89133   0.839   1.233   8.901  0.4895  0.4249  0.3790
  661MOL0     C89134   0.763   1.114   8.903 -0.5226  0.2087  0.1884
  661MOL0     C89135   0.751   1.044   9.023 -0.2216  1.3957  0.0299
  661MOL0     O89136   0.661   0.944   9.040  0.0882 -0.4547  0.8015
  661MOL0     C89137   0.540   0.975   9.113  0.3055 -0.0320  0.8835
  661MOL0     C89138   0.448   0.854   9.145 -0.1785  0.0801 -0.3693
  661MOL0     C89139   0.518   0.765   9.252 -0.0668 -0.1605  0.2127
  661MOL0     C89140   0.643   0.691   9.221 -0.1019 -0.1864 -0.2845
  661MOL0     C89141   0.686   0.615   9.347 -0.6152  0.8607 -1.6550
  661MOL0     C89142   0.826   0.554   9.327 -0.3383  0.5153 -0.8903
  661MOL0     C89143   0.864   0.481   9.463  0.0802 -0.5117  0.0470
  661MOL0     C89144   1.019   0.462   9.460  0.1781  0.7758 -1.2382
  661MOL0    Cl89145   1.069   0.381   9.315  0.0445  0.0852  0.0099
  661MOL0     C89146   0.789   1.112   9.141 -0.4344  0.6421  0.2031
  661MOL0     C89147   0.874   1.223   9.133 -0.4635  0.9296  0.6239
  661MOL0     O89148   1.167   1.274   8.979  0.0495  0.5842 -0.3396
  661MOL0     C89149   1.335   1.470   9.021  0.2101  0.3891 -0.3863
  661MOL0     C89150   1.420   1.571   9.061  0.0133  0.3625 -0.0164
  661MOL0     N89151   1.372   2.140   8.650  0.8111  1.1513  0.0638
  661MOL0     N89152   1.252   2.153   8.625  0.0427  0.4908 -0.5244
  661MOL0     C89153   1.514   1.374   7.971  0.0189  0.2839 -0.0411
  661MOL0     C89154   1.497   1.294   7.862  0.2817 -0.1877  0.6346
  661MOL0     C89155   1.287   1.073   7.561  0.7479 -0.4768  0.0968
  661MOL0     C89156   1.163   1.018   7.519  0.8481 -0.6750  0.7821
  661MOL0     C89157   1.160   0.917   7.424  0.1324  0.1293 -0.2241
  661MOL0     C89158   1.286   0.867   7.378  0.6531 -1.1332  1.1266
  661MOL0     O89159   1.276   0.777   7.268  0.2150  0.4362  0.0114
  661MOL0     C89160   1.211   0.818   7.146  0.1521 -0.3026  0.4382
  661MOL0     C89161   1.073   0.749   7.114  0.3971 -0.0942  0.0369
  661MOL0     C89162   1.101   0.600   7.084 -0.5989  0.4921  0.1349
  661MOL0     C89163   0.969   0.518   7.119 -0.7225 -0.5267 -0.6246
  661MOL0     C89164   0.864   0.532   7.018  0.2463  0.2891 -0.4321
  661MOL0     C89165   0.774   0.551   6.939  0.1327  0.3879  0.2903
  661MOL0     C89166   1.404   0.924   7.410 -0.2949 -0.1375 -0.0291
  661MOL0     C89167   1.407   1.027   7.505 -0.3631  1.5218  0.8163
  661MOL0     H89168   1.351   1.524   7.664  0.1915 -0.4475 -0.4621
  661MOL0     H89169   1.403   1.666   7.865  1.4042  0.3546 -0.1008
  661MOL0     H89170   1.536   1.764   8.111  0.5799 -0.3789  1.2280
  661MOL0     H89171   1.377   1.723   8.067  1.1923 -1.4278 -2.5631
  661MOL0     H89172   1.385   1.623   8.326 -0.9657  0.1513 -0.5109
  661MOL0     H89173   1.516   1.722   8.334 -0.6001 -3.6722  2.1599
  661MOL0     H89174   1.340   1.859   8.408 -1.2583  0.8589  0.2356
  661MOL0     H89175   1.347   1.919   8.243  1.3900 -1.0888 -1.3221
  661MOL0     H89176   1.173   1.698   8.209  1.3841 -3.2513  1.7383
  661MOL0     H89177   1.167   1.708   8.382 -0.3422 -1.0313 -1.1989
  661MOL0     H89178   1.097   1.926   8.182 -3.6037  3.0695  0.7255
  661MOL0     H89179   0.980   1.826   8.253 -0.9984  0.4481 -0.6588
  661MOL0     H89180   1.163   2.009   8.405  0.4779 -1.2016  1.2540
  661MOL0     H89181   0.993   2.040   8.358  0.1480  0.4333  1.5931
  661MOL0     H89182   0.910   1.881   8.520 -0.5101  0.7055 -0.5140
  661MOL0     H89183   1.071   1.814   8.543  0.4636  1.1691  1.2502
  661MOL0     H89184   0.995   1.973   8.710 -0.2446 -1.6737 -0.7982
  661MOL0     H89185   0.991   2.104   8.589  3.6239  0.7831 -1.7214
  661MOL0     H89186   1.252   1.846   8.755 -1.6488 -0.3569 -0.6420
  661MOL0     H89187   1.514   1.844   8.779 -0.0807  0.5650  2.8145
  661MOL0     H89188   1.602   1.978   8.701  2.9533 -0.2037  2.3310
  661MOL0     H89189   1.539   2.129   8.881  2.0559  0.0840 -1.7016
  661MOL0     H89190   1.676   2.012   8.897 -0.4631 -0.6054 -0.4315
  661MOL0     H89191   1.391   1.956   8.997  0.7909 -1.4434 -3.8568
  661MOL0     H89192   1.518   2.043   9.096 -3.5773 -0.1923  1.6761
  661MOL0     H89193   1.661   1.858   9.110 -1.2292  1.0905  2.4760
  661MOL0     H89194   1.568   1.772   8.985  3.8869 -1.6052  1.7394
  661MOL0     H89195   1.237   1.732   9.290 -1.8707 -0.0409 -0.8024
  661MOL0     H89196   1.033   1.459   9.292  0.1853 -1.1642 -1.6781
  661MOL0     H89197   1.046   1.630   9.339 -0.8896  1.2682  0.1587
  661MOL0     H89198   0.943   1.579   9.200 -1.2293 -4.6426  0.4811
  661MOL0     H89199   0.857   1.295   8.815 -0.9953  0.3607 -0.0120
  661MOL0     H89200   0.713   1.083   8.812 -1.0887 -0.2095  0.6400
  661MOL0     H89201   0.565   1.031   9.203  2.6889  3.4528 -1.6714
  661MOL0     H89202   0.488   1.050   9.053  1.2734  1.8993  2.3447
  661MOL0     H89203   0.351   0.885   9.183 -0.1839  0.6068 -0.8014
  661MOL0     H89204   0.434   0.787   9.059  1.3650  0.9514 -1.3665
  661MOL0     H89205   0.439   0.699   9.289 -0.5325 -1.0353 -2.1624
  661MOL0     H89206   0.536   0.840   9.329 -1.8174 -0.1047  0.6177
  661MOL0     H89207   0.618   0.618   9.144  2.1415  0.5469 -1.8140
  661MOL0     H89208   0.722   0.761   9.192  0.3228 -0.1419  0.9135
  661MOL0     H89209   0.606   0.542   9.364 -1.7460  2.1329 -1.3403
  661MOL0     H89210   0.695   0.690   9.426 -0.4169 -0.6918 -0.1381
  661MOL0     H89211   0.822   0.481   9.246 -0.2484 -2.7380  1.8198
  661MOL0     H89212   0.904   0.625   9.298  0.7185 -0.1475  0.1872
  661MOL0     H89213   0.812   0.386   9.481  1.8898 -1.2307  1.9998
  661MOL0     H89214   0.830   0.545   9.545 -0.1754  2.1726 -2.0061
  661MOL0     H89215   1.060   0.405   9.544 -0.0531  0.1197 -1.5635
  661MOL0     H89216   1.074   0.556   9.468 -0.1991  0.8288  3.9681
  661MOL0     H89217   0.777   1.066   9.239 -1.0306 -1.9972 -1.0397
  661MOL0     H89218   0.925   1.258   9.221 -0.7295 -0.1595  1.2323
  661MOL0     H89219   1.366   1.417   8.932 -1.0930 -1.8880  0.3965
  661MOL0     H89220   1.509   1.573   8.998 -0.4061 -0.0631 -0.6358
  661MOL0     H89221   1.574   1.335   8.052  1.7837 -1.8065 -2.2082
  661MOL0     H89222   1.536   1.194   7.850  2.3916  0.6265  0.2710
  661MOL0     H89223   1.073   1.069   7.553  0.8218  1.9097 -2.5837
  661MOL0     H89224   1.066   0.881   7.385 -0.1979  0.8686 -0.1306
  661MOL0     H89225   1.218   0.927   7.140  4.0455 -0.4844 -0.9772
  661MOL0     H89226   1.285   0.798   7.068 -0.9725 -0.1134 -0.7207
  661MOL0     H89227   1.026   0.798   7.029  4.3356  1.2038 -1.6076
  661MOL0     H89228   1.011   0.766   7.203  3.6219 -0.1704  2.4888
  661MOL0     H89229   1.182   0.565   7.149 -0.0039  1.5371 -0.0176
  661MOL0     H89230   1.138   0.587   6.982 -0.6638 -2.4266  0.3821
  661MOL0     H89231   0.924   0.561   7.210  4.1544  1.4425  1.1675
  661MOL0     H89232   0.985   0.411   7.140 -0.7658 -0.7806 -1.8310
  661MOL0     H89233   0.694   0.579   6.874  1.6162  2.1536 -0.8852
  661MOL0     H89234   1.499   0.900   7.362  0.0981 -0.8847  1.0937
  661MOL0     H89235   1.502   1.043   7.555  0.9253 -1.8050 -0.2598
  662MOL0     O89236   3.780   0.942   3.361  0.3666 -0.0333 -0.1715
  662MOL0     C89237   3.759   1.034   3.278 -0.5796 -0.7401 -1.0546
  662MOL0     O89238   3.682   1.025   3.168  0.5061 -0.0758  0.0867
  662MOL0     C89239   3.614   0.906   3.154 -0.9160  0.5931  0.9994
  662MOL0     C89240   3.495   0.888   3.220  0.1457  0.1165 -0.5851
  662MOL0     C89241   3.426   0.766   3.228  0.3326  0.3819 -0.1069
  662MOL0     C89242   3.471   0.653   3.152  0.1172  0.6395  0.1878
  662MOL0     O89243   3.403   0.534   3.121 -0.7289 -0.4170  0.1643
  662MOL0     C89244   3.281   0.518   3.209  0.3899 -0.1759 -0.3744
  662MOL0     C89245   3.194   0.397   3.174  0.4181 -0.3804 -0.8756
  662MOL0     C89246   3.241   0.253   3.221 -0.8250 -0.4011  0.1544
  662MOL0     C89247   3.189   0.142   3.130 -0.1023  0.0323 -0.4110
  662MOL0     C89248   3.234   0.156   2.980 -0.4740 -0.6626  0.2632
  662MOL0     C89249   3.384   0.173   2.959 -0.0736 -1.3515  0.3308
  662MOL0     C89250   3.422   0.114   2.822  1.7919  0.6366  0.0388
  662MOL0     C89251   3.473  -0.038   2.839  1.5089  0.3028  0.2810
  662MOL0     N89252   3.472  -0.104   2.704 -0.5136  1.0434 -0.1357
  662MOL0     C89253   3.582  -0.166   2.654 -0.0814 -0.3454 -0.1912
  662MOL0     C89254   3.538  -0.224   2.543 -0.7277 -0.7282 -1.5594
  662MOL0     C89255   3.618  -0.293   2.445  0.0305  1.0086 -0.5430
  662MOL0     C89256   3.719  -0.193   2.387  1.2407  0.6293  0.4880
  662MOL0     C89257   3.654  -0.073   2.325  0.3236  0.0532 -0.2912
  662MOL0     C89258   3.539  -0.100   2.228  0.1767 -0.3853 -0.8840
  662MOL0     O89259   3.584  -0.107   2.090 -0.0862 -0.3322  0.3938
  662MOL0     C89260   3.609   0.006   2.006 -0.4709  0.6376  0.9731
  662MOL0     C89261   3.685  -0.011   1.892 -0.9203 -0.2757  0.0142
  662MOL0     C89262   3.727   0.096   1.807  0.4226 -0.1249  0.1183
  662MOL0     C89263   3.804   0.066   1.680 -1.2102  0.4349  0.7231
  662MOL0     C89264   3.673   0.227   1.829 -0.0617 -0.6823  0.9492
  662MOL0     C89265   3.691   0.331   1.727  0.8507 -0.0106 -0.3285
  662MOL0     O89266   3.694   0.454   1.780  1.2397  0.6270  0.7155
  662MOL0     C89267   3.722   0.556   1.687  0.7690 -0.3792 -0.4081
  662MOL0     C89268   3.629   0.602   1.595 -0.5848  0.2242 -0.2275
  662MOL0     C89269   3.651   0.711   1.514  0.0834  0.2875 -0.2059
  662MOL0     C89270   3.766   0.785   1.527 -0.3716  0.6526  0.1609
  662MOL0     O89271   3.787   0.885   1.431  0.8352 -0.5645 -0.3524
  662MOL0     C89272   3.913   0.960   1.413  0.1313 -0.1459 -1.1583
  662MOL0     C89273   3.911   1.050   1.291 -0.3982  0.6320  0.7252
  662MOL0     C89274   3.923   0.960   1.169 -0.9413  0.0904  0.2867
  662MOL0     C89275   3.913   1.051   1.044 -0.3479  0.3213  0.6613
  662MOL0     C89276   3.899   0.979   0.913 -0.4471  0.4765 -1.5082
  662MOL0     C89277   3.892   1.081   0.791 -0.7068  0.4976 -0.2360
  662MOL0     C89278   3.913   1.003   0.653  1.0796  1.1178 -0.1984
  662MOL0     C89279   3.840   1.062   0.535 -0.0214  0.0611 -0.0421
  662MOL0    Cl89280   3.666   1.064   0.565  0.1312  0.2408  0.1165
  662MOL0     C89281   3.863   0.749   1.625  0.4480 -0.1348 -0.1133
  662MOL0     C89282   3.836   0.631   1.703 -0.4427  0.0179 -0.4995
  662MOL0     O89283   3.667   0.301   1.610 -0.3461 -0.3938 -0.4980
  662MOL0     C89284   3.598   0.251   1.948  0.7113  0.7834  0.9389
  662MOL0     C89285   3.570   0.137   2.038 -0.0570 -0.3120  1.0911
  662MOL0     N89286   3.410  -0.196   2.531  1.0211  0.1776  0.2470
  662MOL0     N89287   3.364  -0.115   2.618 -0.7887  0.3883  0.2663
  662MOL0     C89288   3.599   0.672   3.087 -0.5662 -0.0440 -0.3536
  662MOL0     C89289   3.666   0.797   3.087 -0.6060  0.0523  0.6287
  662MOL0     C89290   3.810   1.177   3.299  0.7317  0.4312 -0.4113
  662MOL0     C89291   3.816   1.239   3.428  0.1851 -0.6431  0.7023
  662MOL0     C89292   3.878   1.364   3.448 -0.3193  0.5245 -0.1561
  662MOL0     C89293   3.936   1.432   3.349  0.1719 -0.8628  0.2625
  662MOL0     O89294   3.968   1.558   3.380 -0.0139  0.4956 -0.0151
  662MOL0     C89295   4.101   1.589   3.351  0.0392 -0.1223  0.2810
  662MOL0     C89296   4.195   1.542   3.448  0.2657 -0.3072 -0.7574
  662MOL0     C89297   4.324   1.605   3.407 -0.3920  0.7959  0.0659
  662MOL0     C89298   4.439   1.567   3.496  0.3462  0.8935  1.4973
  662MOL0     C89299   4.562   1.627   3.444 -0.2311  0.3654 -0.6008
  662MOL0     C89300   4.649   1.701   3.415  0.1077  0.2156 -0.4651
  662MOL0     C89301   3.920   1.381   3.211 -0.5849  0.4499 -0.6633
  662MOL0     C89302   3.860   1.250   3.191 -0.4248 -0.3094 -0.7767
  662MOL0     H89303   3.453   0.969   3.279 -2.1375  1.2700 -3.5221
  662MOL0     H89304   3.340   0.765   3.294 -0.8417  1.1266 -1.5641
  662MOL0     H89305   3.316   0.518   3.313 -0.9839  1.5858  0.1236
  662MOL0     H89306   3.214   0.602   3.189  0.2567  0.0254  0.8037
  662MOL0     H89307   3.095   0.404   3.220 -0.2242 -1.2553 -2.0709
  662MOL0     H89308   3.177   0.393   3.067 -1.5736  1.1643 -0.6646
  662MOL0     H89309   3.350   0.262   3.216 -0.7572 -0.9976  0.5704
  662MOL0     H89310   3.222   0.226   3.325  0.6130 -0.9246  0.2925
  662MOL0     H89311   3.232   0.052   3.175 -0.7232  0.5925  1.3929
  662MOL0     H89312   3.080   0.135   3.138  0.0335  0.2241  3.7496
  662MOL0     H89313   3.210   0.054   2.949 -2.8696 -0.7637  2.0942
  662MOL0     H89314   3.173   0.231   2.929  0.2207 -0.2005  0.1099
  662MOL0     H89315   3.409   0.279   2.960 -1.4621 -0.9542 -1.4518
  662MOL0     H89316   3.443   0.122   3.035  0.7733 -0.1463  0.5033
  662MOL0     H89317   3.335   0.121   2.755  0.1803 -1.2735  1.7773
  662MOL0     H89318   3.503   0.164   2.769  0.2857  2.6809 -0.4648
  662MOL0     H89319   3.395  -0.081   2.903 -1.3953  0.9954 -2.4995
  662MOL0     H89320   3.569  -0.039   2.891  1.6748  0.9102 -0.0020
  662MOL0     H89321   3.681  -0.152   2.696  0.4808 -1.6995 -1.0161
  662MOL0     H89322   3.656  -0.370   2.512 -3.0568  0.5863  0.9435
  662MOL0     H89323   3.552  -0.333   2.367 -0.0708  3.0737 -1.5676
  662MOL0     H89324   3.774  -0.239   2.304 -3.2396 -1.1765 -1.8146
  662MOL0     H89325   3.794  -0.161   2.459  0.6263  1.8271  0.6274
  662MOL0     H89326   3.727  -0.012   2.272  0.5183 -2.2951 -2.9219
  662MOL0     H89327   3.601  -0.012   2.400 -0.2932 -0.2260 -0.4947
  662MOL0     H89328   3.457  -0.028   2.241  0.5762 -0.0570 -0.1278
  662MOL0     H89329   3.497  -0.200   2.246 -0.3068 -0.0674 -0.2148
  662MOL0     H89330   3.705  -0.117   1.877 -1.4323 -0.3639 -0.0733
  662MOL0     H89331   3.899   0.120   1.677  0.1279 -1.7806  0.7268
  662MOL0     H89332   3.831  -0.039   1.692 -1.7692  0.2766  0.6258
  662MOL0     H89333   3.747   0.072   1.587 -1.6553  1.3487  1.0400
  662MOL0     H89334   3.536   0.546   1.590 -0.7194  0.5489 -2.0235
  662MOL0     H89335   3.586   0.733   1.430  0.8228 -1.7972 -1.3832
  662MOL0     H89336   3.933   1.024   1.499 -0.7047 -2.7676  1.1302
  662MOL0     H89337   3.999   0.894   1.403  0.6397  0.5539 -1.5286
  662MOL0     H89338   3.812   1.096   1.294 -0.3983  0.6549  0.3365
  662MOL0     H89339   3.999   1.116   1.292  0.2885  0.5621 -6.2118
  662MOL0     H89340   3.854   0.876   1.161 -0.7402  0.0875 -2.1834
  662MOL0     H89341   4.021   0.912   1.170 -0.8124  0.3397 -0.1461
  662MOL0     H89342   3.824   1.114   1.057 -0.0716  1.1427 -1.0761
  662MOL0     H89343   4.006   1.108   1.038  1.7108 -2.7895  0.7324
  662MOL0     H89344   3.801   0.933   0.905 -1.5805  2.5932 -0.5036
  662MOL0     H89345   3.973   0.898   0.903  0.1879  1.0308 -1.3788
  662MOL0     H89346   3.797   1.137   0.794 -2.6293 -2.4825 -1.2042
  662MOL0     H89347   3.974   1.151   0.811 -0.4285  0.2110 -0.3643
  662MOL0     H89348   3.869   0.903   0.667  1.4606  0.9759 -0.0010
  662MOL0     H89349   4.019   0.989   0.634  0.9220  0.0976 -0.4041
  662MOL0     H89350   3.861   1.005   0.443 -1.3404  0.8135 -0.8465
  662MOL0     H89351   3.890   1.158   0.529  3.4957 -1.3568  2.9248
  662MOL0     H89352   3.952   0.805   1.652 -0.7421  1.5505  0.5037
  662MOL0     H89353   3.896   0.605   1.790  0.3257  0.0099 -1.0250
  662MOL0     H89354   3.554   0.349   1.964  1.2366  1.4364 -1.3068
  662MOL0     H89355   3.509   0.163   2.124 -2.6007  0.4808 -0.8395
  662MOL0     H89356   3.654   0.589   3.044 -4.7506 -2.6876 -1.1771
  662MOL0     H89357   3.755   0.816   3.029 -0.2029  0.6871  1.4301
  662MOL0     H89358   3.774   1.187   3.513  2.0403 -0.4232  1.8115
  662MOL0     H89359   3.895   1.410   3.545 -1.1164  0.9501 -0.2191
  662MOL0     H89360   4.129   1.555   3.251  1.3239  0.0570  0.5568
  662MOL0     H89361   4.112   1.698   3.347 -0.7248 -0.0754 -2.0672
  662MOL0     H89362   4.203   1.433   3.452  1.5194 -0.2095  0.0633
  662MOL0     H89363   4.169   1.580   3.547  3.4153  3.2126 -1.0584
  662MOL0     H89364   4.306   1.713   3.413  1.6178  1.4685 -3.3166
  662MOL0     H89365   4.351   1.582   3.303 -1.9231 -2.9425  0.3586
  662MOL0     H89366   4.459   1.459   3.500 -2.0504  0.3668  1.1446
  662MOL0     H89367   4.425   1.603   3.598 -1.0983  3.7098  0.4287
  662MOL0     H89368   4.738   1.751   3.381 -0.9995  1.5411 -1.5265
  662MOL0     H89369   3.952   1.439   3.124  2.3944 -1.3151 -0.8857
  662MOL0     H89370   3.856   1.207   3.092 -0.1853 -0.3998 -0.7469
  663MOL0     O89371   4.129   9.042   5.655  0.3334  0.4566 -0.2424
  663MOL0     C89372   4.204   9.009   5.562 -0.6202  0.0419  0.1372
  663MOL0     O89373   4.253   9.086   5.462 -0.2418  0.3846 -0.6220
  663MOL0     C89374   4.199   9.209   5.453  0.4833  0.2129  0.3271
  663MOL0     C89375   4.089   9.236   5.369  0.0598  0.2280 -0.1200
  663MOL0     C89376   4.057   9.371   5.339 -0.3950  0.3785 -0.6260
  663MOL0     C89377   4.129   9.486   5.396  0.2218  0.5840  0.0414
  663MOL0     O89378   4.084   9.613   5.371 -1.0277  0.6653  0.0251
  663MOL0     C89379   4.146   9.717   5.452  0.1054 -0.2761  0.6544
  663MOL0     C89380   4.051   9.838   5.459  0.4643  0.3857 -0.1416
  663MOL0     C89381   3.929   9.792   5.550  0.4281 -0.5547 -0.2651
  663MOL0     C89382   3.841   9.917   5.581 -0.3766 -0.1403 -0.9995
  663MOL0     C89383   3.714   9.888   5.669  0.5258  0.2556 -0.1971
  663MOL0     C89384   3.720   9.794   5.784 -0.1517 -0.0183  0.2798
  663MOL0     C89385   3.595   9.801   5.878 -0.0632 -0.7006 -0.2411
  663MOL0     C89386   3.568   9.673   5.957  0.1041 -0.2877  0.1420
  663MOL0     N89387   3.629   9.670   6.090  0.4294  0.7782 -0.3780
  663MOL0     C89388   3.547   9.678   6.208 -0.3543  0.8158  0.0073
  663MOL0     C89389   3.646   9.656   6.299  0.4616 -0.5807 -0.4775
  663MOL0     C89390   3.623   9.618   6.443 -0.6433  0.4123 -0.2462
  663MOL0     C89391   3.582   9.724   6.535  0.6609 -0.5826 -0.1146
  663MOL0     C89392   3.652   9.864   6.513 -0.8548 -1.3540 -0.2283
  663MOL0     C89393   3.642   9.955   6.634 -0.2625 -0.2871  0.6652
  663MOL0     O89394   3.498   9.964   6.681 -1.2115  0.4691  0.5931
  663MOL0     C89395   3.491  10.013   6.806  0.6208 -0.5357 -0.2359
  663MOL0     C89396   3.379   9.988   6.886  0.1729  0.3695 -0.2343
  663MOL0     C89397   3.362  10.036   7.027 -0.1513  0.0093  0.7423
  663MOL0     C89398   3.243   9.982   7.106  0.7248 -0.0194  0.3285
  663MOL0     C89399   3.471  10.108   7.084 -0.0687  0.5073  1.1749
  663MOL0     C89400   3.460  10.186   7.218  0.1909  0.2850 -0.2859
  663MOL0     O89401   3.568  10.255   7.268  0.2710 -0.2487 -0.3857
  663MOL0     C89402   3.573  10.301   7.400 -0.0032 -0.2333  0.7369
  663MOL0     C89403   3.623  10.217   7.498  0.7788  0.2691  0.0037
  663MOL0     C89404   3.642  10.262   7.626  0.3233 -0.4000 -0.3559
  663MOL0     C89405   3.607  10.397   7.662 -0.6576  0.3650  0.9460
  663MOL0     O89406   3.608  10.441   7.791 -0.4655  0.5195 -0.5775
  663MOL0     C89407   3.635  10.355   7.901  0.8752  0.0919 -0.4583
  663MOL0     C89408   3.665  10.443   8.022  0.5871  0.2057  0.3001
  663MOL0     C89409   3.544  10.522   8.065  0.3864 -0.1407 -0.4665
  663MOL0     C89410   3.590  10.633   8.163 -0.5771  0.3377 -0.6986
  663MOL0     C89411   3.477  10.730   8.214  0.5245 -0.3358  0.1348
  663MOL0     C89412   3.526  10.841   8.305  0.2565 -0.1253 -0.7750
  663MOL0     C89413   3.422  10.955   8.312 -1.2816  0.0604 -0.1608
  663MOL0     C89414   3.427  11.031   8.178  1.2545 -0.2545 -1.0019
  663MOL0    Cl89415   3.334  11.193   8.200 -0.3357 -0.2315  0.0695
  663MOL0     C89416   3.565  10.480   7.557  1.1353  0.0860  0.3450
  663MOL0     C89417   3.546  10.442   7.425  0.8454 -0.0708  0.6212
  663MOL0     O89418   3.350  10.183   7.287 -0.7289  0.4557  0.1224
  663MOL0     C89419   3.581  10.144   7.001 -0.3269 -0.5408 -0.0103
  663MOL0     C89420   3.582  10.102   6.863  0.9616  0.5474 -0.7124
  663MOL0     N89421   3.776   9.655   6.247 -0.1526 -0.5971 -1.4084
  663MOL0     N89422   3.755   9.658   6.118 -0.4081 -0.1845  0.2178
  663MOL0     C89423   4.242   9.452   5.472 -0.3445  0.2124  0.1846
  663MOL0     C89424   4.267   9.316   5.504 -0.1855  0.9078  0.3700
  663MOL0     C89425   4.245   8.863   5.555  1.1456 -0.1766 -0.4900
  663MOL0     C89426   4.271   8.788   5.436  0.5052 -0.1857 -0.3597
  663MOL0     C89427   4.319   8.659   5.442  0.2649  0.6085  0.4169
  663MOL0     C89428   4.330   8.586   5.565 -0.1704  0.0601  0.4961
  663MOL0     O89429   4.383   8.454   5.553 -0.1771 -0.2907  0.3219
  663MOL0     C89430   4.404   8.389   5.679 -0.6334 -0.0325 -0.0901
  663MOL0     C89431   4.480   8.260   5.651  0.4470  1.2459  0.3556
  663MOL0     C89432   4.460   8.154   5.762  0.1868  0.1607 -0.0906
  663MOL0     C89433   4.553   8.030   5.722 -0.8699 -0.8050  0.6829
  663MOL0     C89434   4.570   7.930   5.828 -0.4640  0.0993 -0.5825
  663MOL0     C89435   4.586   7.845   5.913 -0.4872  0.1847 -0.0247
  663MOL0     C89436   4.282   8.657   5.683  0.7687  0.0409  0.1105
  663MOL0     C89437   4.252   8.793   5.678  0.1737  0.2306  0.8083
  663MOL0     H89438   4.039   9.156   5.316  0.3472  0.5418 -0.8669
  663MOL0     H89439   3.965   9.384   5.283  1.6631  0.0386 -4.4103
  663MOL0     H89440   4.178   9.688   5.553  1.3958 -0.8822  0.1075
  663MOL0     H89441   4.235   9.757   5.403  0.1952  2.5532  2.8660
  663MOL0     H89442   4.101   9.920   5.512 -3.2814  2.2264  0.8469
  663MOL0     H89443   4.024   9.874   5.360  1.8603 -2.6653 -1.7814
  663MOL0     H89444   3.869   9.715   5.501 -3.1585  2.6415 -1.3732
  663MOL0     H89445   3.963   9.748   5.644  1.7755 -0.0673 -0.5002
  663MOL0     H89446   3.903   9.992   5.632 -0.6564 -2.0024  2.3197
  663MOL0     H89447   3.793   9.957   5.491 -2.6047 -0.2566  0.0927
  663MOL0     H89448   3.672   9.981   5.707 -3.1921 -1.2156 -0.2231
  663MOL0     H89449   3.650   9.823   5.608  4.0409 -1.6105 -2.2365
  663MOL0     H89450   3.722   9.695   5.738 -1.4002 -0.1333  0.4283
  663MOL0     H89451   3.811   9.815   5.840  0.6375 -0.0808 -0.9356
  663MOL0     H89452   3.595   9.895   5.933 -0.6792  0.7269 -2.5479
  663MOL0     H89453   3.507   9.809   5.814  0.1793  0.1913 -0.4736
  663MOL0     H89454   3.601   9.587   5.899  1.1558 -1.0965  1.8515
  663MOL0     H89455   3.459   9.682   5.969  0.1433  2.9938 -1.0388
  663MOL0     H89456   3.440   9.687   6.224 -0.7981 -2.9887  0.0873
  663MOL0     H89457   3.541   9.545   6.448  1.9349 -2.7764 -1.1191
  663MOL0     H89458   3.709   9.559   6.475 -0.3223  0.4095 -1.0737
  663MOL0     H89459   3.589   9.701   6.642 -1.4266  0.0021  0.2004
  663MOL0     H89460   3.475   9.740   6.523  1.1072  1.6818 -1.5318
  663MOL0     H89461   3.608   9.906   6.422 -1.9338  1.9770  1.6453
  663MOL0     H89462   3.759   9.848   6.493 -0.2495  0.4616  1.3249
  663MOL0     H89463   3.679  10.054   6.608  0.7465 -1.0732 -1.0658
  663MOL0     H89464   3.697   9.904   6.714  0.8193 -0.3773 -0.1113
  663MOL0     H89465   3.291   9.928   6.863  0.5729 -2.0754  3.6706
  663MOL0     H89466   3.185  10.065   7.148  0.0190 -0.6940  0.7134
  663MOL0     H89467   3.174   9.924   7.043 -0.4229  4.2357 -2.8322
  663MOL0     H89468   3.286   9.924   7.189 -0.3930  0.5670  1.3452
  663MOL0     H89469   3.663  10.126   7.455  1.2366 -0.0436  1.0408
  663MOL0     H89470   3.688  10.199   7.701 -1.0323  1.1819  1.9289
  663MOL0     H89471   3.552  10.287   7.923  2.2023 -0.7605  2.4772
  663MOL0     H89472   3.718  10.293   7.867  0.1923  0.7967 -3.7677
  663MOL0     H89473   3.680  10.372   8.103  0.0945  1.4699  1.5356
  663MOL0     H89474   3.748  10.512   8.004  0.3238  0.7099  0.9666
  663MOL0     H89475   3.473  10.451   8.109  1.3785 -2.1719 -1.9703
  663MOL0     H89476   3.487  10.574   7.988 -3.0976 -1.1021  1.2394
  663MOL0     H89477   3.628  10.582   8.252  1.7163  1.2113 -1.1090
  663MOL0     H89478   3.675  10.686   8.121 -1.1271  1.6249 -0.2541
  663MOL0     H89479   3.399  10.668   8.258 -1.0046  0.3453 -1.5093
  663MOL0     H89480   3.441  10.775   8.121 -1.6833  1.0377  1.5562
  663MOL0     H89481   3.539  10.812   8.410 -0.1548  0.0808 -0.6619
  663MOL0     H89482   3.626  10.879   8.285  0.9119 -1.3840  0.0278
  663MOL0     H89483   3.443  11.035   8.383  1.7848 -1.4668  0.8355
  663MOL0     H89484   3.320  10.916   8.311 -1.6977  1.0602 -1.8395
  663MOL0     H89485   3.386  10.967   8.099  1.9454 -2.0917  0.0522
  663MOL0     H89486   3.530  11.044   8.142  2.2279  2.5835  2.2962
  663MOL0     H89487   3.539  10.583   7.580 -0.4971 -0.5476  1.5626
  663MOL0     H89488   3.513  10.521   7.358  0.8537  0.1447  0.8688
  663MOL0     H89489   3.661  10.205   7.041 -0.1477  0.4515 -1.7863
  663MOL0     H89490   3.662  10.140   6.800  2.8562 -1.5134  0.3072
  663MOL0     H89491   4.302   9.527   5.522 -0.3622  0.3732 -0.0322
  663MOL0     H89492   4.346   9.295   5.575  0.7495 -0.6712 -1.0658
  663MOL0     H89493   4.250   8.837   5.341 -1.5137  2.6173  1.4043
  663MOL0     H89494   4.348   8.592   5.361  0.3628 -0.5533  1.3778
  663MOL0     H89495   4.445   8.448   5.762  0.2129 -0.0040 -0.5184
  663MOL0     H89496   4.305   8.354   5.708 -1.7293  0.0606 -3.3103
  663MOL0     H89497   4.587   8.281   5.652  0.9380 -0.8868 -1.2341
  663MOL0     H89498   4.457   8.224   5.551  1.0115  0.9863  0.3172
  663MOL0     H89499   4.363   8.113   5.791  0.5571 -0.0061  0.9527
  663MOL0     H89500   4.512   8.203   5.845  2.0646 -0.0567 -1.1029
  663MOL0     H89501   4.651   8.066   5.687 -0.9985 -2.5409 -1.7196
  663MOL0     H89502   4.524   7.969   5.636  1.1124 -1.8173  0.6585
  663MOL0     H89503   4.613   7.784   5.997 -2.2555  0.8394  1.0736
  663MOL0     H89504   4.290   8.609   5.781 -0.3841  0.5677  0.4755
  663MOL0     H89505   4.228   8.847   5.768  1.0322 -3.0036  3.1528
  664MOL0     O89506   1.418   0.343  10.361 -0.3405 -0.7688 -0.5202
  664MOL0     C89507   1.444   0.422  10.265 -0.2554  0.0695  0.6015
  664MOL0     O89508   1.358   0.485  10.186 -0.1798  0.7183 -0.2922
  664MOL0     C89509   1.220   0.457  10.200  0.1034 -0.5762 -0.4965
  664MOL0     C89510   1.155   0.337  10.152  0.5014  0.3758 -0.6425
  664MOL0     C89511   1.021   0.313  10.186 -0.5527  0.5615  0.8379
  664MOL0     C89512   0.954   0.402  10.267  0.2643 -0.0885  0.9730
  664MOL0     O89513   0.823   0.376  10.310 -0.1398  0.1187  0.3085
  664MOL0     C89514   0.727   0.338  10.212  0.1558 -0.1993 -0.1933
  664MOL0     C89515   0.585   0.355  10.267 -0.4463 -0.5888  0.4736
  664MOL0     C89516   0.477   0.341  10.150 -0.2943 -0.0044 -0.1555
  664MOL0     C89517   0.340   0.325  10.210  0.2848 -0.5869 -1.0172
  664MOL0     C89518   0.257   0.277  10.095 -0.1359 -0.0408  0.1783
  664MOL0     C89519   0.123   0.227  10.148  1.0741  0.0892  0.3318
  664MOL0     C89520   0.022   0.210  10.025  0.5793  0.0958  0.0723
  664MOL0     C89521   0.060   0.097   9.935 -0.0014  0.9402  0.0540
  664MOL0     N89522   0.049  -0.031  10.006  0.5828 -0.5636 -0.6165
  664MOL0     C89523  -0.052  -0.086  10.090 -0.6689 -0.3496 -0.2893
  664MOL0     C89524  -0.000  -0.206  10.125 -0.0182  0.2045  0.0886
  664MOL0     C89525  -0.067  -0.307  10.214 -0.3772  0.1677  0.0914
  664MOL0     C89526  -0.075  -0.266  10.364  0.2141 -0.3537  0.3677
  664MOL0     C89527  -0.221  -0.285  10.428 -0.1567 -1.4371  0.1064
  664MOL0     C89528  -0.271  -0.429  10.442 -0.8304  0.2980  0.1702
  664MOL0     O89529  -0.288  -0.493  10.318  0.1471  0.4735 -0.2636
  664MOL0     C89530  -0.264  -0.628  10.334 -0.3738 -0.2505  0.9234
  664MOL0     C89531  -0.146  -0.697  10.291  0.9204 -1.6271 -0.2794
  664MOL0     C89532  -0.114  -0.828  10.337  0.7592  0.9760 -0.4796
  664MOL0     C89533   0.025  -0.868  10.297 -0.2767 -0.0461  0.5351
  664MOL0     C89534  -0.212  -0.905  10.407  1.0586 -0.0688  0.5542
  664MOL0     C89535  -0.200  -1.044  10.462 -0.6073  0.6249  0.2504
  664MOL0     O89536  -0.307  -1.120  10.476 -0.0072 -0.4529 -0.1299
  664MOL0     C89537  -0.303  -1.251  10.521  0.6416  0.4708  0.5711
  664MOL0     C89538  -0.218  -1.306  10.620 -0.4397 -0.2619  0.7878
  664MOL0     C89539  -0.236  -1.444  10.651 -0.3014 -0.1409 -0.3345
  664MOL0     C89540  -0.320  -1.527  10.580 -0.5373  0.5767 -0.1220
  664MOL0     O89541  -0.318  -1.660  10.634  0.2495  0.0065  0.5407
  664MOL0     C89542  -0.370  -1.773  10.562 -0.1864 -0.1337  0.2359
  664MOL0     C89543  -0.308  -1.901  10.617 -0.1334 -0.3038  0.1663
  664MOL0     C89544  -0.355  -1.925  10.762 -0.4290  0.7459  0.3597
  664MOL0     C89545  -0.291  -2.045  10.832 -0.1410 -0.0325  0.6338
  664MOL0     C89546  -0.323  -2.175  10.753  0.1110  0.5979  0.0687
  664MOL0     C89547  -0.254  -2.300  10.827  1.0479 -0.5071 -0.1214
  664MOL0     C89548  -0.301  -2.436  10.789 -0.7606  0.5829 -0.5930
  664MOL0     C89549  -0.236  -2.480  10.657 -0.5525  0.9944 -0.1849
  664MOL0    Cl89550  -0.312  -2.410  10.502  0.2097  0.0006  0.1946
  664MOL0     C89551  -0.403  -1.467  10.482  0.2332 -0.2013  1.2706
  664MOL0     C89552  -0.397  -1.332  10.450  0.6638 -0.6292 -0.3122
  664MOL0     O89553  -0.084  -1.075  10.496 -0.5152 -0.9099 -0.2715
  664MOL0     C89554  -0.340  -0.834  10.439 -0.2674  0.7778 -0.0275
  664MOL0     C89555  -0.354  -0.698  10.410 -0.0615  0.0401 -0.1346
  664MOL0     N89556   0.108  -0.217  10.061 -0.5202 -1.0776 -0.1069
  664MOL0     N89557   0.148  -0.119   9.997  0.2272  0.7910  0.1629
  664MOL0     C89558   1.018   0.516  10.314 -0.3584  0.6609  0.2711
  664MOL0     C89559   1.156   0.536  10.288  0.1031 -0.3236 -0.6914
  664MOL0     C89560   1.582   0.451  10.233 -0.1697  0.5238 -0.2616
  664MOL0     C89561   1.686   0.415  10.321 -0.3632  0.6275 -0.8652
  664MOL0     C89562   1.811   0.464  10.299  0.4664  0.3748  0.4172
  664MOL0     C89563   1.847   0.548  10.197  0.9550  0.9023 -0.4254
  664MOL0     O89564   1.972   0.613  10.187 -0.1320  1.2172  0.2527
  664MOL0     C89565   2.026   0.668  10.308  0.4589  0.3399  0.4039
  664MOL0     C89566   2.161   0.739  10.295  0.1637 -1.6048 -0.6431
  664MOL0     C89567   2.272   0.659  10.229  0.3738  0.8234  0.1967
  664MOL0     C89568   2.276   0.517  10.283  0.3077 -0.3898 -0.8443
  664MOL0     C89569   2.290   0.511  10.433  0.7169  0.3846  0.8383
  664MOL0     C89570   2.291   0.502  10.554 -0.3733 -0.2490 -0.1731
  664MOL0     C89571   1.745   0.572  10.113 -0.0528  0.3974 -1.4402
  664MOL0     C89572   1.616   0.528  10.122  0.7129 -0.4635 -0.8658
  664MOL0     H89573   1.198   0.263  10.085  1.2755 -0.6648  0.9397
  664MOL0     H89574   0.980   0.217  10.155 -0.1791  1.1841 -1.7751
  664MOL0     H89575   0.743   0.398  10.122 -0.1250  1.5024  0.8375
  664MOL0     H89576   0.740   0.236  10.176  1.3192  0.0859 -0.6402
  664MOL0     H89577   0.569   0.288  10.351  0.6729 -0.7124  0.6108
  664MOL0     H89578   0.579   0.453  10.316  0.1679 -0.5529  0.4872
  664MOL0     H89579   0.485   0.436  10.097 -0.3625  0.7983  1.2215
  664MOL0     H89580   0.498   0.255  10.085 -0.2479 -1.0863  1.2236
  664MOL0     H89581   0.338   0.247  10.286  1.1942 -2.1372 -2.4905
  664MOL0     H89582   0.299   0.414  10.259  2.8854 -0.2625  0.7711
  664MOL0     H89583   0.243   0.363  10.029 -2.1800  0.9864  1.8136
  664MOL0     H89584   0.315   0.195  10.050  1.7413  0.4056  1.6515
  664MOL0     H89585   0.141   0.127  10.190  0.8997 -0.1612 -0.1847
  664MOL0     H89586   0.078   0.294  10.221  0.4654  1.7448 -1.4964
  664MOL0     H89587  -0.079   0.186  10.058  1.0375  0.3619  1.8147
  664MOL0     H89588   0.014   0.303   9.969  4.1587  0.9635  0.6970
  664MOL0     H89589   0.165   0.107   9.906 -0.6676  2.3064 -2.1143
  664MOL0     H89590   0.005   0.090   9.841  1.4086 -0.4673 -0.6917
  664MOL0     H89591  -0.146  -0.050  10.131 -0.2610  0.7355 -0.2651
  664MOL0     H89592  -0.169  -0.323  10.178 -0.2509 -0.3122 -0.0693
  664MOL0     H89593  -0.015  -0.401  10.194 -3.4502 -1.1791 -2.5876
  664MOL0     H89594  -0.052  -0.159  10.363 -1.2819 -0.0149 -0.1681
  664MOL0     H89595   0.001  -0.314  10.426  1.0921  0.2652 -0.2023
  664MOL0     H89596  -0.292  -0.219  10.376  1.9933  0.6854 -0.2815
  664MOL0     H89597  -0.228  -0.255  10.533  2.5818  0.4218 -0.1409
  664MOL0     H89598  -0.356  -0.428  10.511 -0.1445 -1.0397  1.0863
  664MOL0     H89599  -0.208  -0.491  10.508 -1.1714 -3.4236 -2.6674
  664MOL0     H89600  -0.079  -0.639  10.228  1.1661  1.0045  2.2325
  664MOL0     H89601   0.019  -0.955  10.232 -1.7549 -1.3883  2.3458
  664MOL0     H89602   0.071  -0.787  10.241  1.2794 -0.7476  0.7534
  664MOL0     H89603   0.074  -0.893  10.392 -4.5191 -1.0872  2.7127
  664MOL0     H89604  -0.159  -1.233  10.674 -2.2680  1.6903  0.2813
  664MOL0     H89605  -0.186  -1.493  10.735 -1.1485 -1.6653 -0.6679
  664MOL0     H89606  -0.479  -1.766  10.568 -0.0589  2.0067  0.9630
  664MOL0     H89607  -0.354  -1.760  10.454 -1.9677 -0.7407 -0.1336
  664MOL0     H89608  -0.335  -1.982  10.549 -0.9213  0.5746 -0.6073
  664MOL0     H89609  -0.199  -1.896  10.604 -0.0714  0.5885  0.9495
  664MOL0     H89610  -0.462  -1.946  10.754 -0.5952  1.6838 -0.1171
  664MOL0     H89611  -0.332  -1.836  10.821 -1.4680  0.3885  1.3240
  664MOL0     H89612  -0.184  -2.037  10.857  0.0660 -0.7848  0.0361
  664MOL0     H89613  -0.343  -2.056  10.928 -1.0666 -0.8299  0.0458
  664MOL0     H89614  -0.283  -2.163  10.651  0.3220 -3.8960 -0.5680
  664MOL0     H89615  -0.428  -2.191  10.726 -0.0757  1.8635 -0.0082
  664MOL0     H89616  -0.145  -2.295  10.825  0.9994  0.3090 -2.4029
  664MOL0     H89617  -0.284  -2.282  10.931 -2.6459  0.3222 -1.2047
  664MOL0     H89618  -0.410  -2.434  10.775 -1.0709  2.2760  1.5856
  664MOL0     H89619  -0.282  -2.507  10.870  0.1222  2.1298  0.6245
  664MOL0     H89620  -0.244  -2.588  10.644  0.1848  1.0531 -1.2533
  664MOL0     H89621  -0.129  -2.458  10.655 -0.1190 -0.8166 -2.5691
  664MOL0     H89622  -0.476  -1.529  10.431 -0.9055  0.1329  2.4458
  664MOL0     H89623  -0.460  -1.287  10.374 -2.0623 -0.0167  2.1076
  664MOL0     H89624  -0.415  -0.889  10.495 -1.4963  1.8338 -0.5793
  664MOL0     H89625  -0.441  -0.647  10.451  1.4362  2.1230  0.6208
  664MOL0     H89626   0.973   0.586  10.383  1.7785  1.0057  1.4100
  664MOL0     H89627   1.212   0.615  10.337  3.2597 -1.1573 -2.6948
  664MOL0     H89628   1.680   0.339  10.399  3.8582 -1.8772 -2.5821
  664MOL0     H89629   1.889   0.442  10.371  4.9459  0.2688 -3.9448
  664MOL0     H89630   1.952   0.740  10.343  2.9435  2.0100  2.5834
  664MOL0     H89631   2.047   0.587  10.378  1.5408 -1.1493 -1.5256
  664MOL0     H89632   2.179   0.776  10.396 -3.2143 -0.6550 -0.2678
  664MOL0     H89633   2.144   0.833  10.242  2.8774  0.1776  1.3910
  664MOL0     H89634   2.362   0.716  10.252 -1.4876  2.7905  3.4723
  664MOL0     H89635   2.259   0.656  10.121 -5.1646  1.5585  0.5332
  664MOL0     H89636   2.363   0.471  10.233  0.0431  0.9344 -2.6301
  664MOL0     H89637   2.197   0.450  10.248  0.5284 -3.1426  3.2844
  664MOL0     H89638   2.296   0.486  10.659 -2.5074 -0.2209 -0.0138
  664MOL0     H89639   1.768   0.639  10.030  0.5618  2.0605 -0.0012
  664MOL0     H89640   1.541   0.554  10.048 -1.0169 -4.9925 -1.0010
  665MOL0     O89641   2.909   8.027   9.375  0.5710 -0.1535 -0.2770
  665MOL0     C89642   2.945   7.979   9.272  0.1857 -0.0217  0.4829
  665MOL0     O89643   2.976   8.052   9.162  0.0551 -0.2317  0.0377
  665MOL0     C89644   2.956   8.189   9.144 -0.5872 -0.1883 -0.0443
  665MOL0     C89645   2.875   8.287   9.212 -0.5008  0.7937  0.1090
  665MOL0     C89646   2.890   8.425   9.198 -0.4078  0.1024  0.0130
  665MOL0     C89647   2.976   8.465   9.099 -0.4676 -1.2660 -0.0887
  665MOL0     O89648   2.996   8.601   9.084  0.1320 -0.1702  0.6536
  665MOL0     C89649   2.894   8.691   9.126 -0.3596  0.4527 -0.2952
  665MOL0     C89650   2.920   8.814   9.046  0.1328 -0.7647 -0.3494
  665MOL0     C89651   2.822   8.926   9.063 -1.1437  0.4432 -0.3716
  665MOL0     C89652   2.860   9.041   8.959  0.2834  0.1276 -0.6393
  665MOL0     C89653   2.741   9.130   8.921  0.7706  0.1025 -0.4026
  665MOL0     C89654   2.766   9.252   8.825  0.6170 -0.7925  0.3968
  665MOL0     C89655   2.864   9.359   8.880  0.6264 -0.7889  0.1425
  665MOL0     C89656   2.816   9.508   8.874  0.0623  0.1138  0.1881
  665MOL0     N89657   2.800   9.555   8.732  0.2954  1.0157 -0.3783
  665MOL0     C89658   2.903   9.564   8.644  0.4505 -0.4323 -0.6608
  665MOL0     C89659   2.850   9.608   8.531  0.1938 -0.4180  0.0918
  665MOL0     C89660   2.932   9.629   8.402  0.7902 -0.3696 -0.1624
  665MOL0     C89661   2.888   9.735   8.302  0.4013 -0.1330 -0.3906
  665MOL0     C89662   2.897   9.877   8.365  0.0342  0.9568  0.2836
  665MOL0     C89663   3.032   9.915   8.436 -0.1312  1.1843 -0.4502
  665MOL0     O89664   3.149   9.906   8.356  0.8422 -0.5290  1.2848
  665MOL0     C89665   3.272   9.888   8.420  1.1856  0.3413  1.2091
  665MOL0     C89666   3.322   9.987   8.497 -0.1042  0.3870  0.1062
  665MOL0     C89667   3.448   9.961   8.565 -0.4488 -0.5840 -0.0759
  665MOL0     C89668   3.501  10.057   8.666 -0.8528 -0.2653 -0.1873
  665MOL0     C89669   3.514   9.833   8.547 -0.0020 -0.5909  0.5392
  665MOL0     C89670   3.634   9.785   8.626  0.8279 -0.0550 -0.6935
  665MOL0     O89671   3.725   9.700   8.550  0.0770 -0.3331  0.1506
  665MOL0     C89672   3.856   9.714   8.590 -0.7031 -0.7333  0.1451
  665MOL0     C89673   3.935   9.614   8.652  0.1732 -0.8832  0.6656
  665MOL0     C89674   4.063   9.635   8.690 -0.3524  0.1619 -0.0276
  665MOL0     C89675   4.129   9.764   8.667  0.0840 -0.2559 -0.4834
  665MOL0     O89676   4.256   9.809   8.700  0.1782  0.0272 -0.1084
  665MOL0     C89677   4.316   9.713   8.791 -0.6000  0.2212 -0.0280
  665MOL0     C89678   4.422   9.795   8.875 -0.6729 -0.8289  0.4118
  665MOL0     C89679   4.430   9.735   9.016  0.4811 -0.0055 -0.1243
  665MOL0     C89680   4.466   9.589   9.012 -0.2277 -1.0155 -0.4862
  665MOL0     C89681   4.488   9.523   9.142 -0.1187 -0.4591  0.8353
  665MOL0     C89682   4.373   9.534   9.233  0.1886 -0.7429 -0.1698
  665MOL0     C89683   4.396   9.468   9.373  0.0418 -0.0848 -0.0487
  665MOL0     C89684   4.491   9.548   9.468  0.6126  0.3685 -0.8782
  665MOL0    Cl89685   4.546   9.462   9.604  0.0253 -0.2539 -0.3078
  665MOL0     C89686   4.058   9.854   8.584  0.0194 -0.5877 -0.1233
  665MOL0     C89687   3.926   9.830   8.535  0.3275  0.0408  0.2511
  665MOL0     O89688   3.647   9.835   8.736 -0.1207  0.3263 -0.5501
  665MOL0     C89689   3.463   9.737   8.459  0.0047 -0.5161 -0.2776
  665MOL0     C89690   3.349   9.775   8.387  0.6933  0.2483  0.1689
  665MOL0     N89691   2.718   9.628   8.554  1.2094  0.6145 -0.1617
  665MOL0     N89692   2.685   9.577   8.663  0.5664 -0.1092  0.0370
  665MOL0     C89693   3.064   8.377   9.034  0.9949 -0.7024  0.3962
  665MOL0     C89694   3.054   8.244   9.056  0.0613  0.3923 -0.5138
  665MOL0     C89695   2.943   7.830   9.270 -0.3260 -0.2016 -0.4063
  665MOL0     C89696   2.984   7.768   9.149  0.0869 -0.0537  0.4572
  665MOL0     C89697   2.984   7.624   9.150  0.4133 -0.1518  0.1603
  665MOL0     C89698   2.937   7.542   9.253  0.2109  0.3898 -0.0961
  665MOL0     O89699   2.941   7.403   9.257 -0.0186 -0.5171 -0.3273
  665MOL0     C89700   3.017   7.336   9.157 -0.7825  0.7075 -0.5395
  665MOL0     C89701   3.055   7.197   9.199  0.2779  0.3465 -0.1429
  665MOL0     C89702   3.147   7.115   9.095  0.1098 -0.0063 -0.7698
  665MOL0     C89703   3.138   6.968   9.137 -1.1138 -0.0200  0.0508
  665MOL0     C89704   3.228   6.956   9.257  0.0438  0.0995 -0.4335
  665MOL0     C89705   3.310   6.950   9.351  0.4360  0.4750  0.0636
  665MOL0     C89706   2.900   7.612   9.369  0.2010  0.2284  0.2142
  665MOL0     C89707   2.901   7.749   9.382  0.5062  0.0799  0.5397
  665MOL0     H89708   2.793   8.255   9.275  0.3485 -2.9579 -0.4200
  665MOL0     H89709   2.838   8.503   9.253  3.7471  5.5008 -2.6787
  665MOL0     H89710   2.794   8.654   9.101  0.4605 -0.4780 -2.4064
  665MOL0     H89711   2.893   8.703   9.234  2.7824 -0.7206 -0.0239
  665MOL0     H89712   3.016   8.855   9.078 -0.7597 -0.7916  2.6631
  665MOL0     H89713   2.917   8.780   8.942 -0.9810 -0.8224 -0.3058
  665MOL0     H89714   2.720   8.888   9.046  0.0961 -4.8863  2.0657
  665MOL0     H89715   2.814   8.975   9.160 -0.2397  1.5738 -0.8436
  665MOL0     H89716   2.933   9.108   9.004  0.3960 -0.5572  0.2226
  665MOL0     H89717   2.898   8.993   8.868 -0.3416  0.5213 -1.1198
  665MOL0     H89718   2.671   9.061   8.874  1.7480 -1.9548  0.9956
  665MOL0     H89719   2.711   9.168   9.019  1.3524 -0.0549 -0.1595
  665MOL0     H89720   2.805   9.214   8.730 -0.3085 -1.4041  0.2452
  665MOL0     H89721   2.673   9.303   8.796  0.3271 -0.0981  2.4342
  665MOL0     H89722   2.875   9.333   8.986  1.4128 -0.9980  0.0122
  665MOL0     H89723   2.968   9.353   8.849  0.4392  0.0651 -0.7111
  665MOL0     H89724   2.884   9.573   8.931 -0.0435 -1.2712  1.9967
  665MOL0     H89725   2.714   9.514   8.913 -0.4400 -0.0302 -1.0815
  665MOL0     H89726   3.007   9.535   8.660  1.5470  2.0832 -2.4534
  665MOL0     H89727   3.038   9.634   8.429  0.3977 -2.3871  2.0278
  665MOL0     H89728   2.919   9.535   8.348  0.0415  0.1307 -0.8635
  665MOL0     H89729   2.784   9.722   8.271  0.3193  2.6646 -1.5884
  665MOL0     H89730   2.948   9.726   8.211  0.9720  0.0305 -0.0378
  665MOL0     H89731   2.817   9.892   8.438  2.1247  2.3097  2.4323
  665MOL0     H89732   2.878   9.949   8.285  2.3739  0.8873 -0.3896
  665MOL0     H89733   3.049   9.849   8.521 -0.0849  0.6112 -0.8949
  665MOL0     H89734   3.021  10.016   8.477 -3.6053 -0.3450  2.9681
  665MOL0     H89735   3.274  10.082   8.521  3.7024  1.9103  2.6300
  665MOL0     H89736   3.453  10.155   8.667  3.9778  2.3988 -0.4443
  665MOL0     H89737   3.505  10.015   8.767  1.2279  3.9009  1.7026
  665MOL0     H89738   3.606  10.081   8.648 -0.6298  1.1768  2.5161
  665MOL0     H89739   3.892   9.517   8.674  2.4725 -2.7956 -2.4594
  665MOL0     H89740   4.108   9.556   8.750 -1.6086  0.2033  1.0051
  665MOL0     H89741   4.236   9.683   8.859 -2.4407 -1.7698 -2.8583
  665MOL0     H89742   4.367   9.627   8.747  1.9145  0.5255  2.0372
  665MOL0     H89743   4.522   9.788   8.831 -1.6106 -1.7802 -1.7650
  665MOL0     H89744   4.392   9.899   8.889  0.5734 -0.6211  1.6923
  665MOL0     H89745   4.347   9.748   9.086 -0.1770 -0.4716 -0.7987
  665MOL0     H89746   4.508   9.793   9.065  0.7166 -0.9420  0.6295
  665MOL0     H89747   4.377   9.544   8.967 -3.0283  1.0623  2.4874
  665MOL0     H89748   4.548   9.565   8.944 -0.1831 -2.3390  0.0117
  665MOL0     H89749   4.576   9.567   9.188  0.4191  1.3425 -1.7008
  665MOL0     H89750   4.506   9.416   9.128 -0.8129 -1.0272  3.6926
  665MOL0     H89751   4.338   9.635   9.254 -1.1373 -0.7976 -1.8401
  665MOL0     H89752   4.287   9.485   9.186 -1.2770  2.4678 -1.0820
  665MOL0     H89753   4.428   9.364   9.363  0.4978  0.0409  0.0591
  665MOL0     H89754   4.295   9.483   9.411 -0.2465 -1.1368 -0.3633
  665MOL0     H89755   4.449   9.639   9.513  6.8723  0.9563  5.5925
  665MOL0     H89756   4.574   9.587   9.409 -0.1236 -0.1265 -2.2932
  665MOL0     H89757   4.107   9.947   8.556  2.0159 -1.1851  1.1120
  665MOL0     H89758   3.881   9.908   8.474  0.2882  0.5875  0.9686
  665MOL0     H89759   3.498   9.635   8.445 -1.3540 -0.9645 -0.6205
  665MOL0     H89760   3.292   9.707   8.324  0.1795  0.5044  0.3480
  665MOL0     H89761   3.145   8.419   8.976  1.5502 -1.3816  0.6721
  665MOL0     H89762   3.119   8.176   9.001  0.2255 -2.3650  2.7749
  665MOL0     H89763   3.015   7.824   9.062  1.2372 -2.6136 -0.8952
  665MOL0     H89764   3.018   7.570   9.062  1.8819 -0.4931  0.9060
  665MOL0     H89765   2.957   7.329   9.066 -0.3251 -2.4982 -0.7087
  665MOL0     H89766   3.108   7.395   9.143  0.5683 -0.7422  1.6211
  665MOL0     H89767   2.964   7.146   9.233 -1.1451  1.3426 -2.2697
  665MOL0     H89768   3.107   7.215   9.294 -0.6713 -0.3386  0.5237
  665MOL0     H89769   3.249   7.154   9.100 -0.3357  1.2381  4.6553
  665MOL0     H89770   3.102   7.124   8.995  1.1771 -1.1884 -1.3863
  665MOL0     H89771   3.175   6.899   9.061 -0.5170  0.6135 -0.2419
  665MOL0     H89772   3.034   6.935   9.146 -1.2515  0.5195  0.4534
  665MOL0     H89773   3.373   6.952   9.438  2.0627 -0.5121 -1.0426
  665MOL0     H89774   2.861   7.543   9.444  1.2469  0.6565  1.1816
  665MOL0     H89775   2.885   7.796   9.478 -0.6101  1.1711 -0.1586
  666MOL0     O89776   4.552   8.122   8.892 -0.1580  0.0191 -0.3386
  666MOL0     C89777   4.449   8.058   8.904 -0.8724  0.3192 -0.8405
  666MOL0     O89778   4.424   7.965   8.995  0.1246  0.0401 -0.1865
  666MOL0     C89779   4.518   7.930   9.088  0.7416 -0.3364  1.0930
  666MOL0     C89780   4.557   8.020   9.185  0.6478  0.3052  0.5267
  666MOL0     C89781   4.653   7.978   9.275 -0.3732 -0.0720 -0.4464
  666MOL0     C89782   4.715   7.844   9.270 -0.2572 -0.7078  0.7511
  666MOL0     O89783   4.802   7.830   9.373 -0.5456  1.0989  0.9358
  666MOL0     C89784   4.864   7.708   9.388  0.5297  0.3212  0.0845
  666MOL0     C89785   4.765   7.605   9.443 -0.2593 -0.5599 -0.7258
  666MOL0     C89786   4.854   7.507   9.534  0.1345 -0.6900 -0.1566
  666MOL0     C89787   4.779   7.396   9.603 -0.5873 -0.7568  0.9280
  666MOL0     C89788   4.722   7.300   9.497 -0.4714 -0.3829 -0.4259
  666MOL0     C89789   4.661   7.175   9.559  0.0435 -0.2678 -1.1331
  666MOL0     C89790   4.779   7.076   9.615  0.5890  0.0769 -0.3547
  666MOL0     C89791   4.729   6.938   9.639 -0.6273  0.3880  0.6398
  666MOL0     N89792   4.680   6.885   9.508  0.2228 -0.1625  1.0845
  666MOL0     C89793   4.544   6.868   9.493 -0.4093  0.1562  0.4677
  666MOL0     C89794   4.537   6.807   9.367  1.2709  0.2119 -0.3789
  666MOL0     C89795   4.403   6.777   9.300  0.6059 -1.1727  1.3257
  666MOL0     C89796   4.319   6.902   9.279  0.5235 -0.3291  0.4315
  666MOL0     C89797   4.372   7.001   9.170  0.0930 -0.1741 -0.3623
  666MOL0     C89798   4.415   6.939   9.037 -0.3151 -0.1647  0.6537
  666MOL0     O89799   4.296   6.877   8.998  0.0924  0.3628  0.2099
  666MOL0     C89800   4.301   6.757   8.935 -0.0072  0.3548  0.8448
  666MOL0     C89801   4.414   6.719   8.852  0.3806  0.5334  0.3584
  666MOL0     C89802   4.420   6.595   8.785  0.2519 -0.3941 -0.5315
  666MOL0     C89803   4.535   6.558   8.693  0.0988  0.7595 -0.4801
  666MOL0     C89804   4.298   6.507   8.794 -1.1798 -0.0250 -0.2026
  666MOL0     C89805   4.296   6.368   8.751  1.2293  1.0003  0.7366
  666MOL0     O89806   4.180   6.297   8.791 -0.1890  0.2479  0.3344
  666MOL0     C89807   4.189   6.166   8.804  0.9845  0.8313 -0.8170
  666MOL0     C89808   4.160   6.079   8.695  0.5056  0.1039  0.4607
  666MOL0     C89809   4.149   5.936   8.711 -0.0822 -0.0904  0.1614
  666MOL0     C89810   4.186   5.881   8.839  0.5009 -0.4645  0.8508
  666MOL0     O89811   4.183   5.745   8.861  0.0951 -0.5212  0.3911
  666MOL0     C89812   4.188   5.686   8.991 -1.0075 -0.2873 -0.6658
  666MOL0     C89813   4.178   5.529   8.996  0.5131 -0.1175  0.4079
  666MOL0     C89814   4.320   5.462   9.017 -0.4703 -0.7591  0.3661
  666MOL0     C89815   4.439   5.499   8.929  0.1710 -0.9301 -0.4400
  666MOL0     C89816   4.561   5.414   8.961 -0.2950  0.1503 -0.0165
  666MOL0     C89817   4.670   5.441   8.859 -0.3195 -0.3779 -0.9606
  666MOL0     C89818   4.802   5.389   8.917 -0.3632 -0.6124  0.5263
  666MOL0     C89819   4.918   5.407   8.820  0.5440  0.0898 -0.1910
  666MOL0    Cl89820   4.890   5.338   8.656 -0.0911  0.0020 -0.1959
  666MOL0     C89821   4.213   5.970   8.944 -0.6124  0.4054  0.6407
  666MOL0     C89822   4.218   6.107   8.929  0.6030 -0.5395 -0.7741
  666MOL0     O89823   4.374   6.321   8.666 -0.2545  0.0185 -0.0686
  666MOL0     C89824   4.194   6.551   8.881  0.8042 -0.9380 -0.3241
  666MOL0     C89825   4.193   6.677   8.937  0.2200 -0.0128  0.1614
  666MOL0     N89826   4.665   6.783   9.308  0.1773 -0.7723 -0.9541
  666MOL0     N89827   4.751   6.845   9.387  0.5109  0.8238 -0.2684
  666MOL0     C89828   4.679   7.754   9.170  0.4659  0.4783 -0.3406
  666MOL0     C89829   4.585   7.808   9.075  0.2184  0.5508  0.2770
  666MOL0     C89830   4.351   8.068   8.802 -0.1440  0.8772  0.3837
  666MOL0     C89831   4.363   8.179   8.712  0.9116 -0.4671 -0.4467
  666MOL0     C89832   4.264   8.195   8.616 -0.4365  0.6567  0.4633
  666MOL0     C89833   4.153   8.109   8.602  0.1853  0.1967  0.6444
  666MOL0     O89834   4.047   8.140   8.513  0.4453  0.1529  0.0271
  666MOL0     C89835   4.060   8.060   8.402  1.1356  0.1023  0.4024
  666MOL0     C89836   3.949   8.100   8.302 -0.7217 -0.1448  0.8206
  666MOL0     C89837   4.002   8.211   8.207 -0.0030 -0.3276  0.5107
  666MOL0     C89838   3.880   8.292   8.154  0.0189  0.4741  0.6003
  666MOL0     C89839   3.785   8.209   8.073 -0.5450 -0.1320 -0.0246
  666MOL0     C89840   3.705   8.141   8.017  0.3544 -1.0168  0.4431
  666MOL0     C89841   4.144   8.009   8.695  0.5985 -0.5046  0.1673
  666MOL0     C89842   4.238   7.981   8.787  0.3411  0.7529 -0.1008
  666MOL0     H89843   4.524   8.121   9.165  2.2296  0.5079 -1.3636
  666MOL0     H89844   4.681   8.046   9.355 -2.8096 -2.5854  2.8468
  666MOL0     H89845   4.900   7.666   9.293 -1.2020  0.8225 -0.8281
  666MOL0     H89846   4.951   7.719   9.454  0.1239  0.0745  0.6655
  666MOL0     H89847   4.684   7.650   9.501  2.2868  4.9557 -0.7794
  666MOL0     H89848   4.729   7.541   9.363 -1.3466 -1.2948  0.3171
  666MOL0     H89849   4.947   7.468   9.490  2.7178  1.5132  2.8412
  666MOL0     H89850   4.910   7.553   9.616  1.3849 -2.7455  0.2219
  666MOL0     H89851   4.856   7.338   9.656 -0.6381  0.2439  2.1485
  666MOL0     H89852   4.718   7.448   9.677  0.2655  1.4142  0.1716
  666MOL0     H89853   4.641   7.349   9.443  2.4320  1.9502 -3.0077
  666MOL0     H89854   4.795   7.270   9.421 -0.5464  0.6910 -0.9355
  666MOL0     H89855   4.599   7.200   9.644  1.7239 -0.7816  0.3055
  666MOL0     H89856   4.598   7.128   9.483 -1.5447  1.8083 -1.1743
  666MOL0     H89857   4.860   7.082   9.542  0.9075  1.0979  0.0755
  666MOL0     H89858   4.819   7.105   9.712 -0.3889  0.3231 -0.0104
  666MOL0     H89859   4.659   6.945   9.722  0.0170  0.2688  1.2069
  666MOL0     H89860   4.814   6.870   9.655 -4.2938 -4.6607  1.2510
  666MOL0     H89861   4.457   6.891   9.555 -0.0173  0.3250  0.9590
  666MOL0     H89862   4.420   6.712   9.214 -3.2244  1.4302 -1.7234
  666MOL0     H89863   4.354   6.711   9.372  0.4358 -1.2963  1.0978
  666MOL0     H89864   4.304   6.949   9.376 -0.8636 -1.7877  0.9894
  666MOL0     H89865   4.217   6.876   9.247 -0.3687  1.9368  1.2555
  666MOL0     H89866   4.456   7.058   9.211  0.5685 -1.1434  0.0303
  666MOL0     H89867   4.285   7.066   9.153 -1.0692 -1.9001 -1.3270
  666MOL0     H89868   4.496   6.867   9.052  0.4668  0.6221  0.2429
  666MOL0     H89869   4.445   7.013   8.963  1.3614  1.6635  2.9936
  666MOL0     H89870   4.506   6.777   8.851  0.6854  0.0559  0.6270
  666MOL0     H89871   4.615   6.632   8.692  2.4146 -1.5667 -0.0332
  666MOL0     H89872   4.583   6.470   8.738  0.0848  1.8766  1.8273
  666MOL0     H89873   4.508   6.535   8.590  0.5013 -2.1878 -0.0218
  666MOL0     H89874   4.152   6.134   8.602  1.5740  0.4679  0.5725
  666MOL0     H89875   4.130   5.871   8.626  0.9019  1.7974 -1.5929
  666MOL0     H89876   4.283   5.719   9.036 -1.3659  1.6025 -1.2248
  666MOL0     H89877   4.095   5.723   9.034 -2.5604 -0.9138 -3.3033
  666MOL0     H89878   4.126   5.492   9.085 -2.7989 -2.3547 -2.1936
  666MOL0     H89879   4.140   5.486   8.903 -0.3866 -1.8761  1.5459
  666MOL0     H89880   4.311   5.355   8.996  1.9997 -0.8453 -0.5128
  666MOL0     H89881   4.360   5.483   9.117  2.8794  1.9292 -1.3455
  666MOL0     H89882   4.414   5.497   8.823  1.2586  0.0295 -0.7375
  666MOL0     H89883   4.468   5.602   8.953 -0.4141 -0.8302 -0.1539
  666MOL0     H89884   4.538   5.307   8.957 -3.2240  0.7208 -1.2791
  666MOL0     H89885   4.597   5.445   9.059 -0.2487  3.0424 -0.8505
  666MOL0     H89886   4.647   5.394   8.763  1.5767 -2.0929 -0.6484
  666MOL0     H89887   4.684   5.548   8.841 -1.9577 -0.0306 -0.3974
  666MOL0     H89888   4.804   5.282   8.943  4.1790 -0.6686  0.7187
  666MOL0     H89889   4.815   5.446   9.010 -2.5942 -1.8733  1.6978
  666MOL0     H89890   5.009   5.371   8.870  1.3510  0.5438 -1.3017
  666MOL0     H89891   4.940   5.513   8.807  2.6278 -0.2165  0.3114
  666MOL0     H89892   4.245   5.934   9.041  0.4506  1.5804  0.7574
  666MOL0     H89893   4.256   6.162   9.014 -1.1450 -2.3805  1.3308
  666MOL0     H89894   4.106   6.495   8.909 -0.4247  0.7975 -0.5166
  666MOL0     H89895   4.116   6.719   9.000  0.1447 -0.6067  0.4774
  666MOL0     H89896   4.715   7.652   9.165  0.2996  0.4790 -3.4926
  666MOL0     H89897   4.555   7.748   8.990  0.4040 -0.9419  1.2326
  666MOL0     H89898   4.438   8.258   8.717  0.3609 -0.0108  1.1389
  666MOL0     H89899   4.258   8.288   8.559  0.1315 -1.2127 -2.9113
  666MOL0     H89900   4.159   8.063   8.357  2.1210 -2.9058  2.0945
  666MOL0     H89901   4.039   7.958   8.434  0.3952 -0.2450 -1.0705
  666MOL0     H89902   3.861   8.140   8.353 -2.8439 -0.4031 -2.3056
  666MOL0     H89903   3.914   8.015   8.243 -0.4537  0.1882  0.1646
  666MOL0     H89904   4.063   8.179   8.122 -0.6139  1.8195 -0.8101
  666MOL0     H89905   4.077   8.273   8.257  0.0231 -0.7310  0.9751
  666MOL0     H89906   3.906   8.377   8.090 -2.0002  0.4291 -0.3331
  666MOL0     H89907   3.817   8.330   8.235 -1.4424 -1.1719  0.2986
  666MOL0     H89908   3.643   8.085   7.950 -0.6359  3.2625 -2.6421
  666MOL0     H89909   4.046   7.962   8.702  0.3852 -0.1863 -0.6433
  666MOL0     H89910   4.224   7.890   8.845  0.8194 -0.2676 -1.5275
  667MOL0     O89911   0.368   7.250   9.826 -0.2767  0.7588 -0.6780
  667MOL0     C89912   0.278   7.275   9.747  0.4731  0.8837 -0.6305
  667MOL0     O89913   0.168   7.349   9.779  0.3536 -0.6344  0.6022
  667MOL0     C89914   0.125   7.377   9.904 -0.0975  0.3452  0.9254
  667MOL0     C89915   0.096   7.510   9.953 -0.5647  0.2686  0.5380
  667MOL0     C89916   0.061   7.535  10.084 -0.0826  0.3111 -0.4286
  667MOL0     C89917   0.041   7.422  10.168  0.3135  0.3341  0.1609
  667MOL0     O89918  -0.004   7.451  10.295 -0.2122  0.2770  0.6638
  667MOL0     C89919   0.079   7.405  10.407 -0.1317  0.2969  0.6603
  667MOL0     C89920   0.042   7.271  10.464 -0.2169 -0.0559  0.3300
  667MOL0     C89921  -0.010   7.293  10.614  0.0092 -0.4719  0.6743
  667MOL0     C89922  -0.067   7.172  10.688 -0.4712 -0.7225 -0.5172
  667MOL0     C89923   0.061   7.108  10.757 -0.0500 -0.2843 -0.0044
  667MOL0     C89924   0.045   6.970  10.824 -0.3555  0.2970 -0.4267
  667MOL0     C89925  -0.077   6.990  10.919  0.7712  0.0162  0.3968
  667MOL0     C89926  -0.119   6.852  10.977 -0.7199  0.1082  0.0742
  667MOL0     N89927  -0.057   6.832  11.108 -0.2664 -0.0961  0.6364
  667MOL0     C89928   0.054   6.751  11.130 -0.2007 -0.2864 -0.2329
  667MOL0     C89929   0.029   6.725  11.258  0.1860 -0.1270  0.3981
  667MOL0     C89930   0.102   6.635  11.352 -0.2695  0.3040 -0.8593
  667MOL0     C89931   0.093   6.485  11.337  0.1152  0.2281  0.2664
  667MOL0     C89932   0.163   6.415  11.455  0.2690  0.5000 -0.3002
  667MOL0     C89933   0.318   6.416  11.456  0.3427 -0.7513 -0.7837
  667MOL0     O89934   0.374   6.359  11.578 -0.3944  0.5392  0.2123
  667MOL0     C89935   0.384   6.435  11.689 -0.0635 -0.9994  0.1018
  667MOL0     C89936   0.310   6.553  11.715  0.5607  0.4201  0.2434
  667MOL0     C89937   0.332   6.631  11.825  0.3573  0.5244  0.8219
  667MOL0     C89938   0.237   6.747  11.861 -0.1916 -0.3915 -0.2806
  667MOL0     C89939   0.442   6.607  11.911  0.2597 -0.6181 -0.0248
  667MOL0     C89940   0.495   6.713  12.004  0.4268  0.3633 -0.1581
  667MOL0     O89941   0.486   6.843  11.956 -0.1442  0.5826  0.7574
  667MOL0     C89942   0.491   6.941  12.048  0.3570 -0.0981  0.8170
  667MOL0     C89943   0.441   6.920  12.182 -0.3210 -0.5321 -0.4104
  667MOL0     C89944   0.450   7.024  12.279  0.4175 -0.9038 -0.1779
  667MOL0     C89945   0.515   7.143  12.247 -0.6832  0.0861  0.3013
  667MOL0     O89946   0.537   7.249  12.322  0.5787 -0.9191  0.1853
  667MOL0     C89947   0.515   7.235  12.465  0.2677 -0.8681  0.1797
  667MOL0     C89948   0.549   7.375  12.530  0.4829  0.6434 -0.0248
  667MOL0     C89949   0.467   7.491  12.481  0.2531 -0.4520 -0.8353
  667MOL0     C89950   0.542   7.620  12.505 -0.7122 -0.4209  0.5732
  667MOL0     C89951   0.454   7.744  12.509 -0.8892  1.5119  0.8501
  667MOL0     C89952   0.392   7.786  12.373  0.6538  0.3074 -0.2246
  667MOL0     C89953   0.295   7.909  12.398 -0.3432  0.7367  0.5148
  667MOL0     C89954   0.236   7.952  12.265 -0.1703  0.3285 -1.2413
  667MOL0    Cl89955   0.155   8.107  12.286 -0.0136  0.0980  0.4779
  667MOL0     C89956   0.562   7.161  12.113 -0.5524 -0.4664 -0.1129
  667MOL0     C89957   0.557   7.056  12.016 -0.0308  0.5988  0.8139
  667MOL0     O89958   0.545   6.675  12.112  1.2438 -0.0635 -0.1781
  667MOL0     C89959   0.514   6.485  11.899 -0.2080 -0.2453 -0.1624
  667MOL0     C89960   0.481   6.398  11.786  0.4424  1.0229 -0.3725
  667MOL0     N89961  -0.084   6.788  11.311  0.1073 -0.7438  0.6220
  667MOL0     N89962  -0.135   6.862  11.218 -0.2041  0.6747 -0.0274
  667MOL0     C89963   0.064   7.287  10.124 -0.0293 -0.1199 -0.0994
  667MOL0     C89964   0.099   7.264   9.989 -0.5839 -0.5676  0.5289
  667MOL0     C89965   0.303   7.246   9.606 -0.2314  0.3088 -0.1769
  667MOL0     C89966   0.198   7.270   9.515  1.1797 -0.1336  0.3715
  667MOL0     C89967   0.224   7.235   9.382 -0.1779 -0.0828  1.0845
  667MOL0     C89968   0.351   7.211   9.324 -0.2641 -1.2777  0.8791
  667MOL0     O89969   0.391   7.182   9.192  0.0466 -0.1988  0.5207
  667MOL0     C89970   0.305   7.232   9.085  0.2347  0.2100 -0.4659
  667MOL0     C89971   0.376   7.192   8.951 -0.2962 -0.6868  0.4763
  667MOL0     C89972   0.366   7.039   8.947  0.1225  0.6530 -1.0102
  667MOL0     C89973   0.437   6.974   8.833  0.8179  0.2745 -0.6450
  667MOL0     C89974   0.382   6.994   8.702 -0.0469  0.3780 -0.0145
  667MOL0     C89975   0.340   6.997   8.589 -0.8948 -0.5296 -1.0111
  667MOL0     C89976   0.443   7.181   9.417 -0.1260  0.2721 -0.8061
  667MOL0     C89977   0.419   7.184   9.560  0.9641  0.4460  0.3590
  667MOL0     H89978   0.116   7.596   9.889  0.2126  0.1911  0.6587
  667MOL0     H89979   0.045   7.636  10.119  3.2608  1.3383 -1.4799
  667MOL0     H89980   0.184   7.409  10.377  0.0585 -2.3537  0.6962
  667MOL0     H89981   0.067   7.480  10.485 -0.5058  1.4607 -0.4897
  667MOL0     H89982  -0.025   7.208  10.405  0.0466  0.5789 -0.6710
  667MOL0     H89983   0.137   7.218  10.479  0.5936  1.8090  2.4040
  667MOL0     H89984   0.079   7.330  10.664  0.6167 -1.1933  0.1422
  667MOL0     H89985  -0.088   7.369  10.617  1.3714  0.9435  1.3635
  667MOL0     H89986  -0.147   7.216  10.748  0.6058  4.0170 -2.1326
  667MOL0     H89987  -0.097   7.104  10.608 -2.4069 -1.2324  0.5945
  667MOL0     H89988   0.142   7.127  10.686 -0.9717  1.0938 -0.7400
  667MOL0     H89989   0.093   7.179  10.833  0.9755  2.4399 -2.7568
  667MOL0     H89990   0.017   6.900  10.745 -2.6044  0.7676 -0.1015
  667MOL0     H89991   0.128   6.928  10.882  0.5712 -2.6331 -3.5263
  667MOL0     H89992  -0.057   7.067  10.994  3.8441 -0.6225  0.3644
  667MOL0     H89993  -0.167   7.019  10.863  1.3522 -0.4147 -0.7952
  667MOL0     H89994  -0.093   6.766  10.914 -1.1678  0.0151  0.0124
  667MOL0     H89995  -0.228   6.845  10.982 -1.0313  3.4686  0.0752
  667MOL0     H89996   0.145   6.717  11.083  0.0184 -0.7363  0.5120
  667MOL0     H89997   0.208   6.662  11.348  0.1586 -1.0706  0.2612
  667MOL0     H89998   0.049   6.664  11.443  1.0912  1.8088 -0.4922
  667MOL0     H89999   0.131   6.448  11.241  1.7057  1.2875  0.4566
  667MOL0     H90000  -0.016   6.475  11.345 -0.5519  4.0497 -1.3664
  667MOL0     H90001   0.122   6.313  11.454 -1.2091  1.0779 -0.5800
  667MOL0     H90002   0.115   6.442  11.549  2.9689  2.2376  0.6998
  667MOL0     H90003   0.343   6.520  11.433 -0.8806 -0.8189 -2.5772
  667MOL0     H90004   0.363   6.364  11.371 -1.5145 -0.7098 -1.8507
  667MOL0     H90005   0.234   6.575  11.641  0.2711 -0.6632  0.1887
  667MOL0     H90006   0.273   6.837  11.810  3.5295  0.0641  2.6323
  667MOL0     H90007   0.134   6.736  11.826 -1.1842  2.2713  1.4159
  667MOL0     H90008   0.236   6.774  11.967 -1.2036  0.0627 -0.3927
  667MOL0     H90009   0.386   6.833  12.215 -0.0731 -0.5949 -0.1609
  667MOL0     H90010   0.406   7.005  12.376 -1.9442 -2.9818 -1.5292
  667MOL0     H90011   0.413   7.206  12.494  0.6232 -1.5001  0.8307
  667MOL0     H90012   0.572   7.159  12.520 -0.9867 -1.1520  1.1430
  667MOL0     H90013   0.536   7.359  12.638  1.3283 -4.5344 -0.4372
  667MOL0     H90014   0.657   7.391  12.520  0.3458  3.5999  1.8793
  667MOL0     H90015   0.370   7.490  12.531  0.1424  1.2017 -0.9489
  667MOL0     H90016   0.451   7.480  12.373  1.8266 -0.7825 -1.0661
  667MOL0     H90017   0.593   7.613  12.601  3.4537  1.9125 -1.2113
  667MOL0     H90018   0.616   7.636  12.427 -0.7805  0.8138  0.7375
  667MOL0     H90019   0.522   7.825  12.539  1.3264  0.6815 -1.6488
  667MOL0     H90020   0.382   7.730  12.590 -0.5959 -1.3898  0.6987
  667MOL0     H90021   0.482   7.806  12.314  0.3758 -2.7130 -1.9173
  667MOL0     H90022   0.336   7.716  12.310  0.6679  1.9212 -2.1141
  667MOL0     H90023   0.347   7.994  12.441  0.7652  0.7843 -0.8574
  667MOL0     H90024   0.230   7.870  12.477  2.2095  1.9131  3.3715
  667MOL0     H90025   0.158   7.883  12.231 -0.3240  0.0836 -0.4016
  667MOL0     H90026   0.313   7.956  12.187  2.6809 -0.9289  1.3273
  667MOL0     H90027   0.607   7.255  12.084  0.6797 -0.7937  0.6574
  667MOL0     H90028   0.608   7.066  11.922 -0.8199  0.1715  0.3279
  667MOL0     H90029   0.589   6.451  11.969  1.1363 -1.6443 -2.1490
  667MOL0     H90030   0.537   6.305  11.785 -0.5277  0.3452  1.7264
  667MOL0     H90031   0.052   7.209  10.198 -0.2596  1.5223  1.6845
  667MOL0     H90032   0.107   7.162   9.954 -1.9873 -0.2247 -0.9110
  667MOL0     H90033   0.097   7.305   9.533  1.1245  0.8617 -1.6231
  667MOL0     H90034   0.134   7.255   9.324  0.2253 -0.3451  0.3534
  667MOL0     H90035   0.208   7.182   9.101 -0.2736  1.8606  2.2994
  667MOL0     H90036   0.291   7.340   9.090  0.8982  0.2473  1.1809
  667MOL0     H90037   0.480   7.223   8.956 -0.0763 -1.1374 -0.8537
  667MOL0     H90038   0.325   7.246   8.870 -0.8209  0.2425  1.4100
  667MOL0     H90039   0.260   7.016   8.934  0.0771  1.0511 -1.3352
  667MOL0     H90040   0.404   7.012   9.046 -0.3439  0.8228 -0.7860
  667MOL0     H90041   0.445   6.866   8.845  1.7753 -0.2154 -4.4518
  667MOL0     H90042   0.544   6.995   8.844  0.2764  2.1622  2.0160
  667MOL0     H90043   0.308   6.985   8.487 -2.2626 -0.8747 -0.5641
  667MOL0     H90044   0.534   7.144   9.372 -0.9463 -0.2110 -2.1502
  667MOL0     H90045   0.496   7.159   9.631  1.9727 -0.0012 -0.8479
  668MOL0     O90046  11.450   9.075   1.917 -0.5671 -0.6790  0.1843
  668MOL0     C90047  11.502   8.973   1.966  0.3772  0.0653  0.2983
  668MOL0     O90048  11.482   8.934   2.105 -0.5790  0.0424  0.3003
  668MOL0     C90049  11.405   9.019   2.186 -0.0810  0.1613 -0.0748
  668MOL0     C90050  11.450   9.145   2.234  0.4434 -0.1282 -0.7749
  668MOL0     C90051  11.372   9.217   2.322  0.0216 -0.4042  0.3403
  668MOL0     C90052  11.245   9.168   2.371 -0.0044 -0.5673 -0.7497
  668MOL0     O90053  11.152   9.235   2.455 -0.3015 -0.1377 -0.1393
  668MOL0     C90054  11.203   9.348   2.532  0.2406  1.7053 -0.2879
  668MOL0     C90055  11.079   9.419   2.567  1.2508 -0.0991  0.0563
  668MOL0     C90056  10.981   9.321   2.643  0.1536 -0.2478  0.4235
  668MOL0     C90057  10.866   9.397   2.720  0.9024  0.9215  1.3760
  668MOL0     C90058  10.753   9.306   2.756  0.5771 -0.7460  0.1956
  668MOL0     C90059  10.669   9.379   2.861  0.0214 -0.5052  0.3657
  668MOL0     C90060  10.568   9.275   2.909 -0.5050 -0.3213 -0.0403
  668MOL0     C90061  10.517   9.319   3.053 -0.9565 -0.3088 -0.2076
  668MOL0     N90062  10.471   9.457   3.058  0.3113 -0.3581  0.1849
  668MOL0     C90063  10.544   9.563   3.092 -0.0484  1.0804 -0.3600
  668MOL0     C90064  10.456   9.661   3.116 -1.0689  1.2865 -0.1702
  668MOL0     C90065  10.478   9.786   3.193  0.3732  0.6351 -0.1627
  668MOL0     C90066  10.441   9.753   3.336  0.7869 -0.2130  0.1213
  668MOL0     C90067  10.428   9.873   3.432  0.3118  0.8752 -0.6256
  668MOL0     C90068  10.548   9.967   3.426 -0.1807  0.5269 -0.2039
  668MOL0     O90069  10.557  10.049   3.312 -0.0976  0.0919  0.4645
  668MOL0     C90070  10.661  10.145   3.306 -0.3369  0.9759  0.2582
  668MOL0     C90071  10.757  10.160   3.415  0.2777 -0.8018 -0.7589
  668MOL0     C90072  10.849  10.266   3.413 -0.0800 -1.1916 -0.0783
  668MOL0     C90073  10.948  10.268   3.517 -0.1821  0.2122 -0.7904
  668MOL0     C90074  10.843  10.361   3.306  0.0689  0.0736  0.7217
  668MOL0     C90075  10.914  10.489   3.308 -0.0003 -0.2696  0.0601
  668MOL0     O90076  10.965  10.533   3.189  0.3990  0.6628 -0.3816
  668MOL0     C90077  11.016  10.444   3.100  0.1319 -0.0962  0.1466
  668MOL0     C90078  10.971  10.435   2.967  0.1897  1.1538 -0.0663
  668MOL0     C90079  11.017  10.357   2.860 -0.3025 -0.0901  0.3035
  668MOL0     C90080  11.141  10.283   2.880  0.4991 -0.1633 -0.5971
  668MOL0     O90081  11.181  10.189   2.790 -0.1354 -0.8256 -0.9873
  668MOL0     C90082  11.295  10.108   2.810  0.5047 -0.2975  0.1391
  668MOL0     C90083  11.298  10.023   2.695 -0.0393  0.4208 -0.2710
  668MOL0     C90084  11.394   9.908   2.699 -0.6099  0.0344  0.3008
  668MOL0     C90085  11.334   9.778   2.636  0.2473  0.2517  0.5473
  668MOL0     C90086  11.423   9.658   2.637  0.2820  0.2745 -0.2968
  668MOL0     C90087  11.546   9.672   2.547 -1.0538 -0.1514 -0.2516
  668MOL0     C90088  11.674   9.614   2.610 -0.2286 -0.1381  0.3334
  668MOL0     C90089  11.796   9.633   2.525  0.9560 -0.6325  0.8694
  668MOL0    Cl90090  11.887   9.793   2.566  0.0426  0.0450  0.4111
  668MOL0     C90091  11.195  10.295   3.013  0.7044 -0.3490 -0.0272
  668MOL0     C90092  11.139  10.375   3.120 -0.4409 -0.1605 -0.0743
  668MOL0     O90093  10.924  10.559   3.414 -0.1636 -0.3501  0.2935
  668MOL0     C90094  10.744  10.339   3.202 -0.3476 -1.0006  0.0672
  668MOL0     C90095  10.651  10.238   3.204 -0.5819 -1.3848  0.2571
  668MOL0     N90096  10.335   9.620   3.077  0.2722  0.9885  0.5627
  668MOL0     N90097  10.341   9.486   3.043  0.1805 -0.1894  0.5607
  668MOL0     C90098  11.208   9.048   2.321  0.4898 -0.2565  0.7466
  668MOL0     C90099  11.289   8.966   2.231 -0.2246 -0.5168 -0.1573
  668MOL0     C90100  11.593   8.899   1.888  0.6545 -0.0183  0.0792
  668MOL0     C90101  11.583   8.912   1.751  1.6140 -0.0175  1.5218
  668MOL0     C90102  11.662   8.841   1.656 -0.4032  0.0785 -0.2307
  668MOL0     C90103  11.756   8.746   1.713 -0.3023  0.1583  0.1527
  668MOL0     O90104  11.814   8.669   1.622 -0.2186  0.4415  0.8179
  668MOL0     C90105  11.953   8.706   1.601  0.0713  0.2528  0.0163
  668MOL0     C90106  12.047   8.580   1.632 -0.4286 -0.1862  0.1371
  668MOL0     C90107  12.039   8.485   1.513  0.2383 -0.0707  0.4890
  668MOL0     C90108  12.128   8.364   1.535 -0.3909  0.1809  0.0342
  668MOL0     C90109  12.104   8.272   1.645  0.3094 -0.1936  1.0706
  668MOL0     C90110  12.065   8.179   1.717 -0.1111 -0.9366  0.1742
  668MOL0     C90111  11.763   8.723   1.854 -0.2055 -0.2061  0.0798
  668MOL0     C90112  11.678   8.793   1.944  0.3769  1.0851  0.7123
  668MOL0     H90113  11.546   9.182   2.198  0.1070  1.0494 -0.5186
  668MOL0     H90114  11.401   9.318   2.352 -0.6837  0.2903 -1.1872
  668MOL0     H90115  11.264   9.321   2.619 -1.4004  0.2495  0.4549
  668MOL0     H90116  11.266   9.417   2.474 -1.4219 -0.0584 -4.5383
  668MOL0     H90117  11.112   9.509   2.620 -0.4480 -1.1243  3.1234
  668MOL0     H90118  11.023   9.445   2.476 -2.3121 -0.3303  1.9790
  668MOL0     H90119  10.930   9.258   2.570 -2.5585  0.8276  1.2563
  668MOL0     H90120  11.029   9.249   2.711  2.3304 -1.1677 -1.9219
  668MOL0     H90121  10.914   9.435   2.811  1.7906  3.7863 -0.1602
  668MOL0     H90122  10.836   9.483   2.659 -0.3290 -0.7136 -0.4254
  668MOL0     H90123  10.684   9.278   2.676 -1.4535 -0.9445  1.9159
  668MOL0     H90124  10.798   9.213   2.793  0.5299 -0.9567 -0.2625
  668MOL0     H90125  10.731   9.416   2.943  1.3513  0.3552 -0.9917
  668MOL0     H90126  10.619   9.464   2.815 -0.2564 -1.1679 -0.5819
  668MOL0     H90127  10.487   9.269   2.837  0.3138  1.4992 -1.1885
  668MOL0     H90128  10.617   9.178   2.919  0.4928  0.2390  0.7646
  668MOL0     H90129  10.595   9.303   3.128 -1.4209  0.1266  0.3790
  668MOL0     H90130  10.428   9.264   3.088  3.4411 -6.0553  3.9313
  668MOL0     H90131  10.648   9.571   3.121 -0.3472  2.2705  0.3923
  668MOL0     H90132  10.583   9.814   3.193  0.2634  1.5850  3.4536
  668MOL0     H90133  10.419   9.871   3.156  0.7728  1.3646  0.8249
  668MOL0     H90134  10.521   9.693   3.380  0.1358 -1.4282 -0.3126
  668MOL0     H90135  10.351   9.691   3.330  1.2710 -0.8030 -1.6004
  668MOL0     H90136  10.413   9.824   3.529 -1.8799 -3.4831 -2.8641
  668MOL0     H90137  10.330   9.914   3.405 -1.2249  0.6026  3.7612
  668MOL0     H90138  10.634   9.901   3.438  0.5897  1.8120  1.9849
  668MOL0     H90139  10.554  10.027   3.517 -0.2196  0.7537 -0.3474
  668MOL0     H90140  10.761  10.082   3.490  1.8816  0.1929  0.2612
  668MOL0     H90141  10.910  10.205   3.598 -0.2147  0.5394 -0.5473
  668MOL0     H90142  11.050  10.259   3.478  0.3736  1.9217  0.1349
  668MOL0     H90143  10.945  10.367   3.564  3.8590 -0.1473  0.6460
  668MOL0     H90144  10.885  10.496   2.939  0.2028  1.2233  0.0451
  668MOL0     H90145  10.951  10.355   2.774  0.9567 -0.8349 -0.6838
  668MOL0     H90146  11.385  10.167   2.831  0.0022  0.3217  0.5889
  668MOL0     H90147  11.283  10.044   2.898 -2.1855  4.0318  3.2765
  668MOL0     H90148  11.199   9.978   2.685  1.2855 -2.2658 -2.7064
  668MOL0     H90149  11.313  10.091   2.611  3.0221  3.1573  2.2220
  668MOL0     H90150  11.435   9.897   2.800 -2.5249  3.5529  1.6483
  668MOL0     H90151  11.476   9.941   2.635 -1.0498 -2.1082 -1.4942
  668MOL0     H90152  11.247   9.763   2.701  0.1849 -3.4067 -0.2020
  668MOL0     H90153  11.307   9.800   2.533 -2.1410  0.6051  1.1849
  668MOL0     H90154  11.365   9.571   2.604  0.7308 -0.4717  0.8250
  668MOL0     H90155  11.455   9.653   2.741 -0.6637  1.9980  0.1027
  668MOL0     H90156  11.524   9.634   2.447 -0.7791  1.0402 -0.7784
  668MOL0     H90157  11.568   9.778   2.533 -1.9728  0.2877  1.4405
  668MOL0     H90158  11.662   9.507   2.632  0.0150 -1.0992 -3.4467
  668MOL0     H90159  11.701   9.676   2.696  4.0636 -0.4156 -0.5489
  668MOL0     H90160  11.763   9.635   2.421 -0.7175 -0.0743  1.3934
  668MOL0     H90161  11.861   9.545   2.536  0.7170 -1.0213 -0.6413
  668MOL0     H90162  11.284  10.242   3.045  0.9996 -0.1023 -0.4291
  668MOL0     H90163  11.187  10.379   3.217  1.3646  0.8260 -0.9655
  668MOL0     H90164  10.735  10.410   3.121  0.5797 -1.3505 -0.3601
  668MOL0     H90165  10.580  10.209   3.127 -0.7403  0.4951 -0.3566
  668MOL0     H90166  11.120   9.002   2.364  0.2106  0.3366  0.8253
  668MOL0     H90167  11.244   8.875   2.193 -0.6745  0.4493 -2.0557
  668MOL0     H90168  11.528   8.996   1.710  0.3615 -1.8484 -0.7757
  668MOL0     H90169  11.663   8.850   1.548 -3.6292  1.1143 -0.2741
  668MOL0     H90170  11.963   8.742   1.498  0.8653 -0.9554 -0.3529
  668MOL0     H90171  11.978   8.790   1.667  0.4968 -0.2332  0.4787
  668MOL0     H90172  12.015   8.525   1.721  1.8771 -4.0397 -1.1508
  668MOL0     H90173  12.148   8.621   1.645 -0.7531  1.4399 -1.8920
  668MOL0     H90174  12.068   8.534   1.420 -0.0963 -1.9787 -0.6854
  668MOL0     H90175  11.936   8.450   1.505 -0.0612  1.0876 -1.0747
  668MOL0     H90176  12.234   8.393   1.533 -0.4939  0.5375 -0.5069
  668MOL0     H90177  12.117   8.294   1.451  1.0699 -1.0726  0.8314
  668MOL0     H90178  12.037   8.093   1.775  0.1576 -0.2332  1.3810
  668MOL0     H90179  11.815   8.636   1.894 -1.1890 -0.4423  0.9030
  668MOL0     H90180  11.680   8.761   2.048  1.9724  0.0595  0.4047
  669MOL0     O90181  10.909   7.582   4.743  0.0020 -1.2313 -0.2094
  669MOL0     C90182  10.817   7.564   4.820 -0.6092 -0.2940  0.3675
  669MOL0     O90183  10.679   7.552   4.782  0.0106  0.6405  0.2615
  669MOL0     C90184  10.636   7.545   4.642 -0.3027 -0.0152  0.4602
  669MOL0     C90185  10.522   7.619   4.597  0.1967 -0.3977  0.0978
  669MOL0     C90186  10.468   7.615   4.467  0.1788 -0.9385  0.1604
  669MOL0     C90187  10.536   7.538   4.373 -1.0659 -0.2339  0.5297
  669MOL0     O90188  10.502   7.534   4.240  0.4430  0.3728  0.3219
  669MOL0     C90189  10.415   7.635   4.175  0.1966  0.6524 -0.3178
  669MOL0     C90190  10.455   7.628   4.024  0.1699  0.7371 -0.4153
  669MOL0     C90191  10.374   7.746   3.971  0.2463  0.2150  0.0311
  669MOL0     C90192  10.358   7.746   3.825  0.0827  0.0872 -0.2722
  669MOL0     C90193  10.261   7.863   3.785  0.8012  0.3867 -0.5802
  669MOL0     C90194  10.263   7.873   3.637 -0.3978  0.4384  0.2916
  669MOL0     C90195  10.195   7.994   3.583 -0.1922 -1.2354 -0.2553
  669MOL0     C90196  10.213   8.025   3.433 -0.9924 -0.1044 -0.1172
  669MOL0     N90197  10.275   7.905   3.355 -0.2910 -0.0870 -0.0430
  669MOL0     C90198  10.215   7.784   3.333 -0.1628 -0.9331 -0.3573
  669MOL0     C90199  10.297   7.715   3.257  0.0532  0.1491  0.4462
  669MOL0     C90200  10.278   7.560   3.214  0.2884 -0.6776 -0.0918
  669MOL0     C90201  10.253   7.553   3.060  0.0373 -0.6695  0.2231
  669MOL0     C90202  10.206   7.413   3.014 -0.6831  0.5539  0.1794
  669MOL0     C90203  10.309   7.305   3.069  0.1068 -0.1826  0.1683
  669MOL0     O90204  10.263   7.241   3.190 -0.8864 -0.3288  0.4599
  669MOL0     C90205  10.165   7.138   3.192  1.0192 -0.3542  0.6688
  669MOL0     C90206  10.113   7.097   3.314 -0.1472 -0.9213  1.2964
  669MOL0     C90207  10.017   6.998   3.328  0.0368 -1.1605 -0.2416
  669MOL0     C90208   9.974   6.965   3.466 -0.2469  1.1493  0.2226
  669MOL0     C90209   9.974   6.925   3.216 -0.1589  0.4117 -0.3223
  669MOL0     C90210   9.881   6.799   3.215 -0.5582 -0.1607 -0.2774
  669MOL0     O90211   9.866   6.723   3.100 -0.0942 -0.0899 -0.5382
  669MOL0     C90212   9.832   6.592   3.118  0.0167  0.4815  0.4039
  669MOL0     C90213   9.934   6.500   3.093  1.2713  0.1616 -1.1963
  669MOL0     C90214   9.910   6.370   3.111 -0.1200  0.4906  0.0020
  669MOL0     C90215   9.790   6.314   3.155 -0.0457 -0.0087 -0.0816
  669MOL0     O90216   9.781   6.176   3.182 -0.3054  0.5491  0.0028
  669MOL0     C90217   9.674   6.111   3.109  0.6882  0.0308 -0.0065
  669MOL0     C90218   9.720   5.992   3.031  0.2831  0.0977  0.7750
  669MOL0     C90219   9.811   6.031   2.913 -0.7989  1.0607 -0.2595
  669MOL0     C90220   9.751   6.140   2.819  0.7377  0.4985  0.9925
  669MOL0     C90221   9.849   6.172   2.703  0.4489  0.1820 -0.0963
  669MOL0     C90222   9.970   6.262   2.728 -0.4705  0.3556 -0.4918
  669MOL0     C90223   9.978   6.362   2.614  0.2454  0.5131 -0.3932
  669MOL0     C90224  10.045   6.488   2.660 -0.0492  0.4198  0.0654
  669MOL0    Cl90225  10.215   6.455   2.706 -0.1395  0.3892 -0.3164
  669MOL0     C90226   9.685   6.401   3.170  0.0050 -0.2805  1.5015
  669MOL0     C90227   9.702   6.538   3.159 -0.8788 -0.4003 -0.7430
  669MOL0     O90228   9.817   6.773   3.320 -0.4497 -0.1418 -0.6323
  669MOL0     C90229  10.029   6.963   3.097 -1.1742 -0.5459 -0.0105
  669MOL0     C90230  10.116   7.071   3.080 -0.1650 -0.3861 -0.4386
  669MOL0     N90231  10.410   7.800   3.233 -0.4690  1.1137  0.1335
  669MOL0     N90232  10.402   7.906   3.299  0.1734  0.3039  0.0921
  669MOL0     C90233  10.638   7.457   4.411  0.3870  0.9568  0.6035
  669MOL0     C90234  10.688   7.455   4.544 -0.0425  0.3324 -0.3083
  669MOL0     C90235  10.856   7.555   4.958  0.2625  0.6448  0.2342
  669MOL0     C90236  10.787   7.478   5.050 -0.1089  1.4237 -0.2075
  669MOL0     C90237  10.829   7.456   5.178 -0.7826 -0.4691 -0.4942
  669MOL0     C90238  10.952   7.513   5.226 -0.0740 -0.0069 -0.4927
  669MOL0     O90239  10.978   7.491   5.354 -0.3370 -0.1970 -0.2273
  669MOL0     C90240  11.087   7.557   5.427 -0.1915 -0.8424 -0.4574
  669MOL0     C90241  11.161   7.461   5.530 -0.2103 -0.4688 -0.0881
  669MOL0     C90242  11.298   7.503   5.560  0.3440 -0.2892 -0.1870
  669MOL0     C90243  11.377   7.402   5.634  0.0881  0.7530 -1.1433
  669MOL0     C90244  11.513   7.444   5.639 -0.3720 -0.5603  0.1569
  669MOL0     C90245  11.622   7.496   5.652  0.5350 -0.2772  1.0688
  669MOL0     C90246  11.017   7.600   5.137  1.1012  1.0054 -0.0885
  669MOL0     C90247  10.971   7.603   5.007  1.1538 -0.0771  0.2226
  669MOL0     H90248  10.468   7.695   4.652 -1.1456 -2.0162  1.1231
  669MOL0     H90249  10.377   7.667   4.440  0.4398 -1.9572 -3.1155
  669MOL0     H90250  10.309   7.618   4.198  0.6173  0.1548  1.4209
  669MOL0     H90251  10.448   7.731   4.215  0.6907 -0.8605  3.2918
  669MOL0     H90252  10.564   7.636   4.017  0.2931  1.2290  1.4007
  669MOL0     H90253  10.433   7.535   3.971 -1.8009  1.4466 -0.9142
  669MOL0     H90254  10.271   7.741   4.007  0.0496 -0.8146 -0.6429
  669MOL0     H90255  10.417   7.841   4.002  1.3129 -0.5020  0.8236
  669MOL0     H90256  10.458   7.744   3.779  0.9941  2.5651  1.3953
  669MOL0     H90257  10.302   7.653   3.810  3.1007 -1.9206 -0.0610
  669MOL0     H90258  10.162   7.844   3.828  0.8073  0.7804 -0.3880
  669MOL0     H90259  10.294   7.955   3.835 -1.5597 -0.1299  2.2306
  669MOL0     H90260  10.366   7.867   3.602  0.3012 -0.2291  2.2814
  669MOL0     H90261  10.213   7.786   3.592 -1.8572 -0.5517  3.4944
  669MOL0     H90262  10.088   7.980   3.601 -0.4601  0.1147 -0.7213
  669MOL0     H90263  10.218   8.085   3.639 -0.5187 -1.8594  0.9313
  669MOL0     H90264  10.291   8.102   3.431 -1.2851  0.1714 -1.0425
  669MOL0     H90265  10.117   8.057   3.393 -1.9670 -1.6707  0.8291
  669MOL0     H90266  10.126   7.744   3.380 -0.3740 -0.3432 -0.2444
  669MOL0     H90267  10.357   7.498   3.257 -0.8439 -0.9775  1.6669
  669MOL0     H90268  10.189   7.524   3.267  0.2109 -1.1441 -0.5303
  669MOL0     H90269  10.344   7.583   3.007 -0.8924 -0.5717 -1.3727
  669MOL0     H90270  10.180   7.631   3.037  2.3385  0.8357 -2.7158
  669MOL0     H90271  10.224   7.386   2.909  0.1534 -4.7011  1.3898
  669MOL0     H90272  10.104   7.393   3.049  0.2225 -2.9757  1.1874
  669MOL0     H90273  10.409   7.346   3.079 -0.8424  1.9101  2.0099
  669MOL0     H90274  10.317   7.231   2.988  1.0397  2.7016 -2.5534
  669MOL0     H90275  10.149   7.137   3.409 -3.6422  0.1326  2.3626
  669MOL0     H90276  10.027   7.024   3.541  2.1432 -0.3457 -0.1807
  669MOL0     H90277   9.867   6.986   3.469 -0.8836 -0.5316 -3.8591
  669MOL0     H90278   9.998   6.863   3.496 -0.9837  1.3195  1.4670
  669MOL0     H90279  10.026   6.548   3.061  0.4324  1.0920 -2.3035
  669MOL0     H90280   9.987   6.298   3.085 -2.1498 -0.5155 -3.9561
  669MOL0     H90281   9.608   6.059   3.179 -1.2311 -0.8658 -2.3023
  669MOL0     H90282   9.603   6.174   3.056  1.5481 -1.2398 -2.9418
  669MOL0     H90283   9.765   5.919   3.099 -0.2485  0.5213  1.5831
  669MOL0     H90284   9.649   5.928   2.977  2.1433 -2.1357  0.7974
  669MOL0     H90285   9.839   5.948   2.846 -0.8119  1.3004 -0.5668
  669MOL0     H90286   9.900   6.068   2.965 -0.2309 -0.1086 -0.3631
  669MOL0     H90287   9.653   6.107   2.784  1.9588 -0.1074 -2.2382
  669MOL0     H90288   9.745   6.235   2.871  4.9370 -0.3119  3.4533
  669MOL0     H90289   9.790   6.213   2.621  2.4668  0.4441 -1.5154
  669MOL0     H90290   9.879   6.078   2.656 -0.5485 -0.0878 -0.1959
  669MOL0     H90291   9.972   6.306   2.828  1.3852 -2.8485  1.0114
  669MOL0     H90292  10.063   6.205   2.726 -1.0179 -0.5498 -2.2521
  669MOL0     H90293   9.879   6.402   2.590  1.1171  3.5201  0.4992
  669MOL0     H90294  10.018   6.308   2.528 -0.7158 -1.9161  0.5983
  669MOL0     H90295   9.986   6.519   2.747 -0.2829 -1.7800  0.7530
  669MOL0     H90296  10.049   6.557   2.576  2.0284 -0.7758 -0.8945
  669MOL0     H90297   9.599   6.366   3.225  0.5170  1.3127  3.4531
  669MOL0     H90298   9.624   6.612   3.177 -0.5769 -0.7463  2.6204
  669MOL0     H90299  10.002   6.907   3.008  0.7098 -1.8724  0.1869
  669MOL0     H90300  10.143   7.105   2.981  1.3524  0.1164  0.1257
  669MOL0     H90301  10.681   7.386   4.340 -1.0725  1.5603 -0.9547
  669MOL0     H90302  10.772   7.391   4.571  0.5954  1.3786  0.2263
  669MOL0     H90303  10.702   7.421   5.012  1.9103 -1.3861 -0.8263
  669MOL0     H90304  10.775   7.376   5.228  2.6373 -2.6111  0.0716
  669MOL0     H90305  11.175   7.593   5.373  0.3139 -1.2132  0.0995
  669MOL0     H90306  11.038   7.636   5.483 -1.8900 -0.8876 -1.7837
  669MOL0     H90307  11.160   7.359   5.490 -0.3513 -0.9170  1.0396
  669MOL0     H90308  11.102   7.469   5.622 -0.2763  3.0566 -0.3037
  669MOL0     H90309  11.289   7.590   5.627  2.9430  0.2744 -0.4699
  669MOL0     H90310  11.346   7.548   5.473 -1.9001  2.9623  0.0790
  669MOL0     H90311  11.367   7.306   5.584  1.5979 -0.4933  0.7652
  669MOL0     H90312  11.336   7.380   5.733 -1.5596 -2.7938 -2.4635
  669MOL0     H90313  11.728   7.507   5.648  0.3339  1.9098 -0.1235
  669MOL0     H90314  11.104   7.648   5.182  0.3292  1.1297  1.3089
  669MOL0     H90315  11.031   7.659   4.935  1.3014 -1.6881 -0.9584
  670MOL0     O90316   4.467   5.794   9.197  0.1960 -0.3034  0.4944
  670MOL0     C90317   4.561   5.737   9.260  0.3541 -0.2990  0.4136
  670MOL0     O90318   4.544   5.643   9.360 -0.0359  0.6928  0.2685
  670MOL0     C90319   4.422   5.606   9.407  0.3738 -0.1212 -0.2866
  670MOL0     C90320   4.310   5.688   9.416  0.8495  0.3730  0.0366
  670MOL0     C90321   4.187   5.641   9.462  0.5527 -0.4132  0.2258
  670MOL0     C90322   4.172   5.509   9.500  0.5030 -0.1785  0.4653
  670MOL0     O90323   4.047   5.449   9.528  0.4525 -0.4264 -0.7288
  670MOL0     C90324   3.935   5.514   9.491  0.9212 -0.5601  0.2346
  670MOL0     C90325   3.839   5.405   9.451  0.4732 -0.4057 -0.1947
  670MOL0     C90326   3.780   5.334   9.571  0.8527  0.3748  0.0730
  670MOL0     C90327   3.644   5.273   9.538 -0.4595  0.8003 -1.1200
  670MOL0     C90328   3.569   5.220   9.661 -0.4855 -0.7927  0.0729
  670MOL0     C90329   3.433   5.173   9.643  0.1730 -0.4153 -0.0607
  670MOL0     C90330   3.411   5.048   9.562 -0.6407  0.4174 -0.1372
  670MOL0     C90331   3.424   5.051   9.409 -0.7706  0.9584 -0.2193
  670MOL0     N90332   3.305   5.010   9.340  0.3842 -0.1987  1.5446
  670MOL0     C90333   3.216   5.092   9.264 -0.2574 -0.2242 -0.1793
  670MOL0     C90334   3.108   5.020   9.253  0.1260 -0.1117  0.2400
  670MOL0     C90335   2.982   5.075   9.185  0.0525  0.1635  1.0068
  670MOL0     C90336   3.009   5.143   9.042 -0.6335  0.2571 -0.0277
  670MOL0     C90337   2.869   5.138   8.972 -0.0323 -0.8567  0.4755
  670MOL0     C90338   2.886   5.214   8.831  0.6365 -0.3572 -0.3299
  670MOL0     O90339   2.774   5.303   8.830 -0.0863  0.2816  0.4394
  670MOL0     C90340   2.641   5.257   8.794 -0.1582 -0.4118  1.3810
  670MOL0     C90341   2.615   5.119   8.779 -0.0039 -0.0905 -0.3613
  670MOL0     C90342   2.487   5.083   8.730 -0.5377  0.5982 -0.4517
  670MOL0     C90343   2.468   4.931   8.716 -0.5167 -0.7928 -0.0530
  670MOL0     C90344   2.386   5.182   8.686  0.0966 -0.4124  0.2493
  670MOL0     C90345   2.249   5.147   8.637  0.0962 -0.0760  0.3707
  670MOL0     O90346   2.153   5.232   8.674 -0.4744 -0.5404 -0.2833
  670MOL0     C90347   2.036   5.172   8.674 -0.0927 -0.0741 -0.7072
  670MOL0     C90348   1.948   5.213   8.577 -1.3185 -0.1193  1.3326
  670MOL0     C90349   1.823   5.162   8.569  0.2952  0.8489  0.1020
  670MOL0     C90350   1.779   5.072   8.670  0.5980 -0.5499  0.3267
  670MOL0     O90351   1.653   5.016   8.650  0.6437 -0.4652  0.1440
  670MOL0     C90352   1.636   4.888   8.696  0.1171  0.1197  0.7699
  670MOL0     C90353   1.501   4.843   8.624  1.1288 -0.3897 -0.2897
  670MOL0     C90354   1.455   4.705   8.654 -0.4803 -0.2098  0.0017
  670MOL0     C90355   1.450   4.626   8.532 -0.6352 -0.3272  0.2297
  670MOL0     C90356   1.397   4.483   8.553  0.1052 -0.7151 -0.2463
  670MOL0     C90357   1.267   4.464   8.640 -0.3424 -0.4595 -0.5611
  670MOL0     C90358   1.148   4.535   8.565 -0.6681  1.2348 -0.5514
  670MOL0     C90359   1.010   4.493   8.622  0.3741 -0.2643  0.0461
  670MOL0    Cl90360   0.877   4.597   8.556 -0.5272  0.2430  0.0764
  670MOL0     C90361   1.868   5.024   8.770  0.5692 -0.1379  0.5384
  670MOL0     C90362   1.994   5.081   8.771  0.6129 -0.6464 -0.5616
  670MOL0     O90363   2.236   5.041   8.577 -0.3049  0.3354  0.2781
  670MOL0     C90364   2.421   5.311   8.701  0.2443 -0.9531  0.0275
  670MOL0     C90365   2.540   5.353   8.753 -0.1817  0.6880 -0.1863
  670MOL0     N90366   3.133   4.892   9.304  0.1088 -0.3145 -0.0868
  670MOL0     N90367   3.254   4.886   9.348  0.6809 -0.2023  0.2454
  670MOL0     C90368   4.282   5.420   9.487 -0.7284  0.5773  0.1504
  670MOL0     C90369   4.407   5.472   9.447 -0.5586 -0.3923 -0.3237
  670MOL0     C90370   4.706   5.764   9.225  0.8275  0.5477  0.1819
  670MOL0     C90371   4.737   5.856   9.115 -0.1552  0.1670 -0.5415
  670MOL0     C90372   4.871   5.878   9.073 -0.7219 -0.5703 -0.1356
  670MOL0     C90373   4.976   5.799   9.137 -0.6122  0.0209  0.3955
  670MOL0     O90374   5.102   5.830   9.086  0.0362  0.8441 -0.7582
  670MOL0     C90375   5.222   5.766   9.138  0.3623 -0.3174  0.4144
  670MOL0     C90376   5.249   5.623   9.076 -0.1587  0.9822 -0.4117
  670MOL0     C90377   5.225   5.616   8.926  0.3794 -0.2399  0.3144
  670MOL0     C90378   5.284   5.490   8.881  0.2710 -0.2263 -0.4091
  670MOL0     C90379   5.267   5.477   8.738 -0.5374 -1.0876  0.0694
  670MOL0     C90380   5.253   5.462   8.619  0.2728 -0.3118  0.0544
  670MOL0     C90381   4.949   5.699   9.230 -0.1910 -0.2131 -0.5101
  670MOL0     C90382   4.815   5.691   9.271  0.6094 -0.8667  0.3286
  670MOL0     H90383   4.307   5.792   9.385 -0.1608 -0.7551 -4.4102
  670MOL0     H90384   4.100   5.707   9.466 -2.5781 -4.1250 -0.6462
  670MOL0     H90385   3.883   5.571   9.569 -0.0736  3.0951 -2.8051
  670MOL0     H90386   3.947   5.572   9.399 -0.7276 -0.2561  0.1813
  670MOL0     H90387   3.764   5.458   9.392 -0.5499 -0.1404  1.2883
  670MOL0     H90388   3.894   5.339   9.384  2.7492  2.2121 -1.1214
  670MOL0     H90389   3.863   5.273   9.606  3.3281  2.6530 -1.3529
  670MOL0     H90390   3.755   5.399   9.655 -1.1192  0.7776 -0.7686
  670MOL0     H90391   3.577   5.350   9.499 -0.5076  1.9751  1.0710
  670MOL0     H90392   3.644   5.200   9.457 -4.6233 -0.7989  0.1024
  670MOL0     H90393   3.632   5.133   9.682  2.9447  1.5145  0.1147
  670MOL0     H90394   3.583   5.290   9.745  0.4008  0.0610 -0.7594
  670MOL0     H90395   3.398   5.167   9.747 -0.9821  1.2894 -0.3077
  670MOL0     H90396   3.376   5.257   9.603  0.9999  0.4116  0.4459
  670MOL0     H90397   3.486   4.978   9.600 -0.7473  1.5547  2.3936
  670MOL0     H90398   3.317   4.997   9.584 -1.2824  1.3493 -0.6289
  670MOL0     H90399   3.491   4.971   9.375  1.5717  1.6197  2.4398
  670MOL0     H90400   3.458   5.152   9.382 -0.1109  1.5116  2.3773
  670MOL0     H90401   3.237   5.196   9.239  0.3330 -0.4213 -0.5490
  670MOL0     H90402   2.897   5.006   9.185 -1.5457  1.9800 -0.8293
  670MOL0     H90403   2.956   5.159   9.250 -0.0932  0.0550  1.0894
  670MOL0     H90404   3.071   5.072   8.986 -2.0948 -4.7548  3.9811
  670MOL0     H90405   3.035   5.247   9.060  0.0713  0.1894 -0.6076
  670MOL0     H90406   2.791   5.183   9.034  2.0003  0.9294  1.8616
  670MOL0     H90407   2.836   5.034   8.967 -2.8068 -0.0219 -0.9621
  670MOL0     H90408   2.884   5.131   8.759  0.3847 -0.5875 -0.0593
  670MOL0     H90409   2.977   5.270   8.808  0.4331 -1.0775 -3.3945
  670MOL0     H90410   2.683   5.036   8.791 -0.6969 -0.3838  1.9642
  670MOL0     H90411   2.373   4.908   8.765  0.9378 -0.9186  2.9216
  670MOL0     H90412   2.471   4.919   8.608  1.4062  0.6175 -0.2088
  670MOL0     H90413   2.543   4.869   8.765 -1.3206 -0.8809  1.1227
  670MOL0     H90414   1.993   5.294   8.521 -0.0755 -1.5188  0.2198
  670MOL0     H90415   1.755   5.188   8.488 -0.9307 -1.0396  0.4671
  670MOL0     H90416   1.720   4.827   8.661 -0.7073 -0.8021  0.3489
  670MOL0     H90417   1.625   4.891   8.805  0.4929  1.1543  0.7919
  670MOL0     H90418   1.417   4.906   8.656  2.0500 -0.0048  1.4617
  670MOL0     H90419   1.512   4.860   8.516  0.6444  0.5208 -0.2153
  670MOL0     H90420   1.353   4.711   8.694 -1.5137 -2.1481 -2.0554
  670MOL0     H90421   1.526   4.666   8.728 -0.0961 -0.2045 -0.3635
  670MOL0     H90422   1.384   4.669   8.456 -0.0737 -3.6701 -2.3915
  670MOL0     H90423   1.552   4.623   8.492 -0.2617 -0.8639  1.2009
  670MOL0     H90424   1.481   4.429   8.596  0.3077 -0.8865 -0.8449
  670MOL0     H90425   1.388   4.433   8.456  2.1366  0.6002 -1.1934
  670MOL0     H90426   1.251   4.356   8.647  0.4066 -0.5960 -0.7939
  670MOL0     H90427   1.280   4.514   8.736 -0.3284 -0.2738 -0.6602
  670MOL0     H90428   1.157   4.520   8.457  1.8403  0.6505 -0.3288
  670MOL0     H90429   1.151   4.641   8.592 -2.9279  0.9911  0.9457
  670MOL0     H90430   1.002   4.500   8.731 -1.5751  0.6994 -0.1059
  670MOL0     H90431   0.996   4.392   8.584  1.2053  0.1567 -1.4425
  670MOL0     H90432   1.841   4.950   8.844  1.3548 -0.9513  0.0310
  670MOL0     H90433   2.060   5.049   8.851 -1.1863 -1.2038  0.7564
  670MOL0     H90434   2.346   5.384   8.670  0.4195 -0.8031 -0.0491
  670MOL0     H90435   2.570   5.452   8.784  1.9288 -0.4190  1.5978
  670MOL0     H90436   4.294   5.327   9.542  3.3032  0.7433 -0.1415
  670MOL0     H90437   4.494   5.408   9.445  0.3957  0.8714 -1.2494
  670MOL0     H90438   4.655   5.903   9.061 -0.5698 -1.2378 -1.1824
  670MOL0     H90439   4.903   5.949   8.997  2.0613  0.8473  2.1809
  670MOL0     H90440   5.309   5.831   9.122 -0.3213  0.2889 -1.1151
  670MOL0     H90441   5.204   5.755   9.245 -5.2684 -1.9814 -0.3817
  670MOL0     H90442   5.190   5.549   9.131  2.8136 -0.2534  1.3276
  670MOL0     H90443   5.347   5.587   9.107 -0.8734 -0.6064  0.0832
  670MOL0     H90444   5.271   5.698   8.871  0.3649 -3.0835 -4.6130
  670MOL0     H90445   5.118   5.626   8.906  0.8477  4.5487 -0.8173
  670MOL0     H90446   5.228   5.410   8.930 -1.3996  0.9088 -0.3896
  670MOL0     H90447   5.390   5.485   8.906 -0.1091  0.3103  1.4060
  670MOL0     H90448   5.222   5.455   8.517  2.7695  2.8291 -1.0821
  670MOL0     H90449   5.031   5.652   9.283 -1.0413 -0.4027  0.6660
  670MOL0     H90450   4.794   5.617   9.348 -0.4027  1.5962  2.5943
  671MOL0     O90451   8.802   0.088   9.508 -0.6695 -0.3968  0.2159
  671MOL0     C90452   8.756   0.142   9.408  0.9256  0.5805 -0.6335
  671MOL0     O90453   8.745   0.084   9.287  0.7044 -0.4348  0.2878
  671MOL0     C90454   8.748  -0.047   9.269 -0.9439  0.1122  0.2919
  671MOL0     C90455   8.854  -0.126   9.208  0.9850 -0.5490  0.6691
  671MOL0     C90456   8.833  -0.259   9.174 -1.1742 -0.2990 -0.3591
  671MOL0     C90457   8.721  -0.323   9.212 -0.9617  0.3098 -0.5354
  671MOL0     O90458   8.723  -0.462   9.199 -0.6505  0.6834 -0.2795
  671MOL0     C90459   8.738  -0.524   9.329  0.0479 -0.0562 -0.0289
  671MOL0     C90460   8.760  -0.676   9.318  0.4896  0.7761 -0.2525
  671MOL0     C90461   8.761  -0.742   9.458  0.0572 -1.1768 -0.4039
  671MOL0     C90462   8.766  -0.898   9.450 -0.0498  0.2884 -1.3619
  671MOL0     C90463   8.756  -0.962   9.585 -0.5665 -0.3037 -0.5698
  671MOL0     C90464   8.773  -1.119   9.595 -0.8627 -0.3155  0.5709
  671MOL0     C90465   8.792  -1.157   9.744 -0.5544 -0.4772  0.8857
  671MOL0     C90466   8.897  -1.263   9.765 -0.0413  0.1691 -0.2442
  671MOL0     N90467   8.850  -1.398   9.723  0.2683 -0.1140  0.3920
  671MOL0     C90468   8.756  -1.472   9.778 -0.0761  0.1939 -1.6552
  671MOL0     C90469   8.761  -1.595   9.723 -0.0956 -0.2222 -0.6044
  671MOL0     C90470   8.673  -1.711   9.749  0.0120  1.0322 -0.7593
  671MOL0     C90471   8.742  -1.807   9.852 -0.0702 -0.1969  0.2473
  671MOL0     C90472   8.659  -1.932   9.897  0.2213  0.2246 -0.2865
  671MOL0     C90473   8.758  -2.029   9.968 -0.3374  0.2969  0.8007
  671MOL0     O90474   8.690  -2.137  10.022 -0.3678  0.1955  0.2341
  671MOL0     C90475   8.694  -2.263   9.965 -0.1726 -0.4573 -0.1386
  671MOL0     C90476   8.659  -2.380  10.041 -0.7145 -0.2550 -0.5960
  671MOL0     C90477   8.658  -2.513   9.996 -0.3977  1.0140 -0.0612
  671MOL0     C90478   8.594  -2.617  10.089  0.5162  0.4220  1.1520
  671MOL0     C90479   8.704  -2.542   9.863 -0.3443  0.7187 -0.5575
  671MOL0     C90480   8.713  -2.678   9.798 -0.3117 -0.7053  0.4300
  671MOL0     O90481   8.679  -2.792   9.866 -0.0166  0.7283  0.2581
  671MOL0     C90482   8.662  -2.919   9.814 -0.7261 -0.4143 -0.1159
  671MOL0     C90483   8.691  -2.965   9.683 -0.1920 -0.1801  0.2331
  671MOL0     C90484   8.672  -3.091   9.656  1.3519  0.2130 -0.0295
  671MOL0     C90485   8.620  -3.183   9.746 -0.3271 -0.2445 -0.3211
  671MOL0     O90486   8.568  -3.310   9.711 -0.6565  0.3081 -0.5020
  671MOL0     C90487   8.558  -3.361   9.581 -0.2537 -0.2039  0.3342
  671MOL0     C90488   8.473  -3.488   9.591  0.2232 -0.0528 -0.1148
  671MOL0     C90489   8.467  -3.569   9.456 -0.2572 -0.9934 -0.4456
  671MOL0     C90490   8.386  -3.693   9.459  0.4211 -0.0464  0.0953
  671MOL0     C90491   8.422  -3.774   9.338 -0.5761  0.5526 -0.1504
  671MOL0     C90492   8.318  -3.885   9.335 -0.6488  0.2365  0.2625
  671MOL0     C90493   8.354  -3.955   9.207  0.5849  0.2820 -0.4380
  671MOL0     C90494   8.258  -4.068   9.198  0.1731 -0.8612 -0.0249
  671MOL0    Cl90495   8.236  -4.135   9.039 -0.4280 -0.1709 -0.1556
  671MOL0     C90496   8.605  -3.144   9.872  0.6888 -0.7430 -0.5463
  671MOL0     C90497   8.611  -3.005   9.912 -0.6192 -0.5656  0.1831
  671MOL0     O90498   8.748  -2.675   9.678  0.2831 -0.0979  0.3016
  671MOL0     C90499   8.746  -2.429   9.792 -0.3165 -0.0846  0.6484
  671MOL0     C90500   8.731  -2.297   9.834 -1.0237  0.6709 -0.1290
  671MOL0     N90501   8.850  -1.592   9.619 -0.5121  0.5949  0.1464
  671MOL0     N90502   8.902  -1.470   9.616 -0.3135  0.7190  0.3737
  671MOL0     C90503   8.619  -0.248   9.278 -0.5844  0.1678  0.0270
  671MOL0     C90504   8.630  -0.114   9.291 -0.3305 -0.6416  0.1759
  671MOL0     C90505   8.700   0.275   9.444 -0.3832  0.2121  0.0038
  671MOL0     C90506   8.635   0.349   9.339  0.7016  0.9667  0.5350
  671MOL0     C90507   8.612   0.485   9.347 -1.2242  0.7397  0.3294
  671MOL0     C90508   8.620   0.545   9.475  0.6715  0.4011  0.6831
  671MOL0     O90509   8.597   0.682   9.492  1.2525 -0.6932  0.1573
  671MOL0     C90510   8.477   0.723   9.440  0.4881 -0.4940 -0.5340
  671MOL0     C90511   8.482   0.886   9.461 -0.5334  1.2265  0.9321
  671MOL0     C90512   8.469   0.930   9.606  1.0048 -0.3274 -1.2353
  671MOL0     C90513   8.332   0.929   9.665  0.6365  0.6461  0.1881
  671MOL0     C90514   8.255   1.048   9.634 -0.2505 -0.0074  0.6864
  671MOL0     C90515   8.204   1.158   9.622  0.1048  0.4306  0.6645
  671MOL0     C90516   8.662   0.475   9.593 -0.6107 -0.3390 -1.0816
  671MOL0     C90517   8.705   0.341   9.569  0.1964  0.5359  0.6235
  671MOL0     H90518   8.947  -0.073   9.189 -0.9984  2.2929 -2.0659
  671MOL0     H90519   8.914  -0.322   9.139  0.2119  1.3216 -0.1669
  671MOL0     H90520   8.820  -0.488   9.393 -1.6201  0.1136  2.1361
  671MOL0     H90521   8.648  -0.495   9.384  1.6242  1.3696  1.9767
  671MOL0     H90522   8.683  -0.718   9.252 -0.5017  0.6622  0.9238
  671MOL0     H90523   8.855  -0.697   9.269  1.0100  1.1237  0.5911
  671MOL0     H90524   8.848  -0.714   9.517 -1.0120  1.2846  0.1568
  671MOL0     H90525   8.667  -0.711   9.505 -1.4400  1.1646 -4.3967
  671MOL0     H90526   8.690  -0.936   9.381 -0.1136  0.5929 -1.4592
  671MOL0     H90527   8.859  -0.931   9.403  0.5843 -1.2455  0.7843
  671MOL0     H90528   8.829  -0.910   9.647 -0.3299  1.6328 -2.3434
  671MOL0     H90529   8.656  -0.938   9.623 -0.4119  2.0961 -1.4799
  671MOL0     H90530   8.693  -1.172   9.541 -0.9835  0.2934  0.1470
  671MOL0     H90531   8.865  -1.146   9.542 -2.4795 -0.1864 -2.5288
  671MOL0     H90532   8.830  -1.066   9.793  0.9071  0.4749 -1.7770
  671MOL0     H90533   8.700  -1.194   9.790 -1.6771 -0.8602 -1.5010
  671MOL0     H90534   8.915  -1.274   9.872 -3.4570  0.3132  0.4719
  671MOL0     H90535   8.984  -1.239   9.704 -0.5386  0.9907 -0.6523
  671MOL0     H90536   8.693  -1.434   9.858  0.8588  3.0993 -2.1527
  671MOL0     H90537   8.580  -1.666   9.785 -0.2378  2.4269 -2.9694
  671MOL0     H90538   8.656  -1.754   9.650 -1.0709 -0.2159 -0.0607
  671MOL0     H90539   8.765  -1.739   9.934 -1.0917  0.7942 -0.2643
  671MOL0     H90540   8.839  -1.839   9.812  1.3372  2.0400  1.6709
  671MOL0     H90541   8.617  -1.991   9.815  1.4435 -0.1898 -0.6475
  671MOL0     H90542   8.588  -1.896   9.972 -2.1691 -1.6937 -1.4987
  671MOL0     H90543   8.812  -1.972  10.044  0.1529 -1.1293  1.5534
  671MOL0     H90544   8.843  -2.055   9.903 -0.8749  1.5319 -0.4551
  671MOL0     H90545   8.640  -2.362  10.147 -1.5771  0.7738 -0.9018
  671MOL0     H90546   8.660  -2.665  10.162 -0.5276 -2.3238  0.4008
  671MOL0     H90547   8.524  -2.573  10.161 -0.9250  0.4216 -0.1944
  671MOL0     H90548   8.532  -2.686  10.031 -0.7836  1.3120  1.4464
  671MOL0     H90549   8.738  -2.898   9.611 -1.1600 -1.1255 -1.3278
  671MOL0     H90550   8.685  -3.122   9.552 -0.2686 -1.0217  0.0885
  671MOL0     H90551   8.515  -3.280   9.521  1.8867  1.7291  1.2758
  671MOL0     H90552   8.656  -3.382   9.537 -0.4514 -2.3975  0.8236
  671MOL0     H90553   8.502  -3.552   9.676  1.3309  0.1077 -0.3486
  671MOL0     H90554   8.370  -3.463   9.618 -0.0240 -1.9864  0.9483
  671MOL0     H90555   8.568  -3.598   9.426 -1.0194 -2.3143 -1.8604
  671MOL0     H90556   8.423  -3.501   9.383 -1.8169  0.8661  2.0727
  671MOL0     H90557   8.409  -3.755   9.546  2.0492 -1.4185 -1.2338
  671MOL0     H90558   8.279  -3.673   9.466  0.3029 -0.9991  1.7352
  671MOL0     H90559   8.525  -3.808   9.352  0.3143  3.6956  1.8508
  671MOL0     H90560   8.410  -3.717   9.245 -1.1133 -0.3288 -0.6398
  671MOL0     H90561   8.323  -3.952   9.422 -1.2188  1.2382  1.0944
  671MOL0     H90562   8.213  -3.854   9.337 -0.6479  0.3207 -0.5831
  671MOL0     H90563   8.455  -3.997   9.215  0.1141 -0.5788  1.5548
  671MOL0     H90564   8.347  -3.882   9.126  0.4386  1.5966  0.7110
  671MOL0     H90565   8.158  -4.037   9.231  0.9895  1.4855  0.4231
  671MOL0     H90566   8.292  -4.147   9.266  0.4785 -0.1019  0.7107
  671MOL0     H90567   8.572  -3.212   9.949  0.1250 -2.1297 -1.9613
  671MOL0     H90568   8.590  -2.968  10.012 -0.3989  0.3944 -0.1145
  671MOL0     H90569   8.786  -2.439   9.692  1.9522  3.2704  1.0604
  671MOL0     H90570   8.761  -2.215   9.770  4.6608  0.5398  1.8354
  671MOL0     H90571   8.529  -0.303   9.302 -0.4160 -0.2209 -0.2119
  671MOL0     H90572   8.542  -0.063   9.330 -0.4644 -0.5697 -0.2239
  671MOL0     H90573   8.612   0.297   9.246 -0.3279  0.5938  0.9822
  671MOL0     H90574   8.572   0.534   9.259 -2.4792 -0.1647  0.3679
  671MOL0     H90575   8.458   0.697   9.335  1.8582 -0.7409 -0.7404
  671MOL0     H90576   8.398   0.685   9.505  1.8083  0.3575  1.6569
  671MOL0     H90577   8.394   0.928   9.411 -1.3877 -0.6284  0.7960
  671MOL0     H90578   8.583   0.909   9.425 -1.2133 -0.3330 -2.3868
  671MOL0     H90579   8.508   1.033   9.602  2.2529 -0.7623 -0.8135
  671MOL0     H90580   8.532   0.872   9.674 -0.8804  2.6064  3.4583
  671MOL0     H90581   8.347   0.902   9.771  1.6897 -2.5413 -0.6548
  671MOL0     H90582   8.290   0.842   9.614  3.8070  0.1557 -1.8711
  671MOL0     H90583   8.144   1.247   9.614 -0.6764 -0.2268 -1.6834
  671MOL0     H90584   8.677   0.520   9.691 -0.3249  0.2376 -1.3839
  671MOL0     H90585   8.734   0.290   9.660 -0.6692 -0.9124  0.1251
  672MOL0     O90586   9.720  10.743  11.134 -0.4163  0.5750 -0.3052
  672MOL0     C90587   9.807  10.734  11.047 -0.4065 -0.0605 -0.4429
  672MOL0     O90588   9.825  10.627  10.967  0.4863  0.0911 -0.2640
  672MOL0     C90589   9.722  10.529  10.964 -0.9369  0.4259  0.3272
  672MOL0     C90590   9.705  10.443  11.079 -0.6468 -0.7818  0.8428
  672MOL0     C90591   9.615  10.336  11.076  0.4653 -0.0379 -0.2237
  672MOL0     C90592   9.545  10.310  10.961  0.1767  0.7047  0.2040
  672MOL0     O90593   9.480  10.188  10.959 -0.0909 -0.7225  0.2975
  672MOL0     C90594   9.577  10.088  10.918  1.1916 -0.1633 -0.0938
  672MOL0     C90595   9.567   9.984  11.018  0.5001 -0.0240 -0.6412
  672MOL0     C90596   9.440   9.899  11.005 -0.1020  0.0271 -0.9869
  672MOL0     C90597   9.461   9.766  11.093 -0.3939  0.0957  0.5867
  672MOL0     C90598   9.468   9.785  11.250  0.5092 -0.2794 -0.2528
  672MOL0     C90599   9.493   9.647  11.318  0.2920 -0.0090  0.6064
  672MOL0     C90600   9.374   9.546  11.339 -0.6785 -0.2197 -0.5871
  672MOL0     C90601   9.280   9.596  11.449 -0.0658 -1.0591 -0.1666
  672MOL0     N90602   9.187   9.697  11.426  0.3496 -0.9068  0.3041
  672MOL0     C90603   9.100   9.677  11.322 -0.0819 -0.4890  1.0017
  672MOL0     C90604   9.040   9.796  11.307 -0.4761 -0.2936 -0.8984
  672MOL0     C90605   8.920   9.819  11.229 -0.1062  0.2205  0.1381
  672MOL0     C90606   8.816   9.710  11.260  0.3239 -0.0335  0.1753
  672MOL0     C90607   8.795   9.611  11.142  0.3030 -0.3886  0.6420
  672MOL0     C90608   8.657   9.543  11.148  0.2396  0.1408 -0.2383
  672MOL0     O90609   8.621   9.484  11.275 -0.3916 -0.5611 -0.5274
  672MOL0     C90610   8.498   9.424  11.280 -0.9558 -0.2152 -1.0258
  672MOL0     C90611   8.456   9.408  11.410 -0.7442 -0.4315 -0.1433
  672MOL0     C90612   8.336   9.332  11.436  0.2329  0.3877  0.4548
  672MOL0     C90613   8.311   9.311  11.583  0.2714  0.0178  0.2008
  672MOL0     C90614   8.254   9.277  11.331 -0.0003 -0.4896 -0.1083
  672MOL0     C90615   8.121   9.205  11.347  0.2600 -0.8054  0.2560
  672MOL0     O90616   8.061   9.193  11.230  0.0816 -0.3919 -0.0124
  672MOL0     C90617   7.964   9.101  11.236 -0.5638 -0.7108  0.7912
  672MOL0     C90618   7.837   9.142  11.273 -0.3374 -0.5210  0.9073
  672MOL0     C90619   7.726   9.050  11.264  0.1225 -0.6004  0.2042
  672MOL0     C90620   7.747   8.928  11.218  0.0691 -1.3023 -0.4119
  672MOL0     O90621   7.638   8.847  11.216  0.2246  0.6717  0.8529
  672MOL0     C90622   7.643   8.708  11.175 -0.8575  0.3535 -0.0310
  672MOL0     C90623   7.508   8.650  11.192  0.5985 -0.7108  0.2920
  672MOL0     C90624   7.458   8.639  11.334 -0.4990 -0.7242  0.0725
  672MOL0     C90625   7.507   8.505  11.394  0.9452  1.4543 -0.1150
  672MOL0     C90626   7.443   8.459  11.527 -0.1125  0.3566 -0.0677
  672MOL0     C90627   7.539   8.359  11.609  1.0749  0.0073 -0.1985
  672MOL0     C90628   7.499   8.353  11.763  0.8073  1.0215  0.9666
  672MOL0     C90629   7.587   8.247  11.832 -0.6684  0.0313 -0.4306
  672MOL0    Cl90630   7.756   8.299  11.832 -0.8231 -0.0829 -0.5466
  672MOL0     C90631   7.872   8.904  11.157  0.1428 -0.0305 -0.0905
  672MOL0     C90632   7.985   8.983  11.169 -0.9484 -0.2468  0.1907
  672MOL0     O90633   8.074   9.176  11.459 -0.0151  0.9954  0.5003
  672MOL0     C90634   8.303   9.298  11.200  0.8975  0.0793  0.7842
  672MOL0     C90635   8.417   9.369  11.176  0.1893  0.1622  0.3531
  672MOL0     N90636   9.084   9.875  11.417  0.1205  0.0334  0.3185
  672MOL0     N90637   9.183   9.819  11.477 -0.4289  0.1359 -0.6544
  672MOL0     C90638   9.567  10.392  10.847 -0.0828 -0.1512  0.4080
  672MOL0     C90639   9.656  10.502  10.850 -1.6067 -0.7823  0.3000
  672MOL0     C90640   9.898  10.846  11.040 -0.2382 -0.0302  0.5112
  672MOL0     C90641   9.865  10.973  11.105  0.4264 -0.0298  0.9417
  672MOL0     C90642   9.969  11.079  11.109 -0.6880 -0.0264 -0.8612
  672MOL0     C90643  10.098  11.053  11.045 -0.2298  0.3299 -0.1398
  672MOL0     O90644  10.200  11.145  11.053  0.2861 -0.5451 -0.4693
  672MOL0     C90645  10.190  11.269  11.132  0.3827  0.1197  0.1597
  672MOL0     C90646  10.198  11.252  11.284  0.4943 -0.3755  0.6667
  672MOL0     C90647  10.344  11.244  11.321 -0.6137 -0.6917 -0.2258
  672MOL0     C90648  10.376  11.296  11.467 -0.0140 -1.0142 -0.2582
  672MOL0     C90649  10.520  11.301  11.483 -0.6309 -0.4156 -0.0063
  672MOL0     C90650  10.630  11.318  11.508 -0.9950 -0.2737  0.2176
  672MOL0     C90651  10.125  10.931  10.977 -0.5871  0.1051 -0.5239
  672MOL0     C90652  10.026  10.828  10.983  0.0072  0.7095 -0.4869
  672MOL0     H90653   9.766  10.455  11.168 -0.3353  0.8844  0.4312
  672MOL0     H90654   9.617  10.274  11.165  0.9706  0.6721  0.2699
  672MOL0     H90655   9.558  10.054  10.816 -1.1074 -0.0142  0.2341
  672MOL0     H90656   9.676  10.133  10.913  0.7827  0.7249 -0.5579
  672MOL0     H90657   9.651   9.916  11.006 -1.8544 -3.6248  1.4023
  672MOL0     H90658   9.575  10.033  11.116  2.4890  4.3168 -2.6801
  672MOL0     H90659   9.342   9.939  11.035 -1.2610 -1.8446 -2.0878
  672MOL0     H90660   9.433   9.872  10.899  0.0125  0.3124 -1.0685
  672MOL0     H90661   9.383   9.691  11.080  0.4202 -0.5464 -0.7853
  672MOL0     H90662   9.560   9.727  11.067  1.6214  2.7770  3.4559
  672MOL0     H90663   9.545   9.860  11.270 -0.1362  0.4914 -0.6372
  672MOL0     H90664   9.376   9.829  11.290  0.2375 -1.0555 -0.0005
  672MOL0     H90665   9.567   9.585  11.265  0.4507  0.4735  0.2509
  672MOL0     H90666   9.550   9.666  11.410  0.5310 -1.4376  0.7676
  672MOL0     H90667   9.320   9.530  11.245 -0.4251  2.3663 -1.2413
  672MOL0     H90668   9.422   9.452  11.367 -0.1426  0.2889  0.2296
  672MOL0     H90669   9.351   9.632  11.524  2.6404  0.5274 -3.2384
  672MOL0     H90670   9.217   9.514  11.485 -1.6178 -0.2921 -1.0016
  672MOL0     H90671   9.095   9.595  11.251  0.6515  1.6233 -1.6269
  672MOL0     H90672   8.880   9.920  11.239 -0.3436  0.1968 -0.4978
  672MOL0     H90673   8.943   9.814  11.122 -1.8244  0.1677 -0.2509
  672MOL0     H90674   8.725   9.768  11.279 -0.0858 -1.1666  1.8972
  672MOL0     H90675   8.841   9.655  11.351  1.2484  0.2606  0.1079
  672MOL0     H90676   8.879   9.541  11.137  2.3686  1.8662  1.5228
  672MOL0     H90677   8.798   9.664  11.046  0.5214  0.6457  1.2043
  672MOL0     H90678   8.640   9.475  11.065  0.8535  0.7454 -0.8744
  672MOL0     H90679   8.580   9.616  11.123  2.0276  1.6946 -1.4648
  672MOL0     H90680   8.506   9.456  11.493 -0.6442  1.6787 -1.3599
  672MOL0     H90681   8.364   9.375  11.654 -0.1338  1.8253 -1.0447
  672MOL0     H90682   8.207   9.344  11.594  0.5371  1.9200 -2.1995
  672MOL0     H90683   8.317   9.204  11.605 -0.3336  0.2769  1.7712
  672MOL0     H90684   7.825   9.240  11.318  0.9374 -0.8329  1.9959
  672MOL0     H90685   7.629   9.074  11.306 -1.0656  1.0746 -3.1287
  672MOL0     H90686   7.673   8.699  11.070 -0.5186 -1.3972  0.1874
  672MOL0     H90687   7.716   8.654  11.235 -0.4729 -0.1520 -0.9305
  672MOL0     H90688   7.443   8.725  11.147  2.4207  2.5813  2.7337
  672MOL0     H90689   7.501   8.561  11.128 -0.2000  1.1298 -2.3751
  672MOL0     H90690   7.349   8.640  11.324 -0.6945  0.7387  1.8024
  672MOL0     H90691   7.480   8.723  11.400  0.0992 -0.4162 -0.5150
  672MOL0     H90692   7.496   8.418  11.329  0.2386  0.4865  1.2413
  672MOL0     H90693   7.614   8.513  11.417  0.1818  1.5934  4.1734
  672MOL0     H90694   7.347   8.409  11.511  1.1661 -1.5429 -2.5993
  672MOL0     H90695   7.421   8.549  11.584 -0.9551 -0.0258  0.2322
  672MOL0     H90696   7.537   8.259  11.564 -2.4592 -0.4246  0.6009
  672MOL0     H90697   7.646   8.384  11.604  1.6109 -1.6869  1.5686
  672MOL0     H90698   7.400   8.306  11.758  1.7179 -0.8985 -0.2883
  672MOL0     H90699   7.501   8.455  11.803 -1.1495  0.6602  2.0965
  672MOL0     H90700   7.583   8.151  11.781  1.3524 -0.6839  0.6498
  672MOL0     H90701   7.551   8.245  11.935  1.0901  0.5173  0.2491
  672MOL0     H90702   7.890   8.820  11.091  2.0617  2.4361 -2.9967
  672MOL0     H90703   8.085   8.964  11.132 -0.5609  1.3068  0.3915
  672MOL0     H90704   8.252   9.256  11.114  1.0272  0.3574  0.5717
  672MOL0     H90705   8.442   9.401  11.075  0.9796  0.0902  0.5156
  672MOL0     H90706   9.505  10.373  10.760  1.3116  1.4018 -0.9989
  672MOL0     H90707   9.684  10.580  10.780 -3.4627 -0.2028  0.1215
  672MOL0     H90708   9.768  10.989  11.152  0.2507  1.7102  0.0875
  672MOL0     H90709   9.944  11.170  11.163  0.9197 -1.4338  2.5352
  672MOL0     H90710  10.267  11.337  11.095 -0.2669  0.9488  0.3270
  672MOL0     H90711  10.095  11.320  11.115  0.8865  1.9691  2.4511
  672MOL0     H90712  10.139  11.164  11.311  0.9075 -1.6589 -2.2263
  672MOL0     H90713  10.155  11.334  11.342  0.1551  0.8742 -1.2622
  672MOL0     H90714  10.392  11.324  11.263 -2.4397  2.0319  1.7985
  672MOL0     H90715  10.385  11.144  11.305  2.2520  0.1788  1.0377
  672MOL0     H90716  10.323  11.229  11.536  0.1688  0.1669  1.0713
  672MOL0     H90717  10.338  11.398  11.467 -0.8784 -1.3228 -1.0394
  672MOL0     H90718  10.727  11.328  11.552 -1.0427 -0.3444  0.3391
  672MOL0     H90719  10.213  10.920  10.915 -2.0236 -1.4424 -2.4027
  672MOL0     H90720  10.034  10.734  10.929 -3.2678  0.4695 -0.7095
  673MOL0     O90721   8.438   8.530   3.293  0.6067 -0.5341 -0.7529
  673MOL0     C90722   8.497   8.598   3.210 -0.3615 -0.0690 -0.7095
  673MOL0     O90723   8.615   8.665   3.232 -0.2730  0.3878  0.4452
  673MOL0     C90724   8.652   8.721   3.352  0.1301  0.3501  0.4975
  673MOL0     C90725   8.725   8.836   3.342 -0.1036  0.0571 -0.2390
  673MOL0     C90726   8.781   8.899   3.456  0.0905  0.3719 -0.3080
  673MOL0     C90727   8.755   8.831   3.581  0.2799 -0.9335 -0.1902
  673MOL0     O90728   8.821   8.877   3.691  0.2463  0.0196  1.1689
  673MOL0     C90729   8.783   9.011   3.735 -0.0997  0.7227  0.7993
  673MOL0     C90730   8.865   9.080   3.836  0.3313 -0.1688  0.9948
  673MOL0     C90731   9.010   9.083   3.772 -0.4488 -0.4201  0.6683
  673MOL0     C90732   9.108   9.175   3.835  0.2218  0.5060  1.1832
  673MOL0     C90733   9.218   9.215   3.741  0.2898 -0.6936  0.5633
  673MOL0     C90734   9.325   9.283   3.823 -0.0006  0.3105  0.4373
  673MOL0     C90735   9.435   9.344   3.730  0.0280  0.0299 -0.0978
  673MOL0     C90736   9.577   9.368   3.803  0.2181  0.4878  0.3683
  673MOL0     N90737   9.662   9.463   3.730  0.1675  0.4770 -0.2278
  673MOL0     C90738   9.694   9.589   3.773 -0.5029 -0.7700 -0.0686
  673MOL0     C90739   9.795   9.637   3.692  0.6297  0.2526  1.1393
  673MOL0     C90740   9.873   9.766   3.720  0.0266 -0.4249  0.6287
  673MOL0     C90741   9.964   9.741   3.845 -0.5879  0.4667  0.0807
  673MOL0     C90742  10.102   9.668   3.807 -0.0650 -0.9598 -1.0234
  673MOL0     C90743  10.169   9.711   3.674 -0.6856 -0.0438 -0.3097
  673MOL0     O90744  10.306   9.663   3.672  0.3702 -0.0068  0.9493
  673MOL0     C90745  10.328   9.530   3.634 -0.4421  0.4818  0.5000
  673MOL0     C90746  10.451   9.481   3.662 -0.2706  0.4391  0.7082
  673MOL0     C90747  10.496   9.353   3.611  0.6775  0.1351  0.8691
  673MOL0     C90748  10.625   9.301   3.666  0.5562 -0.7130  0.6393
  673MOL0     C90749  10.395   9.270   3.545 -1.2835  0.0806 -0.5620
  673MOL0     C90750  10.431   9.140   3.483  0.2873 -0.9913  1.5106
  673MOL0     O90751  10.320   9.061   3.457 -0.4532  0.6677 -0.3837
  673MOL0     C90752  10.345   8.933   3.415 -0.0165 -0.3925 -0.1876
  673MOL0     C90753  10.387   8.842   3.510  0.9551 -0.5218 -0.1282
  673MOL0     C90754  10.386   8.709   3.463  1.1080 -0.2973  0.0124
  673MOL0     C90755  10.374   8.676   3.327 -0.3529  0.6135 -0.1047
  673MOL0     O90756  10.414   8.550   3.300  0.8162  0.0002 -0.3599
  673MOL0     C90757  10.446   8.515   3.170  0.2923 -0.1785  0.0555
  673MOL0     C90758  10.498   8.376   3.155 -0.6519 -0.4014  0.3734
  673MOL0     C90759  10.399   8.273   3.196 -0.7989  0.3877  0.1634
  673MOL0     C90760  10.311   8.243   3.072 -0.5349 -0.5652  0.3842
  673MOL0     C90761  10.195   8.151   3.103  0.1314  0.5981 -0.1706
  673MOL0     C90762  10.116   8.098   2.979  0.0040  0.0101  0.2483
  673MOL0     C90763  10.198   8.006   2.880 -0.5434 -0.3754  0.0951
  673MOL0     C90764  10.194   7.863   2.929 -0.5517  0.2313 -0.7410
  673MOL0    Cl90765  10.077   7.783   2.816  0.4068 -0.1482  0.3306
  673MOL0     C90766  10.333   8.779   3.240  0.4124 -0.0008 -0.4725
  673MOL0     C90767  10.306   8.902   3.286 -1.3751  0.0524 -0.9293
  673MOL0     O90768  10.545   9.122   3.440 -0.2195 -0.3345 -0.2030
  673MOL0     C90769  10.270   9.321   3.522  0.6524  0.0201 -0.3404
  673MOL0     C90770  10.238   9.449   3.557  0.7620 -0.5839  0.1435
  673MOL0     N90771   9.819   9.533   3.593  0.7854 -0.8126 -0.3338
  673MOL0     N90772   9.732   9.446   3.613  0.3497  0.0544  0.0237
  673MOL0     C90773   8.694   8.708   3.589  0.0286 -0.6560  1.1072
  673MOL0     C90774   8.641   8.655   3.477 -0.1436  0.4592  0.9683
  673MOL0     C90775   8.432   8.611   3.072  0.4309  0.4421 -0.3805
  673MOL0     C90776   8.506   8.685   2.970  0.4365 -0.0714 -0.3360
  673MOL0     C90777   8.461   8.688   2.843  1.1390 -0.7868 -0.0711
  673MOL0     C90778   8.341   8.634   2.807  1.5907  0.7537 -0.2559
  673MOL0     O90779   8.282   8.636   2.680  0.1538  0.3144 -0.4024
  673MOL0     C90780   8.366   8.656   2.564 -0.4252  0.3518 -0.3120
  673MOL0     C90781   8.257   8.657   2.455  0.8963 -0.7358 -0.1028
  673MOL0     C90782   8.227   8.518   2.407  0.4812  0.0500  0.2417
  673MOL0     C90783   8.143   8.502   2.278 -0.1073  0.5315 -0.6086
  673MOL0     C90784   8.141   8.365   2.220 -0.9298 -0.1693 -0.9615
  673MOL0     C90785   8.142   8.253   2.174  0.7629 -0.2837  0.0035
  673MOL0     C90786   8.263   8.561   2.904 -0.0020 -0.3573  0.2616
  673MOL0     C90787   8.310   8.548   3.037 -0.0508 -0.6412  0.2759
  673MOL0     H90788   8.743   8.873   3.241 -0.6002 -0.5823 -0.5681
  673MOL0     H90789   8.835   8.991   3.440 -0.5806  1.1011  1.3527
  673MOL0     H90790   8.793   9.073   3.645 -1.4422 -1.8330 -1.2723
  673MOL0     H90791   8.678   9.016   3.763 -1.0044  0.7129 -2.1936
  673MOL0     H90792   8.838   9.186   3.839  0.7721 -0.0567  1.1308
  673MOL0     H90793   8.849   9.034   3.934 -3.1578 -1.8236 -0.1848
  673MOL0     H90794   9.059   8.985   3.759 -3.2736 -1.7565 -0.8040
  673MOL0     H90795   8.997   9.119   3.669  2.3487 -3.4202 -0.9490
  673MOL0     H90796   9.051   9.265   3.859 -0.3413  0.3427  0.4980
  673MOL0     H90797   9.143   9.124   3.925  0.8032  2.9217  2.4018
  673MOL0     H90798   9.248   9.128   3.682  0.1167  0.7295 -1.7814
  673MOL0     H90799   9.177   9.277   3.660 -1.4624 -0.2976  1.6834
  673MOL0     H90800   9.280   9.355   3.892 -1.6354  0.3416 -0.6272
  673MOL0     H90801   9.376   9.209   3.886  0.8855  1.8149  1.5375
  673MOL0     H90802   9.445   9.275   3.646 -0.5041 -2.1219  1.5453
  673MOL0     H90803   9.388   9.436   3.694  0.6874 -0.0423 -1.1795
  673MOL0     H90804   9.622   9.268   3.793 -0.5451  0.1804 -0.0918
  673MOL0     H90805   9.573   9.381   3.911 -0.4648 -0.3684  0.4567
  673MOL0     H90806   9.652   9.626   3.866 -1.0679  0.7640 -0.8880
  673MOL0     H90807   9.929   9.792   3.630 -0.3951 -0.8891  0.2194
  673MOL0     H90808   9.808   9.849   3.749 -2.0367 -1.2732 -1.1773
  673MOL0     H90809   9.890   9.693   3.911 -3.2711  1.0769 -2.2904
  673MOL0     H90810   9.985   9.841   3.884 -2.9842  0.1400  2.4814
  673MOL0     H90811  10.088   9.560   3.794  1.9432 -1.6941  1.9434
  673MOL0     H90812  10.171   9.684   3.891 -0.4116  0.8310 -1.0455
  673MOL0     H90813  10.179   9.820   3.677 -3.2125  0.2300  1.4344
  673MOL0     H90814  10.110   9.688   3.585 -0.3226  1.6019 -1.0203
  673MOL0     H90815  10.527   9.537   3.715 -0.0444  0.0105  0.8427
  673MOL0     H90816  10.707   9.343   3.607 -0.7214 -1.6908 -2.0013
  673MOL0     H90817  10.626   9.319   3.774 -4.2099  1.2525  0.6014
  673MOL0     H90818  10.628   9.192   3.661  2.7902 -0.6466 -0.8197
  673MOL0     H90819  10.396   8.852   3.618 -0.9221  0.0366  0.0041
  673MOL0     H90820  10.408   8.635   3.539 -0.7492  0.6946  1.6279
  673MOL0     H90821  10.355   8.520   3.109 -0.4934 -0.4210  1.1872
  673MOL0     H90822  10.529   8.578   3.137  1.6176 -2.3292 -0.9251
  673MOL0     H90823  10.543   8.349   3.059 -3.4891 -0.8733 -0.9051
  673MOL0     H90824  10.581   8.378   3.227 -1.1384  2.1610  0.9930
  673MOL0     H90825  10.332   8.323   3.266  0.2036 -0.6071  1.9218
  673MOL0     H90826  10.439   8.178   3.232  0.5923  1.1483  0.7004
  673MOL0     H90827  10.275   8.335   3.025  4.0852  1.0403 -0.5094
  673MOL0     H90828  10.372   8.198   2.993 -0.2181  0.4475  0.0324
  673MOL0     H90829  10.136   8.209   3.174  0.7508  0.3949  0.5108
  673MOL0     H90830  10.225   8.056   3.149  1.6938  1.5157  0.7639
  673MOL0     H90831  10.022   8.053   3.012  0.2973  0.2727  1.5071
  673MOL0     H90832  10.083   8.179   2.914  0.3935 -1.5025 -1.9499
  673MOL0     H90833  10.299   8.046   2.876 -0.9531  0.8541  1.2125
  673MOL0     H90834  10.162   8.007   2.776  0.7235  1.0542 -0.3658
  673MOL0     H90835  10.177   7.842   3.035  2.6402 -2.0708 -0.5436
  673MOL0     H90836  10.293   7.820   2.910 -0.3732  1.4075 -2.8087
  673MOL0     H90837  10.303   8.754   3.138 -0.2174  1.1343 -0.5823
  673MOL0     H90838  10.267   8.977   3.218  2.5287 -0.0717 -3.6588
  673MOL0     H90839  10.202   9.258   3.467  1.1104 -0.7666 -0.0198
  673MOL0     H90840  10.142   9.493   3.533  1.1057 -0.0554 -0.2678
  673MOL0     H90841   8.678   8.659   3.684  3.4218 -2.3066  0.9760
  673MOL0     H90842   8.593   8.559   3.489  2.3672 -0.9244  0.6186
  673MOL0     H90843   8.597   8.742   2.988 -0.4436  0.2840  4.4525
  673MOL0     H90844   8.507   8.747   2.764 -1.7967  1.4511 -0.2578
  673MOL0     H90845   8.423   8.748   2.580  1.3631 -0.6344 -0.8235
  673MOL0     H90846   8.448   8.587   2.546  3.5219  4.6271 -0.4832
  673MOL0     H90847   8.294   8.723   2.376  0.1299 -1.1886 -0.8627
  673MOL0     H90848   8.167   8.706   2.492  0.8866 -0.6406 -0.2536
  673MOL0     H90849   8.183   8.474   2.498  1.7318  2.9220  2.3946
  673MOL0     H90850   8.322   8.472   2.376  3.4166  4.5969  1.5561
  673MOL0     H90851   8.185   8.567   2.200 -1.1424  0.4754 -1.2338
  673MOL0     H90852   8.039   8.535   2.290 -0.9509 -2.6178  2.3540
  673MOL0     H90853   8.134   8.158   2.124 -1.6717 -0.3240  0.3326
  673MOL0     H90854   8.168   8.514   2.885 -0.4439  0.2743  0.8568
  673MOL0     H90855   8.260   8.486   3.110 -0.3857  1.5991  2.0563
  674MOL0     O90856   6.887   1.530   7.057  0.4968  0.0060  0.1316
  674MOL0     C90857   6.832   1.589   6.963  0.9341  0.1579  0.5042
  674MOL0     O90858   6.897   1.623   6.847 -0.1259 -0.0952  0.6941
  674MOL0     C90859   7.028   1.604   6.834  0.7215  0.1563  0.0511
  674MOL0     C90860   7.121   1.641   6.929 -0.3344  0.8013 -0.2227
  674MOL0     C90861   7.259   1.621   6.910  0.1165  0.7618 -0.0415
  674MOL0     C90862   7.301   1.550   6.798 -1.0726  1.1737 -0.4932
  674MOL0     O90863   7.430   1.504   6.794 -0.0785 -0.1012 -0.0978
  674MOL0     C90864   7.466   1.376   6.744  0.1678 -0.2362 -0.2361
  674MOL0     C90865   7.583   1.334   6.822  0.6663  0.9491 -0.2337
  674MOL0     C90866   7.552   1.298   6.975  0.0814 -1.3743 -0.5965
  674MOL0     C90867   7.452   1.179   6.980 -0.5338  0.3270 -0.2619
  674MOL0     C90868   7.429   1.129   7.124  0.5340  0.3346 -0.1731
  674MOL0     C90869   7.358   1.238   7.211  0.1414 -0.0835  0.3397
  674MOL0     C90870   7.315   1.173   7.342 -0.8331  0.6245  0.0744
  674MOL0     C90871   7.270   1.278   7.437 -0.8334 -0.4122  1.2419
  674MOL0     N90872   7.143   1.345   7.406  0.7899 -0.0580 -0.7049
  674MOL0     C90873   7.016   1.300   7.428 -0.1473  0.3105  0.4441
  674MOL0     C90874   6.940   1.413   7.423  0.4352 -0.1696 -0.0390
  674MOL0     C90875   6.801   1.411   7.437 -1.2390  0.6609  1.2747
  674MOL0     C90876   6.767   1.422   7.583  0.3394  0.0175 -0.5050
  674MOL0     C90877   6.622   1.411   7.619 -0.1070  0.1150 -0.3428
  674MOL0     C90878   6.582   1.398   7.766 -0.4034 -0.9444 -0.0963
  674MOL0     O90879   6.624   1.276   7.816 -0.9635 -0.5431  0.9584
  674MOL0     C90880   6.569   1.235   7.933 -0.7896 -0.8814  0.7884
  674MOL0     C90881   6.583   1.099   7.962  0.3812  1.0495 -0.1114
  674MOL0     C90882   6.549   1.053   8.096 -0.4238 -0.0707 -0.6149
  674MOL0     C90883   6.555   0.910   8.110 -0.7163  0.8058  0.2052
  674MOL0     C90884   6.507   1.143   8.194 -0.2280  0.0866  0.1232
  674MOL0     C90885   6.450   1.113   8.329 -0.4324  1.1366 -0.5628
  674MOL0     O90886   6.362   1.208   8.376 -0.8581  0.7178 -0.0705
  674MOL0     C90887   6.310   1.209   8.512 -0.8476  0.5654 -0.0441
  674MOL0     C90888   6.169   1.198   8.514 -0.4701 -0.9496 -0.6910
  674MOL0     C90889   6.100   1.193   8.637  0.8437  0.0830  1.2124
  674MOL0     C90890   6.176   1.193   8.751 -0.9879 -0.6422  0.3294
  674MOL0     O90891   6.112   1.173   8.872  0.9047 -0.2782  0.1036
  674MOL0     C90892   6.140   1.262   8.981 -0.2194 -1.1819 -0.4806
  674MOL0     C90893   6.042   1.227   9.089 -0.5477 -0.0455 -0.2895
  674MOL0     C90894   6.062   1.331   9.198  0.3995  0.9529  0.3070
  674MOL0     C90895   5.989   1.460   9.161  0.0693  1.5990  0.7776
  674MOL0     C90896   6.037   1.578   9.255 -0.6302  0.8159 -0.4800
  674MOL0     C90897   5.976   1.571   9.403 -0.3706 -1.0948  0.5787
  674MOL0     C90898   6.042   1.673   9.502  0.2541  0.2127  0.4138
  674MOL0     C90899   5.989   1.643   9.642 -0.3160 -0.4535 -0.2576
  674MOL0    Cl90900   6.020   1.770   9.755  0.1785  0.2042 -0.2797
  674MOL0     C90901   6.319   1.214   8.749  0.8191 -0.1322  0.5297
  674MOL0     C90902   6.385   1.223   8.632 -0.2686  0.5715  0.3762
  674MOL0     O90903   6.494   1.017   8.385 -0.4025  0.0687 -0.2030
  674MOL0     C90904   6.502   1.278   8.158 -0.1910  1.3903  1.5496
  674MOL0     C90905   6.537   1.326   8.033  0.2555 -0.6976 -0.2186
  674MOL0     N90906   7.023   1.526   7.411 -0.2184 -0.0452 -0.5128
  674MOL0     N90907   7.147   1.480   7.392  0.5316  0.2331 -0.2232
  674MOL0     C90908   7.209   1.517   6.697  0.2057 -0.2885  0.2480
  674MOL0     C90909   7.077   1.557   6.713  1.6474  0.0443 -0.7222
  674MOL0     C90910   6.680   1.619   6.967  0.0480  0.0979 -1.7419
  674MOL0     C90911   6.624   1.637   7.092 -1.2099 -0.4388  0.1796
  674MOL0     C90912   6.499   1.700   7.102 -0.1297 -0.5718 -0.1052
  674MOL0     C90913   6.443   1.751   6.982  0.2504  0.3582 -0.0455
  674MOL0     O90914   6.320   1.804   6.997 -0.8230  0.0264  0.0433
  674MOL0     C90915   6.244   1.817   7.115 -0.1265  0.3897  1.1987
  674MOL0     C90916   6.105   1.858   7.077 -0.0930 -0.0569  0.2212
  674MOL0     C90917   6.033   1.905   7.201 -0.3979  0.0360 -0.3916
  674MOL0     C90918   6.016   1.797   7.316 -0.3041 -0.3519  0.3770
  674MOL0     C90919   5.938   1.672   7.279 -0.9204 -0.6061 -0.5582
  674MOL0     C90920   5.883   1.566   7.252 -0.2581  0.0053  0.0373
  674MOL0     C90921   6.490   1.721   6.864  0.0388  0.1830  0.7267
  674MOL0     C90922   6.613   1.659   6.851 -0.3466 -0.8678  0.2922
  674MOL0     H90923   7.099   1.689   7.023  1.4031 -1.3856  1.4167
  674MOL0     H90924   7.338   1.629   6.984  1.9475 -0.5341 -1.7615
  674MOL0     H90925   7.383   1.305   6.741 -0.1526 -0.2304  3.5167
  674MOL0     H90926   7.513   1.391   6.647  0.0179 -0.9304 -0.4249
  674MOL0     H90927   7.615   1.238   6.779  1.0112  1.5715 -1.4093
  674MOL0     H90928   7.664   1.407   6.814  0.4275  1.1433 -0.9612
  674MOL0     H90929   7.655   1.282   7.010  0.5307  0.5241 -0.9428
  674MOL0     H90930   7.511   1.382   7.032  1.8399 -2.3205  2.2564
  674MOL0     H90931   7.356   1.210   6.939 -0.6459 -1.4775 -1.4855
  674MOL0     H90932   7.476   1.093   6.917 -2.7676  1.0482 -2.2060
  674MOL0     H90933   7.363   1.043   7.110  0.1010  1.0762 -3.4432
  674MOL0     H90934   7.518   1.090   7.175  0.3416  0.3677  0.1903
  674MOL0     H90935   7.429   1.319   7.230  0.2708 -0.3781  1.1470
  674MOL0     H90936   7.269   1.276   7.160  0.2710 -1.4462 -0.9800
  674MOL0     H90937   7.231   1.106   7.327 -0.2561  0.0545 -0.6927
  674MOL0     H90938   7.396   1.112   7.382 -2.8535 -0.8880  2.0882
  674MOL0     H90939   7.345   1.356   7.455  1.3636 -1.5632 -1.9920
  674MOL0     H90940   7.256   1.230   7.534  1.6370 -0.1441  1.7917
  674MOL0     H90941   6.993   1.202   7.470  1.3677 -0.6150 -0.7839
  674MOL0     H90942   6.769   1.503   7.387  3.9230  1.7803 -0.5409
  674MOL0     H90943   6.754   1.324   7.391  3.0178 -0.5063 -1.3945
  674MOL0     H90944   6.796   1.525   7.601 -1.6890  1.2774 -3.5298
  674MOL0     H90945   6.816   1.349   7.648 -1.3878 -0.0301  0.8144
  674MOL0     H90946   6.585   1.316   7.579 -1.3810 -1.7776  4.6533
  674MOL0     H90947   6.569   1.496   7.577  1.7902  1.9766  0.8486
  674MOL0     H90948   6.475   1.419   7.775 -0.5547  1.0312 -4.2575
  674MOL0     H90949   6.628   1.477   7.826 -1.1052 -2.1839  2.1975
  674MOL0     H90950   6.618   1.032   7.885 -0.9067  0.7589 -0.4760
  674MOL0     H90951   6.539   0.855   8.017 -1.4147  3.1240 -1.1175
  674MOL0     H90952   6.654   0.884   8.150  2.4536  1.5197 -5.9054
  674MOL0     H90953   6.475   0.864   8.169 -2.1612  0.6925 -1.7468
  674MOL0     H90954   6.110   1.204   8.423  1.8753 -1.5578 -2.3381
  674MOL0     H90955   5.992   1.193   8.649  0.5269 -0.4119 -1.0926
  674MOL0     H90956   6.240   1.241   9.018  1.3749  2.4354 -2.2137
  674MOL0     H90957   6.133   1.368   8.954 -0.8681 -1.4119 -1.2644
  674MOL0     H90958   5.941   1.240   9.052 -0.5758  0.6279  0.0053
  674MOL0     H90959   6.042   1.123   9.126 -0.1771 -0.2940 -0.9775
  674MOL0     H90960   6.169   1.345   9.215  1.0596 -1.0810 -1.6557
  674MOL0     H90961   6.017   1.297   9.292  0.0217  0.1112 -0.1634
  674MOL0     H90962   6.009   1.495   9.058 -0.5266  0.4469  0.2614
  674MOL0     H90963   5.880   1.455   9.166 -0.2032  5.0174  0.7304
  674MOL0     H90964   6.029   1.675   9.207 -0.9298  1.2822  0.4872
  674MOL0     H90965   6.145   1.564   9.255 -0.4834  1.8124 -1.5570
  674MOL0     H90966   5.870   1.595   9.406  0.4190  4.4229 -2.2215
  674MOL0     H90967   5.998   1.470   9.437 -2.3697 -1.3015  1.3599
  674MOL0     H90968   6.024   1.779   9.483  1.0732  0.1605 -0.7068
  674MOL0     H90969   6.150   1.656   9.492  0.3411  1.2045 -0.5511
  674MOL0     H90970   6.035   1.550   9.678  4.1051  1.5198 -0.1527
  674MOL0     H90971   5.881   1.629   9.633 -0.6306  0.8818  1.0734
  674MOL0     H90972   6.364   1.234   8.846 -1.7715  0.8911  1.6036
  674MOL0     H90973   6.493   1.233   8.637 -0.3551  1.0230  2.6643
  674MOL0     H90974   6.496   1.347   8.241 -3.5990  2.1769  0.8281
  674MOL0     H90975   6.536   1.431   8.007 -0.5755 -1.0247 -1.6076
  674MOL0     H90976   7.248   1.466   6.609 -0.1484 -1.9349  0.9916
  674MOL0     H90977   7.020   1.550   6.620  0.4655  1.1544 -0.1069
  674MOL0     H90978   6.682   1.602   7.177  0.3478 -2.1512 -1.5196
  674MOL0     H90979   6.450   1.713   7.198 -0.2744  0.0132 -0.2528
  674MOL0     H90980   6.236   1.722   7.167 -3.0163 -1.1737 -1.7130
  674MOL0     H90981   6.291   1.887   7.184  1.2319 -1.1174  1.8750
  674MOL0     H90982   6.048   1.773   7.039 -0.2663 -0.5765  1.5889
  674MOL0     H90983   6.112   1.938   7.003  2.7241 -0.6337 -0.2580
  674MOL0     H90984   5.931   1.929   7.171 -0.4937 -0.6352 -0.6199
  674MOL0     H90985   6.071   2.003   7.229  1.0410 -0.3446 -0.9209
  674MOL0     H90986   5.961   1.843   7.397 -0.6677 -3.0759  1.7949
  674MOL0     H90987   6.115   1.777   7.357  1.4491  0.5889 -2.9553
  674MOL0     H90988   5.832   1.473   7.237  1.0008 -0.4800 -1.4490
  674MOL0     H90989   6.430   1.770   6.787  1.2118 -0.0155 -0.3432
  674MOL0     H90990   6.658   1.662   6.752  0.4673 -2.6681  0.5684
  675MOL0     O90991   4.683   2.206   8.549  0.6448  0.3195  0.0335
  675MOL0     C90992   4.598   2.299   8.543  0.1971  0.5091 -0.4452
  675MOL0     O90993   4.618   2.425   8.593  0.7115  0.1035  0.4848
  675MOL0     C90994   4.745   2.446   8.638 -0.3191 -1.5654  0.1940
  675MOL0     C90995   4.853   2.449   8.549 -0.7078  0.3473 -0.5344
  675MOL0     C90996   4.986   2.464   8.592 -0.1416 -0.0625 -0.7800
  675MOL0     C90997   5.009   2.471   8.733  0.2600 -0.7411  1.5247
  675MOL0     O90998   5.139   2.478   8.788  0.0122 -0.1095  0.2317
  675MOL0     C90999   5.239   2.405   8.731 -0.1583  1.8077 -0.2821
  675MOL0     C91000   5.330   2.357   8.837  0.1298  0.5915 -0.5999
  675MOL0     C91001   5.440   2.261   8.783 -0.7609  0.0063 -0.1583
  675MOL0     C91002   5.559   2.344   8.720  0.0595  0.1004  0.5347
  675MOL0     C91003   5.652   2.249   8.643 -0.2964  0.0214 -0.0750
  675MOL0     C91004   5.777   2.327   8.597 -0.0539 -0.4625 -0.3435
  675MOL0     C91005   5.841   2.268   8.469 -0.5307 -0.4003  0.2108
  675MOL0     C91006   5.906   2.119   8.498  0.9517  0.1217 -0.0269
  675MOL0     N91007   5.940   2.040   8.379  0.8916  0.0049  0.4481
  675MOL0     C91008   5.861   2.003   8.269 -0.2722 -1.2710 -0.6733
  675MOL0     C91009   5.935   1.915   8.198  0.0282 -0.9020 -0.9803
  675MOL0     C91010   5.896   1.829   8.086 -0.8385  0.1475 -0.1668
  675MOL0     C91011   5.934   1.893   7.946 -0.5881 -1.1709  0.8418
  675MOL0     C91012   5.895   1.806   7.828 -0.1545 -0.6114 -0.6995
  675MOL0     C91013   5.923   1.881   7.698  0.6684 -0.1249 -0.7293
  675MOL0     O91014   5.832   2.000   7.702 -0.6642  0.3019 -0.0333
  675MOL0     C91015   5.852   2.105   7.619 -0.4560 -0.8181 -0.4694
  675MOL0     C91016   5.965   2.132   7.537 -0.0372 -0.5529 -0.3170
  675MOL0     C91017   5.986   2.259   7.475 -0.5111 -1.5690  0.4931
  675MOL0     C91018   6.114   2.277   7.395 -0.2045  0.1581  0.6048
  675MOL0     C91019   5.893   2.359   7.487  0.3505  0.9062 -0.1712
  675MOL0     C91020   5.899   2.488   7.421  0.9144 -0.4542  0.4083
  675MOL0     O91021   5.834   2.592   7.478 -0.7233 -0.1455  0.7517
  675MOL0     C91022   5.830   2.716   7.420  1.3398 -0.5873 -0.3700
  675MOL0     C91023   5.923   2.807   7.465  0.0098 -0.0847  0.2761
  675MOL0     C91024   5.939   2.934   7.413 -1.3635  0.0773 -0.5980
  675MOL0     C91025   5.849   2.979   7.314  0.0508  1.4204  0.1190
  675MOL0     O91026   5.839   3.091   7.248  0.4607  0.0977  0.1967
  675MOL0     C91027   5.924   3.203   7.268 -0.2543  0.0071 -0.1104
  675MOL0     C91028   5.926   3.309   7.160 -0.5731 -0.3409 -0.0350
  675MOL0     C91029   5.965   3.439   7.232 -0.6821 -0.1602 -0.7049
  675MOL0     C91030   5.973   3.552   7.132 -0.3253 -0.5077  0.2242
  675MOL0     C91031   5.960   3.695   7.202  0.4304  1.3352 -0.6749
  675MOL0     C91032   6.043   3.698   7.333  1.2666 -0.2106 -0.2274
  675MOL0     C91033   6.053   3.832   7.391 -0.2818 -0.5498  0.5567
  675MOL0     C91034   6.129   3.847   7.529 -0.3148 -0.5682  0.1529
  675MOL0    Cl91035   5.998   3.828   7.656  0.2939  0.2174  0.2256
  675MOL0     C91036   5.754   2.884   7.269  0.4214  0.6252 -0.2777
  675MOL0     C91037   5.740   2.758   7.327 -0.2147 -0.6604 -0.8579
  675MOL0     O91038   5.954   2.494   7.315  0.9122  0.1740  0.2635
  675MOL0     C91039   5.782   2.337   7.576  0.7374 -0.4142  0.0002
  675MOL0     C91040   5.762   2.212   7.635  0.4309 -0.0707 -0.7119
  675MOL0     N91041   6.058   1.893   8.260 -0.6371 -0.3174  0.1025
  675MOL0     N91042   6.053   1.964   8.366  0.0117  0.5682  0.4273
  675MOL0     C91043   4.898   2.484   8.814  0.0864 -1.0563 -0.0398
  675MOL0     C91044   4.767   2.470   8.777 -0.7159 -0.5440 -1.0330
  675MOL0     C91045   4.472   2.282   8.466 -0.5388 -0.6468  1.3327
  675MOL0     C91046   4.449   2.162   8.390  1.1570  0.4530  0.7769
  675MOL0     C91047   4.322   2.126   8.351 -0.3653 -0.0844 -0.3863
  675MOL0     C91048   4.227   2.225   8.354  0.8339 -0.0924  0.0314
  675MOL0     O91049   4.112   2.181   8.293 -0.4020  0.0813  0.1108
  675MOL0     C91050   3.987   2.241   8.319 -0.2062  0.4121  0.7445
  675MOL0     C91051   3.870   2.151   8.286 -0.1932  0.1813 -0.2856
  675MOL0     C91052   3.870   2.087   8.152 -1.5284  0.2842 -0.2139
  675MOL0     C91053   3.804   2.174   8.051  0.3828  0.7167 -0.4377
  675MOL0     C91054   3.851   2.160   7.912  0.1862 -0.0727  0.1330
  675MOL0     C91055   3.902   2.181   7.809 -0.2698 -0.3164  0.9216
  675MOL0     C91056   4.251   2.349   8.405  0.9137 -0.0696  0.5622
  675MOL0     C91057   4.375   2.379   8.455 -0.2412  0.3566 -0.1346
  675MOL0     H91058   4.823   2.446   8.445  1.7309  3.3918 -1.4648
  675MOL0     H91059   5.067   2.476   8.521 -2.1942 -0.3113 -3.3190
  675MOL0     H91060   5.201   2.325   8.667  2.1636  1.7505 -1.6699
  675MOL0     H91061   5.296   2.474   8.668  2.0399  0.3504  0.0260
  675MOL0     H91062   5.370   2.434   8.904 -1.0857 -0.9764  2.0887
  675MOL0     H91063   5.272   2.302   8.911  1.6514 -0.2762 -0.0113
  675MOL0     H91064   5.480   2.195   8.860 -0.9845 -1.3157 -1.1519
  675MOL0     H91065   5.393   2.198   8.708 -0.5058 -2.9065  1.9307
  675MOL0     H91066   5.514   2.422   8.658 -2.2133 -1.6526 -0.1586
  675MOL0     H91067   5.626   2.392   8.792  1.3593  0.4127 -0.8281
  675MOL0     H91068   5.686   2.162   8.701 -1.2842 -0.5771 -0.3748
  675MOL0     H91069   5.603   2.209   8.554 -0.0471 -1.2346  0.3226
  675MOL0     H91070   5.745   2.426   8.564 -0.7576 -1.7410 -4.0915
  675MOL0     H91071   5.841   2.342   8.684 -1.5844  0.1467  0.7294
  675MOL0     H91072   5.770   2.259   8.386  1.7180  0.2724 -1.9229
  675MOL0     H91073   5.925   2.335   8.448 -0.9756  0.4106  0.9423
  675MOL0     H91074   5.842   2.066   8.569 -0.2767  0.8960 -0.5217
  675MOL0     H91075   6.003   2.131   8.546  0.9131 -0.4876  0.2172
  675MOL0     H91076   5.757   2.034   8.261  0.0650  2.0936  3.9484
  675MOL0     H91077   5.940   1.729   8.087  1.3644  1.0446 -0.6108
  675MOL0     H91078   5.788   1.819   8.080 -0.8676 -1.2332  1.8001
  675MOL0     H91079   6.042   1.906   7.937 -0.7163 -1.2683 -1.4087
  675MOL0     H91080   5.883   1.989   7.935  1.6754  0.1255  1.1058
  675MOL0     H91081   5.795   1.774   7.861  1.1878 -0.4507  4.3534
  675MOL0     H91082   5.960   1.718   7.828  0.3222 -0.3639 -3.6081
  675MOL0     H91083   5.898   1.816   7.613 -2.1567  2.9713 -2.4892
  675MOL0     H91084   6.029   1.908   7.688  0.9727  0.3278  2.6843
  675MOL0     H91085   6.049   2.064   7.528  0.0187 -0.4056 -0.9961
  675MOL0     H91086   6.186   2.204   7.433 -1.9228 -1.2808  1.2286
  675MOL0     H91087   6.099   2.246   7.291  0.6942 -1.7180  0.9732
  675MOL0     H91088   6.157   2.377   7.394  2.1281 -0.7312 -1.9131
  675MOL0     H91089   5.998   2.780   7.539  1.7095 -2.2449 -2.0819
  675MOL0     H91090   6.014   3.007   7.443 -3.5055  2.4599 -0.6907
  675MOL0     H91091   5.898   3.246   7.365 -2.8503 -2.3638  0.4041
  675MOL0     H91092   6.023   3.157   7.275  0.8303  2.4520  1.7084
  675MOL0     H91093   5.995   3.277   7.081 -1.7110  0.9201 -1.5996
  675MOL0     H91094   5.827   3.317   7.114 -0.3965  0.4341 -0.3013
  675MOL0     H91095   6.051   3.434   7.298  1.1844  0.6413 -2.9478
  675MOL0     H91096   5.886   3.469   7.302  0.2823  1.0315 -0.0908
  675MOL0     H91097   6.071   3.540   7.085  0.0430  2.4839  0.0345
  675MOL0     H91098   5.894   3.547   7.056  0.2518  0.5485 -0.4766
  675MOL0     H91099   5.854   3.712   7.225  0.3603  0.1750 -0.0981
  675MOL0     H91100   5.989   3.782   7.142  0.8141  1.0721 -0.8757
  675MOL0     H91101   6.003   3.636   7.414  1.0394 -0.8492 -0.8250
  675MOL0     H91102   6.145   3.662   7.318  1.9340  0.0860  2.8313
  675MOL0     H91103   5.955   3.880   7.399 -1.8091 -3.2468 -0.4090
  675MOL0     H91104   6.110   3.898   7.324 -0.1963  0.2039  1.3663
  675MOL0     H91105   6.165   3.950   7.538 -4.5129  1.0644  0.5285
  675MOL0     H91106   6.210   3.776   7.546  0.6855  0.1642 -1.3554
  675MOL0     H91107   5.684   2.923   7.196  1.3805  0.3894 -1.3559
  675MOL0     H91108   5.660   2.689   7.301  1.7327 -3.8963  1.0545
  675MOL0     H91109   5.708   2.416   7.585  0.7288 -0.4587  0.3232
  675MOL0     H91110   5.682   2.183   7.703  1.2116 -2.3349 -0.6696
  675MOL0     H91111   4.924   2.501   8.918  2.0769 -0.9305 -0.5082
  675MOL0     H91112   4.678   2.487   8.838 -0.9320  0.1685 -1.5289
  675MOL0     H91113   4.517   2.078   8.376 -1.0026 -1.0982 -1.2165
  675MOL0     H91114   4.297   2.035   8.298 -0.6421  1.9464 -4.0671
  675MOL0     H91115   3.974   2.271   8.424 -3.5889 -2.9012  1.4778
  675MOL0     H91116   3.987   2.330   8.256 -1.0632 -0.4526 -0.5224
  675MOL0     H91117   3.783   2.213   8.310  0.0439 -0.3681  2.2192
  675MOL0     H91118   3.868   2.072   8.361  0.4207  1.4224  1.1047
  675MOL0     H91119   3.825   1.988   8.149  1.8232 -1.4714  1.4227
  675MOL0     H91120   3.976   2.077   8.128 -0.4662  4.4125  1.7198
  675MOL0     H91121   3.812   2.278   8.086 -1.6457  0.6746  0.3092
  675MOL0     H91122   3.701   2.136   8.047  1.6699 -3.0973 -3.8985
  675MOL0     H91123   3.955   2.199   7.717 -2.0448 -1.5332 -0.4024
  675MOL0     H91124   4.162   2.411   8.412  2.0029  1.3404  3.7921
  675MOL0     H91125   4.386   2.481   8.491 -1.3114 -0.2544  2.1459
  676MOL0     O91126   3.031  10.246   4.787 -0.1153 -0.5585 -0.6001
  676MOL0     C91127   3.020  10.209   4.666 -0.6292 -0.4087  0.6057
  676MOL0     O91128   3.006  10.084   4.619 -0.1628  0.0047  1.0195
  676MOL0     C91129   3.004   9.984   4.716 -0.0412 -0.0277 -0.9377
  676MOL0     C91130   2.927   9.993   4.837 -0.1207 -0.2604 -0.5911
  676MOL0     C91131   2.916   9.888   4.927  0.6212 -0.3152 -0.9697
  676MOL0     C91132   2.994   9.769   4.909 -0.3608 -0.2279 -0.5034
  676MOL0     O91133   2.987   9.671   5.005  0.2092  0.1640 -0.1943
  676MOL0     C91134   3.064   9.552   4.985 -0.3081  0.2501 -0.2988
  676MOL0     C91135   3.068   9.465   5.112 -0.1993 -0.8827 -0.2686
  676MOL0     C91136   3.143   9.334   5.103 -0.3945  0.2036 -0.4937
  676MOL0     C91137   3.173   9.268   5.243  0.0847  0.6783 -0.1838
  676MOL0     C91138   3.210   9.117   5.212 -1.0324  0.0311 -0.1977
  676MOL0     C91139   3.267   9.057   5.343  0.6424 -0.1029  0.0897
  676MOL0     C91140   3.303   8.912   5.298 -0.7505 -0.7493  0.3725
  676MOL0     C91141   3.324   8.828   5.438 -0.1418 -0.7642 -0.6312
  676MOL0     N91142   3.428   8.885   5.524  0.2268 -0.5710  0.8194
  676MOL0     C91143   3.562   8.889   5.505  0.0661 -0.0336  0.9172
  676MOL0     C91144   3.627   8.881   5.620 -0.1701  1.0710 -0.3330
  676MOL0     C91145   3.781   8.886   5.647 -0.4491 -0.1395  0.0102
  676MOL0     C91146   3.830   8.734   5.653  0.1500 -0.3939 -0.1135
  676MOL0     C91147   3.859   8.686   5.514  0.4794  0.5447 -0.5779
  676MOL0     C91148   3.952   8.575   5.516  0.8465 -0.8275 -0.0181
  676MOL0     O91149   3.888   8.468   5.582  0.8309 -0.2843 -0.0799
  676MOL0     C91150   3.947   8.346   5.570  0.2949  0.7772 -0.2933
  676MOL0     C91151   3.858   8.231   5.601 -0.1830 -0.9454  0.0064
  676MOL0     C91152   3.899   8.095   5.597  0.0588  0.0166 -0.6085
  676MOL0     C91153   3.794   7.987   5.651 -0.5601 -0.0964  0.8919
  676MOL0     C91154   4.041   8.071   5.559  0.9240  0.3325  0.9160
  676MOL0     C91155   4.089   7.938   5.538 -0.0883  0.9233  0.6941
  676MOL0     O91156   4.213   7.923   5.469 -0.7341  0.5384  0.7852
  676MOL0     C91157   4.263   7.801   5.436 -0.3106 -0.2734  0.2867
  676MOL0     C91158   4.350   7.737   5.527 -0.0534  0.4746  0.0207
  676MOL0     C91159   4.403   7.617   5.486 -0.3162 -0.4590 -0.2486
  676MOL0     C91160   4.383   7.559   5.360 -0.5079  1.1841 -0.1648
  676MOL0     O91161   4.448   7.440   5.327 -0.3427 -0.1990  0.0295
  676MOL0     C91162   4.363   7.332   5.348  0.9556 -0.8055  0.5396
  676MOL0     C91163   4.445   7.204   5.326  1.3107  0.1597 -0.9921
  676MOL0     C91164   4.484   7.181   5.179  0.1493  0.1670 -0.5484
  676MOL0     C91165   4.583   7.064   5.170  0.5459 -0.8154 -0.1315
  676MOL0     C91166   4.585   7.003   5.026 -0.3136  0.4705  1.0527
  676MOL0     C91167   4.468   6.901   5.019 -0.4546 -0.2481 -0.1587
  676MOL0     C91168   4.425   6.866   4.878  0.8376 -0.1062 -0.9513
  676MOL0     C91169   4.346   6.733   4.876  0.4646 -0.7397 -0.0905
  676MOL0    Cl91170   4.423   6.585   4.932  0.4389  0.2239 -0.4222
  676MOL0     C91171   4.304   7.625   5.272 -0.5451 -0.0924  0.1801
  676MOL0     C91172   4.239   7.746   5.310  0.5070  0.8949 -0.5734
  676MOL0     O91173   4.037   7.849   5.594  0.2320  0.4656  0.4925
  676MOL0     C91174   4.123   8.179   5.537  0.2981  0.0870 -0.1484
  676MOL0     C91175   4.080   8.320   5.544 -0.4158 -0.1777  0.4115
  676MOL0     N91176   3.525   8.879   5.714 -0.0189  0.6008 -0.5240
  676MOL0     N91177   3.410   8.876   5.660 -0.2649 -0.2697  0.1418
  676MOL0     C91178   3.056   9.752   4.784  0.0437 -0.4322 -0.0151
  676MOL0     C91179   3.063   9.855   4.692 -0.1832  0.1517 -0.4575
  676MOL0     C91180   3.046  10.313   4.570 -0.4755  0.8416 -0.2348
  676MOL0     C91181   3.025  10.286   4.426 -0.7347 -0.1021 -0.5394
  676MOL0     C91182   3.031  10.399   4.344  0.1557 -0.6520  1.1996
  676MOL0     C91183   3.053  10.535   4.378 -0.2368 -0.6100  0.1427
  676MOL0     O91184   3.039  10.639   4.288  0.5146 -0.1265 -0.2679
  676MOL0     C91185   3.010  10.771   4.343  0.7492 -0.0031 -0.2986
  676MOL0     C91186   3.155  10.828   4.364 -0.4114  0.1405  0.0677
  676MOL0     C91187   3.191  10.902   4.241  0.2173  0.1623 -0.5155
  676MOL0     C91188   3.200  11.055   4.269  0.7873  0.1279  0.7116
  676MOL0     C91189   3.336  11.102   4.307 -0.2615 -1.1303  0.4256
  676MOL0     C91190   3.453  11.129   4.326 -0.3513  0.5265  0.0099
  676MOL0     C91191   3.074  10.559   4.518 -0.9190 -0.3301 -0.3719
  676MOL0     C91192   3.086  10.450   4.600 -0.4924 -0.2943 -0.2186
  676MOL0     H91193   2.866  10.079   4.861 -2.2363 -1.3436 -1.7700
  676MOL0     H91194   2.859   9.897   5.019  0.0890  0.1720 -1.3344
  676MOL0     H91195   3.011   9.491   4.911 -0.2573 -3.2121  2.2760
  676MOL0     H91196   3.167   9.570   4.954  0.0670  3.0266  2.0456
  676MOL0     H91197   3.099   9.524   5.199  0.1147  3.3539 -2.9943
  676MOL0     H91198   2.968   9.425   5.130 -1.2270  1.6558  0.1135
  676MOL0     H91199   3.085   9.260   5.047  0.7336 -0.9447 -0.1830
  676MOL0     H91200   3.231   9.344   5.039  0.2552  1.0554  0.4928
  676MOL0     H91201   3.249   9.314   5.307  1.0797 -0.9355 -0.1659
  676MOL0     H91202   3.081   9.263   5.303  1.4143  0.2878  1.9146
  676MOL0     H91203   3.122   9.060   5.183 -1.0545 -1.0688  1.8212
  676MOL0     H91204   3.289   9.115   5.137 -0.6226 -2.0806  0.2315
  676MOL0     H91205   3.364   9.096   5.375  0.7549  2.4446 -2.8880
  676MOL0     H91206   3.192   9.056   5.423 -0.7293  2.8499 -1.0308
  676MOL0     H91207   3.216   8.868   5.249 -0.9229  0.0371 -0.0530
  676MOL0     H91208   3.390   8.912   5.232 -2.4313 -1.7937 -1.9906
  676MOL0     H91209   3.353   8.724   5.421 -1.6543 -1.4197  0.5818
  676MOL0     H91210   3.230   8.833   5.493  0.0830 -0.1860 -0.2891
  676MOL0     H91211   3.620   8.885   5.414 -1.2388 -0.6825  0.0747
  676MOL0     H91212   3.832   8.936   5.564 -2.4959  0.8689 -0.7080
  676MOL0     H91213   3.803   8.932   5.744  0.3133  1.3501 -0.8310
  676MOL0     H91214   3.748   8.684   5.706 -0.2859  0.7109  0.2934
  676MOL0     H91215   3.924   8.729   5.709  0.3410 -0.0371 -0.4024
  676MOL0     H91216   3.907   8.758   5.448  2.2805 -0.4954 -0.4638
  676MOL0     H91217   3.765   8.649   5.471  2.1479 -1.6246 -2.6531
  676MOL0     H91218   4.052   8.596   5.553  1.9133 -2.5905 -1.7050
  676MOL0     H91219   3.962   8.549   5.410 -2.3040 -0.8563 -0.4019
  676MOL0     H91220   3.755   8.251   5.628 -0.2787 -2.9702  1.3767
  676MOL0     H91221   3.703   8.035   5.689 -1.4116  0.4553 -1.6580
  676MOL0     H91222   3.768   7.909   5.579  1.9112  0.5560 -0.8493
  676MOL0     H91223   3.837   7.927   5.732  0.4237 -2.9197 -1.5473
  676MOL0     H91224   4.372   7.783   5.623  0.9507  0.3445 -0.1318
  676MOL0     H91225   4.467   7.577   5.564  0.0231  2.9452  1.3806
  676MOL0     H91226   4.330   7.333   5.452  0.9187 -1.6462  0.5405
  676MOL0     H91227   4.275   7.330   5.283  0.5200 -1.8784  1.1420
  676MOL0     H91228   4.534   7.203   5.390  0.1735  1.4033  0.6786
  676MOL0     H91229   4.386   7.114   5.345  1.4271  0.2695 -0.0861
  676MOL0     H91230   4.536   7.266   5.134 -1.0735  1.0308 -0.3621
  676MOL0     H91231   4.395   7.165   5.117  0.2137  0.7812 -0.8014
  676MOL0     H91232   4.682   7.082   5.211 -0.3381  1.9427  1.0317
  676MOL0     H91233   4.564   6.992   5.250  1.3316  1.5713  2.3368
  676MOL0     H91234   4.680   6.950   5.021 -0.0513  1.0043 -3.1571
  676MOL0     H91235   4.580   7.081   4.949  0.4104 -0.5394 -0.0500
  676MOL0     H91236   4.509   6.819   5.078  0.4020  0.1024 -0.2476
  676MOL0     H91237   4.385   6.950   5.069  0.9735  0.2720  1.8313
  676MOL0     H91238   4.506   6.859   4.804 -0.3950  0.0712 -2.3584
  676MOL0     H91239   4.359   6.949   4.853  1.7289  1.1777  0.7750
  676MOL0     H91240   4.299   6.725   4.777  1.5313  1.4340 -0.8305
  676MOL0     H91241   4.263   6.749   4.946 -1.0475 -3.2640 -1.1607
  676MOL0     H91242   4.310   7.581   5.173  0.9298  3.3748 -1.4462
  676MOL0     H91243   4.181   7.799   5.235 -2.0403 -1.2018 -0.2420
  676MOL0     H91244   4.224   8.151   5.509 -0.8217 -2.8658 -1.6839
  676MOL0     H91245   4.152   8.401   5.534  1.1200 -1.4507  0.6628
  676MOL0     H91246   3.107   9.660   4.757  0.8626  0.1194 -0.4093
  676MOL0     H91247   3.124   9.839   4.603 -0.0396 -1.5859 -0.0871
  676MOL0     H91248   2.995  10.187   4.394  1.6703 -0.8640 -0.6125
  676MOL0     H91249   2.988  10.392   4.245  0.1090 -0.2375  1.1878
  676MOL0     H91250   2.946  10.837   4.285 -1.4060  1.7983  3.7352
  676MOL0     H91251   2.955  10.763   4.437 -0.4537  1.2339 -0.8709
  676MOL0     H91252   3.218  10.742   4.387 -1.6113  0.0941  3.9480
  676MOL0     H91253   3.168  10.891   4.453  2.0626  0.3942 -0.3936
  676MOL0     H91254   3.113  10.889   4.166 -0.5679  2.4981 -0.1676
  676MOL0     H91255   3.284  10.873   4.191  0.3118 -2.0375  0.8021
  676MOL0     H91256   3.134  11.082   4.353  1.1816  0.2868  0.9742
  676MOL0     H91257   3.153  11.099   4.180 -0.7075 -3.5589 -0.4897
  676MOL0     H91258   3.554  11.161   4.334 -0.6695  1.6262 -0.1755
  676MOL0     H91259   3.097  10.661   4.548  2.8985 -1.2022  0.2123
  676MOL0     H91260   3.123  10.473   4.699 -2.8098  2.4480  0.1581
  677MOL0     O91261   5.234  11.075   1.526 -0.2584  0.5025 -0.7394
  677MOL0     C91262   5.122  11.034   1.554  0.2194  0.2245 -0.0945
  677MOL0     O91263   5.077  11.025   1.687 -0.4076  0.1899 -0.7595
  677MOL0     C91264   5.163  11.064   1.792  0.0080  0.2707 -0.8849
  677MOL0     C91265   5.178  10.977   1.899  0.2498 -1.1995  0.3571
  677MOL0     C91266   5.246  11.021   2.014  1.1202  0.6292 -0.1913
  677MOL0     C91267   5.315  11.138   2.014  0.7852  1.0643  0.7381
  677MOL0     O91268   5.365  11.171   2.136 -1.1091 -0.0248 -0.0199
  677MOL0     C91269   5.466  11.277   2.148  0.8298  0.0336 -0.4859
  677MOL0     C91270   5.571  11.251   2.267 -0.0907 -0.6213 -0.0600
  677MOL0     C91271   5.669  11.376   2.289  0.6091 -0.3359  0.3997
  677MOL0     C91272   5.733  11.420   2.156 -0.0644 -0.0157 -0.9653
  677MOL0     C91273   5.797  11.554   2.184  0.9176  0.2219  0.2049
  677MOL0     C91274   5.707  11.675   2.194 -0.1762 -0.4029  0.1968
  677MOL0     C91275   5.604  11.683   2.082 -0.2562  0.0238  0.1817
  677MOL0     C91276   5.526  11.820   2.091 -0.6462 -0.6421  0.3897
  677MOL0     N91277   5.471  11.847   2.223 -0.5293  1.1278  0.8185
  677MOL0     C91278   5.339  11.872   2.238  0.7119  0.3714 -0.0535
  677MOL0     C91279   5.338  11.933   2.360 -0.5751 -0.4555 -0.1761
  677MOL0     C91280   5.212  11.985   2.426 -0.7256 -0.3635 -0.8117
  677MOL0     C91281   5.180  11.910   2.551  0.7517  0.8000  0.1406
  677MOL0     C91282   5.027  11.940   2.595 -0.5683  0.2724  0.3900
  677MOL0     C91283   4.981  11.873   2.734  1.0686 -0.4666  0.6056
  677MOL0     O91284   4.951  11.739   2.710  0.1491 -0.2483  0.0821
  677MOL0     C91285   4.846  11.685   2.767  0.2228  0.7520 -0.4693
  677MOL0     C91286   4.779  11.582   2.709  1.2579 -0.4165 -0.2145
  677MOL0     C91287   4.677  11.519   2.790 -1.2887 -0.6817  0.6059
  677MOL0     C91288   4.630  11.387   2.725  0.7421 -0.8402 -0.4647
  677MOL0     C91289   4.659  11.552   2.925  0.1149  0.9832  0.2463
  677MOL0     C91290   4.564  11.473   3.010  0.0666  0.8912 -0.9293
  677MOL0     O91291   4.605  11.353   3.070 -0.7863 -1.4303  0.4918
  677MOL0     C91292   4.507  11.277   3.130  0.4448 -0.4041 -0.6269
  677MOL0     C91293   4.475  11.292   3.263  0.7427  0.3368 -0.4133
  677MOL0     C91294   4.370  11.212   3.317 -0.2326  0.1915 -0.1247
  677MOL0     C91295   4.299  11.124   3.228  0.3341 -0.5641  0.0128
  677MOL0     O91296   4.194  11.052   3.267 -0.0498 -0.3546  0.0443
  677MOL0     C91297   4.174  11.035   3.412 -0.3388 -0.2794  0.2826
  677MOL0     C91298   4.115  10.901   3.439  0.2686  0.0286  0.3010
  677MOL0     C91299   3.981  10.879   3.355 -0.9232 -0.7524 -0.1569
  677MOL0     C91300   3.901  10.759   3.386  0.3008  0.0637 -0.0609
  677MOL0     C91301   3.749  10.762   3.376 -0.6102 -0.9436  1.0148
  677MOL0     C91302   3.688  10.628   3.435  0.4711  0.1055  0.2048
  677MOL0     C91303   3.729  10.498   3.360 -0.1709 -1.0281 -0.5792
  677MOL0     C91304   3.634  10.386   3.386 -0.1274 -1.0390 -0.4042
  677MOL0    Cl91305   3.727  10.238   3.367  0.1497 -0.3482 -0.1456
  677MOL0     C91306   4.327  11.122   3.098 -0.3149  0.0558  0.5235
  677MOL0     C91307   4.436  11.188   3.047  0.8191 -0.0764  0.6284
  677MOL0     O91308   4.452  11.511   3.000 -0.2795  0.6293 -0.6465
  677MOL0     C91309   4.720  11.659   2.983  0.0661 -0.3055  0.0758
  677MOL0     C91310   4.819  11.727   2.894  0.7325 -0.0116 -0.9516
  677MOL0     N91311   5.469  11.929   2.414  0.7020 -0.0197 -0.2980
  677MOL0     N91312   5.549  11.894   2.325  0.3316  0.4167 -0.1228
  677MOL0     C91313   5.294  11.223   1.909  0.3619  0.8421 -0.4385
  677MOL0     C91314   5.218  11.190   1.797 -0.3565 -0.6067 -1.0541
  677MOL0     C91315   5.030  10.994   1.445 -0.5247  0.2033  0.0211
  677MOL0     C91316   5.047  11.023   1.301  1.1163  0.6911 -0.1946
  677MOL0     C91317   4.940  10.999   1.213 -0.1434 -0.2458 -0.4467
  677MOL0     C91318   4.821  10.947   1.254  0.4273  0.3748 -0.6399
  677MOL0     O91319   4.717  10.918   1.171  0.2847  0.0444  0.5015
  677MOL0     C91320   4.746  10.929   1.024  0.2010 -0.5476  0.1373
  677MOL0     C91321   4.832  10.812   0.972 -0.1099  0.8051 -0.2959
  677MOL0     C91322   4.839  10.813   0.814 -0.1833  0.0827 -0.1337
  677MOL0     C91323   4.883  10.675   0.768 -0.3544  0.8981  0.2533
  677MOL0     C91324   4.870  10.686   0.623  0.1812 -0.7337 -0.8277
  677MOL0     C91325   4.875  10.699   0.508  0.9692  0.1314  0.7254
  677MOL0     C91326   4.805  10.913   1.390  0.2171 -0.3891  0.0253
  677MOL0     C91327   4.908  10.938   1.479 -0.1506 -0.1434 -0.6816
  677MOL0     H91328   5.127  10.883   1.884 -0.8832 -0.2244 -2.4148
  677MOL0     H91329   5.245  10.974   2.112  0.0802  4.0397  1.5805
  677MOL0     H91330   5.511  11.283   2.048 -2.0098 -0.7961 -1.9215
  677MOL0     H91331   5.412  11.370   2.166 -4.7438 -3.0931  1.2479
  677MOL0     H91332   5.518  11.234   2.362 -0.4398 -1.6449 -0.4270
  677MOL0     H91333   5.626  11.158   2.246 -1.7358 -1.5407 -0.4251
  677MOL0     H91334   5.625  11.454   2.351  1.3304  0.4559 -0.0688
  677MOL0     H91335   5.751  11.344   2.354 -3.0512 -1.4479  5.0820
  677MOL0     H91336   5.803  11.340   2.126  0.8759  0.7943 -0.9911
  677MOL0     H91337   5.659  11.427   2.076 -0.0734  1.3679 -0.8547
  677MOL0     H91338   5.857  11.548   2.275  2.0615 -2.0311 -0.6066
  677MOL0     H91339   5.863  11.559   2.097  0.4697 -0.2451 -0.1672
  677MOL0     H91340   5.659  11.665   2.292 -3.3039  0.6578 -1.1007
  677MOL0     H91341   5.763  11.769   2.197  0.5485 -0.8141 -0.0316
  677MOL0     H91342   5.658  11.666   1.988  0.6190 -2.4002  1.0275
  677MOL0     H91343   5.528  11.605   2.091 -2.1610  2.0050  2.5257
  677MOL0     H91344   5.456  11.810   2.008  1.7243 -0.9566 -1.6892
  677MOL0     H91345   5.579  11.911   2.061 -1.9607 -0.1215 -0.4164
  677MOL0     H91346   5.263  11.877   2.160 -0.9159  0.5981  1.4914
  677MOL0     H91347   5.209  12.093   2.438 -3.8295 -0.4840  0.5239
  677MOL0     H91348   5.137  11.956   2.352 -0.1643 -3.8245 -0.2262
  677MOL0     H91349   5.259  11.939   2.621  0.4230 -1.1100  1.3593
  677MOL0     H91350   5.194  11.802   2.547 -1.8494  0.3502  1.2248
  677MOL0     H91351   4.962  11.912   2.512  2.0268 -0.8137 -1.4334
  677MOL0     H91352   5.009  12.047   2.609  3.5326  0.9924  1.5342
  677MOL0     H91353   4.908  11.939   2.780  1.5509 -0.2669  1.0929
  677MOL0     H91354   5.062  11.857   2.807  0.2798 -0.6613  1.4542
  677MOL0     H91355   4.796  11.542   2.610 -3.0160  0.5684 -1.5464
  677MOL0     H91356   4.705  11.308   2.715  1.1056 -0.3979 -1.3661
  677MOL0     H91357   4.552  11.338   2.784  1.6796 -0.2687  1.3009
  677MOL0     H91358   4.608  11.417   2.622 -1.0471  1.8854  0.5837
  677MOL0     H91359   4.526  11.368   3.321  3.5721 -1.7360  0.0614
  677MOL0     H91360   4.316  11.223   3.410 -1.5826 -0.6065 -0.7760
  677MOL0     H91361   4.270  11.028   3.464 -1.6785 -1.4303  2.7590
  677MOL0     H91362   4.118  11.121   3.448  1.3933  0.3189  1.7084
  677MOL0     H91363   4.183  10.818   3.419  0.1365 -0.9370  3.3467
  677MOL0     H91364   4.098  10.892   3.547  1.2274 -0.9038  0.3929
  677MOL0     H91365   4.000  10.891   3.248  3.1996  0.3679  0.5396
  677MOL0     H91366   3.924  10.964   3.396  1.3680  0.3300  0.9793
  677MOL0     H91367   3.938  10.683   3.316 -1.7259 -1.3544  0.3093
  677MOL0     H91368   3.917  10.719   3.486 -0.5357  0.6297  0.3128
  677MOL0     H91369   3.708  10.786   3.277 -0.5188  1.2118  1.4582
  677MOL0     H91370   3.718  10.847   3.437  1.1157  1.0141 -0.6803
  677MOL0     H91371   3.721  10.603   3.536 -1.1390  0.8338  0.9511
  677MOL0     H91372   3.579  10.636   3.433  0.2767 -1.8622  0.7173
  677MOL0     H91373   3.825  10.470   3.403  0.4449  1.6313 -0.0804
  677MOL0     H91374   3.744  10.510   3.252 -1.0838 -0.3506 -0.6448
  677MOL0     H91375   3.547  10.379   3.320  0.3481  1.3419 -1.3790
  677MOL0     H91376   3.602  10.395   3.491  3.0804  0.2979  0.5681
  677MOL0     H91377   4.260  11.056   3.043 -0.5919 -0.7542  1.7971
  677MOL0     H91378   4.446  11.170   2.940  0.5796 -0.0684  0.6043
  677MOL0     H91379   4.695  11.689   3.085 -0.9551 -1.1191  0.0852
  677MOL0     H91380   4.877  11.804   2.943  2.2214  1.0634 -4.1225
  677MOL0     H91381   5.351  11.313   1.928  3.8311 -0.4882 -3.3649
  677MOL0     H91382   5.211  11.265   1.718 -0.3204 -1.5512 -1.9684
  677MOL0     H91383   5.145  11.056   1.270  1.8566 -0.1605  1.1341
  677MOL0     H91384   4.973  11.037   1.117  1.3541  3.3499  1.3507
  677MOL0     H91385   4.650  10.917   0.974  0.5351 -0.0677 -0.6441
  677MOL0     H91386   4.783  11.025   0.987 -2.2066  0.4055 -0.0008
  677MOL0     H91387   4.782  10.718   0.998  3.3800 -1.5127 -1.2018
  677MOL0     H91388   4.933  10.818   1.014 -0.4357  0.1113  0.6216
  677MOL0     H91389   4.918  10.876   0.771 -1.4338 -0.9995 -4.5755
  677MOL0     H91390   4.748  10.848   0.765 -0.0529  1.3665  0.4855
  677MOL0     H91391   4.819  10.598   0.812 -0.9359  1.0666 -0.2868
  677MOL0     H91392   4.988  10.663   0.796 -0.1198  2.5144  0.1552
  677MOL0     H91393   4.876  10.700   0.401  1.1023 -0.0644  0.7246
  677MOL0     H91394   4.710  10.869   1.417 -0.4671  3.6431  6.1749
  677MOL0     H91395   4.883  10.918   1.583 -0.5088  0.1200 -0.7135
  678MOL0     O91396   6.635   5.941   7.846  0.6112 -0.4900 -0.0028
  678MOL0     C91397   6.744   5.890   7.850  0.3181 -0.4849  0.3568
  678MOL0     O91398   6.763   5.756   7.875  0.6648  0.1033 -0.3430
  678MOL0     C91399   6.656   5.683   7.921  0.3820 -0.1502  0.3590
  678MOL0     C91400   6.676   5.621   8.044 -0.2649  1.0495 -0.0999
  678MOL0     C91401   6.583   5.525   8.082 -0.9234  0.4359  1.0719
  678MOL0     C91402   6.481   5.485   7.999  0.2657 -0.9561 -0.2753
  678MOL0     O91403   6.396   5.380   8.030 -0.0523  0.4135  0.2907
  678MOL0     C91404   6.371   5.381   8.172 -0.7107  1.0237  0.4419
  678MOL0     C91405   6.228   5.341   8.203 -0.0409 -0.4329  0.7113
  678MOL0     C91406   6.127   5.427   8.120  0.3986 -1.1720 -0.0401
  678MOL0     C91407   5.990   5.469   8.203 -0.5352 -0.0357  0.0314
  678MOL0     C91408   5.890   5.348   8.221  0.1008  0.3858  0.3622
  678MOL0     C91409   5.795   5.374   8.338 -0.3914 -0.4854  0.0455
  678MOL0     C91410   5.666   5.297   8.331 -0.1386  0.0545 -0.0377
  678MOL0     C91411   5.560   5.329   8.435  0.0102 -0.7004  0.4073
  678MOL0     N91412   5.607   5.295   8.571 -0.2482  0.4187  0.4994
  678MOL0     C91413   5.653   5.168   8.613  0.9258 -0.1261  0.7554
  678MOL0     C91414   5.655   5.179   8.744 -0.4457 -0.9285 -0.4688
  678MOL0     C91415   5.709   5.072   8.836  0.4206  0.8512 -0.2336
  678MOL0     C91416   5.852   5.020   8.811  0.5054  0.8969  0.7715
  678MOL0     C91417   5.968   5.117   8.818  0.0817 -0.1241 -0.5945
  678MOL0     C91418   6.094   5.049   8.836 -0.3501  1.0622 -0.0733
  678MOL0     O91419   6.199   5.143   8.839  0.6000 -0.1330 -0.2835
  678MOL0     C91420   6.317   5.079   8.872  0.7869  0.1002 -0.0003
  678MOL0     C91421   6.398   5.034   8.772 -0.4430 -0.8481  0.0375
  678MOL0     C91422   6.516   4.962   8.794 -0.0048  0.4023  0.2193
  678MOL0     C91423   6.590   4.916   8.671 -0.8601 -0.6435  0.4805
  678MOL0     C91424   6.540   4.919   8.930 -0.8233  0.5024 -0.2775
  678MOL0     C91425   6.660   4.835   8.966  1.3674  0.2508 -0.4049
  678MOL0     O91426   6.670   4.808   9.106 -0.8090 -0.3517 -0.1760
  678MOL0     C91427   6.781   4.754   9.161  0.4984 -0.0969  1.0127
  678MOL0     C91428   6.906   4.814   9.135 -0.2699  0.3784 -0.3464
  678MOL0     C91429   7.010   4.755   9.196 -1.2849 -0.0759  0.2925
  678MOL0     C91430   6.996   4.640   9.283 -0.1388  0.4491 -0.0246
  678MOL0     O91431   7.106   4.574   9.334  0.8534  1.0127  0.5858
  678MOL0     C91432   7.222   4.580   9.270  0.9079  0.0325 -0.0636
  678MOL0     C91433   7.291   4.445   9.292  0.1675 -0.1209  0.5211
  678MOL0     C91434   7.290   4.384   9.437  0.2780 -0.2711  0.2940
  678MOL0     C91435   7.397   4.281   9.453  0.1945  0.7068  0.1048
  678MOL0     C91436   7.400   4.241   9.601  0.1275  0.1041 -0.0809
  678MOL0     C91437   7.519   4.138   9.625 -0.5778  0.1523  0.3638
  678MOL0     C91438   7.658   4.186   9.592  0.9372  0.5769 -0.5445
  678MOL0     C91439   7.689   4.291   9.702  0.3110  0.6028  0.0506
  678MOL0    Cl91440   7.871   4.309   9.731  0.0756  0.1932  0.1644
  678MOL0     C91441   6.877   4.589   9.313 -0.3985  0.2386 -0.3881
  678MOL0     C91442   6.765   4.643   9.250 -0.7093 -0.0186  0.1453
  678MOL0     O91443   6.737   4.801   8.884 -0.0699 -0.1507  0.6410
  678MOL0     C91444   6.458   4.970   9.035 -0.8978  0.3632 -0.1540
  678MOL0     C91445   6.341   5.043   9.006  1.2038  0.2911  0.6248
  678MOL0     N91446   5.623   5.307   8.784  0.2053 -0.3105 -0.0263
  678MOL0     N91447   5.587   5.371   8.681  0.1736 -0.3856  0.4978
  678MOL0     C91448   6.465   5.551   7.877 -0.2377  0.4937 -0.1247
  678MOL0     C91449   6.546   5.656   7.839 -0.1552 -0.3405 -0.4685
  678MOL0     C91450   6.862   5.968   7.802 -0.7746  0.1177 -0.7851
  678MOL0     C91451   6.842   6.099   7.750 -0.3103  0.5179  0.4938
  678MOL0     C91452   6.947   6.180   7.711 -0.5213 -0.2066 -0.2513
  678MOL0     C91453   7.079   6.138   7.725  0.5175 -0.2595  0.4626
  678MOL0     O91454   7.180   6.227   7.693  0.4301 -0.5538  0.1850
  678MOL0     C91455   7.315   6.197   7.712 -0.0762 -0.0839  0.5461
  678MOL0     C91456   7.385   6.325   7.694  0.1845  0.9602  0.4088
  678MOL0     C91457   7.379   6.401   7.559 -0.8262  0.2951  0.6586
  678MOL0     C91458   7.463   6.342   7.447  0.2699  0.9458  0.1157
  678MOL0     C91459   7.412   6.209   7.410  0.2673 -0.1789 -0.4926
  678MOL0     C91460   7.356   6.107   7.383 -1.1349  0.8862  0.0447
  678MOL0     C91461   7.100   6.006   7.774  0.0576 -0.5271  0.1740
  678MOL0     C91462   6.988   5.923   7.807 -0.6408  1.0053 -0.1348
  678MOL0     H91463   6.767   5.639   8.100  0.7990 -1.4966 -0.8561
  678MOL0     H91464   6.602   5.470   8.173 -0.2847  2.5525  2.2862
  678MOL0     H91465   6.428   5.306   8.226 -1.0538  0.2945 -0.1965
  678MOL0     H91466   6.396   5.470   8.231 -0.3590  0.5082  1.0784
  678MOL0     H91467   6.209   5.235   8.184 -1.9897 -0.1992  1.2357
  678MOL0     H91468   6.206   5.349   8.310  2.9238  1.0235  1.3308
  678MOL0     H91469   6.174   5.523   8.099 -2.1894  0.0730 -0.5661
  678MOL0     H91470   6.097   5.367   8.033 -1.4794 -2.0515  1.1313
  678MOL0     H91471   6.021   5.516   8.297  1.8504  2.8143 -1.9988
  678MOL0     H91472   5.945   5.550   8.144 -1.8957 -1.3052 -0.7312
  678MOL0     H91473   5.832   5.355   8.129 -0.3359 -0.2716  0.5843
  678MOL0     H91474   5.935   5.249   8.231  2.5404  1.6504  4.1648
  678MOL0     H91475   5.846   5.359   8.434 -0.1151 -0.0155 -0.0236
  678MOL0     H91476   5.760   5.478   8.343  1.1375  0.0958 -0.9580
  678MOL0     H91477   5.623   5.303   8.231  0.0071  2.8677 -0.0145
  678MOL0     H91478   5.703   5.195   8.344 -0.0429  0.0055 -0.6300
  678MOL0     H91479   5.466   5.278   8.412 -1.0043  2.0182 -2.1422
  678MOL0     H91480   5.543   5.437   8.432 -0.0059 -0.7050  0.3136
  678MOL0     H91481   5.680   5.084   8.550  1.4953 -0.1257  0.9976
  678MOL0     H91482   5.723   5.124   8.931 -0.1048  0.8252 -0.1401
  678MOL0     H91483   5.639   4.987   8.838  2.5799 -1.0231  0.8011
  678MOL0     H91484   5.847   4.983   8.708  0.3330  0.1118  1.0495
  678MOL0     H91485   5.861   4.929   8.872 -3.9531 -1.5113 -1.5591
  678MOL0     H91486   5.956   5.181   8.905  1.4869 -1.4434  0.6312
  678MOL0     H91487   5.977   5.174   8.725  0.5645  0.7664 -0.0142
  678MOL0     H91488   6.113   4.971   8.761 -1.4273 -0.9249  1.6259
  678MOL0     H91489   6.081   4.988   8.925  1.0892 -0.5203 -0.8906
  678MOL0     H91490   6.363   5.061   8.672 -0.9609  1.8564  0.8547
  678MOL0     H91491   6.557   4.980   8.588 -4.5202 -4.0147 -0.9673
  678MOL0     H91492   6.697   4.921   8.691 -1.2138  1.2447  2.2348
  678MOL0     H91493   6.574   4.811   8.644 -0.9234 -0.9697  1.7362
  678MOL0     H91494   6.929   4.897   9.070  3.3873 -1.4292 -1.6557
  678MOL0     H91495   7.109   4.794   9.178 -0.6838 -1.9168 -0.6988
  678MOL0     H91496   7.225   4.598   9.162  2.0537 -0.2770 -0.1024
  678MOL0     H91497   7.281   4.662   9.312  0.1644 -0.6945  2.6420
  678MOL0     H91498   7.237   4.376   9.226 -0.4394  0.8879 -0.0512
  678MOL0     H91499   7.396   4.452   9.266  0.6504 -2.2340  1.6109
  678MOL0     H91500   7.191   4.343   9.461  0.5842 -1.7961 -0.8741
  678MOL0     H91501   7.308   4.467   9.504  2.7506 -0.6898  0.2328
  678MOL0     H91502   7.378   4.197   9.385  0.3020  0.9104 -0.1835
  678MOL0     H91503   7.495   4.323   9.429  2.2535 -1.8631  3.2864
  678MOL0     H91504   7.314   4.180   9.629 -0.4418 -1.2921 -4.1936
  678MOL0     H91505   7.420   4.329   9.662  0.4915  0.6087 -0.9094
  678MOL0     H91506   7.518   4.091   9.724  4.6945 -1.3096  0.0233
  678MOL0     H91507   7.501   4.051   9.562 -2.5861  0.8755 -0.1467
  678MOL0     H91508   7.675   4.216   9.489 -0.7372 -1.4709 -1.4810
  678MOL0     H91509   7.716   4.096   9.612 -0.5444 -0.0615  1.1284
  678MOL0     H91510   7.646   4.276   9.802 -0.1768  1.4757 -0.0194
  678MOL0     H91511   7.651   4.387   9.665 -1.1692 -0.3151 -0.8640
  678MOL0     H91512   6.861   4.511   9.386  3.3218  0.6501  1.0809
  678MOL0     H91513   6.666   4.600   9.253  0.3456 -2.7264 -0.3090
  678MOL0     H91514   6.483   4.958   9.140  1.1971 -1.1726 -0.7662
  678MOL0     H91515   6.278   5.083   9.086  0.7318  0.7312  0.0427
  678MOL0     H91516   6.381   5.513   7.819  1.2018 -0.8773 -1.4126
  678MOL0     H91517   6.542   5.706   7.743 -2.4010  2.6690  1.0077
  678MOL0     H91518   6.749   6.153   7.735  0.8805  2.3633 -0.5906
  678MOL0     H91519   6.931   6.277   7.665 -0.9593 -0.4404 -0.5950
  678MOL0     H91520   7.322   6.157   7.814  0.3701 -1.4620  0.0008
  678MOL0     H91521   7.350   6.119   7.643  1.9559 -0.5801  2.0405
  678MOL0     H91522   7.491   6.302   7.707  0.3807 -1.0801 -3.3523
  678MOL0     H91523   7.353   6.398   7.769  0.4177  1.8567 -0.3389
  678MOL0     H91524   7.427   6.498   7.573  1.4379 -0.4651 -1.2211
  678MOL0     H91525   7.272   6.408   7.535 -1.3593  0.3443  2.8302
  678MOL0     H91526   7.562   6.331   7.492 -1.1813  0.2831  3.4844
  678MOL0     H91527   7.462   6.403   7.356  2.7298  1.4116  0.3325
  678MOL0     H91528   7.305   6.018   7.351  1.6865  0.1447 -3.0366
  678MOL0     H91529   7.204   5.975   7.772  0.2407 -1.9001  6.8810
  678MOL0     H91530   6.995   5.820   7.842 -1.2692  0.4233 -1.6023
  679MOL0     O91531  10.130   9.033   2.872 -0.2821  0.4390 -0.1337
  679MOL0     C91532  10.027   9.059   2.813 -0.5986  0.5707 -0.5053
  679MOL0     O91533  10.019   9.101   2.695 -0.1003  0.0106  0.6303
  679MOL0     C91534  10.131   9.144   2.627  0.0503 -0.6969  0.2960
  679MOL0     C91535  10.189   9.270   2.663  0.6121 -0.3897  0.5261
  679MOL0     C91536  10.300   9.316   2.591 -0.3295  0.3757  0.6421
  679MOL0     C91537  10.356   9.237   2.486 -0.2642 -0.5295 -0.4270
  679MOL0     O91538  10.471   9.277   2.430  0.2578 -0.1065  0.4344
  679MOL0     C91539  10.567   9.191   2.367  0.1549 -0.2452 -0.7539
  679MOL0     C91540  10.683   9.272   2.339 -0.4327  1.5205 -0.0921
  679MOL0     C91541  10.809   9.197   2.295 -0.0446  0.7067 -0.0771
  679MOL0     C91542  10.797   9.152   2.148 -0.0342 -0.0725 -0.3236
  679MOL0     C91543  10.917   9.065   2.116 -0.0885 -0.6757  0.2286
  679MOL0     C91544  10.907   9.020   1.970  0.5445 -0.5910 -0.6859
  679MOL0     C91545  11.045   8.948   1.938 -0.7070 -0.2115 -0.3060
  679MOL0     C91546  11.038   8.803   1.985  0.1748 -0.4026  0.8432
  679MOL0     N91547  11.146   8.722   1.924  0.2660 -0.2578 -0.5435
  679MOL0     C91548  11.139   8.676   1.796  0.9132  0.4047  0.2452
  679MOL0     C91549  11.228   8.576   1.781 -0.6832 -0.3565 -0.8051
  679MOL0     C91550  11.238   8.483   1.662 -0.0923  0.5013 -0.3856
  679MOL0     C91551  11.369   8.507   1.591 -0.6138 -0.0738  0.9338
  679MOL0     C91552  11.376   8.646   1.526 -0.3824 -0.6129 -0.1407
  679MOL0     C91553  11.269   8.665   1.424  0.5801 -0.6389  0.1159
  679MOL0     O91554  11.294   8.795   1.372 -0.7004 -0.5591  0.5400
  679MOL0     C91555  11.239   8.898   1.450 -0.4339 -0.5090 -0.0758
  679MOL0     C91556  11.101   8.905   1.481 -0.4728  0.3599  0.0186
  679MOL0     C91557  11.040   9.010   1.547 -0.1730  0.8573 -0.4591
  679MOL0     C91558  10.899   8.985   1.591 -0.4429 -0.6912  0.2095
  679MOL0     C91559  11.117   9.127   1.589  0.8273  0.1108  0.2232
  679MOL0     C91560  11.059   9.251   1.654  0.3170  0.2709 -0.1999
  679MOL0     O91561  11.125   9.308   1.756  0.1620  0.2176  0.7945
  679MOL0     C91562  11.045   9.383   1.849  0.2105  0.1187 -0.3941
  679MOL0     C91563  11.070   9.350   1.979 -0.5006  0.0333 -0.4189
  679MOL0     C91564  11.031   9.434   2.088  0.9555 -0.6453 -0.1721
  679MOL0     C91565  10.958   9.555   2.068 -0.5370  0.3144  0.1070
  679MOL0     O91566  10.910   9.638   2.171 -0.1173 -0.4509 -0.4867
  679MOL0     C91567  10.963   9.771   2.161 -0.3647 -0.0781 -0.8039
  679MOL0     C91568  10.934   9.831   2.292 -0.4880 -0.6195  0.3508
  679MOL0     C91569  10.975   9.743   2.420  0.1699  0.2920  0.0146
  679MOL0     C91570  10.967   9.839   2.547  0.3865  0.6915  0.1116
  679MOL0     C91571  10.824   9.866   2.609 -0.1356 -0.6847  0.1845
  679MOL0     C91572  10.832   9.996   2.695  0.1751  0.1315  0.7778
  679MOL0     C91573  10.704  10.013   2.775  0.1576  0.7723 -0.1215
  679MOL0     C91574  10.589  10.056   2.690  0.8390 -0.0366 -0.0490
  679MOL0    Cl91575  10.436  10.042   2.795  0.1817 -0.2575  0.4774
  679MOL0     C91576  10.934   9.588   1.931  0.4303 -0.3382  0.5461
  679MOL0     C91577  10.975   9.502   1.818 -0.1037  0.0627 -1.2236
  679MOL0     O91578  10.951   9.288   1.604  0.1642  0.7583  0.2536
  679MOL0     C91579  11.253   9.124   1.563 -0.6061 -0.3053 -0.1689
  679MOL0     C91580  11.311   9.004   1.498 -0.7550 -0.8114 -0.3495
  679MOL0     N91581  11.294   8.564   1.908 -0.2445 -0.4677  0.3161
  679MOL0     N91582  11.238   8.647   1.987 -0.1683 -0.0978  0.0605
  679MOL0     C91583  10.285   9.120   2.452  0.0887 -0.1362 -0.6787
  679MOL0     C91584  10.165   9.081   2.509  1.1485  0.6873  0.3564
  679MOL0     C91585   9.909   9.019   2.886 -0.0152  0.1543  0.0704
  679MOL0     C91586   9.784   9.084   2.862  0.3861  0.0640 -0.3629
  679MOL0     C91587   9.666   9.044   2.924 -0.4161 -0.0028  0.8987
  679MOL0     C91588   9.662   8.935   3.013 -0.5186 -0.0845  0.3022
  679MOL0     O91589   9.557   8.891   3.101  0.1288 -0.2023 -0.1933
  679MOL0     C91590   9.485   8.992   3.167  0.8689  0.1670 -1.1405
  679MOL0     C91591   9.348   8.937   3.211 -0.4983  0.7873  0.5990
  679MOL0     C91592   9.263   9.052   3.262  0.0716 -0.8720 -0.3818
  679MOL0     C91593   9.139   9.026   3.347 -1.0105 -0.1610 -0.5191
  679MOL0     C91594   9.170   8.943   3.468 -0.0953  0.0084  0.6638
  679MOL0     C91595   9.201   8.865   3.551 -0.2291 -0.7376  0.0062
  679MOL0     C91596   9.786   8.877   3.035 -0.0476 -0.4118 -0.6708
  679MOL0     C91597   9.912   8.913   2.978 -0.7084  0.5879  0.0260
  679MOL0     H91598  10.146   9.322   2.748 -0.3403 -2.3329  1.3156
  679MOL0     H91599  10.339   9.412   2.620 -0.2140 -0.3736  3.2666
  679MOL0     H91600  10.589   9.110   2.438 -2.0734  0.3180  0.6675
  679MOL0     H91601  10.520   9.144   2.281 -1.3398  2.3853 -1.4845
  679MOL0     H91602  10.659   9.346   2.261  0.3025 -0.5209 -2.4033
  679MOL0     H91603  10.704   9.321   2.434  0.1735 -0.4429  0.8362
  679MOL0     H91604  10.898   9.260   2.304  0.0890  0.2870  2.3960
  679MOL0     H91605  10.824   9.112   2.362  0.2631  1.4063  0.7805
  679MOL0     H91606  10.708   9.088   2.148 -0.8208  0.9136  1.6470
  679MOL0     H91607  10.786   9.236   2.080  1.1396 -0.1661 -0.6419
  679MOL0     H91608  11.007   9.123   2.137 -0.5782 -0.1468  0.9324
  679MOL0     H91609  10.908   8.983   2.188  1.8715  0.3222  1.7111
  679MOL0     H91610  10.821   8.953   1.958 -1.1425  1.6829 -2.4108
  679MOL0     H91611  10.898   9.115   1.917  1.2395  0.8756  1.6510
  679MOL0     H91612  11.072   8.943   1.832 -1.0848 -1.0841 -0.3735
  679MOL0     H91613  11.134   9.000   1.975 -0.3235 -0.5595 -0.7049
  679MOL0     H91614  10.942   8.754   1.966 -0.6101 -0.0157  3.3530
  679MOL0     H91615  11.046   8.809   2.094  5.5091  5.2590  0.6484
  679MOL0     H91616  11.075   8.696   1.711 -0.9557 -0.4155  1.3876
  679MOL0     H91617  11.240   8.378   1.693  1.7652  1.0434  1.5994
  679MOL0     H91618  11.152   8.495   1.596  0.0868 -0.6978 -0.8445
  679MOL0     H91619  11.383   8.435   1.509  2.3510 -0.7117  1.8775
  679MOL0     H91620  11.467   8.501   1.640  0.5411  3.5190 -0.6623
  679MOL0     H91621  11.473   8.663   1.479  0.7159  1.7668  2.6619
  679MOL0     H91622  11.371   8.719   1.608 -2.4251 -0.9200  0.0729
  679MOL0     H91623  11.163   8.658   1.452 -0.3459  1.9123 -2.2684
  679MOL0     H91624  11.280   8.583   1.352 -1.3373 -2.4286  1.7188
  679MOL0     H91625  11.043   8.825   1.436  0.4681 -0.0758 -0.4649
  679MOL0     H91626  10.882   8.880   1.619 -0.5666 -1.1777 -1.5919
  679MOL0     H91627  10.871   9.047   1.676 -0.3141 -0.7217  0.2752
  679MOL0     H91628  10.825   9.008   1.514 -1.8329 -1.1994  1.3436
  679MOL0     H91629  11.137   9.267   1.997 -1.8765 -0.9555  0.2620
  679MOL0     H91630  11.054   9.413   2.192 -1.4243 -0.5998  0.4301
  679MOL0     H91631  11.068   9.770   2.129 -0.3686  1.2965 -0.9463
  679MOL0     H91632  10.910   9.834   2.088  0.4299  2.3577  0.5834
  679MOL0     H91633  10.978   9.932   2.295 -0.5007 -0.5673 -0.7092
  679MOL0     H91634  10.825   9.844   2.295 -0.6635 -1.7856 -0.4201
  679MOL0     H91635  11.080   9.712   2.416  0.6473  1.7624  0.5162
  679MOL0     H91636  10.911   9.655   2.430  0.1857  0.2391 -0.3519
  679MOL0     H91637  11.021   9.780   2.622 -2.0626  0.6507  1.9447
  679MOL0     H91638  11.029   9.928   2.534 -0.1889  1.4121  1.9510
  679MOL0     H91639  10.801   9.783   2.677  1.1060 -0.7666  0.5401
  679MOL0     H91640  10.747   9.879   2.532 -0.0094  0.9773  0.3188
  679MOL0     H91641  10.923  10.003   2.755  0.5510  0.4450  0.1759
  679MOL0     H91642  10.843  10.082   2.628 -1.2379 -0.1528  0.1413
  679MOL0     H91643  10.710  10.100   2.840 -2.4820  0.5234  0.5786
  679MOL0     H91644  10.685   9.922   2.832 -0.3644 -0.1195 -1.6406
  679MOL0     H91645  10.579  10.005   2.594  0.7972 -1.1614  0.5429
  679MOL0     H91646  10.610  10.161   2.665  1.3898 -0.3466 -0.9310
  679MOL0     H91647  10.886   9.681   1.901 -0.2086 -0.6602  0.5578
  679MOL0     H91648  10.957   9.527   1.714 -2.5739  3.1909 -0.2310
  679MOL0     H91649  11.310   9.215   1.581  1.4027 -1.8528  1.9237
  679MOL0     H91650  11.414   8.991   1.467 -0.6470 -0.5307 -0.1172
  679MOL0     H91651  10.322   9.063   2.368  0.0972 -0.9525 -0.1377
  679MOL0     H91652  10.116   8.990   2.476  0.7210  1.7167 -2.0290
  679MOL0     H91653   9.782   9.170   2.795 -1.2616 -0.1086 -0.5825
  679MOL0     H91654   9.572   9.088   2.890 -0.6639 -1.8072 -1.0409
  679MOL0     H91655   9.548   9.031   3.246 -1.4500  3.4533 -0.7257
  679MOL0     H91656   9.457   9.082   3.111  0.9767  0.9767  0.0676
  679MOL0     H91657   9.359   8.869   3.296 -0.2995 -1.1935 -0.9486
  679MOL0     H91658   9.303   8.886   3.125  0.8611  1.7339 -0.7127
  679MOL0     H91659   9.223   9.109   3.178 -0.1539  2.0041  1.5174
  679MOL0     H91660   9.338   9.123   3.300 -1.9105  1.0569  0.1394
  679MOL0     H91661   9.058   8.982   3.287 -0.2137  1.2144 -2.7232
  679MOL0     H91662   9.095   9.117   3.388  2.4460 -0.2408  4.2381
  679MOL0     H91663   9.217   8.791   3.626 -0.9507 -1.1742 -0.2545
  679MOL0     H91664   9.808   8.796   3.104 -0.1027 -4.0131 -4.4763
  679MOL0     H91665  10.005   8.860   2.998 -2.6688 -3.0862  0.1829
  680MOL0     O91666   8.811   8.975   2.623  0.3079 -0.3236  0.2041
  680MOL0     C91667   8.800   8.861   2.664  0.2916  0.2286  0.7469
  680MOL0     O91668   8.725   8.765   2.604 -0.4478  0.2619  0.3031
  680MOL0     C91669   8.678   8.787   2.478 -0.0800  0.5368  0.1858
  680MOL0     C91670   8.592   8.891   2.446  1.0070  0.0644 -0.2575
  680MOL0     C91671   8.531   8.877   2.315 -0.8565  0.3803  0.4574
  680MOL0     C91672   8.551   8.766   2.238 -0.4574  0.0736  0.4789
  680MOL0     O91673   8.474   8.764   2.118  0.4112 -0.3134  0.2695
  680MOL0     C91674   8.529   8.693   1.996  0.9099  0.7624  0.2905
  680MOL0     C91675   8.571   8.801   1.898 -0.4710 -0.1909 -0.5769
  680MOL0     C91676   8.450   8.882   1.832  0.4136 -0.0130 -0.5429
  680MOL0     C91677   8.364   8.793   1.745 -0.4832  0.6846 -0.2302
  680MOL0     C91678   8.283   8.868   1.635  0.6245  0.3317  0.7177
  680MOL0     C91679   8.190   8.759   1.564 -0.4496 -0.6006 -0.3512
  680MOL0     C91680   8.105   8.807   1.443  0.6176  0.3194  0.4404
  680MOL0     C91681   7.975   8.722   1.425  0.3793  0.7772  1.1366
  680MOL0     N91682   8.014   8.585   1.382 -0.1312  0.4622 -0.3619
  680MOL0     C91683   8.104   8.545   1.285  0.7888 -1.1082  1.1758
  680MOL0     C91684   8.080   8.411   1.271  1.2451 -0.9626  0.2123
  680MOL0     C91685   8.132   8.319   1.159 -0.9232 -0.7458  0.0657
  680MOL0     C91686   8.236   8.225   1.223 -1.2557  0.3377  0.7744
  680MOL0     C91687   8.263   8.095   1.146  0.3034  0.0509 -0.1115
  680MOL0     C91688   8.383   8.039   1.214 -0.0177  0.8306  0.0560
  680MOL0     O91689   8.502   8.113   1.190 -0.3944  0.1298  0.6513
  680MOL0     C91690   8.618   8.055   1.216  0.1130 -0.1295 -0.0372
  680MOL0     C91691   8.644   7.941   1.295  0.6077 -0.4080  0.2277
  680MOL0     C91692   8.767   7.893   1.323  0.4768  0.5361  0.1892
  680MOL0     C91693   8.769   7.778   1.421  0.6381  0.6553 -0.6839
  680MOL0     C91694   8.880   7.969   1.278  0.6183 -0.6329 -0.1963
  680MOL0     C91695   9.025   7.947   1.306 -0.8422  0.2628 -0.5077
  680MOL0     O91696   9.112   8.037   1.262  0.1227 -0.0361 -0.1501
  680MOL0     C91697   9.250   8.026   1.277  0.3769 -0.8267 -0.1807
  680MOL0     C91698   9.317   8.096   1.172 -0.6909 -0.2977 -0.2162
  680MOL0     C91699   9.454   8.094   1.150 -0.9983  0.4056  0.8613
  680MOL0     C91700   9.537   8.019   1.234  0.3788  0.2151 -0.9615
  680MOL0     O91701   9.672   8.028   1.260  0.2012 -0.5118 -0.1649
  680MOL0     C91702   9.733   8.145   1.204 -0.6451 -0.2480 -0.2585
  680MOL0     C91703   9.816   8.097   1.084  0.0859  0.8735 -0.2527
  680MOL0     C91704   9.867   8.210   0.988  0.0832  0.5118 -1.0701
  680MOL0     C91705   9.958   8.308   1.075 -1.0435 -0.3025  0.8809
  680MOL0     C91706   9.988   8.433   1.011  0.3870  0.6760 -0.5298
  680MOL0     C91707  10.053   8.410   0.870  0.1498 -0.9330 -0.5640
  680MOL0     C91708  10.097   8.538   0.799  0.1216 -0.3050  0.5229
  680MOL0     C91709   9.977   8.615   0.756 -0.8622 -0.1093 -0.3283
  680MOL0    Cl91710  10.034   8.786   0.722 -0.0224  0.4525 -0.0666
  680MOL0     C91711   9.475   7.939   1.328 -0.3762  0.2910 -0.1115
  680MOL0     C91712   9.329   7.945   1.359 -0.3740  0.1081  0.0168
  680MOL0     O91713   9.051   7.836   1.366  0.2912  0.7811  0.7518
  680MOL0     C91714   8.859   8.074   1.186  0.1931 -0.0782 -0.1415
  680MOL0     C91715   8.730   8.110   1.160 -0.4457 -0.0892  0.1363
  680MOL0     N91716   7.984   8.370   1.361  0.4835  0.4108 -1.1507
  680MOL0     N91717   7.949   8.472   1.427  0.1549 -0.2854  0.3471
  680MOL0     C91718   8.661   8.685   2.266 -0.0471 -0.4077 -0.1078
  680MOL0     C91719   8.722   8.703   2.382  0.9072  1.3941 -0.5461
  680MOL0     C91720   8.846   8.840   2.797 -0.0147 -0.9048  0.0023
  680MOL0     C91721   8.861   8.709   2.837  0.2317  0.1302  0.5842
  680MOL0     C91722   8.915   8.678   2.957  0.0907 -0.0628  0.1436
  680MOL0     C91723   8.967   8.773   3.040 -0.0349  0.1468 -0.0491
  680MOL0     O91724   9.022   8.747   3.163 -0.4071 -0.7067 -0.2400
  680MOL0     C91725   9.114   8.640   3.167 -0.6400 -0.3051 -0.7867
  680MOL0     C91726   9.158   8.618   3.311  0.3010 -0.0432 -0.1709
  680MOL0     C91727   9.237   8.490   3.333  0.0384 -0.4560  0.5958
  680MOL0     C91728   9.313   8.502   3.461  0.1676  0.8385  0.6236
  680MOL0     C91729   9.442   8.576   3.438 -0.0477 -0.6022  0.1323
  680MOL0     C91730   9.527   8.660   3.436 -0.7453 -0.4923 -0.1800
  680MOL0     C91731   8.948   8.907   3.002  0.0296 -0.4017 -0.9441
  680MOL0     C91732   8.895   8.940   2.878  0.5260  0.4617 -0.4522
  680MOL0     H91733   8.566   8.971   2.514 -0.0969 -0.1838 -0.3699
  680MOL0     H91734   8.458   8.952   2.289 -2.1619 -0.6231  1.1420
  680MOL0     H91735   8.612   8.626   2.018  1.0755  0.5219 -0.9724
  680MOL0     H91736   8.457   8.624   1.951  2.7315 -0.2298 -1.2550
  680MOL0     H91737   8.623   8.881   1.952  0.9796  2.6680 -5.5903
  680MOL0     H91738   8.644   8.768   1.823 -0.2248  3.3409 -2.1002
  680MOL0     H91739   8.381   8.928   1.904 -0.7032 -0.5970 -1.2100
  680MOL0     H91740   8.487   8.963   1.768  3.7661 -0.9900  0.0062
  680MOL0     H91741   8.427   8.725   1.688 -0.6923  0.4830 -0.2211
  680MOL0     H91742   8.295   8.728   1.800 -0.4654 -0.2318 -1.2748
  680MOL0     H91743   8.224   8.943   1.689  0.2210 -0.5682  1.5587
  680MOL0     H91744   8.345   8.925   1.566 -2.9714  0.9947 -2.2893
  680MOL0     H91745   8.249   8.672   1.533  0.4953  0.0835 -0.5198
  680MOL0     H91746   8.126   8.720   1.643  0.3381  2.2103  1.8602
  680MOL0     H91747   8.082   8.907   1.481  1.2691  0.1130  1.4218
  680MOL0     H91748   8.158   8.807   1.347  1.9974 -0.9021  1.1634
  680MOL0     H91749   7.916   8.749   1.337  2.1870 -0.9620 -0.6812
  680MOL0     H91750   7.916   8.710   1.517  0.8388  1.4625  1.5386
  680MOL0     H91751   8.152   8.618   1.221 -1.2899  1.9020  2.8068
  680MOL0     H91752   8.040   8.270   1.127  0.0545 -0.9495 -2.6744
  680MOL0     H91753   8.167   8.383   1.077 -1.0721  0.4955  0.9368
  680MOL0     H91754   8.203   8.199   1.324  0.5480  1.9341  1.8490
  680MOL0     H91755   8.327   8.284   1.241 -0.5926 -0.5162  0.2784
  680MOL0     H91756   8.292   8.120   1.044  1.6752 -1.6587 -0.1874
  680MOL0     H91757   8.175   8.031   1.144  1.1480 -1.1223 -0.7243
  680MOL0     H91758   8.414   7.952   1.156  0.8928  1.0074  0.2700
  680MOL0     H91759   8.369   8.022   1.321  0.3999  0.3586  0.0408
  680MOL0     H91760   8.561   7.885   1.337  0.7252 -3.4421 -3.1288
  680MOL0     H91761   8.819   7.688   1.385 -0.1264  0.0897 -0.3584
  680MOL0     H91762   8.833   7.823   1.497 -5.1962  3.3665  3.3907
  680MOL0     H91763   8.680   7.743   1.473  1.8059  0.9030  1.5762
  680MOL0     H91764   9.248   8.153   1.112 -1.8205 -1.8400 -0.4588
  680MOL0     H91765   9.502   8.149   1.070 -5.0791 -0.7049 -2.7110
  680MOL0     H91766   9.661   8.226   1.185 -0.6916 -0.1082  0.4644
  680MOL0     H91767   9.805   8.181   1.278 -0.1754  0.3679 -0.9896
  680MOL0     H91768   9.892   8.039   1.137 -1.6792 -0.0295  1.4504
  680MOL0     H91769   9.758   8.026   1.023  2.0604 -2.2469  1.2231
  680MOL0     H91770   9.782   8.269   0.952 -2.0004 -0.5998  1.6760
  680MOL0     H91771   9.919   8.152   0.911 -1.4367 -2.9667  0.3257
  680MOL0     H91772   9.908   8.341   1.166 -0.2699  0.9211  0.8866
  680MOL0     H91773  10.052   8.262   1.108  0.3381  2.3731  1.0107
  680MOL0     H91774  10.057   8.491   1.073  0.0700 -0.3634  0.8518
  680MOL0     H91775   9.898   8.495   1.015 -1.3936 -1.4530 -3.8768
  680MOL0     H91776  10.140   8.347   0.887  0.6133  0.2120  1.7735
  680MOL0     H91777   9.975   8.370   0.804 -2.4936  1.2512  1.0367
  680MOL0     H91778  10.172   8.529   0.719  0.4418  0.2926  0.7505
  680MOL0     H91779  10.139   8.600   0.878 -0.8069 -0.9145  1.5220
  680MOL0     H91780   9.891   8.629   0.821 -1.6477  3.5329 -1.9181
  680MOL0     H91781   9.931   8.557   0.675 -0.0778 -2.6415  0.9304
  680MOL0     H91782   9.542   7.897   1.402 -0.3963  1.1337  0.4019
  680MOL0     H91783   9.278   7.883   1.432 -0.6377  0.4950  0.1645
  680MOL0     H91784   8.937   8.140   1.150  1.4958  0.3274  3.0584
  680MOL0     H91785   8.712   8.189   1.088  2.9017  0.4790 -0.2443
  680MOL0     H91786   8.693   8.602   2.205  1.5310  0.1551 -0.0869
  680MOL0     H91787   8.801   8.632   2.404 -1.5811 -1.4873 -0.2802
  680MOL0     H91788   8.824   8.632   2.770 -1.5972 -1.1758  2.9175
  680MOL0     H91789   8.903   8.574   2.987 -4.3328 -0.4653 -2.1028
  680MOL0     H91790   9.071   8.545   3.136  1.3888 -1.6079  0.1940
  680MOL0     H91791   9.213   8.653   3.123  1.2573 -2.8415  2.3076
  680MOL0     H91792   9.076   8.602   3.382 -0.9792  1.2388 -1.2894
  680MOL0     H91793   9.200   8.711   3.349 -1.4740  0.6428  0.2426
  680MOL0     H91794   9.301   8.471   3.246 -1.2817 -1.7995 -0.1409
  680MOL0     H91795   9.175   8.400   3.340 -1.5646  0.3516 -1.9259
  680MOL0     H91796   9.342   8.402   3.495 -2.5383 -0.4414 -0.5171
  680MOL0     H91797   9.258   8.559   3.536  1.6290  0.2702  2.1979
  680MOL0     H91798   9.611   8.726   3.445 -0.4185 -1.0929  1.4390
  680MOL0     H91799   8.976   8.999   3.053  0.8629 -0.2054 -1.7097
  680MOL0     H91800   8.891   9.044   2.847 -2.1200  0.9372  1.1484
  681MOL0     O91801   2.142   2.639   3.716  0.0786  0.9235 -0.3992
  681MOL0     C91802   2.060   2.726   3.684  1.3051  0.2295  0.7560
  681MOL0     O91803   2.079   2.861   3.685 -0.1788  0.2309 -0.6693
  681MOL0     C91804   2.212   2.897   3.700 -0.0023 -0.0472 -0.9063
  681MOL0     C91805   2.244   2.985   3.798 -0.2292 -0.1331  0.8501
  681MOL0     C91806   2.364   3.041   3.796  1.0320  0.6187 -0.4987
  681MOL0     C91807   2.459   3.009   3.702 -0.3088  0.5877  0.1881
  681MOL0     O91808   2.585   3.064   3.693 -0.1067  0.5648  0.1410
  681MOL0     C91809   2.663   3.083   3.816 -0.3672  0.1175 -0.7809
  681MOL0     C91810   2.808   3.116   3.798  0.7191 -0.6043  0.4889
  681MOL0     C91811   2.885   3.159   3.926  0.2639 -0.4718 -0.1150
  681MOL0     C91812   3.000   3.254   3.902  0.5227  0.4917 -0.5476
  681MOL0     C91813   2.962   3.398   3.858  0.3027  0.4271  0.3343
  681MOL0     C91814   3.067   3.504   3.827  0.1969 -0.2063  0.1065
  681MOL0     C91815   3.146   3.543   3.951  0.0143 -0.9477 -1.2040
  681MOL0     C91816   3.248   3.654   3.933  0.0094 -1.0089  0.3472
  681MOL0     N91817   3.295   3.686   4.065 -0.1049  1.4998 -0.3806
  681MOL0     C91818   3.405   3.633   4.127 -0.2450 -0.3791  0.6083
  681MOL0     C91819   3.424   3.687   4.246 -0.2931  0.2094 -0.7850
  681MOL0     C91820   3.532   3.673   4.343 -0.7592  1.0508  0.0661
  681MOL0     C91821   3.628   3.794   4.327 -0.6202  0.1596 -0.2125
  681MOL0     C91822   3.741   3.805   4.435  0.0354 -0.1715  0.0816
  681MOL0     C91823   3.824   3.677   4.460 -0.4415  0.8014 -0.0216
  681MOL0     O91824   3.905   3.637   4.345  0.5834  0.2389 -0.4989
  681MOL0     C91825   4.008   3.730   4.313  1.0540 -0.1909  0.0616
  681MOL0     C91826   4.089   3.775   4.416 -0.4053 -0.1058  0.3763
  681MOL0     C91827   4.191   3.867   4.390 -0.7128 -0.8201 -0.2811
  681MOL0     C91828   4.292   3.899   4.508  0.5957  0.6372 -0.5059
  681MOL0     C91829   4.202   3.928   4.256  0.5196  0.6193  0.3192
  681MOL0     C91830   4.293   4.040   4.225 -0.4141 -0.9455 -1.0457
  681MOL0     O91831   4.261   4.114   4.115 -0.0257 -0.3031  0.1363
  681MOL0     C91832   4.355   4.192   4.046 -0.3295 -0.5197 -0.0230
  681MOL0     C91833   4.306   4.306   3.988 -0.1080  0.1586 -0.7415
  681MOL0     C91834   4.390   4.395   3.926 -0.2514 -0.2418  0.4442
  681MOL0     C91835   4.530   4.384   3.917  0.8103  1.0334 -0.5128
  681MOL0     O91836   4.609   4.467   3.851  0.0280 -0.2205 -0.5725
  681MOL0     C91837   4.750   4.437   3.840  0.4296  0.1088  0.8352
  681MOL0     C91838   4.815   4.513   3.731 -0.1356 -0.5765 -0.1287
  681MOL0     C91839   4.964   4.470   3.709  0.8514 -0.1820 -0.9519
  681MOL0     C91840   5.038   4.590   3.652 -0.5702  0.0446  0.1651
  681MOL0     C91841   5.171   4.536   3.583 -0.1458 -0.3702 -0.4349
  681MOL0     C91842   5.256   4.651   3.524 -0.3184 -0.1605  0.1374
  681MOL0     C91843   5.409   4.635   3.504  0.7489 -0.4825 -0.4574
  681MOL0     C91844   5.493   4.638   3.626 -0.4771 -0.5250  0.4611
  681MOL0    Cl91845   5.470   4.800   3.707  0.3093 -0.2491 -0.0161
  681MOL0     C91846   4.585   4.274   3.989  0.2231 -0.1559 -0.3736
  681MOL0     C91847   4.497   4.175   4.043 -0.5054 -0.5518  0.1449
  681MOL0     O91848   4.388   4.068   4.303  0.3991  0.7628 -0.4527
  681MOL0     C91849   4.117   3.881   4.152  0.3352  0.0980  0.0223
  681MOL0     C91850   4.028   3.780   4.183 -0.1589  0.4778 -0.3373
  681MOL0     N91851   3.336   3.794   4.249 -0.5802  0.5590  0.4355
  681MOL0     N91852   3.262   3.801   4.139 -0.0144  0.6872  1.1736
  681MOL0     C91853   2.431   2.909   3.606 -0.1795  1.1201  0.9786
  681MOL0     C91854   2.306   2.850   3.606 -0.0101  0.2207 -0.0173
  681MOL0     C91855   1.919   2.695   3.667  0.7682  1.2099 -0.6150
  681MOL0     C91856   1.872   2.561   3.698 -0.2098  0.8197 -0.0186
  681MOL0     C91857   1.740   2.529   3.678  0.0064  0.1165  0.1353
  681MOL0     C91858   1.653   2.622   3.626 -0.1250  0.3051 -0.2796
  681MOL0     O91859   1.527   2.586   3.583 -0.1730 -0.2098 -0.6047
  681MOL0     C91860   1.448   2.473   3.641  0.5745 -0.9651  0.5888
  681MOL0     C91861   1.307   2.461   3.590  0.0255  0.4565  0.7817
  681MOL0     C91862   1.206   2.566   3.636  0.3675  0.7530 -0.8428
  681MOL0     C91863   1.068   2.527   3.594  0.0370 -0.7641  0.2543
  681MOL0     C91864   1.007   2.400   3.637  0.5119  0.1724  0.5401
  681MOL0     C91865   0.925   2.315   3.674 -0.4955 -0.4207  0.8759
  681MOL0     C91866   1.694   2.749   3.607 -0.5767 -1.1904 -0.8809
  681MOL0     C91867   1.823   2.789   3.621 -1.0511 -0.0424 -1.0431
  681MOL0     H91868   2.174   3.018   3.874  0.4042  1.3764  0.8128
  681MOL0     H91869   2.383   3.124   3.864 -0.8568  0.1614  0.6580
  681MOL0     H91870   2.622   3.170   3.869  0.8880 -1.2563  2.7818
  681MOL0     H91871   2.659   3.001   3.888  0.7228 -0.5872 -1.4917
  681MOL0     H91872   2.871   3.037   3.756  0.3983 -2.0165  2.5248
  681MOL0     H91873   2.801   3.196   3.723 -1.3834  0.0304  1.2943
  681MOL0     H91874   2.827   3.209   4.003  0.5980  1.5982 -1.1309
  681MOL0     H91875   2.915   3.062   3.966 -0.4362 -1.3218 -1.5421
  681MOL0     H91876   3.050   3.277   3.997  1.7031  0.1028 -1.0506
  681MOL0     H91877   3.078   3.224   3.831  0.1729  1.5260 -1.3814
  681MOL0     H91878   2.892   3.395   3.775 -1.3540  0.3710  1.6701
  681MOL0     H91879   2.907   3.440   3.943  2.0098  1.1973  1.1118
  681MOL0     H91880   3.132   3.470   3.746  1.1375 -0.6851  1.0439
  681MOL0     H91881   3.016   3.586   3.776 -0.4475 -1.1964 -0.8634
  681MOL0     H91882   3.070   3.572   4.025  2.4789 -0.2865  1.2287
  681MOL0     H91883   3.195   3.465   4.009 -4.9505 -3.0678  0.6991
  681MOL0     H91884   3.192   3.742   3.900 -1.1503 -1.3493  1.3461
  681MOL0     H91885   3.331   3.628   3.865  0.1367  0.4428 -0.0860
  681MOL0     H91886   3.463   3.547   4.094  2.6076  1.0343  1.5980
  681MOL0     H91887   3.482   3.663   4.440 -2.7275 -2.6471 -1.1614
  681MOL0     H91888   3.599   3.589   4.323 -1.9782 -0.3561  1.5827
  681MOL0     H91889   3.571   3.887   4.330 -2.7029 -1.0069 -0.9510
  681MOL0     H91890   3.679   3.795   4.231 -0.7627 -3.9629 -0.5248
  681MOL0     H91891   3.691   3.827   4.529 -0.3424 -0.6954  0.0138
  681MOL0     H91892   3.811   3.887   4.421  0.0912 -0.2062  0.1544
  681MOL0     H91893   3.759   3.593   4.486 -0.0624  0.7292  0.7156
  681MOL0     H91894   3.877   3.681   4.556 -1.6131 -0.5117  0.7149
  681MOL0     H91895   4.090   3.719   4.509  1.6551 -1.0813 -0.1908
  681MOL0     H91896   4.284   3.822   4.586 -2.1653  3.8872  2.8033
  681MOL0     H91897   4.394   3.897   4.469  0.2742  0.2151 -1.3232
  681MOL0     H91898   4.267   4.002   4.536  0.6442  1.3618 -2.9502
  681MOL0     H91899   4.198   4.317   3.982 -0.4130 -0.6726  1.8027
  681MOL0     H91900   4.349   4.487   3.884  0.7423  0.0257  0.0381
  681MOL0     H91901   4.805   4.467   3.930  3.1265  1.7885 -1.2522
  681MOL0     H91902   4.770   4.331   3.820 -0.9486  0.2442 -1.5876
  681MOL0     H91903   4.758   4.504   3.638 -0.4884 -0.5279  0.0816
  681MOL0     H91904   4.827   4.617   3.762 -1.3874  0.7159 -3.5475
  681MOL0     H91905   4.955   4.389   3.636 -2.5719  0.5267 -1.4772
  681MOL0     H91906   5.020   4.443   3.799 -0.4684  1.9339  0.5879
  681MOL0     H91907   4.983   4.639   3.571 -0.2574 -0.3119 -0.2716
  681MOL0     H91908   5.065   4.657   3.734 -0.3273  2.0407 -1.4787
  681MOL0     H91909   5.140   4.468   3.503 -0.0838  1.5363 -2.1408
  681MOL0     H91910   5.234   4.481   3.654 -1.4477 -0.1547  0.9220
  681MOL0     H91911   5.206   4.682   3.432 -0.3620 -2.8070 -0.8196
  681MOL0     H91912   5.234   4.744   3.577 -0.9008  1.7502 -3.1845
  681MOL0     H91913   5.438   4.726   3.450  0.2828 -0.9605 -1.5386
  681MOL0     H91914   5.424   4.554   3.432 -0.4128  2.2009 -4.0584
  681MOL0     H91915   5.597   4.619   3.598 -1.0032 -2.6353 -0.2230
  681MOL0     H91916   5.460   4.562   3.698  2.3271 -2.1694  0.1543
  681MOL0     H91917   4.690   4.250   3.996 -0.4435 -3.1562  1.0979
  681MOL0     H91918   4.547   4.102   4.105  0.3926 -0.0209  0.0626
  681MOL0     H91919   4.117   3.915   4.049 -3.9793 -2.3314 -1.0509
  681MOL0     H91920   3.970   3.744   4.099 -0.0561  0.6685 -0.4928
  681MOL0     H91921   2.513   2.878   3.541  0.1011 -1.2928  2.3568
  681MOL0     H91922   2.279   2.791   3.519 -0.4651  1.9692 -1.1046
  681MOL0     H91923   1.934   2.484   3.743 -3.5984 -2.5097 -0.5473
  681MOL0     H91924   1.704   2.429   3.698 -0.2425 -0.0990 -1.2634
  681MOL0     H91925   1.507   2.384   3.618  2.1929  1.0721 -4.4547
  681MOL0     H91926   1.453   2.488   3.750  1.1734  3.5001  0.1076
  681MOL0     H91927   1.275   2.362   3.625  1.3002 -0.2087  0.1353
  681MOL0     H91928   1.315   2.469   3.481 -0.7406  2.3424  0.8170
  681MOL0     H91929   1.225   2.670   3.607 -2.4461  1.3691 -0.7455
  681MOL0     H91930   1.199   2.569   3.745 -2.8406 -1.0811 -0.8655
  681MOL0     H91931   1.092   2.520   3.488  3.7342 -2.2208  1.0082
  681MOL0     H91932   0.993   2.602   3.619 -0.3582  0.5034 -3.9892
  681MOL0     H91933   0.856   2.238   3.703 -0.3184 -1.8394 -2.1008
  681MOL0     H91934   1.617   2.818   3.576 -4.7248 -4.2391  1.6167
  681MOL0     H91935   1.851   2.892   3.601 -0.3644  0.3531  1.5886
  682MOL0     O91936   5.559   0.935   1.973  0.7461  0.0908 -0.4677
  682MOL0     C91937   5.507   0.857   2.049  0.5207  0.4046  0.6719
  682MOL0     O91938   5.565   0.770   2.127 -0.8814  0.6400  0.2369
  682MOL0     C91939   5.706   0.748   2.113 -0.4286 -0.1446  0.3262
  682MOL0     C91940   5.786   0.762   1.999  0.4443  0.3650  1.0372
  682MOL0     C91941   5.924   0.740   1.996 -0.6152 -0.7381  0.0780
  682MOL0     C91942   5.990   0.699   2.122 -0.4878 -0.2800  0.6860
  682MOL0     O91943   6.123   0.665   2.121 -0.0214  0.2941  0.3667
  682MOL0     C91944   6.162   0.561   2.221  0.5915 -0.1882  0.0479
  682MOL0     C91945   6.102   0.417   2.191 -0.6681 -0.7995 -0.1422
  682MOL0     C91946   6.195   0.316   2.242  0.3766  0.4742  0.0968
  682MOL0     C91947   6.119   0.185   2.221 -0.6397 -0.4955  0.0823
  682MOL0     C91948   6.199   0.076   2.292 -0.1414 -0.1162 -0.3387
  682MOL0     C91949   6.128  -0.053   2.297 -0.3487 -0.4742  0.6575
  682MOL0     C91950   6.228  -0.157   2.349  0.5369 -0.4858  0.2885
  682MOL0     C91951   6.148  -0.286   2.396  0.0313 -0.0276  0.6463
  682MOL0     N91952   6.223  -0.384   2.473 -0.3913 -0.1233  0.4309
  682MOL0     C91953   6.349  -0.371   2.525 -0.7078 -0.6547 -0.1419
  682MOL0     C91954   6.399  -0.489   2.560 -0.1442 -0.0468  0.4368
  682MOL0     C91955   6.515  -0.517   2.647  0.6625  0.2672 -0.4990
  682MOL0     C91956   6.628  -0.422   2.625  0.2299 -0.6144 -0.3869
  682MOL0     C91957   6.744  -0.440   2.712  0.9116  0.1338  0.3392
  682MOL0     C91958   6.868  -0.477   2.632  0.1356  0.0702  0.0357
  682MOL0     O91959   6.974  -0.487   2.732  0.2086  0.2517  0.4957
  682MOL0     C91960   7.098  -0.517   2.684  0.4172  0.8069 -0.0001
  682MOL0     C91961   7.191  -0.556   2.785 -0.9356  0.6267 -0.6388
  682MOL0     C91962   7.316  -0.606   2.750 -0.1383 -0.0777  0.2375
  682MOL0     C91963   7.404  -0.651   2.865  0.3674 -0.4012  0.7398
  682MOL0     C91964   7.358  -0.615   2.612  0.8219 -0.3359 -0.2343
  682MOL0     C91965   7.505  -0.631   2.571 -0.1761  0.0849 -0.6483
  682MOL0     O91966   7.608  -0.572   2.646 -0.0882  0.0121  0.0706
  682MOL0     C91967   7.737  -0.594   2.604 -0.0547 -0.2317 -0.3525
  682MOL0     C91968   7.790  -0.505   2.513  0.1025  0.6390  0.2293
  682MOL0     C91969   7.923  -0.518   2.477 -0.5438  0.4595  0.0725
  682MOL0     C91970   8.006  -0.623   2.522 -0.1859 -0.8636  0.7315
  682MOL0     O91971   8.135  -0.636   2.476  0.0296 -0.6465 -0.8657
  682MOL0     C91972   8.223  -0.663   2.587 -0.0289  0.3564  1.0659
  682MOL0     C91973   8.360  -0.664   2.524  0.4332 -0.2001  0.2326
  682MOL0     C91974   8.463  -0.634   2.642  0.6974  0.2457  0.0785
  682MOL0     C91975   8.608  -0.668   2.604  0.3393 -0.3647  0.5888
  682MOL0     C91976   8.710  -0.658   2.715 -0.4822  0.9430  0.4634
  682MOL0     C91977   8.809  -0.769   2.714 -0.5041 -0.5983 -0.5229
  682MOL0     C91978   8.916  -0.742   2.823  0.7847 -0.3723 -0.4880
  682MOL0     C91979   9.055  -0.754   2.766 -1.1861 -0.6982  0.3126
  682MOL0    Cl91980   9.085  -0.648   2.635 -0.0304 -0.3536 -0.4222
  682MOL0     C91981   7.946  -0.714   2.613  1.0377  0.4726 -1.1195
  682MOL0     C91982   7.811  -0.699   2.659  0.0868  0.0683 -0.8977
  682MOL0     O91983   7.527  -0.676   2.462  1.2739  0.1119 -0.2648
  682MOL0     C91984   7.259  -0.586   2.514  0.6383 -0.7179 -0.7139
  682MOL0     C91985   7.133  -0.539   2.547 -0.9137  0.0513 -0.7616
  682MOL0     N91986   6.295  -0.581   2.536  0.7306 -0.8363  0.0984
  682MOL0     N91987   6.186  -0.516   2.490 -0.2486 -0.7372 -0.4262
  682MOL0     C91988   5.905   0.675   2.232  0.3700 -0.1219  0.3062
  682MOL0     C91989   5.767   0.697   2.227  0.6338 -0.2129  0.9392
  682MOL0     C91990   5.363   0.856   2.059  0.3686  0.6762 -0.0360
  682MOL0     C91991   5.291   0.960   2.011  0.6426 -0.4832 -0.8292
  682MOL0     C91992   5.150   0.960   2.025  0.0442 -0.3519 -0.4717
  682MOL0     C91993   5.086   0.840   2.074  0.5076  0.7226 -0.2391
  682MOL0     O91994   4.954   0.817   2.072 -0.6249  0.2133  0.8364
  682MOL0     C91995   4.872   0.919   2.102  0.1661 -0.3068  0.0327
  682MOL0     C91996   4.873   0.977   2.251 -0.3296 -0.4851  0.0001
  682MOL0     C91997   4.888   0.896   2.380  0.5568  0.0339  0.3790
  682MOL0     C91998   4.747   0.838   2.406 -0.7682 -0.2367  0.1263
  682MOL0     C91999   4.745   0.768   2.535 -0.4887  0.2299  0.4927
  682MOL0     C92000   4.752   0.729   2.646  0.1611 -0.9875  0.2324
  682MOL0     C92001   5.165   0.734   2.116 -0.3304  0.4595  0.1234
  682MOL0     C92002   5.305   0.741   2.119 -0.4242  0.4681  0.4199
  682MOL0     H92003   5.737   0.796   1.908  0.0377 -0.1708  1.0485
  682MOL0     H92004   5.979   0.742   1.902  0.4900  0.2401  0.7108
  682MOL0     H92005   6.269   0.544   2.207  0.6802  1.9955 -3.0873
  682MOL0     H92006   6.152   0.596   2.324  0.7984  0.9224 -0.2923
  682MOL0     H92007   6.013   0.404   2.253  0.1290 -0.6306  1.0946
  682MOL0     H92008   6.086   0.409   2.083  2.6658 -1.5328 -0.7090
  682MOL0     H92009   6.296   0.318   2.200 -0.1832 -0.2027 -1.3520
  682MOL0     H92010   6.216   0.340   2.346  2.3613 -0.3808 -0.0406
  682MOL0     H92011   6.017   0.187   2.259 -1.6444 -2.0026 -2.2905
  682MOL0     H92012   6.101   0.159   2.116 -1.2277 -1.7818  0.4718
  682MOL0     H92013   6.300   0.075   2.251 -0.1837  1.9629 -0.5985
  682MOL0     H92014   6.205   0.104   2.398  0.4527  3.1833 -1.1167
  682MOL0     H92015   6.033  -0.040   2.349 -1.7320  2.0852 -2.2197
  682MOL0     H92016   6.095  -0.079   2.197  0.0105  0.5599  0.2553
  682MOL0     H92017   6.286  -0.193   2.264 -1.6338  0.7265 -1.8201
  682MOL0     H92018   6.293  -0.114   2.426  2.9108  0.1623 -1.9505
  682MOL0     H92019   6.117  -0.350   2.312 -1.2095 -0.9629  1.7817
  682MOL0     H92020   6.052  -0.255   2.438  0.5222  1.1355  0.9376
  682MOL0     H92021   6.406  -0.279   2.532  0.3258 -1.2737 -0.2482
  682MOL0     H92022   6.473  -0.518   2.748 -2.4214 -0.4556 -1.6779
  682MOL0     H92023   6.553  -0.620   2.643 -0.5406 -0.1513 -1.9905
  682MOL0     H92024   6.590  -0.319   2.631 -2.2850 -1.3571 -1.8496
  682MOL0     H92025   6.663  -0.430   2.522  3.3383  2.4194  0.2551
  682MOL0     H92026   6.721  -0.509   2.793  0.3696  2.5533  2.3495
  682MOL0     H92027   6.764  -0.349   2.769  2.2541  1.0491 -1.4828
  682MOL0     H92028   6.891  -0.392   2.567  3.3272 -0.3364  0.5037
  682MOL0     H92029   6.856  -0.574   2.583 -1.5253 -0.6901  1.8058
  682MOL0     H92030   7.166  -0.542   2.890 -1.9373 -2.8776 -0.2921
  682MOL0     H92031   7.445  -0.748   2.838 -1.6343 -0.7990 -1.1846
  682MOL0     H92032   7.465  -0.565   2.895  0.7508 -1.3349  2.7795
  682MOL0     H92033   7.334  -0.665   2.948  0.1705  0.2971  0.7039
  682MOL0     H92034   7.726  -0.419   2.493  2.4614  2.2567 -0.7864
  682MOL0     H92035   7.976  -0.454   2.407  2.6168 -1.8492  0.1869
  682MOL0     H92036   8.220  -0.583   2.661  1.6612  1.3498  0.1129
  682MOL0     H92037   8.217  -0.756   2.645  2.4367 -0.2012  0.5492
  682MOL0     H92038   8.384  -0.760   2.478 -1.3714 -1.3477  1.5547
  682MOL0     H92039   8.369  -0.588   2.445  1.4387 -1.7807 -1.2602
  682MOL0     H92040   8.436  -0.688   2.733 -0.9553  1.4303  0.3418
  682MOL0     H92041   8.465  -0.527   2.666  1.5601 -0.1684  2.1155
  682MOL0     H92042   8.606  -0.770   2.564 -3.2589  0.5121 -1.9707
  682MOL0     H92043   8.633  -0.622   2.507 -0.1217  1.8297  1.4478
  682MOL0     H92044   8.649  -0.674   2.803  0.5307 -1.1054  0.8439
  682MOL0     H92045   8.754  -0.558   2.712 -1.4621  1.3958 -1.8806
  682MOL0     H92046   8.768  -0.865   2.746  3.5718 -2.8897 -1.4321
  682MOL0     H92047   8.855  -0.791   2.617 -1.3325  1.0992 -1.3399
  682MOL0     H92048   8.921  -0.816   2.903 -1.5571 -0.7014 -0.5674
  682MOL0     H92049   8.914  -0.637   2.856  3.6877  0.7021 -3.2286
  682MOL0     H92050   9.063  -0.857   2.730  3.0620 -0.5738  0.3089
  682MOL0     H92051   9.135  -0.739   2.840 -0.7298 -1.1505 -0.0824
  682MOL0     H92052   8.008  -0.790   2.659  0.0545  1.4224  2.0841
  682MOL0     H92053   7.767  -0.775   2.722  0.4709  0.6568  0.0984
  682MOL0     H92054   7.275  -0.567   2.408 -1.0456  3.6092 -0.3960
  682MOL0     H92055   7.061  -0.517   2.468 -1.2043 -0.4809 -0.6490
  682MOL0     H92056   5.942   0.654   2.332  1.4353  1.0584  0.1805
  682MOL0     H92057   5.710   0.672   2.317  2.0180 -0.7716  1.6863
  682MOL0     H92058   5.337   1.046   1.964  0.5546 -0.1904 -0.3858
  682MOL0     H92059   5.078   1.038   2.004 -1.0378 -0.8166  1.2356
  682MOL0     H92060   4.886   0.988   2.017 -0.4359 -1.5369 -1.1070
  682MOL0     H92061   4.770   0.883   2.087 -0.1766  0.7977 -0.3865
  682MOL0     H92062   4.784   1.040   2.259 -0.1826 -0.2170 -0.4717
  682MOL0     H92063   4.951   1.054   2.257 -0.3378 -0.6076  2.7617
  682MOL0     H92064   4.915   0.969   2.458 -2.0084 -0.0114  1.3911
  682MOL0     H92065   4.961   0.814   2.377 -3.1043 -3.4960 -0.4038
  682MOL0     H92066   4.728   0.777   2.317 -1.4580  2.2741 -1.5318
  682MOL0     H92067   4.676   0.920   2.421 -0.5512 -0.3742  2.2446
  682MOL0     H92068   4.772   0.690   2.744  3.4871 -2.4706 -0.9029
  682MOL0     H92069   5.118   0.637   2.126  0.4730  0.1856  1.4122
  682MOL0     H92070   5.367   0.664   2.162  1.2747  0.1943 -2.3036
  683MOL0     O92071   0.194   3.171  11.246 -0.1112 -0.4285  0.1759
  683MOL0     C92072   0.241   3.268  11.183  0.1035 -0.1240 -0.5719
  683MOL0     O92073   0.173   3.391  11.160 -0.1460  0.7637 -0.1391
  683MOL0     C92074   0.036   3.396  11.176  0.5656 -0.1185  0.0137
  683MOL0     C92075  -0.049   3.288  11.136 -0.3982  0.4820 -0.0094
  683MOL0     C92076  -0.186   3.289  11.151 -0.3733  0.4134 -0.1260
  683MOL0     C92077  -0.252   3.394  11.205 -0.6145  0.2307 -0.6096
  683MOL0     O92078  -0.389   3.402  11.222  0.4839  0.5551 -0.0887
  683MOL0     C92079  -0.461   3.289  11.275 -0.6043  1.2223 -0.6383
  683MOL0     C92080  -0.606   3.308  11.262 -0.5031  0.6466  0.6237
  683MOL0     C92081  -0.654   3.394  11.372  0.3151  1.2088 -0.2953
  683MOL0     C92082  -0.792   3.453  11.363 -0.2182  0.5053  0.8770
  683MOL0     C92083  -0.874   3.450  11.491 -0.5206  0.1785  0.3084
  683MOL0     C92084  -0.872   3.313  11.566  0.8796  0.1002 -0.2688
  683MOL0     C92085  -0.950   3.325  11.695 -0.4050 -0.4764 -0.2780
  683MOL0     C92086  -0.949   3.190  11.759  0.0008  0.3609  0.2502
  683MOL0     N92087  -1.002   3.195  11.894 -0.1240  0.6903 -0.2625
  683MOL0     C92088  -1.137   3.174  11.923 -1.2262 -0.9825  0.2428
  683MOL0     C92089  -1.144   3.193  12.059 -0.2271 -0.2301  0.4946
  683MOL0     C92090  -1.277   3.169  12.125 -0.3515  0.4922 -0.2411
  683MOL0     C92091  -1.360   3.299  12.136 -0.5072  0.0347 -0.1767
  683MOL0     C92092  -1.382   3.382  12.010  0.1061  0.2589 -0.5016
  683MOL0     C92093  -1.502   3.333  11.930 -0.4342  0.1266  0.5895
  683MOL0     O92094  -1.457   3.261  11.811 -0.5149  0.3621  0.5014
  683MOL0     C92095  -1.403   3.319  11.703  0.6185 -0.2917  0.9401
  683MOL0     C92096  -1.395   3.457  11.682 -0.0762 -0.2969 -0.1121
  683MOL0     C92097  -1.337   3.510  11.564 -0.7397 -0.4151  0.4447
  683MOL0     C92098  -1.352   3.665  11.544 -0.4277 -0.2906  0.2458
  683MOL0     C92099  -1.286   3.427  11.462  0.1701  0.0824  0.2955
  683MOL0     C92100  -1.232   3.468  11.333 -0.5559  0.1731  0.9015
  683MOL0     O92101  -1.208   3.605  11.316  0.0752  0.5265 -0.2572
  683MOL0     C92102  -1.177   3.643  11.189 -0.8273  0.0761 -0.2520
  683MOL0     C92103  -1.046   3.658  11.153 -0.5003  0.7320  0.6094
  683MOL0     C92104  -1.005   3.683  11.023  0.9971 -0.3516  0.3972
  683MOL0     C92105  -1.112   3.738  10.936  0.7552  0.3474 -0.2325
  683MOL0     O92106  -1.081   3.764  10.806  0.0593 -0.0559  0.2457
  683MOL0     C92107  -1.132   3.879  10.740  0.3100 -0.5708  1.0097
  683MOL0     C92108  -1.145   3.856  10.589 -0.4432 -0.4066  0.4632
  683MOL0     C92109  -1.028   3.795  10.519 -0.0452  0.2218 -0.7208
  683MOL0     C92110  -0.892   3.865  10.566  0.2203  0.2509 -1.0775
  683MOL0     C92111  -0.788   3.809  10.459  0.1383  0.7812  0.5986
  683MOL0     C92112  -0.636   3.821  10.488  0.7631 -0.1694  0.6867
  683MOL0     C92113  -0.545   3.807  10.366 -0.3939 -0.8082 -0.6960
  683MOL0     C92114  -0.581   3.700  10.275 -0.6905  0.1664 -0.2334
  683MOL0    Cl92115  -0.469   3.710  10.139  0.3946 -0.4977  0.3452
  683MOL0     C92116  -1.242   3.734  10.977 -0.2827  0.1968 -0.2006
  683MOL0     C92117  -1.286   3.687  11.102 -0.0708 -0.0171  0.6510
  683MOL0     O92118  -1.229   3.382  11.246 -0.7381  0.7005  0.1034
  683MOL0     C92119  -1.283   3.282  11.494 -0.3224 -0.4623  0.4705
  683MOL0     C92120  -1.349   3.232  11.604 -0.9418 -0.0390 -0.5169
  683MOL0     N92121  -1.012   3.225  12.106  0.7491 -0.2537  0.1326
  683MOL0     N92122  -0.928   3.226  12.005 -0.0625  0.5221  0.8143
  683MOL0     C92123  -0.171   3.501  11.260  0.1278  0.9209 -0.7401
  683MOL0     C92124  -0.027   3.504  11.234 -0.2176  0.4540 -0.9457
  683MOL0     C92125   0.372   3.245  11.112  0.7876 -0.3031 -0.3055
  683MOL0     C92126   0.420   3.337  11.024 -0.2523 -0.3401 -0.1802
  683MOL0     C92127   0.540   3.311  10.952  0.7710 -0.5929  0.0051
  683MOL0     C92128   0.604   3.192  10.977 -0.0939  0.5565 -0.4273
  683MOL0     O92129   0.712   3.164  10.910 -0.1207 -0.6170 -0.1301
  683MOL0     C92130   0.677   3.112  10.774  0.9552 -0.2350  0.9801
  683MOL0     C92131   0.786   3.004  10.732 -0.9427 -0.4414 -0.0425
  683MOL0     C92132   0.797   2.878  10.828  0.9986 -0.3984 -0.5349
  683MOL0     C92133   0.663   2.800  10.840 -0.1537 -0.4037  0.4133
  683MOL0     C92134   0.622   2.735  10.714 -0.2527 -0.3255 -0.5202
  683MOL0     C92135   0.577   2.695  10.610 -0.6616 -0.5859  1.0713
  683MOL0     C92136   0.567   3.097  11.070  0.1785  0.5711 -0.1457
  683MOL0     C92137   0.441   3.121  11.132  0.7803 -0.2244 -0.2403
  683MOL0     H92138  -0.011   3.194  11.097 -2.4432 -0.6802  0.6424
  683MOL0     H92139  -0.244   3.205  11.114 -1.8246 -0.6274  3.9852
  683MOL0     H92140  -0.438   3.200  11.216 -1.3099 -0.4325  1.4954
  683MOL0     H92141  -0.433   3.261  11.376  0.9542 -1.1328 -1.6526
  683MOL0     H92142  -0.639   3.359  11.171 -1.3078  1.2187  1.2152
  683MOL0     H92143  -0.652   3.210  11.275 -1.2551  1.1837  2.5488
  683MOL0     H92144  -0.641   3.331  11.460  0.9078 -3.2197 -3.2508
  683MOL0     H92145  -0.590   3.482  11.382  1.3519  0.3244  1.3687
  683MOL0     H92146  -0.778   3.558  11.333 -0.0816  0.3131  0.2452
  683MOL0     H92147  -0.846   3.397  11.286  0.8699 -1.9971  1.8215
  683MOL0     H92148  -0.832   3.527  11.556 -1.2244  0.0165  0.9534
  683MOL0     H92149  -0.976   3.483  11.471 -1.7693 -2.3382  2.0533
  683MOL0     H92150  -0.916   3.234  11.504 -2.0516  1.2802  0.1403
  683MOL0     H92151  -0.773   3.289  11.606 -0.2567  0.1530  2.8537
  683MOL0     H92152  -0.900   3.396  11.761 -1.5389  0.0680  0.0198
  683MOL0     H92153  -1.054   3.357  11.685  0.0229  2.7258  3.4244
  683MOL0     H92154  -0.849   3.146  11.764 -0.9511 -2.3148 -1.8453
  683MOL0     H92155  -0.996   3.107  11.707  2.8040 -2.2300  1.5456
  683MOL0     H92156  -1.206   3.126  11.854  1.2754 -3.0726 -0.9914
  683MOL0     H92157  -1.338   3.099  12.068  0.1587 -0.6967  0.6345
  683MOL0     H92158  -1.247   3.128  12.221  0.3414 -4.4388 -2.2472
  683MOL0     H92159  -1.306   3.353  12.214  2.7228 -1.6878 -1.0376
  683MOL0     H92160  -1.455   3.262  12.175  0.3688 -0.1990  1.8887
  683MOL0     H92161  -1.295   3.395  11.946  0.1686  0.1401 -0.4432
  683MOL0     H92162  -1.413   3.480  12.047 -2.0091 -0.1229 -1.1291
  683MOL0     H92163  -1.561   3.421  11.901  1.6303  0.5039 -3.0848
  683MOL0     H92164  -1.555   3.264  11.997 -0.2397 -2.7934 -2.0386
  683MOL0     H92165  -1.438   3.513  11.764  2.8751  0.7062  0.8751
  683MOL0     H92166  -1.265   3.725  11.519 -1.4681  0.3157 -2.2305
  683MOL0     H92167  -1.415   3.673  11.454 -0.1362 -1.5707 -0.0963
  683MOL0     H92168  -1.394   3.705  11.637  2.0504 -0.0222  1.3222
  683MOL0     H92169  -0.971   3.627  11.225  1.6165 -1.0996 -2.1292
  683MOL0     H92170  -0.900   3.682  10.995  0.3666 -1.5627 -2.3069
  683MOL0     H92171  -1.226   3.905  10.789 -2.4294  0.8058 -4.2093
  683MOL0     H92172  -1.073   3.969  10.758  2.0734 -0.8358 -2.4946
  683MOL0     H92173  -1.230   3.791  10.570 -0.7115 -0.0074  0.2808
  683MOL0     H92174  -1.158   3.946  10.528 -2.0144 -0.4867  0.6496
  683MOL0     H92175  -1.048   3.805  10.412  0.3754  3.8297 -0.5699
  683MOL0     H92176  -1.025   3.689  10.545 -1.4409  0.4122  0.2838
  683MOL0     H92177  -0.892   3.973  10.582  2.5776 -0.1130  2.6501
  683MOL0     H92178  -0.861   3.816  10.659  3.4257  1.6613 -1.2817
  683MOL0     H92179  -0.803   3.857  10.362 -2.1060  2.0063  1.4641
  683MOL0     H92180  -0.807   3.703  10.444  1.4957  0.2873  2.1085
  683MOL0     H92181  -0.613   3.917  10.537  3.8057 -0.6158  0.3189
  683MOL0     H92182  -0.608   3.747  10.564 -0.6504 -2.8087 -1.2095
  683MOL0     H92183  -0.442   3.799  10.400 -1.0109  3.2787  3.1208
  683MOL0     H92184  -0.552   3.905  10.318 -0.1069 -0.3968  0.0892
  683MOL0     H92185  -0.680   3.724  10.237  0.4576  0.5388 -3.2322
  683MOL0     H92186  -0.588   3.602  10.321  1.4598 -1.4009 -2.9422
  683MOL0     H92187  -1.316   3.739  10.898 -0.7343 -1.0555  0.1064
  683MOL0     H92188  -1.385   3.675  11.144 -0.1378  0.1435  0.5401
  683MOL0     H92189  -1.229   3.221  11.423 -0.8510  1.7837 -2.0381
  683MOL0     H92190  -1.352   3.124  11.619 -1.1025  0.0618  0.2262
  683MOL0     H92191  -0.229   3.574  11.315  0.6448  1.3357 -0.7459
  683MOL0     H92192   0.044   3.584  11.257 -0.6007  0.1221  1.7320
  683MOL0     H92193   0.364   3.426  10.996  1.1388  0.4856 -0.4333
  683MOL0     H92194   0.576   3.380  10.877  2.3073 -0.0072  1.2211
  683MOL0     H92195   0.577   3.069  10.771  0.4527  0.8748  1.2552
  683MOL0     H92196   0.672   3.193  10.700  2.7003 -0.5651  0.4370
  683MOL0     H92197   0.880   3.060  10.724 -2.3490  2.1737  0.3908
  683MOL0     H92198   0.764   2.961  10.635  0.2074  1.6188 -1.2930
  683MOL0     H92199   0.836   2.904  10.927  0.3125 -1.9043  0.1568
  683MOL0     H92200   0.876   2.812  10.793  1.1461  0.2418 -1.4313
  683MOL0     H92201   0.578   2.857  10.878  0.8450  1.0780  0.5460
  683MOL0     H92202   0.690   2.716  10.905 -0.1704 -2.6420 -2.2890
  683MOL0     H92203   0.530   2.648  10.526 -0.2017  1.2973 -0.3072
  683MOL0     H92204   0.632   3.011  11.080 -0.0762  0.3678 -0.2239
  683MOL0     H92205   0.407   3.041  11.197 -2.9901  0.5213 -1.0953
  684MOL0     O92206   2.812  11.098   1.570  0.5772 -0.4151 -0.6422
  684MOL0     C92207   2.793  11.175   1.477  0.0838 -0.5967  0.3329
  684MOL0     O92208   2.868  11.289   1.464  0.5204 -0.5179  0.6982
  684MOL0     C92209   2.965  11.318   1.549 -0.6400 -0.1801  0.6613
  684MOL0     C92210   2.943  11.396   1.670  0.0876  0.7039 -0.0277
  684MOL0     C92211   3.052  11.422   1.754  0.2172 -0.3878 -0.3850
  684MOL0     C92212   3.175  11.379   1.722 -0.2493  0.6468  0.1091
  684MOL0     O92213   3.294  11.389   1.791 -0.2764 -0.5477 -0.4860
  684MOL0     C92214   3.287  11.350   1.922 -0.4602  1.3396  0.1166
  684MOL0     C92215   3.296  11.194   1.933  0.4643 -0.6208 -0.2465
  684MOL0     C92216   3.407  11.130   1.853 -0.0505  0.0937  0.1975
  684MOL0     C92217   3.459  11.008   1.930  0.3950 -0.0372  0.8311
  684MOL0     C92218   3.606  10.992   1.921  0.3293  0.4417 -0.0358
  684MOL0     C92219   3.651  11.056   2.049  0.1924  0.0946 -0.0690
  684MOL0     C92220   3.810  11.045   2.074  0.1012 -0.4350  0.9319
  684MOL0     C92221   3.867  11.158   1.989 -0.4859 -1.0405 -0.2900
  684MOL0     N92222   3.955  11.255   2.067  0.4155 -0.2555  1.1005
  684MOL0     C92223   3.947  11.393   2.056 -1.1279 -0.2081  1.3986
  684MOL0     C92224   4.015  11.432   2.166  0.0536 -0.9740  0.9887
  684MOL0     C92225   4.061  11.573   2.188  0.2605 -0.4674  0.6033
  684MOL0     C92226   4.152  11.646   2.080  0.5163  0.2810 -0.2743
  684MOL0     C92227   4.164  11.794   2.112 -0.2161 -0.3082  0.2175
  684MOL0     C92228   4.252  11.875   2.009  0.2980  0.2420  0.6910
  684MOL0     O92229   4.176  11.899   1.887 -0.4946 -0.5278 -0.0897
  684MOL0     C92230   4.226  11.990   1.791 -1.2741  0.8181  0.4308
  684MOL0     C92231   4.143  12.009   1.683 -0.3433  0.6701  0.3237
  684MOL0     C92232   4.193  12.081   1.576 -0.4846  0.5241 -0.5823
  684MOL0     C92233   4.116  12.082   1.450 -0.7607 -0.4901 -0.5569
  684MOL0     C92234   4.312  12.166   1.586 -0.2187  0.0976  0.0933
  684MOL0     C92235   4.369  12.254   1.485 -0.1684  0.1034  0.6855
  684MOL0     O92236   4.491  12.226   1.440 -0.0495 -0.0778  1.0079
  684MOL0     C92237   4.540  12.290   1.324  0.0985  0.5704  0.4966
  684MOL0     C92238   4.662  12.361   1.329 -0.5729  0.4483  0.1846
  684MOL0     C92239   4.714  12.401   1.207 -0.2166 -0.2421 -0.0694
  684MOL0     C92240   4.653  12.389   1.086 -0.2379 -0.2367  0.2118
  684MOL0     O92241   4.694  12.440   0.967 -0.3098 -0.4474 -1.0002
  684MOL0     C92242   4.814  12.529   0.978  0.2481  0.2217  0.3281
  684MOL0     C92243   4.850  12.590   0.846  0.3243  0.2652  0.5538
  684MOL0     C92244   4.987  12.662   0.843  0.2868  1.5363  0.4070
  684MOL0     C92245   4.963  12.808   0.853 -0.0535 -0.2748  0.1661
  684MOL0     C92246   5.101  12.875   0.871 -0.0738 -0.7503 -1.0308
  684MOL0     C92247   5.069  13.022   0.919 -0.0124 -0.6231 -0.3872
  684MOL0     C92248   5.194  13.107   0.968  1.1742 -0.3165  0.0514
  684MOL0     C92249   5.150  13.241   1.018  0.6886  0.2110  0.7537
  684MOL0    Cl92250   5.047  13.238   1.158  0.1015 -0.6772 -0.2350
  684MOL0     C92251   4.539  12.317   1.080 -0.0636  0.1878 -1.0686
  684MOL0     C92252   4.480  12.265   1.198 -1.3136 -0.7085 -0.3967
  684MOL0     O92253   4.300  12.356   1.446  0.2663  0.7154 -0.2015
  684MOL0     C92254   4.380  12.157   1.704  0.6251 -0.1392  0.3381
  684MOL0     C92255   4.346  12.070   1.801 -0.4050  0.2215 -0.3753
  684MOL0     N92256   4.049  11.321   2.241  0.4460  0.0026 -0.1970
  684MOL0     N92257   4.020  11.215   2.178 -0.4599 -0.1880 -0.3649
  684MOL0     C92258   3.197  11.317   1.600 -0.5313  1.0561 -0.4909
  684MOL0     C92259   3.096  11.293   1.509 -0.1262 -0.2130  1.3109
  684MOL0     C92260   2.674  11.169   1.383 -0.4516  0.7560 -0.1779
  684MOL0     C92261   2.557  11.085   1.402 -0.9119  0.5082  0.5284
  684MOL0     C92262   2.470  11.067   1.301  0.6598 -0.1867 -0.1491
  684MOL0     C92263   2.491  11.131   1.174 -0.0649  0.4074 -1.9634
  684MOL0     O92264   2.408  11.098   1.074  0.0721  0.0050  0.2530
  684MOL0     C92265   2.419  11.131   0.939 -0.3126  0.6604  0.7887
  684MOL0     C92266   2.553  11.068   0.886  0.0759  0.2359  0.6390
  684MOL0     C92267   2.565  11.028   0.742  0.9407  0.3528  0.6204
  684MOL0     C92268   2.569  10.881   0.708 -0.4450  0.4324 -0.2986
  684MOL0     C92269   2.701  10.829   0.711  0.3827 -0.1004 -0.1672
  684MOL0     C92270   2.812  10.775   0.722  0.3870  0.0074  1.0745
  684MOL0     C92271   2.581  11.237   1.173  0.8974 -0.4234 -0.4641
  684MOL0     C92272   2.677  11.257   1.272 -0.0313 -0.1982  0.1340
  684MOL0     H92273   2.841  11.420   1.695 -0.0410  1.5752 -1.2950
  684MOL0     H92274   3.033  11.466   1.851 -2.3963 -4.0915  1.0057
  684MOL0     H92275   3.364  11.399   1.982  3.0589 -1.9381 -1.2680
  684MOL0     H92276   3.191  11.367   1.972  0.2552  0.1577  2.0011
  684MOL0     H92277   3.298  11.166   2.039  1.5773 -3.4138 -0.9177
  684MOL0     H92278   3.199  11.154   1.903  0.2653 -0.1990 -0.1646
  684MOL0     H92279   3.356  11.089   1.765  1.7314  0.1208 -0.8965
  684MOL0     H92280   3.483  11.203   1.821  3.3116 -3.0496  0.3745
  684MOL0     H92281   3.421  10.996   2.032 -2.3519  1.6399  0.1114
  684MOL0     H92282   3.419  10.921   1.878  2.7091 -0.0532 -1.1021
  684MOL0     H92283   3.625  10.885   1.921  1.1425  0.5425  1.9511
  684MOL0     H92284   3.640  11.041   1.829 -2.5942  1.8405 -0.5102
  684MOL0     H92285   3.615  11.159   2.043 -1.9007 -0.6206 -0.3204
  684MOL0     H92286   3.611  11.006   2.138 -1.1544 -0.7791 -1.1270
  684MOL0     H92287   3.834  11.045   2.181  1.4222 -0.8698  0.6506
  684MOL0     H92288   3.848  10.951   2.032 -0.8638  0.4796 -2.2206
  684MOL0     H92289   3.788  11.227   1.959 -0.5244 -1.7458 -1.9095
  684MOL0     H92290   3.921  11.119   1.902  2.7732  0.2676  0.9512
  684MOL0     H92291   3.912  11.454   1.973  2.1673 -2.6034 -2.1150
  684MOL0     H92292   3.970  11.632   2.202 -1.3306 -1.1368 -4.9141
  684MOL0     H92293   4.116  11.580   2.283  0.6038  0.8996  0.3295
  684MOL0     H92294   4.106  11.622   1.984 -0.0387 -1.5637  0.4114
  684MOL0     H92295   4.250  11.597   2.076 -0.3833 -1.5691 -3.4815
  684MOL0     H92296   4.194  11.809   2.217 -0.4677  0.0579  0.2365
  684MOL0     H92297   4.067  11.843   2.105  0.4970  1.5080  1.9038
  684MOL0     H92298   4.339  11.812   1.987  0.7634  0.5899  1.4751
  684MOL0     H92299   4.286  11.974   2.041  0.2257  0.9867 -1.3886
  684MOL0     H92300   4.047  11.961   1.665 -1.2055  2.5649 -0.4038
  684MOL0     H92301   4.187  12.109   1.372 -2.9623  1.9754 -1.8822
  684MOL0     H92302   4.084  11.980   1.428  1.0702 -0.9637 -1.1526
  684MOL0     H92303   4.031  12.152   1.450 -1.3320 -0.9637  3.1862
  684MOL0     H92304   4.712  12.365   1.425 -2.4735 -0.6745  1.3003
  684MOL0     H92305   4.814  12.443   1.215  1.3489 -3.6051 -0.5522
  684MOL0     H92306   4.789  12.612   1.044  0.6832  1.9389 -1.5581
  684MOL0     H92307   4.895  12.470   1.023  0.0406 -0.5161 -0.2505
  684MOL0     H92308   4.868  12.503   0.783  1.3773  0.0436  1.1255
  684MOL0     H92309   4.774  12.652   0.798  0.7567 -0.4557 -1.0979
  684MOL0     H92310   5.028  12.646   0.743 -2.7208  3.7275 -1.3881
  684MOL0     H92311   5.053  12.612   0.913 -1.1831  2.9187  2.9145
  684MOL0     H92312   4.902  12.852   0.774  0.0178 -1.8620 -0.8037
  684MOL0     H92313   4.910  12.812   0.949  0.9218  0.2502  0.6996
  684MOL0     H92314   5.152  12.880   0.775  0.8191  0.3431 -0.5294
  684MOL0     H92315   5.163  12.828   0.948 -0.1848  2.1845  1.0503
  684MOL0     H92316   5.022  13.065   0.830 -1.4039  1.7663  1.3602
  684MOL0     H92317   5.004  13.013   1.006 -1.0470  0.6827 -0.9921
  684MOL0     H92318   5.258  13.113   0.879 -1.5675  1.2312 -1.9634
  684MOL0     H92319   5.241  13.052   1.050  0.4416  0.2028  0.8374
  684MOL0     H92320   5.097  13.306   0.948  3.1258  2.6252  0.9795
  684MOL0     H92321   5.241  13.296   1.044  0.0874  1.6752 -0.0846
  684MOL0     H92322   4.497  12.295   0.982 -0.5758 -1.2455 -0.5612
  684MOL0     H92323   4.392  12.202   1.204 -1.3314 -0.6855 -0.4172
  684MOL0     H92324   4.474  12.213   1.698  1.9989 -2.4735 -2.9716
  684MOL0     H92325   4.414  12.047   1.882 -0.3190 -0.2906 -0.5846
  684MOL0     H92326   3.295  11.278   1.575 -2.0355 -2.9530 -0.7614
  684MOL0     H92327   3.110  11.242   1.415 -0.2994  0.2775  1.0137
  684MOL0     H92328   2.548  11.030   1.495 -0.0635 -0.5451  0.0077
  684MOL0     H92329   2.383  11.004   1.318  1.4034 -2.1156 -2.9152
  684MOL0     H92330   2.330  11.083   0.898 -2.7087  3.3162  2.5424
  684MOL0     H92331   2.422  11.240   0.931  1.0929  0.5203 -1.6052
  684MOL0     H92332   2.578  10.977   0.942 -0.1484  0.1294  0.5645
  684MOL0     H92333   2.640  11.134   0.901  0.4154  0.9609 -3.3569
  684MOL0     H92334   2.648  11.076   0.690 -0.5797  2.0651 -0.3648
  684MOL0     H92335   2.473  11.074   0.704  0.6385  0.9241  1.9741
  684MOL0     H92336   2.529  10.875   0.607 -1.3017  2.4613 -0.1301
  684MOL0     H92337   2.497  10.837   0.778 -0.5854  1.1362  0.0146
  684MOL0     H92338   2.900  10.716   0.739  0.5724 -0.1921 -0.4443
  684MOL0     H92339   2.594  11.306   1.090 -5.2380 -0.4788 -1.9659
  684MOL0     H92340   2.746  11.340   1.258  1.9498 -1.9884 -1.2256
  685MOL0     O92341   7.845   4.136   1.519 -0.2643  0.5066  0.3798
  685MOL0     C92342   7.746   4.098   1.586  0.0536 -0.2800 -0.4362
  685MOL0     O92343   7.663   4.174   1.664 -0.6353 -0.6047  0.3658
  685MOL0     C92344   7.635   4.300   1.618 -0.0191 -0.4097  0.6316
  685MOL0     C92345   7.605   4.335   1.490 -0.0253  0.0601 -1.3376
  685MOL0     C92346   7.575   4.467   1.455  1.1291  0.2469 -0.3448
  685MOL0     C92347   7.575   4.565   1.551 -0.3900 -0.4100  0.1139
  685MOL0     O92348   7.541   4.691   1.504 -0.3331  0.5036  0.0832
  685MOL0     C92349   7.460   4.775   1.585 -0.1024 -0.1755  0.1389
  685MOL0     C92350   7.345   4.836   1.508  0.0488 -0.4812 -0.7907
  685MOL0     C92351   7.384   4.954   1.415  0.3738  0.7270  0.4854
  685MOL0     C92352   7.442   5.084   1.468  0.5987 -0.2895 -0.6078
  685MOL0     C92353   7.401   5.208   1.378 -0.4337 -0.1541 -0.4180
  685MOL0     C92354   7.246   5.232   1.349 -0.0945  1.1063 -0.2014
  685MOL0     C92355   7.147   5.210   1.457 -1.0191  0.6206 -0.2784
  685MOL0     C92356   7.144   5.319   1.570 -0.6023  0.1521  0.2178
  685MOL0     N92357   7.038   5.419   1.525  0.7755 -0.1680  0.2119
  685MOL0     C92358   7.079   5.534   1.460  0.5291 -0.6465  1.1625
  685MOL0     C92359   6.971   5.606   1.436  0.3537  0.5907 -0.4051
  685MOL0     C92360   6.946   5.714   1.338  1.1908 -0.4668  0.0098
  685MOL0     C92361   6.955   5.858   1.383 -0.4268 -0.1141  0.0524
  685MOL0     C92362   6.897   5.950   1.280 -0.0020 -0.0035  0.3170
  685MOL0     C92363   6.959   6.095   1.309  0.2014  1.0338  0.4451
  685MOL0     O92364   6.932   6.169   1.197  0.1828 -0.6930  0.2532
  685MOL0     C92365   6.850   6.277   1.202  0.3152 -0.0016 -0.3819
  685MOL0     C92366   6.912   6.402   1.195  0.4357  0.3096 -0.1139
  685MOL0     C92367   6.833   6.524   1.189 -0.3213 -0.0998  0.7222
  685MOL0     C92368   6.902   6.659   1.169  0.1761  0.3439  0.2105
  685MOL0     C92369   6.688   6.501   1.205 -0.5858 -0.2217  0.5140
  685MOL0     C92370   6.591   6.616   1.211 -0.6869  0.3675 -0.2198
  685MOL0     O92371   6.460   6.591   1.197 -0.3458  0.0047  0.0416
  685MOL0     C92372   6.360   6.682   1.219 -0.2310 -0.8245 -0.1735
  685MOL0     C92373   6.368   6.829   1.239  0.7793  1.3964 -0.7685
  685MOL0     C92374   6.250   6.898   1.268 -0.5604 -0.2831 -0.5806
  685MOL0     C92375   6.130   6.834   1.270  2.0555 -0.8655 -0.7814
  685MOL0     O92376   6.022   6.911   1.297  0.4180 -0.5097 -0.1479
  685MOL0     C92377   5.891   6.862   1.271 -0.2711 -0.1135  0.1683
  685MOL0     C92378   5.807   6.984   1.247  0.3851  0.1373  0.1850
  685MOL0     C92379   5.830   7.039   1.108 -1.3359  0.3427  0.2075
  685MOL0     C92380   5.756   7.169   1.080  0.5249 -0.5219 -0.8065
  685MOL0     C92381   5.759   7.207   0.935 -0.4359 -0.1508  0.3785
  685MOL0     C92382   5.680   7.338   0.907 -0.0458 -0.2732  0.1047
  685MOL0     C92383   5.726   7.461   0.983 -0.5626  0.0518 -0.2764
  685MOL0     C92384   5.626   7.502   1.093 -1.1835  1.4983 -0.0454
  685MOL0    Cl92385   5.454   7.520   1.038 -0.6755 -0.2179  0.2208
  685MOL0     C92386   6.115   6.698   1.247  0.2411  0.0804 -0.8735
  685MOL0     C92387   6.232   6.625   1.228  0.8401 -0.0990  0.1102
  685MOL0     O92388   6.636   6.720   1.259  0.0344 -0.3625  0.1302
  685MOL0     C92389   6.633   6.374   1.220 -0.5004 -0.0499 -0.2735
  685MOL0     C92390   6.712   6.260   1.203  0.5892  0.3808 -0.2039
  685MOL0     N92391   6.862   5.537   1.493 -0.0155  0.3878  0.2895
  685MOL0     N92392   6.905   5.425   1.550  0.2176 -0.4822  0.1308
  685MOL0     C92393   7.614   4.536   1.683 -0.2268  0.2936  0.3215
  685MOL0     C92394   7.636   4.403   1.720  0.3435 -0.3207 -0.4236
  685MOL0     C92395   7.711   3.955   1.575  0.5850  0.9508 -0.3236
  685MOL0     C92396   7.798   3.857   1.528  0.4150 -0.0612  0.3517
  685MOL0     C92397   7.770   3.725   1.519  0.1186  0.8482 -0.4496
  685MOL0     C92398   7.644   3.683   1.542  0.3526  0.0039  0.1060
  685MOL0     O92399   7.600   3.553   1.550 -0.4471  0.6585 -0.3565
  685MOL0     C92400   7.690   3.445   1.588 -0.0800 -0.0753 -0.2035
  685MOL0     C92401   7.755   3.463   1.731 -0.2425  0.1601  0.4297
  685MOL0     C92402   7.897   3.421   1.733  0.2023 -0.2209 -0.1921
  685MOL0     C92403   7.915   3.283   1.692 -0.5317  0.6905 -0.3498
  685MOL0     C92404   8.059   3.252   1.721  0.4894 -0.1769 -0.7036
  685MOL0     C92405   8.175   3.220   1.746 -0.9272  0.6107  0.5965
  685MOL0     C92406   7.546   3.777   1.571 -0.6797 -0.6452 -0.0453
  685MOL0     C92407   7.583   3.913   1.601 -0.1856 -0.1790  0.7443
  685MOL0     H92408   7.610   4.265   1.406 -0.8764 -1.8868  0.1493
  685MOL0     H92409   7.550   4.489   1.352  3.4027 -1.2412 -1.2963
  685MOL0     H92410   7.408   4.720   1.663 -1.8327  1.9925  0.6108
  685MOL0     H92411   7.527   4.853   1.623  0.7566 -1.0201  0.4094
  685MOL0     H92412   7.301   4.751   1.456  1.5740 -0.1375 -2.7783
  685MOL0     H92413   7.272   4.878   1.578  1.0873  0.0606 -0.0044
  685MOL0     H92414   7.464   4.922   1.348 -0.9039 -0.2835 -0.6203
  685MOL0     H92415   7.293   4.979   1.360 -1.1105 -0.7229  2.1719
  685MOL0     H92416   7.410   5.112   1.569 -1.7660 -1.1626 -1.0379
  685MOL0     H92417   7.551   5.078   1.471  0.9216  3.1221 -1.3000
  685MOL0     H92418   7.443   5.301   1.417 -3.2933  1.2176 -0.2991
  685MOL0     H92419   7.457   5.201   1.285 -2.1048 -1.9377 -1.3813
  685MOL0     H92420   7.237   5.334   1.312 -1.5738 -0.1796 -3.9059
  685MOL0     H92421   7.216   5.171   1.263  2.6861  2.1260 -2.0326
  685MOL0     H92422   7.050   5.187   1.413  0.9525 -2.9588 -3.3834
  685MOL0     H92423   7.174   5.122   1.517 -1.3624  1.5481  1.2686
  685MOL0     H92424   7.242   5.368   1.573 -0.8915  0.9800 -2.1891
  685MOL0     H92425   7.133   5.262   1.663  1.5536 -2.9498 -1.2642
  685MOL0     H92426   7.176   5.546   1.412 -0.6876 -1.4652 -1.7021
  685MOL0     H92427   7.015   5.697   1.255  3.0680 -0.8726  1.5879
  685MOL0     H92428   6.842   5.702   1.308  0.2037  0.3604  2.7847
  685MOL0     H92429   7.064   5.865   1.378 -0.3803 -0.7062  0.1036
  685MOL0     H92430   6.911   5.873   1.482  1.4316  1.1384  0.7212
  685MOL0     H92431   6.794   5.963   1.315  1.0503  0.7265  3.5337
  685MOL0     H92432   6.903   5.924   1.174 -1.7894  0.9833 -0.0814
  685MOL0     H92433   7.067   6.090   1.327  0.1729  0.5902  0.4997
  685MOL0     H92434   6.931   6.148   1.400 -1.9708  1.4026 -0.3746
  685MOL0     H92435   7.019   6.414   1.188  0.8116 -1.9517  0.9191
  685MOL0     H92436   6.841   6.706   1.091 -1.9307 -4.5507 -1.5619
  685MOL0     H92437   6.893   6.717   1.261 -3.5380  1.5226 -0.7329
  685MOL0     H92438   7.007   6.668   1.141 -0.4060 -0.0301 -2.3486
  685MOL0     H92439   6.454   6.893   1.224  0.4693  2.2499  0.8356
  685MOL0     H92440   6.258   7.005   1.288 -0.2063 -0.5866  1.0383
  685MOL0     H92441   5.905   6.818   1.172  1.4352 -1.6922  1.0518
  685MOL0     H92442   5.842   6.799   1.345 -4.4191  1.5477 -0.8724
  685MOL0     H92443   5.701   6.973   1.272  0.4540  1.3825  1.1645
  685MOL0     H92444   5.832   7.061   1.321  0.9465 -0.0972  0.2383
  685MOL0     H92445   5.809   6.957   1.038  1.1347  0.2808 -0.5665
  685MOL0     H92446   5.935   7.066   1.097 -2.1011  3.4696 -0.3430
  685MOL0     H92447   5.649   7.165   1.104  0.3649 -2.4841 -1.6762
  685MOL0     H92448   5.808   7.256   1.122 -3.0108  1.6787 -0.5627
  685MOL0     H92449   5.697   7.125   0.897 -0.1185 -0.4321  0.4707
  685MOL0     H92450   5.857   7.196   0.888 -1.0731 -3.4082 -0.4168
  685MOL0     H92451   5.694   7.362   0.801  0.6462  2.6738  0.7618
  685MOL0     H92452   5.578   7.312   0.937 -0.7416 -2.3094 -3.3619
  685MOL0     H92453   5.733   7.541   0.909  1.4957  0.0097 -0.1864
  685MOL0     H92454   5.830   7.440   1.009 -1.1222 -0.8915  1.3324
  685MOL0     H92455   5.666   7.593   1.140  1.0936  0.1035  0.9208
  685MOL0     H92456   5.624   7.423   1.168  0.1887  1.6435  0.1790
  685MOL0     H92457   6.022   6.648   1.270 -0.8091  2.4291  0.3601
  685MOL0     H92458   6.225   6.516   1.224  1.0240 -0.0829 -2.9660
  685MOL0     H92459   6.532   6.362   1.258 -0.1322 -0.5435  0.5600
  685MOL0     H92460   6.669   6.161   1.212  1.7121  0.0286  2.0116
  685MOL0     H92461   7.629   4.614   1.757 -2.7787  0.7166  0.4837
  685MOL0     H92462   7.677   4.365   1.813 -1.6101 -2.3306 -0.3065
  685MOL0     H92463   7.897   3.899   1.513 -1.7740  6.2369  0.4590
  685MOL0     H92464   7.853   3.660   1.490  1.1956  2.8150 -2.0082
  685MOL0     H92465   7.629   3.355   1.604 -1.0939 -0.6901 -5.5641
  685MOL0     H92466   7.751   3.425   1.500 -1.3663 -0.9389 -0.9323
  685MOL0     H92467   7.696   3.406   1.803  1.5168 -0.0817  1.7252
  685MOL0     H92468   7.761   3.568   1.764 -1.1215  0.2392  0.3564
  685MOL0     H92469   7.926   3.434   1.838  0.1158 -3.7262  0.4010
  685MOL0     H92470   7.970   3.483   1.680 -0.1627  2.8709  2.6439
  685MOL0     H92471   7.899   3.271   1.585  0.2704 -0.4932 -0.3598
  685MOL0     H92472   7.852   3.212   1.746 -0.5211 -0.3000 -1.6056
  685MOL0     H92473   8.277   3.209   1.778 -1.5547  0.9328  2.8302
  685MOL0     H92474   7.446   3.740   1.590 -0.9767 -0.4248 -1.1286
  685MOL0     H92475   7.508   3.971   1.654 -2.1089  0.3976 -2.3753
  686MOL0     O92476   6.678   5.875  10.407 -0.6563  0.7356  0.1688
  686MOL0     C92477   6.769   5.899  10.490 -0.2738 -0.1236 -0.5904
  686MOL0     O92478   6.904   5.872  10.480 -0.1629  0.4795  0.4882
  686MOL0     C92479   6.939   5.814  10.365  0.1284  0.0445 -0.2986
  686MOL0     C92480   6.970   5.679  10.363  0.1872 -1.0418  0.6315
  686MOL0     C92481   7.021   5.630  10.249  1.0722  0.8692  0.5495
  686MOL0     C92482   7.028   5.705  10.130 -0.2579  0.0382  0.3847
  686MOL0     O92483   7.081   5.662  10.002  0.4719  0.0103  0.1901
  686MOL0     C92484   7.103   5.519   9.990 -0.2650  0.3865  0.6577
  686MOL0     C92485   7.172   5.498   9.856  0.9674  0.8773  0.0493
  686MOL0     C92486   7.318   5.546   9.862  0.5628  1.0656 -0.5420
  686MOL0     C92487   7.379   5.573   9.717 -0.0830 -0.6607 -0.9857
  686MOL0     C92488   7.509   5.646   9.724 -0.3370  1.1110 -0.4456
  686MOL0     C92489   7.626   5.557   9.774 -0.5788  0.0416 -0.5948
  686MOL0     C92490   7.748   5.566   9.686 -0.5431  0.3991 -1.1847
  686MOL0     C92491   7.792   5.717   9.657 -0.3238  0.2216  0.0291
  686MOL0     N92492   7.924   5.723   9.600  0.0301 -0.1662  0.0132
  686MOL0     C92493   8.037   5.740   9.681  0.1349 -0.3941 -0.2549
  686MOL0     C92494   8.131   5.787   9.598 -0.1422 -0.4331  0.4100
  686MOL0     C92495   8.271   5.802   9.631  1.1398 -0.3072  0.0179
  686MOL0     C92496   8.355   5.714   9.545  0.5025  0.0039  0.5214
  686MOL0     C92497   8.504   5.706   9.580 -0.1515  0.1082  0.6220
  686MOL0     C92498   8.575   5.830   9.540 -0.5321 -0.1303  0.8631
  686MOL0     O92499   8.702   5.850   9.605 -0.6747 -0.7178 -0.3552
  686MOL0     C92500   8.805   5.915   9.537 -0.0784  0.1996  0.0325
  686MOL0     C92501   8.799   5.982   9.414  0.6779  0.9834  0.3314
  686MOL0     C92502   8.906   6.027   9.337  1.0923  0.0654 -0.1920
  686MOL0     C92503   8.879   6.109   9.213 -0.5962  0.5495 -0.3796
  686MOL0     C92504   9.038   6.022   9.397  1.0871 -0.4016  0.1375
  686MOL0     C92505   9.160   6.078   9.328  0.1237  1.1552  0.4754
  686MOL0     O92506   9.265   6.092   9.411  0.1798  0.1708  0.6137
  686MOL0     C92507   9.382   6.129   9.351 -0.5459 -0.1094  0.6033
  686MOL0     C92508   9.447   6.027   9.285 -0.1314  0.6271  0.9829
  686MOL0     C92509   9.581   6.043   9.236 -0.5868  0.2987  1.0428
  686MOL0     C92510   9.647   6.168   9.255 -0.0987  0.1136  0.6788
  686MOL0     O92511   9.774   6.193   9.227 -0.4420  0.3719  0.0106
  686MOL0     C92512   9.846   6.091   9.138  0.4242  0.4530 -0.4265
  686MOL0     C92513   9.988   6.147   9.098 -0.0070  0.4108 -0.0554
  686MOL0     C92514  10.060   6.037   9.017 -0.4080 -0.2586  0.0925
  686MOL0     C92515  10.187   6.121   8.967 -0.3651 -0.3936  0.1271
  686MOL0     C92516  10.171   6.189   8.833 -0.2746 -0.3881  0.1478
  686MOL0     C92517  10.296   6.283   8.817  0.4584 -0.1428  0.1357
  686MOL0     C92518  10.305   6.346   8.672 -0.1390  0.1263  0.5841
  686MOL0     C92519  10.246   6.482   8.642  0.2138  0.8004  0.0590
  686MOL0    Cl92520  10.080   6.439   8.605 -0.2311 -0.1258  0.3067
  686MOL0     C92521   9.566   6.264   9.314  0.2238 -0.0572 -0.1759
  686MOL0     C92522   9.438   6.252   9.360  0.0015 -0.2554  0.6798
  686MOL0     O92523   9.164   6.097   9.209  0.0789  0.5902  0.4094
  686MOL0     C92524   9.046   5.973   9.526  0.1774 -0.5824 -0.3829
  686MOL0     C92525   8.928   5.922   9.592 -0.7384 -0.1689  0.7734
  686MOL0     N92526   8.085   5.803   9.463  0.2488  0.5808  0.3578
  686MOL0     N92527   7.958   5.763   9.469  0.2697 -0.5496  0.0606
  686MOL0     C92528   6.991   5.840  10.129 -0.7859  0.3001  0.7825
  686MOL0     C92529   6.946   5.895  10.252 -1.3536  1.2442 -0.3597
  686MOL0     C92530   6.730   5.958  10.622  0.8870 -0.5778 -0.6564
  686MOL0     C92531   6.592   5.977  10.646 -0.2378  0.0208 -0.0551
  686MOL0     C92532   6.555   6.037  10.763  0.2163  0.4330  0.2348
  686MOL0     C92533   6.645   6.071  10.854 -1.2071 -0.2928 -0.1149
  686MOL0     O92534   6.593   6.137  10.962 -0.8744 -0.1076 -0.7496
  686MOL0     C92535   6.671   6.135  11.086 -0.5966  1.4064 -0.7458
  686MOL0     C92536   6.624   6.251  11.179  0.6173  0.1688 -0.0211
  686MOL0     C92537   6.479   6.241  11.222  0.8048  0.3217 -1.0716
  686MOL0     C92538   6.433   6.357  11.328 -0.1776 -0.6236  0.4730
  686MOL0     C92539   6.296   6.343  11.369 -0.2838  1.0438  0.3876
  686MOL0     C92540   6.185   6.298  11.401 -0.1053  0.0044  0.0617
  686MOL0     C92541   6.784   6.055  10.834  0.4475  0.7063  0.3102
  686MOL0     C92542   6.821   6.005  10.714 -0.6486  1.3248  1.9128
  686MOL0     H92543   6.957   5.610  10.446 -3.5725 -1.2502  0.0649
  686MOL0     H92544   7.058   5.528  10.245  0.5148  0.6623 -2.6766
  686MOL0     H92545   7.166   5.471  10.066  2.2031  0.7110 -1.0505
  686MOL0     H92546   7.003   5.475   9.993  0.1735 -0.6490  0.3316
  686MOL0     H92547   7.182   5.391   9.835  0.9518  0.8850  0.0040
  686MOL0     H92548   7.112   5.534   9.772  0.1472  0.5269  0.4605
  686MOL0     H92549   7.335   5.642   9.911  3.9759  1.2606 -1.8677
  686MOL0     H92550   7.381   5.474   9.915  1.6666  0.9905 -1.8982
  686MOL0     H92551   7.388   5.479   9.662  2.0687 -0.1693 -1.5760
  686MOL0     H92552   7.307   5.645   9.676  1.1799 -0.5368 -3.0995
  686MOL0     H92553   7.531   5.691   9.626  2.6380 -0.8533 -0.7988
  686MOL0     H92554   7.505   5.737   9.785  1.7640  1.1569 -0.3100
  686MOL0     H92555   7.654   5.588   9.876 -3.3482 -3.6395  1.5265
  686MOL0     H92556   7.589   5.455   9.784  0.0078 -0.1998 -0.8776
  686MOL0     H92557   7.829   5.513   9.737  0.5914  1.4944 -1.7906
  686MOL0     H92558   7.729   5.510   9.594 -0.9232  1.0068 -1.4812
  686MOL0     H92559   7.790   5.777   9.748  1.1665 -1.1822  1.0436
  686MOL0     H92560   7.728   5.757   9.578  1.9727 -1.4784 -2.9378
  686MOL0     H92561   8.050   5.727   9.788  2.7424  1.5880 -0.2342
  686MOL0     H92562   8.295   5.908   9.614 -1.2846  0.2530 -0.3119
  686MOL0     H92563   8.288   5.775   9.735  1.0654  0.9453  0.3722
  686MOL0     H92564   8.345   5.738   9.439  2.7700  0.6575  0.3889
  686MOL0     H92565   8.332   5.608   9.535 -0.3975  0.4026 -5.3910
  686MOL0     H92566   8.548   5.629   9.516 -0.5940 -0.4075  0.9383
  686MOL0     H92567   8.512   5.683   9.686  0.8040 -3.7773 -0.1444
  686MOL0     H92568   8.521   5.925   9.550 -0.0501  0.6444 -2.4587
  686MOL0     H92569   8.597   5.818   9.433 -3.5214  0.4415  0.0864
  686MOL0     H92570   8.697   5.986   9.376  0.4243 -5.2745 -0.8240
  686MOL0     H92571   8.902   6.049   9.125 -3.6155 -0.7150 -0.4213
  686MOL0     H92572   8.774   6.137   9.211 -0.2669  2.0323 -3.8509
  686MOL0     H92573   8.930   6.206   9.213 -1.0559  0.8695  2.2354
  686MOL0     H92574   9.401   5.929   9.293 -1.4092  1.3127  2.7675
  686MOL0     H92575   9.622   5.957   9.185  1.7578  3.4436 -3.0619
  686MOL0     H92576   9.862   6.007   9.205 -0.5779  0.0787 -0.6311
  686MOL0     H92577   9.787   6.068   9.049 -3.0670 -1.3447  2.0950
  686MOL0     H92578   9.982   6.242   9.043  2.9235  1.4564  1.2349
  686MOL0     H92579  10.036   6.163   9.195  4.7060 -0.1673 -2.0159
  686MOL0     H92580  10.007   5.990   8.933  2.1110  1.6562 -2.7832
  686MOL0     H92581  10.102   5.955   9.075  1.2403  0.7762  0.4138
  686MOL0     H92582  10.208   6.190   9.048 -0.8486  0.9878 -0.8809
  686MOL0     H92583  10.279   6.064   8.954 -1.2775 -1.3750 -3.3492
  686MOL0     H92584  10.080   6.250   8.833  1.7455  3.0572  2.7714
  686MOL0     H92585  10.169   6.117   8.752 -3.0476 -0.5083  0.2211
  686MOL0     H92586  10.276   6.368   8.883  2.1377 -0.7614  1.5047
  686MOL0     H92587  10.398   6.251   8.840  1.1818  1.2703 -0.9245
  686MOL0     H92588  10.285   6.262   8.606  3.5700 -1.7171  1.5324
  686MOL0     H92589  10.412   6.372   8.672 -0.6161  2.3550  1.3147
  686MOL0     H92590  10.288   6.539   8.558  0.4725  1.1624  0.4299
  686MOL0     H92591  10.262   6.538   8.735  0.2623  0.0680  0.4927
  686MOL0     H92592   9.623   6.357   9.322  0.8931 -0.3795 -0.9651
  686MOL0     H92593   9.379   6.330   9.406 -2.1833  0.4133 -2.8028
  686MOL0     H92594   9.137   5.985   9.583  1.1500  1.2352 -2.1628
  686MOL0     H92595   8.949   5.887   9.692  1.9364 -3.0357 -0.6170
  686MOL0     H92596   7.012   5.896  10.039 -1.0234 -0.7088  0.0797
  686MOL0     H92597   6.929   6.002  10.247 -0.1593  1.4519 -0.0724
  686MOL0     H92598   6.516   5.945  10.575  0.7301 -2.4097 -0.0905
  686MOL0     H92599   6.451   6.063  10.779 -0.5742 -2.1103 -0.2088
  686MOL0     H92600   6.641   6.039  11.129  0.6641  0.4530 -1.9123
  686MOL0     H92601   6.781   6.137  11.087 -0.2243 -2.2447  4.2336
  686MOL0     H92602   6.644   6.343  11.124  3.4359 -1.0153 -1.2169
  686MOL0     H92603   6.691   6.257  11.266 -0.9335 -2.1669  1.4667
  686MOL0     H92604   6.465   6.140  11.263  1.2956  0.3654 -0.7955
  686MOL0     H92605   6.410   6.247  11.137 -2.8807  0.4076  1.6784
  686MOL0     H92606   6.444   6.448  11.268 -0.4130 -1.5857 -1.0935
  686MOL0     H92607   6.499   6.335  11.413  1.8719 -2.1439 -1.3886
  686MOL0     H92608   6.088   6.258  11.422 -1.8806  2.6184 -2.3489
  686MOL0     H92609   6.859   6.078  10.908 -0.5633  0.4602  1.4345
  686MOL0     H92610   6.922   6.001  10.676 -1.7149  4.1263 -1.8945
  687MOL0     O92611   5.081   2.277   3.119 -0.0612  0.2027 -0.3187
  687MOL0     C92612   5.030   2.165   3.131  0.3859 -0.1735  0.5277
  687MOL0     O92613   5.046   2.076   3.235 -0.1272  0.4387  0.6674
  687MOL0     C92614   5.138   2.091   3.330  0.8422 -0.4950 -0.1066
  687MOL0     C92615   5.263   2.136   3.298  0.0326 -1.0513 -0.4363
  687MOL0     C92616   5.359   2.182   3.386  0.7751 -0.1576  1.0568
  687MOL0     C92617   5.337   2.181   3.522 -0.1766  1.0239 -0.0275
  687MOL0     O92618   5.426   2.224   3.620 -0.3896 -0.8998 -0.1687
  687MOL0     C92619   5.561   2.246   3.579  0.3547 -0.3341 -0.3535
  687MOL0     C92620   5.636   2.334   3.677 -0.8872  0.2262  0.3714
  687MOL0     C92621   5.593   2.475   3.673 -0.0776  0.3481 -0.3952
  687MOL0     C92622   5.707   2.573   3.655  0.3505  0.6833 -0.7769
  687MOL0     C92623   5.646   2.714   3.702 -0.2535 -0.2766 -0.1988
  687MOL0     C92624   5.737   2.832   3.688  0.8183 -0.4780 -0.0736
  687MOL0     C92625   5.807   2.833   3.552  0.3859 -0.8086 -0.2331
  687MOL0     C92626   5.907   2.955   3.543  0.0061  0.3368 -0.8689
  687MOL0     N92627   5.840   3.080   3.501 -0.3660 -0.4054 -0.2515
  687MOL0     C92628   5.761   3.155   3.583  0.3699  0.2574 -0.2473
  687MOL0     C92629   5.702   3.255   3.519  0.1088 -0.0151  0.5108
  687MOL0     C92630   5.635   3.356   3.602  0.8755 -0.2744  0.4829
  687MOL0     C92631   5.596   3.500   3.539 -0.7155 -1.2497 -1.4331
  687MOL0     C92632   5.720   3.583   3.537 -0.5156 -0.0887  0.6234
  687MOL0     C92633   5.679   3.727   3.489  0.2534  1.1648  0.2208
  687MOL0     O92634   5.784   3.812   3.430  0.8918  0.3760  0.6119
  687MOL0     C92635   5.880   3.861   3.505 -0.0752  0.0361 -0.1206
  687MOL0     C92636   5.873   3.865   3.643 -0.4092 -0.7887  0.0729
  687MOL0     C92637   5.991   3.906   3.711  0.3357  0.6550 -0.5420
  687MOL0     C92638   5.987   3.892   3.867 -0.0275  0.2806  0.4255
  687MOL0     C92639   6.102   3.973   3.645  0.1448  0.6184 -0.1455
  687MOL0     C92640   6.228   4.008   3.705  0.2199 -0.2368 -0.3626
  687MOL0     O92641   6.292   4.125   3.662  0.6274 -0.0911  0.8474
  687MOL0     C92642   6.399   4.169   3.736  0.9556 -0.0494 -0.8202
  687MOL0     C92643   6.523   4.105   3.731  0.0366 -0.2150 -0.0841
  687MOL0     C92644   6.641   4.158   3.775 -0.1874  0.4679  1.1221
  687MOL0     C92645   6.638   4.290   3.827 -0.5628  0.3567  0.2853
  687MOL0     O92646   6.747   4.351   3.883 -0.5681 -0.7239 -0.0674
  687MOL0     C92647   6.811   4.265   3.986 -0.0861  0.7570  0.5626
  687MOL0     C92648   6.920   4.339   4.057 -0.0620 -0.0558  1.1824
  687MOL0     C92649   6.982   4.450   3.964  0.0023 -0.3813 -1.1664
  687MOL0     C92650   7.078   4.544   4.053  0.4599  0.9498 -0.3924
  687MOL0     C92651   7.175   4.461   4.131 -0.1867 -1.3190 -0.1538
  687MOL0     C92652   7.282   4.385   4.059 -0.1981  0.5261 -0.6758
  687MOL0     C92653   7.396   4.332   4.149 -0.6378 -0.8891 -0.1500
  687MOL0     C92654   7.361   4.236   4.262  0.4788  0.1306 -0.4464
  687MOL0    Cl92655   7.268   4.094   4.206  0.0066  0.1199  0.1509
  687MOL0     C92656   6.516   4.357   3.831  0.0239  0.5595 -0.7772
  687MOL0     C92657   6.393   4.298   3.785  0.8658 -0.6686 -0.3567
  687MOL0     O92658   6.278   3.921   3.779  0.1243  0.6098 -0.1162
  687MOL0     C92659   6.090   3.980   3.508  0.0731 -0.6294 -0.3373
  687MOL0     C92660   5.982   3.927   3.432  0.2755 -1.1983 -1.3647
  687MOL0     N92661   5.764   3.254   3.394  0.5846  0.3680 -0.0716
  687MOL0     N92662   5.844   3.148   3.384 -0.5631 -0.1433  0.0437
  687MOL0     C92663   5.219   2.127   3.566  0.6810 -0.5515  0.3546
  687MOL0     C92664   5.125   2.084   3.466 -0.3452 -0.2992  0.6997
  687MOL0     C92665   4.949   2.117   3.023  0.5023 -0.5184 -0.0153
  687MOL0     C92666   4.867   1.997   3.040 -0.4858 -0.3147  0.0791
  687MOL0     C92667   4.775   1.959   2.931  0.1457  0.4753  0.3460
  687MOL0     C92668   4.772   2.023   2.804 -0.0853 -1.0260  0.9657
  687MOL0     O92669   4.700   1.981   2.688 -0.2603 -0.5071 -0.7592
  687MOL0     C92670   4.612   1.870   2.706 -1.9104  0.2624 -0.4126
  687MOL0     C92671   4.485   1.932   2.760  0.3123  0.0465 -0.7932
  687MOL0     C92672   4.355   1.856   2.738 -0.4070  1.2023  1.1064
  687MOL0     C92673   4.360   1.716   2.796 -0.1436 -0.9505  0.7180
  687MOL0     C92674   4.367   1.715   2.937 -0.7479  0.4167 -0.4879
  687MOL0     C92675   4.381   1.736   3.058 -0.5065  0.4108 -0.6770
  687MOL0     C92676   4.865   2.136   2.795 -0.1952 -0.4825  1.4640
  687MOL0     C92677   4.931   2.194   2.904  0.9567  0.5133 -0.8022
  687MOL0     H92678   5.283   2.154   3.193 -1.4757 -2.7581 -1.0584
  687MOL0     H92679   5.446   2.219   3.333 -0.7020 -2.0035 -3.0961
  687MOL0     H92680   5.607   2.147   3.593  0.2190 -0.1441  1.8228
  687MOL0     H92681   5.575   2.294   3.482  0.9280 -0.1917 -0.2057
  687MOL0     H92682   5.615   2.293   3.776 -1.7620  1.7003  0.8242
  687MOL0     H92683   5.744   2.317   3.669 -1.2041 -3.8165  2.3495
  687MOL0     H92684   5.520   2.482   3.591 -1.9179 -0.8768  1.0675
  687MOL0     H92685   5.531   2.506   3.758 -0.6451 -1.5668 -0.0621
  687MOL0     H92686   5.796   2.544   3.712  0.4268  3.6905  0.9105
  687MOL0     H92687   5.733   2.566   3.549  1.0859  1.4922 -0.6627
  687MOL0     H92688   5.558   2.731   3.640 -0.6565 -3.5585 -0.7193
  687MOL0     H92689   5.615   2.703   3.806  1.2098  0.2894  0.3304
  687MOL0     H92690   5.682   2.923   3.713 -0.3495 -0.9157 -0.9083
  687MOL0     H92691   5.824   2.818   3.751  2.0655 -0.9336 -1.8167
  687MOL0     H92692   5.856   2.740   3.520 -1.3610 -1.1729 -2.0743
  687MOL0     H92693   5.732   2.847   3.474  0.4479  3.7141  0.2269
  687MOL0     H92694   5.975   2.935   3.460  1.3878  0.6965  0.1338
  687MOL0     H92695   5.970   2.970   3.631  1.1683  0.5769 -1.7107
  687MOL0     H92696   5.741   3.141   3.689 -1.8624  1.4554 -0.4478
  687MOL0     H92697   5.550   3.298   3.640 -0.0900 -1.3672 -3.0077
  687MOL0     H92698   5.692   3.384   3.691  0.2735  0.5272  0.6301
  687MOL0     H92699   5.519   3.544   3.603  1.4948 -0.9140  1.1839
  687MOL0     H92700   5.546   3.498   3.442 -1.3185  0.1114 -1.1745
  687MOL0     H92701   5.780   3.550   3.451 -2.8666  2.4978 -2.2687
  687MOL0     H92702   5.771   3.574   3.633 -1.6897 -1.8983  1.1184
  687MOL0     H92703   5.622   3.772   3.571  0.1231 -1.3515  1.6041
  687MOL0     H92704   5.605   3.717   3.408 -0.8244 -2.2611  1.4693
  687MOL0     H92705   5.785   3.828   3.694 -0.5013 -1.9553 -0.8721
  687MOL0     H92706   6.057   3.817   3.905 -1.2984 -0.9984  0.3061
  687MOL0     H92707   6.018   3.979   3.926 -0.5362  0.3076  0.6519
  687MOL0     H92708   5.885   3.866   3.896 -0.2427 -0.3907 -0.8446
  687MOL0     H92709   6.517   3.998   3.716 -0.7059 -0.5245  2.0839
  687MOL0     H92710   6.729   4.096   3.786 -1.0433 -0.9692  0.1517
  687MOL0     H92711   6.739   4.238   4.064  1.3776 -1.9166  1.0843
  687MOL0     H92712   6.849   4.167   3.957 -1.4626  0.9291 -2.0985
  687MOL0     H92713   6.869   4.399   4.133 -1.2041 -0.0999  0.4838
  687MOL0     H92714   6.991   4.266   4.095  0.1280 -2.2575 -2.8150
  687MOL0     H92715   6.907   4.519   3.924 -1.4158 -1.4976 -0.5268
  687MOL0     H92716   7.025   4.419   3.868  0.6575  1.8161 -1.6407
  687MOL0     H92717   7.123   4.611   3.979  1.0469  1.0435  0.0458
  687MOL0     H92718   7.015   4.598   4.125  2.2744 -0.0881  2.1155
  687MOL0     H92719   7.117   4.401   4.202 -2.7849  0.1043 -0.9564
  687MOL0     H92720   7.229   4.540   4.183 -1.9883  2.9307 -4.1115
  687MOL0     H92721   7.244   4.308   3.991 -1.0499 -1.0049  1.4175
  687MOL0     H92722   7.330   4.460   3.995  1.5501  0.2906  0.2994
  687MOL0     H92723   7.447   4.425   4.176  0.4044 -0.8076 -2.2307
  687MOL0     H92724   7.460   4.275   4.080  0.5672  2.2959 -1.8448
  687MOL0     H92725   7.302   4.295   4.333 -0.1116 -1.7384  0.7083
  687MOL0     H92726   7.451   4.200   4.312  0.2144  0.2983  0.1600
  687MOL0     H92727   6.514   4.458   3.871  1.2646  0.1592  0.3797
  687MOL0     H92728   6.295   4.344   3.772  2.1916  2.2540 -0.6999
  687MOL0     H92729   6.171   4.031   3.457 -0.6929  1.5010  0.4560
  687MOL0     H92730   5.974   3.919   3.324 -0.1516 -2.0815 -1.2799
  687MOL0     H92731   5.201   2.121   3.673 -0.8555  0.8801  0.2230
  687MOL0     H92732   5.027   2.048   3.498 -1.4697  1.2579 -0.8189
  687MOL0     H92733   4.870   1.937   3.130  2.5442 -0.0537  0.2499
  687MOL0     H92734   4.725   1.862   2.938  1.0352 -0.1562 -1.4405
  687MOL0     H92735   4.579   1.832   2.608 -1.6063 -3.6970  0.8226
  687MOL0     H92736   4.649   1.788   2.768  2.8886  1.1998 -1.6248
  687MOL0     H92737   4.473   2.028   2.708 -1.0413  0.0964 -0.4193
  687MOL0     H92738   4.494   1.956   2.866  1.8811 -1.6558 -0.4904
  687MOL0     H92739   4.325   1.855   2.633 -2.4197 -3.3413  1.5002
  687MOL0     H92740   4.280   1.913   2.794  0.6181  1.5227  2.2257
  687MOL0     H92741   4.434   1.659   2.739 -0.3835 -1.7010  1.1487
  687MOL0     H92742   4.263   1.673   2.767 -1.4954  3.6031 -2.8555
  687MOL0     H92743   4.378   1.758   3.163 -0.9948 -4.0439  0.4415
  687MOL0     H92744   4.857   2.182   2.697 -1.2414 -2.9280  0.3039
  687MOL0     H92745   4.977   2.292   2.903 -0.1106  1.2966  3.7075
  688MOL0     O92746   0.321   9.701   3.590  0.0493  0.0706 -0.1358
  688MOL0     C92747   0.231   9.637   3.649 -0.4469  0.1064 -0.3641
  688MOL0     O92748   0.262   9.553   3.750  0.5097  1.3157 -0.2215
  688MOL0     C92749   0.390   9.510   3.770 -0.0999  0.4733  0.2976
  688MOL0     C92750   0.425   9.395   3.718  0.4557  0.8834 -0.1582
  688MOL0     C92751   0.556   9.338   3.727  0.0991 -0.2998 -0.3823
  688MOL0     C92752   0.651   9.418   3.799 -0.3919  0.1374  0.5715
  688MOL0     O92753   0.773   9.365   3.821  0.0770 -0.3658  0.2983
  688MOL0     C92754   0.779   9.295   3.946 -0.1304  0.3309  0.6878
  688MOL0     C92755   0.849   9.164   3.926 -0.0202 -0.4467 -0.0568
  688MOL0     C92756   0.987   9.187   3.873 -0.5352 -0.5251  0.7709
  688MOL0     C92757   1.064   9.056   3.865 -0.0494  0.5334  0.3820
  688MOL0     C92758   1.212   9.065   3.813  0.0612  0.2930  0.1249
  688MOL0     C92759   1.249   8.921   3.782 -0.7348  0.0603 -0.4569
  688MOL0     C92760   1.390   8.919   3.718 -0.1305  0.5804  0.1739
  688MOL0     C92761   1.430   8.796   3.632  0.1646 -0.0523 -0.5346
  688MOL0     N92762   1.431   8.665   3.713  0.4394 -0.2952  0.2394
  688MOL0     C92763   1.497   8.635   3.833  0.3406 -0.4746 -0.5522
  688MOL0     C92764   1.464   8.495   3.840 -1.0474 -1.3273 -0.3154
  688MOL0     C92765   1.524   8.395   3.941  0.1415 -0.7662 -0.7804
  688MOL0     C92766   1.547   8.468   4.080 -0.2255 -0.5504  0.1414
  688MOL0     C92767   1.535   8.362   4.193  0.3801 -0.0361  0.7439
  688MOL0     C92768   1.559   8.432   4.327 -0.4325  0.1585 -0.3805
  688MOL0     O92769   1.590   8.336   4.436 -0.1267 -0.6171 -0.0912
  688MOL0     C92770   1.714   8.292   4.456  0.0548 -0.7930  0.1359
  688MOL0     C92771   1.817   8.309   4.366 -0.1089 -0.9678 -0.0145
  688MOL0     C92772   1.946   8.245   4.384  0.6296 -0.7434  0.4363
  688MOL0     C92773   2.052   8.265   4.286 -0.0848  0.4240  0.6537
  688MOL0     C92774   1.961   8.157   4.490 -0.5295 -0.3708 -1.2807
  688MOL0     C92775   2.082   8.069   4.504  0.5186 -0.4915 -0.1276
  688MOL0     O92776   2.047   7.937   4.536  0.2094  0.4380 -0.2569
  688MOL0     C92777   2.147   7.848   4.539 -1.3187  0.8541  0.8208
  688MOL0     C92778   2.230   7.826   4.426  0.3262  0.6310  0.0553
  688MOL0     C92779   2.337   7.734   4.417  0.1327  0.6852 -0.2638
  688MOL0     C92780   2.357   7.654   4.531 -0.2036  1.0690 -0.4090
  688MOL0     O92781   2.457   7.556   4.531 -0.3048  0.0359  0.6483
  688MOL0     C92782   2.406   7.427   4.513  0.1016  0.5566 -0.1404
  688MOL0     C92783   2.428   7.378   4.365 -1.4767 -0.2941 -0.5258
  688MOL0     C92784   2.572   7.335   4.332 -0.0011 -0.2810 -0.2154
  688MOL0     C92785   2.676   7.449   4.336  0.4187 -0.2471 -0.5533
  688MOL0     C92786   2.809   7.423   4.268 -0.8845 -0.3870 -0.6155
  688MOL0     C92787   2.907   7.376   4.368 -0.8590  0.2107 -1.0158
  688MOL0     C92788   3.019   7.304   4.286 -0.3390  0.7136 -0.5894
  688MOL0     C92789   3.093   7.193   4.357 -0.1536  0.1227 -0.5113
  688MOL0    Cl92790   2.973   7.058   4.404 -0.1088  0.1524  0.5295
  688MOL0     C92791   2.268   7.665   4.638  0.2726 -0.3669 -0.3286
  688MOL0     C92792   2.174   7.767   4.647  1.1165  0.2300  0.2460
  688MOL0     O92793   2.194   8.111   4.479 -0.1967 -0.3250  0.1981
  688MOL0     C92794   1.853   8.135   4.577  0.2051  0.5738 -0.5582
  688MOL0     C92795   1.737   8.202   4.560 -0.7113 -0.6348  0.2679
  688MOL0     N92796   1.395   8.454   3.734  1.2235 -0.3928  0.3956
  688MOL0     N92797   1.372   8.557   3.656 -1.2991 -0.1240 -0.2670
  688MOL0     C92798   0.616   9.544   3.850  0.7568  0.4763  0.0482
  688MOL0     C92799   0.487   9.589   3.832 -0.5444  0.6217 -0.1975
  688MOL0     C92800   0.089   9.643   3.605  0.6662  0.7203  0.6865
  688MOL0     C92801   0.067   9.662   3.472  0.0863  0.0493 -0.1974
  688MOL0     C92802  -0.069   9.705   3.429  0.4683 -0.8580  0.5880
  688MOL0     C92803  -0.169   9.728   3.520 -0.2578  0.3293  0.6464
  688MOL0     O92804  -0.298   9.779   3.498 -0.1941  0.0733  0.8540
  688MOL0     C92805  -0.320   9.894   3.414 -0.8307  0.0139 -0.4279
  688MOL0     C92806  -0.416   9.842   3.307 -0.1152 -0.0204 -0.4686
  688MOL0     C92807  -0.467   9.951   3.210 -0.1457  0.6377 -0.1111
  688MOL0     C92808  -0.589   9.924   3.132  0.0917 -0.5447 -0.5994
  688MOL0     C92809  -0.579   9.829   3.025  0.7648 -0.0482  0.4370
  688MOL0     C92810  -0.571   9.742   2.936 -0.1167 -1.1012 -0.2533
  688MOL0     C92811  -0.138   9.691   3.648  0.3171  0.7121 -0.6561
  688MOL0     C92812  -0.012   9.651   3.694 -0.9713  0.4788  0.0421
  688MOL0     H92813   0.349   9.328   3.679 -1.5591  2.8387  0.2593
  688MOL0     H92814   0.576   9.239   3.686 -1.1279  0.5319 -3.2373
  688MOL0     H92815   0.842   9.352   4.015  2.2024  0.2113 -1.1998
  688MOL0     H92816   0.679   9.281   3.987 -0.4903 -1.8419 -0.7887
  688MOL0     H92817   0.852   9.102   4.016 -2.4746 -1.2547 -0.4512
  688MOL0     H92818   0.795   9.102   3.853  4.4278 -2.3888 -2.0266
  688MOL0     H92819   0.971   9.231   3.774 -0.3936 -0.6401  0.6972
  688MOL0     H92820   1.041   9.259   3.934 -0.9289  1.5629 -1.2322
  688MOL0     H92821   1.071   9.016   3.966  0.7215  1.4635  0.7158
  688MOL0     H92822   1.002   8.991   3.802 -0.5702  0.1190  1.3030
  688MOL0     H92823   1.225   9.129   3.726  2.9828 -2.0092 -1.2843
  688MOL0     H92824   1.276   9.103   3.894  0.9292 -0.7032 -0.0685
  688MOL0     H92825   1.238   8.867   3.877 -0.4149  3.7782  1.9187
  688MOL0     H92826   1.183   8.873   3.709 -2.8192  0.0207  1.3428
  688MOL0     H92827   1.406   9.003   3.649  1.7329 -1.9064 -2.6639
  688MOL0     H92828   1.470   8.926   3.792  0.5925  1.3777 -0.6524
  688MOL0     H92829   1.536   8.810   3.606  0.9556 -1.4071  1.6462
  688MOL0     H92830   1.374   8.799   3.539  1.0422  0.6340 -1.0588
  688MOL0     H92831   1.549   8.701   3.901 -0.2190 -1.5218  0.9373
  688MOL0     H92832   1.450   8.316   3.956 -1.3309  0.9718  1.8810
  688MOL0     H92833   1.621   8.358   3.905  0.0703 -0.0100 -1.7754
  688MOL0     H92834   1.472   8.547   4.094  1.0388  0.4836  1.3283
  688MOL0     H92835   1.644   8.518   4.083 -0.6954  0.3845  0.2265
  688MOL0     H92836   1.612   8.287   4.175  0.9068  0.9835 -1.6402
  688MOL0     H92837   1.434   8.321   4.188 -0.3665  1.8081 -3.6441
  688MOL0     H92838   1.473   8.494   4.353 -1.1937  0.0687 -2.5015
  688MOL0     H92839   1.638   8.502   4.298 -1.3783  0.5508 -2.2050
  688MOL0     H92840   1.811   8.371   4.277 -0.5925 -2.3447 -0.9789
  688MOL0     H92841   2.019   8.331   4.206 -2.4783  0.3427  1.4990
  688MOL0     H92842   2.140   8.304   4.339 -0.2989  1.1768  0.4576
  688MOL0     H92843   2.089   8.176   4.234  1.9883  0.5338  1.8183
  688MOL0     H92844   2.228   7.886   4.335  3.1392  0.0486 -0.5060
  688MOL0     H92845   2.406   7.715   4.335 -1.3974  0.0306 -1.4659
  688MOL0     H92846   2.459   7.370   4.590 -1.6797  0.8865  1.4080
  688MOL0     H92847   2.305   7.418   4.554  1.2644 -1.6878  2.6072
  688MOL0     H92848   2.363   7.291   4.348 -1.5511 -0.0851 -1.3405
  688MOL0     H92849   2.411   7.453   4.287 -0.2361  0.0186 -0.5090
  688MOL0     H92850   2.569   7.325   4.223 -1.5488 -0.3512 -0.1902
  688MOL0     H92851   2.614   7.244   4.375 -1.7715 -1.2059 -0.3481
  688MOL0     H92852   2.634   7.538   4.288 -2.7258 -1.0867  0.4378
  688MOL0     H92853   2.693   7.475   4.441 -0.4150 -0.1038 -0.4518
  688MOL0     H92854   2.859   7.510   4.224  1.6541 -0.4009  1.9467
  688MOL0     H92855   2.797   7.343   4.195 -1.0659 -0.7523 -0.1849
  688MOL0     H92856   2.948   7.458   4.427  0.7853 -0.2888 -1.4186
  688MOL0     H92857   2.867   7.306   4.442 -0.4903  0.4159 -0.6203
  688MOL0     H92858   3.095   7.378   4.262  1.0155 -0.3151  0.3746
  688MOL0     H92859   2.978   7.254   4.198 -1.9536 -0.9587  1.0233
  688MOL0     H92860   3.127   7.243   4.448 -1.4116 -0.3411  0.2448
  688MOL0     H92861   3.186   7.163   4.308  0.0573  1.0228 -0.6968
  688MOL0     H92862   2.273   7.596   4.722 -4.6165 -0.9153 -0.1659
  688MOL0     H92863   2.113   7.780   4.735 -0.9116  0.4334 -1.1272
  688MOL0     H92864   1.860   8.070   4.664 -1.4891  0.7404 -0.2600
  688MOL0     H92865   1.659   8.195   4.635 -0.1871 -0.1270  0.8649
  688MOL0     H92866   0.696   9.608   3.886  0.1288  1.3462 -0.0688
  688MOL0     H92867   0.476   9.694   3.855  0.4971  0.0719  3.5009
  688MOL0     H92868   0.155   9.658   3.408  0.6015 -3.4364  0.5484
  688MOL0     H92869  -0.086   9.732   3.325  1.2053  1.5126  1.0227
  688MOL0     H92870  -0.359   9.980   3.470  2.4661  2.5877 -1.7301
  688MOL0     H92871  -0.225   9.936   3.379  0.3482 -1.7086  0.5472
  688MOL0     H92872  -0.500   9.795   3.360 -1.3328  3.3999  0.9418
  688MOL0     H92873  -0.367   9.761   3.253 -2.7109  0.0806 -3.2593
  688MOL0     H92874  -0.384   9.962   3.138  0.4238 -2.3972 -0.0548
  688MOL0     H92875  -0.485  10.044   3.263  2.2445  0.9076  0.3510
  688MOL0     H92876  -0.624  10.017   3.086 -2.0317 -1.4091 -0.8259
  688MOL0     H92877  -0.672   9.898   3.198  1.5920 -0.0904  1.5642
  688MOL0     H92878  -0.566   9.664   2.863 -1.8431  0.4433 -2.1444
  688MOL0     H92879  -0.215   9.684   3.724 -0.3556 -1.8831 -1.4910
  688MOL0     H92880   0.004   9.616   3.795 -1.0753  2.7442  0.9126
  689MOL0     O92881   8.822   8.313   2.167 -0.0504 -0.3289 -0.1327
  689MOL0     C92882   8.784   8.322   2.052 -0.1106  0.3085  0.5902
  689MOL0     O92883   8.680   8.256   1.992 -0.1164 -0.0858 -0.0144
  689MOL0     C92884   8.599   8.169   2.051  0.4707  0.7641 -0.2345
  689MOL0     C92885   8.474   8.164   1.993  0.1703 -1.0104  0.2780
  689MOL0     C92886   8.371   8.087   2.046  0.2476 -0.1264  0.6531
  689MOL0     C92887   8.394   7.991   2.142 -0.2829  0.8070  0.3433
  689MOL0     O92888   8.288   7.913   2.185  0.2971  0.0148 -0.2737
  689MOL0     C92889   8.272   7.781   2.128 -0.4662 -0.0386  0.1345
  689MOL0     C92890   8.133   7.721   2.126 -0.6601  0.5100 -0.2927
  689MOL0     C92891   8.048   7.818   2.032 -0.0690 -0.0071 -0.5424
  689MOL0     C92892   7.907   7.788   2.013  0.8275  0.1070  0.8902
  689MOL0     C92893   7.827   7.798   2.138  0.1306 -0.0797 -0.2328
  689MOL0     C92894   7.683   7.755   2.116  0.5188  0.0892 -1.3333
  689MOL0     C92895   7.620   7.716   2.260  0.1001  0.2400  0.3536
  689MOL0     C92896   7.563   7.573   2.237  0.3086 -0.6126  0.5313
  689MOL0     N92897   7.459   7.552   2.142 -0.5701 -0.3383  0.4916
  689MOL0     C92898   7.431   7.424   2.092  0.2250  0.2183 -0.0286
  689MOL0     C92899   7.340   7.450   2.003  0.7553 -0.5653  0.1137
  689MOL0     C92900   7.269   7.345   1.920  0.3356  0.7221  1.2316
  689MOL0     C92901   7.138   7.401   1.865 -0.1766  0.3870 -0.3599
  689MOL0     C92902   7.032   7.420   1.982 -0.4848 -0.2859  0.1770
  689MOL0     C92903   6.989   7.289   2.049  0.5876  0.8866 -0.0701
  689MOL0     O92904   6.909   7.210   1.958 -0.3753 -0.3536  0.1113
  689MOL0     C92905   6.879   7.085   1.998  0.1840 -0.1097  1.4271
  689MOL0     C92906   6.844   7.038   2.128 -0.1742 -1.0305 -0.8033
  689MOL0     C92907   6.804   6.918   2.164 -1.2243  1.1565 -0.7033
  689MOL0     C92908   6.779   6.884   2.310 -0.0248  0.3868  0.6482
  689MOL0     C92909   6.818   6.816   2.061  0.1929 -0.1077 -0.0754
  689MOL0     C92910   6.807   6.669   2.084  0.1201  0.6450 -0.3939
  689MOL0     O92911   6.875   6.588   1.998 -0.6695 -0.0196 -0.3169
  689MOL0     C92912   6.833   6.452   1.988 -0.1415 -0.2684 -0.2738
  689MOL0     C92913   6.704   6.402   2.003  1.6768  0.1040  0.0081
  689MOL0     C92914   6.661   6.269   1.987 -0.5236  0.6156  0.3235
  689MOL0     C92915   6.770   6.174   1.950  0.3877  0.1106  1.2914
  689MOL0     O92916   6.742   6.045   1.921  0.6592  0.0831 -0.1442
  689MOL0     C92917   6.649   6.031   1.816  0.7190  0.7785  0.5015
  689MOL0     C92918   6.591   5.884   1.822 -0.2936  0.1721  0.6644
  689MOL0     C92919   6.512   5.848   1.694  0.6045  0.8095 -0.4839
  689MOL0     C92920   6.599   5.802   1.562  0.0711  0.0830 -0.6211
  689MOL0     C92921   6.504   5.771   1.442  0.0705  1.3172  0.1725
  689MOL0     C92922   6.450   5.903   1.381  0.1780 -0.1988  0.0760
  689MOL0     C92923   6.410   5.886   1.227  1.1101 -0.2373  0.6941
  689MOL0     C92924   6.369   6.021   1.166 -0.1741 -0.0760  0.0437
  689MOL0    Cl92925   6.240   6.110   1.264 -0.0346  0.0863  0.2234
  689MOL0     C92926   6.901   6.223   1.929 -0.4599 -0.1757  0.7958
  689MOL0     C92927   6.932   6.356   1.958  0.5258 -0.7421 -0.5606
  689MOL0     O92928   6.738   6.628   2.182 -0.5530  0.0908 -0.4313
  689MOL0     C92929   6.852   6.849   1.925  0.0606 -0.8349  0.2134
  689MOL0     C92930   6.889   6.983   1.896 -0.1119 -0.6387 -0.5030
  689MOL0     N92931   7.321   7.589   1.984  0.1135 -0.5163 -0.7134
  689MOL0     N92932   7.389   7.646   2.075 -0.3193 -0.0208 -0.1840
  689MOL0     C92933   8.522   7.987   2.199 -0.7190 -0.3035 -0.2384
  689MOL0     C92934   8.621   8.080   2.155  0.1775 -0.3372 -0.3553
  689MOL0     C92935   8.842   8.429   1.968  0.3961 -0.7489  0.6627
  689MOL0     C92936   8.940   8.513   2.020  0.5067 -0.3858  0.0256
  689MOL0     C92937   8.994   8.614   1.936 -0.1584  0.2427 -1.1737
  689MOL0     C92938   8.961   8.635   1.801 -0.3325  0.1187 -0.1748
  689MOL0     O92939   9.008   8.734   1.720  0.7843 -0.4134  0.9041
  689MOL0     C92940   9.125   8.814   1.751 -0.0422  0.5343 -0.3466
  689MOL0     C92941   9.116   8.963   1.696  0.0269  0.1538 -1.1013
  689MOL0     C92942   9.022   9.047   1.777  0.3027  0.3973  0.9309
  689MOL0     C92943   9.015   9.194   1.743  0.3411 -0.6566 -0.8387
  689MOL0     C92944   9.150   9.253   1.767  0.1132  0.1978  0.2584
  689MOL0     C92945   9.254   9.314   1.797  0.0693  0.1801  0.0422
  689MOL0     C92946   8.853   8.548   1.758  0.5346 -0.7296  0.9247
  689MOL0     C92947   8.787   8.460   1.840  0.2287 -0.0770  0.4062
  689MOL0     H92948   8.462   8.228   1.907  1.7475 -0.8166  0.1841
  689MOL0     H92949   8.294   8.073   1.971  5.6923 -0.9376 -5.7747
  689MOL0     H92950   8.305   7.779   2.024  1.2841  1.8129  0.5682
  689MOL0     H92951   8.334   7.714   2.188 -2.1909 -1.7524  0.0688
  689MOL0     H92952   8.120   7.616   2.099 -1.4826  0.1432  1.3908
  689MOL0     H92953   8.088   7.728   2.226  1.5891 -0.4479  0.8574
  689MOL0     H92954   8.051   7.912   2.086 -2.2763 -0.8114  1.1221
  689MOL0     H92955   8.104   7.823   1.938  4.9987  0.5050  2.1577
  689MOL0     H92956   7.862   7.863   1.948 -0.6648 -2.9558 -1.9065
  689MOL0     H92957   7.904   7.689   1.966 -0.4240 -1.3037  3.6686
  689MOL0     H92958   7.867   7.717   2.200 -4.9934 -1.4371  1.7774
  689MOL0     H92959   7.846   7.894   2.188  2.7206 -0.1716 -0.8714
  689MOL0     H92960   7.620   7.834   2.073 -0.6703 -0.1076 -0.0131
  689MOL0     H92961   7.675   7.670   2.047  0.1757 -0.2297 -0.9040
  689MOL0     H92962   7.694   7.707   2.339  0.7958 -1.2928 -0.4259
  689MOL0     H92963   7.531   7.767   2.297 -0.1552  0.5490 -0.6391
  689MOL0     H92964   7.537   7.527   2.333  0.4419 -1.0393  0.3688
  689MOL0     H92965   7.643   7.506   2.203 -0.3536 -0.4084 -1.5519
  689MOL0     H92966   7.472   7.330   2.127  3.1878  0.8513 -1.4541
  689MOL0     H92967   7.312   7.316   1.824 -1.3045  1.0305  0.3669
  689MOL0     H92968   7.259   7.246   1.965 -0.8627  0.7162  0.9980
  689MOL0     H92969   7.096   7.333   1.791 -0.4894 -1.0969  1.1189
  689MOL0     H92970   7.154   7.500   1.820  2.0438  0.7356  1.0743
  689MOL0     H92971   6.947   7.471   1.935 -3.1823 -3.0661  1.6968
  689MOL0     H92972   7.077   7.498   2.044 -0.1546  0.2405 -0.6995
  689MOL0     H92973   6.934   7.307   2.142  1.3842 -0.6963  0.7400
  689MOL0     H92974   7.080   7.237   2.078 -0.6405 -0.4436  1.5670
  689MOL0     H92975   6.860   7.113   2.204  1.1758  1.6189 -3.4867
  689MOL0     H92976   6.766   6.973   2.371 -0.0655  2.0675 -1.6861
  689MOL0     H92977   6.685   6.829   2.322 -0.0234  0.3275  0.4100
  689MOL0     H92978   6.851   6.813   2.352 -0.7997 -0.7365  0.1571
  689MOL0     H92979   6.624   6.467   2.037  0.6708 -2.1252  2.1319
  689MOL0     H92980   6.566   6.223   2.010  0.2689 -0.3795  1.7487
  689MOL0     H92981   6.566   6.102   1.811  0.9202  0.9782 -0.0102
  689MOL0     H92982   6.703   6.053   1.724  1.1177  0.8729  0.7575
  689MOL0     H92983   6.676   5.816   1.826  1.4590  2.2209 -0.0239
  689MOL0     H92984   6.518   5.883   1.904 -1.8710  1.0029 -0.6821
  689MOL0     H92985   6.465   5.940   1.660 -1.8919  1.4061  3.8342
  689MOL0     H92986   6.434   5.775   1.718  3.7437 -2.1363  1.8257
  689MOL0     H92987   6.667   5.885   1.539 -0.7313  0.8612 -0.2036
  689MOL0     H92988   6.655   5.713   1.592  2.7751  1.4349 -1.3113
  689MOL0     H92989   6.418   5.718   1.484 -0.4079  2.4511  0.6565
  689MOL0     H92990   6.571   5.715   1.375 -1.4048 -0.7283  0.3016
  689MOL0     H92991   6.367   5.945   1.438 -0.0931 -1.4386  0.6097
  689MOL0     H92992   6.534   5.973   1.382 -0.0491  0.2368 -2.7060
  689MOL0     H92993   6.322   5.820   1.228 -0.2087  1.4538  1.3332
  689MOL0     H92994   6.491   5.844   1.168  2.5340 -0.2813  2.5778
  689MOL0     H92995   6.331   6.008   1.065  0.4131 -3.0945  0.0981
  689MOL0     H92996   6.452   6.092   1.168  0.2384 -0.5555  0.8789
  689MOL0     H92997   6.984   6.159   1.905 -0.3693  0.7270 -1.5016
  689MOL0     H92998   7.036   6.380   1.937  0.4650  1.4820  1.3080
  689MOL0     H92999   6.870   6.774   1.849 -2.1422 -0.8583 -0.3367
  689MOL0     H93000   6.934   7.007   1.800  0.8973 -0.2554  0.0487
  689MOL0     H93001   8.537   7.918   2.281  0.5945  1.1303  0.7964
  689MOL0     H93002   8.714   8.088   2.211 -1.1266 -2.6150  2.3673
  689MOL0     H93003   8.968   8.497   2.124  2.5396  1.1573 -0.2370
  689MOL0     H93004   9.067   8.676   1.987 -2.0578  1.2620  0.4607
  689MOL0     H93005   9.152   8.823   1.856  3.5339 -0.5824 -1.0572
  689MOL0     H93006   9.217   8.766   1.718  1.3559  3.6091 -1.2799
  689MOL0     H93007   9.089   8.969   1.590 -0.2583 -0.8435 -1.0955
  689MOL0     H93008   9.216   9.004   1.710 -0.2174  0.5529 -0.4565
  689MOL0     H93009   9.039   9.029   1.884 -1.3962 -3.7032  0.6679
  689MOL0     H93010   8.928   9.000   1.748  0.9121  0.2785 -0.9769
  689MOL0     H93011   8.942   9.239   1.812 -0.5030 -3.3860  0.1563
  689MOL0     H93012   8.984   9.211   1.640 -1.4847 -3.7831 -0.9033
  689MOL0     H93013   9.334   9.373   1.836 -2.7846  1.9602  3.8286
  689MOL0     H93014   8.826   8.563   1.654 -1.5976  0.3768  1.5866
  689MOL0     H93015   8.697   8.420   1.795 -1.8129  1.7779  2.6539
  690MOL0     O93016   3.792   5.505   0.499 -0.2155  0.7137  0.2184
  690MOL0     C93017   3.686   5.457   0.454 -0.7782  0.3632 -0.6120
  690MOL0     O93018   3.616   5.338   0.506  0.3195 -0.7314  0.0041
  690MOL0     C93019   3.653   5.287   0.632  0.0943  0.2915  0.7128
  690MOL0     C93020   3.643   5.150   0.637  0.2360  0.7161  0.9118
  690MOL0     C93021   3.687   5.073   0.748 -0.4039 -0.1707 -0.1340
  690MOL0     C93022   3.738   5.151   0.861 -0.5749  0.2047  0.3235
  690MOL0     O93023   3.782   5.090   0.978 -0.3331 -0.5002 -0.3336
  690MOL0     C93024   3.867   4.971   0.960  1.1103  1.1915  0.5268
  690MOL0     C93025   3.887   4.906   1.096 -0.6032 -0.7214 -0.1113
  690MOL0     C93026   3.753   4.865   1.146 -0.2328  0.6735 -0.2349
  690MOL0     C93027   3.765   4.748   1.245  0.2219 -0.7972  0.9699
  690MOL0     C93028   3.621   4.690   1.269 -0.6547 -1.0858 -0.5351
  690MOL0     C93029   3.501   4.767   1.338 -0.3039 -0.1067 -0.1824
  690MOL0     C93030   3.526   4.810   1.479  0.1699 -0.3673  0.0186
  690MOL0     C93031   3.507   4.694   1.582 -0.0680  0.4200 -0.1286
  690MOL0     N93032   3.360   4.682   1.601  0.0236 -0.9823 -0.1396
  690MOL0     C93033   3.266   4.590   1.550 -0.6997 -0.6916  0.3812
  690MOL0     C93034   3.150   4.613   1.613  0.0743  0.2760  1.2418
  690MOL0     C93035   3.026   4.543   1.608  0.7950  1.1946 -0.1090
  690MOL0     C93036   3.031   4.390   1.585  0.7313  0.0713 -0.5318
  690MOL0     C93037   2.900   4.325   1.619 -0.0010 -0.0786 -0.1063
  690MOL0     C93038   2.792   4.382   1.537  0.3319  0.7841  0.8405
  690MOL0     O93039   2.813   4.348   1.400 -1.5115  0.4162  0.3639
  690MOL0     C93040   2.705   4.313   1.336  0.5337 -0.4830 -0.1079
  690MOL0     C93041   2.601   4.400   1.311 -0.2321 -0.0041  0.0002
  690MOL0     C93042   2.489   4.344   1.255 -0.3016  0.3531  1.8721
  690MOL0     C93043   2.376   4.439   1.215 -0.1132 -0.1558 -0.4311
  690MOL0     C93044   2.480   4.201   1.226 -0.6578  0.1112  0.1349
  690MOL0     C93045   2.365   4.134   1.183  0.3731 -0.5760 -0.5057
  690MOL0     O93046   2.380   4.035   1.098  0.5546 -0.7186 -0.3193
  690MOL0     C93047   2.289   4.015   0.994  0.2507 -0.2137 -0.6828
  690MOL0     C93048   2.263   4.117   0.907 -0.3228 -0.1537  0.1720
  690MOL0     C93049   2.193   4.087   0.785  0.4376 -0.0896  0.7639
  690MOL0     C93050   2.126   3.966   0.765 -1.4314  0.0645  0.3553
  690MOL0     O93051   2.064   3.944   0.642  0.7410 -0.0056  0.7033
  690MOL0     C93052   1.923   3.980   0.626 -0.5237 -0.3493 -0.4625
  690MOL0     C93053   1.832   3.876   0.676  0.2397 -0.1211  0.2208
  690MOL0     C93054   1.869   3.735   0.628 -0.4799  0.9175  0.4447
  690MOL0     C93055   1.767   3.639   0.692 -0.1797  0.1672 -0.0629
  690MOL0     C93056   1.621   3.671   0.656 -0.2121  0.4220 -0.4815
  690MOL0     C93057   1.512   3.569   0.690 -0.2968 -0.8755 -0.7895
  690MOL0     C93058   1.402   3.564   0.589  0.1538  0.9982  0.4409
  690MOL0     C93059   1.330   3.690   0.568 -0.2554  0.4242 -0.7127
  690MOL0    Cl93060   1.161   3.667   0.522  0.3589 -0.2537  0.1917
  690MOL0     C93061   2.147   3.868   0.860  0.8574  1.0745  0.3361
  690MOL0     C93062   2.230   3.891   0.974 -0.3736  0.1050  0.9257
  690MOL0     O93063   2.254   4.174   1.216 -0.2411  0.7003 -0.1434
  690MOL0     C93064   2.592   4.129   1.244  0.3760 -0.0323  1.2919
  690MOL0     C93065   2.704   4.184   1.302  0.6277  1.5599  0.2525
  690MOL0     N93066   3.171   4.722   1.691  0.0505  0.0438 -0.2593
  690MOL0     N93067   3.285   4.774   1.684 -0.6905  0.7211  0.7017
  690MOL0     C93068   3.740   5.290   0.854  0.8854  0.0415  0.0351
  690MOL0     C93069   3.702   5.355   0.738 -0.3441  0.0589  0.0889
  690MOL0     C93070   3.622   5.529   0.338 -0.9435  0.5396 -0.4278
  690MOL0     C93071   3.486   5.504   0.320  1.1194  0.6593  0.2889
  690MOL0     C93072   3.412   5.586   0.224 -0.7248  0.2254 -0.0532
  690MOL0     C93073   3.479   5.695   0.164 -0.0606 -0.5628 -0.5775
  690MOL0     O93074   3.399   5.766   0.084 -0.0154 -0.7355 -0.0762
  690MOL0     C93075   3.453   5.862  -0.004  1.1677  0.8132 -0.5523
  690MOL0     C93076   3.518   5.803  -0.127 -0.2345 -0.0671  0.3698
  690MOL0     C93077   3.599   5.912  -0.202  0.2681 -0.3313 -0.3270
  690MOL0     C93078   3.657   5.873  -0.337 -0.9716  0.0708 -0.2378
  690MOL0     C93079   3.702   5.731  -0.346 -0.1511  0.0284  0.8583
  690MOL0     C93080   3.753   5.614  -0.363  0.4248  0.6006  0.4525
  690MOL0     C93081   3.621   5.716   0.178 -0.2768  0.5204 -0.3261
  690MOL0     C93082   3.691   5.628   0.266  0.6904  0.4893  0.8665
  690MOL0     H93083   3.601   5.091   0.557 -2.0668  1.6529  1.3647
  690MOL0     H93084   3.671   4.966   0.752  2.3788 -0.6247  0.4368
  690MOL0     H93085   3.815   4.895   0.901 -1.0233  2.3191  0.8485
  690MOL0     H93086   3.960   4.991   0.906  1.2471  1.8330  0.9785
  690MOL0     H93087   3.959   4.823   1.097 -0.3911 -0.6358  3.5340
  690MOL0     H93088   3.944   4.973   1.161 -1.0516  0.0599 -0.5114
  690MOL0     H93089   3.708   4.949   1.200  0.3783  0.7263  0.2052
  690MOL0     H93090   3.696   4.836   1.058  1.3677  0.2042 -1.1650
  690MOL0     H93091   3.819   4.659   1.212  0.1103 -0.7845  0.7544
  690MOL0     H93092   3.809   4.794   1.334  0.3668 -2.3702  1.7568
  690MOL0     H93093   3.594   4.653   1.169  1.2987 -4.2338 -0.0475
  690MOL0     H93094   3.640   4.605   1.336 -0.8189 -1.9852 -1.5927
  690MOL0     H93095   3.489   4.856   1.276 -1.2958 -0.0567  0.0596
  690MOL0     H93096   3.408   4.711   1.323 -0.1920 -0.8847  1.7306
  690MOL0     H93097   3.629   4.846   1.484 -0.8666  2.8963 -0.1184
  690MOL0     H93098   3.466   4.898   1.502  1.7493  1.0155 -0.9047
  690MOL0     H93099   3.556   4.715   1.678  2.4001  0.9894 -1.4204
  690MOL0     H93100   3.540   4.605   1.527 -2.0418 -1.1575  1.1116
  690MOL0     H93101   3.280   4.514   1.474 -1.7721 -4.7707  3.8518
  690MOL0     H93102   2.983   4.570   1.705 -1.1025 -0.1077 -0.5421
  690MOL0     H93103   2.969   4.590   1.527 -2.4584 -0.2910  1.1635
  690MOL0     H93104   3.113   4.344   1.642  0.6894 -0.3736 -0.8190
  690MOL0     H93105   3.051   4.365   1.480  0.1147 -1.5396 -0.2935
  690MOL0     H93106   2.882   4.331   1.727  3.9220  0.3640  0.6848
  690MOL0     H93107   2.906   4.220   1.588  0.0725 -0.0022 -0.3500
  690MOL0     H93108   2.790   4.491   1.535  3.1631  0.9029 -1.4675
  690MOL0     H93109   2.697   4.335   1.562  0.2914 -1.3684 -2.7718
  690MOL0     H93110   2.610   4.507   1.324 -0.6159  0.2043 -1.2760
  690MOL0     H93111   2.333   4.431   1.115 -3.5379  2.7791  0.5660
  690MOL0     H93112   2.294   4.428   1.287  0.0437 -0.9514 -0.3645
  690MOL0     H93113   2.420   4.539   1.224 -0.0434 -0.2310  0.1088
  690MOL0     H93114   2.318   4.209   0.922 -0.8676  0.1919  0.1051
  690MOL0     H93115   2.177   4.168   0.714  1.4225  1.0356  1.7672
  690MOL0     H93116   1.915   4.075   0.679  0.9673  0.9770 -2.4641
  690MOL0     H93117   1.904   3.999   0.520 -1.8052  1.4174  0.0414
  690MOL0     H93118   1.808   3.882   0.782  3.4364 -0.9251  1.1134
  690MOL0     H93119   1.743   3.907   0.620  0.2561  0.6315  0.6035
  690MOL0     H93120   1.964   3.717   0.678  0.0259 -0.3251 -0.8720
  690MOL0     H93121   1.888   3.715   0.522 -2.7596 -0.3030  0.1899
  690MOL0     H93122   1.787   3.539   0.651  0.9744  0.5822 -0.5686
  690MOL0     H93123   1.780   3.630   0.801  4.9988  1.2947 -0.3011
  690MOL0     H93124   1.617   3.678   0.546  0.6289  0.7713 -0.5002
  690MOL0     H93125   1.595   3.767   0.699 -1.6344 -0.5145  0.8307
  690MOL0     H93126   1.557   3.469   0.685 -1.0219 -1.2112 -0.7817
  690MOL0     H93127   1.471   3.594   0.789  2.7804 -0.7820  0.5691
  690MOL0     H93128   1.319   3.497   0.614 -0.2768  0.8661 -1.2056
  690MOL0     H93129   1.436   3.534   0.489 -3.4040 -0.8542 -0.3845
  690MOL0     H93130   1.383   3.759   0.502 -1.0133  1.6315 -0.0962
  690MOL0     H93131   1.319   3.742   0.664 -0.1714  1.9145 -1.4812
  690MOL0     H93132   2.113   3.766   0.847  3.0662 -0.1568  3.1177
  690MOL0     H93133   2.258   3.819   1.050 -0.8982 -0.7377  0.3449
  690MOL0     H93134   2.591   4.022   1.224 -1.8289  0.1223  0.2807
  690MOL0     H93135   2.787   4.117   1.319 -1.0348 -0.9837 -1.1138
  690MOL0     H93136   3.763   5.349   0.941  0.1273  2.6954 -1.4573
  690MOL0     H93137   3.701   5.463   0.723  1.3824 -0.3644 -5.0473
  690MOL0     H93138   3.441   5.426   0.380  2.2631 -1.0512 -0.9919
  690MOL0     H93139   3.306   5.575   0.201 -0.2708 -0.8748 -1.8061
  690MOL0     H93140   3.366   5.917  -0.041  2.2501 -0.4402 -5.6040
  690MOL0     H93141   3.523   5.923   0.055 -1.0957  0.6385  2.5882
  690MOL0     H93142   3.439   5.772  -0.196  1.1357 -0.7511 -0.9609
  690MOL0     H93143   3.587   5.718  -0.124  0.9586  0.8496 -0.2844
  690MOL0     H93144   3.689   5.936  -0.144  1.1416  0.3158 -1.8986
  690MOL0     H93145   3.547   6.008  -0.207  1.2664  0.2110 -0.6224
  690MOL0     H93146   3.725   5.952  -0.369 -1.7065  0.2407 -1.4115
  690MOL0     H93147   3.566   5.872  -0.397 -1.9818  1.0381  1.2097
  690MOL0     H93148   3.793   5.515  -0.356 -1.2741 -0.0971  0.6832
  690MOL0     H93149   3.683   5.793   0.133  4.6645 -2.1802  1.0797
  690MOL0     H93150   3.792   5.659   0.293 -0.6029  3.0512  3.2418
  691MOL0     O93151   5.192   1.561   6.521 -0.0809  1.1343 -0.7726
  691MOL0     C93152   5.294   1.609   6.562 -0.8789  0.9814 -0.9438
  691MOL0     O93153   5.423   1.584   6.515  0.1757  0.4017 -0.0004
  691MOL0     C93154   5.458   1.481   6.427  0.5497 -0.8671 -0.3936
  691MOL0     C93155   5.590   1.431   6.437 -0.2146  0.4244  0.0171
  691MOL0     C93156   5.638   1.350   6.332 -0.0708  1.1146  0.1656
  691MOL0     C93157   5.567   1.315   6.221 -1.0539 -0.1441  0.1248
  691MOL0     O93158   5.624   1.246   6.117  0.1020 -0.0184  0.1915
  691MOL0     C93159   5.762   1.207   6.092 -0.1727 -0.4146 -0.8015
  691MOL0     C93160   5.816   1.300   5.990  0.7991 -0.3842  0.3151
  691MOL0     C93161   5.962   1.270   5.970 -0.0470  1.0309  0.3302
  691MOL0     C93162   5.985   1.297   5.830 -0.9695  0.2037  0.5853
  691MOL0     C93163   6.124   1.252   5.788 -0.4537  0.1294  0.2997
  691MOL0     C93164   6.140   1.244   5.640  0.5563 -0.7465 -0.2550
  691MOL0     C93165   6.229   1.365   5.585  0.2752 -0.7075 -0.4008
  691MOL0     C93166   6.292   1.315   5.460  0.2009 -0.2016  0.9619
  691MOL0     N93167   6.354   1.405   5.365  0.1081  0.4056 -0.7638
  691MOL0     C93168   6.405   1.527   5.401  1.0481 -0.6887  0.5125
  691MOL0     C93169   6.483   1.548   5.295 -0.9205  0.8317  0.2741
  691MOL0     C93170   6.567   1.672   5.265 -0.1436 -0.5843  0.0308
  691MOL0     C93171   6.469   1.773   5.217 -0.8481  0.4336 -0.5445
  691MOL0     C93172   6.547   1.882   5.137 -0.0988  0.7090 -0.3271
  691MOL0     C93173   6.442   1.982   5.089  0.4338  0.3098 -0.0098
  691MOL0     O93174   6.501   2.093   5.023  0.7023  0.1671 -0.1270
  691MOL0     C93175   6.571   2.180   5.107 -0.2055  0.0386  0.3147
  691MOL0     C93176   6.512   2.264   5.193 -0.5135  0.3792 -0.5432
  691MOL0     C93177   6.588   2.356   5.276  0.6473 -1.3256 -0.0403
  691MOL0     C93178   6.510   2.462   5.344  0.1199 -0.3379 -0.2352
  691MOL0     C93179   6.735   2.344   5.275  1.0552  0.3293  0.9939
  691MOL0     C93180   6.829   2.420   5.367 -0.3147  0.2496 -0.4276
  691MOL0     O93181   6.783   2.480   5.473 -0.2526  1.1317  0.3452
  691MOL0     C93182   6.882   2.517   5.560  1.0509  0.6599  1.0434
  691MOL0     C93183   6.895   2.654   5.583 -0.3918 -0.2548  0.6899
  691MOL0     C93184   6.995   2.698   5.671 -0.8050 -0.1349 -0.5374
  691MOL0     C93185   7.072   2.616   5.749 -0.4572  0.2528  0.1515
  691MOL0     O93186   7.156   2.645   5.853 -0.5434 -0.0718  0.1235
  691MOL0     C93187   7.148   2.769   5.922  0.2568  0.3020  0.4850
  691MOL0     C93188   7.280   2.840   5.892  0.2483 -0.7274 -0.5755
  691MOL0     C93189   7.304   2.961   5.984 -0.0585 -0.2010 -0.1598
  691MOL0     C93190   7.462   2.989   6.012 -0.4131  0.2431  0.0823
  691MOL0     C93191   7.472   3.082   6.138  0.5897  0.6094 -0.0794
  691MOL0     C93192   7.464   3.236   6.119 -0.4339 -0.6774 -0.2382
  691MOL0     C93193   7.439   3.301   6.259 -0.2527 -0.8064  0.8474
  691MOL0     C93194   7.544   3.288   6.358  0.9214  0.2774  1.2040
  691MOL0    Cl93195   7.527   3.428   6.474 -0.0733  0.0993  0.1210
  691MOL0     C93196   7.062   2.475   5.720 -0.5850  0.4452 -0.9783
  691MOL0     C93197   6.966   2.426   5.629 -0.0169  0.7417  0.5791
  691MOL0     O93198   6.946   2.430   5.319  0.0720  0.1297 -0.2456
  691MOL0     C93199   6.786   2.252   5.184 -0.9471  0.0379 -0.3837
  691MOL0     C93200   6.706   2.177   5.095  0.0093 -0.4845  0.6700
  691MOL0     N93201   6.489   1.437   5.209  0.2378  0.2563 -0.3425
  691MOL0     N93202   6.395   1.351   5.248  0.2970 -0.5294 -1.3567
  691MOL0     C93203   5.438   1.362   6.210 -0.1090 -0.0886 -0.3508
  691MOL0     C93204   5.389   1.442   6.312  0.3995  0.4538 -0.1626
  691MOL0     C93205   5.281   1.703   6.675 -0.0103  1.0909  0.1563
  691MOL0     C93206   5.388   1.772   6.726  0.6280  0.0153 -0.2894
  691MOL0     C93207   5.376   1.868   6.821 -0.0652 -0.6989 -0.8502
  691MOL0     C93208   5.251   1.907   6.872 -0.9397  0.1927 -0.6871
  691MOL0     O93209   5.262   2.016   6.955  0.5597 -0.2033  0.3391
  691MOL0     C93210   5.190   2.003   7.080 -0.5293 -0.5942 -0.4899
  691MOL0     C93211   5.235   2.106   7.188 -0.6360 -0.8658 -0.4256
  691MOL0     C93212   5.391   2.103   7.197 -0.8873  0.5714  0.6464
  691MOL0     C93213   5.472   2.195   7.108 -0.3161  0.3500  0.3817
  691MOL0     C93214   5.429   2.332   7.139  0.0970  0.1109 -1.2888
  691MOL0     C93215   5.402   2.452   7.151  0.1793  0.5944 -0.3300
  691MOL0     C93216   5.145   1.843   6.821  1.2079 -0.5815  0.5222
  691MOL0     C93217   5.158   1.738   6.735 -0.3112  0.8693  0.1448
  691MOL0     H93218   5.628   1.480   6.526 -1.6683  1.8833 -0.1249
  691MOL0     H93219   5.742   1.321   6.333 -0.4626 -0.4532 -0.6665
  691MOL0     H93220   5.825   1.214   6.182 -1.2087  5.3078 -0.1053
  691MOL0     H93221   5.767   1.104   6.057  0.1273 -0.4595 -0.6343
  691MOL0     H93222   5.754   1.273   5.904  0.9139  1.5452 -0.4128
  691MOL0     H93223   5.793   1.401   6.024 -0.0347  0.2428 -1.9111
  691MOL0     H93224   6.027   1.319   6.043  1.6653 -2.8704  1.6978
  691MOL0     H93225   5.986   1.164   5.974 -2.3574  0.4778  0.5089
  691MOL0     H93226   5.910   1.251   5.765  1.8339 -0.7446 -2.2445
  691MOL0     H93227   5.957   1.402   5.818 -2.2941 -0.1543  0.3256
  691MOL0     H93228   6.195   1.314   5.843 -2.5274 -0.7043  4.2778
  691MOL0     H93229   6.140   1.154   5.833  0.1561 -0.1907 -0.5793
  691MOL0     H93230   6.201   1.156   5.620 -2.4761 -2.7123 -1.5543
  691MOL0     H93231   6.048   1.244   5.581  1.1774  0.5486 -1.2951
  691MOL0     H93232   6.170   1.457   5.576  1.6232  0.4997  2.0974
  691MOL0     H93233   6.307   1.387   5.658  0.2553 -2.9042  0.3689
  691MOL0     H93234   6.212   1.262   5.406  0.9104 -0.6626  0.3355
  691MOL0     H93235   6.373   1.245   5.484  1.2034  0.6620  0.1510
  691MOL0     H93236   6.393   1.592   5.487  0.4503 -0.3124  0.1569
  691MOL0     H93237   6.624   1.704   5.353  1.8267 -0.7929 -1.1050
  691MOL0     H93238   6.638   1.639   5.189 -1.6938 -2.2499 -0.7644
  691MOL0     H93239   6.410   1.809   5.302 -2.2691 -1.4124 -0.6956
  691MOL0     H93240   6.398   1.721   5.152 -3.2418  1.9827  0.6657
  691MOL0     H93241   6.591   1.831   5.051 -0.3507 -0.9453  0.4941
  691MOL0     H93242   6.619   1.937   5.198 -1.5986  1.1445  1.1154
  691MOL0     H93243   6.371   2.025   5.160  0.1190  2.6426 -1.6121
  691MOL0     H93244   6.376   1.934   5.017  1.2613 -0.8893  0.0146
  691MOL0     H93245   6.404   2.266   5.196 -0.5483 -1.0221 -0.0990
  691MOL0     H93246   6.477   2.426   5.442 -1.0765  3.0308  0.7157
  691MOL0     H93247   6.575   2.544   5.374  0.7476 -2.3022  4.7312
  691MOL0     H93248   6.422   2.492   5.286 -1.4582 -2.1588  1.0843
  691MOL0     H93249   6.837   2.716   5.516 -1.4936 -0.8376  1.0833
  691MOL0     H93250   7.013   2.804   5.684 -0.3445  0.2264 -3.3008
  691MOL0     H93251   7.058   2.829   5.902 -0.3253 -0.7562 -0.1688
  691MOL0     H93252   7.141   2.752   6.030  3.0017 -2.9935  0.3040
  691MOL0     H93253   7.352   2.768   5.933 -0.9744 -1.1354  0.9873
  691MOL0     H93254   7.288   2.872   5.788  1.2707  3.2404  0.5562
  691MOL0     H93255   7.244   2.944   6.074  2.7060  0.3943  1.9337
  691MOL0     H93256   7.262   3.049   5.935  1.7338 -0.1205 -1.6535
  691MOL0     H93257   7.514   2.893   6.022  0.6053  0.9824  2.7289
  691MOL0     H93258   7.511   3.039   5.928  1.9422  1.1846  1.9040
  691MOL0     H93259   7.568   3.065   6.185  2.1889  3.2203 -2.0987
  691MOL0     H93260   7.392   3.039   6.200  0.4807  2.3845  1.0824
  691MOL0     H93261   7.561   3.261   6.075 -0.3661 -0.2466  0.1485
  691MOL0     H93262   7.382   3.252   6.049 -0.5015 -4.6218 -1.2948
  691MOL0     H93263   7.339   3.275   6.295  0.7453 -1.4828  3.3774
  691MOL0     H93264   7.431   3.407   6.231 -2.7777 -1.2253 -0.3364
  691MOL0     H93265   7.642   3.295   6.310 -0.6161 -0.2463 -2.3564
  691MOL0     H93266   7.531   3.193   6.410 -1.1881  1.2938  2.6867
  691MOL0     H93267   7.132   2.409   5.770  1.0931  1.5799 -1.7662
  691MOL0     H93268   6.947   2.322   5.604  0.9202  1.1072 -1.8930
  691MOL0     H93269   6.893   2.234   5.177 -0.7662  1.5743 -2.4584
  691MOL0     H93270   6.759   2.108   5.030 -0.6964  1.2359 -1.9092
  691MOL0     H93271   5.375   1.326   6.130 -0.3428 -0.2082 -0.1166
  691MOL0     H93272   5.289   1.484   6.305  0.1430 -0.0861  0.1880
  691MOL0     H93273   5.486   1.748   6.686  0.6687  0.1983 -0.2999
  691MOL0     H93274   5.461   1.929   6.851  0.7577 -2.4081  0.4449
  691MOL0     H93275   5.081   2.009   7.077 -0.5976 -1.0787  0.6700
  691MOL0     H93276   5.222   1.907   7.120 -0.5649 -0.1968  0.5172
  691MOL0     H93277   5.176   2.082   7.277  0.1334  0.3727  0.4501
  691MOL0     H93278   5.204   2.207   7.159  0.2758  0.0530  1.6018
  691MOL0     H93279   5.438   2.004   7.196 -0.2814  0.8563 -0.1214
  691MOL0     H93280   5.409   2.142   7.298  1.0403 -0.2752  0.6708
  691MOL0     H93281   5.454   2.183   7.000 -2.4244 -0.6978  0.7986
  691MOL0     H93282   5.581   2.193   7.119 -0.2447  0.9115 -0.1474
  691MOL0     H93283   5.390   2.558   7.160  0.9229  0.6526  0.0687
  691MOL0     H93284   5.045   1.863   6.858 -0.7188 -2.5700 -3.0491
  691MOL0     H93285   5.074   1.683   6.693  1.7952 -0.6874 -2.3346
  692MOL0     O93286   6.014   2.127  10.226 -0.5716 -0.0680 -0.0779
  692MOL0     C93287   5.913   2.192  10.207  0.1413  0.2357  0.0670
  692MOL0     O93288   5.829   2.242  10.297 -0.5059 -0.9479 -0.7627
  692MOL0     C93289   5.865   2.230  10.435 -0.1358 -0.3417 -0.3212
  692MOL0     C93290   5.896   2.347  10.514 -0.4338  0.7642  0.8255
  692MOL0     C93291   5.937   2.332  10.646 -1.5739 -0.2245 -1.0519
  692MOL0     C93292   5.941   2.208  10.706 -0.0714  0.0618  0.0128
  692MOL0     O93293   5.998   2.206  10.830 -0.6929 -0.4248  0.0684
  692MOL0     C93294   6.037   2.076  10.877  0.2026 -1.1066  0.1880
  692MOL0     C93295   6.147   2.086  10.986  0.2934  0.0041 -0.4681
  692MOL0     C93296   6.098   2.147  11.116 -0.4665 -1.1808  0.2445
  692MOL0     C93297   6.195   2.138  11.242 -0.7658 -0.5725 -0.1127
  692MOL0     C93298   6.153   2.026  11.340 -0.3274 -0.1443 -0.6477
  692MOL0     C93299   6.146   1.883  11.275  0.2616 -0.9263 -0.3254
  692MOL0     C93300   6.118   1.763  11.367  0.6112 -0.1179 -0.6017
  692MOL0     C93301   6.065   1.643  11.284  0.3586  0.0050 -0.4374
  692MOL0     N93302   6.088   1.524  11.355  0.7500  0.8301  0.4807
  692MOL0     C93303   5.992   1.457  11.430 -0.3623  0.3430 -0.5937
  692MOL0     C93304   6.063   1.341  11.450 -0.5281  0.2660  0.2080
  692MOL0     C93305   6.003   1.215  11.514 -0.5886 -0.6641  0.1157
  692MOL0     C93306   5.964   1.108  11.409 -1.0219  0.8632 -0.0142
  692MOL0     C93307   5.840   1.136  11.317 -0.4137  0.5300 -0.3491
  692MOL0     C93308   5.849   1.227  11.190 -0.9979 -0.2820 -1.1932
  692MOL0     O93309   5.752   1.320  11.203 -0.3446  0.3926  0.1124
  692MOL0     C93310   5.754   1.433  11.119  0.4923  0.8096 -0.4252
  692MOL0     C93311   5.808   1.442  10.989 -0.1751 -0.6949 -0.1014
  692MOL0     C93312   5.800   1.563  10.917 -0.9885  0.3113 -1.1592
  692MOL0     C93313   5.843   1.553  10.778  0.1631  0.2449  0.4113
  692MOL0     C93314   5.738   1.676  10.974 -0.4566  0.4571 -0.6320
  692MOL0     C93315   5.729   1.819  10.922 -0.1945  0.1321  0.0064
  692MOL0     O93316   5.635   1.903  10.983  0.3773 -0.0929 -0.2769
  692MOL0     C93317   5.574   2.003  10.915 -0.8070  0.0909 -0.5688
  692MOL0     C93318   5.650   2.112  10.873  0.0350  0.0252  0.3517
  692MOL0     C93319   5.601   2.221  10.801  0.5324  0.7895  0.2511
  692MOL0     C93320   5.470   2.221  10.761 -0.1487 -0.5018  0.3828
  692MOL0     O93321   5.419   2.321  10.682 -0.7728 -0.9053 -0.1705
  692MOL0     C93322   5.473   2.454  10.683  0.1044 -0.3703  0.1526
  692MOL0     C93323   5.354   2.556  10.697  0.5863 -0.3427  0.3670
  692MOL0     C93324   5.291   2.553  10.835 -0.0042  0.5813  0.3653
  692MOL0     C93325   5.310   2.690  10.909  0.7046 -0.8249  0.6901
  692MOL0     C93326   5.303   2.660  11.055 -0.0285 -0.2651 -0.4246
  692MOL0     C93327   5.315   2.793  11.132  0.5149  0.7557 -0.3987
  692MOL0     C93328   5.345   2.775  11.282 -0.3018  0.1859 -0.4513
  692MOL0     C93329   5.234   2.734  11.372  0.6610  0.4170 -0.1349
  692MOL0    Cl93330   5.242   2.799  11.544 -0.1092  0.4769 -0.1971
  692MOL0     C93331   5.391   2.113  10.794 -1.3209 -0.1942 -0.2027
  692MOL0     C93332   5.445   2.005  10.862  0.0616  0.8886  0.4070
  692MOL0     O93333   5.795   1.851  10.821 -0.6381  0.3367 -1.3098
  692MOL0     C93334   5.679   1.660  11.100  0.2103  0.1827  0.0792
  692MOL0     C93335   5.709   1.547  11.178  1.0912 -0.6193 -0.1518
  692MOL0     N93336   6.191   1.342  11.391 -0.4767  0.1035 -0.3141
  692MOL0     N93337   6.201   1.459  11.339 -0.4039  0.8226 -0.4824
  692MOL0     C93338   5.907   2.089  10.626  0.4438 -1.7009 -0.1264
  692MOL0     C93339   5.865   2.105  10.490  0.0623  0.3864  0.8635
  692MOL0     C93340   5.881   2.227  10.070  0.1269 -0.1048 -0.3979
  692MOL0     C93341   5.758   2.275  10.027  0.8239 -0.0819 -0.1056
  692MOL0     C93342   5.729   2.313   9.897 -0.1850  0.3981  0.7226
  692MOL0     C93343   5.823   2.291   9.798 -0.2866 -0.3266  0.5304
  692MOL0     O93344   5.807   2.332   9.667  0.2334  0.0495 -0.1341
  692MOL0     C93345   5.694   2.407   9.645 -0.5803 -1.2083 -0.0554
  692MOL0     C93346   5.670   2.469   9.501 -0.1051 -0.5642  0.2182
  692MOL0     C93347   5.710   2.367   9.401 -0.7914  0.1552 -0.0332
  692MOL0     C93348   5.691   2.403   9.254  0.4832 -0.1261 -1.1370
  692MOL0     C93349   5.644   2.307   9.156 -0.4959  0.3476  0.5653
  692MOL0     C93350   5.612   2.210   9.084 -0.6208 -0.6883  0.3762
  692MOL0     C93351   5.945   2.246   9.840  0.1891 -0.0513 -0.1057
  692MOL0     C93352   5.982   2.205   9.972 -0.0313 -1.0746  0.0257
  692MOL0     H93353   5.897   2.443  10.465 -0.6831 -0.5337 -1.8936
  692MOL0     H93354   5.984   2.419  10.691  0.2625 -1.3761 -0.6289
  692MOL0     H93355   5.957   2.009  10.910  2.1085 -2.6423  1.9623
  692MOL0     H93356   6.081   2.024  10.792  1.4482 -2.0389  1.3405
  692MOL0     H93357   6.175   1.983  11.011 -3.2570 -1.0018 -0.1051
  692MOL0     H93358   6.235   2.134  10.943  1.1839 -1.1677 -0.0157
  692MOL0     H93359   6.109   2.254  11.093  0.8866 -1.7027 -1.8459
  692MOL0     H93360   6.000   2.103  11.138  0.3703 -2.1273  2.2781
  692MOL0     H93361   6.298   2.136  11.204 -0.7554  2.6382 -0.5340
  692MOL0     H93362   6.185   2.229  11.301  0.6719  0.1299 -0.9159
  692MOL0     H93363   6.225   2.019  11.422 -1.9199  1.8674  1.0542
  692MOL0     H93364   6.052   2.053  11.374 -0.2820  2.2856 -2.2112
  692MOL0     H93365   6.066   1.894  11.202  0.2325  1.1827 -0.0389
  692MOL0     H93366   6.229   1.863  11.207 -0.8943  1.2969 -2.5655
  692MOL0     H93367   6.205   1.738  11.429 -0.1510  0.7494  0.8785
  692MOL0     H93368   6.041   1.791  11.439 -1.9804 -0.3510 -3.0843
  692MOL0     H93369   6.118   1.640  11.189 -0.8533 -0.6039 -1.1169
  692MOL0     H93370   5.959   1.645  11.260 -0.0444  1.0314  1.2209
  692MOL0     H93371   5.895   1.487  11.466  0.4633  0.5584  1.5846
  692MOL0     H93372   6.084   1.178  11.578  0.4225 -1.5654 -1.6245
  692MOL0     H93373   5.916   1.250  11.571  0.0135  1.0029  0.0642
  692MOL0     H93374   5.938   1.018  11.466 -1.0381 -0.4453 -2.0022
  692MOL0     H93375   6.048   1.072  11.349 -0.3084  2.2462  0.1213
  692MOL0     H93376   5.752   1.151  11.380  0.7638  0.1093  1.4559
  692MOL0     H93377   5.817   1.044  11.263 -2.5622  1.3190 -0.8928
  692MOL0     H93378   5.827   1.164  11.103  0.6292 -3.5686  0.5729
  692MOL0     H93379   5.944   1.276  11.170 -2.2853  2.6035 -0.6665
  692MOL0     H93380   5.857   1.352  10.953  0.0036 -0.4827 -0.3903
  692MOL0     H93381   5.912   1.634  10.753  2.1632 -1.7720 -1.1193
  692MOL0     H93382   5.903   1.461  10.782  1.1403  0.8715  4.7710
  692MOL0     H93383   5.756   1.542  10.712 -0.8243  0.6321  1.6342
  692MOL0     H93384   5.757   2.121  10.885  0.2332  0.4601 -1.4585
  692MOL0     H93385   5.671   2.299  10.772 -0.2662  0.7439 -2.0222
  692MOL0     H93386   5.539   2.467  10.769 -0.2446  0.2351  0.3411
  692MOL0     H93387   5.529   2.483  10.594 -0.4642  2.7606  0.6696
  692MOL0     H93388   5.381   2.660  10.678  0.1547 -0.5159 -1.4373
  692MOL0     H93389   5.279   2.526  10.622  0.7666 -2.6435  1.0216
  692MOL0     H93390   5.322   2.468  10.896 -3.3886 -0.4406  0.8665
  692MOL0     H93391   5.186   2.532  10.814 -0.0329 -1.3694  2.0707
  692MOL0     H93392   5.402   2.737  10.873 -0.4775  1.3880  0.3164
  692MOL0     H93393   5.229   2.760  10.883 -3.0697 -5.6072 -2.3523
  692MOL0     H93394   5.386   2.593  11.081 -0.3775 -0.0639  1.3534
  692MOL0     H93395   5.206   2.614  11.075 -1.6091  1.9706 -2.3784
  692MOL0     H93396   5.391   2.858  11.088  0.2703  1.2132 -0.1633
  692MOL0     H93397   5.221   2.850  11.127 -0.1998 -0.2600  0.8312
  692MOL0     H93398   5.375   2.874  11.319  1.7725 -0.0072 -1.4722
  692MOL0     H93399   5.431   2.710  11.297 -0.6374  0.0874  1.2226
  692MOL0     H93400   5.223   2.626  11.386  0.2405  0.5575  0.7020
  692MOL0     H93401   5.138   2.763  11.330 -1.9949 -3.9189  2.2239
  692MOL0     H93402   5.288   2.118  10.760 -1.2151  0.5468 -0.4259
  692MOL0     H93403   5.372   1.928  10.886  0.1361 -1.1132 -4.5672
  692MOL0     H93404   5.635   1.743  11.154 -1.1768  0.4253 -1.3544
  692MOL0     H93405   5.665   1.550  11.277  0.7672  0.2197 -0.3128
  692MOL0     H93406   5.905   1.993  10.676  0.7251 -0.3397  2.7305
  692MOL0     H93407   5.820   2.022  10.436 -1.0170  0.8765  0.9802
  692MOL0     H93408   5.690   2.297  10.109  2.7085 -0.7205  1.7198
  692MOL0     H93409   5.629   2.350   9.882 -1.5706 -2.9412  0.7847
  692MOL0     H93410   5.602   2.351   9.665 -1.5854 -0.1284 -1.4353
  692MOL0     H93411   5.702   2.493   9.713  0.9556 -0.6685 -0.8744
  692MOL0     H93412   5.735   2.557   9.489 -1.3706  0.1095 -2.3237
  692MOL0     H93413   5.564   2.489   9.488 -0.3587 -1.0889  1.3562
  692MOL0     H93414   5.654   2.276   9.426  2.0374 -0.9540  2.9210
  692MOL0     H93415   5.813   2.334   9.419 -0.4773  2.0756  1.9854
  692MOL0     H93416   5.783   2.435   9.204  0.0306 -0.7058 -2.3773
  692MOL0     H93417   5.627   2.491   9.248 -0.7692 -0.9791 -0.5198
  692MOL0     H93418   5.576   2.129   9.024  0.1650 -0.6457 -0.1519
  692MOL0     H93419   6.025   2.240   9.767 -0.5563  0.4307 -0.9850
  692MOL0     H93420   6.082   2.168   9.991  0.6394 -0.6208 -2.2936
  693MOL0     O93421   8.435   6.448   3.462 -0.1382  0.0918 -0.3918
  693MOL0     C93422   8.447   6.537   3.376  0.4823 -1.0819 -0.3786
  693MOL0     O93423   8.467   6.676   3.402 -0.4277 -0.1012 -0.2418
  693MOL0     C93424   8.461   6.730   3.533 -0.5176  0.4277  0.0206
  693MOL0     C93425   8.549   6.839   3.571 -0.7268 -0.1869 -0.4054
  693MOL0     C93426   8.551   6.898   3.697  0.5891  0.0498 -0.2097
  693MOL0     C93427   8.446   6.869   3.784  0.4242 -0.4586 -0.2508
  693MOL0     O93428   8.419   6.945   3.898  0.0645  0.3367  0.3471
  693MOL0     C93429   8.405   7.085   3.871 -0.2574  0.2744  0.1940
  693MOL0     C93430   8.325   7.155   3.990 -0.1781  0.3714 -0.1162
  693MOL0     C93431   8.207   7.066   4.042 -0.7072 -0.1801  0.5290
  693MOL0     C93432   8.113   6.993   3.951  0.8261 -0.6280  0.7591
  693MOL0     C93433   8.027   6.886   4.022 -0.2389 -0.0757 -0.1420
  693MOL0     C93434   7.954   6.803   3.915  0.4099 -0.8674  0.4008
  693MOL0     C93435   7.853   6.705   3.983 -0.1094 -0.4990  0.6236
  693MOL0     C93436   7.902   6.596   4.079 -0.5639  0.3409 -0.1592
  693MOL0     N93437   7.806   6.492   4.113  0.7177 -0.4251  0.3222
  693MOL0     C93438   7.681   6.514   4.156  0.2456  0.8880 -0.3669
  693MOL0     C93439   7.633   6.399   4.209 -0.9176 -0.9582  0.3564
  693MOL0     C93440   7.504   6.373   4.282 -0.1984  0.3039  1.1551
  693MOL0     C93441   7.478   6.438   4.414  0.2821  0.4570  1.4773
  693MOL0     C93442   7.341   6.401   4.483 -0.7480  0.1015 -0.1412
  693MOL0     C93443   7.343   6.445   4.629 -1.0411  0.3070  0.0916
  693MOL0     O93444   7.423   6.567   4.649  0.0080 -0.9065  0.5527
  693MOL0     C93445   7.463   6.606   4.777 -1.0730  0.2811 -0.8556
  693MOL0     C93446   7.587   6.660   4.803 -0.0749  1.3058  0.0803
  693MOL0     C93447   7.633   6.711   4.933  0.6335  0.2790  0.6438
  693MOL0     C93448   7.769   6.776   4.940  1.2875  1.4406 -0.7954
  693MOL0     C93449   7.541   6.699   5.041 -0.0224  0.3114 -0.4949
  693MOL0     C93450   7.578   6.733   5.187  0.0942  0.1525  0.6581
  693MOL0     O93451   7.705   6.735   5.214 -0.8354  0.2236 -0.2818
  693MOL0     C93452   7.753   6.766   5.341 -0.3107 -1.3253  0.6922
  693MOL0     C93453   7.846   6.872   5.353 -0.0988 -0.3277 -0.3162
  693MOL0     C93454   7.871   6.913   5.483  0.5675  0.2106 -0.4573
  693MOL0     C93455   7.815   6.848   5.598 -0.0899  0.2918  0.1414
  693MOL0     O93456   7.820   6.877   5.722  0.3928  0.0596 -0.4655
  693MOL0     C93457   7.921   6.971   5.768  0.4221  0.1075  0.2579
  693MOL0     C93458   8.049   6.908   5.779  0.2023  0.3418 -0.5747
  693MOL0     C93459   8.167   7.001   5.811 -0.0493 -0.0762  0.5566
  693MOL0     C93460   8.234   7.071   5.690 -0.1510 -1.0035  0.0157
  693MOL0     C93461   8.310   7.198   5.724 -0.7594 -0.1756  0.4856
  693MOL0     C93462   8.431   7.175   5.811 -0.1383 -0.3750 -0.3984
  693MOL0     C93463   8.537   7.092   5.738 -0.0126 -0.3592 -0.3594
  693MOL0     C93464   8.682   7.133   5.746 -0.7644  0.1076  0.5200
  693MOL0    Cl93465   8.684   7.280   5.636 -0.2936 -0.8023  0.4835
  693MOL0     C93466   7.721   6.750   5.570  0.2987 -0.1347 -0.9155
  693MOL0     C93467   7.695   6.703   5.443 -1.2423 -0.2550 -0.2785
  693MOL0     O93468   7.484   6.755   5.262 -0.2814 -0.2441 -0.3057
  693MOL0     C93469   7.412   6.659   5.018 -0.6412 -0.7052 -0.7761
  693MOL0     C93470   7.381   6.612   4.888 -0.0281  0.9726 -0.0376
  693MOL0     N93471   7.740   6.308   4.185 -0.7051 -0.5036 -0.1493
  693MOL0     N93472   7.840   6.369   4.122 -0.6267  0.1825  0.1613
  693MOL0     C93473   8.369   6.751   3.757  0.0192 -0.4485  0.2281
  693MOL0     C93474   8.374   6.683   3.634  0.3827 -0.3760  0.7551
  693MOL0     C93475   8.427   6.498   3.230 -0.5499  0.3031 -0.2642
  693MOL0     C93476   8.348   6.577   3.144 -0.0921  0.0429  0.1384
  693MOL0     C93477   8.335   6.544   3.008 -0.0350 -0.6357  0.2499
  693MOL0     C93478   8.407   6.444   2.948  0.1599 -0.1801  0.3562
  693MOL0     O93479   8.429   6.426   2.815 -0.3143  0.8149 -0.5531
  693MOL0     C93480   8.310   6.428   2.739 -0.4900 -0.7724  0.3214
  693MOL0     C93481   8.185   6.340   2.782  0.3387 -0.4666  0.4592
  693MOL0     C93482   8.206   6.183   2.777 -1.4078  0.1652  1.3000
  693MOL0     C93483   8.244   6.127   2.633  0.3400 -0.0751 -0.3196
  693MOL0     C93484   8.258   5.983   2.631 -0.4144  0.5268 -0.4907
  693MOL0     C93485   8.259   5.859   2.634 -0.2451 -0.5314  1.3626
  693MOL0     C93486   8.485   6.363   3.033  0.2791 -0.1609  0.7124
  693MOL0     C93487   8.496   6.386   3.167 -0.0040  0.7361 -0.7520
  693MOL0     H93488   8.599   6.877   3.482 -1.0501  0.4234 -0.3333
  693MOL0     H93489   8.620   6.981   3.711 -0.0476  0.6651 -0.6951
  693MOL0     H93490   8.503   7.132   3.863 -0.6207  1.3542  1.6108
  693MOL0     H93491   8.357   7.104   3.775  0.6031 -1.7138 -0.6751
  693MOL0     H93492   8.392   7.178   4.073 -0.5020 -2.6220  1.0951
  693MOL0     H93493   8.268   7.244   3.960 -1.7916 -0.3073  0.7989
  693MOL0     H93494   8.255   6.998   4.112 -1.0283  0.9217  1.8633
  693MOL0     H93495   8.142   7.127   4.105 -3.2440 -2.1323 -0.0330
  693MOL0     H93496   8.043   7.065   3.908  1.9675  0.3210  0.4332
  693MOL0     H93497   8.168   6.951   3.865  0.6793 -0.0091  0.3569
  693MOL0     H93498   8.101   6.820   4.068 -1.1071 -1.2590 -0.4024
  693MOL0     H93499   7.954   6.918   4.097  0.7203 -0.4197  0.9548
  693MOL0     H93500   7.886   6.867   3.858 -1.2461 -0.6812  2.4239
  693MOL0     H93501   8.028   6.754   3.852  1.6572  0.6824  0.6046
  693MOL0     H93502   7.783   6.758   4.048  0.6017  0.7920  0.3889
  693MOL0     H93503   7.804   6.651   3.902 -0.5298  2.4315 -1.2293
  693MOL0     H93504   7.935   6.641   4.173 -1.6827  1.2414 -0.1728
  693MOL0     H93505   7.990   6.550   4.033 -0.7531  0.4880 -0.6766
  693MOL0     H93506   7.616   6.601   4.157  0.8223  1.3722  1.8976
  693MOL0     H93507   7.420   6.402   4.218  0.4396 -0.8252 -0.2666
  693MOL0     H93508   7.497   6.264   4.293 -0.2717 -0.2874 -3.0717
  693MOL0     H93509   7.491   6.544   4.395 -0.2131  0.4435  1.0335
  693MOL0     H93510   7.554   6.407   4.486  2.7965  2.9688  0.1123
  693MOL0     H93511   7.322   6.294   4.477 -0.0309  0.0338 -4.3247
  693MOL0     H93512   7.261   6.456   4.432  0.0357  1.6722  0.2516
  693MOL0     H93513   7.391   6.371   4.694 -3.4824 -0.6740  0.8807
  693MOL0     H93514   7.243   6.448   4.672 -0.3690  1.7750  1.6828
  693MOL0     H93515   7.661   6.647   4.725  1.0347 -1.5103  1.4669
  693MOL0     H93516   7.840   6.732   5.011 -0.0116 -3.5818 -2.1746
  693MOL0     H93517   7.820   6.779   4.843  0.8211 -1.7439 -1.2691
  693MOL0     H93518   7.754   6.880   4.970 -1.6612  1.4739 -2.0831
  693MOL0     H93519   7.889   6.926   5.270  0.6858 -1.2289 -0.5064
  693MOL0     H93520   7.927   7.006   5.489  2.8244 -1.0949 -0.0976
  693MOL0     H93521   7.926   7.058   5.701 -3.0527  0.9070  0.7989
  693MOL0     H93522   7.884   7.011   5.863 -0.6864 -1.6490  0.6213
  693MOL0     H93523   8.045   6.847   5.870 -0.5879  2.0819  0.6228
  693MOL0     H93524   8.068   6.844   5.692  2.0668  0.0930 -0.0232
  693MOL0     H93525   8.237   6.939   5.868 -0.1377 -2.1547 -1.4311
  693MOL0     H93526   8.130   7.078   5.880  1.5322  0.4878  0.8049
  693MOL0     H93527   8.300   6.998   5.643  0.6837 -0.8560  0.9297
  693MOL0     H93528   8.163   7.095   5.610 -0.0227 -1.2876 -0.1848
  693MOL0     H93529   8.254   7.275   5.777  0.8520  1.7129 -0.4199
  693MOL0     H93530   8.333   7.243   5.627  2.7296 -0.3695  1.0794
  693MOL0     H93531   8.481   7.271   5.827  1.1082 -1.0305 -0.3117
  693MOL0     H93532   8.399   7.137   5.908 -2.0400  1.1337 -0.3703
  693MOL0     H93533   8.507   7.081   5.633 -3.8476  2.3176  0.2302
  693MOL0     H93534   8.527   7.005   5.802 -1.8625  0.7099  0.9065
  693MOL0     H93535   8.741   7.055   5.697  0.7624  1.3472  0.3175
  693MOL0     H93536   8.710   7.154   5.849 -0.9846  1.5638  0.2960
  693MOL0     H93537   7.663   6.700   5.647  0.5795 -2.7563 -2.3100
  693MOL0     H93538   7.626   6.622   5.420 -0.2578 -1.1617 -0.1154
  693MOL0     H93539   7.335   6.645   5.093 -2.6127 -0.8701 -2.7372
  693MOL0     H93540   7.283   6.573   4.862  0.1111  0.7751 -0.2743
  693MOL0     H93541   8.303   6.710   3.833  0.2843 -1.8681 -0.2837
  693MOL0     H93542   8.322   6.588   3.622  1.4526 -0.8925 -0.0338
  693MOL0     H93543   8.278   6.650   3.181  2.9578  3.0485  0.4501
  693MOL0     H93544   8.255   6.598   2.958 -2.2533 -3.4998  0.3992
  693MOL0     H93545   8.276   6.532   2.739 -1.0840 -0.9305 -1.3175
  693MOL0     H93546   8.333   6.425   2.632  3.9286  0.3080  1.0443
  693MOL0     H93547   8.108   6.365   2.708 -1.0456  0.4314  2.1433
  693MOL0     H93548   8.146   6.365   2.880  1.5190  0.2523  0.7651
  693MOL0     H93549   8.125   6.120   2.817  0.2198 -3.2642 -0.3747
  693MOL0     H93550   8.276   6.159   2.857  1.2805  2.5750 -0.1421
  693MOL0     H93551   8.331   6.171   2.583 -1.4105  2.6430 -1.1692
  693MOL0     H93552   8.159   6.149   2.567  0.7099 -1.1762 -1.2100
  693MOL0     H93553   8.281   5.754   2.643 -0.7908 -0.8181 -0.3204
  693MOL0     H93554   8.541   6.279   2.995  0.2026 -0.0949  0.4552
  693MOL0     H93555   8.555   6.330   3.239 -0.8403 -3.3196 -2.8996
  694MOL0     O93556   8.917   6.779   3.687  0.2080  0.1489 -0.0312
  694MOL0     C93557   8.969   6.745   3.791 -0.4704  0.3805 -0.0194
  694MOL0     O93558   9.104   6.746   3.817 -0.5428 -0.0534 -0.0190
  694MOL0     C93559   9.181   6.822   3.724 -0.5068  0.0804 -0.0876
  694MOL0     C93560   9.287   6.764   3.670  0.3530  0.1000  0.1596
  694MOL0     C93561   9.374   6.827   3.570 -0.1014  1.2499  0.6188
  694MOL0     C93562   9.343   6.960   3.531 -0.0098  0.8919  0.0469
  694MOL0     O93563   9.431   7.038   3.458 -0.2851  0.2740 -0.4457
  694MOL0     C93564   9.543   6.984   3.384  0.7680  0.1455  0.1179
  694MOL0     C93565   9.626   7.090   3.318 -0.3596 -0.4613  1.0658
  694MOL0     C93566   9.544   7.213   3.271 -0.8304 -0.4389  1.4344
  694MOL0     C93567   9.637   7.293   3.182  0.5939 -0.2996 -0.7568
  694MOL0     C93568   9.767   7.357   3.256 -0.3160  0.6944  0.9167
  694MOL0     C93569   9.843   7.432   3.155 -0.0930 -0.1899 -0.4723
  694MOL0     C93570   9.780   7.570   3.118  0.1437  0.1977  0.8686
  694MOL0     C93571   9.875   7.680   3.070 -0.0755 -0.4484  0.5334
  694MOL0     N93572   9.811   7.808   3.038  0.8989 -0.4640 -0.0344
  694MOL0     C93573   9.757   7.850   2.927 -0.2416 -0.8207 -0.2268
  694MOL0     C93574   9.696   7.967   2.948  0.3548  0.0316 -0.7771
  694MOL0     C93575   9.627   8.058   2.848  0.2317  0.2138  0.3806
  694MOL0     C93576   9.696   8.193   2.829 -0.1443 -0.9112  0.3799
  694MOL0     C93577   9.628   8.266   2.708 -0.4352 -1.0540  0.0249
  694MOL0     C93578   9.726   8.373   2.663 -0.1509 -0.1764  0.4953
  694MOL0     O93579   9.670   8.446   2.551  1.1606  0.0586  0.0884
  694MOL0     C93580   9.687   8.580   2.529  0.1848  0.3017 -0.2661
  694MOL0     C93581   9.622   8.642   2.422  0.4686  0.0397  0.2636
  694MOL0     C93582   9.648   8.776   2.388 -0.3577 -0.8078  0.4567
  694MOL0     C93583   9.584   8.842   2.268 -0.5929  0.4536  0.4883
  694MOL0     C93584   9.733   8.852   2.475  0.2766  0.2852 -0.2689
  694MOL0     C93585   9.753   8.998   2.457  0.2894  0.2963 -0.1383
  694MOL0     O93586   9.667   9.079   2.529 -1.0948 -0.1810  0.2529
  694MOL0     C93587   9.659   9.212   2.503 -0.5021 -0.7965  0.4683
  694MOL0     C93588   9.767   9.298   2.526  0.4900 -1.1385 -0.1623
  694MOL0     C93589   9.764   9.435   2.507 -0.0432  0.8074 -0.9513
  694MOL0     C93590   9.638   9.496   2.476 -0.8345  0.1085 -0.7032
  694MOL0     O93591   9.616   9.632   2.500  0.0262 -0.4649  0.2889
  694MOL0     C93592   9.629   9.668   2.638 -0.1780  0.1454 -0.5154
  694MOL0     C93593   9.556   9.799   2.662  0.4885 -0.4881 -0.4092
  694MOL0     C93594   9.516   9.828   2.813  0.1296 -0.1297  0.2527
  694MOL0     C93595   9.484   9.975   2.810  0.6865 -0.8616 -0.3802
  694MOL0     C93596   9.417  10.024   2.937 -0.0419 -0.1656  0.1892
  694MOL0     C93597   9.420  10.182   2.943  0.1981 -0.0026  0.0487
  694MOL0     C93598   9.327  10.241   3.052 -0.2474 -0.3615 -0.0275
  694MOL0     C93599   9.340  10.166   3.187  0.6286  0.8673 -1.3599
  694MOL0    Cl93600   9.308  10.277   3.310 -0.1426 -0.2970 -0.2136
  694MOL0     C93601   9.528   9.406   2.438 -1.2124 -0.6208  0.3764
  694MOL0     C93602   9.541   9.264   2.458 -0.0471  0.3141 -0.3126
  694MOL0     O93603   9.828   9.035   2.372 -0.6970  0.0549  0.1132
  694MOL0     C93604   9.791   8.796   2.583 -0.4156  0.7631 -0.3111
  694MOL0     C93605   9.772   8.656   2.612  0.8456 -0.1838  0.1452
  694MOL0     N93606   9.711   7.998   3.079 -1.3016 -0.1265  1.9154
  694MOL0     N93607   9.792   7.909   3.125 -0.0476 -0.6962 -0.4408
  694MOL0     C93608   9.227   7.022   3.591 -1.1193 -0.4110 -0.3764
  694MOL0     C93609   9.150   6.955   3.681  1.2444  0.5114  1.1147
  694MOL0     C93610   8.887   6.680   3.894 -0.2229 -0.3348 -0.1182
  694MOL0     C93611   8.755   6.647   3.868 -0.1396  0.5017  1.0140
  694MOL0     C93612   8.672   6.605   3.979 -0.8766  0.4735 -0.0543
  694MOL0     C93613   8.712   6.605   4.109 -0.0387  0.6745  0.0069
  694MOL0     O93614   8.648   6.544   4.208  0.2034  0.6916 -0.4398
  694MOL0     C93615   8.538   6.452   4.187 -0.1369  0.3111 -0.6691
  694MOL0     C93616   8.409   6.536   4.198 -0.4234 -0.3669  0.4329
  694MOL0     C93617   8.308   6.492   4.098  0.4286 -1.2296  0.7689
  694MOL0     C93618   8.240   6.372   4.147  0.7741 -0.2012 -1.1477
  694MOL0     C93619   8.148   6.404   4.258  0.7886  0.8029  0.4518
  694MOL0     C93620   8.090   6.442   4.354  0.0642 -0.1671  0.4595
  694MOL0     C93621   8.840   6.643   4.126 -0.0197 -0.6952 -0.1190
  694MOL0     C93622   8.931   6.673   4.025 -0.5046  0.6437 -0.8353
  694MOL0     H93623   9.311   6.663   3.702 -0.7942 -0.5771 -0.9917
  694MOL0     H93624   9.446   6.762   3.521 -0.9163  1.1430 -0.4639
  694MOL0     H93625   9.614   6.941   3.455  0.1553 -0.5047  0.3570
  694MOL0     H93626   9.505   6.908   3.315  0.8131 -0.3705  0.6506
  694MOL0     H93627   9.702   7.114   3.393 -1.5114 -0.3782  2.2488
  694MOL0     H93628   9.665   7.040   3.229 -1.5177  0.9009 -0.2706
  694MOL0     H93629   9.450   7.190   3.220  0.8527  0.3338 -2.3210
  694MOL0     H93630   9.512   7.264   3.363 -2.7073 -2.5871  2.0490
  694MOL0     H93631   9.664   7.240   3.090  1.2818  0.2392 -0.8803
  694MOL0     H93632   9.583   7.383   3.152 -0.2026  0.2336  1.9604
  694MOL0     H93633   9.728   7.419   3.337  1.5469 -0.7437  3.0425
  694MOL0     H93634   9.832   7.275   3.288  1.1046  1.3930 -0.0269
  694MOL0     H93635   9.934   7.452   3.213 -2.0548 -0.9832  3.2062
  694MOL0     H93636   9.855   7.370   3.065  1.5073  0.2063 -0.5699
  694MOL0     H93637   9.699   7.558   3.046  2.1768 -3.4715 -1.1144
  694MOL0     H93638   9.736   7.602   3.213 -0.6936 -0.6122  0.7553
  694MOL0     H93639   9.922   7.648   2.977 -1.8154  0.1613 -0.6138
  694MOL0     H93640   9.944   7.694   3.154 -1.0152 -1.6596  1.5566
  694MOL0     H93641   9.766   7.791   2.837  2.0390 -0.6073 -0.1852
  694MOL0     H93642   9.626   8.005   2.753 -2.8253  1.0708 -0.1656
  694MOL0     H93643   9.525   8.093   2.866  0.0231  1.5407 -2.7732
  694MOL0     H93644   9.803   8.175   2.813 -0.1014 -2.9173  2.4480
  694MOL0     H93645   9.695   8.260   2.916 -0.5120 -1.5847  0.9009
  694MOL0     H93646   9.535   8.319   2.733  0.8108  1.6770 -0.6997
  694MOL0     H93647   9.606   8.206   2.619  0.1779  2.4750 -2.7422
  694MOL0     H93648   9.823   8.333   2.632  0.7868  2.4141 -0.2015
  694MOL0     H93649   9.748   8.440   2.747 -0.4146 -1.4020  1.5544
  694MOL0     H93650   9.551   8.592   2.357  2.1051 -1.6580 -0.3072
  694MOL0     H93651   9.652   8.903   2.208 -0.1176  0.2693  0.8313
  694MOL0     H93652   9.537   8.769   2.201 -0.2730  2.1331 -1.6796
  694MOL0     H93653   9.517   8.922   2.299  0.5480  3.1703 -3.2409
  694MOL0     H93654   9.857   9.255   2.568  1.1633 -0.3136 -0.7236
  694MOL0     H93655   9.852   9.485   2.547  0.2122 -0.1748 -0.2458
  694MOL0     H93656   9.576   9.587   2.689  0.4497 -0.7822 -1.3009
  694MOL0     H93657   9.735   9.665   2.665 -0.4586 -0.0603  0.6518
  694MOL0     H93658   9.625   9.883   2.652 -0.9055  0.5749 -1.5697
  694MOL0     H93659   9.475   9.808   2.588 -1.7677 -1.0221  1.8683
  694MOL0     H93660   9.598   9.807   2.883  0.0083 -0.4665  0.2909
  694MOL0     H93661   9.430   9.766   2.835  0.7021 -1.8656 -2.0148
  694MOL0     H93662   9.567  10.046   2.803 -3.9445  5.4977  0.1689
  694MOL0     H93663   9.410  10.003   2.734 -1.9369  2.7188  3.0813
  694MOL0     H93664   9.485   9.990   3.015  1.9145  0.8373 -1.0030
  694MOL0     H93665   9.319   9.975   2.944  0.2368 -0.6375  0.9350
  694MOL0     H93666   9.519  10.228   2.953 -0.4472  1.4538 -0.0067
  694MOL0     H93667   9.396  10.224   2.845 -1.5296 -1.0631 -0.0066
  694MOL0     H93668   9.221  10.232   3.027 -0.6269  1.5167  0.7162
  694MOL0     H93669   9.361  10.346   3.049  0.8050 -0.6862 -3.4370
  694MOL0     H93670   9.433  10.110   3.202 -0.0475  0.4237  1.8064
  694MOL0     H93671   9.260  10.091   3.192  0.6844  0.8688 -0.0733
  694MOL0     H93672   9.444   9.463   2.401  1.1456  3.8714  1.2697
  694MOL0     H93673   9.462   9.189   2.450  0.3389 -0.3250  1.3833
  694MOL0     H93674   9.846   8.853   2.658 -1.4167 -1.3470  2.1978
  694MOL0     H93675   9.836   8.622   2.692 -0.2650  2.7148  2.4260
  694MOL0     H93676   9.207   7.124   3.560  0.3611  0.5428  1.5606
  694MOL0     H93677   9.063   7.000   3.727  1.9023  2.1718  0.8005
  694MOL0     H93678   8.701   6.648   3.774 -2.0230  3.8674  1.9482
  694MOL0     H93679   8.571   6.572   3.955 -2.0950  0.1793  4.5626
  694MOL0     H93680   8.538   6.402   4.090  1.7449 -0.5287 -0.2894
  694MOL0     H93681   8.546   6.366   4.255 -1.7342 -0.9605 -2.0304
  694MOL0     H93682   8.448   6.638   4.185  1.8620 -0.9485  2.1148
  694MOL0     H93683   8.364   6.544   4.297  2.1174  2.8773  1.5211
  694MOL0     H93684   8.354   6.475   4.000 -0.1002 -3.9849  0.9160
  694MOL0     H93685   8.236   6.570   4.071 -1.0383 -2.8780 -0.3242
  694MOL0     H93686   8.303   6.284   4.161  0.0164 -0.9303 -2.1944
  694MOL0     H93687   8.171   6.336   4.070 -2.7950  1.5231  0.9591
  694MOL0     H93688   8.037   6.484   4.437 -0.5246  0.7145 -0.3436
  694MOL0     H93689   8.870   6.626   4.229 -2.2615 -1.4699  0.4666
  694MOL0     H93690   9.031   6.707   4.050  0.2609 -0.9229 -1.6224
  695MOL0     O93691   4.697   4.687   1.672 -0.0421 -0.5259  0.0286
  695MOL0     C93692   4.593   4.675   1.737 -0.6308 -0.1572 -0.3053
  695MOL0     O93693   4.557   4.565   1.801 -0.1209  0.5143 -0.0071
  695MOL0     C93694   4.652   4.480   1.857  0.4504  0.1497 -0.9830
  695MOL0     C93695   4.713   4.381   1.776 -0.0057 -0.7953  0.2535
  695MOL0     C93696   4.802   4.281   1.836 -0.1341 -0.0888 -0.0777
  695MOL0     C93697   4.826   4.293   1.976 -0.5287  0.4740 -0.0501
  695MOL0     O93698   4.891   4.201   2.049  1.0945 -0.2300 -0.3304
  695MOL0     C93699   4.998   4.136   1.973  0.5314  0.0254 -0.1193
  695MOL0     C93700   5.118   4.232   1.952 -0.6237 -0.3811  0.2506
  695MOL0     C93701   5.188   4.261   2.084 -0.6247  0.9323  0.7458
  695MOL0     C93702   5.310   4.350   2.053 -0.7501  0.9123  0.0321
  695MOL0     C93703   5.412   4.368   2.169 -0.2676 -0.9208  0.7045
  695MOL0     C93704   5.338   4.407   2.295 -0.1145  0.2390 -0.1218
  695MOL0     C93705   5.288   4.551   2.303  0.1626  0.4456 -0.6811
  695MOL0     C93706   5.201   4.588   2.427 -0.9702  0.0392 -0.5197
  695MOL0     N93707   5.066   4.537   2.404  0.8416 -0.1977  0.3387
  695MOL0     C93708   5.011   4.426   2.452  1.0376 -0.3801 -0.8112
  695MOL0     C93709   4.878   4.426   2.427  0.2012 -0.6615  0.8374
  695MOL0     C93710   4.778   4.321   2.456  0.0111 -0.5575 -0.5144
  695MOL0     C93711   4.629   4.380   2.437  0.2751 -0.4949 -0.6127
  695MOL0     C93712   4.533   4.271   2.492  0.2759  0.3284  1.2161
  695MOL0     C93713   4.380   4.308   2.477 -0.4821  0.5275 -0.2521
  695MOL0     O93714   4.366   4.352   2.342 -0.3809  0.0153  0.6659
  695MOL0     C93715   4.322   4.482   2.322 -0.2607 -0.2353  0.5758
  695MOL0     C93716   4.263   4.562   2.415  0.2789  0.2962  0.3765
  695MOL0     C93717   4.221   4.694   2.386 -0.5342  0.0891  0.3648
  695MOL0     C93718   4.144   4.756   2.495 -0.6122  0.4510  0.1886
  695MOL0     C93719   4.252   4.753   2.261 -0.6625  0.2052  0.3975
  695MOL0     C93720   4.235   4.897   2.231 -0.6608 -0.0137 -0.2419
  695MOL0     O93721   4.240   4.939   2.102  0.3947  0.5798 -0.1596
  695MOL0     C93722   4.228   5.076   2.091  0.4577  0.6765  1.1846
  695MOL0     C93723   4.114   5.147   2.132 -0.0594 -0.0276  0.5516
  695MOL0     C93724   4.112   5.286   2.098  0.4453  0.5820 -1.3694
  695MOL0     C93725   4.234   5.352   2.063  0.0959  0.4235  0.0705
  695MOL0     O93726   4.231   5.484   2.035 -0.3465  0.0066  0.5303
  695MOL0     C93727   4.117   5.555   1.993  0.0815 -0.0468  1.0222
  695MOL0     C93728   4.175   5.667   1.907  0.7566 -0.5944  0.0649
  695MOL0     C93729   4.050   5.749   1.862  0.1948 -0.3258 -0.3151
  695MOL0     C93730   4.075   5.889   1.811 -0.1266  0.0101  0.4529
  695MOL0     C93731   3.940   5.941   1.745 -0.5013 -0.5190  0.1446
  695MOL0     C93732   3.959   6.085   1.688 -0.1481  0.1085  0.1697
  695MOL0     C93733   3.817   6.120   1.631  0.3624 -0.2122 -0.5863
  695MOL0     C93734   3.824   6.263   1.571 -0.0878  0.2546 -0.0896
  695MOL0    Cl93735   3.646   6.274   1.520 -0.3254  0.1663  0.3309
  695MOL0     C93736   4.345   5.277   2.031  0.7871 -0.7084  0.0537
  695MOL0     C93737   4.336   5.143   2.028 -0.6285 -0.0650  0.6195
  695MOL0     O93738   4.223   4.970   2.325  0.5646  0.1719 -0.8625
  695MOL0     C93739   4.306   4.676   2.166 -0.3204  0.7634  0.1557
  695MOL0     C93740   4.339   4.541   2.197  0.2043  0.3864  0.6488
  695MOL0     N93741   4.846   4.547   2.358 -0.2993  0.2133 -0.4433
  695MOL0     N93742   4.963   4.601   2.343  0.5809  0.4373 -0.9207
  695MOL0     C93743   4.769   4.402   2.046  0.2600 -0.7552 -0.7516
  695MOL0     C93744   4.679   4.492   1.994  0.1463  0.3399 -0.1163
  695MOL0     C93745   4.496   4.785   1.737  1.0278 -0.6482  0.4941
  695MOL0     C93746   4.526   4.897   1.654  0.5028 -0.6705  0.1774
  695MOL0     C93747   4.427   4.999   1.630  0.3192  0.8849  0.6861
  695MOL0     C93748   4.304   4.998   1.705 -1.2547 -0.2217  0.5157
  695MOL0     O93749   4.211   5.093   1.702  0.3469 -0.7936 -0.2480
  695MOL0     C93750   4.218   5.209   1.624  0.1528  0.0910  0.5287
  695MOL0     C93751   4.128   5.204   1.497  0.3119 -0.3853  0.6935
  695MOL0     C93752   3.982   5.185   1.536  0.7744  0.3180 -0.7427
  695MOL0     C93753   3.879   5.199   1.425  0.0514  0.0787  0.1285
  695MOL0     C93754   3.868   5.341   1.371 -0.1357  0.9816  0.1659
  695MOL0     C93755   3.854   5.451   1.331  0.0494  0.1247 -0.2064
  695MOL0     C93756   4.280   4.889   1.779 -0.8334 -0.3490 -0.3164
  695MOL0     C93757   4.370   4.783   1.801 -0.3324 -0.5107  1.0107
  695MOL0     H93758   4.681   4.379   1.672  1.8085  2.9617 -0.5202
  695MOL0     H93759   4.846   4.207   1.769  0.2123  0.5116 -0.5251
  695MOL0     H93760   5.020   4.044   2.027 -2.1901 -0.7756 -0.2378
  695MOL0     H93761   4.971   4.092   1.877  1.6358  1.3077 -1.0718
  695MOL0     H93762   5.199   4.190   1.892 -1.2665 -0.1354 -0.8071
  695MOL0     H93763   5.084   4.320   1.897  0.1997  0.1907  0.6342
  695MOL0     H93764   5.119   4.302   2.158 -0.4188  0.2000  1.3552
  695MOL0     H93765   5.222   4.167   2.127  0.2394 -0.0928 -1.9649
  695MOL0     H93766   5.365   4.301   1.971 -2.3398  0.9336 -1.0926
  695MOL0     H93767   5.281   4.448   2.014 -0.8105  1.1158  0.5882
  695MOL0     H93768   5.462   4.273   2.188  1.9290 -0.0840 -0.5656
  695MOL0     H93769   5.488   4.443   2.149  2.8963 -4.1636 -0.4987
  695MOL0     H93770   5.253   4.341   2.314 -1.3079  1.0345 -2.3632
  695MOL0     H93771   5.417   4.396   2.370  1.3069  0.3597 -1.5461
  695MOL0     H93772   5.374   4.616   2.291  2.2100 -1.9833  0.0305
  695MOL0     H93773   5.220   4.571   2.219  0.9091 -0.6615 -1.5806
  695MOL0     H93774   5.196   4.695   2.449 -0.5600  0.0062 -0.2512
  695MOL0     H93775   5.255   4.539   2.508  0.4938  2.1558 -0.1528
  695MOL0     H93776   5.072   4.366   2.519  2.7004  4.0722  2.1283
  695MOL0     H93777   4.776   4.237   2.385 -1.6766 -2.2928  1.4804
  695MOL0     H93778   4.783   4.269   2.552 -1.4076  1.3163  0.6418
  695MOL0     H93779   4.626   4.413   2.333  0.7728  0.4959 -0.3249
  695MOL0     H93780   4.616   4.470   2.497  0.3835 -0.7148 -0.2566
  695MOL0     H93781   4.558   4.247   2.596  1.7008  1.5136  1.1737
  695MOL0     H93782   4.561   4.179   2.439 -1.9588  1.1340 -1.5881
  695MOL0     H93783   4.361   4.379   2.557  1.2538  0.7225  0.0197
  695MOL0     H93784   4.304   4.231   2.497 -2.6736  2.2366 -1.4562
  695MOL0     H93785   4.221   4.518   2.505 -1.6340  1.6762  0.2234
  695MOL0     H93786   4.140   4.692   2.583 -2.9111  0.9800  0.5324
  695MOL0     H93787   4.198   4.846   2.525  3.6286 -0.9378 -2.4205
  695MOL0     H93788   4.041   4.781   2.468 -0.8364 -0.4342  0.2034
  695MOL0     H93789   4.023   5.105   2.175  0.6751 -0.6453  1.5392
  695MOL0     H93790   4.018   5.341   2.092  0.4537  0.6222 -1.1162
  695MOL0     H93791   4.057   5.490   1.928  2.9750 -2.3627  0.4384
  695MOL0     H93792   4.057   5.594   2.076  1.1294  3.1375  0.4193
  695MOL0     H93793   4.241   5.724   1.974  3.0392 -4.6343  1.6280
  695MOL0     H93794   4.218   5.626   1.815 -0.9594  1.2654 -1.6570
  695MOL0     H93795   3.974   5.752   1.940  1.8906 -0.2318  1.3962
  695MOL0     H93796   4.016   5.687   1.778 -1.5258  2.1211 -1.5624
  695MOL0     H93797   4.101   5.950   1.897 -2.3750  0.7925  0.6197
  695MOL0     H93798   4.158   5.894   1.739  0.0307  3.1709  0.7172
  695MOL0     H93799   3.862   5.947   1.822  0.5674  0.2955  1.1971
  695MOL0     H93800   3.904   5.872   1.668 -2.8595 -0.2308  0.9059
  695MOL0     H93801   3.993   6.147   1.772 -1.1854 -0.8337  1.3145
  695MOL0     H93802   4.039   6.089   1.613  1.1134  3.6196  1.4829
  695MOL0     H93803   3.738   6.115   1.707 -0.3740 -0.8265 -1.3659
  695MOL0     H93804   3.790   6.046   1.554  0.1565 -0.1114 -0.6130
  695MOL0     H93805   3.902   6.279   1.497  1.9265  0.3981  1.9556
  695MOL0     H93806   3.840   6.339   1.648 -3.4907  1.5445 -0.4926
  695MOL0     H93807   4.439   5.309   1.989  0.3104  0.9267  0.1716
  695MOL0     H93808   4.419   5.100   1.972 -0.3890 -2.8066  2.8579
  695MOL0     H93809   4.348   4.715   2.074  0.0597 -3.5585 -1.7645
  695MOL0     H93810   4.390   4.491   2.115 -0.9982  0.6405 -0.2781
  695MOL0     H93811   4.763   4.408   2.154 -1.9841 -0.8288 -0.8251
  695MOL0     H93812   4.633   4.567   2.057 -2.0294 -0.2989 -0.8456
  695MOL0     H93813   4.619   4.900   1.599 -0.4294 -1.8868 -1.5590
  695MOL0     H93814   4.457   5.088   1.575 -1.4899  1.3981  0.4801
  695MOL0     H93815   4.184   5.290   1.688 -3.1904  0.1741 -1.1461
  695MOL0     H93816   4.313   5.250   1.588 -1.0766  0.3945 -2.6852
  695MOL0     H93817   4.160   5.120   1.435 -2.1437 -1.9987  1.4508
  695MOL0     H93818   4.135   5.296   1.439  1.9102  0.8602  2.7225
  695MOL0     H93819   3.958   5.258   1.614  0.9757  3.0211 -3.0535
  695MOL0     H93820   3.969   5.081   1.569 -1.7817  0.4808 -1.0234
  695MOL0     H93821   3.784   5.154   1.457  0.6595 -1.0111  0.4793
  695MOL0     H93822   3.903   5.138   1.338 -2.5053 -1.9449  0.7054
  695MOL0     H93823   3.850   5.552   1.293 -0.0316 -0.1808 -1.0474
  695MOL0     H93824   4.192   4.871   1.840  0.4440 -1.5365  1.2247
  695MOL0     H93825   4.347   4.709   1.877 -0.1677  0.9277  2.5213
  696MOL0     O93826   2.647   2.921   4.124  0.4509  0.2925 -0.5533
  696MOL0     C93827   2.576   2.915   4.231 -0.1654 -0.5900 -0.4595
  696MOL0     O93828   2.605   2.986   4.352 -0.0242  0.7750  0.3850
  696MOL0     C93829   2.738   3.043   4.355  0.4324  0.8590  0.4553
  696MOL0     C93830   2.829   2.994   4.446  0.6191  0.6627  1.0496
  696MOL0     C93831   2.958   3.035   4.438  0.6584  0.0795 -0.7391
  696MOL0     C93832   3.004   3.145   4.358  0.0883 -0.2898 -0.5903
  696MOL0     O93833   3.135   3.181   4.367 -0.0813 -0.3467 -0.0278
  696MOL0     C93834   3.166   3.319   4.342  0.3234  0.1054  0.1789
  696MOL0     C93835   3.301   3.356   4.397 -0.6037  0.7477 -0.5150
  696MOL0     C93836   3.295   3.385   4.549  0.0211  0.3060 -0.0397
  696MOL0     C93837   3.262   3.273   4.644 -0.4829 -0.6875 -0.1236
  696MOL0     C93838   3.268   3.324   4.787  1.2125 -0.4022  0.4747
  696MOL0     C93839   3.253   3.204   4.885  0.0931  0.1648  0.0410
  696MOL0     C93840   3.142   3.102   4.877 -0.4963 -0.3955 -0.5108
  696MOL0     C93841   3.001   3.157   4.907  0.1078  0.4431  0.0854
  696MOL0     N93842   2.900   3.051   4.933 -0.2826  0.0461  0.4750
  696MOL0     C93843   2.844   2.966   4.841  0.8909 -0.9200  0.2099
  696MOL0     C93844   2.747   2.897   4.909  0.5737 -0.2541 -0.4452
  696MOL0     C93845   2.634   2.814   4.860 -0.5959  0.4500  0.5377
  696MOL0     C93846   2.491   2.860   4.895  0.2873 -0.4873  0.6153
  696MOL0     C93847   2.449   3.000   4.846  0.6869  0.0700 -0.5723
  696MOL0     C93848   2.474   3.019   4.699 -0.3773 -0.1946 -0.9395
  696MOL0     O93849   2.429   3.143   4.645  0.5388 -0.2896 -0.2175
  696MOL0     C93850   2.337   3.138   4.541  0.2244  1.2722  0.0760
  696MOL0     C93851   2.377   3.152   4.410 -0.3007  0.5884 -0.4066
  696MOL0     C93852   2.284   3.132   4.307 -0.0331 -1.1246  0.0617
  696MOL0     C93853   2.341   3.163   4.171  0.4130 -0.0721 -0.4641
  696MOL0     C93854   2.149   3.099   4.332 -0.0431 -0.8709  0.3732
  696MOL0     C93855   2.037   3.110   4.239 -0.2589 -0.3189  1.0072
  696MOL0     O93856   1.916   3.067   4.288  0.4614 -0.2647  0.1446
  696MOL0     C93857   1.811   3.045   4.194 -0.3561  0.5224  0.1632
  696MOL0     C93858   1.685   3.105   4.211 -1.3622  0.7009  0.9547
  696MOL0     C93859   1.586   3.071   4.118  0.3429  0.1413  0.2672
  696MOL0     C93860   1.603   2.968   4.022  0.4831 -0.0051 -0.2351
  696MOL0     O93861   1.498   2.919   3.950 -1.2781  0.0348 -0.9142
  696MOL0     C93862   1.423   3.009   3.875 -0.4729  0.2201  0.0426
  696MOL0     C93863   1.294   2.948   3.835  1.0849  0.0646 -0.0593
  696MOL0     C93864   1.207   2.887   3.943 -0.2975 -0.8341 -0.5844
  696MOL0     C93865   1.168   2.987   4.061 -0.3849  0.2051  0.2201
  696MOL0     C93866   1.125   2.927   4.189  0.4374  1.2651  0.4612
  696MOL0     C93867   1.143   3.023   4.307 -0.0817  0.3626  0.0520
  696MOL0     C93868   1.290   3.034   4.350  0.1246 -0.1527 -0.7469
  696MOL0     C93869   1.286   3.092   4.492 -1.0391  0.0377 -0.6566
  696MOL0    Cl93870   1.249   2.954   4.604  0.4543 -0.2698  0.0417
  696MOL0     C93871   1.728   2.909   4.013 -0.0204  0.6673 -0.3092
  696MOL0     C93872   1.830   2.944   4.099  0.5068  0.3191  0.6186
  696MOL0     O93873   2.052   3.152   4.127 -0.1639  0.2666 -0.3210
  696MOL0     C93874   2.117   3.072   4.469 -0.2868 -0.1154  0.2449
  696MOL0     C93875   2.209   3.090   4.565 -0.1079 -0.0658 -0.4530
  696MOL0     N93876   2.762   2.924   5.054 -0.8680 -0.1352  0.2149
  696MOL0     N93877   2.851   3.021   5.060  1.3138 -0.2158  0.6159
  696MOL0     C93878   2.901   3.208   4.279  0.6394  0.0566 -0.5027
  696MOL0     C93879   2.772   3.158   4.274 -0.3338  0.0629 -0.0581
  696MOL0     C93880   2.449   2.838   4.219  0.9800  1.1728  0.2456
  696MOL0     C93881   2.411   2.789   4.096  0.4301 -0.3179  0.1415
  696MOL0     C93882   2.281   2.740   4.064  0.5619  1.1315  0.2264
  696MOL0     C93883   2.195   2.713   4.179 -0.7814 -0.4528  0.0720
  696MOL0     O93884   2.080   2.641   4.177 -0.4048 -0.9272 -0.2552
  696MOL0     C93885   2.028   2.570   4.064  0.5402  0.3641 -0.2581
  696MOL0     C93886   1.986   2.426   4.093 -0.7325 -0.2565  0.7183
  696MOL0     C93887   1.861   2.448   4.199  0.5289 -0.0286  0.8173
  696MOL0     C93888   1.771   2.330   4.218  0.1263 -0.4240  0.1988
  696MOL0     C93889   1.698   2.286   4.099 -0.3414 -0.4901  0.8189
  696MOL0     C93890   1.651   2.258   3.996 -0.7280 -0.2336  0.8360
  696MOL0     C93891   2.235   2.763   4.304  0.3605 -0.0596  0.1008
  696MOL0     C93892   2.358   2.837   4.322  0.3420 -0.3578  0.3570
  696MOL0     H93893   2.776   2.922   4.507 -3.3865  2.6414  0.2437
  696MOL0     H93894   3.028   2.988   4.505 -2.0089  0.7406  2.7846
  696MOL0     H93895   3.157   3.327   4.234 -0.2295 -3.7922 -0.1995
  696MOL0     H93896   3.088   3.387   4.379  2.5704  2.7628  0.4300
  696MOL0     H93897   3.369   3.275   4.370 -1.9719  0.4823 -3.6239
  696MOL0     H93898   3.341   3.440   4.339 -1.2611  0.7501 -0.9757
  696MOL0     H93899   3.386   3.440   4.579  0.0668  0.1634  0.0838
  696MOL0     H93900   3.219   3.462   4.563 -0.4978 -0.0244 -0.9820
  696MOL0     H93901   3.164   3.236   4.615  0.6411 -1.1275 -3.8514
  696MOL0     H93902   3.327   3.185   4.635  2.4343  1.2048  0.9691
  696MOL0     H93903   3.362   3.374   4.812 -0.5203  3.4448  0.0118
  696MOL0     H93904   3.192   3.400   4.806 -0.4164 -2.4775  2.8459
  696MOL0     H93905   3.344   3.144   4.884  1.0655  1.2662  3.8017
  696MOL0     H93906   3.244   3.242   4.987 -2.6748 -2.4710  0.9315
  696MOL0     H93907   3.134   3.063   4.775 -1.0257 -1.1045 -0.2069
  696MOL0     H93908   3.165   3.019   4.944 -1.5810 -0.6739 -0.4672
  696MOL0     H93909   2.957   3.233   4.841 -3.3075 -2.1868 -0.9590
  696MOL0     H93910   3.002   3.221   4.996  0.8455 -1.2079  1.3238
  696MOL0     H93911   2.849   2.969   4.733  2.4785  0.7595  0.2775
  696MOL0     H93912   2.639   2.805   4.751  0.8204 -1.1717  0.6976
  696MOL0     H93913   2.647   2.714   4.903 -0.3321 -0.3854 -1.3813
  696MOL0     H93914   2.485   2.855   5.004  0.4609  0.3868  0.6670
  696MOL0     H93915   2.421   2.789   4.849 -1.8807  1.6657  0.3549
  696MOL0     H93916   2.517   3.067   4.899  1.7040 -0.8121 -0.7099
  696MOL0     H93917   2.346   3.022   4.873  0.6723  1.4227 -1.6020
  696MOL0     H93918   2.457   2.930   4.638  1.0796 -0.1398 -1.4720
  696MOL0     H93919   2.584   3.021   4.696 -0.3913  0.5341 -0.9920
  696MOL0     H93920   2.476   3.182   4.378  0.7335  1.0963  2.9048
  696MOL0     H93921   2.322   3.266   4.139  2.4245  0.4768 -0.0131
  696MOL0     H93922   2.447   3.141   4.160  0.4738  0.6527 -1.5230
  696MOL0     H93923   2.296   3.099   4.094  1.4737 -0.8908 -0.4262
  696MOL0     H93924   1.653   3.157   4.301  0.0592  1.0528  1.2788
  696MOL0     H93925   1.490   3.115   4.142  0.5476  0.9998 -0.4518
  696MOL0     H93926   1.406   3.093   3.942  0.6306  2.1038 -1.8840
  696MOL0     H93927   1.488   3.044   3.794 -0.5610  0.9936  0.3008
  696MOL0     H93928   1.231   3.025   3.790 -1.8037 -0.9434  1.9885
  696MOL0     H93929   1.316   2.868   3.764  2.5846  0.4881 -0.1108
  696MOL0     H93930   1.278   2.812   3.980  0.3613  0.6523  1.3050
  696MOL0     H93931   1.114   2.841   3.909 -1.2997 -0.1778  1.1471
  696MOL0     H93932   1.262   3.038   4.084  0.5456 -0.4914 -1.8624
  696MOL0     H93933   1.084   3.048   4.028 -0.1975 -1.1866 -3.1771
  696MOL0     H93934   1.191   2.842   4.204  0.5123  0.8246 -1.9183
  696MOL0     H93935   1.022   2.890   4.188  1.2265 -1.0957 -0.1477
  696MOL0     H93936   1.125   3.126   4.277 -1.2966 -0.2521 -1.4808
  696MOL0     H93937   1.071   3.000   4.387  0.4620  0.3296  0.5446
  696MOL0     H93938   1.342   3.107   4.287 -1.0542  2.4806  1.1263
  696MOL0     H93939   1.353   2.945   4.355  1.6721  0.8623 -1.3822
  696MOL0     H93940   1.216   3.175   4.502  0.5621  1.2126  1.7939
  696MOL0     H93941   1.377   3.140   4.529 -1.2473 -0.9521  1.2696
  696MOL0     H93942   1.747   2.834   3.936 -0.9769 -0.8734  0.9056
  696MOL0     H93943   1.926   2.894   4.096  0.3225 -0.1347  1.9804
  696MOL0     H93944   2.021   3.045   4.510  1.1759 -2.6506  2.2627
  696MOL0     H93945   2.168   3.094   4.665 -0.2923  0.8924 -0.5514
  696MOL0     H93946   2.918   3.300   4.224 -1.2716 -0.2466 -1.7009
  696MOL0     H93947   2.691   3.204   4.219 -0.3303 -1.9581 -1.8954
  696MOL0     H93948   2.480   2.789   4.012 -1.9587 -3.2016 -2.0831
  696MOL0     H93949   2.256   2.720   3.960 -2.4484 -1.0290  1.2100
  696MOL0     H93950   1.947   2.627   4.017  0.6838  0.6904 -0.1122
  696MOL0     H93951   2.109   2.574   3.991  2.2992  0.7601  1.6329
  696MOL0     H93952   2.053   2.356   4.144  0.0506 -3.0143 -3.5856
  696MOL0     H93953   1.946   2.390   3.997  0.4117  0.5201 -0.0747
  696MOL0     H93954   1.790   2.520   4.158 -2.6377 -1.1583  3.8719
  696MOL0     H93955   1.890   2.495   4.294  1.3176  1.5070 -0.1351
  696MOL0     H93956   1.707   2.328   4.306 -0.4456 -3.0796 -0.1907
  696MOL0     H93957   1.840   2.249   4.245  0.8950  0.3656  0.6561
  696MOL0     H93958   1.628   2.222   3.898  1.9016 -2.0184  0.7738
  696MOL0     H93959   2.162   2.750   4.384  0.9276 -2.0853  0.3691
  696MOL0     H93960   2.376   2.871   4.424 -2.3033  1.7634  0.2133
  697MOL0     O93961   0.898   9.478   5.203  0.8806 -0.2500 -0.0520
  697MOL0     C93962   0.790   9.537   5.187  0.3434  0.4794 -0.4749
  697MOL0     O93963   0.770   9.669   5.206 -0.9078 -0.0814 -0.7132
  697MOL0     C93964   0.885   9.748   5.221  0.0295 -0.3480  0.8134
  697MOL0     C93965   0.964   9.781   5.110  0.5365 -0.0822 -1.4317
  697MOL0     C93966   1.071   9.877   5.131 -0.3865 -0.2909 -0.5881
  697MOL0     C93967   1.109   9.911   5.257 -0.3959 -0.8770  0.1802
  697MOL0     O93968   1.226   9.983   5.272  0.5567 -0.1543  0.3117
  697MOL0     C93969   1.252  10.032   5.406  0.1958 -0.2168  0.3081
  697MOL0     C93970   1.395  10.098   5.416 -1.1899  0.1024  0.7151
  697MOL0     C93971   1.424  10.238   5.357  0.3186 -0.4064 -0.4648
  697MOL0     C93972   1.411  10.253   5.210 -0.6229  0.4986 -0.0593
  697MOL0     C93973   1.533  10.241   5.126  0.2303 -0.0260  0.6576
  697MOL0     C93974   1.505  10.293   4.987 -0.0894 -0.1861  0.0123
  697MOL0     C93975   1.408  10.217   4.894 -0.0731  0.4298 -0.4908
  697MOL0     C93976   1.424  10.070   4.892  0.4249  0.0546  0.2420
  697MOL0     N93977   1.353  10.016   4.772  0.3679  0.3001  0.3531
  697MOL0     C93978   1.412   9.992   4.648  0.1540  0.8658  0.0295
  697MOL0     C93979   1.303   9.960   4.575  1.4723  0.8714  0.1896
  697MOL0     C93980   1.340   9.930   4.432 -0.2911 -0.3623 -0.8078
  697MOL0     C93981   1.201   9.914   4.364 -0.3762  0.8170  1.1125
  697MOL0     C93982   1.114  10.043   4.349  0.7313 -0.4357  0.7962
  697MOL0     C93983   0.964  10.009   4.334 -1.0858  0.5450 -0.5122
  697MOL0     O93984   0.906  10.106   4.252  0.6422  0.7766 -0.1843
  697MOL0     C93985   0.763  10.126   4.245 -0.5698  0.4079 -0.2072
  697MOL0     C93986   0.672  10.079   4.338 -0.3985 -0.1858  0.0947
  697MOL0     C93987   0.531  10.064   4.312  0.0230 -0.0408 -0.7418
  697MOL0     C93988   0.450   9.971   4.415  0.5375  0.0246 -0.0182
  697MOL0     C93989   0.486  10.119   4.189  0.7531  0.6217  0.7734
  697MOL0     C93990   0.351  10.117   4.145  0.7421 -0.5348  0.3450
  697MOL0     O93991   0.328  10.124   4.009 -0.1038 -0.1132 -0.0711
  697MOL0     C93992   0.204  10.150   3.958 -0.3438  0.0460  0.1246
  697MOL0     C93993   0.135  10.051   3.892 -0.3228 -0.1347  0.2621
  697MOL0     C93994   0.016  10.074   3.823 -0.5505 -0.4514 -0.4143
  697MOL0     C93995  -0.040  10.200   3.818 -0.6589  0.0133  0.2951
  697MOL0     O93996  -0.146  10.220   3.735  0.2523  0.4295  0.6938
  697MOL0     C93997  -0.236  10.327   3.767  0.1667  0.1931  0.0082
  697MOL0     C93998  -0.232  10.423   3.645  0.1065  0.3936 -0.0206
  697MOL0     C93999  -0.320  10.542   3.647  1.0062 -1.5601 -0.9178
  697MOL0     C94000  -0.272  10.654   3.740  0.9757  0.6534  0.0628
  697MOL0     C94001  -0.324  10.797   3.727 -0.3562 -0.0336  0.6433
  697MOL0     C94002  -0.285  10.869   3.598  0.1092  0.0982  0.2503
  697MOL0     C94003  -0.134  10.895   3.589 -0.5825 -0.1671 -1.4776
  697MOL0     C94004  -0.099  10.981   3.465 -0.5444 -0.2928  0.3938
  697MOL0    Cl94005   0.079  10.989   3.452 -0.1417 -0.4574 -0.2240
  697MOL0     C94006   0.038  10.305   3.879 -0.6408 -0.1648  0.9225
  697MOL0     C94007   0.151  10.278   3.954 -0.5929 -0.0590 -0.2892
  697MOL0     O94008   0.266  10.127   4.237  0.1526 -0.7840 -0.3417
  697MOL0     C94009   0.586  10.182   4.105 -0.1881 -0.6772  0.0105
  697MOL0     C94010   0.720  10.185   4.130 -0.9962 -0.5728  0.3181
  697MOL0     N94011   1.186   9.970   4.645  0.6779 -0.8671 -0.4806
  697MOL0     N94012   1.219   9.990   4.772 -0.2848 -0.3641  0.1817
  697MOL0     C94013   1.034   9.874   5.359 -0.5760  0.1183 -0.3209
  697MOL0     C94014   0.920   9.797   5.348  0.5811 -0.0724 -0.2277
  697MOL0     C94015   0.677   9.469   5.145  0.4365  0.2139 -0.1052
  697MOL0     C94016   0.566   9.536   5.091 -0.5132  0.4095 -0.0926
  697MOL0     C94017   0.443   9.473   5.064 -0.0351 -0.4150 -0.6486
  697MOL0     C94018   0.445   9.334   5.060  0.0115 -0.6469 -0.4819
  697MOL0     O94019   0.340   9.257   5.020 -0.0359 -0.0254 -0.3975
  697MOL0     C94020   0.246   9.293   4.919 -0.3810 -0.7586 -0.9519
  697MOL0     C94021   0.134   9.192   4.904 -1.5778  0.3353 -0.7379
  697MOL0     C94022   0.055   9.166   5.034 -0.8688 -0.0268  1.0008
  697MOL0     C94023  -0.073   9.236   5.034  0.2878  0.0416 -1.1302
  697MOL0     C94024  -0.151   9.163   5.137  0.4666 -0.2077 -0.9470
  697MOL0     C94025  -0.219   9.118   5.226 -0.2825 -0.1119  0.1239
  697MOL0     C94026   0.552   9.263   5.121 -0.1177  0.2100  0.3667
  697MOL0     C94027   0.660   9.334   5.166 -0.9146  0.6005 -0.0112
  697MOL0     H94028   0.956   9.743   5.009 -2.6352  1.6652 -1.9653
  697MOL0     H94029   1.141   9.914   5.057  1.2987  0.1008  1.1376
  697MOL0     H94030   1.174  10.095   5.452  0.5947  0.6585 -0.1861
  697MOL0     H94031   1.266   9.953   5.480 -0.5284 -1.2605 -0.6400
  697MOL0     H94032   1.412  10.120   5.522 -0.0203  1.9060  0.2044
  697MOL0     H94033   1.461  10.028   5.365 -1.9498 -0.0617 -0.0532
  697MOL0     H94034   1.350  10.304   5.403 -1.2709 -1.5859 -1.2220
  697MOL0     H94035   1.522  10.277   5.387  0.8233 -1.0899 -1.1810
  697MOL0     H94036   1.329  10.192   5.171 -0.7942 -0.7001  2.0648
  697MOL0     H94037   1.385  10.359   5.201  0.7909  0.7833 -1.0887
  697MOL0     H94038   1.616  10.302   5.165 -1.0889  1.9025  0.5703
  697MOL0     H94039   1.569  10.140   5.105  2.6041  0.9386 -0.3580
  697MOL0     H94040   1.463  10.394   4.996  0.5394  0.0646  0.2197
  697MOL0     H94041   1.604  10.317   4.947  0.8799  4.4149  4.0992
  697MOL0     H94042   1.304  10.238   4.921  0.0794 -0.5546  0.9588
  697MOL0     H94043   1.422  10.256   4.793  1.9361 -1.0313 -0.8382
  697MOL0     H94044   1.387  10.009   4.976  1.2422  1.2108  1.4753
  697MOL0     H94045   1.529  10.041   4.887  0.8193  1.6502 -3.7695
  697MOL0     H94046   1.517   9.993   4.618  0.1666 -1.0269 -0.1467
  697MOL0     H94047   1.403  10.006   4.384  0.2733 -0.0877  0.3398
  697MOL0     H94048   1.398   9.838   4.424 -0.8437 -0.9208  1.1949
  697MOL0     H94049   1.143   9.831   4.407  1.4162 -1.5890 -0.7958
  697MOL0     H94050   1.220   9.877   4.263 -2.4942  1.2472  0.5078
  697MOL0     H94051   1.140  10.095   4.257  2.4708 -1.3950  0.7069
  697MOL0     H94052   1.120  10.109   4.436  0.7151  2.3341 -1.1916
  697MOL0     H94053   0.913   9.994   4.429 -3.1734  2.0024 -1.3486
  697MOL0     H94054   0.964   9.911   4.286  0.2963  0.0190  0.4760
  697MOL0     H94055   0.696  10.038   4.436 -0.1338 -0.0035  0.1090
  697MOL0     H94056   0.344   9.991   4.434  0.8714  0.9830  0.9346
  697MOL0     H94057   0.457   9.864   4.393 -0.1022 -0.3425  1.4892
  697MOL0     H94058   0.491   9.987   4.515  1.0033 -0.7299 -0.0887
  697MOL0     H94059   0.180   9.952   3.891  1.1254  0.5025 -0.9613
  697MOL0     H94060  -0.026   9.992   3.765 -0.2899  0.8845 -2.6060
  697MOL0     H94061  -0.338  10.288   3.770  0.0117  0.5844 -0.0450
  697MOL0     H94062  -0.219  10.384   3.860 -1.8778 -1.9180  1.7956
  697MOL0     H94063  -0.127  10.456   3.637 -0.0492  0.5682 -1.8967
  697MOL0     H94064  -0.258  10.362   3.558  2.6843 -3.0845  1.4406
  697MOL0     H94065  -0.418  10.499   3.673 -0.0979  0.8614 -0.7766
  697MOL0     H94066  -0.315  10.582   3.546  0.7749  1.3465  0.1230
  697MOL0     H94067  -0.281  10.611   3.841  3.8904  2.0027  1.0146
  697MOL0     H94068  -0.163  10.661   3.728  0.8943  2.3465  0.1001
  697MOL0     H94069  -0.271  10.848   3.809  2.5383 -0.1747 -1.0075
  697MOL0     H94070  -0.433  10.793   3.741 -0.8659 -0.1368 -2.7184
  697MOL0     H94071  -0.322  10.801   3.521 -0.4299  0.5788  0.0776
  697MOL0     H94072  -0.331  10.964   3.571  0.3046  0.6113  1.6595
  697MOL0     H94073  -0.081  10.800   3.579  0.6166  0.5308 -1.8888
  697MOL0     H94074  -0.098  10.945   3.680 -1.1718  0.4241 -1.5631
  697MOL0     H94075  -0.133  11.085   3.465  3.0993  1.0684  0.5188
  697MOL0     H94076  -0.120  10.932   3.370  1.3389 -1.8568  0.7217
  697MOL0     H94077   0.002  10.407   3.871  1.8302  0.7101 -0.2552
  697MOL0     H94078   0.212  10.353   4.003  0.3207 -1.2873  0.4986
  697MOL0     H94079   0.547  10.226   4.014 -2.8772 -3.1556 -0.1783
  697MOL0     H94080   0.803  10.229   4.076  1.2781 -0.3508  3.6512
  697MOL0     H94081   1.048   9.899   5.463 -1.4926 -1.8288  0.3179
  697MOL0     H94082   0.865   9.775   5.438  1.5928 -4.1932 -0.3927
  697MOL0     H94083   0.563   9.645   5.092  3.4562  0.8386  4.7563
  697MOL0     H94084   0.353   9.534   5.050  2.1395  2.6448 -2.5719
  697MOL0     H94085   0.202   9.387   4.955  0.7689 -0.5497 -0.0305
  697MOL0     H94086   0.306   9.304   4.828  0.2547 -1.1155 -0.5785
  697MOL0     H94087   0.179   9.093   4.892 -1.5283  0.5556 -2.7484
  697MOL0     H94088   0.079   9.193   4.810 -0.4639 -0.2407 -1.4171
  697MOL0     H94089   0.121   9.194   5.117  0.4197 -3.2435  1.2057
  697MOL0     H94090   0.046   9.060   5.058  0.0482  0.3319  3.1889
  697MOL0     H94091  -0.133   9.225   4.943  0.5868 -1.4110 -1.1774
  697MOL0     H94092  -0.058   9.342   5.053 -1.4380 -0.1762  2.0564
  697MOL0     H94093  -0.278   9.087   5.310 -1.3588  0.3798 -0.4254
  697MOL0     H94094   0.543   9.155   5.122 -2.7555  0.3451 -0.7127
  697MOL0     H94095   0.731   9.269   5.214  1.4923  2.3019 -1.0422
  698MOL0     O94096  10.713   0.221   2.962  1.0138  0.2196  0.3143
  698MOL0     C94097  10.730   0.115   2.903  0.3312 -0.2708  0.1079
  698MOL0     O94098  10.738  -0.005   2.962  0.5547  0.6576  0.0461
  698MOL0     C94099  10.727  -0.021   3.093  1.6802  0.2096 -0.1159
  698MOL0     C94100  10.601  -0.058   3.140  0.6922 -0.4297 -0.3067
  698MOL0     C94101  10.591  -0.080   3.273 -0.2655  0.5211 -0.0153
  698MOL0     C94102  10.696  -0.068   3.366 -0.5400  0.2353  0.1027
  698MOL0     O94103  10.686  -0.074   3.495  0.9436 -0.1363  0.8456
  698MOL0     C94104  10.604  -0.185   3.544 -0.0214  0.3200  0.1713
  698MOL0     C94105  10.688  -0.272   3.652  0.1287  0.1123 -0.0717
  698MOL0     C94106  10.808  -0.362   3.597  0.6717 -0.7796  0.6025
  698MOL0     C94107  10.739  -0.497   3.537 -0.3798 -0.0128 -0.6784
  698MOL0     C94108  10.819  -0.612   3.495 -1.4413  1.0663 -0.0980
  698MOL0     C94109  10.935  -0.561   3.407  0.6253  0.2685  0.1104
  698MOL0     C94110  10.893  -0.512   3.259 -0.1277  0.0562 -0.3691
  698MOL0     C94111  10.986  -0.412   3.200  0.3004  0.9869 -1.0540
  698MOL0     N94112  11.120  -0.471   3.160  0.3305  0.2769  0.3249
  698MOL0     C94113  11.146  -0.602   3.152 -0.6045  0.0426 -0.2341
  698MOL0     C94114  11.267  -0.611   3.096  0.0971 -1.1803  0.1276
  698MOL0     C94115  11.352  -0.722   3.060  0.5659 -0.0712 -0.2011
  698MOL0     C94116  11.328  -0.763   2.911 -0.3938 -0.1683 -0.6601
  698MOL0     C94117  11.403  -0.901   2.888  0.1568  0.6787 -0.1435
  698MOL0     C94118  11.380  -0.952   2.747  0.3322 -0.1618  0.2121
  698MOL0     O94119  11.459  -1.076   2.735  0.5274 -0.1139 -0.4864
  698MOL0     C94120  11.471  -1.136   2.609  0.3668  0.6998 -0.3329
  698MOL0     C94121  11.397  -1.106   2.493 -0.0186  0.1174  0.7947
  698MOL0     C94122  11.406  -1.186   2.382  0.0558  0.6615 -0.6447
  698MOL0     C94123  11.295  -1.164   2.276  0.1206 -1.0591 -0.0356
  698MOL0     C94124  11.497  -1.296   2.385 -0.0180  0.0660 -0.9197
  698MOL0     C94125  11.501  -1.405   2.278  0.1307 -0.4311  0.0949
  698MOL0     O94126  11.591  -1.509   2.289 -0.1969 -0.5358 -0.1171
  698MOL0     C94127  11.560  -1.626   2.222 -0.2903 -0.3014 -0.3915
  698MOL0     C94128  11.435  -1.673   2.185  0.5539  0.0839 -0.3489
  698MOL0     C94129  11.433  -1.796   2.111 -0.6219  0.1683 -0.1502
  698MOL0     C94130  11.556  -1.871   2.080  0.8161 -0.4427 -0.1249
  698MOL0     O94131  11.547  -1.986   2.010 -0.0915  0.0070 -0.3565
  698MOL0     C94132  11.618  -1.993   1.887  0.2288 -0.5144  0.1029
  698MOL0     C94133  11.541  -2.080   1.782 -0.1495  0.4507 -0.0667
  698MOL0     C94134  11.611  -2.087   1.641 -0.2128 -0.5003 -0.2087
  698MOL0     C94135  11.635  -2.222   1.578 -0.0456 -0.6846  0.0510
  698MOL0     C94136  11.735  -2.222   1.468 -0.7299 -0.1217  0.6542
  698MOL0     C94137  11.757  -2.361   1.408  0.4063  0.9635  0.9255
  698MOL0     C94138  11.851  -2.356   1.287 -0.4251 -0.9972 -0.4366
  698MOL0     C94139  11.864  -2.492   1.212 -0.6552  0.6890 -0.6251
  698MOL0    Cl94140  11.952  -2.464   1.071  0.2985 -0.5700 -0.0250
  698MOL0     C94141  11.672  -1.816   2.125 -0.0063 -0.2739  0.2714
  698MOL0     C94142  11.674  -1.698   2.191 -0.2119 -0.7479  0.2266
  698MOL0     O94143  11.442  -1.378   2.176  0.6994  0.3810  0.4030
  698MOL0     C94144  11.577  -1.311   2.495 -0.0015 -0.4169  0.1239
  698MOL0     C94145  11.569  -1.240   2.613 -0.6145 -0.2473 -0.1406
  698MOL0     N94146  11.308  -0.489   3.064 -0.1769  0.9131  0.1897
  698MOL0     N94147  11.223  -0.404   3.109 -0.2800  0.4208 -1.1580
  698MOL0     C94148  10.822  -0.038   3.314  0.0157  0.5623  0.5446
  698MOL0     C94149  10.831  -0.011   3.177 -0.6748  0.9112 -0.6885
  698MOL0     C94150  10.710   0.132   2.764 -0.3551  0.1037  0.0230
  698MOL0     C94151  10.725   0.253   2.699  1.0703 -0.5753 -0.5312
  698MOL0     C94152  10.687   0.266   2.563 -0.2317  1.1098  0.0282
  698MOL0     C94153  10.654   0.153   2.484  0.5708 -0.4893 -0.5052
  698MOL0     O94154  10.626   0.176   2.350  0.2369  0.0886 -0.8951
  698MOL0     C94155  10.600   0.061   2.273 -0.6284  0.0772  0.1225
  698MOL0     C94156  10.726  -0.013   2.226  0.1855  0.0858 -0.2051
  698MOL0     C94157  10.696  -0.131   2.139 -0.3173  0.0717 -0.2898
  698MOL0     C94158  10.643  -0.254   2.206  0.5597  0.2519 -0.3655
  698MOL0     C94159  10.748  -0.324   2.280  0.5770  0.1859  0.5890
  698MOL0     C94160  10.827  -0.398   2.330 -0.3975  0.1082 -0.5646
  698MOL0     C94161  10.664   0.028   2.546  0.5281 -0.3187 -0.2484
  698MOL0     C94162  10.683   0.021   2.690 -0.0339 -0.1726  1.5335
  698MOL0     H94163  10.520  -0.057   3.068  1.4050  2.5740 -1.2079
  698MOL0     H94164  10.492  -0.084   3.318 -0.8163  4.4278 -0.5123
  698MOL0     H94165  10.522  -0.136   3.597  0.4526  2.0888 -0.6458
  698MOL0     H94166  10.555  -0.248   3.469 -0.8153  1.8136 -0.6319
  698MOL0     H94167  10.730  -0.196   3.719 -1.0315  3.0858 -2.4736
  698MOL0     H94168  10.613  -0.327   3.709  0.4241  0.1467  0.3583
  698MOL0     H94169  10.847  -0.312   3.508 -1.4560  1.9685  1.0717
  698MOL0     H94170  10.881  -0.388   3.674  0.3626 -1.0378  0.8112
  698MOL0     H94171  10.663  -0.525   3.610 -0.9952  2.1240 -0.4207
  698MOL0     H94172  10.678  -0.450   3.459 -0.6633  3.2192  1.2709
  698MOL0     H94173  10.868  -0.672   3.572 -0.2028 -0.7694 -2.1760
  698MOL0     H94174  10.759  -0.669   3.423 -1.1764 -1.1573  1.3226
  698MOL0     H94175  10.995  -0.482   3.453  1.6344 -0.6110  0.3345
  698MOL0     H94176  11.005  -0.644   3.402  0.0671 -0.4106  2.3973
  698MOL0     H94177  10.882  -0.594   3.187 -1.6664  2.2107 -2.7347
  698MOL0     H94178  10.795  -0.464   3.274  0.2368  0.4770  0.8376
  698MOL0     H94179  10.990  -0.328   3.270 -0.5870 -0.3460  0.6839
  698MOL0     H94180  10.942  -0.374   3.108 -0.9358 -5.3681 -3.6466
  698MOL0     H94181  11.090  -0.686   3.191  1.1753 -1.2373 -0.3306
  698MOL0     H94182  11.456  -0.697   3.082  0.3976 -0.6070  1.2630
  698MOL0     H94183  11.334  -0.803   3.131  1.3625 -0.6963 -0.6936
  698MOL0     H94184  11.367  -0.677   2.856 -0.7763  1.0783  0.9490
  698MOL0     H94185  11.221  -0.777   2.894 -0.4561  0.8842 -1.1622
  698MOL0     H94186  11.376  -0.985   2.953  2.5584 -2.0899 -2.4268
  698MOL0     H94187  11.512  -0.897   2.898 -0.0089  0.0813  5.2936
  698MOL0     H94188  11.400  -0.883   2.665  0.6430 -2.9107 -2.1754
  698MOL0     H94189  11.272  -0.966   2.737  0.0776  2.0745 -0.8772
  698MOL0     H94190  11.332  -1.020   2.502  0.1240  0.4900 -1.2551
  698MOL0     H94191  11.231  -1.252   2.264 -2.8816  1.2110 -2.1985
  698MOL0     H94192  11.242  -1.070   2.288  0.9988 -0.1905 -2.3074
  698MOL0     H94193  11.344  -1.138   2.181 -1.9472  2.4165 -0.3342
  698MOL0     H94194  11.342  -1.622   2.204  1.0576  0.5693  0.9590
  698MOL0     H94195  11.339  -1.837   2.076 -2.2557  1.6101  2.2378
  698MOL0     H94196  11.633  -1.894   1.842  0.8572 -0.0522  1.2956
  698MOL0     H94197  11.719  -2.033   1.898  0.2082 -0.5400  0.1995
  698MOL0     H94198  11.537  -2.183   1.817  0.4517 -1.2018 -4.3468
  698MOL0     H94199  11.440  -2.039   1.792 -2.8303 -5.4257  1.5857
  698MOL0     H94200  11.716  -2.056   1.642 -0.0016 -1.1707 -0.7341
  698MOL0     H94201  11.554  -2.018   1.579 -0.8575 -0.4420  0.4273
  698MOL0     H94202  11.668  -2.287   1.659 -1.8365 -1.3304  0.2885
  698MOL0     H94203  11.539  -2.265   1.550 -2.5843  1.9647  3.7290
  698MOL0     H94204  11.826  -2.181   1.513  0.6071 -2.6135  0.3638
  698MOL0     H94205  11.715  -2.146   1.392  0.4126  0.0043  0.4536
  698MOL0     H94206  11.786  -2.431   1.486  0.7972 -1.4813 -1.2637
  698MOL0     H94207  11.660  -2.406   1.384  0.2854 -1.8148  5.3806
  698MOL0     H94208  11.947  -2.322   1.327 -1.3559  0.4188  0.7019
  698MOL0     H94209  11.822  -2.274   1.220 -2.3463 -0.4701  0.9619
  698MOL0     H94210  11.767  -2.525   1.175  0.7351 -0.4630 -3.6001
  698MOL0     H94211  11.899  -2.563   1.288 -4.2441  0.0817  0.6596
  698MOL0     H94212  11.764  -1.872   2.109  0.3891  0.4867 -0.1706
  698MOL0     H94213  11.774  -1.667   2.218  0.4559 -1.0331 -1.7581
  698MOL0     H94214  11.656  -1.385   2.491  1.7190  1.3190  0.6245
  698MOL0     H94215  11.632  -1.274   2.694 -1.6591 -1.8606  0.0452
  698MOL0     H94216  10.901  -0.035   3.388 -0.9040  1.0907  1.5466
  698MOL0     H94217  10.932  -0.006   3.136  1.6016 -5.8068  2.4558
  698MOL0     H94218  10.763   0.344   2.745  0.5090 -0.9623  0.7581
  698MOL0     H94219  10.694   0.363   2.516  1.6207  2.5216  2.9188
  698MOL0     H94220  10.544  -0.013   2.331 -2.3044 -0.1234 -1.6448
  698MOL0     H94221  10.549   0.092   2.181  2.1124 -1.3333 -2.0230
  698MOL0     H94222  10.798  -0.042   2.302  0.8390 -4.9740 -2.3918
  698MOL0     H94223  10.775   0.062   2.164 -0.3055 -0.8725 -1.7999
  698MOL0     H94224  10.795  -0.152   2.098 -0.8432  0.3595 -1.7802
  698MOL0     H94225  10.638  -0.107   2.049  0.7404  0.5113 -0.8728
  698MOL0     H94226  10.605  -0.325   2.132 -0.5024 -1.7834  2.0185
  698MOL0     H94227  10.560  -0.233   2.274  0.0840 -0.2531 -0.7857
  698MOL0     H94228  10.919  -0.444   2.361  0.6223 -1.8174 -5.5827
  698MOL0     H94229  10.653  -0.069   2.499 -3.0155  1.6870 -4.2595
  698MOL0     H94230  10.682  -0.083   2.721  1.8538 -1.3168 -1.7021
  699MOL0     O94231   4.466   1.170   6.101  0.2496 -0.4721  0.1571
  699MOL0     C94232   4.529   1.131   6.198  0.9847  1.5525  0.1538
  699MOL0     O94233   4.537   1.201   6.315 -0.2092  0.2892 -0.5949
  699MOL0     C94234   4.488   1.323   6.323  1.2925 -0.0834 -1.2161
  699MOL0     C94235   4.516   1.427   6.237  0.0189 -0.4851  0.6140
  699MOL0     C94236   4.454   1.554   6.247 -0.0972  1.1605  0.3186
  699MOL0     C94237   4.388   1.595   6.365 -0.4129  0.6745  0.8197
  699MOL0     O94238   4.338   1.718   6.395 -0.2565  0.3695 -0.1906
  699MOL0     C94239   4.389   1.830   6.325 -0.0831 -0.5118 -0.1044
  699MOL0     C94240   4.296   1.875   6.209  0.8239  0.6435  0.0205
  699MOL0     C94241   4.336   2.024   6.172  0.1312  0.5234 -0.7722
  699MOL0     C94242   4.259   2.134   6.241 -0.6750  0.8341  0.5368
  699MOL0     C94243   4.302   2.272   6.212 -0.2455 -0.3628 -0.6456
  699MOL0     C94244   4.333   2.295   6.059 -0.0771  0.8921 -0.1269
  699MOL0     C94245   4.405   2.430   6.058 -0.8528  0.3923  0.2688
  699MOL0     C94246   4.409   2.477   5.912  0.3679 -0.2538 -0.6189
  699MOL0     N94247   4.472   2.605   5.903 -0.2205  0.8925  0.0460
  699MOL0     C94248   4.417   2.723   5.936  0.2924 -0.0984  0.1573
  699MOL0     C94249   4.496   2.816   5.885  0.2727  0.0207  0.3497
  699MOL0     C94250   4.475   2.960   5.889 -0.2895 -0.3416 -0.0932
  699MOL0     C94251   4.545   3.042   5.770  0.7717  0.3785 -0.4540
  699MOL0     C94252   4.678   3.119   5.811 -0.8915  0.1896 -0.6271
  699MOL0     C94253   4.749   3.190   5.699  0.1398 -0.5433  0.1978
  699MOL0     O94254   4.668   3.296   5.644 -0.1195  0.2029  0.6008
  699MOL0     C94255   4.724   3.403   5.589  0.3579  0.0385 -0.7671
  699MOL0     C94256   4.830   3.383   5.505  0.2154 -0.3909  0.1496
  699MOL0     C94257   4.888   3.485   5.432  0.3404 -0.3618  0.5092
  699MOL0     C94258   4.975   3.442   5.329 -1.5125 -0.1121  0.2063
  699MOL0     C94259   4.869   3.621   5.466 -0.2010 -0.3024  0.8314
  699MOL0     C94260   4.942   3.737   5.408 -0.1990 -0.9148  0.6152
  699MOL0     O94261   4.972   3.835   5.497  0.2400  1.1690  0.0206
  699MOL0     C94262   5.090   3.888   5.497  0.1499 -1.0846  0.9171
  699MOL0     C94263   5.199   3.817   5.531  0.2702 -1.5222 -0.4159
  699MOL0     C94264   5.315   3.877   5.547 -0.1533  0.7076  0.4192
  699MOL0     C94265   5.337   4.013   5.534 -0.2554  0.2840  0.0453
  699MOL0     O94266   5.467   4.069   5.542  0.5023 -0.2482 -1.2045
  699MOL0     C94267   5.475   4.206   5.586  0.6475  0.2658  0.6784
  699MOL0     C94268   5.606   4.274   5.566 -0.3855 -0.5256  0.1714
  699MOL0     C94269   5.621   4.396   5.662 -0.1124  0.2241 -0.2386
  699MOL0     C94270   5.755   4.472   5.654 -0.2532  0.2956  0.0126
  699MOL0     C94271   5.778   4.556   5.781 -0.1175  0.8724 -0.1643
  699MOL0     C94272   5.918   4.533   5.828 -1.5505 -0.4629 -0.0542
  699MOL0     C94273   5.960   4.634   5.934  0.2111 -0.0069 -0.5424
  699MOL0     C94274   6.093   4.708   5.918  0.6449  0.6249  1.3588
  699MOL0    Cl94275   6.100   4.786   5.754  0.1147 -0.2382  0.2062
  699MOL0     C94276   5.226   4.092   5.504  0.4060 -0.3335 -0.2912
  699MOL0     C94277   5.106   4.031   5.488  0.2589  0.5232 -0.4895
  699MOL0     O94278   4.937   3.750   5.287 -0.0132 -0.6466 -0.0531
  699MOL0     C94279   4.779   3.638   5.571  0.7245 -0.8139 -0.5380
  699MOL0     C94280   4.703   3.533   5.626 -0.6260  0.4278  0.2167
  699MOL0     N94281   4.608   2.756   5.836  0.2047  0.0288  0.8169
  699MOL0     N94282   4.586   2.630   5.839  0.2112  0.4036  0.3148
  699MOL0     C94283   4.367   1.492   6.459 -0.9105  0.0003 -0.1488
  699MOL0     C94284   4.411   1.362   6.435  1.0054  0.6910 -1.1786
  699MOL0     C94285   4.625   1.011   6.193  0.4108  0.2427 -0.0384
  699MOL0     C94286   4.725   1.006   6.302  0.5721 -0.3525 -0.2943
  699MOL0     C94287   4.824   0.902   6.297  0.3145  0.0119 -0.0482
  699MOL0     C94288   4.823   0.811   6.185 -0.4531 -0.5986  0.5816
  699MOL0     O94289   4.913   0.707   6.156 -0.1121  0.4997  0.4292
  699MOL0     C94290   4.968   0.640   6.273 -0.1035 -0.1599 -0.2628
  699MOL0     C94291   5.058   0.525   6.243 -0.4110  0.2376  0.5872
  699MOL0     C94292   5.079   0.432   6.365 -0.3708 -0.7878  0.3399
  699MOL0     C94293   5.229   0.386   6.364  0.2565  1.2022  0.1872
  699MOL0     C94294   5.257   0.323   6.232 -0.1228 -0.5215  0.0627
  699MOL0     C94295   5.295   0.259   6.133 -0.4901 -0.1474  0.8447
  699MOL0     C94296   4.739   0.837   6.079 -0.0816  0.0037 -0.2895
  699MOL0     C94297   4.644   0.934   6.079  0.1813  0.5526 -0.1220
  699MOL0     H94298   4.590   1.411   6.159 -0.8218 -3.3301  0.2989
  699MOL0     H94299   4.475   1.636   6.179 -1.7579  0.3558 -1.2551
  699MOL0     H94300   4.383   1.907   6.403  1.4452 -0.8853  0.4073
  699MOL0     H94301   4.495   1.817   6.302 -0.2740  0.5027 -1.6655
  699MOL0     H94302   4.314   1.808   6.125 -0.8730 -0.1143  0.2253
  699MOL0     H94303   4.189   1.869   6.234  0.7856  0.9198 -0.0737
  699MOL0     H94304   4.444   2.041   6.180  0.1997 -0.3240  0.4789
  699MOL0     H94305   4.305   2.042   6.068 -2.2488 -0.4554 -0.2874
  699MOL0     H94306   4.159   2.122   6.199 -0.1459 -0.5095 -0.4095
  699MOL0     H94307   4.245   2.106   6.346  0.0412 -5.2337 -0.5810
  699MOL0     H94308   4.215   2.328   6.250  1.6922  1.9283  0.7334
  699MOL0     H94309   4.387   2.302   6.274 -0.4672 -2.1435  0.6121
  699MOL0     H94310   4.394   2.223   6.005 -1.4771 -2.2999  2.1929
  699MOL0     H94311   4.239   2.296   6.004  0.2047  1.0918 -0.6091
  699MOL0     H94312   4.370   2.515   6.116  0.7563  2.2773 -1.3564
  699MOL0     H94313   4.504   2.410   6.099 -0.4108  1.4914 -0.2232
  699MOL0     H94314   4.307   2.477   5.873  0.3819 -1.3512 -0.6884
  699MOL0     H94315   4.462   2.396   5.862  2.3492 -0.7257  2.0275
  699MOL0     H94316   4.318   2.729   5.981 -0.2718  2.0496 -1.2193
  699MOL0     H94317   4.368   2.980   5.877 -0.0885  1.3449  0.5863
  699MOL0     H94318   4.495   3.002   5.988  0.3947 -0.0565 -0.3518
  699MOL0     H94319   4.464   3.105   5.734  0.8083  0.1535 -0.9353
  699MOL0     H94320   4.557   2.989   5.675 -2.2106  0.3191 -0.8916
  699MOL0     H94321   4.744   3.038   5.846 -1.3560  0.1597  0.2067
  699MOL0     H94322   4.656   3.197   5.885  1.5232 -0.3170  0.7306
  699MOL0     H94323   4.768   3.117   5.619  1.5630 -1.5303  1.3995
  699MOL0     H94324   4.841   3.228   5.743  1.7512 -0.1066 -3.2147
  699MOL0     H94325   4.861   3.280   5.490  3.0973  0.3374  0.5143
  699MOL0     H94326   4.973   3.515   5.248  0.0571 -1.4138 -1.0789
  699MOL0     H94327   5.082   3.452   5.354 -1.3381 -0.4053 -0.4010
  699MOL0     H94328   4.963   3.340   5.290  0.5230 -0.5956  0.6773
  699MOL0     H94329   5.200   3.716   5.571  3.7023 -1.0694  0.9576
  699MOL0     H94330   5.399   3.815   5.575  0.5025  1.0790 -0.6985
  699MOL0     H94331   5.397   4.275   5.550 -0.0883 -0.2374  1.2573
  699MOL0     H94332   5.458   4.197   5.694 -0.4858 -2.8932  0.3220
  699MOL0     H94333   5.689   4.205   5.583  0.3147  0.3000  0.1443
  699MOL0     H94334   5.599   4.309   5.462 -0.8326  0.7054  0.6052
  699MOL0     H94335   5.607   4.357   5.764  0.4261 -1.1238 -0.6569
  699MOL0     H94336   5.542   4.470   5.645 -1.3239 -0.8567  0.4879
  699MOL0     H94337   5.841   4.409   5.632 -1.4857 -1.3982 -0.1233
  699MOL0     H94338   5.736   4.536   5.567  0.8505  0.4288 -0.1439
  699MOL0     H94339   5.701   4.552   5.859  0.7384  1.2957  0.7230
  699MOL0     H94340   5.760   4.658   5.746  0.2489  0.4021 -1.8357
  699MOL0     H94341   5.929   4.438   5.880 -3.1376  1.3566  3.9819
  699MOL0     H94342   5.988   4.543   5.744 -3.2272  0.2714 -1.4363
  699MOL0     H94343   5.951   4.589   6.033 -3.1525  2.1404  0.2870
  699MOL0     H94344   5.879   4.706   5.951 -0.8309 -0.0023 -4.5968
  699MOL0     H94345   6.177   4.639   5.922 -0.5941 -1.1449 -0.6963
  699MOL0     H94346   6.092   4.786   5.994 -2.5807  1.4718  0.6170
  699MOL0     H94347   5.230   4.199   5.485  2.2306 -0.9165 -4.4011
  699MOL0     H94348   5.009   4.080   5.478 -0.6477 -0.9231  0.7541
  699MOL0     H94349   4.763   3.739   5.607  0.9928 -0.7877 -0.4892
  699MOL0     H94350   4.636   3.544   5.710 -1.0611  1.1773 -0.2121
  699MOL0     H94351   4.314   1.520   6.550  0.5622  1.4124  0.3133
  699MOL0     H94352   4.379   1.283   6.502  2.9609 -0.3278 -1.3547
  699MOL0     H94353   4.723   1.066   6.393 -3.3323  0.6960 -0.8876
  699MOL0     H94354   4.897   0.891   6.376 -0.2658 -2.4713  0.2154
  699MOL0     H94355   5.023   0.703   6.344 -1.9151  0.7283  0.3958
  699MOL0     H94356   4.882   0.595   6.324 -0.0220  0.5477  0.5263
  699MOL0     H94357   5.148   0.546   6.185 -1.6626 -2.3407 -2.6037
  699MOL0     H94358   5.005   0.463   6.169  0.6745 -0.6979  0.5727
  699MOL0     H94359   5.021   0.340   6.371 -0.3682 -0.8147 -0.0213
  699MOL0     H94360   5.047   0.476   6.459  1.7382 -0.4500  0.9568
  699MOL0     H94361   5.253   0.326   6.452 -0.2679 -0.1963 -0.5909
  699MOL0     H94362   5.276   0.485   6.366 -3.7599  3.3738 -1.1113
  699MOL0     H94363   5.324   0.202   6.047  0.4955  0.2389  0.9100
  699MOL0     H94364   4.751   0.771   5.994  2.4846 -1.1246  0.8524
  699MOL0     H94365   4.585   0.949   5.989  0.0119 -4.6894 -1.2366
  700MOL0     O94366   1.322   2.384   6.413 -0.2186 -0.1011  1.0046
  700MOL0     C94367   1.431   2.378   6.464 -1.2360  0.1668  0.1009
  700MOL0     O94368   1.500   2.493   6.498 -0.4509  0.7906 -0.1893
  700MOL0     C94369   1.470   2.617   6.434 -0.1149  0.0793  0.1184
  700MOL0     C94370   1.472   2.729   6.515 -0.5404 -0.3288  0.2133
  700MOL0     C94371   1.416   2.852   6.473  0.7640 -0.4523  0.1372
  700MOL0     C94372   1.348   2.868   6.347 -0.0418  0.0874 -0.7004
  700MOL0     O94373   1.275   2.977   6.309  0.3893 -0.5087 -0.2316
  700MOL0     C94374   1.143   2.964   6.240  0.7110 -0.8363 -0.2391
  700MOL0     C94375   1.065   3.092   6.259 -0.3768  0.0105  0.1359
  700MOL0     C94376   1.123   3.222   6.209  0.3419  0.3921 -0.2782
  700MOL0     C94377   1.192   3.216   6.074  0.1268 -0.3045  0.8372
  700MOL0     C94378   1.227   3.362   6.039 -0.1477 -0.1615 -0.2786
  700MOL0     C94379   1.287   3.374   5.897 -0.8253 -0.3127  0.2117
  700MOL0     C94380   1.355   3.512   5.892  0.3642 -0.9486  0.6509
  700MOL0     C94381   1.432   3.536   5.757 -0.3791  0.5875 -0.1059
  700MOL0     N94382   1.557   3.464   5.753  0.1792 -0.0668 -0.1592
  700MOL0     C94383   1.672   3.497   5.811  0.2526 -0.4817  0.7838
  700MOL0     C94384   1.762   3.389   5.785  0.6531 -0.2050  0.0159
  700MOL0     C94385   1.910   3.383   5.809 -0.3030  0.4179  0.3471
  700MOL0     C94386   1.999   3.482   5.734  0.1299  0.6498  1.0866
  700MOL0     C94387   1.989   3.621   5.791 -0.1502 -0.4523  0.0536
  700MOL0     C94388   2.081   3.732   5.715  0.1228  0.2009  0.1635
  700MOL0     O94389   1.985   3.801   5.622 -0.4872 -0.0655 -0.7945
  700MOL0     C94390   2.023   3.895   5.528  0.6422 -0.3001  0.5424
  700MOL0     C94391   1.925   3.965   5.471  0.0723 -0.6440 -0.0945
  700MOL0     C94392   1.956   4.055   5.368  0.5142  0.0548 -0.2678
  700MOL0     C94393   1.839   4.149   5.325  0.4995  0.9263 -0.0304
  700MOL0     C94394   2.081   4.060   5.317 -0.8678 -0.4207 -0.2996
  700MOL0     C94395   2.124   4.156   5.211  0.0858 -0.5652 -0.0585
  700MOL0     O94396   2.045   4.182   5.100 -0.2151  0.1962 -0.6035
  700MOL0     C94397   2.112   4.239   4.992  0.3277 -0.4223 -0.6792
  700MOL0     C94398   2.058   4.353   4.941 -0.3324 -0.3163 -1.0428
  700MOL0     C94399   2.104   4.408   4.830  0.3500 -0.5375  0.2458
  700MOL0     C94400   2.205   4.345   4.756 -0.0393 -0.5311 -0.6782
  700MOL0     O94401   2.260   4.423   4.654 -0.7499  0.7458 -0.7313
  700MOL0     C94402   2.373   4.375   4.579  0.1065 -0.5746  0.1082
  700MOL0     C94403   2.396   4.488   4.474  0.8078 -0.5888  0.3660
  700MOL0     C94404   2.276   4.521   4.384 -0.0281  0.6187  0.4550
  700MOL0     C94405   2.296   4.441   4.250  0.1201  0.2975 -0.2280
  700MOL0     C94406   2.176   4.473   4.163  0.5831 -0.3355 -0.4189
  700MOL0     C94407   2.212   4.466   4.007  0.5065 -0.5324  0.3668
  700MOL0     C94408   2.273   4.334   3.956 -0.2602 -0.4483  0.7554
  700MOL0     C94409   2.287   4.342   3.804  0.4642  1.0148 -0.3015
  700MOL0    Cl94410   2.354   4.191   3.739  0.0239  0.1560  0.3408
  700MOL0     C94411   2.257   4.216   4.801  0.2299  0.5262 -0.9076
  700MOL0     C94412   2.208   4.171   4.920 -0.7312 -0.0031  0.1601
  700MOL0     O94413   2.237   4.192   5.223 -0.7741 -0.0983  0.1609
  700MOL0     C94414   2.185   3.981   5.375  0.4708 -0.5094 -0.3378
  700MOL0     C94415   2.159   3.907   5.488 -0.2364 -0.6548 -0.5081
  700MOL0     N94416   1.699   3.307   5.697  0.6674 -0.1878  0.1603
  700MOL0     N94417   1.573   3.343   5.694  0.0429  0.8748 -0.1971
  700MOL0     C94418   1.365   2.761   6.261  0.3226 -0.1939  0.5727
  700MOL0     C94419   1.419   2.638   6.305 -0.0616  0.2911  0.1077
  700MOL0     C94420   1.481   2.241   6.507 -0.4745 -0.4132 -0.3343
  700MOL0     C94421   1.394   2.140   6.467  0.6048 -0.1115 -0.8322
  700MOL0     C94422   1.424   2.009   6.499 -0.5403 -0.7373  0.1039
  700MOL0     C94423   1.550   1.982   6.566  0.2790 -0.1737  0.1190
  700MOL0     O94424   1.587   1.854   6.596 -0.2058  0.1786 -0.7544
  700MOL0     C94425   1.671   1.805   6.494  0.1477  0.1235  0.3205
  700MOL0     C94426   1.826   1.826   6.517  1.0027  0.2559 -0.4364
  700MOL0     C94427   1.900   1.731   6.425  1.7685 -0.1055  0.3957
  700MOL0     C94428   2.055   1.741   6.428  0.1051 -0.4192  1.3297
  700MOL0     C94429   2.104   1.873   6.387 -0.5189  0.6365  0.4918
  700MOL0     C94430   2.156   1.974   6.344 -0.0379  1.1821 -0.3669
  700MOL0     C94431   1.628   2.093   6.604 -1.0958  0.5398  0.4627
  700MOL0     C94432   1.597   2.219   6.583 -0.0195 -0.1377  0.9378
  700MOL0     H94433   1.510   2.728   6.616  1.2070  3.0895 -0.2598
  700MOL0     H94434   1.429   2.944   6.529  0.8105 -1.3609  1.6812
  700MOL0     H94435   1.160   2.945   6.133 -1.2289 -1.0023 -0.5572
  700MOL0     H94436   1.077   2.881   6.266  1.3841 -1.6158 -0.9374
  700MOL0     H94437   0.970   3.074   6.206  0.2312 -2.8347 -0.1484
  700MOL0     H94438   1.043   3.104   6.365 -1.6913  0.6414 -0.1756
  700MOL0     H94439   1.040   3.292   6.201 -0.3174  0.3826  4.2417
  700MOL0     H94440   1.191   3.267   6.282  0.7015 -0.7748  0.1275
  700MOL0     H94441   1.286   3.160   6.076  1.5320  1.8201 -1.2438
  700MOL0     H94442   1.116   3.161   6.018 -0.2911  0.5176  0.5852
  700MOL0     H94443   1.150   3.439   6.053 -0.5144 -0.3621 -1.1195
  700MOL0     H94444   1.297   3.398   6.114  0.9311 -1.8656 -0.4025
  700MOL0     H94445   1.363   3.296   5.895  1.7408  2.0222 -0.2579
  700MOL0     H94446   1.224   3.379   5.808 -1.2305 -0.1475  0.5099
  700MOL0     H94447   1.277   3.586   5.912  1.2923  0.3085 -0.2303
  700MOL0     H94448   1.433   3.526   5.967  0.1479  0.3402  0.6655
  700MOL0     H94449   1.454   3.642   5.743  0.3730  0.1537 -2.7843
  700MOL0     H94450   1.372   3.493   5.676 -1.5557 -1.1902  1.6108
  700MOL0     H94451   1.687   3.594   5.857  0.5158  0.8012 -1.8329
  700MOL0     H94452   1.934   3.392   5.916  4.0484  3.0395 -0.6192
  700MOL0     H94453   1.943   3.285   5.774 -0.1450  0.4126  0.5072
  700MOL0     H94454   1.975   3.486   5.627 -1.3189 -3.9608  1.0061
  700MOL0     H94455   2.102   3.453   5.758  0.9344  3.2931  1.1513
  700MOL0     H94456   2.035   3.605   5.889  3.8744 -1.1578 -1.7533
  700MOL0     H94457   1.889   3.665   5.801  0.0079  0.0547 -0.5301
  700MOL0     H94458   2.164   3.685   5.662 -1.3802 -0.7437 -1.4400
  700MOL0     H94459   2.124   3.804   5.785 -0.7658 -1.1800  2.2489
  700MOL0     H94460   1.824   3.967   5.512  0.6861  0.2883  1.4206
  700MOL0     H94461   1.857   4.202   5.231  0.3603 -1.9781 -1.8461
  700MOL0     H94462   1.744   4.094   5.320  2.2404 -2.8726  3.0652
  700MOL0     H94463   1.818   4.224   5.401  0.7173  0.3878  0.5736
  700MOL0     H94464   1.987   4.406   5.002  1.3552  4.4149 -2.7368
  700MOL0     H94465   2.073   4.507   4.798 -0.1502 -1.4968 -2.5139
  700MOL0     H94466   2.461   4.356   4.642 -0.8786 -1.0630  1.3810
  700MOL0     H94467   2.344   4.278   4.538  0.4338 -0.1348 -1.2163
  700MOL0     H94468   2.402   4.581   4.531 -1.9919 -0.7469  1.1132
  700MOL0     H94469   2.485   4.466   4.415 -0.6164  0.2373 -2.2190
  700MOL0     H94470   2.274   4.631   4.377  1.8380  0.6236 -0.5944
  700MOL0     H94471   2.181   4.492   4.429 -0.4416  0.2192 -0.6361
  700MOL0     H94472   2.391   4.464   4.201  0.0579 -0.8245 -0.9077
  700MOL0     H94473   2.293   4.335   4.278  1.1547  0.6618  1.4420
  700MOL0     H94474   2.147   4.577   4.180  3.2017  0.8811 -2.5432
  700MOL0     H94475   2.091   4.413   4.196  2.4579 -0.6703  4.7359
  700MOL0     H94476   2.124   4.486   3.944 -0.2362 -1.5218  1.0595
  700MOL0     H94477   2.279   4.552   3.995  2.1497 -1.1592  3.9407
  700MOL0     H94478   2.211   4.249   3.985 -1.9757  1.2204  2.2833
  700MOL0     H94479   2.374   4.311   3.991  0.5708 -2.9203 -2.7520
  700MOL0     H94480   2.333   4.431   3.760  1.3542 -0.7934 -3.3299
  700MOL0     H94481   2.187   4.347   3.761  0.6509 -0.8906 -1.0475
  700MOL0     H94482   2.337   4.160   4.752  0.7676  0.4837 -0.0132
  700MOL0     H94483   2.252   4.075   4.946 -1.4307 -0.6967 -1.1182
  700MOL0     H94484   2.290   3.984   5.348  1.0906 -2.5769  1.5391
  700MOL0     H94485   2.241   3.848   5.528  1.4421  2.6229  1.3275
  700MOL0     H94486   1.322   2.763   6.162 -0.4431  1.7621  0.9069
  700MOL0     H94487   1.417   2.556   6.234  0.9364 -0.1200  0.5435
  700MOL0     H94488   1.291   2.146   6.435  0.1570 -0.8516  0.4253
  700MOL0     H94489   1.360   1.933   6.455 -3.2209  1.8729 -0.9096
  700MOL0     H94490   1.645   1.698   6.497  1.8473 -0.3547 -0.8495
  700MOL0     H94491   1.643   1.842   6.395 -0.0171 -0.9634 -0.0495
  700MOL0     H94492   1.851   1.794   6.619 -1.6735 -3.5692 -0.7729
  700MOL0     H94493   1.853   1.931   6.500  1.2623  0.0094 -1.6482
  700MOL0     H94494   1.854   1.748   6.327  1.0311 -1.9654  0.3869
  700MOL0     H94495   1.868   1.629   6.449 -0.4409 -0.0496 -1.8831
  700MOL0     H94496   2.106   1.674   6.357  1.4635  1.6133  0.2721
  700MOL0     H94497   2.102   1.725   6.526 -3.0591  3.7773  3.8343
  700MOL0     H94498   2.199   2.068   6.314  0.8959  0.2165 -2.2201
  700MOL0     H94499   1.714   2.072   6.666  0.9702  0.2120 -2.3213
  700MOL0     H94500   1.662   2.300   6.616  0.4350 -1.0743  2.4569
  701MOL0     O94501   3.617  10.034   6.201  0.1232  1.0055  0.5522
  701MOL0     C94502   3.581  10.144   6.254 -0.0819 -0.3629 -0.1840
  701MOL0     O94503   3.456  10.196   6.231 -0.9648 -0.0919  0.2589
  701MOL0     C94504   3.366  10.129   6.163  0.3217  0.8674  0.0018
  701MOL0     C94505   3.316  10.174   6.042  0.4136  0.5417 -0.7066
  701MOL0     C94506   3.210  10.107   5.981  0.5249 -0.3963 -0.8019
  701MOL0     C94507   3.147   9.997   6.042  0.4457 -1.0593  0.0490
  701MOL0     O94508   3.041   9.939   5.988 -0.4300 -0.2821 -0.7227
  701MOL0     C94509   3.010   9.963   5.848  0.1916 -0.3078  0.2642
  701MOL0     C94510   2.927   9.848   5.804  1.1199  0.2430  0.3930
  701MOL0     C94511   2.965   9.701   5.846  0.2567  0.7404 -0.9859
  701MOL0     C94512   2.871   9.608   5.771  0.1305  0.0767  0.7416
  701MOL0     C94513   2.928   9.465   5.783  0.4760 -0.0756  0.1695
  701MOL0     C94514   3.030   9.427   5.673  0.2942  0.5380 -0.6991
  701MOL0     C94515   3.050   9.274   5.649  0.2561 -0.3297 -0.3317
  701MOL0     C94516   3.108   9.199   5.755 -0.5709  0.5827 -0.6977
  701MOL0     N94517   3.252   9.238   5.790  0.5957  0.6448  0.9354
  701MOL0     C94518   3.373   9.201   5.727  0.3965 -0.5261 -0.3292
  701MOL0     C94519   3.474   9.251   5.797 -0.4763  0.6067 -0.3477
  701MOL0     C94520   3.621   9.214   5.779  0.0549 -0.8016  0.2782
  701MOL0     C94521   3.721   9.336   5.782 -0.6779  0.2505 -0.0826
  701MOL0     C94522   3.855   9.290   5.724 -1.4046 -0.8620 -0.4750
  701MOL0     C94523   3.941   9.410   5.703  0.8991 -0.9257 -0.7815
  701MOL0     O94524   3.964   9.487   5.830  0.2954  0.1780  0.1370
  701MOL0     C94525   4.057   9.438   5.921 -0.3566  0.2779  1.0470
  701MOL0     C94526   4.149   9.337   5.908 -0.8295 -0.3780  0.3214
  701MOL0     C94527   4.248   9.307   5.999 -0.2279  0.5200 -0.5264
  701MOL0     C94528   4.348   9.201   5.958  0.2899  0.3264 -0.2693
  701MOL0     C94529   4.239   9.369   6.130 -0.1184  0.6126 -0.5107
  701MOL0     C94530   4.323   9.329   6.250 -0.6845  0.0493 -0.1158
  701MOL0     O94531   4.377   9.427   6.341 -0.5230 -0.5555  0.6025
  701MOL0     C94532   4.436   9.383   6.458  0.1239  0.9218 -0.0954
  701MOL0     C94533   4.369   9.375   6.579  0.1678 -0.6573  0.7901
  701MOL0     C94534   4.432   9.340   6.700  0.8057 -0.5526 -0.2806
  701MOL0     C94535   4.559   9.298   6.697 -0.7017 -0.1189 -0.3475
  701MOL0     O94536   4.621   9.229   6.801  0.1365  0.3086 -0.2384
  701MOL0     C94537   4.553   9.224   6.927  0.9137 -0.5705  0.1521
  701MOL0     C94538   4.623   9.137   7.037 -0.5678  0.2665  0.4500
  701MOL0     C94539   4.530   9.092   7.148 -0.0257 -1.7559 -1.1394
  701MOL0     C94540   4.544   9.189   7.277 -0.1444  0.4195 -0.5021
  701MOL0     C94541   4.504   9.123   7.407  0.0114 -0.5838 -0.1038
  701MOL0     C94542   4.538   9.210   7.535  0.1406  0.4278  0.1047
  701MOL0     C94543   4.497   9.132   7.668  1.0161 -0.0954  0.6618
  701MOL0     C94544   4.516   9.214   7.792  0.2808 -0.2488 -0.2735
  701MOL0    Cl94545   4.700   9.230   7.810  0.2524 -0.2215  0.3506
  701MOL0     C94546   4.638   9.306   6.576 -0.3480  0.2910 -0.5035
  701MOL0     C94547   4.572   9.355   6.464  0.1817  0.8877  0.0887
  701MOL0     O94548   4.349   9.215   6.252 -0.1548  0.3337 -0.3081
  701MOL0     C94549   4.148   9.477   6.148 -0.5597  0.7167 -0.4091
  701MOL0     C94550   4.067   9.508   6.043  0.4117 -0.6736  0.9037
  701MOL0     N94551   3.420   9.331   5.897  0.5820  0.1986 -0.2853
  701MOL0     N94552   3.282   9.330   5.884 -0.6816  0.8740  0.8083
  701MOL0     C94553   3.187   9.956   6.163 -0.4798  0.2923 -0.6756
  701MOL0     C94554   3.306  10.014   6.223 -0.4992  0.2871  0.5850
  701MOL0     C94555   3.662  10.189   6.373 -0.2958  0.7880  0.7970
  701MOL0     C94556   3.612  10.279   6.469 -0.5992 -1.3084  0.2336
  701MOL0     C94557   3.703  10.326   6.565  0.5949  0.2172 -0.4241
  701MOL0     C94558   3.835  10.288   6.555  0.0430 -0.6394 -0.6699
  701MOL0     O94559   3.930  10.339   6.626 -0.0645 -0.1679 -0.0975
  701MOL0     C94560   3.945  10.483   6.610  0.2403 -0.4163 -0.0664
  701MOL0     C94561   4.089  10.532   6.581 -0.2846  0.0216 -0.6196
  701MOL0     C94562   4.173  10.449   6.481  0.0753 -0.2795  0.4509
  701MOL0     C94563   4.222  10.531   6.356 -0.0981 -0.8909 -0.1993
  701MOL0     C94564   4.345  10.592   6.385 -0.6716 -0.2557  0.3189
  701MOL0     C94565   4.460  10.640   6.402  0.5378 -0.4567 -0.2060
  701MOL0     C94566   3.873  10.197   6.453 -0.2570  0.3088  0.0040
  701MOL0     C94567   3.790  10.143   6.368  0.5056  0.2794  0.3346
  701MOL0     H94568   3.365  10.263   6.003  2.6086 -1.2634 -2.3293
  701MOL0     H94569   3.170  10.146   5.887  2.9102  4.0806 -0.2319
  701MOL0     H94570   2.959  10.060   5.842  2.7128  1.0279 -1.9511
  701MOL0     H94571   3.100   9.961   5.785  1.9979 -0.9242  2.6874
  701MOL0     H94572   2.826   9.864   5.841  0.1482 -0.6826 -1.7046
  701MOL0     H94573   2.922   9.872   5.697  3.0577  1.7503  0.5655
  701MOL0     H94574   3.070   9.683   5.821  1.5467  0.5393  3.5766
  701MOL0     H94575   2.960   9.677   5.953 -1.1761  2.2838 -0.6678
  701MOL0     H94576   2.774   9.618   5.822 -1.1811  1.0973 -1.7869
  701MOL0     H94577   2.851   9.636   5.668 -1.7618 -2.0968  0.4297
  701MOL0     H94578   2.974   9.458   5.882  0.4381  2.0264  0.3810
  701MOL0     H94579   2.855   9.384   5.788  0.5287 -0.1044  4.9898
  701MOL0     H94580   2.994   9.470   5.578  2.6436  2.1548 -0.9316
  701MOL0     H94581   3.124   9.475   5.700 -0.6234  1.4957  0.9500
  701MOL0     H94582   2.950   9.241   5.619  0.5155  2.1369 -4.8346
  701MOL0     H94583   3.099   9.254   5.553  0.3443 -1.3000 -0.0972
  701MOL0     H94584   3.122   9.096   5.721  3.0591  0.1580  1.5166
  701MOL0     H94585   3.051   9.208   5.848  1.7168 -1.1945  1.0088
  701MOL0     H94586   3.379   9.138   5.638 -0.1618  1.5682 -1.9174
  701MOL0     H94587   3.663   9.139   5.847 -2.0304 -2.8309 -0.5423
  701MOL0     H94588   3.619   9.162   5.683 -0.1046 -2.3686  1.0894
  701MOL0     H94589   3.739   9.361   5.887  0.3014 -0.4470 -0.0726
  701MOL0     H94590   3.686   9.418   5.719  1.4352  1.1658 -0.1245
  701MOL0     H94591   3.833   9.241   5.629  1.7108 -3.0731 -0.2201
  701MOL0     H94592   3.916   9.227   5.790 -2.2134 -0.5869  0.5581
  701MOL0     H94593   3.888   9.482   5.640 -0.8377  0.7314  2.2689
  701MOL0     H94594   4.038   9.379   5.664  0.8425  0.9926 -2.6206
  701MOL0     H94595   4.146   9.287   5.812 -0.1184 -2.2672  1.2362
  701MOL0     H94596   4.351   9.119   6.031  0.0734  2.6496  2.5226
  701MOL0     H94597   4.314   9.151   5.867  0.5254  1.1940 -0.8478
  701MOL0     H94598   4.449   9.244   5.959  0.5549 -0.1847 -1.7536
  701MOL0     H94599   4.269   9.406   6.552  1.0540  0.3843 -1.6213
  701MOL0     H94600   4.373   9.363   6.789  1.5778  0.4015  0.0031
  701MOL0     H94601   4.553   9.326   6.964  1.8591 -0.7157  0.5701
  701MOL0     H94602   4.451   9.186   6.910  1.9349 -2.6883 -1.7666
  701MOL0     H94603   4.662   9.043   6.997 -0.8795 -1.2535  3.4645
  701MOL0     H94604   4.708   9.192   7.077  0.1979 -1.6208  1.5646
  701MOL0     H94605   4.561   8.996   7.192  0.8656 -0.7647  0.5436
  701MOL0     H94606   4.426   9.086   7.116 -0.8774  1.9662  0.4825
  701MOL0     H94607   4.650   9.211   7.287 -0.3068  1.4409 -0.9913
  701MOL0     H94608   4.486   9.281   7.267  1.2730  1.3913 -0.0442
  701MOL0     H94609   4.542   9.021   7.422  3.2814  0.6145  0.6433
  701MOL0     H94610   4.396   9.112   7.404 -0.3947  2.5105  0.0210
  701MOL0     H94611   4.643   9.241   7.537 -0.5268  2.8040  0.9521
  701MOL0     H94612   4.477   9.300   7.527  2.1722  1.8982  0.3921
  701MOL0     H94613   4.556   9.041   7.682  2.5451  0.5870 -0.9860
  701MOL0     H94614   4.392   9.102   7.673  0.2808  1.7350 -1.9159
  701MOL0     H94615   4.466   9.191   7.887 -1.5711  1.9919 -0.6087
  701MOL0     H94616   4.480   9.315   7.767 -1.0329 -0.7908 -0.6478
  701MOL0     H94617   4.743   9.277   6.579 -0.8462 -1.5442 -0.1613
  701MOL0     H94618   4.631   9.362   6.373 -0.2036  1.6222 -0.1109
  701MOL0     H94619   4.112   9.534   6.233 -2.1600  0.2591 -0.7377
  701MOL0     H94620   3.993   9.586   6.058 -1.1452 -2.3152  2.1380
  701MOL0     H94621   3.134   9.879   6.218  0.8699  1.7490  2.9321
  701MOL0     H94622   3.349   9.988   6.319 -0.7347  0.0306  0.6222
  701MOL0     H94623   3.514  10.324   6.451  0.9992  1.4766 -2.6605
  701MOL0     H94624   3.673  10.395   6.643 -0.9956 -1.3922  0.4765
  701MOL0     H94625   3.883  10.516   6.526  1.0464  4.9919  1.0884
  701MOL0     H94626   3.901  10.523   6.702  1.2867  0.8204 -0.0933
  701MOL0     H94627   4.149  10.541   6.672  0.2670  2.3090 -1.1498
  701MOL0     H94628   4.086  10.631   6.535  0.8523  0.7111  0.7111
  701MOL0     H94629   4.115  10.365   6.442  4.2472 -2.3128 -1.9620
  701MOL0     H94630   4.258  10.399   6.528  0.2816 -0.6862 -0.3454
  701MOL0     H94631   4.141  10.597   6.324 -1.6280 -2.5046  0.1317
  701MOL0     H94632   4.234  10.462   6.272 -2.1191  0.6610 -1.8468
  701MOL0     H94633   4.563  10.672   6.409  1.3488 -3.1981  2.3689
  701MOL0     H94634   3.979  10.180   6.436 -0.0682  0.4755  0.9517
  701MOL0     H94635   3.826  10.081   6.287  0.8631 -0.4461  1.0365
  702MOL0     O94636   0.443   2.511   9.727 -0.4498 -0.5065  0.9462
  702MOL0     C94637   0.325   2.508   9.756 -1.3708 -1.0998  0.9630
  702MOL0     O94638   0.250   2.399   9.798 -0.4612 -0.6048 -1.8000
  702MOL0     C94639   0.317   2.289   9.843  0.3302  0.2479  1.5131
  702MOL0     C94640   0.309   2.250   9.978  0.1611 -0.6179  0.3464
  702MOL0     C94641   0.374   2.138  10.024 -0.4698  0.5024 -0.2527
  702MOL0     C94642   0.458   2.067   9.938  0.6222 -0.5867  0.3321
  702MOL0     O94643   0.530   1.962   9.993  0.0286 -0.0375  0.4745
  702MOL0     C94644   0.680   1.972   9.981  1.1179  0.4959 -0.3539
  702MOL0     C94645   0.746   1.853  10.053  1.4285 -0.2335  0.0097
  702MOL0     C94646   0.740   1.876  10.211 -0.5976  0.6780  0.4814
  702MOL0     C94647   0.616   1.808  10.276  1.0122 -0.5742 -0.1381
  702MOL0     C94648   0.650   1.792  10.430  0.4748  0.8877 -0.1881
  702MOL0     C94649   0.554   1.686  10.482  0.6431 -0.3256  0.4667
  702MOL0     C94650   0.613   1.628  10.610  1.1851  0.7625  0.4890
  702MOL0     C94651   0.540   1.495  10.646  0.1415  0.4188  0.1663
  702MOL0     N94652   0.595   1.374  10.582 -0.4069  0.2120  0.9077
  702MOL0     C94653   0.725   1.332  10.588 -0.6327 -0.5643 -0.6022
  702MOL0     C94654   0.727   1.205  10.535 -0.0244 -0.3422 -0.4923
  702MOL0     C94655   0.850   1.123  10.529  0.3094 -0.5664  0.3217
  702MOL0     C94656   0.858   1.009  10.630  0.2546 -0.2472 -0.4809
  702MOL0     C94657   0.801   0.880  10.573  0.3961 -0.0416 -0.0385
  702MOL0     C94658   0.782   0.787  10.694  0.7456 -1.0515  0.1973
  702MOL0     O94659   0.795   0.656  10.655 -0.1117  0.6990  0.3804
  702MOL0     C94660   0.682   0.578  10.649 -0.7248 -0.0707 -0.3153
  702MOL0     C94661   0.696   0.431  10.655 -0.4002  0.0248 -0.4040
  702MOL0     C94662   0.585   0.355  10.632 -0.9213 -0.1111 -1.1209
  702MOL0     C94663   0.604   0.212  10.649  0.3233  0.5943 -0.3611
  702MOL0     C94664   0.452   0.415  10.609  0.2201  1.0983 -0.3726
  702MOL0     C94665   0.323   0.335  10.598 -0.7946  0.1228 -0.3253
  702MOL0     O94666   0.208   0.410  10.594  0.0927 -0.7787  0.3485
  702MOL0     C94667   0.080   0.364  10.556 -0.0059  0.5716 -0.4765
  702MOL0     C94668   0.040   0.250  10.483 -0.1968 -0.2881 -0.4519
  702MOL0     C94669  -0.092   0.207  10.455  0.2686  0.6903 -0.9157
  702MOL0     C94670  -0.196   0.282  10.509 -0.3219  0.1954  1.3524
  702MOL0     O94671  -0.329   0.256  10.505  0.7844 -0.1150  0.1329
  702MOL0     C94672  -0.368   0.146  10.419 -0.1767 -0.0427  0.5831
  702MOL0     C94673  -0.526   0.129  10.413 -0.4211 -0.4266 -0.4601
  702MOL0     C94674  -0.597   0.099  10.554  0.9896 -0.9353  0.7313
  702MOL0     C94675  -0.526  -0.020  10.623  0.1693  0.2322 -0.4116
  702MOL0     C94676  -0.636  -0.102  10.703 -0.1177 -0.0164  0.4047
  702MOL0     C94677  -0.587  -0.215  10.781  0.5494  0.0823  0.2132
  702MOL0     C94678  -0.544  -0.347  10.700 -0.2011 -1.3402 -0.3923
  702MOL0     C94679  -0.449  -0.428  10.784  0.1511 -0.5521  0.7387
  702MOL0    Cl94680  -0.524  -0.482  10.934  0.3848  0.1551  0.5236
  702MOL0     C94681  -0.156   0.396  10.589  0.0958 -0.3773 -0.2163
  702MOL0     C94682  -0.026   0.437  10.611 -0.2527 -0.2984 -1.0255
  702MOL0     O94683   0.325   0.212  10.574 -0.0277 -1.1056 -0.3029
  702MOL0     C94684   0.446   0.557  10.619 -0.1394  0.4140 -0.6879
  702MOL0     C94685   0.559   0.632  10.629  0.0291  0.1750  1.2439
  702MOL0     N94686   0.601   1.177  10.485 -0.2374  0.3275 -0.3415
  702MOL0     N94687   0.516   1.279  10.518  0.2739  0.1714 -0.9204
  702MOL0     C94688   0.488   2.114   9.812  0.6310 -0.3273 -1.5332
  702MOL0     C94689   0.403   2.215   9.761  0.2666  0.1076 -0.1670
  702MOL0     C94690   0.252   2.635   9.728  0.6578  0.1742 -0.5948
  702MOL0     C94691   0.319   2.761   9.720  0.4281  0.9768  0.2079
  702MOL0     C94692   0.251   2.884   9.701 -0.5561  0.3483  0.4440
  702MOL0     C94693   0.117   2.875   9.680 -0.4168 -0.2185  0.3397
  702MOL0     O94694   0.066   2.996   9.644 -0.7719 -0.3068  0.3464
  702MOL0     C94695  -0.076   3.024   9.633 -0.5780  0.3034 -0.0631
  702MOL0     C94696  -0.115   3.166   9.577  0.1411 -0.2991  0.1264
  702MOL0     C94697  -0.032   3.280   9.647  0.3973  0.1661  0.1282
  702MOL0     C94698  -0.081   3.421   9.605 -0.2748 -0.1349  0.0778
  702MOL0     C94699  -0.204   3.455   9.681  0.1442  0.1223 -0.2555
  702MOL0     C94700  -0.310   3.473   9.726  0.6681 -0.0037 -0.0465
  702MOL0     C94701   0.048   2.758   9.679  0.4665  0.7062 -0.4917
  702MOL0     C94702   0.116   2.635   9.704  0.4255  0.2853  0.5497
  702MOL0     H94703   0.257   2.302  10.058  3.0083  1.1167  1.2480
  702MOL0     H94704   0.365   2.101  10.125  0.1459 -0.4435 -0.5282
  702MOL0     H94705   0.710   1.961   9.876  1.2824  0.6054 -0.3193
  702MOL0     H94706   0.711   2.067  10.026  1.2490  0.3574 -0.1524
  702MOL0     H94707   0.688   1.766  10.022  3.2680 -1.0044 -1.4807
  702MOL0     H94708   0.845   1.853  10.007  0.7237 -0.3487 -1.5544
  702MOL0     H94709   0.834   1.833  10.249 -1.0248 -2.2505 -1.4714
  702MOL0     H94710   0.744   1.983  10.234  0.9921  0.9197 -0.7271
  702MOL0     H94711   0.523   1.864  10.269 -1.1395 -3.9219 -0.2987
  702MOL0     H94712   0.599   1.707  10.237 -1.9679 -0.7831  1.4072
  702MOL0     H94713   0.752   1.758  10.445 -0.7122 -3.1556 -0.1518
  702MOL0     H94714   0.632   1.881  10.490  1.5747  0.4324  0.8489
  702MOL0     H94715   0.463   1.747  10.492  2.8781  3.1420  1.7404
  702MOL0     H94716   0.539   1.606  10.409 -1.1154 -1.0842  1.5889
  702MOL0     H94717   0.719   1.603  10.598  1.1264  1.7299 -3.8328
  702MOL0     H94718   0.577   1.696  10.687 -2.7864 -2.3745  1.7181
  702MOL0     H94719   0.432   1.501  10.625 -0.6042 -0.4658  3.2019
  702MOL0     H94720   0.553   1.489  10.755 -1.4122  3.1294  0.5996
  702MOL0     H94721   0.808   1.385  10.635 -0.2932 -1.2079 -0.4557
  702MOL0     H94722   0.859   1.078  10.429  2.1115  0.2873  0.0667
  702MOL0     H94723   0.944   1.177  10.540  0.7997 -1.3356  0.0087
  702MOL0     H94724   0.803   1.043  10.719 -0.7915 -0.9360 -0.8450
  702MOL0     H94725   0.965   0.992  10.644  0.6051 -2.2865 -4.2823
  702MOL0     H94726   0.870   0.837  10.500  0.1252  0.8512 -0.8467
  702MOL0     H94727   0.704   0.890  10.523 -1.4825 -1.1606  3.1144
  702MOL0     H94728   0.703   0.805  10.768 -0.3809 -1.1119 -0.9485
  702MOL0     H94729   0.867   0.810  10.758  0.1039  2.6025 -0.0149
  702MOL0     H94730   0.791   0.388  10.682 -0.2923  0.1731 -0.5429
  702MOL0     H94731   0.707   0.186  10.678 -0.0375  1.3473  1.7765
  702MOL0     H94732   0.536   0.165  10.721 -1.1548  0.0016 -2.0813
  702MOL0     H94733   0.585   0.154  10.558  1.6993 -1.0050  0.3046
  702MOL0     H94734   0.110   0.188  10.428 -1.0844  0.5457 -2.6284
  702MOL0     H94735  -0.109   0.117  10.396  1.6265 -0.3287  0.1721
  702MOL0     H94736  -0.333   0.163  10.317 -0.4255  0.4894  0.5847
  702MOL0     H94737  -0.334   0.046  10.448  0.0796 -0.8878 -2.3068
  702MOL0     H94738  -0.559   0.225  10.371  0.2129  1.6599  3.2621
  702MOL0     H94739  -0.543   0.057  10.334  1.0338  0.4859 -1.6540
  702MOL0     H94740  -0.698   0.069  10.524  0.3338  3.2805 -2.2930
  702MOL0     H94741  -0.613   0.190  10.612  0.1841 -0.4694 -0.1864
  702MOL0     H94742  -0.470  -0.080  10.551 -0.2550 -3.0077  1.7760
  702MOL0     H94743  -0.449   0.018  10.692  0.6933  0.5752 -1.1697
  702MOL0     H94744  -0.713  -0.132  10.631  1.5036  2.9909 -2.8919
  702MOL0     H94745  -0.672  -0.025  10.772 -1.9823 -1.0735  0.6902
  702MOL0     H94746  -0.508  -0.188  10.852  2.2473 -0.8721 -1.2078
  702MOL0     H94747  -0.676  -0.237  10.839 -1.4715  2.8343 -1.6021
  702MOL0     H94748  -0.495  -0.317  10.607 -0.9121  0.9755 -0.0825
  702MOL0     H94749  -0.635  -0.401  10.672 -0.2092 -3.7259  3.5171
  702MOL0     H94750  -0.366  -0.363  10.814  0.8142 -0.5458 -0.9663
  702MOL0     H94751  -0.398  -0.506  10.725 -0.9770 -0.1138 -0.8543
  702MOL0     H94752  -0.228   0.460  10.638  0.3786  1.0136 -1.5503
  702MOL0     H94753  -0.009   0.526  10.671  0.4493  0.0840 -1.7643
  702MOL0     H94754   0.348   0.603  10.620 -1.0756 -1.4815 -0.2223
  702MOL0     H94755   0.546   0.740  10.625 -0.3298  0.0868 -1.6043
  702MOL0     H94756   0.561   2.056   9.756  0.5251 -2.0594  0.0291
  702MOL0     H94757   0.425   2.258   9.664  1.5647  0.0341  0.0746
  702MOL0     H94758   0.422   2.771   9.753 -0.1359  1.8027  1.8635
  702MOL0     H94759   0.311   2.973   9.686 -1.2673  0.7286 -0.1938
  702MOL0     H94760  -0.126   2.957   9.562 -0.0291  0.5313 -0.6686
  702MOL0     H94761  -0.116   3.025   9.735  0.0809 -0.9630  0.2349
  702MOL0     H94762  -0.222   3.189   9.576  0.5359  1.7310 -1.7673
  702MOL0     H94763  -0.103   3.161   9.468 -1.2920 -0.7081 -0.0351
  702MOL0     H94764   0.074   3.285   9.619 -0.1259  1.5877 -1.7797
  702MOL0     H94765  -0.028   3.270   9.756 -0.2075  0.2504  0.1604
  702MOL0     H94766  -0.106   3.430   9.499 -2.0506  2.9528  0.6173
  702MOL0     H94767  -0.002   3.495   9.620 -0.6286  0.6433 -1.6603
  702MOL0     H94768  -0.409   3.501   9.755 -0.8511 -2.1439 -2.6797
  702MOL0     H94769  -0.061   2.757   9.669  0.3785  1.0122  0.3561
  702MOL0     H94770   0.072   2.536   9.709 -0.8726  0.8559  0.8775
  703MOL0     O94771   9.414   3.529   4.583 -1.0977 -0.6393  0.4980
  703MOL0     C94772   9.415   3.635   4.650 -0.1417  0.3462  0.9125
  703MOL0     O94773   9.400   3.638   4.781 -0.1327 -1.0367 -0.4728
  703MOL0     C94774   9.395   3.523   4.863 -0.4201  0.5537  0.3894
  703MOL0     C94775   9.349   3.548   4.988 -0.6376  0.2648  0.5670
  703MOL0     C94776   9.355   3.458   5.087  0.1225 -0.6312  0.1847
  703MOL0     C94777   9.403   3.329   5.066  1.1495  0.6545 -0.8783
  703MOL0     O94778   9.393   3.240   5.162 -0.1487  0.1880 -0.2349
  703MOL0     C94779   9.269   3.224   5.232  0.2108 -0.5390  0.5091
  703MOL0     C94780   9.181   3.120   5.161  0.2579 -0.0150  0.6068
  703MOL0     C94781   9.052   3.084   5.236  0.1545 -0.1898 -0.5931
  703MOL0     C94782   9.069   3.074   5.396 -0.1855  0.4754  0.0559
  703MOL0     C94783   8.956   3.002   5.471  0.1824 -0.3932  0.6782
  703MOL0     C94784   8.993   2.977   5.618 -0.9470  0.4293  0.7988
  703MOL0     C94785   8.868   2.913   5.689  0.3957  0.7447 -0.4829
  703MOL0     C94786   8.901   2.872   5.836  0.4745 -0.1929 -0.7537
  703MOL0     N94787   8.798   2.782   5.897  0.9126 -0.3339  0.7242
  703MOL0     C94788   8.671   2.813   5.920 -0.4733  0.1975 -0.2385
  703MOL0     C94789   8.602   2.693   5.945  0.0726  0.1269  0.0782
  703MOL0     C94790   8.455   2.684   5.954 -0.8685  0.2689 -0.0249
  703MOL0     C94791   8.379   2.807   6.001 -0.0513  0.1495  0.8389
  703MOL0     C94792   8.335   2.904   5.884 -0.3791 -0.4179 -0.2794
  703MOL0     C94793   8.307   3.052   5.936  0.5728 -0.0804 -0.3408
  703MOL0     O94794   8.435   3.103   5.989  0.1635  1.0221 -0.0863
  703MOL0     C94795   8.531   3.144   5.898  0.5150  0.0091  0.1361
  703MOL0     C94796   8.644   3.187   5.964 -0.3154 -0.2140 -0.0635
  703MOL0     C94797   8.747   3.244   5.892 -0.2992  1.0867 -0.2095
  703MOL0     C94798   8.865   3.271   5.977 -0.5211 -0.1160 -0.1799
  703MOL0     C94799   8.741   3.254   5.753  0.4147  0.4228 -0.3830
  703MOL0     C94800   8.849   3.315   5.668  0.2417 -0.6318 -0.4934
  703MOL0     O94801   8.816   3.323   5.536 -0.7336  0.5016  0.0747
  703MOL0     C94802   8.858   3.433   5.462 -0.3665  0.1159  0.3946
  703MOL0     C94803   8.845   3.402   5.326 -0.0578 -1.0543  0.1456
  703MOL0     C94804   8.889   3.493   5.224 -0.7927 -0.6750 -0.0084
  703MOL0     C94805   8.949   3.613   5.263  0.8447 -0.5029 -0.1566
  703MOL0     O94806   8.983   3.689   5.160  0.6958 -0.6981 -0.0625
  703MOL0     C94807   9.029   3.822   5.184 -0.3216  0.1271 -0.1306
  703MOL0     C94808   9.077   3.878   5.051 -0.4522  0.1687 -0.1317
  703MOL0     C94809   8.965   3.882   4.944 -0.0385  0.0342  0.2551
  703MOL0     C94810   9.015   3.937   4.815 -0.1057  1.5534  0.5075
  703MOL0     C94811   8.900   3.968   4.711 -0.3419 -1.5605 -0.6514
  703MOL0     C94812   8.930   4.079   4.618  0.4998  0.1500  0.4246
  703MOL0     C94813   8.802   4.121   4.538 -0.3242  0.3999 -0.5037
  703MOL0     C94814   8.806   4.271   4.502  0.3769 -0.7624  0.4177
  703MOL0    Cl94815   8.927   4.282   4.370  0.1033 -0.1804  0.0153
  703MOL0     C94816   8.960   3.639   5.400  0.3037 -0.0659 -0.9583
  703MOL0     C94817   8.909   3.557   5.496 -0.5119  0.5819  0.0864
  703MOL0     O94818   8.939   3.377   5.721 -0.2656  1.0918  0.9641
  703MOL0     C94819   8.633   3.197   5.681  0.7408 -0.0124 -0.8704
  703MOL0     C94820   8.529   3.139   5.757 -0.5063 -0.0862  0.0591
  703MOL0     N94821   8.689   2.592   5.926 -0.7141 -0.6374 -0.2204
  703MOL0     N94822   8.798   2.653   5.893  0.2657 -0.5145 -0.0577
  703MOL0     C94823   9.450   3.288   4.937  1.0956  0.3415 -0.0670
  703MOL0     C94824   9.449   3.391   4.836 -0.2761  0.3366  0.0790
  703MOL0     C94825   9.458   3.765   4.583  0.0689  0.8714  0.2134
  703MOL0     C94826   9.500   3.766   4.447  0.0979 -0.0388 -0.5480
  703MOL0     C94827   9.507   3.889   4.376 -0.4625 -1.2540 -0.3111
  703MOL0     C94828   9.481   4.007   4.443 -1.0482  1.3882 -0.7371
  703MOL0     O94829   9.515   4.120   4.380  0.0045  0.6065  0.4469
  703MOL0     C94830   9.402   4.191   4.343  0.6852  0.0793 -0.5522
  703MOL0     C94831   9.337   4.129   4.215 -0.1589  0.3913 -0.3336
  703MOL0     C94832   9.430   4.123   4.091 -0.2992  0.0416 -0.0419
  703MOL0     C94833   9.472   4.251   4.027  0.4012 -0.3170  0.0976
  703MOL0     C94834   9.353   4.319   3.982  0.0811  1.2312 -1.4147
  703MOL0     C94835   9.242   4.358   3.943 -0.2414 -0.3977  0.1612
  703MOL0     C94836   9.447   4.007   4.579  0.1405  0.1834  0.2643
  703MOL0     C94837   9.447   3.885   4.652  0.2642  0.0158 -0.2332
  703MOL0     H94838   9.322   3.648   5.021  2.3507  1.0224  0.9782
  703MOL0     H94839   9.324   3.481   5.189  0.2629 -0.0327  0.0932
  703MOL0     H94840   9.293   3.194   5.334 -2.2155 -1.4308  0.8816
  703MOL0     H94841   9.212   3.316   5.244  1.9121  1.0730 -2.3943
  703MOL0     H94842   9.150   3.161   5.065 -2.9609 -3.3464  0.0002
  703MOL0     H94843   9.241   3.029   5.147 -2.5764 -2.2726  2.1022
  703MOL0     H94844   8.972   3.157   5.222 -1.5423 -1.6098  1.1969
  703MOL0     H94845   9.021   2.987   5.194  1.3708 -1.8780  2.1442
  703MOL0     H94846   9.159   3.014   5.410 -0.9270 -2.2376 -4.7409
  703MOL0     H94847   9.076   3.169   5.450  0.0123 -1.4105  3.6708
  703MOL0     H94848   8.866   3.059   5.447 -0.5698 -0.8787  2.1818
  703MOL0     H94849   8.943   2.906   5.420 -1.3628  1.3858 -2.5701
  703MOL0     H94850   9.081   2.914   5.625 -2.1935 -1.3142  1.4391
  703MOL0     H94851   9.022   3.064   5.678  3.5903 -0.8300  0.7810
  703MOL0     H94852   8.785   2.984   5.692 -0.1684  0.1743 -1.8173
  703MOL0     H94853   8.836   2.819   5.642  1.9575 -1.7573  2.9841
  703MOL0     H94854   8.917   2.964   5.893  0.0302 -0.1231 -0.7325
  703MOL0     H94855   8.994   2.815   5.834  0.1667 -0.7930  0.8419
  703MOL0     H94856   8.629   2.913   5.922 -0.4221  0.2649 -1.3804
  703MOL0     H94857   8.425   2.655   5.853  0.6721  0.7374 -0.6438
  703MOL0     H94858   8.443   2.599   6.023  3.5940 -0.3426  0.3192
  703MOL0     H94859   8.449   2.870   6.056 -0.8848  1.4238  0.4712
  703MOL0     H94860   8.289   2.785   6.059 -1.7853  0.1024 -1.7225
  703MOL0     H94861   8.242   2.873   5.835 -1.4029  1.7619  0.1810
  703MOL0     H94862   8.414   2.903   5.809 -1.4289  1.3440 -1.4825
  703MOL0     H94863   8.229   3.060   6.012  1.3050 -2.1291  0.7017
  703MOL0     H94864   8.281   3.107   5.845  0.5879 -0.4224 -0.5537
  703MOL0     H94865   8.642   3.158   6.069 -0.7384 -1.9674 -0.5143
  703MOL0     H94866   8.956   3.220   5.945  0.6712  1.9538 -0.2568
  703MOL0     H94867   8.881   3.378   5.966 -1.2749 -0.1282 -1.7499
  703MOL0     H94868   8.853   3.250   6.083 -3.6619  2.1140  0.0367
  703MOL0     H94869   8.794   3.309   5.301 -0.8755 -0.6677  0.3448
  703MOL0     H94870   8.866   3.461   5.123  1.0270 -0.8904 -0.3817
  703MOL0     H94871   8.944   3.891   5.189  0.9553  1.6843  1.2041
  703MOL0     H94872   9.102   3.840   5.263 -1.5031  3.0974  0.4169
  703MOL0     H94873   9.108   3.981   5.071  1.5112 -1.0579  4.5179
  703MOL0     H94874   9.166   3.829   5.012 -0.4903  0.6048 -0.7847
  703MOL0     H94875   8.882   3.939   4.987 -0.4241  1.4558 -2.1569
  703MOL0     H94876   8.929   3.781   4.923  1.7716 -0.8572  1.2703
  703MOL0     H94877   9.064   4.032   4.840  0.8821  2.3341 -3.7221
  703MOL0     H94878   9.087   3.875   4.761 -3.7451 -1.5047 -1.2805
  703MOL0     H94879   8.807   3.985   4.766  0.2338 -3.1806  0.8952
  703MOL0     H94880   8.887   3.872   4.661 -1.1002 -1.4530 -0.6678
  703MOL0     H94881   8.948   4.161   4.688 -2.3632  1.7177 -0.5334
  703MOL0     H94882   9.013   4.050   4.553 -1.6338 -2.2178 -1.4553
  703MOL0     H94883   8.718   4.099   4.604 -0.0001  0.0051 -0.2169
  703MOL0     H94884   8.784   4.056   4.452 -3.7668 -0.5228  0.7380
  703MOL0     H94885   8.843   4.332   4.585  2.9984 -0.9144 -0.5228
  703MOL0     H94886   8.705   4.301   4.474  0.5210 -0.0593  0.6159
  703MOL0     H94887   9.006   3.727   5.445 -4.5902  1.8149  1.1247
  703MOL0     H94888   8.913   3.575   5.603  5.4691  0.4030  0.2266
  703MOL0     H94889   8.625   3.214   5.574  1.8239  0.3082 -0.9161
  703MOL0     H94890   8.441   3.098   5.708 -0.8711 -0.8576  1.3001
  703MOL0     H94891   9.487   3.188   4.914  2.7673  0.3951  2.0176
  703MOL0     H94892   9.484   3.373   4.735  5.5655  0.5674  1.7069
  703MOL0     H94893   9.513   3.676   4.387 -2.0720  0.9983 -2.7184
  703MOL0     H94894   9.535   3.882   4.271 -0.9768 -0.8753 -0.4758
  703MOL0     H94895   9.332   4.204   4.426 -1.3255 -0.1957 -2.1190
  703MOL0     H94896   9.430   4.293   4.315 -1.5331  0.2962 -2.2547
  703MOL0     H94897   9.241   4.169   4.181  1.4984  0.9996 -5.0284
  703MOL0     H94898   9.311   4.027   4.244 -0.7394  0.0812 -1.8849
  703MOL0     H94899   9.385   4.057   4.017  1.2120 -2.6889  1.3144
  703MOL0     H94900   9.519   4.068   4.122  1.1047  2.5810  0.6670
  703MOL0     H94901   9.545   4.235   3.947 -0.5364  2.6315 -1.5064
  703MOL0     H94902   9.520   4.315   4.101  2.5876 -0.5781 -1.0187
  703MOL0     H94903   9.148   4.394   3.909  0.5788  3.2556  1.2548
  703MOL0     H94904   9.451   4.100   4.636 -0.6748  1.3786 -1.5095
  703MOL0     H94905   9.429   3.887   4.759 -1.9124  3.5872 -0.5326
  704MOL0     O94906   4.635   2.877   1.230 -0.9445  0.3986 -0.2709
  704MOL0     C94907   4.627   2.752   1.212 -0.2670 -0.2722  0.4947
  704MOL0     O94908   4.533   2.686   1.137  0.1871 -0.6579  1.4437
  704MOL0     C94909   4.421   2.755   1.082 -0.5672 -0.3025  1.1631
  704MOL0     C94910   4.366   2.714   0.955  0.3304 -0.7319 -0.1709
  704MOL0     C94911   4.268   2.780   0.886  0.7538 -0.3139  0.2385
  704MOL0     C94912   4.219   2.902   0.941 -0.2770  0.8607  1.0011
  704MOL0     O94913   4.110   2.969   0.886 -0.1577  0.0827  0.0430
  704MOL0     C94914   4.066   2.939   0.752 -1.5294 -0.2541  0.4610
  704MOL0     C94915   4.009   3.078   0.694  0.3357  0.6792  0.1222
  704MOL0     C94916   3.997   3.066   0.542 -0.0346 -0.2588  0.2816
  704MOL0     C94917   3.903   3.168   0.480  0.0121 -0.0340 -0.5021
  704MOL0     C94918   3.863   3.136   0.339  0.3363 -0.1016 -0.0947
  704MOL0     C94919   3.771   3.244   0.290  0.1460 -0.6685 -0.6118
  704MOL0     C94920   3.736   3.230   0.144 -0.4442  0.3271 -0.5569
  704MOL0     C94921   3.626   3.122   0.138  0.5992  0.1974  0.7084
  704MOL0     N94922   3.581   3.106   0.001  0.1270 -1.3250  0.3621
  704MOL0     C94923   3.455   3.141  -0.046  0.0209  0.1787  0.1440
  704MOL0     C94924   3.461   3.104  -0.179 -0.6848 -0.0093  1.2914
  704MOL0     C94925   3.347   3.118  -0.284  0.4268  0.5221 -0.6924
  704MOL0     C94926   3.392   3.086  -0.426  0.0196  0.8635 -0.2279
  704MOL0     C94927   3.268   3.069  -0.520 -0.5486  0.1232 -0.0773
  704MOL0     C94928   3.251   2.926  -0.559  0.7728 -0.0470 -0.7513
  704MOL0     O94929   3.210   2.908  -0.690  0.1362  0.2568 -0.0300
  704MOL0     C94930   3.196   2.784  -0.744 -1.0631 -0.2390  0.7375
  704MOL0     C94931   3.151   2.671  -0.677  0.5609 -0.0144  0.2986
  704MOL0     C94932   3.135   2.542  -0.737 -0.0246  0.5180  0.7828
  704MOL0     C94933   3.106   2.425  -0.640 -0.2531 -0.1892  1.0083
  704MOL0     C94934   3.187   2.528  -0.875  0.6774 -0.2115 -0.2400
  704MOL0     C94935   3.197   2.384  -0.930 -0.6408 -0.8803  1.3324
  704MOL0     O94936   3.119   2.287  -0.893  0.4045 -0.6608  0.0442
  704MOL0     C94937   3.103   2.174  -0.976 -0.1195 -0.0045 -1.2057
  704MOL0     C94938   3.176   2.055  -0.976  0.5362 -0.5735  0.5542
  704MOL0     C94939   3.135   1.939  -1.045  0.4913 -0.3805 -0.5050
  704MOL0     C94940   3.027   1.936  -1.137  0.6984 -0.8206  1.0630
  704MOL0     O94941   2.971   1.831  -1.207  0.4326 -0.3921  0.2108
  704MOL0     C94942   3.018   1.701  -1.198 -0.6350  0.6411  0.0929
  704MOL0     C94943   3.103   1.670  -1.323 -0.4634 -1.0279  0.6887
  704MOL0     C94944   3.046   1.684  -1.461 -0.4721 -0.3203 -0.8377
  704MOL0     C94945   2.925   1.596  -1.496 -0.1121  0.7282 -0.6637
  704MOL0     C94946   2.884   1.589  -1.641  0.1703 -0.2207 -0.9249
  704MOL0     C94947   2.963   1.494  -1.719  0.7147 -0.9964 -0.0541
  704MOL0     C94948   2.943   1.517  -1.860  0.4020  0.4338  0.3821
  704MOL0     C94949   3.033   1.620  -1.932 -1.2005 -0.7059  0.4204
  704MOL0    Cl94950   2.940   1.694  -2.077 -0.0173 -0.5735 -0.1369
  704MOL0     C94951   2.970   2.061  -1.157  0.9815  1.6071 -0.0704
  704MOL0     C94952   3.006   2.177  -1.081 -0.1125  0.0540 -0.8849
  704MOL0     O94953   3.278   2.384  -1.025  0.1123 -0.6002  0.1519
  704MOL0     C94954   3.234   2.645  -0.935  0.4608 -0.1017 -0.3865
  704MOL0     C94955   3.238   2.770  -0.873  0.2620 -0.0387  0.0921
  704MOL0     N94956   3.579   3.032  -0.200  0.2221 -0.5863  0.2344
  704MOL0     N94957   3.645   3.036  -0.091 -0.0959  0.0261 -0.1577
  704MOL0     C94958   4.268   2.943   1.056 -0.0485  0.0277 -0.6946
  704MOL0     C94959   4.365   2.876   1.135 -0.1436 -0.3689  0.3350
  704MOL0     C94960   4.723   2.680   1.292 -0.4683 -0.9046 -0.6315
  704MOL0     C94961   4.832   2.744   1.353  0.1082  1.0486 -0.2000
  704MOL0     C94962   4.916   2.672   1.434 -0.0160 -0.1657  0.1197
  704MOL0     C94963   4.914   2.535   1.448  0.2423 -0.4763 -0.1103
  704MOL0     O94964   5.004   2.472   1.532  0.6289  0.1500  0.4553
  704MOL0     C94965   4.984   2.329   1.564 -0.9202  0.2066 -0.2017
  704MOL0     C94966   4.873   2.316   1.670  0.3142 -0.3428 -0.0189
  704MOL0     C94967   4.906   2.404   1.786 -0.0381 -0.1205 -1.3621
  704MOL0     C94968   5.019   2.351   1.888 -0.4400  0.6003  0.3124
  704MOL0     C94969   5.000   2.395   2.027 -0.7901  0.6836  0.4943
  704MOL0     C94970   5.006   2.427   2.146  1.1026 -0.5135  0.5543
  704MOL0     C94971   4.815   2.472   1.369 -0.4128  0.1433 -0.5861
  704MOL0     C94972   4.728   2.536   1.287  0.0663 -0.4380 -0.3550
  704MOL0     H94973   4.401   2.620   0.916  1.2669 -0.6329  0.4129
  704MOL0     H94974   4.226   2.734   0.797 -1.3517 -1.1679  1.5841
  704MOL0     H94975   4.131   2.899   0.673 -0.3209 -0.9541  1.7542
  704MOL0     H94976   3.990   2.861   0.751 -0.6770 -1.1693 -2.6133
  704MOL0     H94977   3.911   3.099   0.737 -0.3902  0.6248 -1.4266
  704MOL0     H94978   4.083   3.154   0.719  2.6150 -2.2103  3.0478
  704MOL0     H94979   4.093   3.078   0.491 -0.5931  0.7053 -0.5946
  704MOL0     H94980   3.965   2.963   0.523 -1.3450 -0.1141  1.5629
  704MOL0     H94981   3.818   3.185   0.548  1.1365  0.2766  0.8694
  704MOL0     H94982   3.942   3.270   0.475 -2.1899  0.8585 -0.7896
  704MOL0     H94983   3.950   3.144   0.272  0.7791  0.6210  0.5578
  704MOL0     H94984   3.823   3.034   0.337  0.6493 -0.5260  4.7262
  704MOL0     H94985   3.683   3.253   0.354 -0.2074 -0.1116 -1.1690
  704MOL0     H94986   3.823   3.339   0.308  0.3136 -0.4532 -2.1030
  704MOL0     H94987   3.696   3.328   0.117  0.3701  0.9274  0.3558
  704MOL0     H94988   3.824   3.215   0.082  0.8291  4.3038  0.0085
  704MOL0     H94989   3.535   3.144   0.196 -1.9824 -0.9899 -2.5878
  704MOL0     H94990   3.667   3.024   0.167  1.7533  1.0022  1.9071
  704MOL0     H94991   3.371   3.195  -0.005  0.9895  1.2757  0.7585
  704MOL0     H94992   3.268   3.044  -0.271 -0.2737  0.9308 -2.3886
  704MOL0     H94993   3.290   3.211  -0.291 -1.6795 -0.6552 -0.0702
  704MOL0     H94994   3.449   2.993  -0.418  0.5213  1.0691 -1.2436
  704MOL0     H94995   3.439   3.173  -0.473  0.1636 -0.4854 -2.7503
  704MOL0     H94996   3.273   3.141  -0.602  0.0613  1.4835  1.0937
  704MOL0     H94997   3.182   3.114  -0.468 -0.0807  0.1688  0.6724
  704MOL0     H94998   3.196   2.869  -0.484  0.9082 -0.6078 -1.0752
  704MOL0     H94999   3.347   2.874  -0.566  1.0354  0.6339 -4.0376
  704MOL0     H95000   3.121   2.693  -0.575  2.9596  0.2471  0.9959
  704MOL0     H95001   3.014   2.376  -0.673 -1.5498  3.1164 -0.7621
  704MOL0     H95002   3.189   2.355  -0.627  2.5060  2.9041  1.5056
  704MOL0     H95003   3.083   2.466  -0.541 -1.0491  1.2892  0.2598
  704MOL0     H95004   3.264   2.053  -0.911 -0.0782  2.3910  1.6289
  704MOL0     H95005   3.193   1.851  -1.020 -1.0658 -0.6065  2.9433
  704MOL0     H95006   3.082   1.679  -1.112  1.4524 -0.9924 -1.7529
  704MOL0     H95007   2.935   1.631  -1.193  0.5952 -0.8541  0.4080
  704MOL0     H95008   3.185   1.743  -1.327  0.4951 -2.1307 -0.5037
  704MOL0     H95009   3.146   1.570  -1.316 -1.3448 -1.3703  1.4520
  704MOL0     H95010   3.129   1.650  -1.523  0.2436 -0.1656  0.0226
  704MOL0     H95011   3.035   1.791  -1.483  0.1840  0.0996  0.7580
  704MOL0     H95012   2.942   1.493  -1.464 -2.8790  0.5996  0.6419
  704MOL0     H95013   2.843   1.633  -1.434 -0.5479  1.1286 -1.4583
  704MOL0     H95014   2.891   1.689  -1.683 -1.2994  0.9618  1.4559
  704MOL0     H95015   2.781   1.551  -1.646  0.7945 -1.9783 -1.1771
  704MOL0     H95016   3.070   1.512  -1.702  0.4902 -0.9385  1.3994
  704MOL0     H95017   2.941   1.391  -1.692 -0.4861 -0.8783 -0.5230
  704MOL0     H95018   2.837   1.543  -1.870  0.4206  0.5539  0.4982
  704MOL0     H95019   2.953   1.423  -1.916 -0.8587  1.6175 -1.9837
  704MOL0     H95020   3.125   1.570  -1.965 -0.8335 -0.8472  1.6207
  704MOL0     H95021   3.060   1.702  -1.866 -0.1887  0.9801 -1.9555
  704MOL0     H95022   2.885   2.063  -1.225 -1.2289 -2.3161  2.2013
  704MOL0     H95023   2.950   2.270  -1.088 -1.2024 -0.1144  3.1650
  704MOL0     H95024   3.273   2.636  -1.036 -0.9613 -1.6034 -0.8404
  704MOL0     H95025   3.288   2.852  -0.925  0.7991 -2.2383 -3.1257
  704MOL0     H95026   4.232   3.039   1.092  1.3904  0.5091 -0.4500
  704MOL0     H95027   4.388   2.930   1.226 -1.0274 -0.6000  0.7057
  704MOL0     H95028   4.844   2.852   1.356 -0.7227  1.1324  0.9681
  704MOL0     H95029   4.994   2.718   1.493  0.4706 -2.4619  1.3881
  704MOL0     H95030   4.966   2.266   1.477 -1.3351  0.5945 -0.4016
  704MOL0     H95031   5.075   2.285   1.607 -1.3340  1.8277  2.5965
  704MOL0     H95032   4.871   2.210   1.697 -3.2030 -0.4235 -0.1411
  704MOL0     H95033   4.775   2.346   1.632 -1.0136 -1.1722  2.4838
  704MOL0     H95034   4.813   2.401   1.844  0.0046  0.5800 -1.2486
  704MOL0     H95035   4.920   2.510   1.762  0.4432 -0.0746 -0.8982
  704MOL0     H95036   5.104   2.414   1.860 -1.9480  3.6353  2.0591
  704MOL0     H95037   5.029   2.243   1.875 -3.1253  0.5853 -3.2479
  704MOL0     H95038   4.999   2.464   2.246  0.3121 -0.8988  0.6576
  704MOL0     H95039   4.805   2.364   1.362  0.8759  0.0450 -1.1260
  704MOL0     H95040   4.671   2.480   1.214 -0.6328 -4.4147  2.8577
  705MOL0     O95041   5.250   3.199  11.156  0.0301  0.0834  0.6929
  705MOL0     C95042   5.185   3.285  11.206 -0.2177  0.3769 -0.3655
  705MOL0     O95043   5.204   3.339  11.331  0.0161  0.3565 -0.9581
  705MOL0     C95044   5.308   3.298  11.410  0.0192  0.4727 -0.2553
  705MOL0     C95045   5.356   3.170  11.435  0.3773 -0.6275  0.1163
  705MOL0     C95046   5.442   3.134  11.537  0.1396  0.0284 -0.5339
  705MOL0     C95047   5.460   3.222  11.639  0.2384 -0.5611  0.8858
  705MOL0     O95048   5.536   3.167  11.744 -0.2056  0.3362  0.1659
  705MOL0     C95049   5.530   3.215  11.877 -0.3440  0.0589 -1.4113
  705MOL0     C95050   5.394   3.181  11.933  0.0921 -0.2201 -0.9690
  705MOL0     C95051   5.368   3.027  11.965 -0.2636  0.4317  0.2185
  705MOL0     C95052   5.237   3.017  12.037 -0.3854  0.5324 -0.4843
  705MOL0     C95053   5.186   2.875  12.084 -0.0611 -0.1060 -0.7687
  705MOL0     C95054   5.097   2.787  11.989  0.1061 -0.4726  0.6330
  705MOL0     C95055   5.030   2.671  12.063  0.0489  0.6199  0.6842
  705MOL0     C95056   5.130   2.565  12.115  0.8176  0.5305  0.2817
  705MOL0     N95057   5.210   2.512  12.010 -0.4628  0.2254  0.1385
  705MOL0     C95058   5.174   2.479  11.877 -0.8538  0.8448 -1.2722
  705MOL0     C95059   5.286   2.419  11.828 -0.3839  0.5107  0.5691
  705MOL0     C95060   5.295   2.357  11.686 -0.3555 -1.3053 -0.0350
  705MOL0     C95061   5.314   2.206  11.716  0.5860  0.7302 -0.3330
  705MOL0     C95062   5.338   2.136  11.579 -0.4958  0.5381 -0.4395
  705MOL0     C95063   5.326   1.986  11.608 -0.1091  0.0536  0.1429
  705MOL0     O95064   5.199   1.961  11.672  0.6009  0.5907 -1.1260
  705MOL0     C95065   5.178   1.827  11.714 -0.9308  0.3037  0.9399
  705MOL0     C95066   5.219   1.706  11.652 -0.4923  0.5358  0.0014
  705MOL0     C95067   5.187   1.584  11.701  0.1564 -0.3614 -0.0285
  705MOL0     C95068   5.255   1.473  11.623  0.5278  0.6939 -0.6797
  705MOL0     C95069   5.108   1.572  11.816 -0.2145 -0.8273 -0.3117
  705MOL0     C95070   5.068   1.441  11.877  0.1140  0.1290 -0.8085
  705MOL0     O95071   5.058   1.331  11.792 -0.3868 -0.4326 -0.2422
  705MOL0     C95072   5.000   1.208  11.819  0.4841  0.5488  0.7272
  705MOL0     C95073   5.036   1.142  11.932 -0.0886 -0.2137 -0.3958
  705MOL0     C95074   4.980   1.023  11.968  0.2742 -0.6738 -0.3917
  705MOL0     C95075   4.876   0.980  11.889  0.0918 -0.6506 -0.0881
  705MOL0     O95076   4.823   0.857  11.927  0.1621 -0.4891  0.3750
  705MOL0     C95077   4.832   0.743  11.845  0.0391 -0.7978  0.0854
  705MOL0     C95078   4.776   0.636  11.939 -0.2557  0.1907  0.2860
  705MOL0     C95079   4.780   0.501  11.874 -0.0523 -0.0339 -0.4459
  705MOL0     C95080   4.663   0.474  11.783  0.7274  0.0394  0.3973
  705MOL0     C95081   4.633   0.333  11.740  0.0437  0.3311 -0.4532
  705MOL0     C95082   4.510   0.325  11.648  0.1105 -0.4136  0.0195
  705MOL0     C95083   4.460   0.188  11.621  0.0119  0.0356 -0.7730
  705MOL0     C95084   4.348   0.193  11.512 -0.2653 -0.2141 -0.1748
  705MOL0    Cl95085   4.212   0.275  11.591 -0.0520  0.1428  0.1236
  705MOL0     C95086   4.832   1.052  11.774 -0.6958 -0.7304 -0.4449
  705MOL0     C95087   4.889   1.169  11.741 -0.3181  0.1627 -0.8456
  705MOL0     O95088   5.045   1.439  12.000 -0.1406 -0.5541 -0.6430
  705MOL0     C95089   5.064   1.689  11.875 -0.1062  0.0696 -0.8650
  705MOL0     C95090   5.095   1.807  11.820  0.5019 -0.1226 -0.1930
  705MOL0     N95091   5.393   2.428  11.927  0.3981  0.1393 -0.0208
  705MOL0     N95092   5.346   2.492  12.026  0.6664 -0.2269 -0.5957
  705MOL0     C95093   5.407   3.353  11.621  0.3604  0.9459  0.1958
  705MOL0     C95094   5.336   3.387  11.505 -0.0186  0.2269 -1.0585
  705MOL0     C95095   5.065   3.336  11.129 -0.3396  0.3033  0.0460
  705MOL0     C95096   4.983   3.433  11.196  0.6879 -0.6833 -0.8740
  705MOL0     C95097   4.857   3.468  11.142  0.7106  0.8139 -0.9073
  705MOL0     C95098   4.827   3.423  11.015  0.3523 -0.0440 -0.2746
  705MOL0     O95099   4.712   3.463  10.952  0.0667 -0.8738 -0.3751
  705MOL0     C95100   4.676   3.597  10.942  0.8764 -0.7507 -0.4241
  705MOL0     C95101   4.686   3.646  10.805 -0.8626 -0.1405  0.2350
  705MOL0     C95102   4.561   3.621  10.712 -0.0539 -0.2596  0.7445
  705MOL0     C95103   4.551   3.733  10.610  0.7485  0.8909  0.7330
  705MOL0     C95104   4.455   3.702  10.508  0.4678  0.1855  1.0983
  705MOL0     C95105   4.377   3.681  10.412 -0.2455 -0.0902 -0.3764
  705MOL0     C95106   4.915   3.342  10.946  0.3184  0.9233 -0.0163
  705MOL0     C95107   5.031   3.289  10.994 -0.1536  0.4160 -0.3012
  705MOL0     H95108   5.340   3.085  11.370  2.6525  0.2555 -1.7431
  705MOL0     H95109   5.489   3.037  11.523 -0.6202 -0.2595 -1.1574
  705MOL0     H95110   5.606   3.175  11.945 -0.3063  3.3688  0.6630
  705MOL0     H95111   5.549   3.322  11.885  3.1841 -0.3057 -2.9805
  705MOL0     H95112   5.383   3.233  12.029  2.2037  0.7610 -1.2027
  705MOL0     H95113   5.316   3.220  11.867 -1.7047 -0.0932  1.1236
  705MOL0     H95114   5.360   2.970  11.872  3.4552 -2.6838  1.5307
  705MOL0     H95115   5.455   2.992  12.022  0.2364  2.3648  0.7123
  705MOL0     H95116   5.246   3.066  12.135 -2.0539  1.2187 -0.6373
  705MOL0     H95117   5.160   3.076  11.987 -3.0215  1.1497  3.8411
  705MOL0     H95118   5.271   2.821  12.125 -1.4326 -0.9181  1.1678
  705MOL0     H95119   5.127   2.895  12.174  2.1743  0.2410  0.6859
  705MOL0     H95120   5.027   2.862  11.951  0.3396  0.4706  1.9631
  705MOL0     H95121   5.165   2.761  11.908  1.2360  0.8780  1.0977
  705MOL0     H95122   4.976   2.704  12.152  2.8086 -1.0796  3.1549
  705MOL0     H95123   4.955   2.619  12.003  2.5262 -0.3149 -1.8164
  705MOL0     H95124   5.056   2.494  12.151  0.3844  0.7576 -0.1472
  705MOL0     H95125   5.182   2.607  12.201  0.6594  1.8892 -0.2617
  705MOL0     H95126   5.085   2.499  11.819 -2.0890  0.5829  0.4432
  705MOL0     H95127   5.209   2.378  11.622  0.3775  0.8189 -0.3985
  705MOL0     H95128   5.383   2.391  11.630  0.0449 -1.3049  0.5920
  705MOL0     H95129   5.226   2.167  11.768  1.8579  0.9932  2.1684
  705MOL0     H95130   5.399   2.187  11.782  0.1367 -3.2177 -0.7072
  705MOL0     H95131   5.433   2.166  11.533 -0.6774 -0.0182 -1.1991
  705MOL0     H95132   5.251   2.167  11.521 -1.3122 -1.6487 -0.4735
  705MOL0     H95133   5.402   1.946  11.674 -2.1994 -3.9611  0.4311
  705MOL0     H95134   5.328   1.928  11.515 -0.2994 -1.0894  0.8384
  705MOL0     H95135   5.279   1.719  11.562 -1.1722 -2.3760 -0.9684
  705MOL0     H95136   5.340   1.436  11.682  0.9289  2.0424 -0.3764
  705MOL0     H95137   5.183   1.393  11.608  0.6475  0.6414 -1.0037
  705MOL0     H95138   5.297   1.497  11.524  0.3012 -0.7838 -1.1542
  705MOL0     H95139   5.111   1.189  11.994  0.5043 -1.9908  0.2848
  705MOL0     H95140   5.023   0.965  12.049  1.5506 -0.4577 -0.8806
  705MOL0     H95141   4.790   0.756  11.746  1.9639 -4.3725 -1.4085
  705MOL0     H95142   4.938   0.723  11.826 -0.1451 -1.0840 -0.6523
  705MOL0     H95143   4.838   0.632  12.028 -0.0257 -0.3144  0.1069
  705MOL0     H95144   4.680   0.673  11.977  0.1154 -2.4531  4.3732
  705MOL0     H95145   4.785   0.428  11.955  3.6826 -1.2865 -1.5679
  705MOL0     H95146   4.880   0.483  11.832 -0.0508 -2.1485  0.3402
  705MOL0     H95147   4.574   0.520  11.827 -0.2149 -0.7708 -0.6082
  705MOL0     H95148   4.698   0.539  11.702 -0.3592 -0.8927 -0.8626
  705MOL0     H95149   4.616   0.275  11.832  0.6945  1.9935  0.7598
  705MOL0     H95150   4.726   0.300  11.692 -0.2984 -0.6645 -0.4607
  705MOL0     H95151   4.427   0.383  11.690 -1.8047 -3.1675  0.3018
  705MOL0     H95152   4.544   0.371  11.554 -1.7954 -0.3214 -0.6828
  705MOL0     H95153   4.416   0.148  11.713  2.5914 -0.9357  0.1330
  705MOL0     H95154   4.545   0.121  11.604 -1.0483 -1.2085 -1.2955
  705MOL0     H95155   4.318   0.089  11.498 -0.3711 -0.4185  1.3523
  705MOL0     H95156   4.376   0.257  11.428 -0.1143 -0.8267 -0.5872
  705MOL0     H95157   4.739   1.012  11.736  0.2142 -1.9494 -1.4910
  705MOL0     H95158   4.862   1.232  11.657  0.3753 -1.6888 -2.5300
  705MOL0     H95159   4.997   1.679  11.960 -0.7606 -1.0104 -1.4875
  705MOL0     H95160   5.061   1.903  11.858  1.8747 -0.4204  2.0073
  705MOL0     H95161   5.426   3.431  11.695  1.0229  0.0597  1.0041
  705MOL0     H95162   5.301   3.489  11.491 -1.3159 -0.2598 -1.5408
  705MOL0     H95163   5.003   3.459  11.299 -0.6069  0.8781 -0.9822
  705MOL0     H95164   4.801   3.529  11.212  2.8762 -1.3844  3.1027
  705MOL0     H95165   4.573   3.612  10.976  1.6017  2.1851  0.7404
  705MOL0     H95166   4.737   3.665  11.002 -2.3731  2.0433  0.0281
  705MOL0     H95167   4.772   3.593  10.763 -0.7111 -2.6944  3.3801
  705MOL0     H95168   4.714   3.752  10.810 -4.9652  1.0758  1.4295
  705MOL0     H95169   4.468   3.615  10.770  1.0137  0.6636  2.6510
  705MOL0     H95170   4.581   3.525  10.664  1.7964  1.4093 -2.0640
  705MOL0     H95171   4.652   3.725  10.570  1.2735 -0.1905  2.1742
  705MOL0     H95172   4.529   3.827  10.661 -2.9301  0.0909  0.9106
  705MOL0     H95173   4.307   3.660  10.333 -1.2124  0.0830  0.4175
  705MOL0     H95174   4.875   3.315  10.848  1.7374 -0.4252 -0.2555
  705MOL0     H95175   5.102   3.225  10.943  0.6872 -2.0356  3.4776
  706MOL0     O95176   4.027  10.965   1.287 -0.0980 -0.9299 -0.0197
  706MOL0     C95177   3.998  11.042   1.197 -0.7997 -0.0356 -0.2673
  706MOL0     O95178   3.961  10.995   1.079 -0.1532 -0.6210  0.5388
  706MOL0     C95179   3.873  10.894   1.074 -0.9262  0.7536 -0.5659
  706MOL0     C95180   3.748  10.889   1.137  0.5994 -0.4387  0.0823
  706MOL0     C95181   3.666  10.772   1.118 -0.9740  1.3891 -0.5351
  706MOL0     C95182   3.721  10.654   1.051  0.5339  0.0324  0.3143
  706MOL0     O95183   3.643  10.541   1.014  0.2175 -0.5746 -0.3394
  706MOL0     C95184   3.521  10.519   1.081 -0.7116  0.2025 -0.4596
  706MOL0     C95185   3.491  10.373   1.079 -0.9118  0.5623  0.3774
  706MOL0     C95186   3.600  10.281   1.150  0.3092  0.2508  0.1269
  706MOL0     C95187   3.551  10.129   1.160  0.2443 -0.7956 -0.3748
  706MOL0     C95188   3.449  10.126   1.276 -0.5060  0.2095  0.4424
  706MOL0     C95189   3.383   9.990   1.275 -0.6912 -0.3578  0.4567
  706MOL0     C95190   3.296   9.973   1.408  0.2301  0.0214  0.8621
  706MOL0     C95191   3.162  10.056   1.396  0.8343  0.0336  0.0539
  706MOL0     N95192   3.096  10.066   1.529  0.8722  0.2374 -0.6755
  706MOL0     C95193   2.974  10.001   1.545 -0.1169 -0.5354  0.3032
  706MOL0     C95194   2.938  10.036   1.670 -0.5822  0.3005  0.3926
  706MOL0     C95195   2.814   9.992   1.744  0.7110 -0.6680  0.0888
  706MOL0     C95196   2.704  10.099   1.752  0.4655 -0.2984 -0.1051
  706MOL0     C95197   2.574  10.053   1.687 -1.2468  0.7060  0.5126
  706MOL0     C95198   2.461  10.165   1.682  0.0152  0.1055 -0.6193
  706MOL0     O95199   2.369  10.112   1.785  0.3914  0.6546  0.3957
  706MOL0     C95200   2.267  10.186   1.839  0.8865 -1.3728  0.3450
  706MOL0     C95201   2.186  10.137   1.939  0.1868 -0.1551 -1.3991
  706MOL0     C95202   2.080  10.209   2.005  0.4105  0.2398 -0.0468
  706MOL0     C95203   2.006  10.139   2.114  0.3925 -0.1922 -0.4661
  706MOL0     C95204   2.065  10.345   1.971 -0.5343 -0.0252  0.1607
  706MOL0     C95205   1.976  10.433   2.047  0.8251 -0.5956 -0.6860
  706MOL0     O95206   1.868  10.386   2.118 -0.6016 -0.1332 -0.2182
  706MOL0     C95207   1.806  10.482   2.196  0.1236  0.2531  0.5281
  706MOL0     C95208   1.838  10.501   2.328 -0.0981  0.1473 -0.0924
  706MOL0     C95209   1.764  10.587   2.413  0.4461  0.0773  0.2100
  706MOL0     C95210   1.681  10.681   2.360 -0.2223 -0.4891 -0.1703
  706MOL0     O95211   1.606  10.761   2.443  0.4098 -0.4342 -0.3697
  706MOL0     C95212   1.464  10.763   2.406  0.7489 -0.2903 -0.6660
  706MOL0     C95213   1.374  10.780   2.524  0.2098 -1.0676  0.8475
  706MOL0     C95214   1.389  10.653   2.615 -0.2240  0.7169  0.2623
  706MOL0     C95215   1.282  10.654   2.717  0.4763  0.7593  0.2206
  706MOL0     C95216   1.313  10.762   2.816  0.6286 -0.2396 -0.5531
  706MOL0     C95217   1.211  10.744   2.924 -0.6599 -0.4620  0.2417
  706MOL0     C95218   1.227  10.842   3.030  0.6250  0.4721 -0.6219
  706MOL0     C95219   1.146  10.817   3.160  0.5298 -0.3376  0.7368
  706MOL0    Cl95220   1.188  10.661   3.232 -0.5056  0.1195  0.4189
  706MOL0     C95221   1.663  10.674   2.225  0.4162  0.5917 -1.0756
  706MOL0     C95222   1.716  10.568   2.142 -0.2124 -1.5241 -0.3246
  706MOL0     O95223   2.007  10.550   2.041  0.3032  0.3109  0.4301
  706MOL0     C95224   2.157  10.407   1.876  0.1686 -0.7338  0.4557
  706MOL0     C95225   2.241  10.326   1.804  0.2950  0.0293 -0.1853
  706MOL0     N95226   3.038  10.115   1.725  0.5800 -0.4619  0.4090
  706MOL0     N95227   3.125  10.141   1.639 -0.4487  0.9102 -0.3174
  706MOL0     C95228   3.842  10.667   0.993  0.2496  0.2102  0.2105
  706MOL0     C95229   3.921  10.785   1.004  0.7538  0.5838 -0.4643
  706MOL0     C95230   4.027  11.189   1.213 -0.9552 -0.4687  0.2016
  706MOL0     C95231   3.978  11.278   1.115 -0.4348 -0.0031 -0.1752
  706MOL0     C95232   3.993  11.418   1.126 -0.1127  0.3908 -0.4079
  706MOL0     C95233   4.061  11.473   1.236  0.0144  0.1124  0.0778
  706MOL0     O95234   4.053  11.611   1.262 -0.7639 -0.0465  0.5631
  706MOL0     C95235   3.943  11.675   1.322  1.0025 -0.2345  1.4766
  706MOL0     C95236   3.896  11.796   1.244  0.8199  1.2527 -0.1352
  706MOL0     C95237   3.778  11.871   1.310  0.5345  0.6637  0.6604
  706MOL0     C95238   3.737  11.990   1.216 -0.0275  0.0208  0.8502
  706MOL0     C95239   3.853  12.080   1.190  0.0472  0.3545  0.0538
  706MOL0     C95240   3.940  12.149   1.151  0.7670 -0.3173 -0.0024
  706MOL0     C95241   4.113  11.384   1.332 -0.0946  0.0168  0.8235
  706MOL0     C95242   4.090  11.248   1.320  0.5668 -0.3403 -0.6125
  706MOL0     H95243   3.710  10.980   1.181 -2.8248 -0.2405 -2.8457
  706MOL0     H95244   3.567  10.762   1.161 -0.4797 -3.6451  0.0796
  706MOL0     H95245   3.525  10.544   1.188 -1.0406 -0.7026 -0.2297
  706MOL0     H95246   3.440  10.579   1.039 -1.6048 -0.7188 -0.0908
  706MOL0     H95247   3.391  10.363   1.121 -1.7348 -1.4457 -1.7967
  706MOL0     H95248   3.484  10.330   0.978  1.4132  1.1672 -0.1104
  706MOL0     H95249   3.692  10.292   1.091 -0.8693  0.3674 -1.7799
  706MOL0     H95250   3.605  10.321   1.251 -3.6062  0.8005  0.2622
  706MOL0     H95251   3.502  10.103   1.065 -0.1847  0.7861 -0.6182
  706MOL0     H95252   3.637  10.067   1.186  1.7016 -0.0021 -2.9078
  706MOL0     H95253   3.506  10.149   1.366  0.2097  1.1827 -0.2423
  706MOL0     H95254   3.376  10.207   1.272 -1.9630 -1.0588  0.2118
  706MOL0     H95255   3.322   9.974   1.186 -1.2263 -0.8428  0.9058
  706MOL0     H95256   3.467   9.920   1.268  0.0734  0.6311 -0.6918
  706MOL0     H95257   3.279   9.866   1.425 -0.8728  0.5034  3.2711
  706MOL0     H95258   3.354  10.017   1.490  0.9590  0.4725  0.1225
  706MOL0     H95259   3.100  10.001   1.324  0.5119  0.0434  0.3197
  706MOL0     H95260   3.174  10.156   1.353  2.0887  0.5651  1.5697
  706MOL0     H95261   2.924   9.935   1.475 -2.1903 -2.2878  3.1710
  706MOL0     H95262   2.777   9.896   1.707  1.2788  0.4104 -3.7331
  706MOL0     H95263   2.851   9.978   1.846 -1.6267 -1.4340  0.8977
  706MOL0     H95264   2.741  10.188   1.700  0.4162 -1.2948 -1.9472
  706MOL0     H95265   2.692  10.132   1.856  0.7565 -0.2603 -0.0822
  706MOL0     H95266   2.545   9.961   1.737  5.6003 -1.8677  0.7405
  706MOL0     H95267   2.598  10.029   1.583 -0.1691  3.4162  0.0434
  706MOL0     H95268   2.405  10.175   1.588  0.1869 -0.9131 -0.8362
  706MOL0     H95269   2.519  10.252   1.714 -0.4233  0.3001 -0.3455
  706MOL0     H95270   2.204  10.034   1.968  2.2557  0.3455 -0.7513
  706MOL0     H95271   2.065  10.060   2.161 -0.6401 -1.5963 -1.4377
  706MOL0     H95272   1.980  10.210   2.193 -4.1473 -1.5216 -0.4497
  706MOL0     H95273   1.915  10.094   2.073  0.1021  1.6406 -1.9828
  706MOL0     H95274   1.913  10.441   2.379 -0.7815  1.1798  2.2294
  706MOL0     H95275   1.778  10.575   2.520 -2.8688 -2.9504  0.5302
  706MOL0     H95276   1.455  10.853   2.343  2.9900  0.7097  0.3375
  706MOL0     H95277   1.418  10.672   2.367 -1.8390  0.8778 -0.6103
  706MOL0     H95278   1.408  10.872   2.573  0.8394 -0.2175 -1.0925
  706MOL0     H95279   1.268  10.789   2.497  1.2093  0.5059 -3.3588
  706MOL0     H95280   1.493  10.628   2.640  1.0615  3.1731 -2.1240
  706MOL0     H95281   1.372  10.565   2.552 -0.0665  1.1695 -0.4155
  706MOL0     H95282   1.182  10.659   2.673 -0.7349 -0.3876  2.6575
  706MOL0     H95283   1.294  10.559   2.769  0.0265 -1.0806 -2.8279
  706MOL0     H95284   1.314  10.856   2.760  1.8099 -0.7975 -1.5272
  706MOL0     H95285   1.414  10.761   2.858  1.2591  3.2156 -1.6802
  706MOL0     H95286   1.109  10.749   2.884 -0.5662 -2.6056 -0.3938
  706MOL0     H95287   1.240  10.645   2.961  2.5059 -0.5680 -2.0943
  706MOL0     H95288   1.209  10.944   2.994 -1.0760  0.2146 -0.5833
  706MOL0     H95289   1.328  10.835   3.072  0.1517 -3.5576  0.2071
  706MOL0     H95290   1.039  10.809   3.140  0.6156  0.6844 -0.2310
  706MOL0     H95291   1.168  10.906   3.219 -0.7006 -0.1575  0.9385
  706MOL0     H95292   1.610  10.754   2.174  0.2270 -1.3178 -4.0827
  706MOL0     H95293   1.689  10.570   2.037  0.9732 -1.9670 -0.6614
  706MOL0     H95294   2.148  10.513   1.854 -1.1683 -0.7717  0.7096
  706MOL0     H95295   2.306  10.359   1.725 -2.0319  0.5593 -1.9950
  706MOL0     H95296   3.881  10.581   0.939 -0.7131  0.4579 -0.9111
  706MOL0     H95297   4.019  10.792   0.958  1.0573  1.9372  0.3691
  706MOL0     H95298   3.916  11.251   1.031  1.5768  0.4054 -1.8907
  706MOL0     H95299   3.944  11.477   1.049  1.2583  0.6550 -1.1253
  706MOL0     H95300   3.856  11.610   1.335  0.5132 -0.9283 -3.3865
  706MOL0     H95301   3.963  11.704   1.425  0.2875  2.6738  0.8880
  706MOL0     H95302   3.861  11.765   1.145 -3.5404  1.6037  1.0842
  706MOL0     H95303   3.991  11.850   1.235  1.7153 -0.2675 -0.1128
  706MOL0     H95304   3.810  11.902   1.411  0.0924 -2.0375  1.7100
  706MOL0     H95305   3.690  11.808   1.323  1.5996 -0.6854  1.7092
  706MOL0     H95306   3.660  12.047   1.269  0.6965  0.3075  1.6060
  706MOL0     H95307   3.699  11.959   1.118 -0.6896 -1.8713  1.6520
  706MOL0     H95308   4.029  12.200   1.119  0.9369 -0.0342  0.8921
  706MOL0     H95309   4.163  11.423   1.420  1.6637 -0.3559  0.0257
  706MOL0     H95310   4.134  11.185   1.398 -0.9574  0.2510  0.7869
  707MOL0     O95311  11.470   1.184   0.163 -0.1455  0.6731  0.2788
  707MOL0     C95312  11.538   1.211   0.060  0.1362 -0.4513 -0.5219
  707MOL0     O95313  11.519   1.184  -0.067  0.7479  0.1452  0.0239
  707MOL0     C95314  11.412   1.106  -0.103  0.8309 -0.0076 -0.3281
  707MOL0     C95315  11.383   0.989  -0.034  0.5061  0.3802 -0.3569
  707MOL0     C95316  11.297   0.899  -0.090  0.3547 -0.3712  0.5605
  707MOL0     C95317  11.229   0.921  -0.212 -0.2826 -0.1725  0.0416
  707MOL0     O95318  11.132   0.834  -0.273  0.3393 -0.1244 -0.5346
  707MOL0     C95319  11.102   0.722  -0.199  0.2766 -0.4791 -0.2490
  707MOL0     C95320  10.997   0.642  -0.268 -0.1384  0.1521 -0.5267
  707MOL0     C95321  10.927   0.535  -0.185  0.0299 -0.7102  0.1827
  707MOL0     C95322  10.798   0.574  -0.118 -0.7650 -0.3641 -0.2275
  707MOL0     C95323  10.675   0.570  -0.217  0.0984 -0.1469 -0.5349
  707MOL0     C95324  10.541   0.621  -0.144  0.4090  0.8521 -0.8219
  707MOL0     C95325  10.469   0.508  -0.053  0.6134  0.3766 -0.1549
  707MOL0     C95326  10.314   0.515  -0.035  0.6060 -0.7069 -0.2203
  707MOL0     N95327  10.284   0.498   0.108  0.1022 -0.0386  0.2025
  707MOL0     C95328  10.275   0.597   0.198  0.7907 -0.0168 -1.0707
  707MOL0     C95329  10.209   0.535   0.305  0.1414 -0.5272  0.3453
  707MOL0     C95330  10.163   0.603   0.426  0.0462 -0.2447 -0.5166
  707MOL0     C95331  10.195   0.529   0.557 -0.1731 -0.3421 -1.0938
  707MOL0     C95332  10.153   0.626   0.678 -0.0617  0.1326  0.2249
  707MOL0     C95333  10.160   0.543   0.810  0.1116 -0.3399 -0.7002
  707MOL0     O95334  10.179   0.622   0.925  1.0182 -0.1758 -0.5593
  707MOL0     C95335  10.306   0.674   0.955 -0.8003  0.0050 -0.0341
  707MOL0     C95336  10.419   0.642   0.878 -0.4732  0.0836 -0.9564
  707MOL0     C95337  10.539   0.704   0.909 -0.2486  0.5691  0.0156
  707MOL0     C95338  10.662   0.656   0.838  0.2015 -0.0272  0.1281
  707MOL0     C95339  10.542   0.818   0.998 -0.4768 -0.3276  0.9155
  707MOL0     C95340  10.655   0.888   1.032 -0.5528 -0.3694 -0.0904
  707MOL0     O95341  10.651   0.944   1.162  0.4620 -0.1915 -0.1211
  707MOL0     C95342  10.751   1.016   1.217  0.1722  1.3085  0.3507
  707MOL0     C95343  10.753   1.017   1.355  0.0608 -0.3569 -0.4037
  707MOL0     C95344  10.837   1.106   1.415 -0.8862  0.0378 -0.8519
  707MOL0     C95345  10.926   1.182   1.347 -0.1537  0.7363 -0.3336
  707MOL0     O95346  11.016   1.268   1.403  0.0941  0.5706 -0.6370
  707MOL0     C95347  11.074   1.236   1.531  0.4885  0.0244  0.7313
  707MOL0     C95348  11.196   1.331   1.555 -0.1476  0.0374  0.9693
  707MOL0     C95349  11.137   1.477   1.564  0.1323  0.6209  0.8003
  707MOL0     C95350  11.248   1.578   1.586  0.1021 -0.9509 -0.0979
  707MOL0     C95351  11.208   1.725   1.590  0.0711  0.7456 -0.0882
  707MOL0     C95352  11.097   1.753   1.490  0.1412  0.8188 -0.1808
  707MOL0     C95353  11.096   1.907   1.476  0.0206  0.2300 -0.0159
  707MOL0     C95354  10.986   1.968   1.394  1.0631  1.1966 -0.3058
  707MOL0    Cl95355  11.018   1.939   1.216  0.1523 -0.0080  0.3362
  707MOL0     C95356  10.930   1.178   1.203  0.6729 -0.5584  0.5209
  707MOL0     C95357  10.844   1.095   1.131 -0.6557  0.1451 -0.4689
  707MOL0     O95358  10.745   0.903   0.946  0.1536 -0.1864 -0.4045
  707MOL0     C95359  10.423   0.846   1.063 -0.2361  1.1610  0.1394
  707MOL0     C95360  10.311   0.773   1.050  0.8571 -0.0999  0.3489
  707MOL0     N95361  10.189   0.405   0.282 -0.9509 -0.1826 -0.0978
  707MOL0     N95362  10.215   0.388   0.156  0.3561 -0.8926 -0.0536
  707MOL0     C95363  11.244   1.051  -0.274  0.5422 -0.6165 -0.6667
  707MOL0     C95364  11.338   1.131  -0.213  0.3956 -0.4267  0.1850
  707MOL0     C95365  11.640   1.325   0.088 -0.2878 -0.8569 -0.3320
  707MOL0     C95366  11.729   1.373  -0.015  0.8978 -0.1348 -0.7730
  707MOL0     C95367  11.834   1.462   0.010 -1.1213  0.0592  0.4125
  707MOL0     C95368  11.853   1.512   0.133  0.2220 -0.0818 -0.3292
  707MOL0     O95369  11.948   1.616   0.148  0.5561  0.2166 -0.3346
  707MOL0     C95370  11.944   1.702   0.270 -0.2541 -0.1425 -0.1331
  707MOL0     C95371  11.999   1.849   0.260  0.0269 -0.5196 -0.2591
  707MOL0     C95372  12.142   1.853   0.200 -0.1578  0.1904  0.5860
  707MOL0     C95373  12.154   1.792   0.060 -0.9958 -0.5063 -0.0653
  707MOL0     C95374  12.254   1.856  -0.022 -0.0860  0.5355  0.6223
  707MOL0     C95375  12.346   1.892  -0.084  0.4000  0.5315 -0.7773
  707MOL0     C95376  11.775   1.460   0.242  0.2111 -0.8128 -0.4476
  707MOL0     C95377  11.673   1.370   0.220 -0.2761  0.7532  0.2474
  707MOL0     H95378  11.440   0.976   0.057 -1.0451  0.3266  0.6559
  707MOL0     H95379  11.284   0.812  -0.027  0.9014 -0.8439  0.0265
  707MOL0     H95380  11.190   0.656  -0.194  1.4545  1.1174  3.0062
  707MOL0     H95381  11.069   0.755  -0.100  0.6371  0.9718 -0.5824
  707MOL0     H95382  10.917   0.711  -0.295 -0.6420  0.2509  1.0885
  707MOL0     H95383  11.032   0.588  -0.357  1.3621  0.1733  0.0199
  707MOL0     H95384  10.908   0.446  -0.247  2.1886 -2.7336  2.1995
  707MOL0     H95385  10.993   0.506  -0.103  1.3787  0.2824 -0.5311
  707MOL0     H95386  10.776   0.510  -0.033  1.7668 -1.0237  0.0135
  707MOL0     H95387  10.821   0.673  -0.078 -0.3404 -0.0740 -1.1398
  707MOL0     H95388  10.694   0.635  -0.303  1.0677  0.9580  0.4739
  707MOL0     H95389  10.661   0.469  -0.257 -0.7165 -1.4393  2.7003
  707MOL0     H95390  10.570   0.701  -0.075  3.4499 -2.3444  1.9897
  707MOL0     H95391  10.473   0.660  -0.221  0.1057 -0.6318 -1.3338
  707MOL0     H95392  10.483   0.411  -0.101 -1.2899  0.6707 -1.4120
  707MOL0     H95393  10.511   0.506   0.048  0.2666 -0.6358 -0.0255
  707MOL0     H95394  10.263   0.437  -0.091 -0.3381 -0.0773 -0.2474
  707MOL0     H95395  10.271   0.611  -0.065 -3.3222 -1.5304  2.1457
  707MOL0     H95396  10.300   0.703   0.200  3.7579 -0.5900  1.0774
  707MOL0     H95397  10.211   0.700   0.443 -2.4062  1.2979 -1.7770
  707MOL0     H95398  10.057   0.629   0.417  0.2250  0.4110 -0.7731
  707MOL0     H95399  10.301   0.503   0.564  0.3816  1.7357  5.8526
  707MOL0     H95400  10.137   0.436   0.560 -0.3962 -0.1829 -0.3138
  707MOL0     H95401  10.049   0.651   0.660 -0.7654 -1.9878  0.9936
  707MOL0     H95402  10.214   0.716   0.691 -0.2565  0.5414 -1.4310
  707MOL0     H95403  10.246   0.476   0.815  0.5336  0.2967  1.4749
  707MOL0     H95404  10.067   0.486   0.823 -1.3424  2.2957  1.7017
  707MOL0     H95405  10.416   0.582   0.787  0.7946  0.6353 -1.3938
  707MOL0     H95406  10.724   0.646   0.927 -0.9359  1.4561  1.1560
  707MOL0     H95407  10.652   0.562   0.784  1.9049 -0.4255  0.4736
  707MOL0     H95408  10.703   0.733   0.773 -1.0875 -0.3137 -1.0825
  707MOL0     H95409  10.690   0.963   1.424  2.1091 -4.0188 -1.1501
  707MOL0     H95410  10.841   1.102   1.524 -2.0538 -1.1792 -0.8374
  707MOL0     H95411  11.014   1.256   1.621  2.0065  0.5700  1.6668
  707MOL0     H95412  11.115   1.136   1.520 -0.0249  0.0970 -2.9167
  707MOL0     H95413  11.248   1.306   1.648 -0.6292 -2.1771  0.7143
  707MOL0     H95414  11.266   1.312   1.473 -2.7775  0.0572 -1.4421
  707MOL0     H95415  11.063   1.484   1.645 -3.6994  1.9013 -2.4831
  707MOL0     H95416  11.087   1.492   1.468 -0.8777  0.1647  1.2322
  707MOL0     H95417  11.310   1.556   1.673  1.4617 -0.1603 -0.8380
  707MOL0     H95418  11.321   1.563   1.506 -0.1411  0.2973 -0.5630
  707MOL0     H95419  11.289   1.788   1.553 -0.9332  0.2970 -3.2860
  707MOL0     H95420  11.166   1.747   1.689  0.4463 -2.1846  0.8076
  707MOL0     H95421  11.137   1.717   1.395 -1.3997  1.7475 -1.2221
  707MOL0     H95422  11.002   1.718   1.532  0.2817  4.0722  3.4731
  707MOL0     H95423  11.193   1.931   1.433 -0.0641  1.3739  0.4032
  707MOL0     H95424  11.090   1.946   1.578  0.5234 -1.6729  0.7883
  707MOL0     H95425  10.984   2.077   1.410  0.1275  1.0674  0.5731
  707MOL0     H95426  10.886   1.933   1.421  2.2734 -1.1245  1.5325
  707MOL0     H95427  10.992   1.254   1.155 -0.6728 -1.4986 -2.9880
  707MOL0     H95428  10.835   1.089   1.023 -2.9440 -3.7214 -0.2085
  707MOL0     H95429  10.410   0.936   1.123 -0.3129  1.7792 -0.7844
  707MOL0     H95430  10.221   0.796   1.106 -0.4277 -0.0925 -1.6349
  707MOL0     H95431  11.186   1.092  -0.356  1.9247 -0.0275 -1.3909
  707MOL0     H95432  11.358   1.231  -0.252  0.9258 -0.5153  0.2173
  707MOL0     H95433  11.720   1.344  -0.119  1.1493  1.0022 -1.1237
  707MOL0     H95434  11.890   1.499  -0.076 -2.7862 -0.2276 -0.8641
  707MOL0     H95435  11.841   1.706   0.306 -0.6466  1.3847 -1.3174
  707MOL0     H95436  12.012   1.653   0.341  0.7672 -0.1905 -1.1309
  707MOL0     H95437  11.994   1.895   0.359 -1.5948 -0.2267 -0.4626
  707MOL0     H95438  11.929   1.906   0.199  0.5891  1.8699  1.1907
  707MOL0     H95439  12.215   1.798   0.260  1.7389  1.1251 -0.7693
  707MOL0     H95440  12.175   1.957   0.197  2.1098 -0.4735  0.8570
  707MOL0     H95441  12.053   1.787   0.019 -2.6052 -1.8912  3.6322
  707MOL0     H95442  12.181   1.686   0.070  2.1137  0.2880  1.0498
  707MOL0     H95443  12.443   1.904  -0.128  0.2629 -1.7442 -1.8314
  707MOL0     H95444  11.796   1.498   0.342 -2.1173  2.1249 -0.9339
  707MOL0     H95445  11.619   1.327   0.304  1.8284 -2.8875 -0.0782
  708MOL0     O95446   3.834   1.958   0.864 -0.2602 -0.0555 -0.1215
  708MOL0     C95447   3.836   2.072   0.921  0.0574  0.3656 -0.4304
  708MOL0     O95448   3.920   2.101   1.024 -0.1684 -0.4984 -0.2534
  708MOL0     C95449   3.966   1.998   1.106 -0.7715 -0.6282 -0.6403
  708MOL0     C95450   3.889   1.957   1.210 -0.1245  0.2659  0.0110
  708MOL0     C95451   3.934   1.877   1.313  0.0081  0.1071 -0.3744
  708MOL0     C95452   4.069   1.843   1.311  0.1176  0.6824  0.1736
  708MOL0     O95453   4.136   1.768   1.414  0.5491 -0.2991 -0.3816
  708MOL0     C95454   4.056   1.649   1.456 -0.4527 -0.7739  0.1015
  708MOL0     C95455   4.163   1.555   1.510  0.3703 -0.1917  0.4458
  708MOL0     C95456   4.122   1.426   1.566  0.5915  0.1595 -0.2727
  708MOL0     C95457   4.230   1.341   1.634  0.4536  0.0800  0.9404
  708MOL0     C95458   4.174   1.202   1.666  0.8133  0.5174  0.2226
  708MOL0     C95459   4.280   1.122   1.744  0.5418  0.1748  0.3799
  708MOL0     C95460   4.209   1.013   1.811 -0.1806  0.3740 -0.1974
  708MOL0     C95461   4.302   0.931   1.894 -0.5874 -0.7773  0.3685
  708MOL0     N95462   4.214   0.836   1.962 -0.3452 -0.7050 -0.5210
  708MOL0     C95463   4.081   0.797   1.939  0.3196 -0.0177 -0.4928
  708MOL0     C95464   4.055   0.718   2.044 -0.5113  0.4936 -0.4093
  708MOL0     C95465   3.927   0.647   2.066 -0.2327 -0.4616  0.4298
  708MOL0     C95466   3.858   0.678   2.204 -0.3698  0.3893 -0.9438
  708MOL0     C95467   3.920   0.617   2.336 -0.0918 -0.0084  0.8708
  708MOL0     C95468   3.828   0.637   2.448  0.5731  0.0694 -0.2684
  708MOL0     O95469   3.894   0.588   2.568  0.1955 -0.0525 -0.6154
  708MOL0     C95470   3.896   0.672   2.680  0.2661  0.7146 -0.0115
  708MOL0     C95471   3.912   0.597   2.801 -0.9190  0.9845 -0.2202
  708MOL0     C95472   3.963   0.641   2.918 -1.5429 -0.4163  0.4385
  708MOL0     C95473   3.979   0.541   3.031 -0.2018  0.3984  1.3180
  708MOL0     C95474   3.998   0.781   2.929  0.5484 -0.4383  0.1889
  708MOL0     C95475   4.047   0.860   3.046 -0.2341  0.7016  0.1773
  708MOL0     O95476   4.123   0.798   3.146  0.8646 -0.6480 -0.2851
  708MOL0     C95477   4.183   0.872   3.248  0.3105 -0.3974 -0.1579
  708MOL0     C95478   4.274   0.799   3.322 -0.4119 -0.5717  0.0111
  708MOL0     C95479   4.365   0.855   3.413  0.0173  0.6649  0.1256
  708MOL0     C95480   4.364   0.992   3.438  0.4935 -0.2386 -0.4894
  708MOL0     O95481   4.464   1.041   3.517  0.5439 -0.0518  0.0175
  708MOL0     C95482   4.421   1.009   3.661 -0.8803  0.3620  0.9699
  708MOL0     C95483   4.485   1.117   3.755 -0.2638 -0.3987  0.1875
  708MOL0     C95484   4.639   1.134   3.724 -0.3028 -0.4888  0.2561
  708MOL0     C95485   4.721   1.205   3.826  0.8864 -0.0508 -1.0875
  708MOL0     C95486   4.870   1.198   3.782  0.2370  0.2846  0.2409
  708MOL0     C95487   4.907   1.242   3.642  0.8750 -0.7388 -0.0374
  708MOL0     C95488   5.060   1.252   3.623 -0.7729  0.5188  1.1194
  708MOL0     C95489   5.107   1.291   3.477 -0.2263 -0.4153 -0.0651
  708MOL0    Cl95490   5.064   1.161   3.355  0.4308  0.0225  0.0689
  708MOL0     C95491   4.265   1.069   3.367  0.4864  0.0964  0.1895
  708MOL0     C95492   4.179   1.010   3.274 -0.7374 -1.1111 -0.7573
  708MOL0     O95493   4.014   0.974   3.040  0.2157 -0.8117  0.8225
  708MOL0     C95494   3.972   0.855   2.807  0.3476 -0.3928 -0.2127
  708MOL0     C95495   3.917   0.808   2.691  0.2534  0.3665  0.6052
  708MOL0     N95496   4.160   0.697   2.124 -0.1564 -0.1500  0.1369
  708MOL0     N95497   4.262   0.770   2.076  0.1612 -0.1223  1.3938
  708MOL0     C95498   4.153   1.878   1.204 -0.5647 -0.9546 -0.4341
  708MOL0     C95499   4.100   1.959   1.105  0.6420  0.4307  0.5914
  708MOL0     C95500   3.765   2.184   0.858 -0.0881  0.9043  0.3212
  708MOL0     C95501   3.718   2.154   0.731  0.6089 -0.3464  0.0879
  708MOL0     C95502   3.633   2.248   0.666 -0.4819  0.1804  0.0579
  708MOL0     C95503   3.628   2.378   0.712  0.9359  0.3271 -0.0536
  708MOL0     O95504   3.560   2.465   0.629 -0.7099  0.3747  0.2251
  708MOL0     C95505   3.588   2.603   0.632  0.1661 -0.5369  0.3885
  708MOL0     C95506   3.658   2.652   0.501  0.4326 -0.4728  0.3907
  708MOL0     C95507   3.649   2.809   0.497  0.8179  0.5601 -1.2715
  708MOL0     C95508   3.509   2.874   0.469 -0.0713 -0.2640 -0.3005
  708MOL0     C95509   3.472   2.848   0.327 -0.3980 -0.0096 -0.2677
  708MOL0     C95510   3.432   2.828   0.216  0.9232  0.0803  0.3138
  708MOL0     C95511   3.689   2.404   0.839 -0.5209 -0.3282 -0.1170
  708MOL0     C95512   3.755   2.308   0.912  1.0209  0.5652  0.7507
  708MOL0     H95513   3.792   2.002   1.231  0.4120  0.8549  1.3471
  708MOL0     H95514   3.870   1.847   1.396 -0.9782 -0.3020 -1.2688
  708MOL0     H95515   3.992   1.679   1.539  1.4973  0.4779  1.2117
  708MOL0     H95516   4.004   1.612   1.366  0.8419 -0.3617 -0.8373
  708MOL0     H95517   4.232   1.523   1.432 -0.4489  1.0280 -0.8161
  708MOL0     H95518   4.219   1.604   1.590  1.1888  1.4979 -1.0876
  708MOL0     H95519   4.047   1.454   1.641  0.5393  0.8691 -0.5887
  708MOL0     H95520   4.078   1.368   1.484  0.0436  0.1024  0.0576
  708MOL0     H95521   4.307   1.320   1.560 -2.6759 -1.2891 -2.2180
  708MOL0     H95522   4.277   1.397   1.716  2.0071 -3.6356  2.8199
  708MOL0     H95523   4.091   1.224   1.734 -2.7249 -2.2351 -2.7771
  708MOL0     H95524   4.135   1.153   1.576  2.3730  0.6645 -0.5735
  708MOL0     H95525   4.347   1.085   1.665 -1.7148  0.7328 -1.9037
  708MOL0     H95526   4.338   1.174   1.821 -1.6814  0.8313  1.6913
  708MOL0     H95527   4.124   1.052   1.868 -0.4536 -1.9318  1.0701
  708MOL0     H95528   4.164   0.943   1.740 -3.7492  1.9241  0.3293
  708MOL0     H95529   4.364   0.975   1.972  0.2227 -0.6407 -0.3373
  708MOL0     H95530   4.370   0.884   1.822  0.0635  0.1388  0.3715
  708MOL0     H95531   4.014   0.819   1.858 -1.8644 -3.7679  0.0479
  708MOL0     H95532   3.856   0.684   1.991  1.3506  0.4495 -0.6818
  708MOL0     H95533   3.949   0.540   2.065  2.2409  0.0007  0.4855
  708MOL0     H95534   3.753   0.648   2.208 -1.0033  2.4594 -0.6524
  708MOL0     H95535   3.864   0.787   2.218  4.2224  0.4885 -2.0869
  708MOL0     H95536   4.013   0.669   2.361  1.1049 -1.2735 -0.7044
  708MOL0     H95537   3.932   0.510   2.316 -0.4482  0.3604 -1.7032
  708MOL0     H95538   3.734   0.582   2.436  1.6821 -3.0594  3.2986
  708MOL0     H95539   3.794   0.739   2.469 -0.3073 -0.4627  1.0419
  708MOL0     H95540   3.869   0.498   2.798  0.6531 -0.0329  3.7513
  708MOL0     H95541   3.921   0.567   3.120 -1.5064 -0.0670  0.6324
  708MOL0     H95542   3.946   0.441   2.999  0.5659  0.6319 -0.2758
  708MOL0     H95543   4.084   0.542   3.063  0.1493  0.1878  0.2243
  708MOL0     H95544   4.296   0.695   3.302  2.8919  0.4427 -2.5274
  708MOL0     H95545   4.437   0.789   3.460  0.5611 -1.8458 -3.7877
  708MOL0     H95546   4.314   1.015   3.681 -0.5522  2.1639  2.3778
  708MOL0     H95547   4.465   0.917   3.702 -2.6424 -0.5575  0.8759
  708MOL0     H95548   4.420   1.204   3.761 -1.5232 -1.3280  0.5360
  708MOL0     H95549   4.470   1.076   3.856  0.4248 -3.2550 -0.7894
  708MOL0     H95550   4.642   1.190   3.630  1.8830 -1.5331 -0.3518
  708MOL0     H95551   4.674   1.032   3.707 -1.6150 -1.1350  1.2898
  708MOL0     H95552   4.703   1.313   3.833 -0.2827 -0.3203  1.0139
  708MOL0     H95553   4.707   1.159   3.924 -1.5506 -1.9115 -2.1993
  708MOL0     H95554   4.886   1.090   3.778 -1.4110  0.0353 -0.5768
  708MOL0     H95555   4.934   1.228   3.865  0.9720 -1.0377  0.1714
  708MOL0     H95556   4.868   1.182   3.560 -1.2469  2.5893 -1.6636
  708MOL0     H95557   4.867   1.343   3.628 -1.3466 -1.6355 -0.5240
  708MOL0     H95558   5.091   1.149   3.640 -2.0670 -0.1390 -0.2723
  708MOL0     H95559   5.097   1.322   3.699 -1.6923  2.5811 -0.2421
  708MOL0     H95560   5.216   1.292   3.484 -0.1510 -2.7565 -0.1704
  708MOL0     H95561   5.085   1.395   3.449 -1.0061 -0.4223  0.4844
  708MOL0     H95562   4.275   1.177   3.368 -0.6338  0.2736 -1.7555
  708MOL0     H95563   4.133   1.089   3.215  3.7964  1.4937 -1.3197
  708MOL0     H95564   3.982   0.962   2.794 -2.7606 -0.3676 -5.0584
  708MOL0     H95565   3.900   0.870   2.603 -3.8878  1.1020  1.7244
  708MOL0     H95566   4.257   1.845   1.207  0.3532  1.6403 -0.8232
  708MOL0     H95567   4.159   2.008   1.028  0.0678  5.2222  2.8012
  708MOL0     H95568   3.733   2.054   0.694 -0.6079 -2.0301  3.7169
  708MOL0     H95569   3.591   2.216   0.571  0.5336 -0.9940 -0.0289
  708MOL0     H95570   3.500   2.668   0.640  2.6655  3.2716 -0.2569
  708MOL0     H95571   3.648   2.635   0.717 -2.6908  1.3351  1.8857
  708MOL0     H95572   3.606   2.616   0.412 -4.7046  2.2980  1.7999
  708MOL0     H95573   3.764   2.628   0.498 -0.0727 -2.8277 -0.8869
  708MOL0     H95574   3.718   2.849   0.423 -2.2562  0.4105 -4.4691
  708MOL0     H95575   3.682   2.842   0.596 -2.4227  1.9561 -0.5142
  708MOL0     H95576   3.523   2.981   0.489 -0.2273 -0.4030  0.5801
  708MOL0     H95577   3.430   2.838   0.536  0.5286  1.6479  1.5573
  708MOL0     H95578   3.380   2.803   0.126  0.9812  2.3097 -0.4176
  708MOL0     H95579   3.690   2.505   0.879  0.7380  0.1233 -1.2095
  708MOL0     H95580   3.807   2.337   1.003  7.0693  0.6118 -2.2070
  709MOL0     O95581   2.179   6.339   4.527 -0.9740 -0.3060  0.5693
  709MOL0     C95582   2.229   6.308   4.415  0.2897 -0.7342 -1.1618
  709MOL0     O95583   2.198   6.375   4.298 -0.7956  0.0970  1.0628
  709MOL0     C95584   2.099   6.460   4.285 -0.1558  0.6161 -0.0448
  709MOL0     C95585   2.070   6.563   4.378  0.9028 -0.7755  0.5880
  709MOL0     C95586   1.973   6.661   4.340  0.4118  0.0118 -0.2576
  709MOL0     C95587   1.909   6.652   4.217 -0.5048  0.3671  0.5800
  709MOL0     O95588   1.820   6.747   4.181  0.3817 -0.0259  0.0664
  709MOL0     C95589   1.865   6.829   4.071  0.0320 -0.8265 -0.1908
  709MOL0     C95590   1.760   6.937   4.044 -0.1356  0.1642  0.2672
  709MOL0     C95591   1.624   6.867   4.030 -0.5398 -0.5153  0.7255
  709MOL0     C95592   1.550   6.924   3.913  0.6435 -0.1826  0.7245
  709MOL0     C95593   1.404   6.866   3.907 -0.3022 -0.3991  0.2209
  709MOL0     C95594   1.329   6.927   3.779 -0.5483 -0.2578  0.8232
  709MOL0     C95595   1.203   6.842   3.750  0.4823 -0.0940  0.0557
  709MOL0     C95596   1.099   6.850   3.875 -0.3823 -0.6805 -0.8103
  709MOL0     N95597   1.037   6.984   3.905  0.3711  0.6242 -0.1197
  709MOL0     C95598   0.994   7.080   3.819  0.8886  0.7016  0.3963
  709MOL0     C95599   0.932   7.170   3.899  1.5878 -0.1330 -1.0200
  709MOL0     C95600   0.842   7.277   3.855  0.0996  0.0798  0.9911
  709MOL0     C95601   0.705   7.228   3.807 -0.3384  0.3777  0.0186
  709MOL0     C95602   0.663   7.334   3.705 -0.1261 -0.0761 -0.5002
  709MOL0     C95603   0.524   7.307   3.648  0.2491 -0.5070  0.3221
  709MOL0     O95604   0.503   7.409   3.547  0.2850  1.1417  0.4494
  709MOL0     C95605   0.543   7.359   3.423 -0.2036 -0.5607  0.2462
  709MOL0     C95606   0.626   7.242   3.386  0.6480 -0.4138  0.4742
  709MOL0     C95607   0.629   7.210   3.242 -0.8770 -0.9663 -0.0748
  709MOL0     C95608   0.694   7.081   3.214 -0.3000  0.2186 -0.7337
  709MOL0     C95609   0.569   7.303   3.146 -0.6455  0.6715  0.2519
  709MOL0     C95610   0.589   7.276   3.003  0.3828 -0.0695  0.2365
  709MOL0     O95611   0.579   7.383   2.923  0.6509  0.1287  0.9641
  709MOL0     C95612   0.596   7.360   2.786 -0.2054 -0.5121 -0.5063
  709MOL0     C95613   0.495   7.296   2.717  0.1372  0.1853  0.3256
  709MOL0     C95614   0.505   7.272   2.577  0.3973 -0.1917 -0.0413
  709MOL0     C95615   0.622   7.319   2.509  0.0008 -0.0019 -0.0019
  709MOL0     O95616   0.628   7.299   2.371 -0.8374 -0.0307  0.0818
  709MOL0     C95617   0.727   7.379   2.291 -0.9444 -0.0213  0.1641
  709MOL0     C95618   0.731   7.346   2.140  0.2766 -0.0720 -0.6965
  709MOL0     C95619   0.714   7.191   2.118  0.0973  0.6240  0.6552
  709MOL0     C95620   0.835   7.120   2.182  0.1026  0.3740  0.2557
  709MOL0     C95621   0.861   6.980   2.131 -0.4859 -1.3427 -0.0204
  709MOL0     C95622   1.016   6.946   2.128 -0.4099 -0.3741 -0.3512
  709MOL0     C95623   1.094   6.902   2.256 -0.1607 -1.1162 -0.3174
  709MOL0     C95624   1.044   6.761   2.305 -0.7484 -0.6504  0.2791
  709MOL0    Cl95625   1.119   6.644   2.191 -0.6368 -0.0495  0.1134
  709MOL0     C95626   0.725   7.389   2.590 -0.4049  0.3285  0.4493
  709MOL0     C95627   0.715   7.413   2.724  0.4455 -0.5550 -0.0594
  709MOL0     O95628   0.599   7.161   2.963 -0.7461 -0.0380  0.1102
  709MOL0     C95629   0.505   7.420   3.186  0.1480  0.5750 -0.4822
  709MOL0     C95630   0.495   7.444   3.324 -0.1745 -0.4932 -0.2136
  709MOL0     N95631   0.937   7.122   4.033 -0.8934  0.6781  0.1940
  709MOL0     N95632   1.000   7.013   4.029 -0.1381  0.0702 -1.1540
  709MOL0     C95633   1.932   6.546   4.130  0.1946 -0.2774  0.3073
  709MOL0     C95634   2.030   6.451   4.158 -0.4186 -1.6405 -0.2401
  709MOL0     C95635   2.310   6.185   4.418 -1.1276  0.3847  0.1248
  709MOL0     C95636   2.352   6.125   4.534  0.8232  0.7645 -0.1215
  709MOL0     C95637   2.436   6.014   4.514 -0.0973  0.6526 -0.1387
  709MOL0     C95638   2.486   5.963   4.395 -0.4882 -0.3174  0.1575
  709MOL0     O95639   2.579   5.864   4.377  0.3952 -0.1311  0.2721
  709MOL0     C95640   2.640   5.825   4.494  0.3426  0.4406  0.2599
  709MOL0     C95641   2.755   5.717   4.471  0.0223 -0.5648  0.3618
  709MOL0     C95642   2.730   5.610   4.357  0.5490 -0.1236  1.1738
  709MOL0     C95643   2.767   5.658   4.216 -0.6521  0.6672 -0.6427
  709MOL0     C95644   2.768   5.540   4.126  0.2761 -0.0803  0.6645
  709MOL0     C95645   2.742   5.447   4.055  1.0554 -1.1418 -0.0552
  709MOL0     C95646   2.450   6.032   4.280  0.3610 -0.9644 -0.3383
  709MOL0     C95647   2.357   6.136   4.290  0.1980 -0.0902 -0.1622
  709MOL0     H95648   2.130   6.577   4.467  0.7537 -0.9351  0.7125
  709MOL0     H95649   1.959   6.744   4.409  3.3377  1.0951 -0.8105
  709MOL0     H95650   1.958   6.885   4.085 -1.8569  2.5386 -0.0176
  709MOL0     H95651   1.876   6.763   3.984 -1.4435  0.1877 -1.1905
  709MOL0     H95652   1.754   7.005   4.129 -0.2801 -0.3317  0.6544
  709MOL0     H95653   1.780   7.013   3.968 -1.0842 -0.2912 -0.4657
  709MOL0     H95654   1.641   6.759   4.021  0.4145 -0.3485  0.5141
  709MOL0     H95655   1.563   6.911   4.110  1.3628 -0.7048  2.3603
  709MOL0     H95656   1.541   7.032   3.920  3.8934  0.2562 -0.2516
  709MOL0     H95657   1.600   6.902   3.818  2.7168 -1.0061  1.9230
  709MOL0     H95658   1.413   6.757   3.896  3.0263 -0.0826 -1.3413
  709MOL0     H95659   1.348   6.888   3.998 -0.2021 -1.0202  0.4406
  709MOL0     H95660   1.308   7.034   3.793  1.6867  0.6309 -1.8394
  709MOL0     H95661   1.396   6.915   3.694 -0.2865 -1.6781  1.1944
  709MOL0     H95662   1.145   6.876   3.663 -0.7775 -2.5312 -0.1383
  709MOL0     H95663   1.233   6.740   3.723 -1.4225 -0.0840 -2.5511
  709MOL0     H95664   1.147   6.807   3.964  1.8279 -0.1492 -1.6896
  709MOL0     H95665   1.014   6.787   3.848 -0.2591 -0.6483 -1.2770
  709MOL0     H95666   1.000   7.093   3.711  1.8605 -0.1946  0.3211
  709MOL0     H95667   0.830   7.345   3.940 -1.0240  2.6973 -1.1161
  709MOL0     H95668   0.904   7.321   3.775  1.7516 -4.6468 -0.6594
  709MOL0     H95669   0.638   7.218   3.893  1.1729 -1.8535  1.0476
  709MOL0     H95670   0.723   7.132   3.758  2.1919  0.2798  0.9982
  709MOL0     H95671   0.739   7.342   3.626  0.1072  3.2177 -0.0956
  709MOL0     H95672   0.665   7.429   3.759 -1.0248 -0.8168  0.8874
  709MOL0     H95673   0.450   7.323   3.728 -0.5015 -0.5242 -0.3574
  709MOL0     H95674   0.516   7.203   3.613 -0.8060  0.2427 -1.8167
  709MOL0     H95675   0.661   7.176   3.464 -0.7459 -3.1184 -1.0530
  709MOL0     H95676   0.615   7.010   3.188  1.8860 -3.4148  1.6045
  709MOL0     H95677   0.760   7.086   3.127  1.9413  0.3756  0.8866
  709MOL0     H95678   0.745   7.043   3.303  0.8670  5.6307  1.3067
  709MOL0     H95679   0.408   7.257   2.768  1.7828 -1.3634  2.1126
  709MOL0     H95680   0.438   7.213   2.516  0.4352 -0.6889  0.3893
  709MOL0     H95681   0.710   7.486   2.306  0.2686 -0.1304  2.8510
  709MOL0     H95682   0.822   7.354   2.339 -0.6964 -5.2409 -2.3070
  709MOL0     H95683   0.649   7.392   2.084 -0.2405 -0.0737  0.0392
  709MOL0     H95684   0.828   7.378   2.102  1.8227 -4.2691 -0.8654
  709MOL0     H95685   0.725   7.162   2.013  0.5190  3.0631 -0.0278
  709MOL0     H95686   0.618   7.157   2.156 -0.0213  3.5859  3.4008
  709MOL0     H95687   0.921   7.188   2.177  0.0239  0.4760  0.2815
  709MOL0     H95688   0.816   7.110   2.289 -0.6232  0.9601  0.1916
  709MOL0     H95689   0.826   6.976   2.027  0.4985 -0.6405 -0.3924
  709MOL0     H95690   0.807   6.913   2.199 -0.8891 -1.0374 -0.0381
  709MOL0     H95691   1.039   6.868   2.055  2.4073  1.1884 -1.2714
  709MOL0     H95692   1.076   7.025   2.084  0.8596 -2.4570 -2.5958
  709MOL0     H95693   1.082   6.979   2.333  1.3156 -0.9649 -0.2146
  709MOL0     H95694   1.200   6.896   2.230 -0.6359 -0.3288 -2.6905
  709MOL0     H95695   0.936   6.743   2.311 -0.9818 -0.6093 -2.6129
  709MOL0     H95696   1.088   6.730   2.401  3.4619 -0.1634 -1.2780
  709MOL0     H95697   0.798   7.450   2.538 -3.0679  2.5783 -0.8624
  709MOL0     H95698   0.788   7.468   2.782  1.7731 -2.9545  0.7044
  709MOL0     H95699   0.469   7.492   3.114 -1.6333  0.0379 -0.1801
  709MOL0     H95700   0.445   7.538   3.349 -1.5861 -0.8890 -1.3847
  709MOL0     H95701   1.883   6.533   4.034  1.2021 -2.1054 -0.0075
  709MOL0     H95702   2.058   6.377   4.084 -1.7210 -0.1591 -2.3237
  709MOL0     H95703   2.307   6.163   4.625 -1.5989  0.1486 -0.9757
  709MOL0     H95704   2.462   5.965   4.608  1.2291  1.9296  0.1956
  709MOL0     H95705   2.680   5.907   4.554  1.1599 -1.0968  1.8991
  709MOL0     H95706   2.564   5.774   4.554 -2.5333  1.6628 -2.1180
  709MOL0     H95707   2.758   5.665   4.567  3.6487  0.1020  0.7586
  709MOL0     H95708   2.853   5.759   4.445  0.1124 -2.1931 -2.3574
  709MOL0     H95709   2.626   5.579   4.368  1.7201 -3.5571  5.1182
  709MOL0     H95710   2.789   5.521   4.380 -0.1243 -0.8494  0.1771
  709MOL0     H95711   2.860   5.715   4.218  0.9224 -1.7697  1.9685
  709MOL0     H95712   2.699   5.735   4.178 -2.4521 -0.5330 -0.0387
  709MOL0     H95713   2.740   5.354   4.003  1.6789 -0.0944 -2.0342
  709MOL0     H95714   2.480   6.000   4.181 -3.8173 -2.1799 -1.4141
  709MOL0     H95715   2.331   6.199   4.205  1.0499  3.8446  2.2779
  710MOL0     O95716   7.462   1.702   3.879  0.8213 -0.0111 -0.3453
  710MOL0     C95717   7.466   1.624   3.784  1.3415 -0.2704 -0.4194
  710MOL0     O95718   7.352   1.574   3.719  0.5937 -0.1145  1.0706
  710MOL0     C95719   7.226   1.631   3.752  0.2796 -0.0662  0.1151
  710MOL0     C95720   7.185   1.740   3.686 -1.0802  1.0022 -0.3916
  710MOL0     C95721   7.050   1.774   3.690  0.1070 -0.5530  0.5923
  710MOL0     C95722   6.954   1.699   3.763  0.1472 -0.5380 -0.4711
  710MOL0     O95723   6.828   1.764   3.787 -0.0506 -0.1301  0.5186
  710MOL0     C95724   6.741   1.690   3.866 -0.4097  0.3709  0.3287
  710MOL0     C95725   6.660   1.593   3.774  0.2168 -0.0717  0.4520
  710MOL0     C95726   6.595   1.673   3.661 -0.3908  0.9215 -0.8328
  710MOL0     C95727   6.505   1.587   3.579  0.1195  0.1508  0.0152
  710MOL0     C95728   6.427   1.676   3.484 -0.6604 -0.1667  0.3414
  710MOL0     C95729   6.333   1.601   3.384 -0.3064  0.8509  0.2437
  710MOL0     C95730   6.240   1.694   3.307  0.8853  0.6133 -0.0163
  710MOL0     C95731   6.138   1.618   3.228  0.4467  0.8752  1.1349
  710MOL0     N95732   6.015   1.692   3.187  0.3533 -0.2750 -0.4428
  710MOL0     C95733   5.934   1.764   3.275  0.3121 -1.0931  0.1582
  710MOL0     C95734   5.842   1.810   3.197 -0.4403  0.1916  0.8801
  710MOL0     C95735   5.721   1.886   3.241 -0.3054 -0.2464 -0.8296
  710MOL0     C95736   5.747   2.001   3.336  0.5523 -0.9091  0.3167
  710MOL0     C95737   5.812   2.119   3.258 -0.1766 -0.3075 -0.8061
  710MOL0     C95738   5.958   2.107   3.225  0.7600 -0.1663 -0.2679
  710MOL0     O95739   6.038   2.077   3.340 -0.2701  0.0530 -1.1036
  710MOL0     C95740   6.047   2.180   3.438  1.6222  0.4572  0.7381
  710MOL0     C95741   6.025   2.155   3.569  0.5880 -0.4282 -0.2844
  710MOL0     C95742   6.036   2.255   3.659  0.0972 -0.9783 -0.9392
  710MOL0     C95743   6.025   2.211   3.809  0.5862  0.0817  0.2615
  710MOL0     C95744   6.077   2.384   3.626  1.1588  0.1656  0.1765
  710MOL0     C95745   6.075   2.502   3.719  1.2056 -0.1487  0.6449
  710MOL0     O95746   6.063   2.622   3.654  0.0470  0.7668 -0.6604
  710MOL0     C95747   6.121   2.735   3.712 -0.0583 -0.2412  0.1598
  710MOL0     C95748   6.223   2.804   3.640 -0.0119 -1.8222 -0.2403
  710MOL0     C95749   6.275   2.931   3.706 -0.0468 -0.1577 -0.2799
  710MOL0     C95750   6.240   2.965   3.839  0.0522  0.6142 -0.7922
  710MOL0     O95751   6.278   3.081   3.904 -0.2273 -0.3630 -0.3776
  710MOL0     C95752   6.298   3.198   3.818  0.1436  0.0464 -0.3187
  710MOL0     C95753   6.449   3.208   3.787 -0.1923 -0.1673  0.6308
  710MOL0     C95754   6.482   3.342   3.724  0.2571 -0.9846  0.5001
  710MOL0     C95755   6.632   3.368   3.725  0.0600  0.7992  0.1327
  710MOL0     C95756   6.681   3.490   3.647 -0.0925 -0.2685  0.6171
  710MOL0     C95757   6.834   3.512   3.639  0.5955 -0.4502 -0.8635
  710MOL0     C95758   6.883   3.638   3.555  0.3553  0.5007 -0.7874
  710MOL0     C95759   7.027   3.657   3.598 -0.5988 -0.6095  0.0366
  710MOL0    Cl95760   7.072   3.767   3.470 -0.1331  0.1838 -0.0650
  710MOL0     C95761   6.141   2.889   3.902  0.8581  0.4405  0.4257
  710MOL0     C95762   6.081   2.780   3.835 -0.2161 -1.2889 -0.3041
  710MOL0     O95763   6.103   2.494   3.840 -0.4427  0.2871  0.4143
  710MOL0     C95764   6.107   2.399   3.491 -2.4753  0.2962  0.2685
  710MOL0     C95765   6.093   2.297   3.404  0.6661  0.6761  0.4890
  710MOL0     N95766   5.882   1.793   3.064 -0.5118 -0.4212 -0.1021
  710MOL0     N95767   5.988   1.719   3.060  0.0480 -1.2627 -0.6484
  710MOL0     C95768   6.993   1.579   3.817  1.0400  0.4851 -0.4237
  710MOL0     C95769   7.132   1.548   3.823 -0.0258 -0.8466  0.2742
  710MOL0     C95770   7.595   1.563   3.752 -0.6100 -0.2655 -0.2773
  710MOL0     C95771   7.624   1.495   3.634  0.2326 -0.0083  0.8789
  710MOL0     C95772   7.746   1.423   3.628  0.2877 -0.1582 -0.6817
  710MOL0     C95773   7.842   1.430   3.728 -0.4389 -1.0620  0.3340
  710MOL0     O95774   7.968   1.382   3.719  0.5105  0.5226 -0.6230
  710MOL0     C95775   7.999   1.263   3.642 -0.0361 -0.1798 -0.4066
  710MOL0     C95776   8.025   1.145   3.731 -0.4997  0.4364  0.2743
  710MOL0     C95777   7.906   1.091   3.805 -0.2373 -0.1637 -0.2186
  710MOL0     C95778   7.941   1.033   3.939 -0.2182  0.4958 -0.7447
  710MOL0     C95779   7.821   0.966   3.991 -0.2556 -0.0274 -0.2885
  710MOL0     C95780   7.716   0.910   4.023  0.6689 -0.0841  0.0919
  710MOL0     C95781   7.820   1.508   3.835  0.1074  0.3874 -0.4105
  710MOL0     C95782   7.694   1.570   3.857 -0.2003  0.4379  0.7152
  710MOL0     H95783   7.254   1.791   3.620 -1.2777  1.1231 -0.5087
  710MOL0     H95784   7.024   1.864   3.636 -0.3987 -0.7647  0.4733
  710MOL0     H95785   6.782   1.639   3.954 -0.3834  1.7599  1.1449
  710MOL0     H95786   6.670   1.759   3.912 -0.3854  1.6204 -1.3968
  710MOL0     H95787   6.715   1.509   3.731 -2.3615 -1.5544 -0.1846
  710MOL0     H95788   6.587   1.538   3.834 -1.0536  0.9250 -0.1166
  710MOL0     H95789   6.554   1.760   3.714  1.2002  1.2348 -0.0320
  710MOL0     H95790   6.680   1.710   3.603  1.0214 -3.2372 -1.8126
  710MOL0     H95791   6.568   1.516   3.525  0.0373  1.7625 -2.3067
  710MOL0     H95792   6.434   1.533   3.643 -0.4550  1.1117  0.2053
  710MOL0     H95793   6.360   1.747   3.532 -3.1952 -1.8107 -0.5407
  710MOL0     H95794   6.506   1.729   3.430  0.1050 -0.4088  1.2011
  710MOL0     H95795   6.387   1.546   3.306 -2.4166  0.6755 -1.1624
  710MOL0     H95796   6.279   1.529   3.446  0.0974  0.9562  0.7320
  710MOL0     H95797   6.190   1.747   3.389  0.2919  0.4279 -0.2494
  710MOL0     H95798   6.298   1.752   3.236 -0.4566  0.3516 -1.3995
  710MOL0     H95799   6.103   1.541   3.298  3.6362  1.0082  3.0921
  710MOL0     H95800   6.197   1.566   3.153  1.0221 -0.1043  2.2410
  710MOL0     H95801   5.945   1.776   3.382 -0.6296  0.2875  0.1238
  710MOL0     H95802   5.677   1.925   3.149  2.1815  1.0454 -1.5580
  710MOL0     H95803   5.645   1.823   3.288  1.5021 -1.7430  0.2114
  710MOL0     H95804   5.796   1.976   3.431  1.4822  0.6894  0.3034
  710MOL0     H95805   5.648   2.045   3.351 -0.2699 -3.1311  1.9732
  710MOL0     H95806   5.804   2.201   3.330 -0.2091 -0.9923 -0.0144
  710MOL0     H95807   5.749   2.138   3.171 -1.3185 -1.3325 -0.2377
  710MOL0     H95808   5.987   2.205   3.184 -0.2353  0.2944  0.1021
  710MOL0     H95809   5.967   2.032   3.146 -3.1060 -0.6667 -0.3889
  710MOL0     H95810   5.991   2.058   3.602 -0.4718  0.4222  1.2357
  710MOL0     H95811   6.007   2.104   3.802 -3.1373  0.6817 -1.3624
  710MOL0     H95812   6.117   2.238   3.862  0.9719  0.2897 -0.4964
  710MOL0     H95813   5.939   2.258   3.857  0.2369  0.0711 -0.3433
  710MOL0     H95814   6.252   2.771   3.541  3.8998 -2.3059  0.8971
  710MOL0     H95815   6.349   2.991   3.655 -0.2189 -1.6249 -2.3918
  710MOL0     H95816   6.240   3.209   3.726 -1.0446  1.4407  0.5465
  710MOL0     H95817   6.277   3.286   3.880  3.4191 -0.3659  1.6232
  710MOL0     H95818   6.506   3.189   3.879  1.5929 -1.3642 -0.6495
  710MOL0     H95819   6.492   3.124   3.732  0.0230 -1.4553  2.6858
  710MOL0     H95820   6.442   3.422   3.787 -0.6987 -0.2850 -0.9203
  710MOL0     H95821   6.443   3.347   3.622  1.7030 -2.3036 -0.1482
  710MOL0     H95822   6.670   3.379   3.827  2.2924  3.1006 -0.8387
  710MOL0     H95823   6.684   3.282   3.682 -2.1093 -0.8392  0.6524
  710MOL0     H95824   6.639   3.577   3.699  0.8934  0.8084 -0.3221
  710MOL0     H95825   6.633   3.488   3.548 -0.7595  1.3826  0.8625
  710MOL0     H95826   6.877   3.513   3.739  1.1107 -1.1344 -1.0689
  710MOL0     H95827   6.883   3.424   3.595  0.1875  0.0657 -2.4298
  710MOL0     H95828   6.822   3.718   3.595  0.8959  1.1436 -1.2198
  710MOL0     H95829   6.872   3.607   3.451  3.9165 -0.7704 -0.9536
  710MOL0     H95830   7.087   3.570   3.571 -0.7195 -0.3243 -1.2526
  710MOL0     H95831   7.043   3.695   3.699 -1.8692 -0.4268  0.1898
  710MOL0     H95832   6.108   2.931   3.997  3.4449 -0.5988  1.8917
  710MOL0     H95833   6.022   2.712   3.895  1.5535 -1.7433  1.0048
  710MOL0     H95834   6.140   2.499   3.464  2.2468 -0.0128  3.5831
  710MOL0     H95835   6.124   2.329   3.305 -1.2344 -0.9015 -0.6665
  710MOL0     H95836   6.921   1.507   3.854  2.3489 -3.2051 -4.2840
  710MOL0     H95837   7.155   1.448   3.858 -1.1336 -1.0536  0.4284
  710MOL0     H95838   7.542   1.496   3.564  0.0401  3.4993  0.9799
  710MOL0     H95839   7.748   1.361   3.539 -2.7389 -0.3873 -0.6955
  710MOL0     H95840   7.917   1.238   3.574 -0.6088  0.1148  0.1595
  710MOL0     H95841   8.083   1.292   3.578 -0.4224 -0.1729 -0.9180
  710MOL0     H95842   8.098   1.164   3.810 -0.3673  0.7833  0.0670
  710MOL0     H95843   8.059   1.061   3.670  1.2950  1.8342 -0.7265
  710MOL0     H95844   7.857   1.023   3.734  0.1154 -0.7340  0.0731
  710MOL0     H95845   7.825   1.162   3.825 -0.0147  0.9955 -3.0501
  710MOL0     H95846   7.984   1.109   4.004 -0.4842  1.0145 -1.1728
  710MOL0     H95847   8.020   0.959   3.928  1.3061  2.0525 -0.6369
  710MOL0     H95848   7.628   0.853   4.045 -0.0259  1.3756  1.2772
  710MOL0     H95849   7.889   1.503   3.918  1.6922 -1.5827 -1.7386
  710MOL0     H95850   7.693   1.623   3.951  0.8537  1.1490  0.3423
  711MOL0     O95851   6.408   2.451   3.141  0.4335  0.7720  0.1960
  711MOL0     C95852   6.414   2.336   3.186 -0.7608  0.3931 -0.5481
  711MOL0     O95853   6.467   2.303   3.315 -0.5062  0.8096 -0.2485
  711MOL0     C95854   6.542   2.398   3.384 -0.3783  0.4488  0.7186
  711MOL0     C95855   6.487   2.451   3.503  0.6198 -0.3597  0.1074
  711MOL0     C95856   6.552   2.548   3.586  0.0062  0.6509 -0.5045
  711MOL0     C95857   6.680   2.597   3.539  0.3443 -0.3876  0.9582
  711MOL0     O95858   6.757   2.666   3.625 -0.0052 -0.8848 -0.3356
  711MOL0     C95859   6.803   2.797   3.580  0.6439 -0.8633  0.8284
  711MOL0     C95860   6.822   2.880   3.707 -0.5068 -0.5682  0.8182
  711MOL0     C95861   6.849   3.026   3.676  0.4846  0.2890  0.3753
  711MOL0     C95862   6.897   3.113   3.785 -0.9477 -0.0599 -0.6249
  711MOL0     C95863   7.023   3.057   3.872  0.5764 -0.9933  0.9042
  711MOL0     C95864   7.118   3.169   3.925 -0.1193 -0.5515  0.1044
  711MOL0     C95865   7.193   3.153   4.060 -0.6630  0.7335  0.3703
  711MOL0     C95866   7.296   3.028   4.076 -0.5810 -0.3571 -0.7082
  711MOL0     N95867   7.389   3.017   3.963  1.0490 -0.7054  0.3027
  711MOL0     C95868   7.509   3.092   3.958  0.6406  0.0297 -0.2718
  711MOL0     C95869   7.573   3.039   3.850  0.6095 -0.1636  1.0414
  711MOL0     C95870   7.702   3.087   3.781 -0.6970 -0.3010  0.9080
  711MOL0     C95871   7.792   2.972   3.724  0.6947  0.5764  0.4779
  711MOL0     C95872   7.749   2.913   3.588  0.1326  0.0921 -0.2250
  711MOL0     C95873   7.839   2.805   3.532  0.1832 -0.9068  0.1109
  711MOL0     O95874   7.868   2.704   3.618  0.6415  0.3173  0.8917
  711MOL0     C95875   7.808   2.587   3.580 -0.3371  0.3174  0.2410
  711MOL0     C95876   7.679   2.565   3.610  0.1942 -0.0976  0.2448
  711MOL0     C95877   7.610   2.452   3.563  0.2431  0.4697  0.4104
  711MOL0     C95878   7.463   2.442   3.600  0.4632  0.2297 -0.5721
  711MOL0     C95879   7.680   2.342   3.493 -1.3780 -0.9834  0.1590
  711MOL0     C95880   7.619   2.213   3.449  0.0534 -1.2157 -0.5184
  711MOL0     O95881   7.701   2.109   3.426  0.2102  0.0952 -0.4385
  711MOL0     C95882   7.659   1.983   3.383 -0.6617 -1.2600  0.6193
  711MOL0     C95883   7.714   1.924   3.268  0.0062  0.5032 -0.1612
  711MOL0     C95884   7.672   1.795   3.234  0.3427  0.5668 -0.3527
  711MOL0     C95885   7.575   1.723   3.305 -0.5381 -0.1026  0.1549
  711MOL0     O95886   7.545   1.593   3.271 -0.8550  0.9988 -0.0097
  711MOL0     C95887   7.419   1.578   3.204 -0.0287 -0.7929  0.0621
  711MOL0     C95888   7.438   1.468   3.098  0.3671 -0.2296  0.5003
  711MOL0     C95889   7.331   1.482   2.987  0.3042 -0.2036  0.6252
  711MOL0     C95890   7.340   1.374   2.878  0.4693 -0.2409  1.2763
  711MOL0     C95891   7.258   1.420   2.752  0.2516 -0.6635  0.5662
  711MOL0     C95892   7.108   1.447   2.780 -0.4344 -0.2262  0.1170
  711MOL0     C95893   7.047   1.331   2.843 -0.3509 -0.0646 -0.4982
  711MOL0     C95894   6.897   1.316   2.819 -0.2914 -0.0775 -0.1905
  711MOL0    Cl95895   6.864   1.263   2.652 -0.1009 -0.0073 -0.0354
  711MOL0     C95896   7.513   1.782   3.414 -0.0682  0.5107  0.2827
  711MOL0     C95897   7.560   1.909   3.460 -0.5658 -0.0481  0.2324
  711MOL0     O95898   7.495   2.202   3.439 -0.4230 -0.1077 -0.4463
  711MOL0     C95899   7.823   2.361   3.478  0.4222 -0.4530 -1.1794
  711MOL0     C95900   7.879   2.484   3.522  0.3945 -0.7337  0.8097
  711MOL0     N95901   7.487   2.951   3.780  0.8076 -1.0099  0.2785
  711MOL0     N95902   7.375   2.948   3.851 -0.3406 -0.0187  0.1000
  711MOL0     C95903   6.732   2.546   3.420  0.1651  1.5004  0.1127
  711MOL0     C95904   6.666   2.445   3.350 -0.7578 -0.2813 -0.0548
  711MOL0     C95905   6.375   2.237   3.095  0.3275 -0.3081  0.3969
  711MOL0     C95906   6.357   2.106   3.135 -0.3209 -0.6981 -0.1989
  711MOL0     C95907   6.353   1.997   3.041 -0.2224  0.6483 -0.5144
  711MOL0     C95908   6.341   2.027   2.908  0.5880  0.1317  0.8338
  711MOL0     O95909   6.334   1.926   2.809 -0.0232  0.4716 -0.3888
  711MOL0     C95910   6.305   1.788   2.851 -1.0258  1.2076  0.0815
  711MOL0     C95911   6.427   1.700   2.875 -0.7800 -0.0661  0.4527
  711MOL0     C95912   6.397   1.551   2.895 -0.2379 -0.3285  0.0849
  711MOL0     C95913   6.516   1.460   2.863 -0.4502  0.1794  1.1956
  711MOL0     C95914   6.545   1.444   2.714  0.3565 -0.7316 -0.3298
  711MOL0     C95915   6.558   1.407   2.593  0.0208  0.0281 -0.4136
  711MOL0     C95916   6.330   2.157   2.864 -0.2835 -0.3802 -0.7803
  711MOL0     C95917   6.341   2.265   2.959 -0.7589  0.1820 -0.4042
  711MOL0     H95918   6.396   2.409   3.544  2.3906 -4.3282  0.4055
  711MOL0     H95919   6.511   2.575   3.682 -2.4109 -0.0524 -1.2590
  711MOL0     H95920   6.902   2.802   3.533  0.2795 -0.1028  0.1197
  711MOL0     H95921   6.729   2.844   3.514  1.0614 -0.1025  0.8838
  711MOL0     H95922   6.733   2.871   3.770 -0.5831  2.1396  1.2391
  711MOL0     H95923   6.905   2.849   3.771  2.2199  0.6927 -1.8457
  711MOL0     H95924   6.927   3.029   3.599  1.3587 -2.1324  1.0856
  711MOL0     H95925   6.762   3.073   3.629  0.3679 -1.9450 -1.8526
  711MOL0     H95926   6.923   3.205   3.732  2.5762 -1.1729 -1.1273
  711MOL0     H95927   6.819   3.161   3.845 -2.0399 -2.0763 -0.3420
  711MOL0     H95928   6.982   3.010   3.961 -1.3999  1.0539  1.1488
  711MOL0     H95929   7.076   2.983   3.811 -2.1042 -1.3540 -1.2009
  711MOL0     H95930   7.205   3.171   3.859  2.3989  1.1924  3.1909
  711MOL0     H95931   7.073   3.268   3.912  1.9654  0.1595 -2.6083
  711MOL0     H95932   7.259   3.238   4.079 -2.7383  2.1232  1.9200
  711MOL0     H95933   7.118   3.157   4.139  0.5365 -1.6650  1.7434
  711MOL0     H95934   7.236   2.936   4.070 -1.5961  0.2763 -0.3465
  711MOL0     H95935   7.350   3.036   4.171 -2.7837 -0.5649  0.6417
  711MOL0     H95936   7.549   3.167   4.025 -1.5977 -1.3497  2.8669
  711MOL0     H95937   7.669   3.145   3.694 -1.4392 -2.8802 -0.6664
  711MOL0     H95938   7.763   3.148   3.848  1.2964 -0.8763 -0.2916
  711MOL0     H95939   7.787   2.891   3.796  3.2096  1.3665  1.6435
  711MOL0     H95940   7.895   3.007   3.713  0.5484  0.6951 -0.7166
  711MOL0     H95941   7.726   2.987   3.511 -2.0006  0.0090  0.2799
  711MOL0     H95942   7.651   2.866   3.594 -0.1169 -0.0958 -3.6573
  711MOL0     H95943   7.931   2.863   3.519  0.3655 -0.3509  3.1376
  711MOL0     H95944   7.785   2.781   3.440 -2.0730  4.7317 -0.4169
  711MOL0     H95945   7.623   2.633   3.673  1.2496  0.8092  0.2304
  711MOL0     H95946   7.393   2.455   3.517 -2.4718 -0.2673  1.6686
  711MOL0     H95947   7.454   2.346   3.651  4.2864  0.3896  0.7314
  711MOL0     H95948   7.427   2.512   3.676  1.7215  1.2316 -0.8667
  711MOL0     H95949   7.791   1.964   3.203  0.8225  0.2404  0.6208
  711MOL0     H95950   7.717   1.739   3.153  0.9539  0.0204  0.3503
  711MOL0     H95951   7.343   1.564   3.282 -0.4303  0.8173 -0.0044
  711MOL0     H95952   7.385   1.675   3.166 -2.3568 -1.2000  0.9331
  711MOL0     H95953   7.528   1.480   3.036 -0.0634  1.5604  0.1431
  711MOL0     H95954   7.446   1.375   3.154 -0.4451  0.4329  1.7648
  711MOL0     H95955   7.344   1.572   2.927  0.2481 -3.0768 -4.2236
  711MOL0     H95956   7.230   1.487   3.029 -0.9797 -0.4634 -2.1924
  711MOL0     H95957   7.441   1.362   2.836 -0.1058  0.9100 -0.5004
  711MOL0     H95958   7.301   1.277   2.911 -2.2680  0.3979  0.1824
  711MOL0     H95959   7.254   1.337   2.681 -3.1391 -3.9140  4.0690
  711MOL0     H95960   7.298   1.512   2.708  2.9506 -1.8102  0.4171
  711MOL0     H95961   7.092   1.535   2.843 -1.8626  0.3771 -1.0337
  711MOL0     H95962   7.061   1.454   2.682 -3.9370 -3.3611  1.3230
  711MOL0     H95963   7.065   1.333   2.950  4.4202  0.6669 -1.1083
  711MOL0     H95964   7.093   1.238   2.809 -1.8537 -1.5281  1.2902
  711MOL0     H95965   6.844   1.411   2.835  1.2178  0.7703 -0.0627
  711MOL0     H95966   6.855   1.238   2.883 -1.3703 -1.1656 -2.1144
  711MOL0     H95967   7.442   1.725   3.474 -1.3908  2.5854  0.8103
  711MOL0     H95968   7.517   1.935   3.556  2.0338 -2.8042  2.3489
  711MOL0     H95969   7.886   2.279   3.446 -1.7827 -2.7641  0.0803
  711MOL0     H95970   7.987   2.481   3.511  0.1365 -1.2391 -2.9823
  711MOL0     H95971   6.832   2.567   3.383 -0.6987  0.8683 -2.8818
  711MOL0     H95972   6.715   2.407   3.261 -3.5814 -1.0619 -1.3838
  711MOL0     H95973   6.357   2.082   3.241  0.2616 -0.9831 -0.2577
  711MOL0     H95974   6.363   1.897   3.082  1.5934  2.2784  3.6522
  711MOL0     H95975   6.239   1.774   2.937  1.4322 -1.1256  1.7726
  711MOL0     H95976   6.259   1.745   2.761 -0.8940  3.3848 -1.0809
  711MOL0     H95977   6.489   1.745   2.953  1.3159  1.1510 -1.7839
  711MOL0     H95978   6.482   1.702   2.780 -0.0462  2.5653  0.8588
  711MOL0     H95979   6.314   1.526   2.829 -2.8308  0.4288  2.8129
  711MOL0     H95980   6.365   1.540   2.999 -1.2830 -0.3811 -0.2358
  711MOL0     H95981   6.501   1.360   2.904  2.0140  0.1362  2.1678
  711MOL0     H95982   6.602   1.500   2.918 -1.9988  3.5112  1.4444
  711MOL0     H95983   6.554   1.361   2.497  1.0005 -5.6143  1.8056
  711MOL0     H95984   6.311   2.181   2.760  0.5038 -1.8671 -1.2951
  711MOL0     H95985   6.325   2.366   2.924 -3.9203 -0.7463 -1.9447
  712MOL0     O95986  11.202  10.723   0.231  0.5399 -0.0423 -0.2091
  712MOL0     C95987  11.112  10.642   0.196 -0.1023  0.2890  0.2354
  712MOL0     O95988  10.983  10.676   0.176 -0.3275 -0.0716 -0.6105
  712MOL0     C95989  10.941  10.805   0.211  0.3695  0.1576 -0.0512
  712MOL0     C95990  10.903  10.840   0.347  0.4215 -0.1125 -0.3272
  712MOL0     C95991  10.831  10.957   0.367 -0.1057 -0.5291  0.1846
  712MOL0     C95992  10.793  11.048   0.258  0.3489 -0.0291 -0.1426
  712MOL0     O95993  10.732  11.167   0.282 -0.4155  0.0109  0.2221
  712MOL0     C95994  10.593  11.156   0.316 -0.8877  0.4292  0.0668
  712MOL0     C95995  10.547  11.271   0.399  0.3253 -0.9814 -0.5615
  712MOL0     C95996  10.632  11.295   0.525  0.1790  0.4065  0.0745
  712MOL0     C95997  10.766  11.375   0.495 -0.3575  0.5050  0.0605
  712MOL0     C95998  10.828  11.452   0.615  0.1648 -0.0574 -0.6716
  712MOL0     C95999  10.902  11.364   0.712  0.0524  0.0812 -0.0817
  712MOL0     C96000  10.955  11.447   0.836 -0.1152 -0.6182 -0.2733
  712MOL0     C96001  10.991  11.358   0.965 -0.2077  0.3031  0.0799
  712MOL0     N96002  10.978  11.210   0.965 -0.0191 -0.3381  0.2181
  712MOL0     C96003  10.864  11.137   0.938  0.8502 -0.5207 -0.7620
  712MOL0     C96004  10.910  11.016   0.913 -0.4350  0.7543 -0.4725
  712MOL0     C96005  10.814  10.907   0.885 -1.0298 -0.0316 -0.0148
  712MOL0     C96006  10.884  10.810   0.788  0.5086  0.7550  0.7057
  712MOL0     C96007  10.784  10.716   0.711 -0.4204 -0.1172 -0.0008
  712MOL0     C96008  10.712  10.619   0.805 -0.2882  1.1273  0.5086
  712MOL0     O96009  10.662  10.509   0.727  0.8692  0.1395  0.4447
  712MOL0     C96010  10.587  10.417   0.787 -0.6786  0.8559  0.2980
  712MOL0     C96011  10.528  10.313   0.706  0.6784  0.4713  0.1689
  712MOL0     C96012  10.442  10.203   0.752 -0.6491  1.8646 -0.0108
  712MOL0     C96013  10.381  10.106   0.659  1.3709  0.3352 -0.1142
  712MOL0     C96014  10.405  10.206   0.884 -0.4202 -0.1776  0.1707
  712MOL0     C96015  10.310  10.111   0.960 -0.3691 -0.4270 -0.1995
  712MOL0     O96016  10.235  10.028   0.880 -0.7962  0.7447  0.5859
  712MOL0     C96017  10.139   9.953   0.923  0.4795  0.6074 -0.3787
  712MOL0     C96018  10.157   9.848   1.015  0.4634  0.2889  0.2749
  712MOL0     C96019  10.053   9.779   1.069  1.5115  0.2889 -0.1835
  712MOL0     C96020   9.919   9.814   1.030 -0.1714  0.1549  0.2256
  712MOL0     O96021   9.800   9.744   1.063  0.0289  0.1722  0.1227
  712MOL0     C96022   9.820   9.615   1.124 -0.7903 -0.8359  0.9690
  712MOL0     C96023   9.688   9.546   1.175  0.2320 -0.0803 -0.0421
  712MOL0     C96024   9.686   9.410   1.250  0.1251  0.8568  0.1150
  712MOL0     C96025   9.753   9.298   1.168 -0.1412 -0.2687  0.0194
  712MOL0     C96026   9.673   9.262   1.040 -0.1220 -0.9059 -0.1703
  712MOL0     C96027   9.718   9.123   0.981 -0.2127 -0.7904  0.2595
  712MOL0     C96028   9.811   9.155   0.869 -0.2596  0.1835 -0.3831
  712MOL0     C96029   9.855   9.032   0.789 -0.4964  0.0626  0.5417
  712MOL0    Cl96030   9.872   9.074   0.615 -0.3740  0.1396  0.0953
  712MOL0     C96031   9.894   9.919   0.937  0.0919  0.2202 -0.1164
  712MOL0     C96032  10.010   9.995   0.891 -0.2346 -0.0403  0.2634
  712MOL0     O96033  10.299  10.122   1.085  0.6330 -0.0052 -0.7107
  712MOL0     C96034  10.457  10.311   0.967 -0.5625  0.1556 -0.5330
  712MOL0     C96035  10.546  10.408   0.926  0.1532 -0.2169  0.3029
  712MOL0     N96036  11.045  11.008   0.930  0.1968  0.2395  0.6516
  712MOL0     N96037  11.091  11.131   0.946  0.1703  0.2635  1.1463
  712MOL0     C96038  10.825  11.005   0.130  0.1950  1.0242  0.0507
  712MOL0     C96039  10.896  10.890   0.109  0.0136  0.5876  0.0900
  712MOL0     C96040  11.171  10.507   0.168 -0.3175 -0.8326  0.3106
  712MOL0     C96041  11.306  10.469   0.174 -0.6943 -0.9343  0.5709
  712MOL0     C96042  11.349  10.349   0.141 -0.6975  0.5173  0.3720
  712MOL0     C96043  11.263  10.245   0.117  0.0230  0.7324 -0.5774
  712MOL0     O96044  11.325  10.115   0.089 -0.4124 -0.0870  0.6567
  712MOL0     C96045  11.277  10.052  -0.040 -0.8469  0.7230  0.1931
  712MOL0     C96046  11.391   9.948  -0.076  0.2776  0.0810  0.0664
  712MOL0     C96047  11.526  10.004  -0.125  0.7740 -0.9308  0.5633
  712MOL0     C96048  11.637  10.038  -0.017  0.1503 -0.3912 -0.2689
  712MOL0     C96049  11.762  10.061  -0.085  0.2191 -0.5242 -0.3769
  712MOL0     C96050  11.868  10.099  -0.137 -0.6773 -0.5075 -0.5634
  712MOL0     C96051  11.125  10.273   0.115 -0.0445  0.0343 -0.2830
  712MOL0     C96052  11.077  10.405   0.137  0.2421  0.3178  0.4663
  712MOL0     H96053  10.946  10.784   0.429  0.5746 -0.8641 -0.9074
  712MOL0     H96054  10.827  10.996   0.468  1.8181  0.1785  0.0369
  712MOL0     H96055  10.535  11.139   0.225  2.5393  0.6580 -2.3625
  712MOL0     H96056  10.566  11.063   0.367  2.8642 -0.1903  1.2608
  712MOL0     H96057  10.541  11.366   0.345 -0.5619 -0.5730  0.2356
  712MOL0     H96058  10.444  11.246   0.426  0.5299 -1.6761 -0.3853
  712MOL0     H96059  10.567  11.364   0.580 -1.9044  2.1046 -4.0724
  712MOL0     H96060  10.654  11.202   0.577 -0.9569 -0.3356 -0.7157
  712MOL0     H96061  10.839  11.301   0.461 -1.7419 -2.0488  2.2211
  712MOL0     H96062  10.755  11.450   0.416 -1.4777  1.6410  1.2359
  712MOL0     H96063  10.903  11.522   0.578 -0.0441  0.8729  0.6136
  712MOL0     H96064  10.756  11.505   0.678  3.4002  2.4176  1.2648
  712MOL0     H96065  10.828  11.292   0.749  0.4224  0.0760  0.6681
  712MOL0     H96066  10.987  11.309   0.669  0.4032  1.6431 -1.5144
  712MOL0     H96067  11.048  11.489   0.795 -0.7689 -1.5540 -2.8987
  712MOL0     H96068  10.888  11.527   0.869  1.8294  0.1763  2.0859
  712MOL0     H96069  10.918  11.396   1.037  0.2102  3.2197 -0.8955
  712MOL0     H96070  11.087  11.391   1.006  0.3808  0.6480 -1.4829
  712MOL0     H96071  10.765  11.182   0.932  0.7462 -0.8102 -1.2724
  712MOL0     H96072  10.783  10.858   0.978 -1.1369 -2.8486 -1.4440
  712MOL0     H96073  10.728  10.953   0.835 -0.3238  0.0005 -1.2345
  712MOL0     H96074  10.965  10.749   0.829 -0.1308 -0.6292 -0.0424
  712MOL0     H96075  10.938  10.869   0.713  1.0819  1.9546  2.0049
  712MOL0     H96076  10.850  10.654   0.649 -1.2695 -2.3944  1.2525
  712MOL0     H96077  10.718  10.777   0.648 -0.8992 -0.7539 -0.1237
  712MOL0     H96078  10.624  10.667   0.848 -1.2966 -0.9766  0.9442
  712MOL0     H96079  10.783  10.574   0.875  0.3004 -1.0354 -1.3459
  712MOL0     H96080  10.550  10.318   0.600  1.5719  0.0962  0.3302
  712MOL0     H96081  10.402  10.005   0.695  0.8292  1.4782  3.8466
  712MOL0     H96082  10.273  10.125   0.650  1.7567  2.5714 -0.3749
  712MOL0     H96083  10.424  10.106   0.559  1.1993  0.2042 -0.1899
  712MOL0     H96084  10.255   9.821   1.054  0.9178  2.4404  0.7182
  712MOL0     H96085  10.057   9.687   1.126  1.9066  1.8314  2.4272
  712MOL0     H96086   9.859   9.551   1.043  0.4459  1.9801 -0.8228
  712MOL0     H96087   9.891   9.633   1.206 -1.2223 -0.6221  1.2966
  712MOL0     H96088   9.661   9.625   1.245  1.5255  2.9135 -2.6959
  712MOL0     H96089   9.608   9.546   1.102 -3.0539 -0.3226  3.2652
  712MOL0     H96090   9.586   9.386   1.288  0.4310  0.9545  1.0172
  712MOL0     H96091   9.734   9.437   1.345 -1.6058 -0.2938  1.3688
  712MOL0     H96092   9.856   9.313   1.135 -1.2095  1.3912 -2.9553
  712MOL0     H96093   9.749   9.219   1.243 -0.1033 -0.5712 -0.2947
  712MOL0     H96094   9.685   9.342   0.967 -0.4521 -0.3091  0.4225
  712MOL0     H96095   9.569   9.266   1.073  1.0522  2.8962  3.9423
  712MOL0     H96096   9.763   9.052   1.051  0.5893 -2.3522 -1.7295
  712MOL0     H96097   9.627   9.080   0.938 -2.9414  3.4613  1.2162
  712MOL0     H96098   9.896   9.215   0.903 -3.2447  4.9447 -0.2700
  712MOL0     H96099   9.762   9.219   0.794 -0.1646 -1.6961 -2.1356
  712MOL0     H96100   9.785   8.949   0.803 -1.4767  1.2092  3.0454
  712MOL0     H96101   9.946   8.993   0.836 -1.4337 -0.4259  2.0152
  712MOL0     H96102   9.795   9.942   0.900  1.0926 -0.7474 -3.8850
  712MOL0     H96103   9.979  10.077   0.826 -2.2360 -0.6976  0.3334
  712MOL0     H96104  10.411  10.334   1.063  1.3866  2.0711  0.0299
  712MOL0     H96105  10.585  10.484   0.994  3.1113 -1.0402 -0.2957
  712MOL0     H96106  10.803  11.071   0.046  2.3169  3.8675  1.5452
  712MOL0     H96107  10.919  10.867   0.005  1.0315  0.1556  0.3950
  712MOL0     H96108  11.376  10.545   0.206  2.8192 -2.5279 -2.6377
  712MOL0     H96109  11.457  10.338   0.146 -0.8452 -1.0221  0.6954
  712MOL0     H96110  11.183  10.000  -0.022 -1.7944  0.4387 -4.4832
  712MOL0     H96111  11.272  10.130  -0.116  0.7254  0.9202  0.2559
  712MOL0     H96112  11.360   9.888  -0.162 -1.0657 -1.7255  1.7260
  712MOL0     H96113  11.392   9.879   0.009 -1.4052 -0.7060 -0.4914
  712MOL0     H96114  11.499  10.099  -0.171  0.1661 -1.7687 -0.8921
  712MOL0     H96115  11.576   9.940  -0.199 -1.2425 -1.0108 -0.8237
  712MOL0     H96116  11.657   9.957   0.054  0.8012 -1.2459 -1.3901
  712MOL0     H96117  11.604  10.128   0.035 -0.2314  0.0853 -1.3116
  712MOL0     H96118  11.941  10.136  -0.206 -0.8823  2.5781  0.7496
  712MOL0     H96119  11.052  10.194   0.107  1.6591 -1.7622  0.9859
  712MOL0     H96120  10.972  10.430   0.127 -0.2071 -2.1053 -2.6216
  713MOL0     O96121   1.973   1.397   4.128  0.5979  0.6460 -0.3003
  713MOL0     C96122   1.871   1.457   4.092 -0.2247  0.6296  0.6438
  713MOL0     O96123   1.745   1.400   4.077 -0.4502 -0.0241  0.9742
  713MOL0     C96124   1.746   1.267   4.089  0.6569  0.7790 -0.8714
  713MOL0     C96125   1.716   1.185   3.978  0.4133 -0.3514  0.5410
  713MOL0     C96126   1.721   1.043   3.986 -0.6375 -0.6292 -0.9267
  713MOL0     C96127   1.746   0.977   4.112 -0.1779  0.6999  0.2677
  713MOL0     O96128   1.759   0.842   4.111 -0.3802  0.3415  0.6124
  713MOL0     C96129   1.725   0.778   4.234  0.2744  0.4189 -0.0815
  713MOL0     C96130   1.718   0.639   4.196  1.3178  0.1109  0.5936
  713MOL0     C96131   1.719   0.550   4.315 -0.4017  0.3180  0.1872
  713MOL0     C96132   1.708   0.400   4.273 -0.1968  0.3422 -0.6378
  713MOL0     C96133   1.569   0.334   4.293 -0.3395 -0.0468 -0.2970
  713MOL0     C96134   1.597   0.183   4.278  0.2371  0.7491 -0.9201
  713MOL0     C96135   1.571   0.152   4.128  1.1197  0.0056 -0.0740
  713MOL0     C96136   1.584   0.006   4.095  0.0785  0.2499 -0.6894
  713MOL0     N96137   1.556  -0.012   3.950  0.3823  0.6448 -0.2272
  713MOL0     C96138   1.657  -0.044   3.860 -0.0387 -0.2727 -0.3349
  713MOL0     C96139   1.588  -0.061   3.744 -0.7693  0.0016 -0.3599
  713MOL0     C96140   1.658  -0.112   3.623  0.6027  0.3240  0.3928
  713MOL0     C96141   1.763  -0.007   3.579  0.8299  0.7343 -0.0765
  713MOL0     C96142   1.718   0.144   3.588  0.2323  0.1673  1.1818
  713MOL0     C96143   1.839   0.242   3.569  0.0806 -0.4611 -0.4307
  713MOL0     O96144   1.888   0.248   3.437 -0.3072 -0.0955  1.3531
  713MOL0     C96145   1.838   0.347   3.360 -0.3327  0.4306 -1.0326
  713MOL0     C96146   1.851   0.485   3.389 -0.4212 -0.0499 -0.2804
  713MOL0     C96147   1.798   0.581   3.301  0.1155  0.3661 -0.2655
  713MOL0     C96148   1.832   0.723   3.334  0.1323  0.0338 -0.4320
  713MOL0     C96149   1.731   0.537   3.189 -0.0066 -0.4151  0.4312
  713MOL0     C96150   1.688   0.623   3.075 -0.0565 -0.1691  0.3401
  713MOL0     O96151   1.739   0.750   3.079  0.4336  0.0979  0.3150
  713MOL0     C96152   1.705   0.839   2.984  0.9054  0.4955  0.2250
  713MOL0     C96153   1.612   0.940   3.012  0.1137 -0.3535  0.0848
  713MOL0     C96154   1.567   1.042   2.917 -0.0730 -0.1151 -1.2663
  713MOL0     C96155   1.619   1.033   2.784  0.7177 -0.0942 -0.6293
  713MOL0     O96156   1.580   1.118   2.678  0.5311  0.4037 -0.0113
  713MOL0     C96157   1.469   1.208   2.685 -1.0247 -0.6105 -0.3672
  713MOL0     C96158   1.514   1.360   2.686  0.1442  0.1409  0.0959
  713MOL0     C96159   1.591   1.400   2.553 -0.6453  0.4742 -0.0181
  713MOL0     C96160   1.613   1.555   2.524  0.0189 -0.0863  0.0134
  713MOL0     C96161   1.663   1.619   2.654  0.2710  0.3986  0.0028
  713MOL0     C96162   1.807   1.577   2.691  0.6338  0.1714  0.2526
  713MOL0     C96163   1.859   1.695   2.777  0.2997 -0.0236  0.5046
  713MOL0     C96164   2.003   1.700   2.772  0.8096  0.0967  0.0936
  713MOL0    Cl96165   2.094   1.563   2.853 -0.3592  0.1498  0.1366
  713MOL0     C96166   1.706   0.936   2.758 -0.6285  0.1270 -0.1451
  713MOL0     C96167   1.753   0.838   2.853 -0.1403 -0.7425 -0.5409
  713MOL0     O96168   1.602   0.591   2.985 -0.7750  0.0135 -0.3385
  713MOL0     C96169   1.710   0.401   3.167 -0.4402 -0.1062 -0.0773
  713MOL0     C96170   1.766   0.308   3.246 -0.9284  0.3575  0.1048
  713MOL0     N96171   1.456  -0.053   3.760  0.4401 -0.3855  0.0356
  713MOL0     N96172   1.432  -0.023   3.884 -0.8595 -0.3471 -0.3291
  713MOL0     C96173   1.761   1.056   4.229  0.7897 -0.8068  0.3276
  713MOL0     C96174   1.759   1.199   4.216  1.1081 -0.1815 -0.4809
  713MOL0     C96175   1.901   1.602   4.052  0.9415 -0.4191 -0.3046
  713MOL0     C96176   2.034   1.655   4.047 -0.5856  0.6361 -0.6059
  713MOL0     C96177   2.064   1.773   4.003  0.1705  1.0347  0.7858
  713MOL0     C96178   1.953   1.870   3.972 -0.3456  0.5655 -0.9951
  713MOL0     O96179   1.994   1.994   3.949  0.4006 -0.0592  0.1602
  713MOL0     C96180   1.934   2.069   3.852  0.1408 -0.8175  0.6561
  713MOL0     C96181   2.000   2.052   3.709 -0.4939  0.4677 -0.2064
  713MOL0     C96182   1.963   1.925   3.628 -0.5416  0.3602  0.9842
  713MOL0     C96183   1.843   1.954   3.531 -0.0883 -0.3417 -1.1320
  713MOL0     C96184   1.722   2.005   3.603  0.7022 -0.1370 -0.7610
  713MOL0     C96185   1.629   2.048   3.675  0.5222 -0.3505 -0.4902
  713MOL0     C96186   1.817   1.824   3.970  0.8681 -0.2197 -1.3630
  713MOL0     C96187   1.798   1.687   4.009 -0.1966  0.6662  0.4439
  713MOL0     H96188   1.694   1.235   3.885 -0.6026  0.6912  1.3162
  713MOL0     H96189   1.703   0.985   3.896 -2.9333 -1.5964  0.0761
  713MOL0     H96190   1.802   0.794   4.310  2.8054  2.3159 -2.8132
  713MOL0     H96191   1.631   0.818   4.272  0.3450 -0.0330  0.5826
  713MOL0     H96192   1.630   0.608   4.140  0.7859 -1.8850  2.4351
  713MOL0     H96193   1.809   0.624   4.138  0.9475  1.8458 -0.5052
  713MOL0     H96194   1.816   0.557   4.366 -1.8846 -1.9834  3.6644
  713MOL0     H96195   1.656   0.577   4.400  1.4306 -0.4165  1.8527
  713MOL0     H96196   1.750   0.397   4.172 -0.5659  0.8128 -0.8150
  713MOL0     H96197   1.782   0.346   4.333  0.0666 -0.7716 -1.9234
  713MOL0     H96198   1.534   0.363   4.393  1.7831  0.4089  0.3637
  713MOL0     H96199   1.495   0.374   4.223 -0.6712 -0.6472 -0.2936
  713MOL0     H96200   1.698   0.155   4.310 -0.6237 -1.0407  0.4289
  713MOL0     H96201   1.517   0.141   4.340 -0.7596  4.0524  0.2125
  713MOL0     H96202   1.484   0.202   4.084  1.9940  0.6632 -1.1204
  713MOL0     H96203   1.651   0.192   4.066  1.1590  0.3247  0.1819
  713MOL0     H96204   1.508  -0.039   4.160  0.0090  0.5619 -0.5554
  713MOL0     H96205   1.681  -0.035   4.125 -2.0831 -3.5000  1.9965
  713MOL0     H96206   1.754  -0.080   3.891  0.5714  0.4525 -1.3274
  713MOL0     H96207   1.705  -0.207   3.649  1.3681  0.4034 -0.6244
  713MOL0     H96208   1.589  -0.132   3.541  0.6286  0.3994  0.3524
  713MOL0     H96209   1.792  -0.033   3.477  2.5585 -1.1996  0.8336
  713MOL0     H96210   1.852  -0.031   3.637 -0.3337 -0.7156  1.1914
  713MOL0     H96211   1.677   0.170   3.686 -2.1609 -1.3202  0.6534
  713MOL0     H96212   1.635   0.161   3.518  0.9871 -3.2450 -0.8087
  713MOL0     H96213   1.918   0.192   3.625 -0.9467 -0.1280  1.4078
  713MOL0     H96214   1.819   0.336   3.621 -0.7631 -1.1681  0.5569
  713MOL0     H96215   1.902   0.510   3.481  1.4284  0.1799 -1.3345
  713MOL0     H96216   1.910   0.766   3.271 -0.2456  2.0897  0.4198
  713MOL0     H96217   1.743   0.787   3.330  0.7627  1.2284  2.1061
  713MOL0     H96218   1.870   0.728   3.436  0.3500 -4.1544 -0.1440
  713MOL0     H96219   1.569   0.949   3.111  2.3675  0.3281  1.0601
  713MOL0     H96220   1.500   1.118   2.954  0.1586  0.0169 -1.1146
  713MOL0     H96221   1.421   1.189   2.588  0.8038  0.8521 -1.6258
  713MOL0     H96222   1.401   1.179   2.765  0.3042 -1.3783  0.5037
  713MOL0     H96223   1.420   1.412   2.708 -1.2069 -2.4792  0.8670
  713MOL0     H96224   1.579   1.389   2.768  1.1064  0.7115 -0.8409
  713MOL0     H96225   1.542   1.342   2.474  0.4542 -0.8908  0.2756
  713MOL0     H96226   1.691   1.357   2.556  0.8118  3.4881 -1.4684
  713MOL0     H96227   1.693   1.567   2.450 -0.2662 -0.1834 -0.3127
  713MOL0     H96228   1.523   1.606   2.488  0.9336 -0.0429 -2.3769
  713MOL0     H96229   1.596   1.596   2.737 -2.1911 -1.7282 -2.3442
  713MOL0     H96230   1.651   1.727   2.641  1.1556  0.4440 -0.4799
  713MOL0     H96231   1.814   1.481   2.744  0.4422 -0.0824 -0.1731
  713MOL0     H96232   1.867   1.573   2.599  0.1178  3.4281 -0.3388
  713MOL0     H96233   1.823   1.666   2.876 -1.2511 -0.8991 -0.2751
  713MOL0     H96234   1.821   1.792   2.746  2.9558  0.1462 -2.8918
  713MOL0     H96235   2.027   1.801   2.805 -1.8043  2.1203 -3.4572
  713MOL0     H96236   2.047   1.703   2.672 -0.4346  2.1018 -0.4455
  713MOL0     H96237   1.740   0.918   2.656  1.5403 -3.0152  0.9513
  713MOL0     H96238   1.820   0.759   2.819  0.4045  0.2798 -1.9135
  713MOL0     H96239   1.652   0.367   3.082 -3.5541 -0.6064  2.0765
  713MOL0     H96240   1.754   0.202   3.229 -1.6997  0.6815 -1.5156
  713MOL0     H96241   1.762   1.014   4.329 -2.4567 -1.7751  0.0692
  713MOL0     H96242   1.761   1.260   4.306 -2.6970  0.9566 -0.9622
  713MOL0     H96243   2.114   1.585   4.072 -1.9544 -0.2952  1.3997
  713MOL0     H96244   2.167   1.806   4.003  2.0522 -3.9892  1.8800
  713MOL0     H96245   1.828   2.042   3.845 -0.1401  0.4355 -0.2381
  713MOL0     H96246   1.935   2.176   3.871 -2.2720 -0.2055 -1.8659
  713MOL0     H96247   2.106   2.043   3.737 -0.2231  0.7051 -1.1229
  713MOL0     H96248   1.990   2.146   3.655  2.5396 -0.3644 -2.5146
  713MOL0     H96249   1.940   1.836   3.686 -0.8572 -0.8511 -0.9206
  713MOL0     H96250   2.052   1.901   3.569  1.1763  1.6507  2.9313
  713MOL0     H96251   1.827   1.864   3.471  2.3143  1.8918 -5.6383
  713MOL0     H96252   1.877   2.019   3.451 -2.3628 -0.9849 -2.7174
  713MOL0     H96253   1.544   2.069   3.738 -0.2649  1.9062 -2.1481
  713MOL0     H96254   1.727   1.885   3.956 -0.6125 -1.6671  1.1623
  713MOL0     H96255   1.701   1.642   3.992 -0.2302  1.4556 -1.7465
  714MOL0     O96256   4.767   9.905   7.593  0.3034 -0.1545  0.5334
  714MOL0     C96257   4.850   9.919   7.676  0.3825  1.0069 -0.0013
  714MOL0     O96258   4.950  10.017   7.675  0.4920  0.3386  0.3797
  714MOL0     C96259   4.956  10.101   7.561 -0.3025  0.3010  0.4784
  714MOL0     C96260   4.905  10.231   7.568  0.3069 -0.2645 -0.2159
  714MOL0     C96261   4.944  10.319   7.466  0.1354  0.0342 -0.2043
  714MOL0     C96262   5.007  10.277   7.357 -0.1371 -1.0993 -0.4251
  714MOL0     O96263   5.029  10.370   7.256  0.1610 -0.4752 -0.6547
  714MOL0     C96264   5.163  10.414   7.239 -0.4153 -0.2910  0.1778
  714MOL0     C96265   5.201  10.538   7.308 -0.7096 -1.2882  0.4497
  714MOL0     C96266   5.120  10.653   7.248  0.0978  0.0677 -0.3805
  714MOL0     C96267   5.125  10.774   7.342  0.7461  0.5431 -0.5691
  714MOL0     C96268   5.109  10.900   7.267  0.1163  0.1473  0.8349
  714MOL0     C96269   4.979  10.918   7.185  0.1227  0.0580 -0.3544
  714MOL0     C96270   4.963  11.057   7.120 -0.5666  0.1279 -0.2152
  714MOL0     C96271   4.835  11.068   7.042  0.2942  0.2722 -0.4579
  714MOL0     N96272   4.840  11.186   6.957  0.2929 -0.0700  0.6349
  714MOL0     C96273   4.812  11.204   6.821 -0.0906 -0.1706  0.1030
  714MOL0     C96274   4.826  11.339   6.804  0.1532 -0.0641  0.3253
  714MOL0     C96275   4.809  11.406   6.670  0.5244 -0.5415 -0.0523
  714MOL0     C96276   4.870  11.551   6.671  0.0796  1.0845 -0.8411
  714MOL0     C96277   4.764  11.649   6.685  1.0861  0.0959 -0.6805
  714MOL0     C96278   4.697  11.672   6.812 -0.3601  0.6011 -0.3974
  714MOL0     O96279   4.646  11.804   6.823  0.6016 -0.4776 -0.3831
  714MOL0     C96280   4.556  11.817   6.929 -0.3859 -0.4314 -0.9221
  714MOL0     C96281   4.487  11.936   6.931  0.7684  0.2701 -0.8820
  714MOL0     C96282   4.395  11.965   7.035 -0.4860 -0.1011  0.8918
  714MOL0     C96283   4.311  12.097   7.043 -0.9030  0.1033 -0.3719
  714MOL0     C96284   4.355  11.856   7.124 -0.0548 -0.3026  0.6727
  714MOL0     C96285   4.236  11.872   7.216  0.1318  0.7942  0.1785
  714MOL0     O96286   4.119  11.907   7.164  0.1196  0.4365 -0.5699
  714MOL0     C96287   4.013  11.899   7.251 -0.1403  0.5945  0.7864
  714MOL0     C96288   4.006  11.997   7.354  0.3983 -0.5685  0.0497
  714MOL0     C96289   3.900  11.988   7.448 -0.2103 -0.6243 -0.0188
  714MOL0     C96290   3.817  11.881   7.460  0.3172 -0.0950  1.2000
  714MOL0     O96291   3.738  11.880   7.572 -1.0070 -0.4359  0.8139
  714MOL0     C96292   3.647  11.770   7.579  0.3127  0.2231  0.3533
  714MOL0     C96293   3.589  11.763   7.723 -0.4506 -0.6756  0.2191
  714MOL0     C96294   3.691  11.751   7.830 -0.3871 -0.2571  0.4404
  714MOL0     C96295   3.612  11.752   7.963 -0.3287  0.4068  0.8432
  714MOL0     C96296   3.717  11.758   8.080  0.5977  0.8120 -0.1862
  714MOL0     C96297   3.644  11.736   8.213 -0.5001 -0.6511 -0.2224
  714MOL0     C96298   3.743  11.736   8.331  0.1000  0.3622  0.2064
  714MOL0     C96299   3.669  11.686   8.461  0.5845 -0.0499  0.3008
  714MOL0    Cl96300   3.789  11.715   8.601  0.2260  0.5240  0.5218
  714MOL0     C96301   3.799  11.810   7.342 -1.0128  0.7882  0.5039
  714MOL0     C96302   3.893  11.815   7.238 -0.1962  0.3261  0.6776
  714MOL0     O96303   4.254  11.820   7.330 -0.2847 -0.5637  0.4243
  714MOL0     C96304   4.417  11.725   7.114 -0.5761 -1.2197  0.3384
  714MOL0     C96305   4.522  11.713   7.024  0.1019  0.0210 -0.5508
  714MOL0     N96306   4.845  11.406   6.926 -0.6174 -0.7599  0.3323
  714MOL0     N96307   4.863  11.316   7.009 -0.1096  0.1947  0.2568
  714MOL0     C96308   5.023  10.139   7.331  0.6113 -0.3392  0.3431
  714MOL0     C96309   5.013  10.055   7.433  0.0709  0.0923 -0.2687
  714MOL0     C96310   4.858   9.823   7.786  0.2752  0.5596  0.3149
  714MOL0     C96311   4.981   9.814   7.856  0.5236 -0.4220 -0.0394
  714MOL0     C96312   4.992   9.714   7.953  0.2810  0.5542  0.2095
  714MOL0     C96313   4.885   9.623   7.979  1.5749 -0.3325 -0.4500
  714MOL0     O96314   4.882   9.510   8.068 -0.0110 -0.1305 -0.8643
  714MOL0     C96315   4.950   9.523   8.192  0.2380 -0.0866  0.1222
  714MOL0     C96316   5.034   9.389   8.202 -0.4445  0.2158 -0.6647
  714MOL0     C96317   5.114   9.399   8.332 -0.6312 -0.2649 -0.5064
  714MOL0     C96318   5.022   9.392   8.456 -0.1007 -0.2429  0.4134
  714MOL0     C96319   5.094   9.429   8.577 -0.2540 -0.2892 -0.4609
  714MOL0     C96320   5.136   9.464   8.686 -0.0513  0.3779  0.2841
  714MOL0     C96321   4.772   9.626   7.905  0.4602 -0.4663  0.2013
  714MOL0     C96322   4.755   9.735   7.812 -0.7896 -0.0340 -0.0340
  714MOL0     H96323   4.855  10.264   7.659 -0.2034  3.7625 -1.7626
  714MOL0     H96324   4.922  10.424   7.486  0.7474  0.4005 -1.3783
  714MOL0     H96325   5.234  10.338   7.273 -0.6810 -0.0245  1.4065
  714MOL0     H96326   5.179  10.435   7.133  0.8168 -0.1271  0.3836
  714MOL0     H96327   5.172  10.529   7.414  1.4956  0.4751  1.2779
  714MOL0     H96328   5.309  10.554   7.299 -1.0039  0.0278 -1.1514
  714MOL0     H96329   5.166  10.666   7.149 -0.6903 -2.4465 -1.1494
  714MOL0     H96330   5.017  10.621   7.231  0.3873 -1.1243  0.0329
  714MOL0     H96331   5.045  10.774   7.418  1.5952  0.1233  0.3489
  714MOL0     H96332   5.220  10.766   7.395  1.0847 -0.1030 -1.2626
  714MOL0     H96333   5.125  10.989   7.329  0.1535  2.0703 -1.7449
  714MOL0     H96334   5.197  10.902   7.202 -0.3133 -1.3450  0.1743
  714MOL0     H96335   4.973  10.828   7.123  0.5016 -0.9463  1.0346
  714MOL0     H96336   4.895  10.913   7.255 -0.6626 -1.2399 -1.3456
  714MOL0     H96337   4.960  11.130   7.202 -1.7253  0.9574 -0.9643
  714MOL0     H96338   5.057  11.076   7.067  2.2925  0.4877  4.3224
  714MOL0     H96339   4.756  11.071   7.117  0.4214 -1.9876 -0.1766
  714MOL0     H96340   4.826  10.977   6.982 -0.1584 -1.0785  1.5747
  714MOL0     H96341   4.814  11.132   6.740  0.8635  1.8047 -1.7083
  714MOL0     H96342   4.857  11.342   6.594 -0.9994 -1.4563 -0.2877
  714MOL0     H96343   4.700  11.405   6.662  0.1498  1.9340  2.8527
  714MOL0     H96344   4.911  11.580   6.574 -0.0290  2.3537 -0.5269
  714MOL0     H96345   4.948  11.562   6.747 -1.5129  0.3820  0.9565
  714MOL0     H96346   4.689  11.644   6.605  0.4851  3.9749 -0.5705
  714MOL0     H96347   4.810  11.744   6.656 -1.1538  1.2442 -0.7188
  714MOL0     H96348   4.773  11.662   6.891 -3.1173  2.9298  2.8848
  714MOL0     H96349   4.621  11.595   6.821 -0.3398  0.3801 -1.9361
  714MOL0     H96350   4.507  12.026   6.874 -0.9381  2.7507  2.0780
  714MOL0     H96351   4.363  12.173   6.985  2.8514 -0.8643  1.4338
  714MOL0     H96352   4.210  12.087   7.003 -0.5224 -0.6207 -1.1706
  714MOL0     H96353   4.300  12.121   7.150 -0.0403 -0.6320 -0.1082
  714MOL0     H96354   4.081  12.075   7.350 -0.8875  0.6558 -0.9543
  714MOL0     H96355   3.895  12.048   7.538 -1.5421 -1.9366  0.8295
  714MOL0     H96356   3.564  11.794   7.511 -1.1225 -2.1306  1.1706
  714MOL0     H96357   3.695  11.675   7.554 -2.8108 -1.0007 -1.7776
  714MOL0     H96358   3.540  11.861   7.724  3.5179  1.6043 -2.3708
  714MOL0     H96359   3.517  11.680   7.722 -3.7991  1.9579 -1.0243
  714MOL0     H96360   3.756  11.838   7.822  0.6140 -1.1541 -2.5620
  714MOL0     H96361   3.749  11.658   7.826 -0.0022 -0.4025  4.9194
  714MOL0     H96362   3.536  11.830   7.961  0.7785  1.5616 -2.5044
  714MOL0     H96363   3.548  11.664   7.973 -1.4956  1.2244  0.6615
  714MOL0     H96364   3.753  11.860   8.097  0.6779  0.3851  2.6366
  714MOL0     H96365   3.800  11.689   8.067  0.0385  0.0857 -0.0087
  714MOL0     H96366   3.550  11.790   8.228 -0.8196 -0.5761 -2.2083
  714MOL0     H96367   3.603  11.635   8.216  1.4238 -1.4646  2.6148
  714MOL0     H96368   3.788  11.834   8.351  0.4172 -0.3143  3.3014
  714MOL0     H96369   3.811  11.655   8.302  0.3934  1.1961 -1.5893
  714MOL0     H96370   3.649  11.579   8.455  4.3390 -1.1968  4.1627
  714MOL0     H96371   3.585  11.756   8.475  1.4008  0.4573  3.3403
  714MOL0     H96372   3.712  11.747   7.328  0.1660 -1.0783  1.1522
  714MOL0     H96373   3.873  11.747   7.155  1.4164  0.8934 -0.2106
  714MOL0     H96374   4.406  11.642   7.183  1.8872 -0.9199  1.1934
  714MOL0     H96375   4.591  11.630   7.019  0.6401  0.5230 -2.3028
  714MOL0     H96376   5.047  10.103   7.231  1.7244  2.8597 -0.6657
  714MOL0     H96377   5.038   9.952   7.413 -0.1328  0.3605 -2.1583
  714MOL0     H96378   5.059   9.885   7.833 -0.8286  0.0816 -3.7228
  714MOL0     H96379   5.086   9.701   8.006  1.9961 -0.8974 -2.8758
  714MOL0     H96380   5.010   9.613   8.205 -0.3279  0.4351 -0.7368
  714MOL0     H96381   4.871   9.523   8.268 -0.2948 -2.0493 -0.3645
  714MOL0     H96382   5.109   9.383   8.123  0.8355 -1.1555  0.5985
  714MOL0     H96383   4.965   9.304   8.206 -0.6115  0.2966 -1.5164
  714MOL0     H96384   5.185   9.482   8.339  1.6859 -2.1854  0.2307
  714MOL0     H96385   5.187   9.319   8.341 -1.6465 -1.0738  0.9524
  714MOL0     H96386   4.975   9.295   8.473 -0.0259 -0.3832 -0.1621
  714MOL0     H96387   4.943   9.467   8.451  2.1739  2.1910 -2.5185
  714MOL0     H96388   5.184   9.480   8.780  0.6713  0.3899 -0.0840
  714MOL0     H96389   4.701   9.544   7.907  0.9198 -0.8647  0.0929
  714MOL0     H96390   4.662   9.740   7.757 -1.2674 -1.8956  0.5352
  715MOL0     O96391  10.943   5.845   4.133 -0.2817 -0.5653 -0.4625
  715MOL0     C96392  11.060   5.823   4.097 -0.7431  0.5940  0.8666
  715MOL0     O96393  11.169   5.797   4.171 -0.3427 -0.3142 -0.2323
  715MOL0     C96394  11.137   5.777   4.305  0.4275 -0.2246 -0.1027
  715MOL0     C96395  11.141   5.653   4.360 -0.4106 -0.3093  0.3967
  715MOL0     C96396  11.129   5.623   4.498 -0.6240  0.4200 -0.2642
  715MOL0     C96397  11.106   5.728   4.584 -1.1004  0.6094  0.5314
  715MOL0     O96398  11.082   5.696   4.714  0.0933 -0.5152  0.3625
  715MOL0     C96399  10.970   5.768   4.785  0.3987 -0.8139 -0.1948
  715MOL0     C96400  11.019   5.874   4.895  0.0776 -0.2255 -0.2123
  715MOL0     C96401  11.124   5.817   4.995  0.8241 -0.5923  0.4262
  715MOL0     C96402  11.195   5.919   5.078 -0.6766 -0.7405  0.6812
  715MOL0     C96403  11.265   5.869   5.196  0.2808  0.5397  0.1981
  715MOL0     C96404  11.362   5.966   5.258  0.6430  0.9285  0.4214
  715MOL0     C96405  11.457   5.889   5.364 -0.8594 -0.8946  0.4586
  715MOL0     C96406  11.568   5.991   5.404  0.4941 -0.2078  0.1413
  715MOL0     N96407  11.526   6.103   5.487 -0.2932 -0.2415  0.0327
  715MOL0     C96408  11.469   6.106   5.612 -0.1574 -0.0082 -0.9450
  715MOL0     C96409  11.492   6.230   5.664 -0.9138 -0.2992 -0.2860
  715MOL0     C96410  11.464   6.282   5.805  0.4833 -0.2572  0.3915
  715MOL0     C96411  11.339   6.375   5.806 -0.7919 -0.2005 -0.7168
  715MOL0     C96412  11.365   6.491   5.910  0.6475 -0.2384 -0.7212
  715MOL0     C96413  11.393   6.442   6.059  0.2548  0.5566 -0.4358
  715MOL0     O96414  11.448   6.539   6.153 -0.1286 -0.3575 -0.2350
  715MOL0     C96415  11.365   6.628   6.223 -0.2351 -0.4938  0.0867
  715MOL0     C96416  11.425   6.737   6.291  0.4858  0.6411  0.2824
  715MOL0     C96417  11.350   6.831   6.348 -1.2907 -0.0684  0.1555
  715MOL0     C96418  11.415   6.948   6.426  0.6365 -0.5539 -0.7773
  715MOL0     C96419  11.212   6.829   6.328 -0.4971  0.4379 -1.1039
  715MOL0     C96420  11.127   6.942   6.366 -0.8338 -0.6884  0.6757
  715MOL0     O96421  11.112   6.963   6.502  0.2071  0.0060  0.6901
  715MOL0     C96422  11.036   7.066   6.546 -0.6125  1.6729  0.8627
  715MOL0     C96423  11.024   7.194   6.492 -0.2832 -0.2609 -0.4718
  715MOL0     C96424  10.929   7.281   6.539  0.6306  0.1817 -0.4821
  715MOL0     C96425  10.858   7.250   6.659 -0.4065 -0.7307  0.0260
  715MOL0     O96426  10.785   7.345   6.721 -0.3344  0.1750  0.5129
  715MOL0     C96427  10.683   7.396   6.636  1.4239 -0.6542 -0.4036
  715MOL0     C96428  10.576   7.445   6.734  0.1259  0.1112 -0.0646
  715MOL0     C96429  10.486   7.562   6.684  0.8558  0.4122  0.5243
  715MOL0     C96430  10.560   7.694   6.699 -0.7205  0.2625  0.4502
  715MOL0     C96431  10.465   7.811   6.685 -0.0557  0.0640  0.4071
  715MOL0     C96432  10.529   7.946   6.657  0.1690 -0.4410  1.1156
  715MOL0     C96433  10.435   8.077   6.666  0.4241  0.6697  0.4261
  715MOL0     C96434  10.500   8.203   6.624 -0.3446  0.6963  0.1794
  715MOL0    Cl96435  10.631   8.241   6.739  0.1964  0.0380  0.3010
  715MOL0     C96436  10.863   7.115   6.700 -0.4037 -0.4442 -0.9450
  715MOL0     C96437  10.947   7.020   6.645 -0.4810 -0.2856 -0.2681
  715MOL0     O96438  11.057   6.994   6.278  0.4243 -0.2502  0.7813
  715MOL0     C96439  11.149   6.713   6.278  0.1321  0.6807  0.1898
  715MOL0     C96440  11.223   6.609   6.230 -1.3547  0.2291 -0.0102
  715MOL0     N96441  11.561   6.309   5.565  0.9758 -0.2078 -0.2769
  715MOL0     N96442  11.581   6.223   5.469  0.6842 -0.8457  1.1799
  715MOL0     C96443  11.102   5.858   4.539 -0.1219  1.3285  0.8366
  715MOL0     C96444  11.112   5.880   4.398  0.4756 -0.0064  0.0457
  715MOL0     C96445  11.069   5.845   3.950  0.7395  0.6210 -0.4805
  715MOL0     C96446  11.196   5.860   3.900  0.2922 -0.6751  0.4151
  715MOL0     C96447  11.215   5.886   3.767 -0.5661 -0.5737  0.0513
  715MOL0     C96448  11.109   5.895   3.679 -0.0449 -0.6780  0.3989
  715MOL0     O96449  11.132   5.922   3.546 -0.3030  0.4460  0.7071
  715MOL0     C96450  11.027   5.924   3.450 -0.2891  0.8868 -0.0647
  715MOL0     C96451  11.057   5.987   3.319  0.3319 -0.5007 -0.6193
  715MOL0     C96452  11.089   6.140   3.340  1.0272 -0.3081  0.6567
  715MOL0     C96453  11.104   6.215   3.211  0.2554 -0.1407 -0.0878
  715MOL0     C96454  10.975   6.252   3.144  0.0813 -0.5291 -0.6154
  715MOL0     C96455  10.866   6.286   3.109  1.2848 -0.8867 -0.2280
  715MOL0     C96456  10.983   5.875   3.726 -0.0378 -0.2281 -0.3871
  715MOL0     C96457  10.959   5.844   3.861 -0.4242 -0.5423 -0.0644
  715MOL0     H96458  11.159   5.564   4.301 -0.7579  0.3914 -0.8015
  715MOL0     H96459  11.121   5.520   4.532  1.4022 -0.6434 -2.7005
  715MOL0     H96460  10.909   5.835   4.724 -0.4573 -0.2083  1.2800
  715MOL0     H96461  10.908   5.699   4.843 -0.5393 -0.5971 -0.9271
  715MOL0     H96462  11.062   5.953   4.833  0.7836 -1.0712 -0.8334
  715MOL0     H96463  10.928   5.905   4.946 -0.2212 -0.6839 -0.4664
  715MOL0     H96464  11.074   5.749   5.064 -2.7425  0.0977 -1.2418
  715MOL0     H96465  11.183   5.747   4.935 -3.2503 -3.1215 -1.0544
  715MOL0     H96466  11.268   5.973   5.016  0.2588 -2.4763  0.2030
  715MOL0     H96467  11.104   5.976   5.100 -1.9739 -2.9216  1.3246
  715MOL0     H96468  11.187   5.841   5.267  1.0343 -0.9182  0.4993
  715MOL0     H96469  11.313   5.773   5.172 -0.7164  0.8289 -3.7629
  715MOL0     H96470  11.419   6.006   5.173 -0.1873 -0.8626 -1.0563
  715MOL0     H96471  11.322   6.057   5.304  0.9457  0.8539  0.8392
  715MOL0     H96472  11.424   5.857   5.463  4.3886 -0.4962  2.7025
  715MOL0     H96473  11.499   5.800   5.317  0.8650  0.8941 -1.6317
  715MOL0     H96474  11.607   6.017   5.305 -0.6772 -0.7509 -0.4814
  715MOL0     H96475  11.641   5.935   5.463  0.9286  0.9845  0.7837
  715MOL0     H96476  11.426   6.014   5.650 -0.4171 -0.7406 -2.8942
  715MOL0     H96477  11.436   6.195   5.865 -1.5715  1.9862  2.9308
  715MOL0     H96478  11.553   6.329   5.848 -1.2904  3.2093  0.6466
  715MOL0     H96479  11.247   6.329   5.843 -1.6305  1.4844 -0.5950
  715MOL0     H96480  11.317   6.405   5.703 -1.9996  0.2729 -0.3359
  715MOL0     H96481  11.277   6.555   5.917  1.0450  0.4148 -1.4313
  715MOL0     H96482  11.452   6.545   5.871 -0.6363  0.5235 -2.6768
  715MOL0     H96483  11.475   6.369   6.067 -1.2319 -0.9578  2.4485
  715MOL0     H96484  11.311   6.381   6.098  0.2682 -1.0219 -2.6841
  715MOL0     H96485  11.531   6.759   6.279  1.2553 -0.6167  3.6813
  715MOL0     H96486  11.512   6.969   6.380  0.2514  0.2699 -1.2399
  715MOL0     H96487  11.356   7.040   6.419  0.6589 -0.2166  2.1194
  715MOL0     H96488  11.418   6.943   6.535 -1.9849  0.5808 -0.5639
  715MOL0     H96489  11.085   7.211   6.404  2.5676 -2.2469  0.9658
  715MOL0     H96490  10.928   7.383   6.501  1.4065  0.2498 -0.3397
  715MOL0     H96491  10.719   7.467   6.561  1.5764 -0.7403 -0.4118
  715MOL0     H96492  10.629   7.314   6.587  0.6267 -2.6047  3.3169
  715MOL0     H96493  10.503   7.367   6.756 -0.5087  1.3597  2.7596
  715MOL0     H96494  10.626   7.493   6.818  1.1866  5.3000 -3.1923
  715MOL0     H96495  10.398   7.564   6.749 -0.7191  1.9836 -1.5228
  715MOL0     H96496  10.465   7.564   6.576  3.8086  0.5394 -0.1256
  715MOL0     H96497  10.625   7.695   6.786  0.2350 -1.5214 -0.1777
  715MOL0     H96498  10.626   7.698   6.612 -0.4115  0.5808  0.7026
  715MOL0     H96499  10.417   7.818   6.784  3.7208  0.0380  2.4169
  715MOL0     H96500  10.380   7.781   6.623 -2.2968  0.4192  3.1013
  715MOL0     H96501  10.608   7.965   6.730  0.8475  3.2832 -0.3355
  715MOL0     H96502  10.577   7.935   6.559 -0.9511 -1.2694  0.6361
  715MOL0     H96503  10.401   8.090   6.769 -3.0892  1.8802 -0.7201
  715MOL0     H96504  10.344   8.057   6.608 -0.7358  0.4376  2.2468
  715MOL0     H96505  10.423   8.281   6.618 -1.2522 -0.1784  0.0536
  715MOL0     H96506  10.546   8.194   6.525 -0.7352  0.8114 -0.0150
  715MOL0     H96507  10.801   7.081   6.782  0.0339 -1.7529 -1.1310
  715MOL0     H96508  10.960   6.920   6.686  2.0412  1.0790  2.5851
  715MOL0     H96509  11.040   6.709   6.278  0.1648 -2.6845 -0.3399
  715MOL0     H96510  11.164   6.534   6.177  0.0370 -1.5065  0.7666
  715MOL0     H96511  11.092   5.944   4.605 -0.4347  1.3076  0.8217
  715MOL0     H96512  11.128   5.982   4.364  0.6389  0.4703  1.4643
  715MOL0     H96513  11.285   5.863   3.961 -0.2497  2.1055  1.1610
  715MOL0     H96514  11.314   5.887   3.722 -0.3979 -4.8828 -0.0721
  715MOL0     H96515  10.985   5.827   3.421 -1.9281  1.3664  0.5709
  715MOL0     H96516  10.938   5.971   3.494 -1.2852  0.2660 -1.3401
  715MOL0     H96517  10.963   5.987   3.263 -2.0889  1.3529  2.9951
  715MOL0     H96518  11.145   5.942   3.275  0.7724 -1.5053  1.1818
  715MOL0     H96519  11.187   6.142   3.389  1.3435  1.6914  0.0682
  715MOL0     H96520  11.013   6.189   3.401 -2.1690  0.2226 -3.3472
  715MOL0     H96521  11.167   6.157   3.144  0.4053 -1.1373  0.8800
  715MOL0     H96522  11.153   6.309   3.241 -0.1645 -0.2261  0.9069
  715MOL0     H96523  10.777   6.308   3.054  1.2341 -1.1272 -0.2432
  715MOL0     H96524  10.891   5.879   3.668 -1.4471 -0.4790  1.7106
  715MOL0     H96525  10.863   5.814   3.901  0.8240 -1.0958  2.8099
  716MOL0     O96526   3.358   0.183   8.424  0.6020  0.2306  0.6352
  716MOL0     C96527   3.240   0.186   8.452  1.3242  0.0281  0.6969
  716MOL0     O96528   3.142   0.206   8.363 -0.1551  0.0654  0.0399
  716MOL0     C96529   3.160   0.263   8.239  0.3467  0.7199  0.2442
  716MOL0     C96530   3.263   0.346   8.211 -0.2142 -0.1865 -0.7756
  716MOL0     C96531   3.307   0.377   8.080 -0.5374 -0.2751 -0.5132
  716MOL0     C96532   3.237   0.320   7.976  0.2986 -0.9693  0.0785
  716MOL0     O96533   3.270   0.358   7.850 -0.7197 -0.0973  0.0364
  716MOL0     C96534   3.206   0.319   7.726  0.2954  0.4583 -0.2001
  716MOL0     C96535   3.060   0.364   7.718  0.2450 -0.0032  0.2940
  716MOL0     C96536   2.981   0.307   7.593 -0.3111 -0.0449 -0.4567
  716MOL0     C96537   3.041   0.337   7.456 -0.1067 -0.0082  0.9908
  716MOL0     C96538   2.932   0.282   7.357 -0.0758 -0.4845  0.4954
  716MOL0     C96539   2.971   0.349   7.223 -0.8509  0.4496  0.1830
  716MOL0     C96540   3.113   0.303   7.168  0.3338  0.4172  0.0888
  716MOL0     C96541   3.096   0.278   7.021  0.2154 -0.3057 -0.1542
  716MOL0     N96542   3.239   0.268   6.968  1.0291 -0.2903 -0.1359
  716MOL0     C96543   3.325   0.368   6.934 -1.5066 -0.4264  0.0765
  716MOL0     C96544   3.424   0.298   6.867  0.3221 -0.7099 -0.9177
  716MOL0     C96545   3.554   0.349   6.815  0.2958 -0.2057  0.3405
  716MOL0     C96546   3.679   0.286   6.882  0.7750  0.7548  0.3289
  716MOL0     C96547   3.702   0.129   6.851  0.0615  0.1734  0.0718
  716MOL0     C96548   3.836   0.079   6.916 -0.6327 -0.6371 -0.1855
  716MOL0     O96549   3.943   0.169   6.881  0.5074 -0.4214  0.6331
  716MOL0     C96550   4.026   0.134   6.780  1.2796 -0.1992 -0.2857
  716MOL0     C96551   4.139   0.209   6.763 -0.1573 -0.7382  0.0882
  716MOL0     C96552   4.230   0.203   6.657  0.5750  1.0588 -0.1225
  716MOL0     C96553   4.354   0.290   6.650  0.7851 -0.0049  0.2830
  716MOL0     C96554   4.206   0.105   6.562  0.2694  0.3942 -0.2118
  716MOL0     C96555   4.288   0.092   6.444  0.0630 -0.4616 -0.4512
  716MOL0     O96556   4.220   0.052   6.335  0.5481  0.2767  0.3788
  716MOL0     C96557   4.277   0.052   6.209  0.8285  0.7266  0.1453
  716MOL0     C96558   4.411   0.077   6.175 -1.1006 -0.5190 -0.3131
  716MOL0     C96559   4.462   0.048   6.053  0.3244 -0.3561  0.8593
  716MOL0     C96560   4.384   0.001   5.946 -0.7966  0.6827 -0.6808
  716MOL0     O96561   4.439  -0.015   5.823 -0.1561  0.2535  0.6606
  716MOL0     C96562   4.370  -0.076   5.716  0.5166  0.0140  0.5390
  716MOL0     C96563   4.460  -0.175   5.644 -0.6913  0.1144 -0.1528
  716MOL0     C96564   4.409  -0.216   5.503 -0.4344 -0.3089 -0.3271
  716MOL0     C96565   4.506  -0.323   5.452  0.7830 -0.9936  0.0996
  716MOL0     C96566   4.453  -0.376   5.314  0.2697  0.8394  0.3510
  716MOL0     C96567   4.527  -0.497   5.263 -0.4236 -0.2229  0.5664
  716MOL0     C96568   4.475  -0.547   5.126 -0.3488  0.2491 -0.6299
  716MOL0     C96569   4.560  -0.656   5.066 -0.6753  0.4840  0.0219
  716MOL0    Cl96570   4.516  -0.710   4.897  0.0649 -0.5880  0.4145
  716MOL0     C96571   4.245  -0.025   5.976 -0.2600 -0.6629  1.3383
  716MOL0     C96572   4.200   0.012   6.103  0.0717  0.9150  0.3812
  716MOL0     O96573   4.408   0.101   6.459 -0.2596 -0.0732 -0.5729
  716MOL0     C96574   4.102   0.011   6.579  0.1473 -0.3631 -0.5039
  716MOL0     C96575   4.009   0.027   6.690 -0.1396  0.3779  0.7452
  716MOL0     N96576   3.390   0.160   6.852 -0.1384 -0.6805  0.1198
  716MOL0     N96577   3.276   0.147   6.909  0.1439 -1.2003 -0.2411
  716MOL0     C96578   3.137   0.221   8.001 -0.2850  0.3747  0.0141
  716MOL0     C96579   3.095   0.201   8.134 -0.1657  0.3034  0.3978
  716MOL0     C96580   3.207   0.163   8.589  0.5783  0.4431 -0.4676
  716MOL0     C96581   3.077   0.181   8.636  0.4507 -1.2307 -0.5302
  716MOL0     C96582   3.042   0.150   8.765  0.0312  0.2906 -0.0609
  716MOL0     C96583   3.127   0.083   8.857  0.2240  0.3174 -0.1130
  716MOL0     O96584   3.085   0.037   8.983 -0.5171 -0.7697 -0.2389
  716MOL0     C96585   3.037  -0.096   8.982 -0.9070  0.2575 -0.8672
  716MOL0     C96586   2.923  -0.110   9.089 -0.2809 -0.9629  0.4640
  716MOL0     C96587   2.927  -0.241   9.147  0.8078  0.4910 -0.0260
  716MOL0     C96588   2.898  -0.350   9.039  0.4511  0.2257  0.2289
  716MOL0     C96589   2.866  -0.477   9.107 -0.3642  0.2334  0.1669
  716MOL0     C96590   2.843  -0.594   9.141  0.5114 -1.1677  1.2093
  716MOL0     C96591   3.252   0.054   8.808  1.0159 -0.2616 -0.2135
  716MOL0     C96592   3.291   0.105   8.681 -1.1988  0.2951  0.0036
  716MOL0     H96593   3.320   0.388   8.293  1.4231 -0.2143 -1.8502
  716MOL0     H96594   3.401   0.432   8.075 -0.5356 -0.1820  0.3359
  716MOL0     H96595   3.255   0.379   7.650  1.0379  1.0892  0.7470
  716MOL0     H96596   3.224   0.212   7.709 -0.7088  0.4512 -1.3017
  716MOL0     H96597   3.005   0.350   7.812 -1.4653 -3.3472 -1.0717
  716MOL0     H96598   3.061   0.473   7.707 -1.6185  0.3541  2.6508
  716MOL0     H96599   2.965   0.199   7.604  1.2604 -0.3028 -0.5676
  716MOL0     H96600   2.884   0.357   7.600  0.1835  1.5637 -3.4647
  716MOL0     H96601   3.054   0.444   7.441  0.2687 -0.0809  0.7772
  716MOL0     H96602   3.138   0.289   7.438  0.8645  1.7812  1.2124
  716MOL0     H96603   2.939   0.175   7.336 -1.7769 -0.4296 -0.4987
  716MOL0     H96604   2.833   0.309   7.393  0.0601 -1.1450  1.4066
  716MOL0     H96605   2.901   0.310   7.149  1.8463  0.8411 -2.7982
  716MOL0     H96606   2.963   0.459   7.226  0.5238  0.5647 -0.0350
  716MOL0     H96607   3.176   0.389   7.196 -0.0125  0.9962 -0.8663
  716MOL0     H96608   3.161   0.211   7.203  2.8291  0.7909 -2.0730
  716MOL0     H96609   3.050   0.363   6.970  1.8952 -0.1568 -1.5091
  716MOL0     H96610   3.034   0.194   6.990 -0.4682  0.1490 -0.0286
  716MOL0     H96611   3.333   0.474   6.954  4.0460 -0.7799  1.6238
  716MOL0     H96612   3.568   0.334   6.707  1.0858  0.4214  0.3462
  716MOL0     H96613   3.560   0.458   6.829 -1.9145  0.0921 -0.5061
  716MOL0     H96614   3.660   0.297   6.990 -3.2601  0.6620 -0.2110
  716MOL0     H96615   3.766   0.347   6.858  1.0581  0.1473 -0.1924
  716MOL0     H96616   3.714   0.116   6.743 -1.9703 -0.2803 -0.1356
  716MOL0     H96617   3.617   0.072   6.890  0.1172  0.9469  1.3477
  716MOL0     H96618   3.858  -0.024   6.884 -3.4649 -0.6545 -2.5060
  716MOL0     H96619   3.821   0.070   7.024 -2.0647 -0.1964 -0.3302
  716MOL0     H96620   4.157   0.289   6.834 -3.0911 -0.1825  0.3564
  716MOL0     H96621   4.430   0.214   6.666 -1.2745 -2.7815 -2.0287
  716MOL0     H96622   4.362   0.343   6.555  1.0180 -0.5586 -0.0079
  716MOL0     H96623   4.356   0.374   6.721 -0.0614  0.6049 -0.3875
  716MOL0     H96624   4.478   0.116   6.250  0.9025 -3.4930 -0.3488
  716MOL0     H96625   4.567   0.065   6.029  0.7180 -0.9236  2.1231
  716MOL0     H96626   4.290  -0.147   5.739  1.2321 -1.1146 -0.3233
  716MOL0     H96627   4.338   0.014   5.663  0.4497  0.1201  0.7566
  716MOL0     H96628   4.566  -0.148   5.646 -0.9805  1.3348 -0.6434
  716MOL0     H96629   4.459  -0.261   5.711 -2.0722  0.7208  0.6448
  716MOL0     H96630   4.408  -0.134   5.431 -1.2639 -1.7109 -1.9782
  716MOL0     H96631   4.306  -0.253   5.498 -0.2870 -1.0883  1.4664
  716MOL0     H96632   4.603  -0.274   5.443 -0.1007  0.6738 -0.6347
  716MOL0     H96633   4.518  -0.413   5.514 -2.1743 -1.2216  0.4975
  716MOL0     H96634   4.431  -0.295   5.243  0.6603  0.8494  0.2423
  716MOL0     H96635   4.355  -0.417   5.341  1.6035 -2.1889  0.9369
  716MOL0     H96636   4.634  -0.475   5.268  0.0944 -2.6197  1.4847
  716MOL0     H96637   4.507  -0.579   5.332 -0.2618  0.6428  1.6768
  716MOL0     H96638   4.468  -0.469   5.049  2.3674 -0.0636 -1.3195
  716MOL0     H96639   4.370  -0.577   5.131 -0.9058  2.2333  0.7670
  716MOL0     H96640   4.545  -0.742   5.133 -4.3417  1.7391  1.0401
  716MOL0     H96641   4.664  -0.625   5.052 -0.4851 -0.7459 -1.5336
  716MOL0     H96642   4.180  -0.042   5.890  1.1713 -2.9832  0.6235
  716MOL0     H96643   4.094  -0.004   6.119 -0.0442  2.6421  1.5729
  716MOL0     H96644   4.073  -0.060   6.502  0.5009 -0.4106 -0.5937
  716MOL0     H96645   3.923  -0.038   6.683 -2.2808  3.0205  0.8162
  716MOL0     H96646   3.101   0.165   7.915 -1.5070  0.7907  0.2234
  716MOL0     H96647   3.011   0.136   8.155 -0.5864  0.5112 -0.5476
  716MOL0     H96648   3.001   0.226   8.573  0.5666 -1.7802 -1.0682
  716MOL0     H96649   2.946   0.185   8.800 -0.2027  0.5730 -0.9486
  716MOL0     H96650   3.012  -0.125   8.879  1.7048 -1.7691 -1.0239
  716MOL0     H96651   3.118  -0.164   9.007 -0.7959  0.7499  0.1538
  716MOL0     H96652   2.836  -0.091   9.025  1.7899  2.2503 -1.6782
  716MOL0     H96653   2.926  -0.026   9.159 -1.3350 -0.5534  0.0531
  716MOL0     H96654   2.848  -0.251   9.222 -0.6450  1.4568 -1.3606
  716MOL0     H96655   3.028  -0.258   9.186  1.6779 -0.4678 -2.4765
  716MOL0     H96656   2.984  -0.366   8.972 -0.3442 -2.3691 -0.2981
  716MOL0     H96657   2.812  -0.317   8.980  2.1508  2.4233 -1.2240
  716MOL0     H96658   2.809  -0.693   9.162 -1.3600 -0.7417  0.3805
  716MOL0     H96659   3.318  -0.009   8.867  0.2244  1.3959  2.6297
  716MOL0     H96660   3.388   0.084   8.636 -2.1500  2.4344 -3.4422
  717MOL0     O96661   9.737  10.691   2.131  0.5162 -0.1478  0.7384
  717MOL0     C96662   9.720  10.571   2.140  0.5277 -0.5284 -0.3678
  717MOL0     O96663   9.693  10.505   2.257  0.0669 -0.0533  0.0996
  717MOL0     C96664   9.666  10.577   2.373 -0.2622 -0.3116  0.1148
  717MOL0     C96665   9.568  10.674   2.360  0.4395 -0.6998 -0.4238
  717MOL0     C96666   9.533  10.753   2.477 -0.9221  0.8801  1.2691
  717MOL0     C96667   9.594  10.726   2.603  0.4695 -0.1285 -0.7002
  717MOL0     O96668   9.571  10.794   2.724 -0.2721  0.4313  0.2602
  717MOL0     C96669   9.542  10.939   2.704  0.3331 -0.2494  0.4786
  717MOL0     C96670   9.564  11.002   2.838 -0.1326 -0.5974 -0.1139
  717MOL0     C96671   9.483  10.961   2.957 -0.8385 -0.8429 -0.1158
  717MOL0     C96672   9.350  11.044   2.966 -0.2072  0.7382 -1.0068
  717MOL0     C96673   9.261  10.975   3.065 -0.3820  0.4540 -0.2580
  717MOL0     C96674   9.113  11.029   3.079  0.0021 -0.5776  1.1976
  717MOL0     C96675   9.033  10.934   3.163  0.0040  0.2344  0.1256
  717MOL0     C96676   9.050  10.994   3.304  0.1772  1.2091  0.1818
  717MOL0     N96677   8.999  10.895   3.396  0.1833 -0.6001 -0.1625
  717MOL0     C96678   8.876  10.840   3.404  0.2114 -0.4622  0.0060
  717MOL0     C96679   8.867  10.776   3.528  0.5079 -0.6047  1.3716
  717MOL0     C96680   8.768  10.691   3.591 -0.0677 -0.1898 -0.1040
  717MOL0     C96681   8.685  10.624   3.489  0.5137  0.0545  0.2138
  717MOL0     C96682   8.591  10.521   3.541  0.4424 -0.6049 -0.4883
  717MOL0     C96683   8.650  10.405   3.631  0.3531 -0.6517 -0.3731
  717MOL0     O96684   8.776  10.359   3.576  0.1787 -0.4061  0.7921
  717MOL0     C96685   8.795  10.306   3.451  0.4504  0.2442  0.4774
  717MOL0     C96686   8.688  10.256   3.372 -0.6540  1.2363 -0.1978
  717MOL0     C96687   8.713  10.186   3.250  0.2329  0.6025 -0.3544
  717MOL0     C96688   8.595  10.150   3.150 -0.6685 -0.4297  0.1900
  717MOL0     C96689   8.845  10.153   3.217  0.4379  1.1417 -0.1882
  717MOL0     C96690   8.895  10.075   3.100  0.5473  1.1967 -0.5280
  717MOL0     O96691   9.025  10.072   3.058  0.2904 -0.3053 -0.3742
  717MOL0     C96692   9.051   9.990   2.944  0.2912 -0.2232 -0.8801
  717MOL0     C96693   9.020   9.854   2.954 -0.5172 -0.1971 -0.2084
  717MOL0     C96694   9.039   9.764   2.849 -0.0117  0.7195  0.3551
  717MOL0     C96695   9.069   9.823   2.723 -0.1840  0.9938 -0.5115
  717MOL0     O96696   9.086   9.730   2.617 -0.0808 -0.7490  0.3230
  717MOL0     C96697   9.217   9.695   2.587  0.0337  0.8479 -0.2475
  717MOL0     C96698   9.250   9.738   2.443  0.1250  0.9366 -0.3661
  717MOL0     C96699   9.149   9.687   2.330  0.1331  0.1245  0.5178
  717MOL0     C96700   9.188   9.771   2.199  0.0596  0.8835 -0.2520
  717MOL0     C96701   9.100   9.754   2.073 -0.6230 -0.4851 -0.0327
  717MOL0     C96702   9.099   9.610   2.009 -0.7312  0.7426  0.6498
  717MOL0     C96703   8.992   9.596   1.900  0.6722  0.4285  0.1480
  717MOL0     C96704   9.047   9.639   1.767  0.0302  0.1910  0.7789
  717MOL0    Cl96705   8.914   9.618   1.655  0.1810  0.5847 -0.0026
  717MOL0     C96706   9.082   9.962   2.710  0.6611  0.2430  0.0154
  717MOL0     C96707   9.077  10.041   2.822 -0.4525 -0.5077  0.0298
  717MOL0     O96708   8.811  10.001   3.058 -0.6486  0.5542  0.6445
  717MOL0     C96709   8.945  10.212   3.283  0.3969 -0.0280  0.0485
  717MOL0     C96710   8.926  10.294   3.401 -0.3027  0.1168  0.7802
  717MOL0     N96711   8.987  10.797   3.588  0.3144 -0.1672  0.0100
  717MOL0     N96712   9.071  10.869   3.515  0.2932 -0.2570  0.4548
  717MOL0     C96713   9.672  10.609   2.616 -0.8693 -0.5515  0.6794
  717MOL0     C96714   9.714  10.543   2.495  0.1049 -0.5020  0.4931
  717MOL0     C96715   9.716  10.498   2.018 -0.5830 -0.4039 -0.2610
  717MOL0     C96716   9.750  10.544   1.894 -0.9352 -0.6277  0.0311
  717MOL0     C96717   9.746  10.477   1.774 -0.0490 -1.0923 -0.8262
  717MOL0     C96718   9.687  10.354   1.773 -1.1107  0.9132 -0.2743
  717MOL0     O96719   9.688  10.281   1.656  0.4560 -0.6196  0.0574
  717MOL0     C96720   9.607  10.162   1.649 -0.9376  0.0750  1.2338
  717MOL0     C96721   9.626  10.121   1.501  0.6121  0.9594 -0.4059
  717MOL0     C96722   9.509  10.044   1.425  0.6273 -0.8816 -0.4295
  717MOL0     C96723   9.387  10.131   1.426 -0.1685 -0.0182 -0.0573
  717MOL0     C96724   9.271  10.056   1.382  0.0653  0.8208  0.6351
  717MOL0     C96725   9.178   9.994   1.335  0.4132  0.1583 -0.3623
  717MOL0     C96726   9.654  10.298   1.894  0.0770 -0.0513 -0.2221
  717MOL0     C96727   9.675  10.365   2.018  0.0914 -0.8921 -0.2732
  717MOL0     H96728   9.517  10.687   2.265 -1.8048  3.2320  1.0669
  717MOL0     H96729   9.464  10.833   2.453  2.6953  3.4600 -1.8171
  717MOL0     H96730   9.613  10.975   2.629  1.1944  2.2741  2.3414
  717MOL0     H96731   9.436  10.952   2.681  0.3456 -0.8993  0.0467
  717MOL0     H96732   9.669  10.993   2.866 -0.5767 -0.3994  1.7726
  717MOL0     H96733   9.540  11.106   2.815  0.1891 -0.4367  0.2577
  717MOL0     H96734   9.462  10.853   2.951 -0.3064 -0.9377 -0.2763
  717MOL0     H96735   9.541  10.992   3.044 -1.9449  1.4893 -0.1504
  717MOL0     H96736   9.383  11.140   3.006  0.0734  0.2665 -0.0947
  717MOL0     H96737   9.300  11.056   2.869  0.3476 -3.6569 -2.0647
  717MOL0     H96738   9.252  10.875   3.022 -1.2606  0.6159 -0.4628
  717MOL0     H96739   9.309  10.961   3.163 -0.1422  0.3992 -0.3817
  717MOL0     H96740   9.115  11.137   3.099  0.8627  0.3046 -2.7457
  717MOL0     H96741   9.068  11.012   2.981 -0.5868 -1.2363  1.5745
  717MOL0     H96742   8.926  10.916   3.144  0.7800 -2.8920 -2.0935
  717MOL0     H96743   9.071  10.832   3.164  0.8403  0.5268 -0.6712
  717MOL0     H96744   8.999  11.090   3.312  2.0017  2.0670  2.7154
  717MOL0     H96745   9.154  11.014   3.334  0.3845  3.7693 -1.8485
  717MOL0     H96746   8.791  10.843   3.336 -1.5401  0.4505  2.0872
  717MOL0     H96747   8.825  10.617   3.647 -0.9614  1.1989  2.7977
  717MOL0     H96748   8.705  10.748   3.660 -0.8624 -0.0381 -0.9318
  717MOL0     H96749   8.749  10.574   3.417  0.6333 -0.4036  0.6372
  717MOL0     H96750   8.623  10.700   3.441  0.2474  0.5308  1.2652
  717MOL0     H96751   8.544  10.478   3.452  2.0116 -0.7941 -1.2535
  717MOL0     H96752   8.513  10.571   3.600  1.4265 -0.5807  0.8387
  717MOL0     H96753   8.584  10.318   3.622  2.4116 -2.3775  0.2639
  717MOL0     H96754   8.670  10.447   3.730 -1.9753  1.6266 -0.7825
  717MOL0     H96755   8.584  10.270   3.399 -0.8093 -1.8301  1.3017
  717MOL0     H96756   8.505  10.196   3.190 -0.4590  0.6638 -0.5462
  717MOL0     H96757   8.628  10.201   3.059 -0.7031 -0.3674  0.2129
  717MOL0     H96758   8.580  10.044   3.127 -0.9615 -0.6916  1.5407
  717MOL0     H96759   8.992   9.817   3.052 -0.0676  0.3421  0.1313
  717MOL0     H96760   9.030   9.656   2.860 -1.9931  0.4524 -2.6864
  717MOL0     H96761   9.286   9.739   2.659  2.1494 -3.3489  0.6086
  717MOL0     H96762   9.228   9.586   2.588  2.5011  1.0355  0.4874
  717MOL0     H96763   9.257   9.847   2.440 -0.4434  0.9556 -1.6805
  717MOL0     H96764   9.353   9.706   2.421 -0.4458 -2.0287  0.8104
  717MOL0     H96765   9.045   9.711   2.350  0.0990 -1.3800  2.4601
  717MOL0     H96766   9.158   9.580   2.313  0.2689 -0.2207  2.5191
  717MOL0     H96767   9.191   9.876   2.228 -1.6712  0.6648  0.8680
  717MOL0     H96768   9.291   9.745   2.173  0.7433  4.2755 -1.4520
  717MOL0     H96769   9.141   9.827   2.003 -3.1284  1.3163  0.2074
  717MOL0     H96770   8.994   9.768   2.096 -1.1440 -2.5193 -1.0299
  717MOL0     H96771   9.196   9.567   1.980 -1.9323 -2.7603  1.2822
  717MOL0     H96772   9.067   9.540   2.087 -0.8308 -2.3310 -1.9610
  717MOL0     H96773   8.911   9.658   1.938 -0.5657 -2.5274  2.8806
  717MOL0     H96774   8.955   9.493   1.908 -2.6394  1.4548 -0.4774
  717MOL0     H96775   9.141   9.591   1.738 -0.8490 -2.5984  2.1711
  717MOL0     H96776   9.055   9.747   1.777  1.3521  0.0127  1.8236
  717MOL0     H96777   9.093   9.995   2.607 -1.9593  0.5259 -0.2253
  717MOL0     H96778   9.081  10.148   2.802  0.0660 -0.6968 -0.9651
  717MOL0     H96779   9.050  10.200   3.261  0.6079  0.7260  0.5879
  717MOL0     H96780   8.998  10.358   3.449 -1.4491  3.1875 -1.2752
  717MOL0     H96781   9.712  10.586   2.714 -2.3362 -1.2833  1.1444
  717MOL0     H96782   9.779  10.456   2.498  1.3325  0.4038  0.6380
  717MOL0     H96783   9.788  10.646   1.887 -3.2605  0.3516  0.6430
  717MOL0     H96784   9.781  10.523   1.682 -0.3541 -1.0170 -0.9053
  717MOL0     H96785   9.652  10.089   1.717  0.1166 -2.6321 -2.0776
  717MOL0     H96786   9.506  10.197   1.672 -0.7870  2.2669 -0.9970
  717MOL0     H96787   9.712  10.052   1.499 -1.6155 -2.1066  0.9401
  717MOL0     H96788   9.653  10.210   1.445  0.9541  1.5866  0.7204
  717MOL0     H96789   9.487   9.957   1.487 -0.5378  0.7863  1.6448
  717MOL0     H96790   9.526  10.004   1.325 -1.2470 -1.2627 -0.6304
  717MOL0     H96791   9.402  10.222   1.367  0.1286  0.9256  1.4226
  717MOL0     H96792   9.363  10.159   1.529 -1.9821  1.9146 -0.9367
  717MOL0     H96793   9.094   9.932   1.310  0.1259  1.0713 -1.7289
  717MOL0     H96794   9.634  10.192   1.900 -0.9254  0.2078  2.7547
  717MOL0     H96795   9.668  10.304   2.107  0.3891 -2.7860 -1.4897
  718MOL0     O96796   9.505   8.000   8.394  0.4483 -0.4624 -0.3377
  718MOL0     C96797   9.404   7.934   8.377  0.0860  0.4777  0.2779
  718MOL0     O96798   9.335   7.935   8.254 -0.3339  0.6638  0.2893
  718MOL0     C96799   9.373   8.009   8.149 -0.0531 -0.1746 -0.8100
  718MOL0     C96800   9.503   8.026   8.107 -0.2223  0.3956 -0.0202
  718MOL0     C96801   9.529   8.123   8.014 -0.4745 -0.7266 -0.3108
  718MOL0     C96802   9.425   8.185   7.943 -0.8815 -0.0663 -0.3360
  718MOL0     O96803   9.470   8.275   7.855 -0.3057 -0.0260 -0.4424
  718MOL0     C96804   9.382   8.311   7.744 -0.7385 -0.1529 -0.4901
  718MOL0     C96805   9.446   8.412   7.646  0.7478 -0.1866 -0.1775
  718MOL0     C96806   9.577   8.356   7.588 -0.1604 -0.1023 -0.4862
  718MOL0     C96807   9.634   8.431   7.471  0.0117 -1.2391 -0.5282
  718MOL0     C96808   9.644   8.583   7.492  0.9030 -0.3401  0.3169
  718MOL0     C96809   9.718   8.669   7.383  0.4233 -0.6175 -0.0307
  718MOL0     C96810   9.626   8.687   7.258  1.1314  0.3315 -0.3123
  718MOL0     C96811   9.499   8.759   7.280  0.3414 -0.0973 -0.3733
  718MOL0     N96812   9.513   8.893   7.349  0.4501  0.3595 -0.8002
  718MOL0     C96813   9.495   8.916   7.484 -0.8266 -0.4590 -0.9071
  718MOL0     C96814   9.486   9.049   7.507 -0.3008 -0.8662  0.4035
  718MOL0     C96815   9.467   9.129   7.638  0.0486  0.3926 -0.4918
  718MOL0     C96816   9.597   9.192   7.685 -0.0386  0.1393  0.4683
  718MOL0     C96817   9.575   9.311   7.783 -1.1314 -0.4628 -0.0294
  718MOL0     C96818   9.568   9.273   7.932 -0.2373 -0.6513 -0.0723
  718MOL0     O96819   9.675   9.185   7.958  0.9465  0.2144 -0.8296
  718MOL0     C96820   9.668   9.099   8.064  0.2252 -0.4932 -0.6197
  718MOL0     C96821   9.612   9.138   8.184  0.8628  0.6852 -1.2889
  718MOL0     C96822   9.610   9.046   8.294  1.3829  0.6705 -0.8576
  718MOL0     C96823   9.518   9.096   8.405  0.9975  0.5462 -0.2661
  718MOL0     C96824   9.676   8.917   8.284  0.1904 -0.1116  0.2988
  718MOL0     C96825   9.681   8.822   8.393 -0.4037 -0.5830 -0.2593
  718MOL0     O96826   9.686   8.683   8.366 -0.2504 -0.3289  0.4904
  718MOL0     C96827   9.678   8.586   8.453 -0.0148 -0.2146 -0.0927
  718MOL0     C96828   9.728   8.579   8.586  0.1754 -0.3734  0.1053
  718MOL0     C96829   9.710   8.462   8.663 -0.4159 -0.1226 -0.5940
  718MOL0     C96830   9.644   8.350   8.621  0.2579  0.1929  1.4742
  718MOL0     O96831   9.610   8.241   8.702 -0.7583 -0.1807 -0.7266
  718MOL0     C96832   9.705   8.140   8.685  0.0300  0.2879 -0.4627
  718MOL0     C96833   9.701   8.038   8.795  0.9320  0.3221  0.4418
  718MOL0     C96834   9.783   7.916   8.759 -0.2613  0.4667 -0.4876
  718MOL0     C96835   9.770   7.819   8.877  0.1570  0.3131 -0.1442
  718MOL0     C96836   9.853   7.692   8.845  0.1238  0.2706  0.3103
  718MOL0     C96837   9.816   7.575   8.931 -0.7309 -0.1872 -0.3676
  718MOL0     C96838   9.826   7.603   9.078 -0.1542  0.8798  0.0151
  718MOL0     C96839   9.861   7.467   9.155  0.0657 -0.0666 -0.3058
  718MOL0    Cl96840   9.717   7.362   9.163  0.1897 -0.2943 -0.0192
  718MOL0     C96841   9.582   8.369   8.490 -0.1502  0.1415 -0.1952
  718MOL0     C96842   9.602   8.481   8.407  0.2215 -0.3229  0.7846
  718MOL0     O96843   9.694   8.874   8.509  0.9106  0.0348 -0.5777
  718MOL0     C96844   9.740   8.884   8.163  1.1857  0.1611 -0.4712
  718MOL0     C96845   9.731   8.977   8.051 -0.2293  0.9639 -0.0170
  718MOL0     N96846   9.496   9.103   7.374  0.2082  0.8001 -0.3306
  718MOL0     N96847   9.518   9.013   7.288 -0.2983  0.5933 -1.2320
  718MOL0     C96848   9.294   8.169   7.969 -0.1862  0.8568 -1.1202
  718MOL0     C96849   9.262   8.082   8.083 -0.3235  0.2738  0.2294
  718MOL0     C96850   9.376   7.820   8.469  0.7493  0.8322  0.2010
  718MOL0     C96851   9.375   7.832   8.608 -0.7820  0.2628 -0.1519
  718MOL0     C96852   9.354   7.714   8.691 -1.1758 -0.6838  0.1986
  718MOL0     C96853   9.344   7.586   8.630  0.2453 -0.4349  0.4408
  718MOL0     O96854   9.333   7.463   8.692 -0.2865  0.0507 -0.2280
  718MOL0     C96855   9.293   7.443   8.821 -0.3508 -0.7969 -0.8049
  718MOL0     C96856   9.300   7.297   8.850 -0.8584  0.4796  0.5985
  718MOL0     C96857   9.221   7.234   8.973 -0.8741 -0.5547  0.3570
  718MOL0     C96858   9.090   7.173   8.934  0.2622  0.5525 -1.0622
  718MOL0     C96859   9.027   7.121   9.056  0.4286  0.6564  0.1746
  718MOL0     C96860   8.959   7.095   9.159 -0.1647  0.8016  0.6481
  718MOL0     C96861   9.346   7.584   8.486  0.2498 -0.2813 -1.2087
  718MOL0     C96862   9.350   7.701   8.411 -0.0431 -0.6720  0.6637
  718MOL0     H96863   9.586   7.982   8.160  0.6928  1.2337 -0.7161
  718MOL0     H96864   9.635   8.143   8.000 -0.8097  0.2118 -1.7276
  718MOL0     H96865   9.358   8.216   7.696  1.2134 -0.7486 -0.3893
  718MOL0     H96866   9.292   8.355   7.787 -0.0138 -0.2739  1.2376
  718MOL0     H96867   9.378   8.461   7.575  0.6605 -0.0959 -0.0306
  718MOL0     H96868   9.465   8.499   7.708  0.5308  0.1159 -0.5311
  718MOL0     H96869   9.648   8.383   7.668 -0.5002  1.6001 -0.7088
  718MOL0     H96870   9.593   8.250   7.570  3.4838  0.2014  0.1093
  718MOL0     H96871   9.737   8.401   7.452  0.8806  0.9228  0.4183
  718MOL0     H96872   9.570   8.406   7.385 -1.5989 -0.1561  0.3006
  718MOL0     H96873   9.545   8.629   7.493  1.3722  1.4099 -4.9268
  718MOL0     H96874   9.682   8.593   7.595 -0.5198 -0.0141  0.8404
  718MOL0     H96875   9.734   8.769   7.426 -2.0780  0.5435 -1.5777
  718MOL0     H96876   9.816   8.625   7.361  0.6225 -0.4028  0.3904
  718MOL0     H96877   9.681   8.746   7.184  0.6879 -0.1885 -1.0650
  718MOL0     H96878   9.593   8.591   7.216  0.0804  1.5707 -2.4566
  718MOL0     H96879   9.429   8.701   7.341 -0.3419 -0.7096 -1.7133
  718MOL0     H96880   9.440   8.784   7.192 -0.5333  0.3300  0.3166
  718MOL0     H96881   9.484   8.833   7.553 -5.7982  0.0210 -0.7697
  718MOL0     H96882   9.397   9.202   7.596  0.6785  1.8515  0.8600
  718MOL0     H96883   9.412   9.079   7.718  0.3061  2.3109  0.9483
  718MOL0     H96884   9.660   9.218   7.600  1.4998 -2.0692  0.8543
  718MOL0     H96885   9.644   9.110   7.739  0.2040 -0.3879 -0.5265
  718MOL0     H96886   9.490   9.370   7.747 -0.4546  0.9697  0.6408
  718MOL0     H96887   9.668   9.365   7.765 -0.8917 -1.4199 -1.9610
  718MOL0     H96888   9.472   9.231   7.962  0.5475 -0.7940  2.4947
  718MOL0     H96889   9.595   9.363   7.989 -0.2875 -1.5350  1.3847
  718MOL0     H96890   9.558   9.230   8.201 -0.2128 -0.3415  1.3796
  718MOL0     H96891   9.567   9.109   8.502 -0.2439 -0.8931  0.5979
  718MOL0     H96892   9.482   9.195   8.378  1.9026  1.0203  0.2152
  718MOL0     H96893   9.443   9.017   8.416 -0.3800  2.0925  2.6015
  718MOL0     H96894   9.772   8.666   8.634  0.8146 -0.8274  0.3598
  718MOL0     H96895   9.736   8.464   8.768 -1.5344  1.0904 -0.3140
  718MOL0     H96896   9.689   8.088   8.590  0.5151 -2.6344  0.9756
  718MOL0     H96897   9.806   8.183   8.692  0.5230  0.9124 -6.2063
  718MOL0     H96898   9.738   8.085   8.886  1.1683 -0.7883  0.9314
  718MOL0     H96899   9.597   8.011   8.812  0.3174  2.8742  1.1274
  718MOL0     H96900   9.888   7.936   8.737  0.3473 -0.2172  1.6043
  718MOL0     H96901   9.724   7.867   8.681 -2.9503  0.9919  1.0788
  718MOL0     H96902   9.800   7.867   8.971  4.6893 -0.9749 -0.6878
  718MOL0     H96903   9.669   7.790   8.907  0.9504 -2.2341  0.3922
  718MOL0     H96904   9.959   7.706   8.869 -0.3949  0.7306  2.4935
  718MOL0     H96905   9.839   7.656   8.742 -1.4057  1.8048 -0.0741
  718MOL0     H96906   9.714   7.549   8.900 -0.1440  0.1233 -2.7755
  718MOL0     H96907   9.860   7.478   8.905 -1.7909 -0.8166  0.1331
  718MOL0     H96908   9.736   7.659   9.106  0.1821  1.0385  0.8107
  718MOL0     H96909   9.910   7.671   9.095  0.7757 -0.3333  0.3684
  718MOL0     H96910   9.888   7.490   9.258  1.0689 -1.2744 -0.2838
  718MOL0     H96911   9.947   7.424   9.104 -1.0454  0.0759 -2.4265
  718MOL0     H96912   9.517   8.291   8.452  0.1089 -0.5576  0.7848
  718MOL0     H96913   9.566   8.482   8.305 -0.3117  0.2544  0.9682
  718MOL0     H96914   9.787   8.788   8.147  0.6518 -0.4381  1.2384
  718MOL0     H96915   9.778   8.952   7.957  1.0377 -1.7845  1.2465
  718MOL0     H96916   9.207   8.217   7.925  0.0549  0.5267 -1.9811
  718MOL0     H96917   9.157   8.060   8.096 -0.8562  1.7235 -1.2309
  718MOL0     H96918   9.416   7.919   8.660  1.0505 -1.7038  1.9049
  718MOL0     H96919   9.346   7.720   8.799  0.8040  1.5569  0.2980
  718MOL0     H96920   9.356   7.502   8.888 -0.3316 -0.0912 -1.4329
  718MOL0     H96921   9.189   7.476   8.835 -0.6889 -2.5687  1.5790
  718MOL0     H96922   9.408   7.281   8.864 -0.8728 -0.3381 -0.1852
  718MOL0     H96923   9.270   7.238   8.764  4.1251 -0.8151 -0.5866
  718MOL0     H96924   9.209   7.318   9.042  0.9184  0.5151 -0.5396
  718MOL0     H96925   9.282   7.157   9.020  0.1231  0.2092  0.3637
  718MOL0     H96926   9.104   7.082   8.875  0.2932 -0.1813  0.0581
  718MOL0     H96927   9.026   7.246   8.883 -1.3685  1.0379  1.5191
  718MOL0     H96928   8.903   7.075   9.248 -1.7020 -1.4285 -0.7216
  718MOL0     H96929   9.327   7.489   8.436  0.2475  0.2535 -2.2458
  718MOL0     H96930   9.333   7.703   8.304  1.3491 -1.9019  0.4031
  719MOL0     O96931   6.524   6.636   5.805 -0.3776  0.5810 -0.7104
  719MOL0     C96932   6.409   6.675   5.776 -0.6965 -0.2893  0.5218
  719MOL0     O96933   6.297   6.619   5.832 -0.9835  0.1099  0.0059
  719MOL0     C96934   6.301   6.513   5.923 -1.0406  0.2645 -1.0208
  719MOL0     C96935   6.242   6.395   5.871 -1.1427  0.3342 -0.2507
  719MOL0     C96936   6.265   6.276   5.941  0.0828 -0.1423 -0.5511
  719MOL0     C96937   6.324   6.275   6.063 -0.0393 -0.0296 -0.4588
  719MOL0     O96938   6.344   6.152   6.122  0.4205  0.7500 -0.1918
  719MOL0     C96939   6.458   6.069   6.074 -0.2877 -0.1966  0.5894
  719MOL0     C96940   6.595   6.141   6.101  0.0023  0.2772 -0.4473
  719MOL0     C96941   6.627   6.139   6.248  0.3918 -0.8170 -0.1782
  719MOL0     C96942   6.750   6.230   6.268  0.2796  0.4341  0.6038
  719MOL0     C96943   6.789   6.261   6.415 -0.1832 -0.4874  0.1595
  719MOL0     C96944   6.919   6.345   6.429 -0.0822 -0.4569  0.0292
  719MOL0     C96945   6.975   6.342   6.578  0.6442  1.4212  0.5872
  719MOL0     C96946   7.061   6.211   6.597 -0.1509  0.1433  0.6108
  719MOL0     N96947   7.123   6.214   6.732 -0.3341 -0.1258  0.4246
  719MOL0     C96948   7.239   6.271   6.755 -1.4374 -0.9067  0.5388
  719MOL0     C96949   7.278   6.224   6.876 -0.4681 -0.5514 -0.0066
  719MOL0     C96950   7.404   6.254   6.958 -1.0575 -0.0383 -0.2829
  719MOL0     C96951   7.471   6.390   6.925 -0.8289 -0.0232 -0.1351
  719MOL0     C96952   7.584   6.423   7.028 -0.8281 -0.3779  0.1178
  719MOL0     C96953   7.723   6.381   6.980 -0.3209  0.7091 -0.3770
  719MOL0     O96954   7.819   6.409   7.094  0.2418  0.0015  0.7796
  719MOL0     C96955   7.954   6.403   7.070 -0.6999  0.0874  0.0785
  719MOL0     C96956   8.017   6.383   6.949  0.1806  0.6664 -0.5173
  719MOL0     C96957   8.162   6.381   6.938  0.0041 -0.5890  0.4443
  719MOL0     C96958   8.225   6.372   6.798  0.0172  0.4617 -0.3432
  719MOL0     C96959   8.240   6.405   7.058  1.2951 -0.6161  0.3640
  719MOL0     C96960   8.383   6.445   7.061  0.5628 -0.4295 -0.2898
  719MOL0     O96961   8.449   6.426   7.187 -0.0813  0.2634  0.1655
  719MOL0     C96962   8.594   6.428   7.180  0.3231  0.3239  0.3072
  719MOL0     C96963   8.682   6.387   7.080  0.5289  0.5076  0.3350
  719MOL0     C96964   8.821   6.392   7.081 -0.6699 -0.0634  0.2319
  719MOL0     C96965   8.884   6.448   7.195 -0.4565 -0.2059 -0.1131
  719MOL0     O96966   9.018   6.469   7.224  0.4432 -0.1162 -0.4008
  719MOL0     C96967   9.102   6.449   7.107 -0.2950  0.5965 -0.2960
  719MOL0     C96968   9.255   6.483   7.139  0.4171  0.0774  0.4054
  719MOL0     C96969   9.331   6.350   7.182  0.0722  0.3121 -0.3732
  719MOL0     C96970   9.474   6.371   7.194 -0.9800  0.0966  0.5618
  719MOL0     C96971   9.539   6.285   7.318 -0.0432 -0.8843  0.2728
  719MOL0     C96972   9.550   6.141   7.266  1.2850 -0.5598 -0.4082
  719MOL0     C96973   9.610   6.060   7.383 -0.3096 -0.3627 -0.4618
  719MOL0     C96974   9.764   6.080   7.407  0.3553 -0.3008 -0.0125
  719MOL0    Cl96975   9.866   6.014   7.268  0.3901  0.0616  0.0184
  719MOL0     C96976   8.796   6.483   7.295 -0.0734  0.1075 -0.1536
  719MOL0     C96977   8.653   6.476   7.295 -0.6844 -0.4001  0.0338
  719MOL0     O96978   8.429   6.504   6.965  0.8593 -0.0446 -0.5501
  719MOL0     C96979   8.171   6.422   7.177  0.6169 -0.2815 -0.5860
  719MOL0     C96980   8.038   6.422   7.186 -0.1646  0.2558  1.2109
  719MOL0     N96981   7.182   6.150   6.932 -0.5152 -0.1775 -0.6666
  719MOL0     N96982   7.086   6.152   6.850 -0.7655  0.7914  0.4449
  719MOL0     C96983   6.371   6.399   6.120 -0.0651 -0.5270  0.1391
  719MOL0     C96984   6.357   6.523   6.051 -0.4699  0.5653 -0.5786
  719MOL0     C96985   6.387   6.772   5.673 -1.3701 -0.0861 -0.2341
  719MOL0     C96986   6.489   6.854   5.632 -0.1966 -0.7450  0.6322
  719MOL0     C96987   6.471   6.943   5.521 -0.1170  0.6619  0.3287
  719MOL0     C96988   6.344   6.974   5.472  0.8418  0.3373  0.2938
  719MOL0     O96989   6.315   7.062   5.370 -0.0613 -0.1120  0.5189
  719MOL0     C96990   6.402   7.179   5.361 -0.3520  0.9589 -0.0726
  719MOL0     C96991   6.353   7.242   5.237 -0.2248  0.6710 -0.1608
  719MOL0     C96992   6.204   7.284   5.249  0.3879  0.5163  1.2808
  719MOL0     C96993   6.169   7.384   5.362 -0.0066 -0.1567  0.3309
  719MOL0     C96994   6.257   7.499   5.351  0.8771 -0.7332  0.1907
  719MOL0     C96995   6.328   7.595   5.342 -0.3956 -0.8387  0.3814
  719MOL0     C96996   6.238   6.903   5.524 -0.0440  0.1233  0.8216
  719MOL0     C96997   6.258   6.802   5.626 -0.9482  0.4196  0.0236
  719MOL0     H96998   6.184   6.393   5.779 -0.5761  0.1598 -0.6088
  719MOL0     H96999   6.217   6.191   5.894 -1.5717 -0.1158  0.9859
  719MOL0     H97000   6.458   5.970   6.120 -1.9260 -1.4188 -1.8276
  719MOL0     H97001   6.447   6.045   5.968  1.4513 -0.8651  0.5122
  719MOL0     H97002   6.674   6.079   6.057  1.1465  1.0760  0.4087
  719MOL0     H97003   6.589   6.239   6.053 -1.2538 -0.7082 -2.4861
  719MOL0     H97004   6.536   6.166   6.303 -0.2751 -1.0652 -1.1337
  719MOL0     H97005   6.664   6.042   6.281  1.2566 -0.8621 -1.2234
  719MOL0     H97006   6.838   6.190   6.217  1.6259  3.9297 -0.1410
  719MOL0     H97007   6.729   6.327   6.220  2.0915 -0.1799 -1.5990
  719MOL0     H97008   6.701   6.299   6.467  0.2890  0.9778 -0.0654
  719MOL0     H97009   6.802   6.167   6.469 -2.7740  0.5348  2.8351
  719MOL0     H97010   7.001   6.324   6.360 -1.0769  2.0075 -2.0777
  719MOL0     H97011   6.887   6.449   6.415 -1.0145 -0.5240  1.4469
  719MOL0     H97012   7.035   6.429   6.605  1.3188  1.9362 -2.2890
  719MOL0     H97013   6.888   6.350   6.644  0.2290  4.5114 -0.1885
  719MOL0     H97014   7.132   6.218   6.513 -0.5829  1.3914  0.3271
  719MOL0     H97015   6.989   6.129   6.586 -0.9393  1.0590 -2.1829
  719MOL0     H97016   7.297   6.338   6.693 -2.7010 -0.3722 -0.0890
  719MOL0     H97017   7.388   6.254   7.066 -0.2357 -0.8248 -0.1543
  719MOL0     H97018   7.476   6.172   6.961 -1.4834 -0.4060  2.2601
  719MOL0     H97019   7.397   6.470   6.927 -0.8022 -0.0048  0.4009
  719MOL0     H97020   7.514   6.393   6.825  1.9953 -1.0340  0.9424
  719MOL0     H97021   7.565   6.373   7.123  0.1373 -1.5131 -0.2600
  719MOL0     H97022   7.584   6.531   7.045  1.6519 -0.0370 -1.4233
  719MOL0     H97023   7.754   6.442   6.894  1.2479  2.2067  1.1496
  719MOL0     H97024   7.720   6.274   6.960 -3.1501  0.6112  0.2704
  719MOL0     H97025   7.954   6.363   6.863 -1.6908 -0.6393  1.0686
  719MOL0     H97026   8.221   6.469   6.748  0.7992 -0.2345 -1.8104
  719MOL0     H97027   8.328   6.336   6.801 -0.4198 -0.7962  0.8116
  719MOL0     H97028   8.176   6.295   6.739  0.5386 -0.1256 -0.0243
  719MOL0     H97029   8.633   6.348   6.991 -2.6690 -0.3883  2.3243
  719MOL0     H97030   8.885   6.346   7.007 -0.0069 -0.3925  0.9950
  719MOL0     H97031   9.105   6.345   7.073  0.7695  0.3340  0.5219
  719MOL0     H97032   9.074   6.518   7.027  0.7426 -0.5699 -1.7284
  719MOL0     H97033   9.296   6.514   7.043  2.7396 -1.0649  0.9393
  719MOL0     H97034   9.273   6.557   7.218 -0.4215 -0.8495  1.5080
  719MOL0     H97035   9.315   6.265   7.116  2.0315  0.2140 -0.7688
  719MOL0     H97036   9.289   6.325   7.280 -1.2326  1.5811 -0.5689
  719MOL0     H97037   9.516   6.353   7.095 -2.2551  0.4271 -0.0648
  719MOL0     H97038   9.508   6.475   7.204  0.0660  0.0792 -2.0663
  719MOL0     H97039   9.487   6.296   7.414  0.1665  0.6549  0.2385
  719MOL0     H97040   9.638   6.329   7.331 -0.1904 -0.6388  0.6039
  719MOL0     H97041   9.454   6.098   7.239  0.0846 -0.0974  2.6702
  719MOL0     H97042   9.618   6.139   7.180  1.7099 -0.4171 -0.0845
  719MOL0     H97043   9.594   5.952   7.370 -2.1152 -0.0828 -0.7827
  719MOL0     H97044   9.566   6.082   7.481 -0.8070 -2.1739 -0.2247
  719MOL0     H97045   9.796   6.047   7.506 -3.0882  1.3185  1.8569
  719MOL0     H97046   9.787   6.187   7.399 -1.2172 -0.0654 -5.0819
  719MOL0     H97047   8.843   6.524   7.384 -0.2273 -0.8771  0.3941
  719MOL0     H97048   8.602   6.520   7.380 -0.7560 -0.4929  0.0382
  719MOL0     H97049   8.213   6.417   7.277  0.6690 -1.4465 -0.6453
  719MOL0     H97050   7.991   6.440   7.282 -3.7686  1.6009 -0.6093
  719MOL0     H97051   6.429   6.389   6.211 -0.4632 -1.5185  0.3021
  719MOL0     H97052   6.398   6.613   6.095 -0.3142  0.2239 -0.0205
  719MOL0     H97053   6.588   6.830   5.672  0.5639  1.3802  0.1741
  719MOL0     H97054   6.564   6.992   5.496 -0.6106  2.7148  2.2352
  719MOL0     H97055   6.393   7.236   5.454  1.8716  1.3758 -0.0640
  719MOL0     H97056   6.507   7.159   5.337 -0.6658  2.9114 -3.6168
  719MOL0     H97057   6.371   7.162   5.164  0.3010 -3.6057  4.1422
  719MOL0     H97058   6.415   7.323   5.199  1.9809 -1.6358 -1.7463
  719MOL0     H97059   6.135   7.199   5.252 -1.5593  2.0020  0.5441
  719MOL0     H97060   6.189   7.329   5.151  0.4268 -2.7644 -0.3846
  719MOL0     H97061   6.178   7.335   5.459  2.8484 -0.3394  0.0795
  719MOL0     H97062   6.069   7.426   5.351  0.7777  2.4413  2.1416
  719MOL0     H97063   6.392   7.681   5.354 -2.9610  1.1734  0.4322
  719MOL0     H97064   6.138   6.918   5.484  1.2622 -0.1199 -2.9302
  719MOL0     H97065   6.177   6.747   5.672 -2.0748 -1.3833 -3.7745
  720MOL0     O97066   8.974   6.239   7.522 -0.5181  0.1928  0.7067
  720MOL0     C97067   8.881   6.180   7.581 -0.4110 -0.0342  1.1866
  720MOL0     O97068   8.876   6.154   7.716 -0.2723  0.2360 -0.9440
  720MOL0     C97069   8.960   6.223   7.798  0.4806 -0.2072 -0.5249
  720MOL0     C97070   9.051   6.165   7.876 -0.0983  0.0053  0.0967
  720MOL0     C97071   9.130   6.243   7.960 -0.9930 -0.5955 -0.0887
  720MOL0     C97072   9.130   6.383   7.967  0.7483 -0.2330  0.3230
  720MOL0     O97073   9.218   6.455   8.048 -0.1615 -0.8443 -0.1483
  720MOL0     C97074   9.222   6.603   8.043  0.1565 -0.6558 -0.0353
  720MOL0     C97075   9.339   6.671   8.126  0.2320  0.4319 -0.5709
  720MOL0     C97076   9.488   6.631   8.087 -0.6358  0.3586 -0.3411
  720MOL0     C97077   9.507   6.477   8.058 -1.2754  0.3072  0.1272
  720MOL0     C97078   9.653   6.433   8.041  0.2118  0.2943 -0.1673
  720MOL0     C97079   9.641   6.283   8.057  0.6715  0.9352 -0.3092
  720MOL0     C97080   9.558   6.205   7.955 -0.2255  0.4389 -0.0857
  720MOL0     C97081   9.621   6.209   7.810  0.8361  0.5835 -1.4010
  720MOL0     N97082   9.581   6.325   7.732  0.3133 -0.1633  0.4059
  720MOL0     C97083   9.452   6.368   7.694 -0.7566  1.5710 -0.1106
  720MOL0     C97084   9.474   6.463   7.607  0.1224 -0.5665  0.7061
  720MOL0     C97085   9.381   6.563   7.547 -0.0282  0.6218 -0.6320
  720MOL0     C97086   9.232   6.528   7.571  0.0869 -0.2443  0.5686
  720MOL0     C97087   9.119   6.612   7.495 -0.8120  0.5122  0.3818
  720MOL0     C97088   9.126   6.762   7.523 -0.5916 -0.1891  0.1404
  720MOL0     O97089   9.120   6.790   7.663 -1.0921 -0.3641 -0.1650
  720MOL0     C97090   8.997   6.791   7.731 -0.7175  1.0355  0.0321
  720MOL0     C97091   8.876   6.750   7.677  0.1989 -0.7512 -0.1938
  720MOL0     C97092   8.750   6.744   7.747  0.4647  0.8296 -0.2484
  720MOL0     C97093   8.629   6.696   7.670  0.2402 -0.0107  0.0097
  720MOL0     C97094   8.755   6.782   7.883  0.1688 -0.1586  0.1086
  720MOL0     C97095   8.636   6.799   7.972  0.2654  0.1576 -0.0434
  720MOL0     O97096   8.650   6.750   8.098  0.2310  0.3419 -0.2881
  720MOL0     C97097   8.544   6.699   8.159  1.0303 -0.4475  0.3839
  720MOL0     C97098   8.477   6.779   8.250 -0.8869 -0.4888 -0.7572
  720MOL0     C97099   8.381   6.727   8.342 -0.2093  0.6628 -0.3259
  720MOL0     C97100   8.333   6.596   8.309 -0.1434  0.5916 -0.0721
  720MOL0     O97101   8.223   6.544   8.379  0.2247  0.7654  0.0331
  720MOL0     C97102   8.152   6.419   8.349 -0.5692  0.5136 -0.0559
  720MOL0     C97103   8.076   6.415   8.220 -0.5335 -0.4124 -0.1435
  720MOL0     C97104   7.993   6.291   8.211  0.7865  0.5517 -0.4088
  720MOL0     C97105   7.959   6.251   8.059  0.3640  0.1970  0.2355
  720MOL0     C97106   7.919   6.102   8.043 -0.9500  0.3502 -0.1144
  720MOL0     C97107   7.800   6.060   8.129 -0.3122 -0.7654  0.3824
  720MOL0     C97108   7.743   5.926   8.098  0.0517  0.6703  0.3135
  720MOL0     C97109   7.594   5.906   8.108  0.8611  0.4003 -0.5358
  720MOL0    Cl97110   7.498   6.017   8.010 -0.2038  0.4334 -0.0264
  720MOL0     C97111   8.388   6.526   8.201  0.5609 -0.1384 -0.4621
  720MOL0     C97112   8.493   6.577   8.125  0.0270 -1.1607 -0.6667
  720MOL0     O97113   8.535   6.860   7.928 -0.6450 -0.1235 -0.8139
  720MOL0     C97114   8.880   6.821   7.943  0.1935  0.0765  0.1547
  720MOL0     C97115   9.000   6.824   7.862  0.3288 -0.1269 -0.0582
  720MOL0     N97116   9.614   6.485   7.588 -0.1866  0.6341 -0.1913
  720MOL0     N97117   9.668   6.392   7.657 -0.3248 -0.2190 -0.3517
  720MOL0     C97118   9.034   6.448   7.884  0.5687  0.2700 -0.2184
  720MOL0     C97119   8.948   6.363   7.800  0.0264 -0.0889  0.2735
  720MOL0     C97120   8.775   6.127   7.498 -0.9892  0.0991 -0.5645
  720MOL0     C97121   8.645   6.146   7.528 -0.9952  0.2421 -0.3452
  720MOL0     C97122   8.549   6.117   7.426  0.8424 -0.0155  0.0197
  720MOL0     C97123   8.585   6.053   7.306  0.0901 -0.9339 -0.6744
  720MOL0     O97124   8.498   6.029   7.206  0.0069 -0.3002 -0.2806
  720MOL0     C97125   8.355   6.049   7.229 -0.0963  1.1204  0.0150
  720MOL0     C97126   8.278   6.028   7.105  0.5385 -0.2097 -0.3120
  720MOL0     C97127   8.126   6.041   7.150  0.4250 -0.4765 -0.3715
  720MOL0     C97128   8.027   6.018   7.035  0.7460  0.4823  0.3024
  720MOL0     C97129   7.940   5.902   7.053  0.5462  0.3944  0.6252
  720MOL0     C97130   7.856   5.817   7.066  0.2799 -0.4848 -0.4137
  720MOL0     C97131   8.715   6.029   7.281 -0.3921  0.5516  0.2925
  720MOL0     C97132   8.813   6.065   7.377 -0.2671  0.1048  0.6882
  720MOL0     H97133   9.056   6.056   7.867 -0.6444  0.1156 -2.3726
  720MOL0     H97134   9.188   6.194   8.038 -1.4150  1.4696  1.6078
  720MOL0     H97135   9.222   6.633   7.938 -1.3143 -1.0112 -0.1607
  720MOL0     H97136   9.125   6.636   8.083  0.9272  2.2998 -0.3572
  720MOL0     H97137   9.334   6.780   8.111 -2.8351  0.1982 -1.8468
  720MOL0     H97138   9.320   6.644   8.231 -1.4073 -1.0612 -1.2102
  720MOL0     H97139   9.511   6.681   7.992  0.5108 -3.7401 -2.4650
  720MOL0     H97140   9.556   6.675   8.161  0.8745 -1.7296 -0.3945
  720MOL0     H97141   9.459   6.440   8.149 -1.2726  0.1780  0.0764
  720MOL0     H97142   9.439   6.450   7.976 -0.2691 -0.5714 -0.4301
  720MOL0     H97143   9.706   6.463   7.950 -0.7140  1.3405 -0.3794
  720MOL0     H97144   9.726   6.472   8.113 -0.7821  2.5261 -0.2714
  720MOL0     H97145   9.739   6.236   8.048 -0.4002 -0.9807 -3.7756
  720MOL0     H97146   9.607   6.265   8.160  0.6415  0.9576 -0.3153
  720MOL0     H97147   9.553   6.101   7.990  0.6134 -0.2520 -1.9147
  720MOL0     H97148   9.455   6.244   7.950  0.0497  0.9606 -2.6065
  720MOL0     H97149   9.585   6.117   7.763  0.8535  0.7000 -1.6406
  720MOL0     H97150   9.727   6.201   7.833  0.3141  2.3005  2.4123
  720MOL0     H97151   9.359   6.327   7.731 -0.7806  1.4091 -0.3489
  720MOL0     H97152   9.410   6.664   7.578 -2.2366  0.4156  2.4590
  720MOL0     H97153   9.383   6.558   7.438 -1.0182  0.2991 -0.6398
  720MOL0     H97154   9.226   6.536   7.680 -1.8488 -1.2097  0.5763
  720MOL0     H97155   9.218   6.421   7.555  1.3761 -0.4101  0.4083
  720MOL0     H97156   9.024   6.568   7.527  0.5013 -0.4801  3.2292
  720MOL0     H97157   9.123   6.599   7.386 -1.1963  2.3002  0.1213
  720MOL0     H97158   9.046   6.806   7.463 -1.3238 -5.1150 -3.0874
  720MOL0     H97159   9.222   6.807   7.496  2.6358 -3.0804  5.1870
  720MOL0     H97160   8.863   6.721   7.573  1.2131 -1.1980 -0.2070
  720MOL0     H97161   8.615   6.592   7.701  3.1689 -0.8404 -1.0501
  720MOL0     H97162   8.544   6.763   7.685  1.1213  1.3185 -0.7322
  720MOL0     H97163   8.650   6.694   7.562 -1.9930  0.9930 -0.4839
  720MOL0     H97164   8.517   6.875   8.280 -1.8082 -0.8990  2.0748
  720MOL0     H97165   8.334   6.789   8.417 -2.3529 -1.3920  0.1629
  720MOL0     H97166   8.220   6.333   8.346 -0.8069  0.2867  0.8996
  720MOL0     H97167   8.080   6.391   8.426 -1.6856  0.0775 -1.2232
  720MOL0     H97168   8.011   6.503   8.219  1.9486  1.5394 -0.2302
  720MOL0     H97169   8.137   6.418   8.130 -2.5170 -1.0712 -1.5894
  720MOL0     H97170   7.896   6.300   8.259  1.0565  0.1182  0.2165
  720MOL0     H97171   8.052   6.206   8.246 -1.3494 -0.5440  0.6496
  720MOL0     H97172   7.873   6.305   8.018 -1.9586 -4.4432 -1.7291
  720MOL0     H97173   8.049   6.265   7.997 -0.2742  1.8239 -0.3840
  720MOL0     H97174   8.002   6.041   8.081 -2.6564 -0.2773  2.9154
  720MOL0     H97175   7.898   6.082   7.938  0.0468  4.4438 -1.3094
  720MOL0     H97176   7.825   6.063   8.236 -0.6073  1.7944  0.4339
  720MOL0     H97177   7.724   6.135   8.107  0.5689 -0.5159 -2.2329
  720MOL0     H97178   7.791   5.841   8.148  0.5930 -1.0108 -2.8053
  720MOL0     H97179   7.755   5.905   7.991 -2.1638 -1.1327  0.3466
  720MOL0     H97180   7.584   5.928   8.215  0.9287  1.5457 -0.7504
  720MOL0     H97181   7.584   5.801   8.078  1.4440  0.2530 -0.2459
  720MOL0     H97182   8.346   6.431   8.170 -2.9289  1.2849 -0.5804
  720MOL0     H97183   8.529   6.525   8.036  1.7950 -3.1793  1.1246
  720MOL0     H97184   8.892   6.862   8.043  2.0303 -1.7764  0.7740
  720MOL0     H97185   9.091   6.872   7.895 -1.1899  2.4686  0.6328
  720MOL0     H97186   9.027   6.556   7.879  2.2790  0.5881  2.2502
  720MOL0     H97187   8.869   6.402   7.736  1.4149  0.9645 -0.8731
  720MOL0     H97188   8.606   6.185   7.621 -2.5608 -1.0578 -0.4100
  720MOL0     H97189   8.447   6.151   7.441  1.9247  2.9362  1.6851
  720MOL0     H97190   8.321   5.973   7.301  3.1453  0.7498  1.3493
  720MOL0     H97191   8.336   6.143   7.281  0.6142 -0.1749  2.8120
  720MOL0     H97192   8.298   5.933   7.056 -4.4871 -1.1007 -1.1149
  720MOL0     H97193   8.304   6.112   7.040  2.1924  2.0241  2.9508
  720MOL0     H97194   8.111   6.136   7.202 -1.1221 -0.9940  0.1692
  720MOL0     H97195   8.103   5.964   7.224  4.3059 -0.0053  1.5841
  720MOL0     H97196   8.078   5.993   6.942  0.5627 -2.2525  0.8538
  720MOL0     H97197   7.967   6.109   7.024 -0.4056  0.1104  2.7733
  720MOL0     H97198   7.775   5.747   7.074  1.3818 -1.6109  2.4355
  720MOL0     H97199   8.748   5.986   7.186 -1.9352  0.7165 -0.3424
  720MOL0     H97200   8.920   6.066   7.362 -0.2431  2.1271  0.6591
  721MOL0     O97201  10.418   2.961  11.478 -0.8259  0.3208  0.2681
  721MOL0     C97202  10.527   2.918  11.438 -0.6502  0.9252 -0.3752
  721MOL0     O97203  10.596   2.821  11.508 -0.6439  0.1740 -0.3595
  721MOL0     C97204  10.535   2.781  11.622  0.6893 -1.0036  0.0744
  721MOL0     C97205  10.415   2.709  11.630 -1.1362  0.5989 -0.2388
  721MOL0     C97206  10.356   2.670  11.752  0.9453  0.3694 -0.4174
  721MOL0     C97207  10.420   2.701  11.870 -0.2895  0.4296 -0.2002
  721MOL0     O97208  10.380   2.652  11.986  1.1620 -0.0641  0.7116
  721MOL0     C97209  10.444   2.674  12.115  0.1214 -0.2995  0.9767
  721MOL0     C97210  10.329   2.637  12.217 -0.2480 -0.0469  0.9092
  721MOL0     C97211  10.376   2.630  12.364  0.2075 -0.0835  1.1870
  721MOL0     C97212  10.290   2.711  12.463 -0.9917 -0.0260 -0.0823
  721MOL0     C97213  10.286   2.864  12.448  0.1991  0.6050  0.6309
  721MOL0     C97214  10.184   2.935  12.547 -0.0248 -0.3468 -0.1349
  721MOL0     C97215  10.161   3.077  12.506  0.3603  0.3048  0.5366
  721MOL0     C97216  10.109   3.167  12.618 -0.1876  0.4565 -0.6366
  721MOL0     N97217  10.082   3.300  12.551  1.2464 -0.1390  0.0560
  721MOL0     C97218  10.169   3.400  12.545  0.4487 -0.3480  0.1596
  721MOL0     C97219  10.116   3.495  12.462 -0.9621  0.0081 -0.2214
  721MOL0     C97220  10.162   3.632  12.423  0.5180  0.2901 -0.6976
  721MOL0     C97221  10.095   3.747  12.504 -0.2463  0.5139  0.5578
  721MOL0     C97222  10.120   3.890  12.455 -0.2456  0.1706 -0.5051
  721MOL0     C97223  10.016   3.971  12.536 -0.2350 -0.3919  0.3722
  721MOL0     O97224  10.005   4.106  12.479 -1.0325 -0.1418 -0.8901
  721MOL0     C97225   9.933   4.198  12.547  0.3762  0.6241  0.4152
  721MOL0     C97226   9.801   4.233  12.511  0.0856  0.5381  0.0826
  721MOL0     C97227   9.725   4.317  12.594  0.3281 -0.2185  0.9442
  721MOL0     C97228   9.581   4.330  12.542  0.2142 -0.2252  0.2268
  721MOL0     C97229   9.784   4.374  12.707  0.0843  0.1073  0.1349
  721MOL0     C97230   9.718   4.463  12.808  1.0021 -0.5550 -0.1790
  721MOL0     O97231   9.593   4.508  12.793  0.2398 -0.0028 -0.5108
  721MOL0     C97232   9.547   4.618  12.857  0.3819 -0.5641  0.3617
  721MOL0     C97233   9.607   4.750  12.838 -0.0967  0.0220 -0.6186
  721MOL0     C97234   9.547   4.870  12.893  0.4413 -0.1393  0.5561
  721MOL0     C97235   9.422   4.853  12.960 -0.7596 -1.1940  0.7634
  721MOL0     O97236   9.366   4.966  13.025  0.0851 -1.0910  0.2932
  721MOL0     C97237   9.319   5.070  12.942 -1.2305 -0.8035 -0.3747
  721MOL0     C97238   9.236   5.166  13.028 -0.4025 -0.2269 -0.8539
  721MOL0     C97239   9.298   5.219  13.159 -0.2449 -0.7242  0.6709
  721MOL0     C97240   9.409   5.317  13.120  0.0473 -0.2107 -0.4431
  721MOL0     C97241   9.423   5.408  13.244 -0.7851 -0.2585 -0.3161
  721MOL0     C97242   9.320   5.519  13.253  0.1630  0.2420 -0.1030
  721MOL0     C97243   9.334   5.615  13.375  0.3419  0.1482  0.5172
  721MOL0     C97244   9.245   5.738  13.379  0.3519 -0.6123  0.3019
  721MOL0    Cl97245   9.248   5.822  13.538  0.3724  0.0545 -0.2812
  721MOL0     C97246   9.368   4.724  12.977 -0.1276 -0.7856 -0.7692
  721MOL0     C97247   9.427   4.619  12.928 -1.1568  0.4529  0.6821
  721MOL0     O97248   9.782   4.499  12.898  0.8175 -0.2972  0.8285
  721MOL0     C97249   9.925   4.345  12.731  0.5958 -0.4496  0.4189
  721MOL0     C97250   9.994   4.262  12.651  0.4033  0.1321  0.8140
  721MOL0     N97251   9.996   3.450  12.416  0.8002  0.2572 -0.5770
  721MOL0     N97252   9.972   3.340  12.476 -0.0547 -0.2846  0.2756
  721MOL0     C97253  10.530   2.789  11.858 -0.0618 -0.2113  1.1530
  721MOL0     C97254  10.595   2.815  11.738 -0.7028 -0.4745  0.2207
  721MOL0     C97255  10.577   2.970  11.312  0.0225 -0.0455 -0.1405
  721MOL0     C97256  10.532   3.091  11.267 -0.1546  0.2121 -0.1926
  721MOL0     C97257  10.585   3.147  11.153  0.1245 -0.4230  0.4515
  721MOL0     C97258  10.685   3.081  11.088  0.2081 -0.1570  0.5016
  721MOL0     O97259  10.732   3.139  10.973 -0.1431 -0.5805  0.1481
  721MOL0     C97260  10.857   3.094  10.921  0.5239 -0.7938  0.4590
  721MOL0     C97261  10.900   3.173  10.793  0.0488 -0.3224  0.9047
  721MOL0     C97262  10.914   3.323  10.832  0.0829 -0.2652 -0.3675
  721MOL0     C97263  10.902   3.408  10.709 -0.6629  0.1699  0.5081
  721MOL0     C97264  10.988   3.374  10.589  0.0632  0.4896  0.1423
  721MOL0     C97265  11.060   3.346  10.496 -0.3744  0.2454  0.3399
  721MOL0     C97266  10.737   2.955  11.139  0.2195 -0.2134 -0.3839
  721MOL0     C97267  10.683   2.903  11.257  0.1227 -0.5679  0.5017
  721MOL0     H97268  10.372   2.688  11.533  0.2075  2.1194 -1.2202
  721MOL0     H97269  10.262   2.617  11.753  1.4019 -0.6735 -3.3689
  721MOL0     H97270  10.523   2.599  12.121 -0.9923 -1.6206 -0.1779
  721MOL0     H97271  10.467   2.781  12.122  1.3057 -0.5766  1.4656
  721MOL0     H97272  10.246   2.707  12.208 -1.3267 -1.4046 -0.4771
  721MOL0     H97273  10.292   2.536  12.192 -0.1552 -0.2356  1.5229
  721MOL0     H97274  10.360   2.528  12.401  2.7081 -1.2875 -0.7517
  721MOL0     H97275  10.480   2.663  12.366  0.7014 -1.5713  0.7937
  721MOL0     H97276  10.193   2.663  12.448 -0.6848 -0.3585 -1.0770
  721MOL0     H97277  10.314   2.692  12.567  1.8533 -1.3142 -0.8733
  721MOL0     H97278  10.389   2.896  12.465  0.7781 -1.8034  2.1029
  721MOL0     H97279  10.260   2.886  12.344  1.4074  1.3043  0.4649
  721MOL0     H97280  10.089   2.882  12.538  0.2345 -0.8237 -0.1036
  721MOL0     H97281  10.236   2.924  12.643  0.9566 -0.9397 -0.7220
  721MOL0     H97282  10.250   3.125  12.462 -1.1511  1.1220 -1.8900
  721MOL0     H97283  10.092   3.083  12.421  1.4311  2.3129 -0.2848
  721MOL0     H97284  10.181   3.166  12.701 -0.4693 -0.8173 -0.3860
  721MOL0     H97285  10.023   3.127  12.673 -1.1547 -0.6063 -2.7714
  721MOL0     H97286  10.266   3.395  12.594  1.0132 -2.4360 -1.0211
  721MOL0     H97287  10.270   3.641  12.442  0.5789  0.6753 -1.1843
  721MOL0     H97288  10.136   3.642  12.317  2.9983 -2.6481 -1.7158
  721MOL0     H97289  10.133   3.739  12.607  0.0928  0.0016  0.3979
  721MOL0     H97290   9.986   3.734  12.511  0.1061 -2.8104  1.3316
  721MOL0     H97291  10.100   3.908  12.349 -0.0767  0.2342 -0.5260
  721MOL0     H97292  10.223   3.926  12.467 -1.1441  2.7605  0.0986
  721MOL0     H97293  10.056   3.981  12.637 -0.2106 -0.6720  0.3911
  721MOL0     H97294   9.923   3.913  12.541  0.6652 -2.1458 -1.5703
  721MOL0     H97295   9.755   4.159  12.446  0.4672 -0.6408  1.1127
  721MOL0     H97296   9.583   4.369  12.439  0.8611  1.7202  0.9272
  721MOL0     H97297   9.533   4.233  12.559  0.7538 -0.0692  3.0465
  721MOL0     H97298   9.525   4.400  12.604 -4.1096 -3.0354 -0.0669
  721MOL0     H97299   9.697   4.747  12.777 -0.8539 -2.0743 -1.7350
  721MOL0     H97300   9.602   4.963  12.885  1.0868 -0.5951 -0.5463
  721MOL0     H97301   9.399   5.128  12.896 -1.0592  0.0234  0.9191
  721MOL0     H97302   9.260   5.023  12.863  0.7224 -1.4977 -1.5192
  721MOL0     H97303   9.210   5.253  12.967  3.1708 -0.8059 -3.5398
  721MOL0     H97304   9.155   5.110  13.076  4.0931 -3.4971  4.0724
  721MOL0     H97305   9.356   5.147  13.217  2.7064  0.2962 -0.7644
  721MOL0     H97306   9.217   5.266  13.216 -0.0299  1.1719 -0.4898
  721MOL0     H97307   9.508   5.274  13.105  0.4891 -0.8566  3.3482
  721MOL0     H97308   9.388   5.385  13.037 -1.2869 -0.0869 -0.0247
  721MOL0     H97309   9.523   5.451  13.233 -1.1534  0.3151 -1.6925
  721MOL0     H97310   9.419   5.346  13.334  2.2510 -2.3897 -1.5124
  721MOL0     H97311   9.318   5.572  13.157  1.6199  2.4871  1.0119
  721MOL0     H97312   9.223   5.470  13.269 -0.0600  0.7205  0.0326
  721MOL0     H97313   9.436   5.652  13.386 -0.2092  1.9978 -0.2030
  721MOL0     H97314   9.302   5.559  13.463  0.4940 -0.9383 -0.1031
  721MOL0     H97315   9.142   5.700  13.374  0.1326 -0.9092  4.1303
  721MOL0     H97316   9.270   5.807  13.298  2.4100 -1.6994 -0.0671
  721MOL0     H97317   9.281   4.704  13.039  1.2162 -1.0110  1.1260
  721MOL0     H97318   9.382   4.525  12.957 -0.0812  0.3966  2.3282
  721MOL0     H97319   9.978   4.372  12.821 -0.5589  1.2233  0.6370
  721MOL0     H97320  10.100   4.243  12.667  0.1991  0.8576  3.4725
  721MOL0     H97321  10.583   2.816  11.949  1.0894 -1.5111  0.8983
  721MOL0     H97322  10.686   2.867  11.766 -0.6562 -0.2747 -0.2897
  721MOL0     H97323  10.450   3.145  11.312  0.3838 -0.3592  1.5675
  721MOL0     H97324  10.548   3.242  11.115  0.8731  0.4109  1.7280
  721MOL0     H97325  10.938   3.097  10.995  2.0670 -0.9642 -1.1633
  721MOL0     H97326  10.856   2.990  10.887  0.1673 -0.2226 -1.3845
  721MOL0     H97327  10.826   3.163  10.713  0.0532 -0.4610  0.9185
  721MOL0     H97328  11.000   3.143  10.758 -0.3669  1.4103 -2.0785
  721MOL0     H97329  11.012   3.336  10.879 -0.1709  0.6206 -0.0762
  721MOL0     H97330  10.839   3.348  10.907  0.3920 -0.3247 -0.0369
  721MOL0     H97331  10.908   3.515  10.732  1.9685  0.4381 -0.9551
  721MOL0     H97332  10.804   3.388  10.664  1.3973 -2.1095 -3.5720
  721MOL0     H97333  11.127   3.324  10.415  0.4145 -0.8984  1.2668
  721MOL0     H97334  10.815   2.903  11.085  0.2711  2.4691 -3.2436
  721MOL0     H97335  10.710   2.807  11.300  1.1852 -0.1747  0.7343
  722MOL0     O97336   2.837   2.282   7.116  0.5574 -0.0680  0.4032
  722MOL0     C97337   2.748   2.197   7.101  0.1510  1.2430  0.7163
  722MOL0     O97338   2.642   2.202   7.019  0.1807  0.8113 -0.2960
  722MOL0     C97339   2.629   2.302   6.933  0.1268  0.4931 -0.3868
  722MOL0     C97340   2.731   2.349   6.857  0.3508  0.3481 -0.3329
  722MOL0     C97341   2.702   2.434   6.750 -0.9093  1.3129  0.7574
  722MOL0     C97342   2.578   2.487   6.724 -0.2031  0.8156 -0.3443
  722MOL0     O97343   2.535   2.582   6.642 -1.1694 -0.4881 -0.3830
  722MOL0     C97344   2.624   2.610   6.537 -0.5363  0.5021 -0.5264
  722MOL0     C97345   2.552   2.693   6.426  0.1647 -0.6658 -0.3967
  722MOL0     C97346   2.503   2.842   6.457  0.5671 -0.0764  0.4805
  722MOL0     C97347   2.358   2.867   6.514 -0.2597  0.0778  0.0308
  722MOL0     C97348   2.243   2.857   6.407 -1.2947 -0.9805 -0.3774
  722MOL0     C97349   2.213   2.719   6.341  0.0839 -0.3975  0.8928
  722MOL0     C97350   2.174   2.615   6.439 -0.5462  0.1249 -0.4893
  722MOL0     C97351   2.147   2.477   6.378  0.1086 -0.4154 -0.1358
  722MOL0     N97352   2.260   2.384   6.385  0.2727  0.1911  0.7064
  722MOL0     C97353   2.325   2.346   6.498 -0.8227 -0.3883 -0.5188
  722MOL0     C97354   2.428   2.270   6.444  0.3829 -0.0905  1.1303
  722MOL0     C97355   2.519   2.182   6.518  0.4381  0.1425  0.9280
  722MOL0     C97356   2.484   2.034   6.506 -0.7001  0.2664 -0.1351
  722MOL0     C97357   2.567   1.947   6.606  0.7828 -0.2526 -0.6110
  722MOL0     C97358   2.572   1.808   6.549 -0.7922 -0.4502  0.5291
  722MOL0     O97359   2.437   1.758   6.552  0.1841  0.2944  0.1974
  722MOL0     C97360   2.413   1.631   6.491 -0.2815 -0.8368  0.5904
  722MOL0     C97361   2.309   1.547   6.534 -0.3966 -0.0203  0.2694
  722MOL0     C97362   2.267   1.438   6.463 -0.4740  0.5883 -0.3744
  722MOL0     C97363   2.135   1.372   6.497  0.4145 -0.2032  1.6164
  722MOL0     C97364   2.330   1.401   6.348  0.1874  0.4877  0.4989
  722MOL0     C97365   2.286   1.274   6.267 -0.1339 -0.0380  0.0798
  722MOL0     O97366   2.216   1.185   6.323 -0.1043 -0.4683 -0.0477
  722MOL0     C97367   2.185   1.067   6.259  0.8070 -0.3138 -0.6518
  722MOL0     C97368   2.065   1.033   6.194  0.1143 -0.0567 -0.1875
  722MOL0     C97369   2.047   0.913   6.128 -0.2118  0.0811 -0.1966
  722MOL0     C97370   2.151   0.822   6.122  0.3988  0.5637  0.4932
  722MOL0     O97371   2.124   0.717   6.045  0.0035 -0.2005  0.3235
  722MOL0     C97372   2.224   0.650   5.966  0.3058 -0.1569  0.5439
  722MOL0     C97373   2.293   0.737   5.857 -0.6036 -0.0260  0.6515
  722MOL0     C97374   2.429   0.677   5.801  0.9009 -0.1382 -0.8332
  722MOL0     C97375   2.402   0.593   5.677 -1.5097 -0.3749 -0.2357
  722MOL0     C97376   2.406   0.442   5.717 -0.5043  0.0362 -0.7656
  722MOL0     C97377   2.353   0.377   5.584 -0.5880 -0.3484  0.1914
  722MOL0     C97378   2.382   0.229   5.577  0.3839  0.2156 -0.1654
  722MOL0     C97379   2.317   0.169   5.457  0.7094  0.5685 -0.4808
  722MOL0    Cl97380   2.141   0.145   5.497 -0.1835 -0.2796  0.4601
  722MOL0     C97381   2.275   0.851   6.186  0.4167 -0.3406  0.4154
  722MOL0     C97382   2.293   0.970   6.254  0.3606 -0.2558  1.4742
  722MOL0     O97383   2.319   1.260   6.147  0.3366 -0.5081 -0.3811
  722MOL0     C97384   2.427   1.482   6.293  0.1053  0.0309 -0.5821
  722MOL0     C97385   2.464   1.602   6.363  0.6079 -0.2448  1.0008
  722MOL0     N97386   2.426   2.274   6.301  0.0257  0.1194 -0.1426
  722MOL0     N97387   2.325   2.354   6.271 -0.1943  0.7537 -0.5865
  722MOL0     C97388   2.476   2.448   6.800  0.1895 -0.5076 -0.0510
  722MOL0     C97389   2.505   2.354   6.911 -0.2574 -0.4498  0.3303
  722MOL0     C97390   2.762   2.080   7.195  0.0726 -0.3281  0.6634
  722MOL0     C97391   2.874   2.048   7.269  0.6046  0.2272 -0.0768
  722MOL0     C97392   2.878   1.913   7.316  0.8962  0.4682  0.0412
  722MOL0     C97393   2.767   1.826   7.320 -0.2645  0.5644  0.1809
  722MOL0     O97394   2.781   1.699   7.382  0.5522  0.1124 -0.7672
  722MOL0     C97395   2.664   1.663   7.452  0.2130  0.5613 -0.2574
  722MOL0     C97396   2.692   1.557   7.566  0.1374  0.1206  1.3388
  722MOL0     C97397   2.781   1.446   7.509  0.3385 -1.2743  0.0085
  722MOL0     C97398   2.852   1.370   7.624 -0.0730 -0.6625 -0.2524
  722MOL0     C97399   2.762   1.316   7.718 -0.3919 -0.5159  0.0575
  722MOL0     C97400   2.700   1.264   7.806  0.2743 -0.1875  0.3763
  722MOL0     C97401   2.651   1.876   7.253 -0.6236  0.8374  0.5219
  722MOL0     C97402   2.652   1.990   7.192 -0.0118 -0.1429  1.1043
  722MOL0     H97403   2.833   2.313   6.867 -0.6917 -2.3535  2.1974
  722MOL0     H97404   2.790   2.458   6.691  1.8148 -2.3211  2.9307
  722MOL0     H97405   2.710   2.662   6.579 -1.0078 -2.4648  4.9767
  722MOL0     H97406   2.659   2.516   6.493  1.9232  1.6415 -1.1624
  722MOL0     H97407   2.626   2.711   6.349 -0.1095  1.5230 -0.2008
  722MOL0     H97408   2.472   2.629   6.386 -0.3386 -1.1579  1.2784
  722MOL0     H97409   2.578   2.874   6.529 -1.6746 -0.2725  3.0906
  722MOL0     H97410   2.522   2.914   6.377 -0.3587  1.4618  1.5936
  722MOL0     H97411   2.340   2.804   6.602 -0.8540  2.5917  1.8269
  722MOL0     H97412   2.360   2.968   6.557 -0.8542 -0.8913  2.5347
  722MOL0     H97413   2.160   2.882   6.473 -1.0123  0.6794 -0.6102
  722MOL0     H97414   2.246   2.937   6.333 -1.8597 -0.0319  0.5964
  722MOL0     H97415   2.129   2.743   6.276 -0.5338 -1.8438  1.1281
  722MOL0     H97416   2.296   2.691   6.275  1.3632  2.7148  0.9816
  722MOL0     H97417   2.237   2.614   6.528  0.9406 -0.3337 -1.5113
  722MOL0     H97418   2.079   2.650   6.482 -0.4723 -0.9310  0.5997
  722MOL0     H97419   2.117   2.484   6.273  2.0303 -0.7292 -0.7496
  722MOL0     H97420   2.062   2.439   6.436 -0.4748  2.5426  1.0923
  722MOL0     H97421   2.305   2.357   6.604  1.9325  2.3123 -0.1593
  722MOL0     H97422   2.620   2.203   6.481 -0.9711  1.1212 -2.7963
  722MOL0     H97423   2.516   2.214   6.623 -2.9893 -2.7980  1.9242
  722MOL0     H97424   2.509   1.994   6.407  0.6493 -0.8799  0.6192
  722MOL0     H97425   2.379   2.013   6.527 -0.3978  0.6100  1.9054
  722MOL0     H97426   2.504   1.947   6.695 -0.1295 -0.4714 -1.2393
  722MOL0     H97427   2.662   2.000   6.618 -0.6292  2.8266 -1.9647
  722MOL0     H97428   2.644   1.735   6.586 -0.0609 -0.4295 -0.7903
  722MOL0     H97429   2.606   1.822   6.446 -2.1776  0.2527  0.1347
  722MOL0     H97430   2.246   1.579   6.617 -0.9670 -1.7898  0.5600
  722MOL0     H97431   2.091   1.427   6.580 -0.0189  1.1653  0.5190
  722MOL0     H97432   2.074   1.387   6.408  0.3098 -0.7916  1.5888
  722MOL0     H97433   2.145   1.266   6.523 -0.8832 -0.1780  2.2642
  722MOL0     H97434   1.985   1.105   6.195  2.2808  2.5193 -1.1707
  722MOL0     H97435   1.954   0.895   6.075 -1.7116  1.7027  1.7680
  722MOL0     H97436   2.285   0.600   6.042  0.9632  0.3226  0.3493
  722MOL0     H97437   2.180   0.567   5.911  1.7526  0.4286 -1.6230
  722MOL0     H97438   2.228   0.759   5.772  1.4818  0.6762 -0.8320
  722MOL0     H97439   2.325   0.830   5.904  5.6106 -2.0833  1.3841
  722MOL0     H97440   2.483   0.620   5.877  0.3015 -0.9944 -1.0444
  722MOL0     H97441   2.485   0.767   5.772 -0.6407  1.7461  1.5844
  722MOL0     H97442   2.304   0.623   5.638 -1.6998  2.6428  2.1214
  722MOL0     H97443   2.472   0.611   5.595 -1.2442 -3.3417 -0.7518
  722MOL0     H97444   2.335   0.422   5.798  2.8635 -4.8246  1.4331
  722MOL0     H97445   2.507   0.405   5.734  0.1485  1.9868 -0.0656
  722MOL0     H97446   2.247   0.401   5.576  0.1587  3.8939  0.8677
  722MOL0     H97447   2.409   0.427   5.505 -3.8304  1.4197 -1.1683
  722MOL0     H97448   2.329   0.193   5.666  1.2160  0.3175  0.3911
  722MOL0     H97449   2.491   0.227   5.583  0.6495  3.4334 -1.9710
  722MOL0     H97450   2.351   0.066   5.446 -0.4647  0.2018 -0.8293
  722MOL0     H97451   2.328   0.226   5.364  1.8544  1.3979  0.1386
  722MOL0     H97452   2.344   0.768   6.180  0.0531 -0.6405  0.3232
  722MOL0     H97453   2.391   0.994   6.295  0.1091  2.3892  0.6894
  722MOL0     H97454   2.462   1.467   6.191  3.8665  3.7634 -0.1365
  722MOL0     H97455   2.528   1.667   6.304  2.5091 -0.2598  2.9528
  722MOL0     H97456   2.374   2.482   6.789 -0.1331 -1.6868 -0.9981
  722MOL0     H97457   2.419   2.324   6.969  2.0731 -0.9242  3.8815
  722MOL0     H97458   2.960   2.113   7.276 -0.4163  1.5280  0.7021
  722MOL0     H97459   2.960   1.895   7.385 -0.1394 -2.2905  0.6581
  722MOL0     H97460   2.619   1.753   7.495 -0.3666 -0.0706  0.5018
  722MOL0     H97461   2.589   1.615   7.388 -1.1541 -1.2188  2.4663
  722MOL0     H97462   2.598   1.528   7.615  0.0327  2.2773  2.5549
  722MOL0     H97463   2.751   1.614   7.639 -0.0204  1.4375  0.4598
  722MOL0     H97464   2.852   1.492   7.440 -1.5886  0.0123 -1.2124
  722MOL0     H97465   2.725   1.386   7.436  1.5136  1.5774 -3.5407
  722MOL0     H97466   2.919   1.432   7.684 -0.0853  0.0380 -0.9510
  722MOL0     H97467   2.912   1.287   7.588 -0.2593 -0.8708 -0.0824
  722MOL0     H97468   2.644   1.210   7.879 -1.2966  0.3704 -0.3855
  722MOL0     H97469   2.571   1.802   7.245  1.1124 -1.0552 -0.3317
  722MOL0     H97470   2.556   2.019   7.150  0.3493 -1.9432 -1.2054
  723MOL0     O97471   6.555   2.538   2.109 -0.0492  0.0816 -0.2026
  723MOL0     C97472   6.553   2.516   1.990 -0.3491  0.1546  0.5403
  723MOL0     O97473   6.615   2.601   1.893 -0.2330  0.4981 -0.0730
  723MOL0     C97474   6.679   2.717   1.921 -0.8198 -0.6811 -0.3719
  723MOL0     C97475   6.620   2.830   1.870 -0.9271 -0.0781  0.3056
  723MOL0     C97476   6.667   2.957   1.901 -0.9966  0.0824  0.6592
  723MOL0     C97477   6.783   2.964   1.981 -0.2897  0.1509  0.0252
  723MOL0     O97478   6.830   3.091   2.001 -0.3019  0.4911  0.3782
  723MOL0     C97479   6.973   3.104   1.980 -0.2571  0.3010  0.0522
  723MOL0     C97480   7.047   3.135   2.103 -0.0698  0.0469 -1.0000
  723MOL0     C97481   7.019   3.271   2.156 -0.7295  0.6518 -0.3590
  723MOL0     C97482   7.084   3.282   2.298 -0.4810  0.3035  0.7254
  723MOL0     C97483   7.082   3.433   2.341  0.2420 -1.1232 -0.4798
  723MOL0     C97484   7.145   3.463   2.472  0.3419  0.0397 -0.2181
  723MOL0     C97485   7.065   3.417   2.594  0.0891 -0.7745 -0.0031
  723MOL0     C97486   7.126   3.466   2.731 -0.5670  0.6629  0.4882
  723MOL0     N97487   7.273   3.441   2.731  0.8923 -0.9979 -0.2341
  723MOL0     C97488   7.344   3.336   2.686 -0.1440 -0.3896  0.2980
  723MOL0     C97489   7.469   3.355   2.743  0.1873  0.1615 -0.3695
  723MOL0     C97490   7.592   3.258   2.721  0.1162  0.2949  0.6831
  723MOL0     C97491   7.571   3.115   2.754 -0.2196  0.9806  0.5789
  723MOL0     C97492   7.568   3.092   2.912  1.1931 -0.5532  0.9602
  723MOL0     C97493   7.453   2.995   2.948 -0.2832  0.3261  0.5494
  723MOL0     O97494   7.331   3.072   2.926  0.0023  0.0085 -0.5261
  723MOL0     C97495   7.215   3.008   2.938  0.6253  0.5165  0.2714
  723MOL0     C97496   7.194   2.870   2.972 -0.4158  0.5952  0.3580
  723MOL0     C97497   7.064   2.822   2.974 -0.6300  0.7890 -0.5588
  723MOL0     C97498   7.049   2.676   3.006  0.7642 -0.0090 -0.7641
  723MOL0     C97499   6.954   2.900   2.951  0.0898  0.5486  0.3195
  723MOL0     C97500   6.805   2.848   2.940  0.4475  0.0159 -0.0018
  723MOL0     O97501   6.716   2.907   2.852  1.1119 -0.1079  0.4293
  723MOL0     C97502   6.591   2.850   2.835 -0.9308  0.3692 -0.0804
  723MOL0     C97503   6.505   2.833   2.939 -0.3427 -0.3772 -0.3099
  723MOL0     C97504   6.377   2.777   2.921  0.2620 -0.1773 -0.1966
  723MOL0     C97505   6.344   2.734   2.796 -0.7377  0.2952 -0.3182
  723MOL0     O97506   6.224   2.681   2.758  0.3405 -0.3228 -0.1033
  723MOL0     C97507   6.137   2.633   2.863 -0.4069  0.1065  0.3327
  723MOL0     C97508   6.079   2.501   2.822 -0.9401 -0.8015 -0.2412
  723MOL0     C97509   5.965   2.525   2.733 -0.1189 -0.6041 -0.3990
  723MOL0     C97510   5.894   2.404   2.679  0.3177  0.3591  0.3298
  723MOL0     C97511   5.867   2.297   2.797  0.0398  0.1283 -0.0777
  723MOL0     C97512   5.784   2.179   2.753 -0.2063  0.2660  0.4295
  723MOL0     C97513   5.871   2.092   2.662 -0.6414  0.1669  0.3735
  723MOL0     C97514   5.834   1.943   2.658  0.7807  0.0850  0.3095
  723MOL0    Cl97515   5.658   1.945   2.623 -0.0807  0.3075 -0.2329
  723MOL0     C97516   6.434   2.747   2.690 -0.1069 -0.1511 -0.0367
  723MOL0     C97517   6.566   2.806   2.711  0.6483 -0.4534  1.5453
  723MOL0     O97518   6.775   2.756   3.010 -0.4178 -0.3715  0.2085
  723MOL0     C97519   6.969   3.038   2.926 -0.0231  0.2664  0.2392
  723MOL0     C97520   7.101   3.086   2.912 -0.0692 -0.0303  0.0853
  723MOL0     N97521   7.471   3.467   2.821 -0.2635 -0.4630  0.5608
  723MOL0     N97522   7.357   3.523   2.809  0.6592  0.4770 -0.0697
  723MOL0     C97523   6.851   2.849   2.035  0.6214 -0.0906 -0.5972
  723MOL0     C97524   6.790   2.728   2.001  0.5473  0.3532  0.0487
  723MOL0     C97525   6.493   2.380   1.946 -1.1749 -0.7391  0.0568
  723MOL0     C97526   6.486   2.340   1.811 -0.5313  1.0549 -0.7841
  723MOL0     C97527   6.418   2.225   1.782  0.7039  0.7307 -0.1630
  723MOL0     C97528   6.359   2.149   1.879  1.1267 -0.4103 -0.0598
  723MOL0     O97529   6.278   2.036   1.867  0.0357 -0.4521 -0.8329
  723MOL0     C97530   6.202   2.016   1.748  0.9778 -0.1758 -0.4685
  723MOL0     C97531   6.070   2.110   1.755 -0.5921  0.3602 -0.2195
  723MOL0     C97532   5.945   2.038   1.821  0.4031  0.2620  1.0652
  723MOL0     C97533   5.961   1.965   1.953 -0.0998 -0.3092  1.2980
  723MOL0     C97534   5.933   2.046   2.072 -0.5236  0.0760  0.2158
  723MOL0     C97535   5.937   2.117   2.170  1.1557  0.8682 -1.0276
  723MOL0     C97536   6.384   2.178   2.010  0.1551 -0.4354  0.2879
  723MOL0     C97537   6.437   2.297   2.041 -0.0968  0.0277 -0.6095
  723MOL0     H97538   6.529   2.824   1.810 -1.3862 -0.2320  1.0090
  723MOL0     H97539   6.613   3.045   1.866 -2.9520 -0.9798  0.8719
  723MOL0     H97540   7.023   3.018   1.934 -0.1291  0.6500 -0.4735
  723MOL0     H97541   6.976   3.176   1.898 -2.5078 -1.2098 -1.4670
  723MOL0     H97542   7.015   3.067   2.182 -1.4819  2.3950  0.5636
  723MOL0     H97543   7.154   3.124   2.083  0.4828  1.2827  0.9601
  723MOL0     H97544   7.066   3.340   2.085  2.2676 -2.4605 -1.6925
  723MOL0     H97545   6.912   3.292   2.159 -1.0205 -0.4770 -1.6722
  723MOL0     H97546   7.028   3.216   2.364  0.6325 -3.8141 -2.0443
  723MOL0     H97547   7.184   3.238   2.310 -0.4579 -0.3169 -1.3748
  723MOL0     H97548   7.135   3.488   2.263  0.2583 -1.0496 -0.4163
  723MOL0     H97549   6.976   3.459   2.350  0.4328  0.0293 -1.4049
  723MOL0     H97550   7.246   3.421   2.474  0.2585 -0.1953  2.0568
  723MOL0     H97551   7.168   3.568   2.493  1.3573 -0.3335  0.6506
  723MOL0     H97552   6.962   3.453   2.595 -0.4289 -2.1750  0.0018
  723MOL0     H97553   7.057   3.308   2.585 -1.4764 -0.6261 -0.8046
  723MOL0     H97554   7.078   3.414   2.814 -4.6056  4.4801  0.9332
  723MOL0     H97555   7.101   3.572   2.743 -3.7296  0.3378 -1.8198
  723MOL0     H97556   7.323   3.250   2.623 -1.5087 -0.7404  1.1863
  723MOL0     H97557   7.625   3.252   2.617  3.2125 -0.3851  1.5991
  723MOL0     H97558   7.674   3.302   2.778 -0.1778  0.3363  1.0835
  723MOL0     H97559   7.659   3.061   2.718  1.1478  4.3949 -1.6902
  723MOL0     H97560   7.490   3.065   2.701 -1.7934 -1.0007  4.4439
  723MOL0     H97561   7.555   3.188   2.963  1.1271  1.3174 -2.2993
  723MOL0     H97562   7.662   3.038   2.927  2.7708  1.2441 -1.5153
  723MOL0     H97563   7.470   2.962   3.051  1.1215 -0.3946  0.1037
  723MOL0     H97564   7.466   2.908   2.883  0.7849 -1.1273  2.5778
  723MOL0     H97565   7.282   2.815   3.002 -1.6739  0.3293  4.1594
  723MOL0     H97566   6.985   2.669   3.094  1.3737 -0.5633 -0.3555
  723MOL0     H97567   7.003   2.625   2.921  1.0101  1.1319 -1.6095
  723MOL0     H97568   7.137   2.622   3.042 -0.5158 -3.0087 -1.8099
  723MOL0     H97569   6.536   2.870   3.036 -0.7188 -1.3339  0.1964
  723MOL0     H97570   6.306   2.787   3.003 -0.2439 -1.9677 -0.3827
  723MOL0     H97571   6.189   2.629   2.960  2.5586  3.6487 -0.8428
  723MOL0     H97572   6.051   2.698   2.880  0.9821  2.1192  0.0814
  723MOL0     H97573   6.157   2.435   2.782 -1.2566 -1.9815  1.0039
  723MOL0     H97574   6.049   2.467   2.922  1.4364  1.5048  1.3870
  723MOL0     H97575   6.007   2.581   2.649 -0.2928  1.0934  0.5984
  723MOL0     H97576   5.896   2.589   2.788  2.6600  2.9444 -0.6832
  723MOL0     H97577   5.796   2.431   2.637  0.9611  3.4578  0.5682
  723MOL0     H97578   5.944   2.345   2.602  0.8280  0.7396  0.3685
  723MOL0     H97579   5.813   2.356   2.871  2.1651 -0.3008  1.9355
  723MOL0     H97580   5.964   2.268   2.839  0.8629 -1.1457 -2.6331
  723MOL0     H97581   5.752   2.137   2.849 -1.6104  2.8786  1.1871
  723MOL0     H97582   5.693   2.217   2.707  1.3279  3.8234 -0.0072
  723MOL0     H97583   5.974   2.094   2.700 -0.6367 -1.3085  0.4970
  723MOL0     H97584   5.856   2.135   2.563  0.8050  0.2381  0.1561
  723MOL0     H97585   5.855   1.893   2.752  0.4831 -1.1055 -0.2327
  723MOL0     H97586   5.887   1.887   2.580  1.3631 -1.9207  2.0782
  723MOL0     H97587   6.416   2.705   2.591  0.9974 -0.3879 -0.1544
  723MOL0     H97588   6.629   2.800   2.622 -2.9731 -0.6572 -1.2538
  723MOL0     H97589   6.886   3.107   2.914  0.4889  0.8554  0.0613
  723MOL0     H97590   7.102   3.185   2.867 -0.7954  0.4055  1.0133
  723MOL0     H97591   6.941   2.854   2.095  0.8297 -2.5220 -0.6118
  723MOL0     H97592   6.832   2.644   2.056  0.5072  1.5801  2.0551
  723MOL0     H97593   6.528   2.400   1.731 -0.9073 -0.6931 -2.3647
  723MOL0     H97594   6.412   2.183   1.682 -3.6830 -0.9364  0.5559
  723MOL0     H97595   6.255   2.040   1.655 -0.1094  3.5788 -0.2696
  723MOL0     H97596   6.167   1.912   1.746 -2.7770  0.8686  1.9829
  723MOL0     H97597   6.038   2.134   1.653 -1.2183  1.2548  0.1655
  723MOL0     H97598   6.100   2.204   1.804 -0.0487  0.3562 -0.5347
  723MOL0     H97599   5.907   1.957   1.758  0.8394 -0.8448  2.1766
  723MOL0     H97600   5.867   2.114   1.826 -0.3194 -0.2105 -1.4969
  723MOL0     H97601   6.063   1.928   1.964  0.2101 -0.1703 -0.7591
  723MOL0     H97602   5.893   1.879   1.954  0.2719 -0.6001  1.5986
  723MOL0     H97603   5.929   2.181   2.255 -5.5503  0.7622 -1.0867
  723MOL0     H97604   6.335   2.122   2.089  3.4213 -3.5105  0.4104
  723MOL0     H97605   6.444   2.323   2.146 -1.8615 -0.1147 -0.4266
  724MOL0     O97606   3.123   6.153   5.346  0.0649  0.3643  0.7125
  724MOL0     C97607   3.124   6.256   5.415 -0.2377  0.5221  0.2182
  724MOL0     O97608   3.010   6.314   5.470  0.8125  0.5105  0.0777
  724MOL0     C97609   2.894   6.238   5.444 -0.1573  0.0726  0.8523
  724MOL0     C97610   2.875   6.105   5.494 -0.1789 -0.0527  0.4371
  724MOL0     C97611   2.766   6.028   5.446 -0.3766  0.0601 -0.1343
  724MOL0     C97612   2.674   6.084   5.350 -0.4401 -0.3411  0.3153
  724MOL0     O97613   2.572   6.002   5.313  0.6010  1.1462  0.1514
  724MOL0     C97614   2.441   6.061   5.293  0.8419  0.6180  0.0407
  724MOL0     C97615   2.377   6.088   5.428  0.0975  0.3341 -1.0631
  724MOL0     C97616   2.226   6.136   5.408 -0.5144 -0.0504 -0.3419
  724MOL0     C97617   2.162   6.148   5.549 -0.0087  0.1615 -0.4615
  724MOL0     C97618   2.006   6.164   5.529  0.0062  0.0370  0.1047
  724MOL0     C97619   1.956   6.196   5.673  1.3960  0.2898 -0.0168
  724MOL0     C97620   1.985   6.096   5.790 -1.1578  0.3560 -0.3041
  724MOL0     C97621   1.934   6.152   5.922 -0.8747 -0.7764 -1.0108
  724MOL0     N97622   2.026   6.264   5.977  0.2421 -0.5733 -0.3384
  724MOL0     C97623   1.978   6.392   6.003  0.2099 -0.2908  0.0354
  724MOL0     C97624   2.070   6.444   6.088  0.4903 -0.2878 -0.5364
  724MOL0     C97625   2.092   6.579   6.162  0.3524 -0.3920 -0.2396
  724MOL0     C97626   1.968   6.665   6.193 -0.2223 -0.7165  0.7871
  724MOL0     C97627   1.848   6.581   6.234  0.2696 -0.2220 -0.5600
  724MOL0     C97628   1.864   6.508   6.372 -0.5549 -0.4333 -0.4213
  724MOL0     O97629   1.748   6.511   6.453  0.1718  0.1506 -0.0318
  724MOL0     C97630   1.662   6.395   6.440 -0.4570 -0.0334 -0.2424
  724MOL0     C97631   1.539   6.400   6.382  0.0179 -0.0104  0.2309
  724MOL0     C97632   1.444   6.293   6.395 -0.3055 -0.5616 -0.5884
  724MOL0     C97633   1.310   6.303   6.315  0.7628  0.3979 -0.2089
  724MOL0     C97634   1.488   6.177   6.470 -0.6908  0.2769 -0.1952
  724MOL0     C97635   1.417   6.042   6.481  0.1052  0.4068  0.5159
  724MOL0     O97636   1.298   6.044   6.424  0.1202 -0.2527 -0.1401
  724MOL0     C97637   1.214   5.934   6.411  0.3510  0.3651  0.0382
  724MOL0     C97638   1.246   5.834   6.320  0.6788  0.0353  0.3412
  724MOL0     C97639   1.167   5.714   6.317  1.0240  0.1727  0.5717
  724MOL0     C97640   1.061   5.695   6.398  0.2984  0.2344  0.0182
  724MOL0     O97641   0.982   5.584   6.386 -0.2081 -1.1148 -0.0800
  724MOL0     C97642   0.864   5.558   6.475 -1.0758 -0.2441 -0.1230
  724MOL0     C97643   0.817   5.412   6.450  1.0052 -0.4106  0.9026
  724MOL0     C97644   0.932   5.313   6.489 -0.1190  0.3396  0.0762
  724MOL0     C97645   0.913   5.295   6.638  0.7968 -0.5257  1.2518
  724MOL0     C97646   1.037   5.238   6.694 -0.6447  0.3843 -0.4554
  724MOL0     C97647   1.027   5.201   6.836 -0.5362 -0.4194 -0.5712
  724MOL0     C97648   0.921   5.095   6.864  0.2053 -0.2287 -0.6861
  724MOL0     C97649   0.994   4.964   6.834  1.0509 -0.2151 -0.4657
  724MOL0    Cl97650   1.148   4.928   6.921  0.0486 -0.0912  0.5009
  724MOL0     C97651   1.023   5.797   6.487  0.0974 -0.4375 -0.3936
  724MOL0     C97652   1.107   5.912   6.495  0.2928 -0.1868 -0.5314
  724MOL0     O97653   1.477   5.949   6.532 -0.1893  0.3845 -0.0860
  724MOL0     C97654   1.609   6.179   6.523  0.5499 -0.3234 -0.5370
  724MOL0     C97655   1.699   6.280   6.505  0.9081 -0.1251 -0.0576
  724MOL0     N97656   2.172   6.356   6.109  0.4885 -0.5181  0.2174
  724MOL0     N97657   2.135   6.241   6.056 -0.3722 -0.3876  0.2741
  724MOL0     C97658   2.695   6.209   5.303 -0.3225 -0.2979  0.3603
  724MOL0     C97659   2.805   6.280   5.343  0.2517  0.7810  0.9202
  724MOL0     C97660   3.249   6.323   5.426 -0.7760  0.2387  0.9957
  724MOL0     C97661   3.369   6.263   5.382 -0.4104 -0.1854  0.0834
  724MOL0     C97662   3.499   6.324   5.402 -0.6260  0.4725 -0.7118
  724MOL0     C97663   3.509   6.435   5.482  0.2903 -0.5178  0.4209
  724MOL0     O97664   3.629   6.500   5.511 -0.1530  0.3226 -0.3009
  724MOL0     C97665   3.746   6.442   5.455  0.9792  0.6201 -0.3652
  724MOL0     C97666   3.873   6.526   5.457  0.4064  0.6173 -0.1170
  724MOL0     C97667   4.003   6.442   5.439  0.1714  0.2688  1.7424
  724MOL0     C97668   4.145   6.510   5.460  0.0453  0.4884  0.6805
  724MOL0     C97669   4.161   6.571   5.595 -0.0729 -0.2701 -0.3852
  724MOL0     C97670   4.183   6.627   5.702 -0.2302  0.4171  0.0034
  724MOL0     C97671   3.394   6.491   5.535  0.2097 -0.7354 -0.2830
  724MOL0     C97672   3.265   6.440   5.503 -0.3634  0.4073  0.2957
  724MOL0     H97673   2.940   6.063   5.570  0.2645  0.3861  0.3024
  724MOL0     H97674   2.741   5.932   5.491 -2.1949  0.6997  0.3127
  724MOL0     H97675   2.431   6.143   5.222 -0.9521 -1.4557 -2.2568
  724MOL0     H97676   2.384   5.981   5.244  4.6284 -2.0495 -0.4643
  724MOL0     H97677   2.380   5.999   5.491 -2.0624 -0.6271 -2.2126
  724MOL0     H97678   2.414   6.177   5.480 -3.6760  1.5456 -0.1333
  724MOL0     H97679   2.222   6.225   5.344  1.0488 -1.8274 -3.1634
  724MOL0     H97680   2.168   6.068   5.344 -1.5196  1.9969 -1.7290
  724MOL0     H97681   2.189   6.064   5.613  0.1813  1.0033  0.5828
  724MOL0     H97682   2.201   6.235   5.602 -0.2545 -0.6620  1.1173
  724MOL0     H97683   1.978   6.246   5.462 -1.8037  0.5791  1.4597
  724MOL0     H97684   1.951   6.074   5.501 -0.1341 -0.1953  1.0794
  724MOL0     H97685   1.977   6.299   5.704  2.9439  0.5373 -1.6848
  724MOL0     H97686   1.847   6.187   5.668  0.4837  5.6990  2.6789
  724MOL0     H97687   1.935   6.001   5.768  0.3280  0.1024 -3.0046
  724MOL0     H97688   2.092   6.078   5.806 -1.6979 -2.3085  0.8243
  724MOL0     H97689   1.941   6.078   6.002  1.2761  2.7822  2.4376
  724MOL0     H97690   1.828   6.178   5.910 -0.2401  1.1042 -3.1499
  724MOL0     H97691   1.889   6.442   5.966  1.1117 -0.1088 -2.0561
  724MOL0     H97692   2.150   6.571   6.255  1.3545  5.4915  0.0253
  724MOL0     H97693   2.157   6.638   6.097  1.1610  2.9203  3.2212
  724MOL0     H97694   1.926   6.718   6.107 -1.2169  0.0305  1.7078
  724MOL0     H97695   1.991   6.741   6.268 -0.8606 -0.5495  0.8195
  724MOL0     H97696   1.802   6.519   6.156  0.3566 -1.8600  0.6489
  724MOL0     H97697   1.778   6.662   6.253 -0.5312 -1.3723  1.6921
  724MOL0     H97698   1.937   6.569   6.426 -1.6977 -0.0013  0.7051
  724MOL0     H97699   1.908   6.408   6.371 -1.8014 -1.0670  1.6198
  724MOL0     H97700   1.505   6.484   6.323 -4.9215 -1.6774  0.2024
  724MOL0     H97701   1.238   6.322   6.395  1.7244  0.2188  0.7202
  724MOL0     H97702   1.289   6.390   6.252 -1.5570  0.2586  0.2873
  724MOL0     H97703   1.281   6.220   6.250  0.0124 -0.8016  1.5891
  724MOL0     H97704   1.334   5.850   6.258 -0.8292  2.1438 -1.3991
  724MOL0     H97705   1.199   5.633   6.251  0.2824  0.7491 -0.5374
  724MOL0     H97706   0.889   5.581   6.579  1.2515  3.9307 -1.3795
  724MOL0     H97707   0.778   5.621   6.451 -1.8593 -1.3095 -0.1917
  724MOL0     H97708   0.719   5.396   6.496 -0.1278 -0.2357 -1.3165
  724MOL0     H97709   0.791   5.397   6.345  1.0243  0.6517  0.7337
  724MOL0     H97710   1.037   5.341   6.479  0.8277 -0.4510  5.1201
  724MOL0     H97711   0.914   5.220   6.434  1.6791  0.8029 -1.3980
  724MOL0     H97712   0.890   5.389   6.688  0.0005  0.3842 -0.7375
  724MOL0     H97713   0.819   5.241   6.654 -0.5251  0.9353 -1.0840
  724MOL0     H97714   1.106   5.322   6.681 -0.4329  0.5649  1.4987
  724MOL0     H97715   1.069   5.154   6.630 -0.7093  1.0547 -1.3800
  724MOL0     H97716   1.126   5.171   6.872 -0.0416  1.5337 -0.2184
  724MOL0     H97717   0.992   5.292   6.886 -1.4351  0.6581 -3.0107
  724MOL0     H97718   0.834   5.102   6.798 -0.9947  0.0670  0.8648
  724MOL0     H97719   0.889   5.104   6.968  1.4525 -0.1795 -0.2912
  724MOL0     H97720   1.026   4.965   6.729  1.8661 -1.2041 -0.2419
  724MOL0     H97721   0.936   4.872   6.848  2.5561 -0.9988  1.0076
  724MOL0     H97722   0.940   5.789   6.556  0.7649  0.4467  0.5395
  724MOL0     H97723   1.085   5.984   6.574 -0.0748 -2.8005  1.9435
  724MOL0     H97724   1.650   6.105   6.591 -2.0545  1.6127  3.4698
  724MOL0     H97725   1.795   6.279   6.556  0.3552  1.1669  1.0382
  724MOL0     H97726   2.646   6.250   5.215 -1.5354  0.6083  1.4100
  724MOL0     H97727   2.807   6.370   5.282 -4.2429 -0.8318 -2.1070
  724MOL0     H97728   3.367   6.167   5.331 -0.2924 -0.6334  0.9006
  724MOL0     H97729   3.585   6.267   5.367 -1.0126 -0.7209  0.2028
  724MOL0     H97730   3.769   6.341   5.492  0.0779 -0.6903 -3.1053
  724MOL0     H97731   3.746   6.421   5.347  2.4471 -2.0723  0.0547
  724MOL0     H97732   3.881   6.562   5.560  3.0176  0.5085 -0.2215
  724MOL0     H97733   3.866   6.615   5.395  2.2819  1.3501  0.6531
  724MOL0     H97734   4.001   6.402   5.337  1.2623  1.2509  1.3056
  724MOL0     H97735   3.990   6.354   5.502 -4.0884  1.1831  2.4414
  724MOL0     H97736   4.168   6.578   5.378 -2.7842 -0.2658 -0.8826
  724MOL0     H97737   4.210   6.423   5.456  0.5785  0.9286 -1.0313
  724MOL0     H97738   4.204   6.671   5.797  0.5508 -1.3162  0.6521
  724MOL0     H97739   3.401   6.567   5.612  2.0696 -2.0904  0.9847
  724MOL0     H97740   3.180   6.499   5.536 -2.4098 -1.5555 -1.1941
  725MOL0     O97741   1.315   9.412   6.043 -0.1291  0.0598  0.1046
  725MOL0     C97742   1.329   9.288   6.026  0.1934 -0.0691 -1.5367
  725MOL0     O97743   1.230   9.199   5.986 -0.3449 -0.1080  0.9628
  725MOL0     C97744   1.096   9.205   6.011 -0.8332 -0.1264 -0.2081
  725MOL0     C97745   1.043   9.287   6.114  0.2421  0.6404 -0.3058
  725MOL0     C97746   0.904   9.290   6.144  0.3107 -0.1948  0.7340
  725MOL0     C97747   0.814   9.206   6.071 -0.0075 -0.3653 -0.0447
  725MOL0     O97748   0.682   9.209   6.112 -0.7140 -0.0354  0.1373
  725MOL0     C97749   0.595   9.102   6.063  0.1388  1.3020  0.3667
  725MOL0     C97750   0.459   9.109   6.117 -0.9009 -0.7059 -0.2798
  725MOL0     C97751   0.456   9.097   6.267  0.3880  1.0045 -0.0801
  725MOL0     C97752   0.314   9.118   6.326 -0.2127 -0.4030 -0.2069
  725MOL0     C97753   0.335   9.138   6.471  1.1181 -0.0994 -0.2861
  725MOL0     C97754   0.196   9.155   6.536 -0.1621  0.5598  0.0662
  725MOL0     C97755   0.178   9.161   6.695 -0.2819  0.4573  0.2498
  725MOL0     C97756   0.037   9.194   6.750 -0.1942 -0.5750 -1.4536
  725MOL0     N97757  -0.080   9.200   6.656 -0.1399 -0.8206  0.2578
  725MOL0     C97758  -0.111   9.107   6.561  0.1581  0.4981  0.4027
  725MOL0     C97759  -0.227   9.153   6.508 -0.0097  0.2272  0.1158
  725MOL0     C97760  -0.310   9.087   6.398 -0.3666 -0.2578  0.5569
  725MOL0     C97761  -0.356   8.942   6.418 -0.0141 -0.5723  0.0011
  725MOL0     C97762  -0.462   8.912   6.513 -0.1020  1.2011  0.4514
  725MOL0     C97763  -0.601   8.979   6.493 -0.5247  0.2740  0.2313
  725MOL0     O97764  -0.660   8.955   6.360 -0.1294 -0.1529 -0.5926
  725MOL0     C97765  -0.762   9.044   6.340  0.4721  0.1775  0.2366
  725MOL0     C97766  -0.871   9.050   6.414  0.7272 -0.3449  0.2621
  725MOL0     C97767  -0.984   9.112   6.370  0.3229 -0.0411  1.1822
  725MOL0     C97768  -1.094   9.119   6.480  0.0087  0.4090  0.8894
  725MOL0     C97769  -0.995   9.176   6.247  0.2914  0.0405  0.5859
  725MOL0     C97770  -1.122   9.232   6.186  0.4400  0.1413 -0.6699
  725MOL0     O97771  -1.095   9.304   6.071 -0.7903 -0.6765  0.5945
  725MOL0     C97772  -1.197   9.373   6.011 -0.5781  0.3251  0.5468
  725MOL0     C97773  -1.203   9.339   5.871  0.0264 -0.4904  0.5143
  725MOL0     C97774  -1.310   9.381   5.791 -0.0527 -0.5866 -0.3619
  725MOL0     C97775  -1.403   9.460   5.844 -0.7681 -0.5438 -0.2068
  725MOL0     O97776  -1.478   9.517   5.749 -1.1600 -0.2578  0.2292
  725MOL0     C97777  -1.615   9.537   5.783 -0.3606  0.2805  0.0997
  725MOL0     C97778  -1.682   9.624   5.674 -1.0172  0.1709 -0.4353
  725MOL0     C97779  -1.689   9.568   5.539  0.5153  1.1140  0.6738
  725MOL0     C97780  -1.791   9.442   5.521  0.6254 -0.2755  0.2583
  725MOL0     C97781  -1.803   9.391   5.379 -0.7403 -0.1235  0.1246
  725MOL0     C97782  -1.845   9.252   5.371 -0.8241 -0.9138 -0.6771
  725MOL0     C97783  -1.979   9.218   5.446  0.5923 -1.2524  0.2927
  725MOL0     C97784  -2.056   9.115   5.350 -0.7667 -0.5631 -0.7553
  725MOL0    Cl97785  -2.182   9.181   5.253 -0.3512  0.1417 -0.3468
  725MOL0     C97786  -1.401   9.499   5.976 -0.1593 -0.3595 -0.1848
  725MOL0     C97787  -1.303   9.455   6.066 -0.2236  1.1137  1.0467
  725MOL0     O97788  -1.233   9.195   6.220  0.5544  0.2926 -0.7339
  725MOL0     C97789  -0.873   9.176   6.179  0.8033 -0.3774  0.2609
  725MOL0     C97790  -0.765   9.101   6.214 -0.0616 -0.4998  0.7217
  725MOL0     N97791  -0.266   9.271   6.580 -0.3220  0.1551 -1.0829
  725MOL0     N97792  -0.163   9.306   6.652 -0.5986  0.0658  0.0941
  725MOL0     C97793   0.866   9.127   5.967  0.3129 -0.4607  0.5159
  725MOL0     C97794   1.004   9.123   5.942 -0.2157  0.3749 -0.1482
  725MOL0     C97795   1.464   9.228   6.044  0.4972  0.1934 -0.1347
  725MOL0     C97796   1.576   9.311   6.063 -0.0483 -0.1267 -0.2977
  725MOL0     C97797   1.703   9.250   6.075 -0.9477 -0.5941  0.6709
  725MOL0     C97798   1.723   9.113   6.055  0.0260  0.5699 -0.2521
  725MOL0     O97799   1.859   9.065   6.053  0.5330 -0.6331 -0.6666
  725MOL0     C97800   1.879   8.925   6.034 -0.5019  0.3036  0.2280
  725MOL0     C97801   2.024   8.895   6.052 -0.2348 -0.3461 -0.9726
  725MOL0     C97802   2.111   8.971   5.953  1.2617  0.7263 -0.4275
  725MOL0     C97803   2.102   8.909   5.816  0.1210  0.7469  0.2975
  725MOL0     C97804   2.188   8.972   5.726  0.8381  0.2498  0.0410
  725MOL0     C97805   2.248   9.032   5.642  0.3397 -0.0105  0.1591
  725MOL0     C97806   1.614   9.028   6.042 -0.3516 -0.7933  0.6849
  725MOL0     C97807   1.488   9.086   6.038 -0.3120 -0.7604 -0.1097
  725MOL0     H97808   1.109   9.353   6.170 -1.3583  1.6611  0.4276
  725MOL0     H97809   0.857   9.352   6.219 -2.7078 -0.4156 -0.8153
  725MOL0     H97810   0.592   9.106   5.954 -2.5382 -2.6248  0.1177
  725MOL0     H97811   0.635   9.002   6.078  1.0233  1.6956  0.7222
  725MOL0     H97812   0.420   9.208   6.093 -0.0124  1.4717  5.6665
  725MOL0     H97813   0.395   9.036   6.066 -0.5781 -1.0261 -0.2339
  725MOL0     H97814   0.502   9.000   6.287 -0.2107  0.5082 -1.0544
  725MOL0     H97815   0.526   9.168   6.312  0.1472  1.8240 -0.9779
  725MOL0     H97816   0.263   9.201   6.276 -3.1987 -1.4633  0.8617
  725MOL0     H97817   0.251   9.034   6.296 -0.5798 -1.4582  3.0865
  725MOL0     H97818   0.389   9.054   6.514  0.2580 -0.0202  1.0203
  725MOL0     H97819   0.371   9.239   6.493 -1.4436  0.4372  2.1272
  725MOL0     H97820   0.151   9.241   6.486 -1.6240  0.2421  0.7835
  725MOL0     H97821   0.141   9.068   6.499 -0.5518  0.3609  1.0685
  725MOL0     H97822   0.218   9.068   6.735 -1.6091  0.2956  1.2423
  725MOL0     H97823   0.250   9.234   6.735  0.6602 -1.2354  1.7819
  725MOL0     H97824   0.043   9.297   6.787  1.0150 -1.3070  0.5353
  725MOL0     H97825   0.011   9.132   6.836 -2.1703  0.8068 -0.9641
  725MOL0     H97826  -0.064   9.010   6.549 -0.6038  0.1459  0.2193
  725MOL0     H97827  -0.397   9.154   6.397  2.3649  3.6634  1.8704
  725MOL0     H97828  -0.245   9.101   6.311 -1.3334 -2.3563 -0.5789
  725MOL0     H97829  -0.272   8.877   6.442 -0.3714 -0.9956  0.1227
  725MOL0     H97830  -0.387   8.905   6.320 -0.8752 -0.4759  0.2237
  725MOL0     H97831  -0.410   8.927   6.608 -0.3293  3.1190  0.3272
  725MOL0     H97832  -0.492   8.808   6.501  0.8203  1.0568 -0.7930
  725MOL0     H97833  -0.587   9.087   6.487 -0.8236  0.3138  0.2687
  725MOL0     H97834  -0.668   8.948   6.573 -0.2049 -0.0873  0.3620
  725MOL0     H97835  -0.870   9.008   6.514 -0.8234  1.7405  1.2316
  725MOL0     H97836  -1.178   9.057   6.446  2.7521 -1.8508 -2.5147
  725MOL0     H97837  -1.069   9.067   6.573  0.7571 -0.8950 -0.0002
  725MOL0     H97838  -1.133   9.218   6.506 -1.9339  0.1303 -0.6817
  725MOL0     H97839  -1.141   9.271   5.815 -2.3749 -0.3869 -2.5543
  725MOL0     H97840  -1.314   9.355   5.686 -1.2182 -2.2550  0.0611
  725MOL0     H97841  -1.662   9.443   5.812 -1.3015 -0.0977 -2.4183
  725MOL0     H97842  -1.619   9.589   5.880 -0.6336 -1.4421  1.0540
  725MOL0     H97843  -1.784   9.642   5.710 -1.3471 -1.6816 -0.3326
  725MOL0     H97844  -1.628   9.718   5.657 -3.4008  1.9987  1.2975
  725MOL0     H97845  -1.590   9.540   5.502 -0.0692 -0.6295  0.3562
  725MOL0     H97846  -1.732   9.651   5.481 -2.6673  0.8390  2.3907
  725MOL0     H97847  -1.750   9.364   5.586 -0.2673 -0.8050  0.2090
  725MOL0     H97848  -1.896   9.457   5.547 -0.2706 -1.1942 -2.5191
  725MOL0     H97849  -1.713   9.397   5.316  0.3095 -3.0199  1.1834
  725MOL0     H97850  -1.880   9.454   5.334 -1.4131  0.9897  2.6809
  725MOL0     H97851  -1.853   9.230   5.264  1.4594  3.6849 -2.0432
  725MOL0     H97852  -1.766   9.189   5.412 -1.1343 -0.7538  0.1801
  725MOL0     H97853  -2.044   9.305   5.458  1.5431 -0.7401  2.0926
  725MOL0     H97854  -1.966   9.177   5.547 -3.7953 -0.7978  1.2471
  725MOL0     H97855  -2.093   9.046   5.426  1.4808  0.1712  1.1477
  725MOL0     H97856  -1.990   9.047   5.296  3.0388  1.9800  0.2738
  725MOL0     H97857  -1.476   9.568   6.013  0.8322 -1.7336  5.3313
  725MOL0     H97858  -1.302   9.469   6.174 -1.6785  0.2562  1.1911
  725MOL0     H97859  -0.867   9.226   6.083 -0.6213  1.5964  1.1234
  725MOL0     H97860  -0.683   9.086   6.144 -1.7155  1.8013 -1.9001
  725MOL0     H97861   0.808   9.054   5.911  1.1595 -0.4151 -0.4635
  725MOL0     H97862   1.048   9.056   5.869 -1.4060  0.3926 -0.9007
  725MOL0     H97863   1.571   9.418   6.080  2.2730 -0.2056  1.4174
  725MOL0     H97864   1.788   9.313   6.097 -2.0823  0.3975  2.4892
  725MOL0     H97865   1.826   8.872   6.113  0.3039  0.8976  1.1962
  725MOL0     H97866   1.845   8.891   5.935 -0.1102 -2.2279  0.8992
  725MOL0     H97867   2.046   8.788   6.044  3.2290  0.2417 -0.7369
  725MOL0     H97868   2.052   8.911   6.156 -0.4959 -1.3848 -0.7331
  725MOL0     H97869   2.218   8.976   5.975  1.2983 -2.1530  0.5346
  725MOL0     H97870   2.066   9.071   5.950 -1.0468 -0.1638  0.9522
  725MOL0     H97871   2.001   8.923   5.776  0.3443  1.3429 -0.0740
  725MOL0     H97872   2.116   8.801   5.803  0.7397  0.8122  0.4298
  725MOL0     H97873   2.283   9.109   5.576 -2.6686  0.1135 -1.4719
  725MOL0     H97874   1.605   8.920   6.034 -2.3542 -0.6347  0.1206
  725MOL0     H97875   1.409   9.015   6.016 -1.0780 -0.4364  1.4659
  726MOL0     O97876   3.686   2.518   3.392 -1.0569  0.5970 -0.2649
  726MOL0     C97877   3.789   2.496   3.460  0.7618  0.0888 -0.0671
  726MOL0     O97878   3.803   2.393   3.552  0.2362 -0.3822 -0.7926
  726MOL0     C97879   3.714   2.287   3.532  0.1086  0.9036  0.3403
  726MOL0     C97880   3.646   2.239   3.642  0.4784  0.2289 -0.2939
  726MOL0     C97881   3.562   2.124   3.638  1.1145  0.1035  0.1652
  726MOL0     C97882   3.560   2.051   3.521  0.2109 -0.0162 -0.0777
  726MOL0     O97883   3.501   1.925   3.499 -0.0170 -0.5085  0.3560
  726MOL0     C97884   3.399   1.888   3.584  0.7251 -0.6269  0.4813
  726MOL0     C97885   3.450   1.798   3.697  0.3289 -0.5854  0.1384
  726MOL0     C97886   3.339   1.689   3.726 -0.0314 -1.4478  0.1249
  726MOL0     C97887   3.375   1.620   3.847  0.2025 -0.2718  0.6799
  726MOL0     C97888   3.259   1.559   3.940 -0.0310 -1.1572  0.2241
  726MOL0     C97889   3.208   1.427   3.894  0.2822  0.6859  0.6405
  726MOL0     C97890   3.073   1.385   3.974 -0.3569  0.8944  0.1667
  726MOL0     C97891   3.054   1.452   4.113  0.2191  0.2394 -0.0099
  726MOL0     N97892   2.977   1.364   4.200  0.4045  0.2715  0.4560
  726MOL0     C97893   2.845   1.330   4.198 -0.4506 -0.1349 -0.7283
  726MOL0     C97894   2.820   1.242   4.296 -0.6987  0.3948  0.2809
  726MOL0     C97895   2.686   1.182   4.331 -0.7004  0.2031 -0.1613
  726MOL0     C97896   2.640   1.062   4.241  0.5063  1.0789  0.9409
  726MOL0     C97897   2.727   0.943   4.208 -0.9126  0.3869  0.4726
  726MOL0     C97898   2.668   0.835   4.108 -0.5297  0.2182  0.4800
  726MOL0     O97899   2.596   0.896   3.992 -0.1745  0.9387 -0.3854
  726MOL0     C97900   2.664   0.975   3.907  0.1012 -0.1072 -0.0314
  726MOL0     C97901   2.577   1.042   3.814 -0.4716 -0.2882  0.0361
  726MOL0     C97902   2.621   1.132   3.723 -0.0602 -0.2412  0.6440
  726MOL0     C97903   2.515   1.206   3.641  0.0612  0.3456 -0.3733
  726MOL0     C97904   2.755   1.164   3.713 -0.5258 -0.0374  0.3614
  726MOL0     C97905   2.814   1.257   3.611  0.7985 -0.4721 -0.0173
  726MOL0     O97906   2.809   1.225   3.479 -0.7798 -0.4522  0.5853
  726MOL0     C97907   2.838   1.323   3.388  0.4511 -0.3427  0.7975
  726MOL0     C97908   2.801   1.463   3.396 -0.5953  1.0551  0.1585
  726MOL0     C97909   2.841   1.553   3.296 -0.3881 -0.1088 -0.1261
  726MOL0     C97910   2.920   1.507   3.183 -0.2431 -0.5903 -0.1944
  726MOL0     O97911   2.964   1.585   3.084 -1.0598  0.5636 -1.1581
  726MOL0     C97912   2.907   1.705   3.034  0.2510 -0.2973  0.3274
  726MOL0     C97913   2.973   1.819   3.117  1.0659  0.4705  0.0438
  726MOL0     C97914   2.978   1.958   3.053  0.4158 -0.1685  1.3829
  726MOL0     C97915   3.029   2.070   3.131 -0.2574 -0.1026  0.5436
  726MOL0     C97916   3.183   2.041   3.156 -0.4601  0.3875  0.5619
  726MOL0     C97917   3.268   2.166   3.111 -0.1773 -0.1660  0.1962
  726MOL0     C97918   3.421   2.156   3.146 -0.2655  0.5925  0.1055
  726MOL0     C97919   3.507   2.066   3.053  0.1318 -0.6074 -0.4878
  726MOL0    Cl97920   3.498   2.121   2.881  0.2933 -0.5787  0.3511
  726MOL0     C97921   2.934   1.373   3.168 -0.6281 -0.2399  0.3706
  726MOL0     C97922   2.899   1.281   3.265 -0.2250  0.0916 -0.9552
  726MOL0     O97923   2.880   1.354   3.663  0.2061  0.4795 -0.0302
  726MOL0     C97924   2.845   1.085   3.792 -0.1170  0.4725  0.0271
  726MOL0     C97925   2.806   0.997   3.896 -0.1521  0.3458  0.0683
  726MOL0     N97926   2.945   1.224   4.363  0.1677 -0.2401 -0.6097
  726MOL0     N97927   3.035   1.281   4.294  0.0421 -0.2016  1.1513
  726MOL0     C97928   3.631   2.093   3.407  0.5516  0.0985 -0.3158
  726MOL0     C97929   3.713   2.212   3.411 -0.2219  0.1079  0.2806
  726MOL0     C97930   3.891   2.608   3.457 -0.3863 -0.3237 -0.3400
  726MOL0     C97931   3.876   2.711   3.370 -0.3509 -0.2685  0.9091
  726MOL0     C97932   3.973   2.806   3.349  0.3211  0.5626  0.0314
  726MOL0     C97933   4.088   2.802   3.429  0.4057 -0.0929  0.2993
  726MOL0     O97934   4.192   2.897   3.416 -0.4721  0.5537  0.4723
  726MOL0     C97935   4.152   3.033   3.385  0.2356  0.2552 -0.0631
  726MOL0     C97936   4.268   3.125   3.368  0.3752  0.9076 -0.1056
  726MOL0     C97937   4.358   3.077   3.256  0.1419 -0.4749  0.6507
  726MOL0     C97938   4.460   3.189   3.190 -0.0199  0.6696 -0.2415
  726MOL0     C97939   4.510   3.295   3.286  0.5873  0.4661 -0.2563
  726MOL0     C97940   4.571   3.375   3.366 -0.2082  0.1384  0.9764
  726MOL0     C97941   4.106   2.701   3.524  0.5479 -0.3716 -0.1892
  726MOL0     C97942   4.006   2.602   3.543  0.8054 -0.2157  0.1515
  726MOL0     H97943   3.653   2.300   3.731 -1.1912  1.2030 -0.8006
  726MOL0     H97944   3.503   2.100   3.726  4.5039  2.2709  3.3403
  726MOL0     H97945   3.340   1.967   3.632 -0.2350 -1.2510  0.3576
  726MOL0     H97946   3.331   1.832   3.519  0.4105  0.3341 -0.0413
  726MOL0     H97947   3.542   1.749   3.665  1.5422  1.9469 -0.5155
  726MOL0     H97948   3.475   1.850   3.790 -1.5757  0.2678  0.2122
  726MOL0     H97949   3.243   1.734   3.753  0.9040 -1.1227  3.2089
  726MOL0     H97950   3.317   1.628   3.637 -3.0102  0.0974 -0.3636
  726MOL0     H97951   3.434   1.532   3.822  0.6454  0.8126 -2.6596
  726MOL0     H97952   3.438   1.682   3.912 -0.3135  3.6686 -2.1692
  726MOL0     H97953   3.285   1.551   4.046  0.0587  2.2237  0.5468
  726MOL0     H97954   3.181   1.634   3.957  1.7857  0.2441  3.1990
  726MOL0     H97955   3.171   1.432   3.791  1.1458 -2.8586  0.0212
  726MOL0     H97956   3.292   1.357   3.888  0.0088  0.5035 -3.0723
  726MOL0     H97957   3.000   1.408   3.895  0.8849 -1.1299 -1.6820
  726MOL0     H97958   3.084   1.279   3.999 -0.6036  0.6109 -0.8564
  726MOL0     H97959   3.000   1.546   4.103 -0.5734 -0.2053 -0.0577
  726MOL0     H97960   3.152   1.462   4.160  0.7524  1.8176 -1.3712
  726MOL0     H97961   2.765   1.374   4.139 -1.1948 -1.0337 -0.4115
  726MOL0     H97962   2.695   1.151   4.435  1.2849 -0.7206 -0.5728
  726MOL0     H97963   2.611   1.261   4.317  2.3298  2.8602 -3.0169
  726MOL0     H97964   2.594   1.098   4.148  3.5701 -2.0514 -2.0671
  726MOL0     H97965   2.549   1.019   4.284  0.2102  0.1025 -0.6092
  726MOL0     H97966   2.727   0.893   4.305 -2.7063 -1.1421 -0.2513
  726MOL0     H97967   2.829   0.969   4.180 -0.0951 -2.2847  0.7034
  726MOL0     H97968   2.601   0.768   4.162  1.8763 -3.8133 -1.0873
  726MOL0     H97969   2.737   0.761   4.067 -1.7035  0.5716 -2.3534
  726MOL0     H97970   2.474   1.017   3.836  0.5114 -0.9530  4.8349
  726MOL0     H97971   2.420   1.210   3.695 -2.3776 -4.0032 -3.7365
  726MOL0     H97972   2.546   1.309   3.620  0.1992 -0.1829 -3.1125
  726MOL0     H97973   2.501   1.155   3.545 -0.8850 -1.0534  0.4648
  726MOL0     H97974   2.742   1.487   3.484 -0.4547 -3.1238  1.5918
  726MOL0     H97975   2.807   1.656   3.301 -2.3317 -0.4743 -3.2092
  726MOL0     H97976   2.926   1.715   2.926  0.4764  3.0404  0.5689
  726MOL0     H97977   2.799   1.703   3.048  0.1281  1.4854 -0.1285
  726MOL0     H97978   2.929   1.819   3.217 -0.1193  1.8543 -0.4499
  726MOL0     H97979   3.074   1.780   3.133  0.7977  0.0105  0.6784
  726MOL0     H97980   2.878   1.992   3.023  1.8318  2.5597 -0.7429
  726MOL0     H97981   3.039   1.957   2.962  0.2652 -2.3306  1.2606
  726MOL0     H97982   3.004   2.161   3.075  0.3353 -0.0940  0.2839
  726MOL0     H97983   2.980   2.068   3.228 -1.2881 -0.7776  0.0347
  726MOL0     H97984   3.212   1.960   3.088  0.1410  1.5337 -0.5759
  726MOL0     H97985   3.212   2.017   3.259  0.9614  3.8917  1.1225
  726MOL0     H97986   3.260   2.186   3.004  2.2490 -1.1669 -0.2511
  726MOL0     H97987   3.225   2.256   3.155  0.1439 -0.2272  0.6510
  726MOL0     H97988   3.421   2.118   3.249  0.0511  1.0064  0.2582
  726MOL0     H97989   3.472   2.252   3.139  0.4075  0.3410  1.2599
  726MOL0     H97990   3.459   1.968   3.063 -1.0520  0.1509  2.3472
  726MOL0     H97991   3.612   2.066   3.083  0.8175 -5.0773 -2.1163
  726MOL0     H97992   2.988   1.354   3.076 -0.4031  1.8167  0.0112
  726MOL0     H97993   2.907   1.176   3.241 -1.8175  0.3152 -2.7883
  726MOL0     H97994   2.949   1.104   3.766 -0.4728  0.6168 -1.3438
  726MOL0     H97995   2.883   0.952   3.957  0.5918  0.8883 -0.4439
  726MOL0     H97996   3.626   2.032   3.316  4.3152 -1.7833  0.5468
  726MOL0     H97997   3.784   2.241   3.335 -1.3161  1.9030 -0.1012
  726MOL0     H97998   3.786   2.733   3.313  1.9945  0.9887 -2.6602
  726MOL0     H97999   3.962   2.883   3.273 -1.4903  0.2422 -0.0802
  726MOL0     H98000   4.083   3.036   3.300  0.7119 -5.2452 -1.0169
  726MOL0     H98001   4.095   3.069   3.472  0.4544  1.7686 -0.5086
  726MOL0     H98002   4.316   3.126   3.466  0.5626  2.2289 -0.1936
  726MOL0     H98003   4.223   3.224   3.352 -0.3158  0.3799 -1.5873
  726MOL0     H98004   4.307   3.029   3.172  2.5099  0.9011 -1.7332
  726MOL0     H98005   4.426   3.000   3.295  1.1053 -0.7489 -1.4200
  726MOL0     H98006   4.406   3.234   3.106 -1.2833 -0.8193 -0.2807
  726MOL0     H98007   4.546   3.148   3.138  1.0988  2.3557  0.2022
  726MOL0     H98008   4.624   3.455   3.413 -0.8628  1.7676 -0.8891
  726MOL0     H98009   4.192   2.688   3.588 -0.7222  0.8524  1.8990
  726MOL0     H98010   4.026   2.528   3.620 -0.5872 -1.3316 -0.5130
  727MOL0     O98011   1.981   6.297   2.688  0.6980  0.1818 -0.4351
  727MOL0     C98012   1.950   6.301   2.808  0.3370 -0.3850 -0.7540
  727MOL0     O98013   2.004   6.387   2.906  0.3835 -0.0715  0.6969
  727MOL0     C98014   2.107   6.459   2.873 -0.4446  0.8447 -0.4164
  727MOL0     C98015   2.102   6.570   2.789 -0.4844 -0.0726  0.0479
  727MOL0     C98016   2.215   6.652   2.785 -0.4441 -0.7239 -0.4018
  727MOL0     C98017   2.335   6.614   2.848  0.5097 -0.2175  0.0634
  727MOL0     O98018   2.442   6.695   2.853  0.0299 -0.2662 -0.4004
  727MOL0     C98019   2.489   6.751   2.728  0.4910  1.0895 -0.7041
  727MOL0     C98020   2.640   6.755   2.732  0.0691  0.4169 -0.2873
  727MOL0     C98021   2.692   6.792   2.584 -0.1650 -0.2733  0.0096
  727MOL0     C98022   2.839   6.808   2.575 -0.2432  1.1045 -0.3844
  727MOL0     C98023   2.910   6.937   2.622  0.2096  0.2718 -0.1769
  727MOL0     C98024   3.062   6.949   2.616 -0.3624 -0.4671 -0.4973
  727MOL0     C98025   3.131   6.836   2.687 -0.4076 -0.0959  0.1391
  727MOL0     C98026   3.108   6.834   2.839 -0.2622 -0.2772 -0.7755
  727MOL0     N98027   3.208   6.747   2.901 -0.5265  0.0763  0.6029
  727MOL0     C98028   3.253   6.749   3.036 -0.3660 -0.7853 -0.1521
  727MOL0     C98029   3.315   6.633   3.052  0.0082 -0.1979 -0.8921
  727MOL0     C98030   3.363   6.578   3.179  0.5295 -0.6288 -0.2878
  727MOL0     C98031   3.510   6.613   3.201 -0.3010 -0.2341 -0.0344
  727MOL0     C98032   3.537   6.767   3.206 -0.0198  0.5989 -0.5005
  727MOL0     C98033   3.630   6.810   3.093 -0.1714  0.1384 -0.3455
  727MOL0     O98034   3.655   6.953   3.102 -0.3661 -0.5459  0.0209
  727MOL0     C98035   3.712   7.004   2.982  0.9274  0.1145  0.0782
  727MOL0     C98036   3.765   7.130   2.997  0.0380 -0.6599  0.6253
  727MOL0     C98037   3.808   7.204   2.885  0.2829 -0.7039 -0.1434
  727MOL0     C98038   3.873   7.339   2.899  0.6733  0.2776  1.0058
  727MOL0     C98039   3.818   7.145   2.757  1.3593  0.0940 -0.0644
  727MOL0     C98040   3.879   7.204   2.632  0.0841  0.2291 -0.3315
  727MOL0     O98041   3.995   7.139   2.581 -0.0969  0.4114 -0.8538
  727MOL0     C98042   4.070   7.058   2.670  0.6154  0.2859  0.9456
  727MOL0     C98043   4.139   7.114   2.780 -0.4924  0.3614 -0.2477
  727MOL0     C98044   4.219   7.039   2.859  0.4527  0.2781 -0.1426
  727MOL0     C98045   4.254   6.904   2.821  0.5499 -0.4319 -0.0501
  727MOL0     O98046   4.350   6.838   2.896  0.1622  0.5504 -0.8395
  727MOL0     C98047   4.289   6.710   2.953  0.2194 -0.6641  0.6105
  727MOL0     C98048   4.388   6.680   3.064  0.5332 -0.1442  0.4992
  727MOL0     C98049   4.318   6.646   3.199 -0.2624 -0.6413 -0.3400
  727MOL0     C98050   4.428   6.636   3.305  0.9175  0.1138  0.0639
  727MOL0     C98051   4.381   6.547   3.426 -0.1040 -0.4198 -0.2438
  727MOL0     C98052   4.397   6.392   3.408 -1.0492 -0.4912  0.4440
  727MOL0     C98053   4.343   6.332   3.537  0.2481 -0.2152  0.4439
  727MOL0     C98054   4.425   6.239   3.628  0.1941 -0.2797  0.6162
  727MOL0    Cl98055   4.557   6.330   3.683  0.0593  0.1286 -0.1573
  727MOL0     C98056   4.185   6.853   2.711 -0.3313  0.0976 -0.7852
  727MOL0     C98057   4.075   6.923   2.649 -0.4881  0.8160  0.0632
  727MOL0     O98058   3.826   7.307   2.583 -0.1043 -0.1790 -0.0291
  727MOL0     C98059   3.747   7.022   2.742 -0.1046  0.5184  0.0889
  727MOL0     C98060   3.693   6.955   2.850 -0.1501  1.4004 -0.1293
  727MOL0     N98061   3.328   6.583   2.925 -0.5714 -0.2168  0.6550
  727MOL0     N98062   3.251   6.639   2.843 -0.1562 -0.7643  0.8039
  727MOL0     C98063   2.339   6.505   2.922  0.1018  0.9030 -0.4224
  727MOL0     C98064   2.230   6.418   2.930 -0.6759  0.5611  0.4170
  727MOL0     C98065   1.830   6.234   2.856  0.2088  0.5858 -1.0404
  727MOL0     C98066   1.736   6.170   2.768  0.6349  0.1935  0.0744
  727MOL0     C98067   1.623   6.100   2.824  0.0446 -0.0867 -0.0915
  727MOL0     C98068   1.609   6.081   2.961  0.5541  0.1654 -0.1171
  727MOL0     O98069   1.496   6.018   3.007  0.5986  0.6944 -0.8117
  727MOL0     C98070   1.481   6.009   3.150 -0.5207  0.0788 -0.8225
  727MOL0     C98071   1.346   5.943   3.193  0.6131 -1.0634 -0.3031
  727MOL0     C98072   1.219   6.015   3.143  0.7867  0.4625  0.7401
  727MOL0     C98073   1.094   5.914   3.162 -0.9245 -0.2932  0.1397
  727MOL0     C98074   0.971   5.980   3.117  0.2165 -1.1759 -0.1718
  727MOL0     C98075   0.893   6.047   3.053 -0.2255 -0.5773  0.6583
  727MOL0     C98076   1.704   6.144   3.039 -0.7381  0.6757 -0.4338
  727MOL0     C98077   1.810   6.215   2.994 -0.2837  0.3277 -0.1287
  727MOL0     H98078   2.013   6.599   2.735 -0.2758  0.0658 -0.2232
  727MOL0     H98079   2.212   6.747   2.732 -0.1272  0.2976  1.3360
  727MOL0     H98080   2.460   6.691   2.641  1.0087 -0.8426  0.3805
  727MOL0     H98081   2.441   6.848   2.715  0.9707  1.4809  0.3259
  727MOL0     H98082   2.661   6.833   2.806 -0.1274  0.5709 -0.3954
  727MOL0     H98083   2.678   6.657   2.764  1.7659  0.3748 -2.2702
  727MOL0     H98084   2.659   6.712   2.516 -1.5731 -1.0756  1.5541
  727MOL0     H98085   2.633   6.877   2.548 -0.1242 -0.9948 -1.9125
  727MOL0     H98086   2.871   6.741   2.656 -1.8105  0.1288 -0.5296
  727MOL0     H98087   2.867   6.758   2.481 -2.7780  0.0586 -0.6546
  727MOL0     H98088   2.856   7.015   2.569 -1.9889 -2.2275 -1.8221
  727MOL0     H98089   2.879   6.954   2.726  0.9439  2.3755 -0.2469
  727MOL0     H98090   3.097   6.958   2.513 -0.5057 -0.5063 -0.5499
  727MOL0     H98091   3.087   7.052   2.642 -2.3870  0.0287 -0.3506
  727MOL0     H98092   3.092   6.745   2.641  0.3099  0.0779 -0.8634
  727MOL0     H98093   3.239   6.848   2.669 -0.4692  3.1175  1.1999
  727MOL0     H98094   3.006   6.801   2.860 -0.8897  1.5633 -0.7431
  727MOL0     H98095   3.119   6.934   2.881  1.7822 -0.2870 -1.2112
  727MOL0     H98096   3.231   6.819   3.116 -2.0184 -3.6763  2.0936
  727MOL0     H98097   3.308   6.604   3.270  4.3687 -0.3465  2.1961
  727MOL0     H98098   3.349   6.470   3.178 -1.8439 -0.3692 -0.5497
  727MOL0     H98099   3.572   6.561   3.128  1.6179  0.9175  0.6927
  727MOL0     H98100   3.540   6.569   3.296  2.1279  1.6295  0.1437
  727MOL0     H98101   3.593   6.782   3.299  0.4552  1.5666 -0.9326
  727MOL0     H98102   3.446   6.827   3.219  1.9900  3.2636  3.6682
  727MOL0     H98103   3.585   6.771   3.001 -1.0132 -0.0949  0.1555
  727MOL0     H98104   3.727   6.761   3.103  0.7420  2.0296  0.7226
  727MOL0     H98105   3.771   7.159   3.102  1.9554  3.5628 -0.4390
  727MOL0     H98106   3.873   7.377   3.001 -0.5492  2.6520  0.1941
  727MOL0     H98107   3.974   7.342   2.855 -0.7240 -1.4742 -2.7607
  727MOL0     H98108   3.809   7.402   2.837  0.9747  0.9283  1.3437
  727MOL0     H98109   4.109   7.217   2.796  1.9205  1.2351 -0.9483
  727MOL0     H98110   4.256   7.082   2.952  0.8761  2.1986 -1.1419
  727MOL0     H98111   4.193   6.730   3.000 -0.2905 -1.0172 -0.2484
  727MOL0     H98112   4.264   6.629   2.883 -0.2529 -0.6542  0.7685
  727MOL0     H98113   4.447   6.592   3.038  0.5686 -0.2442  0.9171
  727MOL0     H98114   4.463   6.758   3.079  1.2025 -0.1149 -2.4447
  727MOL0     H98115   4.279   6.544   3.191  1.8252 -1.6068  0.9275
  727MOL0     H98116   4.240   6.721   3.216  0.0735 -1.0299  4.4084
  727MOL0     H98117   4.522   6.600   3.261 -0.2726 -1.6467 -1.1512
  727MOL0     H98118   4.459   6.734   3.342  1.0513 -0.7866  2.4725
  727MOL0     H98119   4.282   6.580   3.458 -0.4097 -0.8681 -0.7176
  727MOL0     H98120   4.445   6.585   3.506  0.0153  1.1709 -1.0615
  727MOL0     H98121   4.343   6.357   3.320 -0.7212 -3.3458  1.2701
  727MOL0     H98122   4.500   6.364   3.384 -1.7883 -2.2444 -0.9769
  727MOL0     H98123   4.272   6.257   3.502 -1.0696  0.5084  1.4933
  727MOL0     H98124   4.281   6.401   3.594 -0.1412  0.2733 -0.5423
  727MOL0     H98125   4.460   6.160   3.561  1.8699  1.2403 -0.3796
  727MOL0     H98126   4.362   6.197   3.707  3.0634 -6.4600  0.1904
  727MOL0     H98127   4.221   6.756   2.681  0.5430 -0.0471  0.6553
  727MOL0     H98128   4.028   6.868   2.568 -1.0497  1.2059  0.1220
  727MOL0     H98129   3.744   6.987   2.639  0.5215 -0.0016  0.2358
  727MOL0     H98130   3.639   6.862   2.832 -4.1608  3.5249 -0.0617
  727MOL0     H98131   2.433   6.481   2.971 -0.8658  2.9442  2.7312
  727MOL0     H98132   2.248   6.337   3.000 -2.1227  1.2774  1.6823
  727MOL0     H98133   1.754   6.188   2.663  0.7953  1.6351  0.3222
  727MOL0     H98134   1.543   6.057   2.766  1.1307 -1.6223 -0.4971
  727MOL0     H98135   1.559   5.955   3.204 -0.9438 -1.2637 -1.5148
  727MOL0     H98136   1.474   6.110   3.194 -0.6733 -0.0325 -0.5878
  727MOL0     H98137   1.341   5.934   3.302  1.1673  1.9480  0.0805
  727MOL0     H98138   1.343   5.846   3.144  1.5966 -1.3113  0.1007
  727MOL0     H98139   1.216   6.048   3.039  0.2651  1.1562  0.9659
  727MOL0     H98140   1.214   6.109   3.200  1.4735  1.5740 -0.9606
  727MOL0     H98141   1.070   5.907   3.269  0.9480  0.9297  0.6802
  727MOL0     H98142   1.105   5.817   3.113 -5.5424 -1.6396  1.2727
  727MOL0     H98143   0.831   6.106   2.989 -0.8739  1.2009  2.8116
  727MOL0     H98144   1.707   6.129   3.146 -1.9376 -1.1917 -0.6032
  727MOL0     H98145   1.893   6.249   3.054 -0.4444 -0.8674  0.8033
  728MOL0     O98146   5.725   3.298   6.236  0.5839 -0.4269  0.7723
  728MOL0     C98147   5.756   3.194   6.170  0.5728 -1.5980  0.2721
  728MOL0     O98148   5.692   3.074   6.174 -0.1106  0.0115  0.3626
  728MOL0     C98149   5.599   3.050   6.274 -1.0201 -0.8440 -0.6013
  728MOL0     C98150   5.613   3.086   6.408  0.4410 -0.0164 -0.6649
  728MOL0     C98151   5.520   3.037   6.494  0.0288 -0.4015 -1.1160
  728MOL0     C98152   5.412   2.961   6.459  1.1308  0.0420  0.2393
  728MOL0     O98153   5.325   2.910   6.563 -0.7012 -0.7793  0.6914
  728MOL0     C98154   5.208   2.833   6.518 -0.8817  0.5518 -0.1700
  728MOL0     C98155   5.090   2.912   6.483  0.3736 -0.0677 -0.3640
  728MOL0     C98156   5.048   2.990   6.606  0.4203 -0.5414  0.5403
  728MOL0     C98157   4.925   3.076   6.573 -0.6223 -0.3833 -0.5151
  728MOL0     C98158   4.904   3.186   6.686 -0.0087  0.6635  0.6788
  728MOL0     C98159   4.768   3.260   6.650  0.0420  0.1967  0.9532
  728MOL0     C98160   4.728   3.332   6.777  0.1787 -0.2966  0.3903
  728MOL0     C98161   4.651   3.456   6.733  0.0233 -0.6340 -0.1570
  728MOL0     N98162   4.515   3.439   6.692  0.4043 -0.1336  0.6648
  728MOL0     C98163   4.470   3.453   6.563  0.7599 -0.3564 -0.1902
  728MOL0     C98164   4.328   3.471   6.571 -0.4437  0.9770  0.4451
  728MOL0     C98165   4.225   3.469   6.459  0.4182  0.4455  0.2376
  728MOL0     C98166   4.106   3.565   6.479 -0.2495  0.2205  0.3232
  728MOL0     C98167   3.990   3.516   6.393 -0.4251  0.0125  0.1022
  728MOL0     C98168   3.867   3.604   6.408 -0.4052  0.4337 -0.1852
  728MOL0     O98169   3.763   3.561   6.325 -0.2748 -0.2295 -0.1139
  728MOL0     C98170   3.635   3.592   6.357  0.6896 -0.0346 -0.4095
  728MOL0     C98171   3.528   3.511   6.304 -0.2507  0.2851 -0.3513
  728MOL0     C98172   3.391   3.541   6.324  0.0715  0.4859 -0.3090
  728MOL0     C98173   3.285   3.450   6.259  0.2122  0.0452  0.2862
  728MOL0     C98174   3.360   3.667   6.397  0.5303  0.0407 -0.1026
  728MOL0     C98175   3.219   3.712   6.424 -0.2031 -0.8210 -0.9310
  728MOL0     O98176   3.119   3.631   6.468  0.1521  0.1054  0.3347
  728MOL0     C98177   2.995   3.683   6.497  0.3797 -0.3786 -0.2371
  728MOL0     C98178   2.968   3.715   6.628 -0.2149  0.6274 -0.4487
  728MOL0     C98179   2.837   3.759   6.671 -0.3534  0.1535  1.0167
  728MOL0     C98180   2.738   3.778   6.569  0.3711 -1.6897  0.1358
  728MOL0     O98181   2.613   3.836   6.585 -0.3435  0.2578 -0.5004
  728MOL0     C98182   2.586   3.914   6.696  0.0362 -0.4550  0.0687
  728MOL0     C98183   2.433   3.929   6.706  0.4047 -0.2665 -0.1508
  728MOL0     C98184   2.362   3.796   6.724  0.0624 -0.3093 -0.3818
  728MOL0     C98185   2.216   3.832   6.733  1.1479  0.0929  0.1549
  728MOL0     C98186   2.156   3.889   6.866 -0.3473 -0.5380  0.6561
  728MOL0     C98187   2.004   3.873   6.868 -0.4076 -0.8886 -0.5554
  728MOL0     C98188   1.950   3.735   6.930 -0.4340  0.5978  0.4346
  728MOL0     C98189   1.828   3.684   6.852 -0.3316 -0.1938  0.4816
  728MOL0    Cl98190   1.807   3.518   6.894  0.4654  0.1390  0.0245
  728MOL0     C98191   2.763   3.735   6.444  0.3291 -0.3181  1.1432
  728MOL0     C98192   2.890   3.684   6.410  0.0145  0.4471  0.5009
  728MOL0     O98193   3.201   3.834   6.401 -0.7765  0.2212  0.3775
  728MOL0     C98194   3.460   3.754   6.430 -0.7561 -0.2299  0.0064
  728MOL0     C98195   3.594   3.714   6.425 -0.1478  0.9016 -0.4809
  728MOL0     N98196   4.295   3.461   6.705 -0.1867 -0.7932 -0.9377
  728MOL0     N98197   4.407   3.463   6.773 -0.0531  0.3974  0.6775
  728MOL0     C98198   5.401   2.928   6.320 -0.3517  0.4562 -0.5917
  728MOL0     C98199   5.496   2.970   6.229 -0.4504  0.5153 -0.1760
  728MOL0     C98200   5.875   3.188   6.086 -0.3446 -0.8258 -0.2709
  728MOL0     C98201   5.955   3.299   6.080 -0.7781 -0.0530 -0.0888
  728MOL0     C98202   6.077   3.284   6.009 -0.1055  0.0425  0.3717
  728MOL0     C98203   6.110   3.174   5.933  0.0554  0.2573  1.0208
  728MOL0     O98204   6.215   3.181   5.848 -0.6006 -0.4409  0.2158
  728MOL0     C98205   6.304   3.067   5.854 -0.2211  0.0523  0.7286
  728MOL0     C98206   6.439   3.098   5.898 -0.7267  0.2878  0.6790
  728MOL0     C98207   6.454   3.128   6.053 -0.2520 -0.3795 -0.1953
  728MOL0     C98208   6.421   3.007   6.153  0.1883 -0.3502 -0.7274
  728MOL0     C98209   6.517   2.906   6.139  0.0846 -0.5375 -1.0574
  728MOL0     C98210   6.600   2.814   6.119  0.1181 -0.1449 -0.0988
  728MOL0     C98211   6.021   3.070   5.930  0.5546 -0.0108  0.3217
  728MOL0     C98212   5.908   3.069   6.014  0.8796  1.3948 -0.0381
  728MOL0     H98213   5.702   3.133   6.446 -0.0200 -0.8028  1.5229
  728MOL0     H98214   5.525   3.060   6.600  4.3481  1.6702 -1.5534
  728MOL0     H98215   5.241   2.767   6.438  1.9185  3.5003 -1.6486
  728MOL0     H98216   5.191   2.760   6.597  0.2055  0.4333 -0.0375
  728MOL0     H98217   5.110   2.983   6.403 -1.1926  2.4411  1.3266
  728MOL0     H98218   5.010   2.847   6.446 -2.0322  2.9129 -0.7960
  728MOL0     H98219   5.015   2.922   6.685 -1.1765  2.7034  2.9026
  728MOL0     H98220   5.119   3.064   6.643 -1.7641  1.7061  0.5133
  728MOL0     H98221   4.929   3.127   6.477  2.3595 -3.1025 -2.0605
  728MOL0     H98222   4.843   3.004   6.575  0.0084 -1.1160 -0.5571
  728MOL0     H98223   4.901   3.141   6.786 -1.1700 -3.4055 -0.9708
  728MOL0     H98224   4.991   3.252   6.680 -0.4381  1.3177  1.4744
  728MOL0     H98225   4.775   3.316   6.556  5.1290 -4.7684 -2.3655
  728MOL0     H98226   4.692   3.182   6.640 -1.2805  1.4341  1.1342
  728MOL0     H98227   4.665   3.266   6.837  1.6198 -2.8360 -0.7309
  728MOL0     H98228   4.816   3.357   6.837  0.8877  0.1678 -0.8150
  728MOL0     H98229   4.705   3.510   6.655  1.6962  0.4176  1.6423
  728MOL0     H98230   4.646   3.518   6.824 -0.1276 -1.3915  0.3641
  728MOL0     H98231   4.523   3.434   6.470 -1.4111  0.4090 -1.6625
  728MOL0     H98232   4.274   3.495   6.364 -0.2165 -0.4504 -0.3520
  728MOL0     H98233   4.191   3.365   6.452 -2.5018  1.4125 -2.4017
  728MOL0     H98234   4.131   3.669   6.455 -1.3819  1.4766  3.9268
  728MOL0     H98235   4.087   3.558   6.587  1.3075 -1.3760  0.5268
  728MOL0     H98236   3.976   3.410   6.414 -0.1797  0.3668  2.3409
  728MOL0     H98237   4.030   3.521   6.292  3.0889 -2.8668  1.1509
  728MOL0     H98238   3.893   3.706   6.379  2.8071 -0.7100 -1.8171
  728MOL0     H98239   3.828   3.597   6.510 -3.0055 -1.5952 -1.1987
  728MOL0     H98240   3.563   3.435   6.235  0.9879  2.3527 -2.1261
  728MOL0     H98241   3.251   3.498   6.167  0.2010  0.8763  0.7202
  728MOL0     H98242   3.322   3.350   6.233 -0.8038 -1.0798  2.7515
  728MOL0     H98243   3.201   3.430   6.327 -0.3999  0.8543 -0.2074
  728MOL0     H98244   3.056   3.714   6.692  1.5028 -1.3678 -2.6662
  728MOL0     H98245   2.815   3.787   6.774 -0.8325 -2.3369  1.6639
  728MOL0     H98246   2.633   3.877   6.787  0.3846 -0.1501  0.0175
  728MOL0     H98247   2.630   4.014   6.685 -0.5992 -0.2080 -0.2666
  728MOL0     H98248   2.402   3.986   6.794 -1.9549  1.4242 -1.9568
  728MOL0     H98249   2.406   3.984   6.615  3.2754 -0.0596 -0.9696
  728MOL0     H98250   2.398   3.738   6.809 -1.9528  2.2789  2.4567
  728MOL0     H98251   2.382   3.740   6.632 -2.2523 -1.6569 -0.1302
  728MOL0     H98252   2.192   3.896   6.647  0.8616  0.3919  0.4566
  728MOL0     H98253   2.152   3.743   6.731 -0.5109  1.2325  0.9286
  728MOL0     H98254   2.179   3.995   6.877  0.6924 -0.4526 -1.6404
  728MOL0     H98255   2.194   3.840   6.956  0.0269 -1.7698 -0.1452
  728MOL0     H98256   1.959   3.951   6.930 -1.4985 -1.6732 -0.3191
  728MOL0     H98257   1.964   3.887   6.767  2.0714 -0.9551 -1.6211
  728MOL0     H98258   1.925   3.729   7.036  0.7692 -1.7556  0.6405
  728MOL0     H98259   2.024   3.657   6.913 -2.1447 -1.1703  0.7861
  728MOL0     H98260   1.841   3.680   6.744 -2.0509 -0.5027  0.2651
  728MOL0     H98261   1.744   3.753   6.866  0.6242  1.2774 -0.6886
  728MOL0     H98262   2.695   3.742   6.359  1.3724 -0.3324  0.2811
  728MOL0     H98263   2.917   3.643   6.314 -1.6981 -0.5196  0.3824
  728MOL0     H98264   3.427   3.847   6.475 -0.2725 -1.3732  2.9517
  728MOL0     H98265   3.671   3.781   6.462  1.6451 -0.8426 -0.8936
  728MOL0     H98266   5.315   2.873   6.282  1.3878 -0.6646 -3.1560
  728MOL0     H98267   5.471   2.953   6.125  0.1824  0.2528 -0.2917
  728MOL0     H98268   5.930   3.391   6.133  1.2724 -0.8892  2.5158
  728MOL0     H98269   6.143   3.369   6.023 -0.5188  0.3208  0.6553
  728MOL0     H98270   6.272   2.991   5.926  1.7304  1.8176  3.6769
  728MOL0     H98271   6.305   3.032   5.751  0.9243  1.3810  0.2572
  728MOL0     H98272   6.473   3.190   5.850 -1.5548  0.3195  0.1420
  728MOL0     H98273   6.510   3.021   5.865 -1.9077 -0.8843  0.7824
  728MOL0     H98274   6.379   3.198   6.091 -1.4631 -1.2705 -0.8763
  728MOL0     H98275   6.544   3.182   6.084  0.0908 -0.8805 -0.3073
  728MOL0     H98276   6.314   2.982   6.149 -0.7954  2.9701  0.6839
  728MOL0     H98277   6.429   3.048   6.254  1.6409 -1.7352 -0.2344
  728MOL0     H98278   6.683   2.750   6.095  0.4222  0.8567 -1.8675
  728MOL0     H98279   6.035   2.985   5.864 -1.2644  0.6221 -0.9349
  728MOL0     H98280   5.841   2.984   6.014  2.0140  0.3853  2.8219
  729MOL0     O98281   9.144   7.074   7.530 -0.7998 -0.6823  0.9532
  729MOL0     C98282   9.170   7.058   7.403 -0.8171 -0.7491 -0.1517
  729MOL0     O98283   9.083   7.052   7.293  0.2912  0.0743  0.0096
  729MOL0     C98284   8.963   7.117   7.316 -0.1849  0.5156  0.5400
  729MOL0     C98285   8.939   7.243   7.267  0.4363 -0.1650 -0.5054
  729MOL0     C98286   8.815   7.309   7.287 -0.8390 -0.7091 -0.3964
  729MOL0     C98287   8.720   7.254   7.367 -0.5880  0.5341  0.1890
  729MOL0     O98288   8.617   7.349   7.380 -0.1583  0.4145  0.3888
  729MOL0     C98289   8.486   7.295   7.346  0.8253  0.2535  0.0734
  729MOL0     C98290   8.392   7.414   7.388  0.2297  0.4346  0.4332
  729MOL0     C98291   8.249   7.381   7.351 -0.1184  0.5841  0.4814
  729MOL0     C98292   8.152   7.501   7.376 -0.8881 -0.1256  0.0990
  729MOL0     C98293   8.004   7.451   7.395 -0.7872  0.4371 -1.3154
  729MOL0     C98294   7.936   7.405   7.265 -0.2238  0.2885  0.0078
  729MOL0     C98295   7.788   7.432   7.265  0.3117  0.0249 -0.4728
  729MOL0     C98296   7.735   7.425   7.121  1.1135 -0.6946  0.1339
  729MOL0     N98297   7.687   7.295   7.067 -0.4249  0.9216 -0.1911
  729MOL0     C98298   7.601   7.202   7.129  0.9429  0.2160  0.3092
  729MOL0     C98299   7.617   7.087   7.053  1.1035  0.0767  0.6430
  729MOL0     C98300   7.582   6.949   7.089  0.6148 -0.2353  0.3198
  729MOL0     C98301   7.676   6.912   7.204  0.0336  0.6558  0.0395
  729MOL0     C98302   7.789   6.817   7.146 -0.0211  0.7876  0.0479
  729MOL0     C98303   7.886   6.894   7.059  0.0647 -0.5617 -0.4091
  729MOL0     O98304   8.010   6.824   7.068  0.3328 -0.2955  0.4526
  729MOL0     C98305   8.113   6.890   7.001 -0.0320 -0.7173 -0.3831
  729MOL0     C98306   8.113   7.027   6.954 -0.7108 -0.7573  0.0599
  729MOL0     C98307   8.219   7.080   6.870  1.0569 -0.3321  0.3916
  729MOL0     C98308   8.195   7.223   6.799 -0.5017  0.3101 -0.6408
  729MOL0     C98309   8.337   7.003   6.853  0.1059  0.0916 -0.6868
  729MOL0     C98310   8.454   7.043   6.777 -0.2751  0.0634  0.8769
  729MOL0     O98311   8.499   6.944   6.696  0.3565 -0.5880  0.0044
  729MOL0     C98312   8.571   6.986   6.588  0.0311  0.8598  0.4802
  729MOL0     C98313   8.510   7.020   6.472  0.3419  0.6805 -0.0005
  729MOL0     C98314   8.584   7.069   6.366  0.4413 -0.5600 -0.1460
  729MOL0     C98315   8.729   7.079   6.379 -0.5860 -0.5526 -0.1558
  729MOL0     O98316   8.807   7.147   6.290  0.0124 -0.7990 -0.3461
  729MOL0     C98317   8.730   7.232   6.200 -0.0197 -0.1023 -0.8076
  729MOL0     C98318   8.837   7.331   6.160 -0.2949 -0.2527  0.1897
  729MOL0     C98319   8.964   7.257   6.101 -0.0191 -0.0949  0.2749
  729MOL0     C98320   9.036   7.340   5.997 -0.0066  0.1113  0.3381
  729MOL0     C98321   9.163   7.260   5.957 -0.3333  0.4198 -0.0259
  729MOL0     C98322   9.140   7.152   5.848 -0.2177 -0.5891 -0.2063
  729MOL0     C98323   9.269   7.080   5.817 -0.2376 -0.5174  0.2659
  729MOL0     C98324   9.241   6.954   5.734  0.1000 -0.2449 -0.7054
  729MOL0    Cl98325   9.157   6.829   5.830 -0.2332  0.1368 -0.1900
  729MOL0     C98326   8.787   7.026   6.493  0.6192  0.1758  0.3321
  729MOL0     C98327   8.711   6.978   6.596 -0.9125 -0.1353  0.1690
  729MOL0     O98328   8.499   7.154   6.797 -0.4518  0.6601 -0.6554
  729MOL0     C98329   8.340   6.874   6.908  0.2635  1.2746 -1.5756
  729MOL0     C98330   8.236   6.822   6.978  1.8437  0.1668 -0.5340
  729MOL0     N98331   7.697   7.119   6.941  0.4233 -0.1539 -0.9337
  729MOL0     N98332   7.738   7.238   6.955  0.0519 -0.0490  0.5524
  729MOL0     C98333   8.745   7.117   7.423  0.0969  0.9444 -0.2187
  729MOL0     C98334   8.862   7.051   7.386  0.6136 -0.2613  0.7560
  729MOL0     C98335   9.312   7.051   7.364 -0.5514 -0.0285  0.2285
  729MOL0     C98336   9.411   7.070   7.465 -0.1183  0.7241  0.0768
  729MOL0     C98337   9.548   7.063   7.434  0.8501  0.0948 -0.7422
  729MOL0     C98338   9.586   7.047   7.303  0.0483  0.0063 -0.0941
  729MOL0     O98339   9.726   7.056   7.268  0.5028  0.3139 -0.6368
  729MOL0     C98340   9.825   6.988   7.353 -0.4645 -0.2487 -0.6659
  729MOL0     C98341   9.959   6.985   7.272  0.4994  0.4518  0.4441
  729MOL0     C98342   9.961   6.910   7.139  0.7061 -0.8120  0.3185
  729MOL0     C98343  10.028   6.770   7.136 -0.3146 -0.5852 -0.0796
  729MOL0     C98344   9.955   6.673   7.216 -0.3564 -1.2232 -0.5306
  729MOL0     C98345   9.919   6.602   7.308  0.6470  0.3564  0.0122
  729MOL0     C98346   9.497   7.015   7.198 -0.2952 -0.3861  0.0128
  729MOL0     C98347   9.360   7.012   7.234 -0.5223  0.0054  0.5936
  729MOL0     H98348   9.011   7.292   7.203 -0.7049 -0.8025 -2.3376
  729MOL0     H98349   8.807   7.410   7.249  2.8735 -0.3488 -0.6419
  729MOL0     H98350   8.473   7.282   7.238  1.2606  0.0065  0.0482
  729MOL0     H98351   8.466   7.199   7.396  1.5398  0.7633  1.3921
  729MOL0     H98352   8.401   7.442   7.493 -1.6956  2.9178  0.0199
  729MOL0     H98353   8.429   7.500   7.331  3.1537 -1.6524 -1.0920
  729MOL0     H98354   8.243   7.336   7.251 -1.3490 -1.6171  1.4794
  729MOL0     H98355   8.215   7.296   7.411 -2.7626  0.6040 -0.8479
  729MOL0     H98356   8.183   7.555   7.466 -2.4071  0.3137  0.3937
  729MOL0     H98357   8.173   7.556   7.284  2.2724  1.2535  1.5149
  729MOL0     H98358   8.017   7.376   7.474  0.1419  3.7747  2.0651
  729MOL0     H98359   7.946   7.533   7.441 -0.0174 -0.0640  0.6820
  729MOL0     H98360   7.980   7.470   7.189  1.8347 -2.3585 -1.2296
  729MOL0     H98361   7.965   7.301   7.248 -0.2732 -0.1827  2.4189
  729MOL0     H98362   7.745   7.357   7.333  1.5187  2.6809  3.5427
  729MOL0     H98363   7.760   7.529   7.306  0.4101  0.7393 -2.0359
  729MOL0     H98364   7.808   7.463   7.048 -0.2216  3.1438  0.5378
  729MOL0     H98365   7.654   7.499   7.120  2.3762  0.7488  0.6073
  729MOL0     H98366   7.569   7.208   7.232 -0.0363 -0.2550  0.0527
  729MOL0     H98367   7.482   6.954   7.134  0.6361  0.7969  0.2815
  729MOL0     H98368   7.584   6.876   7.008 -2.7961  0.5894 -0.6887
  729MOL0     H98369   7.615   6.868   7.283 -1.0513  0.8877 -0.6444
  729MOL0     H98370   7.730   6.998   7.245  1.5424  0.1608 -0.8169
  729MOL0     H98371   7.750   6.725   7.102 -0.1784 -0.4954  2.7118
  729MOL0     H98372   7.852   6.770   7.222  0.5268 -0.5803 -1.2089
  729MOL0     H98373   7.894   6.993   7.106 -1.0126 -0.3291 -0.6994
  729MOL0     H98374   7.832   6.914   6.966 -4.8306  0.6460  2.3295
  729MOL0     H98375   8.028   7.094   6.965 -1.9490 -2.0495 -1.1445
  729MOL0     H98376   8.254   7.290   6.861  1.4486 -0.0359 -2.0382
  729MOL0     H98377   8.238   7.226   6.699 -0.6290  2.3478 -0.6675
  729MOL0     H98378   8.097   7.269   6.784  1.1565  3.8716 -1.4442
  729MOL0     H98379   8.403   7.010   6.453  0.4138  1.2816 -0.7650
  729MOL0     H98380   8.541   7.107   6.274  2.7735  1.8780 -0.3572
  729MOL0     H98381   8.684   7.169   6.123 -1.0628  0.6387 -0.8033
  729MOL0     H98382   8.653   7.293   6.248  0.0066 -0.3221 -0.4865
  729MOL0     H98383   8.798   7.402   6.087  2.0632  0.7057 -0.2313
  729MOL0     H98384   8.873   7.391   6.244  1.1216 -0.7750 -0.0195
  729MOL0     H98385   8.932   7.164   6.051 -0.5908 -0.8053  1.8823
  729MOL0     H98386   9.027   7.229   6.186 -0.6168 -3.7093 -0.3099
  729MOL0     H98387   8.962   7.347   5.917 -0.6782 -0.7714  0.8577
  729MOL0     H98388   9.057   7.443   6.027  3.2398 -1.0174  2.4470
  729MOL0     H98389   9.212   7.217   6.046  1.4824  4.9764  1.4642
  729MOL0     H98390   9.247   7.323   5.928  1.5042 -2.3762 -1.2629
  729MOL0     H98391   9.054   7.095   5.883  0.1482 -0.9765  0.0697
  729MOL0     H98392   9.100   7.196   5.756 -2.5956  0.0220  1.0409
  729MOL0     H98393   9.324   7.067   5.911  1.7946  2.1154 -0.4410
  729MOL0     H98394   9.327   7.148   5.753 -1.4168 -0.7726 -1.1304
  729MOL0     H98395   9.338   6.917   5.700  2.5797  3.0048  2.0051
  729MOL0     H98396   9.181   6.984   5.648 -1.8117  0.2573  0.7398
  729MOL0     H98397   8.892   7.050   6.503  0.3186  1.5277  0.4247
  729MOL0     H98398   8.766   6.931   6.677  2.8940 -0.2758 -2.2172
  729MOL0     H98399   8.424   6.806   6.898  1.6951  2.2829  2.0149
  729MOL0     H98400   8.229   6.729   7.033 -3.2092  1.2535  1.2374
  729MOL0     H98401   8.684   7.075   7.502  0.3235  0.3978 -0.3298
  729MOL0     H98402   8.872   6.950   7.424  0.4115  0.0458  1.6313
  729MOL0     H98403   9.374   7.087   7.565  1.3627 -0.8827  0.9524
  729MOL0     H98404   9.620   7.097   7.509  0.4505  3.5985 -1.7691
  729MOL0     H98405   9.835   7.047   7.444  1.3865 -3.8637  1.7442
  729MOL0     H98406   9.801   6.883   7.372  1.3249 -0.5996 -0.1127
  729MOL0     H98407  10.030   6.934   7.338  0.4354 -0.4586 -0.1788
  729MOL0     H98408   9.986   7.088   7.250  0.0003  0.2582 -1.1380
  729MOL0     H98409  10.024   6.971   7.073 -0.2052 -0.0021  0.1744
  729MOL0     H98410   9.863   6.916   7.091  1.4098  2.2886 -0.9569
  729MOL0     H98411  10.124   6.777   7.189 -1.1563 -0.5011  1.4857
  729MOL0     H98412  10.034   6.729   7.035 -4.0255 -0.6418 -0.4069
  729MOL0     H98413   9.889   6.547   7.396  0.2513 -2.4437 -1.7505
  729MOL0     H98414   9.528   6.993   7.096 -0.7261 -4.5450  0.6391
  729MOL0     H98415   9.278   7.005   7.163  0.2269 -1.0616 -0.1925
  730MOL0     O98416  10.869  10.727   6.460  0.5240 -0.0557 -0.1958
  730MOL0     C98417  10.841  10.628   6.394 -0.9115  0.0905  0.0288
  730MOL0     O98418  10.903  10.505   6.401 -0.6841 -0.0885 -0.2967
  730MOL0     C98419  10.990  10.484   6.503  0.1912  0.0934  0.4597
  730MOL0     C98420  10.949  10.486   6.632 -0.1701  0.0096 -0.0444
  730MOL0     C98421  11.030  10.452   6.741 -0.3222  0.2265 -0.0583
  730MOL0     C98422  11.167  10.422   6.723  0.6995 -0.0293 -0.8728
  730MOL0     O98423  11.251  10.395   6.830 -0.7491 -0.1921 -0.5132
  730MOL0     C98424  11.199  10.355   6.960 -0.4779  0.0260 -0.0061
  730MOL0     C98425  11.299  10.263   7.029  0.3675 -1.1160  0.2267
  730MOL0     C98426  11.404  10.331   7.112 -0.3659  0.8813  0.6980
  730MOL0     C98427  11.524  10.413   7.051  0.4523 -0.1684 -0.6610
  730MOL0     C98428  11.484  10.558   7.032  0.1830  1.0678 -0.4220
  730MOL0     C98429  11.591  10.623   6.963  0.5704  0.2246  1.0875
  730MOL0     C98430  11.581  10.775   6.971  0.8701 -0.6858 -0.5167
  730MOL0     C98431  11.688  10.851   6.912  0.7233  0.2552 -0.4716
  730MOL0     N98432  11.819  10.817   6.967 -0.0469  0.6293 -0.1957
  730MOL0     C98433  11.850  10.834   7.099 -0.2138  0.2300  0.4795
  730MOL0     C98434  11.988  10.818   7.105  0.8050  1.1329  0.8933
  730MOL0     C98435  12.080  10.810   7.228 -0.1365  0.1356 -0.5737
  730MOL0     C98436  12.179  10.923   7.243  0.7649  0.3106  0.6620
  730MOL0     C98437  12.264  10.967   7.124 -1.1797  0.3544  0.2022
  730MOL0     C98438  12.370  11.074   7.152 -0.6239  0.5247 -0.7726
  730MOL0     O98439  12.323  11.203   7.176  0.7414  0.6489 -0.1185
  730MOL0     C98440  12.427  11.282   7.230 -0.4817 -0.8234 -1.0780
  730MOL0     C98441  12.390  11.371   7.332 -0.3733  0.7140 -0.4209
  730MOL0     C98442  12.477  11.469   7.382  0.2288  0.3909 -1.0772
  730MOL0     C98443  12.414  11.579   7.470  0.1615  0.2418  0.4654
  730MOL0     C98444  12.616  11.467   7.357 -0.3450 -0.0152 -0.4229
  730MOL0     C98445  12.722  11.563   7.404 -0.2870  0.3667 -0.7642
  730MOL0     O98446  12.836  11.563   7.328 -0.7482 -0.5952 -0.0156
  730MOL0     C98447  12.965  11.619   7.352 -0.4163 -0.2867  0.7337
  730MOL0     C98448  13.057  11.620   7.241  0.5107  0.5335 -0.2734
  730MOL0     C98449  13.178  11.691   7.257 -0.3564 -0.4350  0.8632
  730MOL0     C98450  13.219  11.760   7.369  0.1900  0.4356 -0.2170
  730MOL0     O98451  13.352  11.790   7.371  0.9284 -0.3925 -0.6902
  730MOL0     C98452  13.405  11.838   7.496  0.0273  0.3898 -0.2598
  730MOL0     C98453  13.550  11.900   7.480 -0.0054 -0.1658 -0.0430
  730MOL0     C98454  13.597  11.959   7.611  0.7062  0.1339  0.5318
  730MOL0     C98455  13.742  12.007   7.611 -0.1511 -1.3554 -0.6212
  730MOL0     C98456  13.779  12.064   7.750  0.0545 -1.3987  0.7584
  730MOL0     C98457  13.918  12.129   7.743 -0.2783 -0.6804 -0.0457
  730MOL0     C98458  13.952  12.216   7.857 -0.5980 -0.2606 -0.8535
  730MOL0     C98459  13.882  12.351   7.875 -0.5916 -0.5299  0.2197
  730MOL0    Cl98460  13.997  12.488   7.892  0.3076  0.1000  0.0769
  730MOL0     C98461  13.124  11.758   7.476 -0.5325  0.2209  0.7586
  730MOL0     C98462  13.009  11.686   7.474  0.2596 -0.5566  1.0049
  730MOL0     O98463  12.697  11.624   7.505  0.1625  0.2776 -0.3714
  730MOL0     C98464  12.656  11.368   7.262  0.0303 -1.3786 -0.2327
  730MOL0     C98465  12.564  11.281   7.192 -0.1864 -0.4508 -0.2427
  730MOL0     N98466  12.026  10.786   6.977 -0.4379 -0.3461  0.4106
  730MOL0     N98467  11.933  10.785   6.894  0.2778 -0.0677  0.3087
  730MOL0     C98468  11.205  10.431   6.589 -0.9260 -0.0389  0.2418
  730MOL0     C98469  11.123  10.450   6.481 -0.0886 -0.6251 -0.4756
  730MOL0     C98470  10.756  10.649   6.272  0.9998  0.0715  0.3167
  730MOL0     C98471  10.673  10.764   6.257  1.0066 -0.3860 -0.1250
  730MOL0     C98472  10.608  10.802   6.130 -0.0629  0.5642 -0.5616
  730MOL0     C98473  10.609  10.712   6.025 -0.0279 -0.9854  0.7014
  730MOL0     O98474  10.535  10.755   5.912  0.4098 -0.4964 -0.1388
  730MOL0     C98475  10.524  10.673   5.797 -0.8331 -0.0077 -0.2144
  730MOL0     C98476  10.446  10.747   5.696  1.7063 -0.4431 -0.5408
  730MOL0     C98477  10.447  10.683   5.559  0.8747  0.2990  0.3747
  730MOL0     C98478  10.552  10.724   5.458 -0.4163 -1.1616 -0.1272
  730MOL0     C98479  10.570  10.869   5.441 -0.1578 -0.9810 -0.1159
  730MOL0     C98480  10.580  10.991   5.411  0.3150  0.1651  0.4429
  730MOL0     C98481  10.672  10.587   6.041  0.5644  1.0009 -0.1103
  730MOL0     C98482  10.751  10.569   6.157  0.3331 -0.0116 -0.6769
  730MOL0     H98483  10.845  10.517   6.627 -0.3398  0.5822  3.7924
  730MOL0     H98484  10.980  10.443   6.837  0.8387 -2.4557  0.3988
  730MOL0     H98485  11.190  10.439   7.029  2.2794 -0.1173  0.6519
  730MOL0     H98486  11.100  10.309   6.948 -1.1204 -0.1077  4.3198
  730MOL0     H98487  11.240  10.204   7.100 -1.3429  1.9344  1.5359
  730MOL0     H98488  11.341  10.194   6.955  0.9846  1.2247 -1.7305
  730MOL0     H98489  11.348  10.395   7.180 -1.7881 -1.0786  1.4848
  730MOL0     H98490  11.447  10.253   7.176  1.2767  0.5847 -0.6847
  730MOL0     H98491  11.610  10.414   7.118 -1.2620 -0.8277  1.6649
  730MOL0     H98492  11.546  10.372   6.952 -1.7724  0.1269 -1.3267
  730MOL0     H98493  11.394  10.565   6.971  0.9648  0.5221 -1.6671
  730MOL0     H98494  11.477  10.600   7.133  1.1847 -1.1032  0.6161
  730MOL0     H98495  11.681  10.581   7.010  0.2364  0.2138  1.7273
  730MOL0     H98496  11.588  10.589   6.859 -2.7550  1.4221  0.6789
  730MOL0     H98497  11.488  10.815   6.928 -0.7930 -1.1169  2.3833
  730MOL0     H98498  11.583  10.802   7.077 -1.1816  0.7267 -0.7794
  730MOL0     H98499  11.669  10.958   6.928 -0.9597 -0.3292  1.9668
  730MOL0     H98500  11.690  10.837   6.803  0.6464  0.1250 -0.4570
  730MOL0     H98501  11.805  10.882   7.186  0.7176 -2.7625  2.8228
  730MOL0     H98502  12.018  10.811   7.319 -0.5195  0.4535 -0.8389
  730MOL0     H98503  12.138  10.718   7.228 -1.2508 -0.6736  1.7988
  730MOL0     H98504  12.248  10.881   7.317 -0.5395  1.0004  2.3281
  730MOL0     H98505  12.119  11.003   7.287 -1.4814 -0.9477  0.0447
  730MOL0     H98506  12.205  11.011   7.044 -1.9949  2.7458  1.9950
  730MOL0     H98507  12.320  10.881   7.087 -1.6405  0.8444 -1.7575
  730MOL0     H98508  12.439  11.071   7.067 -0.0135 -2.9010 -0.2802
  730MOL0     H98509  12.423  11.042   7.243 -3.4158  1.2957  1.2711
  730MOL0     H98510  12.288  11.384   7.366 -0.3941  1.5816 -0.7807
  730MOL0     H98511  12.306  11.575   7.485  0.3320 -3.6243  1.6534
  730MOL0     H98512  12.467  11.559   7.563  2.9450 -3.1716 -1.6306
  730MOL0     H98513  12.446  11.677   7.432  1.9467 -0.1653  0.8244
  730MOL0     H98514  13.045  11.576   7.142 -1.9578 -1.5964  0.8362
  730MOL0     H98515  13.250  11.690   7.176  1.7597  4.7624  2.2607
  730MOL0     H98516  13.333  11.910   7.538  0.7540  0.4404  0.9387
  730MOL0     H98517  13.404  11.743   7.551 -0.6854  1.3249  1.4411
  730MOL0     H98518  13.625  11.823   7.458  3.0021  1.6054  3.1552
  730MOL0     H98519  13.555  11.980   7.406 -0.4652 -0.6102 -0.5654
  730MOL0     H98520  13.585  11.892   7.696 -1.1105 -3.8122 -2.5114
  730MOL0     H98521  13.532  12.045   7.630  0.6440  0.8314 -2.3872
  730MOL0     H98522  13.814  11.929   7.586  1.2262 -0.5657  0.7459
  730MOL0     H98523  13.744  12.081   7.530  1.5414  0.3396  0.8813
  730MOL0     H98524  13.770  11.982   7.822  1.0141 -1.9175  0.3005
  730MOL0     H98525  13.716  12.145   7.788  2.3302  1.5821 -1.3601
  730MOL0     H98526  13.995  12.051   7.744 -1.1236 -1.5506  1.3254
  730MOL0     H98527  13.939  12.199   7.662  0.1070 -1.6668 -0.8137
  730MOL0     H98528  14.056  12.246   7.843 -0.2224 -0.9203  0.4372
  730MOL0     H98529  13.952  12.169   7.955  2.1114  0.7594 -0.2807
  730MOL0     H98530  13.808  12.358   7.955  1.7021  0.0108  2.4064
  730MOL0     H98531  13.826  12.373   7.783  1.1357  1.0714 -0.5140
  730MOL0     H98532  13.151  11.827   7.555 -0.3960  1.5000 -0.3599
  730MOL0     H98533  12.940  11.676   7.557 -1.1358 -4.5802 -0.3548
  730MOL0     H98534  12.762  11.359   7.239  0.1434  0.5749 -0.6071
  730MOL0     H98535  12.611  11.214   7.120 -0.3747 -2.0133  1.0110
  730MOL0     H98536  11.308  10.409   6.562 -1.7299 -2.8341 -0.9175
  730MOL0     H98537  11.165  10.451   6.382  0.1880 -1.7880 -0.3951
  730MOL0     H98538  10.667  10.839   6.335  2.6973 -0.5823  0.2361
  730MOL0     H98539  10.558  10.898   6.120  0.0557  0.5043 -1.9821
  730MOL0     H98540  10.625  10.648   5.760  0.1629  4.3546 -1.0191
  730MOL0     H98541  10.469  10.581   5.817 -0.8287  0.0110 -0.1185
  730MOL0     H98542  10.483  10.850   5.695 -1.5310  0.8989  2.1897
  730MOL0     H98543  10.343  10.740   5.731  0.8834 -2.0454 -2.9394
  730MOL0     H98544  10.351  10.700   5.510  1.1033 -1.2085 -0.6584
  730MOL0     H98545  10.447  10.574   5.570 -4.7095 -0.1360 -0.8951
  730MOL0     H98546  10.535  10.674   5.362 -0.1387 -1.3737 -0.0670
  730MOL0     H98547  10.645  10.679   5.494 -1.0011 -2.7075 -0.4487
  730MOL0     H98548  10.604  11.094   5.395 -0.0148  0.2345  0.3825
  730MOL0     H98549  10.660  10.514   5.962 -1.9511  0.3983  0.7350
  730MOL0     H98550  10.807  10.476   6.165  0.0175 -0.1546 -0.0559
  731MOL0     O98551  10.181   4.381   7.063 -0.0016 -0.0540  0.8703
  731MOL0     C98552  10.145   4.436   6.960  0.7817  0.3373  0.5813
  731MOL0     O98553  10.220   4.512   6.865  0.3049  0.1683 -0.1924
  731MOL0     C98554  10.351   4.539   6.874 -0.1794  0.3848 -0.7173
  731MOL0     C98555  10.442   4.448   6.931  0.2434  0.5730 -0.8879
  731MOL0     C98556  10.575   4.494   6.931  0.2480 -0.3690 -0.1577
  731MOL0     C98557  10.619   4.618   6.888  0.2449  0.6797 -1.5890
  731MOL0     O98558  10.759   4.647   6.913 -0.1744  0.0140  0.2323
  731MOL0     C98559  10.809   4.755   6.836 -0.2942 -0.5209  0.5900
  731MOL0     C98560  10.955   4.794   6.855 -0.7121  0.8762 -1.5543
  731MOL0     C98561  10.995   4.842   6.993 -0.2707  0.5810 -0.8118
  731MOL0     C98562  10.968   4.994   7.013 -0.3272 -0.1688 -0.0611
  731MOL0     C98563  10.864   5.012   7.121 -0.1403 -0.3151 -0.3386
  731MOL0     C98564  10.912   4.961   7.266  0.1172  0.1010  0.1508
  731MOL0     C98565  11.039   5.036   7.314  0.3131  0.6747  0.4475
  731MOL0     C98566  11.044   5.036   7.470 -0.8500  0.1670 -0.2407
  731MOL0     N98567  11.149   5.110   7.544 -0.3748  0.6367  0.2462
  731MOL0     C98568  11.172   5.246   7.535  0.2264  0.4974  1.0025
  731MOL0     C98569  11.244   5.282   7.641 -1.1260  0.5890  0.2560
  731MOL0     C98570  11.289   5.429   7.666  0.0072 -0.5578 -0.3482
  731MOL0     C98571  11.225   5.527   7.568  0.1155 -0.4475 -0.1645
  731MOL0     C98572  11.258   5.658   7.633 -0.1034 -1.2139  0.2563
  731MOL0     C98573  11.195   5.763   7.542 -0.7458  0.1871 -1.0820
  731MOL0     O98574  11.050   5.758   7.565 -0.2339 -0.1601  0.8807
  731MOL0     C98575  10.989   5.884   7.563  0.5189 -0.2359 -0.2654
  731MOL0     C98576  10.982   5.958   7.683  1.0116  0.6042  0.1204
  731MOL0     C98577  10.925   6.087   7.694  0.8898 -0.0442 -0.2458
  731MOL0     C98578  10.905   6.155   7.831 -0.4655  1.2316  0.3611
  731MOL0     C98579  10.873   6.147   7.575 -0.9301 -0.0759 -0.8352
  731MOL0     C98580  10.792   6.282   7.583 -0.2847 -0.1454  1.1246
  731MOL0     O98581  10.809   6.374   7.683 -1.0048 -0.4225  0.1278
  731MOL0     C98582  10.762   6.497   7.700  0.2513 -0.0823  0.9519
  731MOL0     C98583  10.731   6.582   7.595 -0.6385 -0.1621  0.7439
  731MOL0     C98584  10.683   6.711   7.617  0.1075 -0.4616  0.2851
  731MOL0     C98585  10.660   6.760   7.746 -0.9160  1.1227  0.8763
  731MOL0     O98586  10.614   6.884   7.745  0.8197  0.4468 -0.0064
  731MOL0     C98587  10.586   6.944   7.873  0.7895  0.0047 -0.8037
  731MOL0     C98588  10.521   7.073   7.845 -0.7427  0.7780  0.2354
  731MOL0     C98589  10.398   7.049   7.753 -0.3134 -0.1022 -0.2480
  731MOL0     C98590  10.300   7.170   7.767  0.4784 -0.2660  0.2835
  731MOL0     C98591  10.174   7.139   7.693  1.6928  0.8648 -0.7199
  731MOL0     C98592  10.051   7.071   7.773  0.6356 -0.8099  0.2036
  731MOL0     C98593   9.971   7.164   7.863 -0.3846  0.2232  0.1686
  731MOL0     C98594   9.926   7.302   7.816 -0.5237 -0.4677  0.5689
  731MOL0    Cl98595   9.813   7.305   7.675  0.1356  0.1058  0.0942
  731MOL0     C98596  10.687   6.670   7.852 -0.0381  0.8323 -0.4744
  731MOL0     C98597  10.750   6.546   7.835 -0.6732 -0.2944  0.4702
  731MOL0     O98598  10.712   6.293   7.492 -0.6324 -0.8444 -0.0933
  731MOL0     C98599  10.875   6.074   7.456 -0.6594 -0.4576 -0.2866
  731MOL0     C98600  10.944   5.942   7.448  0.2898 -0.2662  0.8404
  731MOL0     N98601  11.282   5.167   7.718 -0.4192 -0.2216 -0.0750
  731MOL0     N98602  11.216   5.070   7.662 -0.5955  0.1709 -0.0174
  731MOL0     C98603  10.523   4.707   6.832 -0.0300  0.8950 -1.2217
  731MOL0     C98604  10.388   4.672   6.834 -0.6519  0.1245  0.2995
  731MOL0     C98605  10.001   4.419   6.931 -1.3678  0.9134  0.2954
  731MOL0     C98606   9.948   4.405   6.800  0.5263  0.6896  0.2969
  731MOL0     C98607   9.814   4.375   6.773 -0.8897  1.0289 -0.1018
  731MOL0     C98608   9.723   4.365   6.880 -0.3107  0.3664  0.2736
  731MOL0     O98609   9.586   4.355   6.869 -0.4476  0.4451 -0.2477
  731MOL0     C98610   9.524   4.405   6.754 -0.1222  0.6510 -0.2653
  731MOL0     C98611   9.373   4.373   6.761  0.5435 -0.0569 -0.2870
  731MOL0     C98612   9.289   4.458   6.860  0.7600 -0.1928 -0.7556
  731MOL0     C98613   9.148   4.419   6.863 -0.7684 -0.0880 -0.3692
  731MOL0     C98614   9.064   4.468   6.749  0.6238  0.3841 -1.5977
  731MOL0     C98615   8.997   4.490   6.654  0.3078  0.6608 -0.3668
  731MOL0     C98616   9.771   4.367   7.013  0.2087 -0.1119 -0.0393
  731MOL0     C98617   9.911   4.388   7.037  0.3614 -0.7184 -0.4274
  731MOL0     H98618  10.401   4.357   6.973  0.8964  0.0588 -1.3494
  731MOL0     H98619  10.651   4.434   6.980  0.8633  1.1421  0.8241
  731MOL0     H98620  10.799   4.749   6.728 -1.5683 -1.3066  0.7356
  731MOL0     H98621  10.750   4.844   6.859 -0.0153 -0.3626  0.7011
  731MOL0     H98622  11.021   4.715   6.816  0.7967  1.2701  0.0854
  731MOL0     H98623  10.979   4.867   6.777 -1.1142  1.6166 -0.9900
  731MOL0     H98624  10.936   4.780   7.062 -2.0446 -1.4922 -3.9637
  731MOL0     H98625  11.102   4.836   7.015 -0.5747 -0.3119  0.5814
  731MOL0     H98626  11.058   5.034   7.060  0.1978 -0.8183 -0.4831
  731MOL0     H98627  10.946   5.044   6.919 -3.0441 -2.0066 -0.5196
  731MOL0     H98628  10.839   5.117   7.134  0.6647 -0.3055  1.3784
  731MOL0     H98629  10.772   4.959   7.097 -2.0050  1.3632  2.5516
  731MOL0     H98630  10.833   4.980   7.339  1.1339  0.5313  1.1776
  731MOL0     H98631  10.926   4.852   7.265 -0.3743 -0.0298  2.1014
  731MOL0     H98632  11.125   4.999   7.258 -0.9778 -0.2363 -1.0326
  731MOL0     H98633  11.025   5.142   7.290 -0.2533  0.9132  1.7423
  731MOL0     H98634  11.057   4.931   7.499 -0.5944  0.2175 -0.1697
  731MOL0     H98635  10.946   5.074   7.499 -0.9713  0.5004 -1.0621
  731MOL0     H98636  11.112   5.298   7.462 -0.0643 -1.2955 -0.1087
  731MOL0     H98637  11.278   5.454   7.772 -1.0453  2.0533 -0.9979
  731MOL0     H98638  11.396   5.415   7.645 -0.5140 -3.1949 -1.5593
  731MOL0     H98639  11.117   5.514   7.561  0.1611 -0.2230 -1.6363
  731MOL0     H98640  11.287   5.513   7.479  3.6836 -2.1551  2.3144
  731MOL0     H98641  11.364   5.682   7.645 -0.2014 -0.9143  0.5670
  731MOL0     H98642  11.215   5.661   7.734  2.3001  0.0905  1.3313
  731MOL0     H98643  11.211   5.744   7.435  4.5942  0.2898 -0.5556
  731MOL0     H98644  11.236   5.862   7.563 -0.4742  0.0727 -1.0700
  731MOL0     H98645  11.012   5.898   7.769 -1.4804  2.0939  2.1885
  731MOL0     H98646  10.802   6.185   7.850 -0.6325  2.0816 -1.6688
  731MOL0     H98647  10.934   6.080   7.905 -0.1066  0.6556 -0.3584
  731MOL0     H98648  10.981   6.234   7.839 -0.2833  0.8607  3.6862
  731MOL0     H98649  10.747   6.555   7.491 -0.2478  2.5439  0.0082
  731MOL0     H98650  10.669   6.783   7.537  0.5747 -1.6521 -0.9064
  731MOL0     H98651  10.524   6.881   7.939  1.2825  0.0342 -0.3078
  731MOL0     H98652  10.672   6.959   7.939 -1.1970  2.1719  1.5469
  731MOL0     H98653  10.495   7.123   7.938  0.3550  3.6196 -0.8722
  731MOL0     H98654  10.591   7.142   7.798  1.2917 -1.0210  0.4797
  731MOL0     H98655  10.335   6.968   7.789 -1.8371  1.0710 -0.1821
  731MOL0     H98656  10.429   7.025   7.650  1.5597  0.3827  0.1638
  731MOL0     H98657  10.279   7.188   7.873 -2.1993 -0.9853 -0.0512
  731MOL0     H98658  10.348   7.253   7.715  3.3173 -1.0161  1.5139
  731MOL0     H98659  10.199   7.080   7.604  3.1460 -1.5375  1.1528
  731MOL0     H98660  10.137   7.230   7.646 -1.3616  0.1215  0.0416
  731MOL0     H98661   9.975   7.060   7.695 -1.1763  1.3895  1.4830
  731MOL0     H98662  10.087   6.986   7.832  2.0195 -1.2738 -1.2514
  731MOL0     H98663  10.030   7.174   7.955  0.0671  2.3170 -0.2940
  731MOL0     H98664   9.883   7.106   7.892  0.5085 -2.6339 -2.3616
  731MOL0     H98665  10.019   7.352   7.787 -1.5810  0.8802 -0.5908
  731MOL0     H98666   9.896   7.352   7.909  2.1260 -1.2194  1.9694
  731MOL0     H98667  10.688   6.709   7.953  3.6723 -0.4499  0.1525
  731MOL0     H98668  10.768   6.492   7.927  0.1792  0.3454  0.6886
  731MOL0     H98669  10.831   6.119   7.368 -3.3453  0.0263  1.1933
  731MOL0     H98670  10.942   5.894   7.350 -0.6318  0.5627  0.4378
  731MOL0     H98671  10.552   4.801   6.787  1.1181 -0.9908 -4.8382
  731MOL0     H98672  10.307   4.744   6.828 -1.3309 -0.6426  0.0069
  731MOL0     H98673  10.014   4.414   6.714  0.9823  0.9502  0.6739
  731MOL0     H98674   9.778   4.363   6.671  0.1268  3.4007 -0.8087
  731MOL0     H98675   9.551   4.511   6.745  0.5619  0.7634  2.2192
  731MOL0     H98676   9.563   4.353   6.667  1.9710 -0.0919  1.0503
  731MOL0     H98677   9.356   4.267   6.781  2.8322 -0.0160  2.3806
  731MOL0     H98678   9.346   4.391   6.656 -1.4319 -3.9914 -0.6409
  731MOL0     H98679   9.286   4.564   6.836  2.8631  0.1918  0.4393
  731MOL0     H98680   9.334   4.446   6.959  3.6691 -1.9907 -2.1399
  731MOL0     H98681   9.117   4.467   6.957 -1.4851 -1.4692  0.1249
  731MOL0     H98682   9.143   4.311   6.874 -1.2389 -0.0143  0.2262
  731MOL0     H98683   8.957   4.520   6.559 -4.2370 -1.9590  0.4735
  731MOL0     H98684   9.702   4.353   7.095 -0.2958 -0.6133 -0.5436
  731MOL0     H98685   9.942   4.390   7.141  3.0282  1.4858 -1.1565
  732MOL0     O98686   5.911  10.508  11.499  0.9380  0.3328  0.2546
  732MOL0     C98687   5.791  10.500  11.489  0.6928  0.0741  0.8932
  732MOL0     O98688   5.692  10.575  11.566 -0.7811 -0.3256  0.8311
  732MOL0     C98689   5.741  10.686  11.634  0.3521 -0.0594 -0.3286
  732MOL0     C98690   5.680  10.722  11.761 -0.7938  0.4144 -0.9569
  732MOL0     C98691   5.732  10.832  11.827 -0.0692 -0.0787 -0.2916
  732MOL0     C98692   5.834  10.916  11.767  0.0422  0.1116  0.5626
  732MOL0     O98693   5.864  11.017  11.862 -1.2105  0.2445 -0.0659
  732MOL0     C98694   5.969  11.117  11.828  0.2615 -0.0667 -0.6435
  732MOL0     C98695   5.989  11.207  11.956 -0.5222  0.4745  0.8301
  732MOL0     C98696   6.112  11.299  11.941 -0.1800 -0.4626 -0.0400
  732MOL0     C98697   6.164  11.338  12.077 -0.9557 -0.8372  0.5023
  732MOL0     C98698   6.270  11.453  12.073  0.6636  0.6922 -0.1870
  732MOL0     C98699   6.378  11.440  12.171 -0.3582 -0.4249 -1.2537
  732MOL0     C98700   6.318  11.472  12.316 -0.4117  0.3832  0.2419
  732MOL0     C98701   6.437  11.446  12.406 -0.2362 -0.0379 -0.0076
  732MOL0     N98702   6.418  11.525  12.522  0.1192  0.7029  0.5749
  732MOL0     C98703   6.416  11.671  12.520  0.2963  0.6176 -0.0452
  732MOL0     C98704   6.420  11.701  12.656  0.0341 -0.0245  0.4364
  732MOL0     C98705   6.441  11.837  12.716  0.0604 -0.0148 -0.5606
  732MOL0     C98706   6.509  11.932  12.626 -0.4562 -0.9167 -0.1134
  732MOL0     C98707   6.536  12.059  12.707  0.8550  0.5506  0.0994
  732MOL0     C98708   6.574  12.178  12.619 -0.2438  0.4748  1.0567
  732MOL0     O98709   6.704  12.139  12.579  0.3662 -0.4710 -0.2110
  732MOL0     C98710   6.771  12.187  12.477 -0.8263  0.1413  1.5068
  732MOL0     C98711   6.901  12.144  12.443  0.4748  0.3949 -0.6732
  732MOL0     C98712   6.993  12.207  12.356 -0.8733  0.0224  0.8273
  732MOL0     C98713   7.131  12.151  12.367  0.1903 -0.6752  0.1567
  732MOL0     C98714   6.947  12.312  12.276  0.1445 -1.7667 -0.3041
  732MOL0     C98715   7.037  12.397  12.190 -0.3082 -0.3492  0.6779
  732MOL0     O98716   7.005  12.530  12.189  0.7733 -0.8449 -0.5206
  732MOL0     C98717   7.084  12.621  12.126  1.5419  0.0992 -0.5211
  732MOL0     C98718   7.023  12.728  12.068  0.1295  1.4316  0.9058
  732MOL0     C98719   7.091  12.834  12.013 -0.5896 -0.2864  0.4384
  732MOL0     C98720   7.234  12.826  12.008 -0.2647 -0.4156 -0.3700
  732MOL0     O98721   7.299  12.935  11.967  0.0712 -0.1497  0.1709
  732MOL0     C98722   7.392  12.902  11.858  0.2384 -0.2280 -0.9901
  732MOL0     C98723   7.483  13.024  11.844  0.1631 -0.1648  0.7281
  732MOL0     C98724   7.588  13.017  11.957  0.0920  0.4810  0.6086
  732MOL0     C98725   7.638  13.157  11.982  0.6186 -0.7313 -0.4480
  732MOL0     C98726   7.790  13.158  12.006  0.4696 -0.1570  0.6351
  732MOL0     C98727   7.835  13.247  12.119 -0.3730 -0.9663  0.4726
  732MOL0     C98728   7.812  13.395  12.102 -0.8257  0.1494 -0.1786
  732MOL0     C98729   7.892  13.480  12.202 -0.7816  0.1802  0.4536
  732MOL0    Cl98730   7.826  13.438  12.356 -0.0459 -0.3351 -0.4185
  732MOL0     C98731   7.302  12.726  12.075  0.1303  0.2892  0.0711
  732MOL0     C98732   7.221  12.634  12.150  0.2656 -0.5290  0.3694
  732MOL0     O98733   7.144  12.347  12.141  0.6661  0.0287  0.7394
  732MOL0     C98734   6.824  12.373  12.324  0.6891  0.2571 -0.0380
  732MOL0     C98735   6.738  12.308  12.409 -0.4556  0.1108 -0.3880
  732MOL0     N98736   6.407  11.583  12.731  0.0479  1.0098  0.3208
  732MOL0     N98737   6.401  11.482  12.649  0.3822  0.4557 -0.1269
  732MOL0     C98738   5.889  10.883  11.646  0.8741  0.0330  0.3584
  732MOL0     C98739   5.841  10.770  11.579  0.7695  0.2516  0.3911
  732MOL0     C98740   5.730  10.387  11.419 -0.0586 -0.1738  0.5230
  732MOL0     C98741   5.801  10.265  11.403  0.0159 -0.1247  0.1484
  732MOL0     C98742   5.750  10.161  11.325 -0.2030 -0.1755 -1.3399
  732MOL0     C98743   5.612  10.173  11.285  0.3135  0.5131  0.1993
  732MOL0     O98744   5.543  10.073  11.228 -0.0674  0.3401  0.9649
  732MOL0     C98745   5.607  10.030  11.115 -0.1312  0.4084 -0.7078
  732MOL0     C98746   5.679   9.899  11.144 -1.0005 -0.4236  0.2199
  732MOL0     C98747   5.710   9.819  11.017 -0.6840 -0.2433  0.1111
  732MOL0     C98748   5.724   9.673  11.054 -0.8372 -0.0540 -0.3838
  732MOL0     C98749   5.781   9.588  10.940 -0.5683  0.0623  0.3683
  732MOL0     C98750   5.823   9.506  10.859  0.4726 -0.6868 -0.4093
  732MOL0     C98751   5.539  10.286  11.313 -0.2408 -0.3904  1.2341
  732MOL0     C98752   5.601  10.395  11.358  1.0446  0.0256 -0.4345
  732MOL0     H98753   5.609  10.652  11.805  0.9912 -0.8992 -0.0491
  732MOL0     H98754   5.695  10.856  11.927  1.6372 -1.4454  0.7283
  732MOL0     H98755   6.068  11.071  11.812  1.6476  0.8390  3.8501
  732MOL0     H98756   5.949  11.178  11.739 -1.5656  3.3274  1.9011
  732MOL0     H98757   5.903  11.272  11.973 -0.5112  0.9879 -0.8932
  732MOL0     H98758   6.004  11.140  12.041 -0.2537  1.2514  1.4026
  732MOL0     H98759   6.202  11.253  11.898 -0.3596  0.8349 -1.9309
  732MOL0     H98760   6.093  11.392  11.886  2.1427 -0.5156 -1.0848
  732MOL0     H98761   6.084  11.364  12.147  1.7875 -1.0144  3.9848
  732MOL0     H98762   6.213  11.249  12.117 -1.5468 -1.5127 -0.2523
  732MOL0     H98763   6.323  11.448  11.977  1.3552  0.8704  0.1759
  732MOL0     H98764   6.219  11.548  12.084 -0.8938 -0.4524  5.0397
  732MOL0     H98765   6.435  11.347  12.165  1.1957  0.2736  1.1415
  732MOL0     H98766   6.447  11.522  12.149 -1.0345  0.7664  0.7926
  732MOL0     H98767   6.274  11.572  12.316 -2.5132 -0.4783 -0.2580
  732MOL0     H98768   6.237  11.406  12.349  0.5111  0.1115  2.0644
  732MOL0     H98769   6.534  11.481  12.370 -0.2846  0.4121  0.2884
  732MOL0     H98770   6.441  11.340  12.432 -0.2921 -0.1934 -0.6169
  732MOL0     H98771   6.434  11.724  12.427 -3.3899 -1.5938 -2.2607
  732MOL0     H98772   6.348  11.881  12.754 -0.6219 -0.8010 -1.2632
  732MOL0     H98773   6.511  11.819  12.797  1.3600 -2.7630 -2.1502
  732MOL0     H98774   6.432  11.959  12.553  0.5800  1.6630 -0.3721
  732MOL0     H98775   6.594  11.906  12.563 -2.1231  0.5460 -3.2328
  732MOL0     H98776   6.616  12.052  12.781 -1.2478 -1.1071  2.3536
  732MOL0     H98777   6.444  12.085  12.760  1.3581  0.4464  1.0368
  732MOL0     H98778   6.591  12.265  12.683  2.6158  1.1516 -0.4676
  732MOL0     H98779   6.508  12.189  12.533  3.0576  0.4778 -1.7093
  732MOL0     H98780   6.927  12.051  12.492 -2.8483  0.9560  2.6813
  732MOL0     H98781   7.206  12.226  12.340 -0.5133  1.1583  2.8799
  732MOL0     H98782   7.143  12.121  12.471  2.8293 -0.4028 -0.0089
  732MOL0     H98783   7.126  12.068  12.296 -0.6601  0.2812 -0.9391
  732MOL0     H98784   6.915  12.724  12.052  0.2483 -1.1657  0.3445
  732MOL0     H98785   7.045  12.909  11.949  0.9116  0.4627  0.1752
  732MOL0     H98786   7.446  12.808  11.878 -3.0882 -1.6777  2.6145
  732MOL0     H98787   7.328  12.895  11.771  1.5435 -3.4557 -1.8677
  732MOL0     H98788   7.526  13.037  11.744 -1.4932 -1.3843 -0.2063
  732MOL0     H98789   7.422  13.114  11.849  2.0059  1.4806 -2.8620
  732MOL0     H98790   7.668  12.948  11.929 -0.1670  0.1024  0.7878
  732MOL0     H98791   7.547  12.987  12.054  1.6491  0.7884  1.3951
  732MOL0     H98792   7.617  13.215  11.892  0.8336  1.6146  0.9169
  732MOL0     H98793   7.579  13.203  12.062 -1.7202 -0.8571 -1.9857
  732MOL0     H98794   7.852  13.184  11.919  0.5589 -0.3574  0.6356
  732MOL0     H98795   7.820  13.053  12.013 -2.0435 -1.2816 -2.6182
  732MOL0     H98796   7.786  13.213  12.210  1.5558  2.0856  2.8519
  732MOL0     H98797   7.942  13.238  12.142 -0.4220 -0.1226  1.0748
  732MOL0     H98798   7.706  13.418  12.117 -1.4814 -1.6120 -1.7874
  732MOL0     H98799   7.841  13.426  12.001  0.2837 -1.1953 -0.2970
  732MOL0     H98800   7.875  13.585  12.176 -1.2452 -0.4405 -2.0268
  732MOL0     H98801   7.999  13.458  12.208 -1.3954 -2.7449  2.5832
  732MOL0     H98802   7.410  12.733  12.076  0.0649  1.7147 -0.3161
  732MOL0     H98803   7.270  12.574  12.226 -1.8404 -0.3402  1.9808
  732MOL0     H98804   6.790  12.466  12.280  0.4231  1.7042  2.9891
  732MOL0     H98805   6.639  12.351  12.416  0.3460  2.2613 -1.3623
  732MOL0     H98806   5.966  10.938  11.594  1.2578 -0.0131  0.8619
  732MOL0     H98807   5.871  10.738  11.480 -2.5765 -4.0021  0.4283
  732MOL0     H98808   5.900  10.241  11.438  0.4600 -0.6830 -1.3980
  732MOL0     H98809   5.814  10.074  11.312 -0.0073 -0.6376  1.7517
  732MOL0     H98810   5.526   9.998  11.048  1.2473 -0.0785 -2.2299
  732MOL0     H98811   5.668  10.102  11.060  0.1485  1.9334  1.4807
  732MOL0     H98812   5.620   9.843  11.217  0.3510 -1.6390  0.4360
  732MOL0     H98813   5.775   9.926  11.188  0.6344 -3.3684 -1.1885
  732MOL0     H98814   5.788   9.865  10.956 -0.4230 -1.5451 -0.5777
  732MOL0     H98815   5.631   9.819  10.941  0.6425 -2.6260 -1.4039
  732MOL0     H98816   5.626   9.626  11.068 -1.1068 -0.4899 -3.1552
  732MOL0     H98817   5.783   9.663  11.146 -0.1540 -0.1185 -0.8193
  732MOL0     H98818   5.869   9.438  10.790  3.7756  1.3265 -0.3987
  732MOL0     H98819   5.434  10.284  11.284  0.0900  1.2622 -0.2336
  732MOL0     H98820   5.556  10.493  11.356 -1.2013 -0.9273 -0.1686
  733MOL0     O98821   1.354   7.456   4.482  0.0004 -0.3118  0.5282
  733MOL0     C98822   1.405   7.382   4.392  0.2329 -0.8152  0.5119
  733MOL0     O98823   1.360   7.363   4.259 -1.2782 -0.5013 -0.3636
  733MOL0     C98824   1.257   7.435   4.219  0.4368 -0.4603  0.2307
  733MOL0     C98825   1.270   7.567   4.168  0.0403  0.1511  0.0533
  733MOL0     C98826   1.157   7.641   4.132  0.0476 -0.5883 -0.4154
  733MOL0     C98827   1.027   7.590   4.146 -0.0782  0.3678 -1.1461
  733MOL0     O98828   0.923   7.673   4.106 -0.2427  0.5661 -0.4774
  733MOL0     C98829   0.787   7.643   4.135 -0.2088  0.4184  0.4007
  733MOL0     C98830   0.708   7.777   4.104 -0.2030  0.3723 -0.0034
  733MOL0     C98831   0.570   7.729   4.064 -0.0353 -0.2697 -0.0188
  733MOL0     C98832   0.483   7.836   4.007 -0.6129  0.0919 -0.4327
  733MOL0     C98833   0.332   7.793   3.985 -0.3331  0.4859 -0.5737
  733MOL0     C98834   0.328   7.659   3.926 -0.3278  0.4488  0.2294
  733MOL0     C98835   0.194   7.629   3.868 -0.4291 -1.2104 -0.0577
  733MOL0     C98836   0.132   7.709   3.751 -0.8604  0.3131 -0.3555
  733MOL0     N98837   0.159   7.660   3.618  0.0224 -0.2701 -0.6519
  733MOL0     C98838   0.174   7.524   3.594 -0.9192 -0.2105  0.8418
  733MOL0     C98839   0.151   7.515   3.460  0.3409  0.1894 -1.0579
  733MOL0     C98840   0.174   7.397   3.375  0.5539  0.2218 -0.1942
  733MOL0     C98841   0.047   7.326   3.347  0.1064  0.3695 -0.3393
  733MOL0     C98842  -0.023   7.392   3.228 -0.2107  0.6019 -0.2368
  733MOL0     C98843  -0.137   7.297   3.185 -0.4583  0.0247  0.6229
  733MOL0     O98844  -0.231   7.289   3.296  0.5627 -0.6701 -0.0214
  733MOL0     C98845  -0.333   7.200   3.289 -0.4095  0.2572 -0.2767
  733MOL0     C98846  -0.358   7.122   3.176  0.3411 -0.1090  0.1280
  733MOL0     C98847  -0.468   7.040   3.179  0.3135 -0.2744  0.3098
  733MOL0     C98848  -0.491   6.950   3.059 -0.0875 -0.4674  0.4844
  733MOL0     C98849  -0.555   7.018   3.293  0.5358  0.8509  0.0886
  733MOL0     C98850  -0.668   6.918   3.307 -0.1529 -0.2712 -0.2282
  733MOL0     O98851  -0.770   6.958   3.400 -0.8133 -0.0834  0.3197
  733MOL0     C98852  -0.892   6.896   3.384 -0.1188  0.2870  0.1532
  733MOL0     C98853  -0.988   6.947   3.297 -0.3907 -0.6891  0.3398
  733MOL0     C98854  -1.110   6.880   3.286  1.3538 -0.6002  0.5986
  733MOL0     C98855  -1.147   6.771   3.368 -0.1855 -0.6961  0.3596
  733MOL0     O98856  -1.270   6.712   3.343 -0.1973  0.1923 -0.0036
  733MOL0     C98857  -1.276   6.587   3.274 -0.1229  0.5388 -0.3110
  733MOL0     C98858  -1.378   6.489   3.340 -0.0184 -0.0394  0.1293
  733MOL0     C98859  -1.323   6.473   3.481  0.1870 -0.9780 -1.0142
  733MOL0     C98860  -1.410   6.379   3.559 -0.6859 -0.1876 -0.1652
  733MOL0     C98861  -1.331   6.328   3.683  0.1342 -0.4194  0.4183
  733MOL0     C98862  -1.385   6.198   3.740 -0.1644  0.3237  0.6179
  733MOL0     C98863  -1.286   6.122   3.823 -0.3960  1.4566  0.1648
  733MOL0     C98864  -1.350   6.013   3.915 -0.4664  0.5091  0.0690
  733MOL0    Cl98865  -1.449   5.882   3.817  0.1760  0.7659 -0.4277
  733MOL0     C98866  -1.045   6.731   3.461  0.1690 -0.0245  0.2287
  733MOL0     C98867  -0.929   6.792   3.473  0.3912 -0.6796  0.3821
  733MOL0     O98868  -0.665   6.815   3.238 -0.4499 -0.1665  0.4149
  733MOL0     C98869  -0.524   7.105   3.401  0.4138 -0.6800  0.1599
  733MOL0     C98870  -0.418   7.185   3.400  0.1767 -0.7193 -0.0399
  733MOL0     N98871   0.114   7.635   3.411  0.8882 -0.3372 -0.3905
  733MOL0     N98872   0.130   7.722   3.502 -0.9864 -0.6566 -1.1822
  733MOL0     C98873   1.011   7.460   4.203  0.1996 -0.9157 -0.0130
  733MOL0     C98874   1.127   7.391   4.244  0.1758  0.2294  0.3700
  733MOL0     C98875   1.509   7.292   4.430  0.0523  0.0409 -0.6161
  733MOL0     C98876   1.574   7.295   4.555 -0.1470 -0.0820 -0.7355
  733MOL0     C98877   1.673   7.209   4.593 -0.5904 -0.6207  0.5643
  733MOL0     C98878   1.707   7.103   4.510  0.5131  0.1485 -0.3339
  733MOL0     O98879   1.807   7.010   4.535  0.4409 -0.3526 -0.7637
  733MOL0     C98880   1.870   6.993   4.664 -0.5609 -0.0718  0.2581
  733MOL0     C98881   1.775   6.938   4.768  0.7555 -0.1057 -0.8138
  733MOL0     C98882   1.712   6.802   4.731  0.3916 -1.2465 -0.5472
  733MOL0     C98883   1.617   6.746   4.834  0.7133 -0.9678  0.8233
  733MOL0     C98884   1.505   6.671   4.783 -0.8919  0.7920 -0.0532
  733MOL0     C98885   1.406   6.625   4.732 -0.9496 -0.3490  0.8604
  733MOL0     C98886   1.650   7.095   4.385  0.7718  0.6598 -0.8581
  733MOL0     C98887   1.549   7.186   4.348  1.3327  0.8671 -0.0305
  733MOL0     H98888   1.364   7.621   4.167  0.4546 -0.5280  0.8323
  733MOL0     H98889   1.173   7.746   4.109 -0.5028 -1.2279 -4.3748
  733MOL0     H98890   0.754   7.573   4.057 -1.7837  3.6055 -2.0632
  733MOL0     H98891   0.768   7.603   4.235  0.6296  1.0020  0.8007
  733MOL0     H98892   0.718   7.848   4.187  0.2116  2.4625 -1.7424
  733MOL0     H98893   0.747   7.831   4.017  1.3003 -3.0478 -1.6313
  733MOL0     H98894   0.580   7.649   3.990 -3.1224  0.7140 -1.6642
  733MOL0     H98895   0.515   7.693   4.152 -0.6079  0.6385  0.0014
  733MOL0     H98896   0.486   7.921   4.076 -0.9806 -1.6791  1.9156
  733MOL0     H98897   0.529   7.872   3.915  0.2432  1.5964  0.5472
  733MOL0     H98898   0.279   7.797   4.081 -0.0563 -1.0710 -0.3206
  733MOL0     H98899   0.287   7.876   3.931  0.5609  0.5565 -1.2348
  733MOL0     H98900   0.410   7.639   3.856 -1.1976  1.0985 -1.0108
  733MOL0     H98901   0.346   7.582   4.001  0.8349  0.2144 -0.2706
  733MOL0     H98902   0.204   7.522   3.850  1.9559 -0.9649 -0.5465
  733MOL0     H98903   0.122   7.651   3.948 -1.6036  0.5097 -1.5064
  733MOL0     H98904   0.146   7.817   3.758 -1.0446  0.4170 -1.5003
  733MOL0     H98905   0.023   7.707   3.762 -1.0853 -0.6879 -2.2908
  733MOL0     H98906   0.223   7.447   3.653  0.9589 -0.5952 -1.1103
  733MOL0     H98907   0.230   7.423   3.285 -2.7856 -0.7584 -2.7947
  733MOL0     H98908   0.243   7.329   3.425  0.2987 -1.3531 -1.8960
  733MOL0     H98909  -0.013   7.344   3.437  0.4486 -4.1629  1.0256
  733MOL0     H98910   0.064   7.219   3.333 -2.0868  0.1572 -1.7642
  733MOL0     H98911   0.050   7.400   3.147 -1.1306 -0.3180 -1.1897
  733MOL0     H98912  -0.064   7.492   3.242  2.4607  2.3771 -3.5027
  733MOL0     H98913  -0.089   7.199   3.172 -2.8383 -1.2409  0.6860
  733MOL0     H98914  -0.167   7.324   3.083 -1.6634 -3.3738 -0.0731
  733MOL0     H98915  -0.297   7.122   3.086  0.0890 -1.3833 -0.0537
  733MOL0     H98916  -0.439   6.854   3.070  0.0122 -0.2904  1.5853
  733MOL0     H98917  -0.596   6.930   3.034 -0.2130  0.5115  0.1647
  733MOL0     H98918  -0.450   6.991   2.966 -1.6010 -1.9295 -0.8975
  733MOL0     H98919  -0.950   7.021   3.228  0.2092 -2.8425 -1.7643
  733MOL0     H98920  -1.166   6.920   3.203 -0.7598 -1.2099  1.6632
  733MOL0     H98921  -1.308   6.603   3.170 -1.7095 -3.5515 -0.6475
  733MOL0     H98922  -1.177   6.541   3.269  0.8313  2.0988  2.3266
  733MOL0     H98923  -1.477   6.536   3.338  0.1600  0.3372 -1.1040
  733MOL0     H98924  -1.375   6.396   3.282 -2.0405 -0.1735  0.1796
  733MOL0     H98925  -1.310   6.566   3.538  0.1646 -3.5627  3.7983
  733MOL0     H98926  -1.223   6.430   3.477  0.4745 -0.8787  2.0985
  733MOL0     H98927  -1.505   6.423   3.590 -1.3696 -1.2854 -0.6275
  733MOL0     H98928  -1.436   6.296   3.492  1.7831 -1.5560  0.4107
  733MOL0     H98929  -1.336   6.412   3.754  1.4888  0.3800 -0.3830
  733MOL0     H98930  -1.223   6.319   3.670  0.6812 -1.2865  4.3613
  733MOL0     H98931  -1.478   6.211   3.795  1.3359  4.4485  2.5878
  733MOL0     H98932  -1.409   6.128   3.660 -3.0676  0.0803  1.5789
  733MOL0     H98933  -1.227   6.187   3.888 -0.2201  1.5397 -0.0747
  733MOL0     H98934  -1.205   6.073   3.769  0.1430  2.0628  0.4013
  733MOL0     H98935  -1.402   6.081   3.983 -0.4336  1.5669 -0.9255
  733MOL0     H98936  -1.282   5.961   3.983 -1.3614  0.0051  0.5891
  733MOL0     H98937  -1.064   6.663   3.543  3.0614 -2.0006 -0.5885
  733MOL0     H98938  -0.848   6.772   3.543  1.3372  1.0644 -0.1605
  733MOL0     H98939  -0.580   7.096   3.493 -0.9610  0.7174 -0.4893
  733MOL0     H98940  -0.397   7.253   3.482 -1.4852 -0.2098 -0.0141
  733MOL0     H98941   0.905   7.437   4.213  0.0191  0.0287  0.3265
  733MOL0     H98942   1.121   7.290   4.283  0.3606  0.3368  0.6785
  733MOL0     H98943   1.530   7.355   4.634 -0.5335 -0.9823 -0.2457
  733MOL0     H98944   1.710   7.200   4.694 -2.0460 -0.3354  1.1380
  733MOL0     H98945   1.954   6.924   4.650 -1.0112 -0.9875  1.8250
  733MOL0     H98946   1.916   7.084   4.705  0.3942 -1.6238  2.8717
  733MOL0     H98947   1.700   7.016   4.783  3.3224  2.4451 -0.2628
  733MOL0     H98948   1.826   6.932   4.864  0.7355  0.3855 -0.7675
  733MOL0     H98949   1.787   6.727   4.705  0.4497 -0.7843 -1.7932
  733MOL0     H98950   1.658   6.829   4.639 -0.1267 -1.8134 -0.4137
  733MOL0     H98951   1.568   6.835   4.874 -3.8987 -1.9518 -1.8358
  733MOL0     H98952   1.669   6.688   4.911  1.3827  0.2706  1.3275
  733MOL0     H98953   1.317   6.581   4.690 -1.0573  1.2373 -0.7156
  733MOL0     H98954   1.667   7.008   4.323  0.5965  0.7466 -1.0286
  733MOL0     H98955   1.508   7.161   4.251 -2.8686  0.0222  1.7656
  734MOL0     O98956   6.573   0.824  10.771 -0.0366  0.5499  0.2303
  734MOL0     C98957   6.527   0.786  10.663  1.0861 -0.2044 -0.2836
  734MOL0     O98958   6.502   0.873  10.557  0.7034  0.8645 -0.1192
  734MOL0     C98959   6.512   1.010  10.570 -1.1446 -0.2488 -0.0529
  734MOL0     C98960   6.494   1.084  10.683  0.0964  0.1432 -0.3443
  734MOL0     C98961   6.501   1.223  10.673 -0.4240  0.5836 -0.5572
  734MOL0     C98962   6.523   1.293  10.554  0.2383  0.2120  0.0069
  734MOL0     O98963   6.543   1.429  10.568  0.8391 -0.8007  0.4475
  734MOL0     C98964   6.538   1.513  10.449 -0.1559  0.9776 -0.0942
  734MOL0     C98965   6.536   1.666  10.485  0.0292  0.4371  0.1187
  734MOL0     C98966   6.496   1.778  10.383  0.4288  0.4306 -0.5712
  734MOL0     C98967   6.584   1.790  10.260 -0.0493 -0.9216  0.6973
  734MOL0     C98968   6.540   1.912  10.169  0.7931 -0.0326  0.1867
  734MOL0     C98969   6.432   1.882  10.067 -0.3102  0.3414 -0.2504
  734MOL0     C98970   6.293   1.864  10.123 -0.3292  0.2265 -0.1972
  734MOL0     C98971   6.261   1.711  10.124 -0.0182  0.2897 -1.1198
  734MOL0     N98972   6.153   1.673  10.208  0.1865  0.2489  0.3295
  734MOL0     C98973   6.034   1.730  10.189 -0.3631 -0.2280 -0.5376
  734MOL0     C98974   5.965   1.699  10.302 -0.3799 -0.3285 -0.8621
  734MOL0     C98975   5.819   1.752  10.314 -0.2267  0.0544 -0.2665
  734MOL0     C98976   5.740   1.689  10.429  1.0075 -0.6766 -0.6857
  734MOL0     C98977   5.601   1.770  10.439  0.3743  0.4523  0.5033
  734MOL0     C98978   5.515   1.726  10.555  0.3888 -0.1880 -0.6035
  734MOL0     O98979   5.468   1.597  10.543 -0.2764  0.0205  0.0299
  734MOL0     C98980   5.440   1.519  10.650  0.1789 -0.1112  0.8444
  734MOL0     C98981   5.417   1.569  10.778 -0.5510 -0.3734  0.3056
  734MOL0     C98982   5.372   1.483  10.882 -0.6356 -0.9716 -0.4346
  734MOL0     C98983   5.353   1.549  11.018 -0.3144 -0.2495  0.0937
  734MOL0     C98984   5.335   1.356  10.865  0.2802  0.4735  0.4828
  734MOL0     C98985   5.269   1.291  10.970  0.0865 -0.0175 -0.1481
  734MOL0     O98986   5.341   1.231  11.072 -0.0875 -0.5708  0.2590
  734MOL0     C98987   5.279   1.164  11.178  1.5099 -0.4144 -0.0624
  734MOL0     C98988   5.236   1.242  11.293 -0.1740  0.0052  0.0054
  734MOL0     C98989   5.175   1.176  11.396  0.4447  0.0974 -0.2382
  734MOL0     C98990   5.143   1.047  11.395 -0.6402  0.6738 -0.2838
  734MOL0     O98991   5.067   0.995  11.492  0.3010  0.6911  0.4705
  734MOL0     C98992   5.080   0.856  11.528 -0.7787 -0.4674 -1.2659
  734MOL0     C98993   4.971   0.775  11.471  1.0325 -0.1445 -0.1319
  734MOL0     C98994   4.989   0.629  11.502 -0.3379  0.4107 -0.1146
  734MOL0     C98995   4.880   0.547  11.432  0.4589  0.2634 -0.6670
  734MOL0     C98996   4.940   0.398  11.425  0.3031  0.0936 -1.0542
  734MOL0     C98997   4.839   0.294  11.383 -0.5426  0.0827 -0.0551
  734MOL0     C98998   4.902   0.181  11.294  0.7691 -0.5811 -0.0523
  734MOL0     C98999   4.812   0.059  11.259  1.1193 -0.6648  1.0130
  734MOL0    Cl99000   4.760  -0.039  11.400 -0.4158 -0.1114  0.1313
  734MOL0     C99001   5.197   0.971  11.289  1.1125 -0.4959 -0.2995
  734MOL0     C99002   5.268   1.030  11.186  0.1247 -0.0745 -0.4213
  734MOL0     O99003   5.146   1.277  10.969 -0.0266 -0.3165 -0.9334
  734MOL0     C99004   5.368   1.290  10.737  0.3645 -0.6476  0.7585
  734MOL0     C99005   5.411   1.380  10.629  0.4024 -1.2035 -1.1919
  734MOL0     N99006   6.043   1.629  10.397 -0.1483  0.3215  0.9180
  734MOL0     N99007   6.155   1.605  10.331  0.0001 -0.0403  0.2178
  734MOL0     C99008   6.571   1.219  10.445  0.1818  0.9979  0.1106
  734MOL0     C99009   6.554   1.087  10.453  0.2603  1.1185  0.9285
  734MOL0     C99010   6.480   0.649  10.652  0.6097  0.8641 -0.9736
  734MOL0     C99011   6.430   0.608  10.528  0.5644  0.8722  0.1969
  734MOL0     C99012   6.391   0.476  10.509 -0.1910  0.5642  0.5752
  734MOL0     C99013   6.376   0.380  10.618  0.6711  0.5264 -0.1797
  734MOL0     O99014   6.352   0.243  10.597  0.6487 -1.0794  0.8769
  734MOL0     C99015   6.467   0.178  10.539  0.0109  0.3289  0.5214
  734MOL0     C99016   6.408   0.060  10.453  0.3457  1.0759 -0.1960
  734MOL0     C99017   6.518  -0.050  10.415 -0.3148  0.2477  0.3195
  734MOL0     C99018   6.592  -0.004  10.299 -0.0311 -0.1155  0.9372
  734MOL0     C99019   6.716   0.063  10.340 -0.3907 -0.1878 -0.9792
  734MOL0     C99020   6.829   0.080  10.384  0.4721  0.8723 -0.3307
  734MOL0     C99021   6.427   0.421  10.743  0.4575 -0.7528 -0.7864
  734MOL0     C99022   6.483   0.553  10.758  0.0815 -0.0138  0.7270
  734MOL0     H99023   6.467   1.038  10.777  1.5940 -2.9765 -1.3015
  734MOL0     H99024   6.505   1.283  10.763  1.5509  3.5813 -2.4541
  734MOL0     H99025   6.627   1.481  10.395 -0.0016 -3.1833  2.1660
  734MOL0     H99026   6.458   1.490  10.378 -0.4801 -1.8964  1.0464
  734MOL0     H99027   6.448   1.672  10.550 -0.9478 -1.9372 -0.8786
  734MOL0     H99028   6.622   1.691  10.547  0.1512 -0.5866  0.3724
  734MOL0     H99029   6.395   1.755  10.348  0.4949 -0.1755 -0.3656
  734MOL0     H99030   6.492   1.873  10.439 -1.9240  0.1466 -0.1708
  734MOL0     H99031   6.689   1.800  10.289  0.9496 -0.2090 -2.7542
  734MOL0     H99032   6.592   1.694  10.208 -0.9309 -0.5252 -0.1914
  734MOL0     H99033   6.501   1.994  10.229 -0.9749 -0.1307 -0.7611
  734MOL0     H99034   6.624   1.961  10.117 -0.4461  0.3582 -1.5568
  734MOL0     H99035   6.418   1.968  10.001  1.1525  0.1501 -0.8404
  734MOL0     H99036   6.471   1.809   9.997  3.1306  1.7343  0.0383
  734MOL0     H99037   6.279   1.905  10.223 -3.3952 -1.5030  0.2238
  734MOL0     H99038   6.213   1.903  10.060 -4.2408 -2.6015  2.5544
  734MOL0     H99039   6.347   1.662  10.169  0.6760  2.8421  0.5575
  734MOL0     H99040   6.237   1.671  10.025 -3.2995  1.1897 -0.7921
  734MOL0     H99041   5.985   1.768  10.100 -1.7103  0.8908  0.6271
  734MOL0     H99042   5.834   1.860  10.315 -0.9883  0.1668 -0.5005
  734MOL0     H99043   5.767   1.741  10.218  0.4842  1.6399 -0.8717
  734MOL0     H99044   5.789   1.681  10.527 -1.2829 -1.5223  0.4491
  734MOL0     H99045   5.711   1.589  10.394 -0.9358 -0.5984  0.5729
  734MOL0     H99046   5.534   1.755  10.354 -0.3642 -0.1925  1.1910
  734MOL0     H99047   5.615   1.879  10.444 -1.9137  0.7644  1.0013
  734MOL0     H99048   5.426   1.789  10.553 -0.9595 -1.8716  1.8144
  734MOL0     H99049   5.557   1.749  10.654  2.0356  0.4538 -1.4030
  734MOL0     H99050   5.443   1.670  10.808  1.7099 -0.5267 -0.9257
  734MOL0     H99051   5.273   1.506  11.078  2.3749 -3.8222  1.4334
  734MOL0     H99052   5.436   1.541  11.088 -0.8986  2.9650  1.3454
  734MOL0     H99053   5.327   1.654  10.998  1.6572  0.5218  1.2951
  734MOL0     H99054   5.254   1.349  11.300 -2.5805  0.5551 -1.0922
  734MOL0     H99055   5.131   1.235  11.476  1.2775 -1.0399  1.1134
  734MOL0     H99056   5.178   0.811  11.507 -0.7836 -1.2445  0.2401
  734MOL0     H99057   5.074   0.838  11.636 -0.4949  0.2870 -1.1204
  734MOL0     H99058   4.878   0.811  11.516  0.5905 -0.7543 -0.5514
  734MOL0     H99059   4.963   0.784  11.362  0.2348  1.7555  0.0362
  734MOL0     H99060   4.982   0.616  11.610  0.8986  2.9535  0.3635
  734MOL0     H99061   5.087   0.598  11.464 -1.2615 -1.0186 -1.4806
  734MOL0     H99062   4.786   0.550  11.487  0.4784 -1.3820 -0.4933
  734MOL0     H99063   4.859   0.578  11.329 -1.0156  0.8340 -0.2173
  734MOL0     H99064   5.004   0.374  11.511 -0.8311  2.6482  0.6300
  734MOL0     H99065   5.016   0.405  11.346 -0.9151 -2.4683 -2.5769
  734MOL0     H99066   4.785   0.252  11.468  0.9003  1.4708  1.6379
  734MOL0     H99067   4.765   0.344  11.320 -1.1152 -2.5986 -1.6553
  734MOL0     H99068   4.992   0.158  11.352  1.5734  3.3683  0.5145
  734MOL0     H99069   4.943   0.226  11.202  2.0976  0.5928  1.0664
  734MOL0     H99070   4.872  -0.008  11.196  0.8661 -1.3210  1.4565
  734MOL0     H99071   4.729   0.090  11.195  0.5405  1.7486  2.8164
  734MOL0     H99072   5.181   0.865  11.270  2.1472 -0.9044  0.8865
  734MOL0     H99073   5.309   0.958  11.116  4.3666 -0.5290  2.1860
  734MOL0     H99074   5.344   1.186  10.714 -1.2170 -0.6347  2.1332
  734MOL0     H99075   5.427   1.356  10.524  1.5760  4.5947 -2.6862
  734MOL0     H99076   6.607   1.259  10.351 -1.3670  2.1173 -0.0613
  734MOL0     H99077   6.580   1.026  10.367 -2.6550 -2.7808  2.5470
  734MOL0     H99078   6.442   0.670  10.440  1.2930 -1.5449 -1.4821
  734MOL0     H99079   6.379   0.440  10.408 -1.0830  1.7549  0.2309
  734MOL0     H99080   6.528   0.249  10.483 -0.4235 -0.8439 -1.5453
  734MOL0     H99081   6.522   0.134  10.622  0.9578  3.6238  1.8036
  734MOL0     H99082   6.361   0.109  10.367  0.1339 -0.0912 -0.7661
  734MOL0     H99083   6.329   0.017  10.516 -0.5708 -0.0599 -2.0002
  734MOL0     H99084   6.465  -0.140  10.384  0.2833  0.5952 -1.8213
  734MOL0     H99085   6.590  -0.075  10.494 -0.2300 -0.7540 -0.0597
  734MOL0     H99086   6.541   0.073  10.240  2.5926  0.1179 -1.2290
  734MOL0     H99087   6.622  -0.078  10.224  0.7665  2.5566 -1.5522
  734MOL0     H99088   6.929   0.104  10.412  0.5359  0.3159 -0.0535
  734MOL0     H99089   6.438   0.355  10.829  0.0778 -0.2956 -0.3885
  734MOL0     H99090   6.524   0.589  10.853  1.4197  0.4269  0.0124
  735MOL0     O99091   7.850   5.717   8.434  0.3976  0.4406  0.6473
  735MOL0     C99092   7.934   5.809   8.396  0.8909 -0.3336 -0.9056
  735MOL0     O99093   7.921   5.939   8.442 -0.1850  0.5704 -0.6635
  735MOL0     C99094   7.816   5.997   8.508  0.1869 -0.0261 -0.5851
  735MOL0     C99095   7.841   6.126   8.559  0.4061  0.2526 -0.1095
  735MOL0     C99096   7.740   6.215   8.601 -0.9307  0.7369  0.2718
  735MOL0     C99097   7.605   6.167   8.608  0.2604 -0.6350 -0.0667
  735MOL0     O99098   7.503   6.240   8.660 -0.0244  0.5026 -0.0816
  735MOL0     C99099   7.521   6.280   8.793  0.6999  0.5156  0.2421
  735MOL0     C99100   7.497   6.160   8.888  0.5401  0.1356  0.9563
  735MOL0     C99101   7.380   6.075   8.859 -0.0117  0.1875 -0.2286
  735MOL0     C99102   7.367   5.948   8.946  0.7859 -0.1479  0.4780
  735MOL0     C99103   7.233   5.887   8.895  0.3271  0.1916 -0.1276
  735MOL0     C99104   7.198   5.745   8.949  0.5124  0.1864 -0.3837
  735MOL0     C99105   7.268   5.622   8.902  0.6797  0.2032  0.4876
  735MOL0     C99106   7.259   5.606   8.749  0.2406  0.2414 -0.8654
  735MOL0     N99107   7.120   5.580   8.696  0.8304 -0.3998  0.2961
  735MOL0     C99108   7.031   5.675   8.666 -0.1490 -0.2427 -0.4291
  735MOL0     C99109   6.931   5.613   8.601 -1.0060  0.9938  0.1467
  735MOL0     C99110   6.805   5.668   8.555  0.0906  0.3779  0.7994
  735MOL0     C99111   6.712   5.702   8.670 -0.4399 -0.2307  0.8852
  735MOL0     C99112   6.591   5.776   8.615 -0.2835 -0.4679 -0.9816
  735MOL0     C99113   6.615   5.943   8.592 -0.4516  0.4628 -0.0416
  735MOL0     O99114   6.694   5.981   8.482  0.2361 -0.2395  0.8623
  735MOL0     C99115   6.779   6.096   8.500  0.0935  0.4343  0.1984
  735MOL0     C99116   6.910   6.082   8.525  0.0497 -0.5397  0.1330
  735MOL0     C99117   6.998   6.192   8.544  0.0180 -0.1348  0.0848
  735MOL0     C99118   7.149   6.174   8.572 -0.0862  1.2492  0.2269
  735MOL0     C99119   6.949   6.319   8.530  0.0887 -0.2077  0.4193
  735MOL0     C99120   7.036   6.442   8.551  0.6478  1.1955 -0.8336
  735MOL0     O99121   7.121   6.477   8.452  0.0273 -0.4963 -0.1152
  735MOL0     C99122   7.215   6.571   8.485 -0.9445  1.1146  0.1649
  735MOL0     C99123   7.333   6.535   8.540  0.5388  1.1010 -0.1913
  735MOL0     C99124   7.433   6.635   8.570 -0.5552 -0.6021  1.3270
  735MOL0     C99125   7.423   6.772   8.539  0.9176 -0.3850 -0.2585
  735MOL0     O99126   7.518   6.866   8.557 -0.1706 -0.2516  1.3199
  735MOL0     C99127   7.482   6.945   8.672 -0.2506  0.2065  0.4199
  735MOL0     C99128   7.588   7.039   8.724  0.7225  1.0600  0.3683
  735MOL0     C99129   7.561   7.089   8.855 -0.1057 -0.5209 -0.0380
  735MOL0     C99130   7.443   7.188   8.856  0.3250 -0.1074 -1.4310
  735MOL0     C99131   7.411   7.247   8.985  0.3826  0.5258 -1.0994
  735MOL0     C99132   7.295   7.350   8.972  1.0088 -0.0975 -0.1236
  735MOL0     C99133   7.330   7.460   8.875  0.6303 -0.3769  0.3105
  735MOL0     C99134   7.207   7.562   8.884  0.6345 -0.0075 -0.3161
  735MOL0    Cl99135   7.238   7.708   8.787 -0.3113 -0.3309 -0.0366
  735MOL0     C99136   7.294   6.803   8.484  0.8945 -0.2708  0.2676
  735MOL0     C99137   7.197   6.702   8.460  1.2292 -0.2342 -0.1863
  735MOL0     O99138   7.014   6.502   8.661  0.5448 -0.0668 -0.5482
  735MOL0     C99139   6.809   6.338   8.514 -0.1507  0.1790  0.7491
  735MOL0     C99140   6.731   6.222   8.506 -0.1089  0.3853 -0.4389
  735MOL0     N99141   6.970   5.485   8.581 -0.4792 -0.7082 -0.0181
  735MOL0     N99142   7.092   5.475   8.624 -0.5214 -0.0350 -0.2681
  735MOL0     C99143   7.585   6.036   8.566  0.0678 -0.4268  0.2552
  735MOL0     C99144   7.687   5.945   8.519 -0.0331 -0.2545  1.0021
  735MOL0     C99145   8.046   5.758   8.312  0.6163  0.3354 -0.2176
  735MOL0     C99146   8.128   5.849   8.246  0.3862 -0.4994 -0.4715
  735MOL0     C99147   8.225   5.805   8.161 -0.1886  0.6371 -1.1538
  735MOL0     C99148   8.241   5.667   8.147 -0.5501 -0.2611  1.2251
  735MOL0     O99149   8.336   5.630   8.050 -0.2813  0.3687 -0.4180
  735MOL0     C99150   8.398   5.497   8.042  0.0895  0.3525  0.2581
  735MOL0     C99151   8.352   5.425   7.916 -0.9449 -0.6813  1.0540
  735MOL0     C99152   8.236   5.324   7.935  0.0211  0.3591 -0.2824
  735MOL0     C99153   8.197   5.247   7.805  0.4899 -0.3342 -0.1319
  735MOL0     C99154   8.093   5.150   7.825 -0.3537  0.2873 -0.5765
  735MOL0     C99155   8.000   5.073   7.844 -0.5277 -0.2905 -0.2266
  735MOL0     C99156   8.162   5.574   8.215 -0.5426 -0.0919 -0.9141
  735MOL0     C99157   8.070   5.619   8.306  0.2929 -0.5460 -0.6674
  735MOL0     H99158   7.942   6.162   8.546  1.0039 -1.4234 -0.4130
  735MOL0     H99159   7.758   6.321   8.617  3.8378  1.2235 -5.2243
  735MOL0     H99160   7.610   6.341   8.811  0.7847  0.3438  0.4096
  735MOL0     H99161   7.440   6.351   8.809 -1.8156 -1.0002 -4.0617
  735MOL0     H99162   7.591   6.106   8.881 -0.3864 -1.3753 -0.7979
  735MOL0     H99163   7.480   6.208   8.985  1.6688  3.2290 -0.2483
  735MOL0     H99164   7.284   6.128   8.873  0.1749  0.3504  0.4911
  735MOL0     H99165   7.395   6.037   8.758  2.9343  2.5744 -0.8405
  735MOL0     H99166   7.450   5.880   8.927  1.2163  0.6019 -0.4155
  735MOL0     H99167   7.366   5.957   9.055  2.1157  1.5171  0.4085
  735MOL0     H99168   7.149   5.950   8.924  0.5818 -1.2011  4.3955
  735MOL0     H99169   7.235   5.879   8.786 -2.9366 -0.9006 -0.1951
  735MOL0     H99170   7.207   5.746   9.058  1.4406 -1.6162 -0.3972
  735MOL0     H99171   7.091   5.728   8.938  0.1753  0.8542  1.5024
  735MOL0     H99172   7.372   5.626   8.936  0.6317 -1.6868  0.9930
  735MOL0     H99173   7.221   5.540   8.957 -1.6003  1.7647  0.9890
  735MOL0     H99174   7.325   5.527   8.710  0.4406 -0.3872  0.6659
  735MOL0     H99175   7.300   5.692   8.695 -0.4639 -1.2203 -3.9311
  735MOL0     H99176   7.036   5.778   8.701  0.7506  0.0028 -1.2308
  735MOL0     H99177   6.843   5.745   8.486  2.9333 -1.1182  0.5731
  735MOL0     H99178   6.759   5.595   8.487  1.8541  0.5418 -0.6566
  735MOL0     H99179   6.758   5.768   8.744  1.5185  0.4204 -0.8241
  735MOL0     H99180   6.690   5.610   8.725  3.1593 -0.3889  2.3441
  735MOL0     H99181   6.505   5.779   8.682  0.0112  2.2942 -0.6322
  735MOL0     H99182   6.561   5.729   8.521 -0.8714 -0.7757 -0.6445
  735MOL0     H99183   6.668   5.991   8.675 -0.7475  0.2301  0.2868
  735MOL0     H99184   6.518   5.992   8.590 -0.1941  1.0544 -2.9699
  735MOL0     H99185   6.954   5.983   8.532 -0.0033 -0.5568  0.2239
  735MOL0     H99186   7.173   6.070   8.549 -2.1772  0.9210 -0.6603
  735MOL0     H99187   7.200   6.241   8.502 -0.4726  0.2889 -1.0071
  735MOL0     H99188   7.170   6.194   8.678  0.3437 -0.4367  0.4907
  735MOL0     H99189   7.369   6.439   8.576  1.6384  3.0108  4.5360
  735MOL0     H99190   7.528   6.615   8.619  1.0303 -1.3187 -1.7845
  735MOL0     H99191   7.400   7.014   8.648  0.5498  0.8386 -0.5880
  735MOL0     H99192   7.446   6.882   8.753 -2.6595  3.0003  1.7051
  735MOL0     H99193   7.671   6.968   8.728  0.1459  0.4110  4.0930
  735MOL0     H99194   7.590   7.115   8.645 -1.5938  1.3809  0.5495
  735MOL0     H99195   7.655   7.142   8.876  0.7113 -1.0896 -1.9950
  735MOL0     H99196   7.553   7.000   8.918  0.1699 -2.5874 -2.7302
  735MOL0     H99197   7.471   7.266   8.784  0.3345  0.3446 -0.9487
  735MOL0     H99198   7.348   7.140   8.828  0.7510 -1.0553 -1.2861
  735MOL0     H99199   7.496   7.293   9.036  1.1972 -0.0075 -1.9561
  735MOL0     H99200   7.374   7.164   9.047  2.6600  1.5086  1.7859
  735MOL0     H99201   7.201   7.318   8.928  0.9035  0.2492 -0.1533
  735MOL0     H99202   7.277   7.396   9.070  1.4921  3.0728 -1.3856
  735MOL0     H99203   7.340   7.419   8.775 -3.6185 -1.7748  0.2588
  735MOL0     H99204   7.420   7.513   8.908 -0.0938  0.8795  0.3495
  735MOL0     H99205   7.203   7.572   8.993  0.7793 -3.2224  0.0819
  735MOL0     H99206   7.111   7.520   8.852  0.3998  1.2629 -1.3523
  735MOL0     H99207   7.274   6.905   8.453  2.3725  0.2490  0.9387
  735MOL0     H99208   7.097   6.738   8.434  0.8076 -0.8037  0.6236
  735MOL0     H99209   6.766   6.437   8.510 -0.4903 -0.0133 -1.8890
  735MOL0     H99210   6.623   6.236   8.496 -0.1743  2.0041  1.8276
  735MOL0     H99211   7.487   5.991   8.555 -0.4610  1.2718 -3.5902
  735MOL0     H99212   7.663   5.849   8.476  1.9288 -2.1402  3.7470
  735MOL0     H99213   8.122   5.953   8.274  0.0326  0.2891 -3.1280
  735MOL0     H99214   8.282   5.887   8.117 -0.9526  2.2534  0.7342
  735MOL0     H99215   8.503   5.527   8.033  0.9774 -1.4616  3.1296
  735MOL0     H99216   8.388   5.452   8.141 -1.7418 -0.3152 -0.1942
  735MOL0     H99217   8.431   5.358   7.881 -1.7474  0.1777 -2.9201
  735MOL0     H99218   8.350   5.501   7.837  4.2698 -2.2999 -1.1118
  735MOL0     H99219   8.148   5.372   7.978 -0.0388  1.1659 -1.2600
  735MOL0     H99220   8.273   5.251   8.008  1.4008  0.1561 -1.1359
  735MOL0     H99221   8.281   5.202   7.751  1.1514 -0.0586  0.6514
  735MOL0     H99222   8.146   5.321   7.742  0.4206 -0.5275 -0.3051
  735MOL0     H99223   7.904   5.025   7.844 -1.1520  0.6766  3.2409
  735MOL0     H99224   8.192   5.471   8.196  2.9108  0.0508  2.5542
  735MOL0     H99225   7.998   5.555   8.357  1.0158 -0.9365 -0.1278
  736MOL0     O99226   2.168  11.291   5.134 -0.4012  0.1662  0.2906
  736MOL0     C99227   2.057  11.292   5.078 -0.5419 -0.9979  0.9355
  736MOL0     O99228   1.998  11.405   5.010 -0.4469  0.1749  0.5053
  736MOL0     C99229   2.062  11.527   5.013 -0.7109 -0.4768 -0.3121
  736MOL0     C99230   2.138  11.575   4.907  0.2138 -0.6644  0.6810
  736MOL0     C99231   2.203  11.696   4.910  0.2996  1.4995 -0.6213
  736MOL0     C99232   2.196  11.772   5.026  0.0726  0.2025 -1.1703
  736MOL0     O99233   2.276  11.876   5.051  0.2522 -0.6223 -0.1924
  736MOL0     C99234   2.406  11.837   5.068  0.3714 -0.4800 -0.4873
  736MOL0     C99235   2.486  11.962   5.109  0.5296  0.3465  0.2467
  736MOL0     C99236   2.454  12.089   5.021 -0.7339 -0.4814 -0.7825
  736MOL0     C99237   2.545  12.212   5.056 -1.0035  0.8444 -0.6350
  736MOL0     C99238   2.673  12.182   4.975 -0.2087 -1.3739  0.2665
  736MOL0     C99239   2.779  12.288   4.982  1.0755 -0.3517  0.1697
  736MOL0     C99240   2.899  12.277   4.889  0.6236  0.0891  0.3940
  736MOL0     C99241   3.011  12.383   4.933  0.7858  0.1602  0.1399
  736MOL0     N99242   3.067  12.365   5.074  0.1604 -0.1619  0.4909
  736MOL0     C99243   3.090  12.467   5.167  0.2116 -0.0891  0.1867
  736MOL0     C99244   3.156  12.417   5.273  1.3601 -0.2162  1.1592
  736MOL0     C99245   3.192  12.468   5.410 -0.4422 -0.3686 -0.9297
  736MOL0     C99246   3.103  12.404   5.524 -0.9532  0.4604  0.8149
  736MOL0     C99247   2.957  12.465   5.531 -0.4055  0.2612 -0.6305
  736MOL0     C99248   2.875  12.391   5.642 -0.5908  0.9963 -0.6777
  736MOL0     O99249   2.949  12.400   5.770  0.3175  0.4263  0.1533
  736MOL0     C99250   2.905  12.500   5.849  0.3406 -0.2897 -0.2806
  736MOL0     C99251   2.803  12.467   5.941  0.1038 -0.4690 -0.3752
  736MOL0     C99252   2.742  12.560   6.027 -0.4334 -0.0885 -0.2401
  736MOL0     C99253   2.611  12.516   6.097 -0.8883 -0.5804 -0.2128
  736MOL0     C99254   2.794  12.697   6.031 -1.1286 -0.7544  0.4891
  736MOL0     C99255   2.753  12.795   6.131  0.5268 -0.0350  0.4504
  736MOL0     O99256   2.771  12.920   6.098 -0.0874  0.6641 -0.1867
  736MOL0     C99257   2.808  13.020   6.183 -0.3102 -0.7934 -0.5195
  736MOL0     C99258   2.889  13.014   6.295 -0.7335 -0.1658  0.1486
  736MOL0     C99259   2.921  13.127   6.366 -0.8608  0.1842 -0.5461
  736MOL0     C99260   2.874  13.254   6.334  0.4473  0.7037 -0.6619
  736MOL0     O99261   2.911  13.360   6.416  0.1206 -0.0585 -0.1411
  736MOL0     C99262   2.862  13.488   6.376  1.1620  0.5978 -0.1247
  736MOL0     C99263   2.906  13.594   6.473  0.1250 -0.3179 -0.0188
  736MOL0     C99264   3.060  13.602   6.467 -0.6570  0.1205 -0.1910
  736MOL0     C99265   3.112  13.732   6.527  0.0762  0.5466  0.3244
  736MOL0     C99266   3.267  13.727   6.548 -0.1504  0.5794  0.3843
  736MOL0     C99267   3.335  13.858   6.595  1.1944  0.6591  0.2772
  736MOL0     C99268   3.328  13.969   6.487  0.4685 -0.1265 -0.9972
  736MOL0     C99269   3.447  14.072   6.489 -0.0940 -0.6291 -0.2828
  736MOL0    Cl99270   3.607  14.000   6.443  0.1015 -0.6647 -0.1123
  736MOL0     C99271   2.796  13.266   6.219 -0.3679 -0.0112  0.7036
  736MOL0     C99272   2.762  13.154   6.149 -0.6730  0.5831 -0.6470
  736MOL0     O99273   2.723  12.756   6.246  0.2338 -0.7279  0.3630
  736MOL0     C99274   2.894  12.728   5.932  0.0601  0.3342  0.2652
  736MOL0     C99275   2.947  12.632   5.842 -0.0874 -1.7446 -0.2869
  736MOL0     N99276   3.204  12.300   5.225  0.6073  0.0864 -0.6302
  736MOL0     N99277   3.156  12.266   5.107 -0.0912  0.0446 -0.7077
  736MOL0     C99278   2.106  11.739   5.134 -0.4752 -0.1219  0.2549
  736MOL0     C99279   2.041  11.617   5.120  1.2002 -0.4820  0.2678
  736MOL0     C99280   1.970  11.181   5.075  0.9207 -0.6108 -1.0480
  736MOL0     C99281   2.018  11.056   5.110  1.5062  0.1029  0.2532
  736MOL0     C99282   1.937  10.938   5.085  0.7651 -0.4392  0.2905
  736MOL0     C99283   1.807  10.950   5.027  0.1357 -0.0541  0.7239
  736MOL0     O99284   1.747  10.833   5.008  1.2959  0.2470  0.2262
  736MOL0     C99285   1.611  10.835   4.943 -0.2255  0.7880  0.7768
  736MOL0     C99286   1.588  10.687   4.916  0.3516  0.3278 -0.3756
  736MOL0     C99287   1.438  10.655   4.884 -0.2008 -1.0938  0.2059
  736MOL0     C99288   1.350  10.671   5.009  0.5972 -0.2594  0.0981
  736MOL0     C99289   1.213  10.624   4.986 -0.3595 -0.1066  0.4567
  736MOL0     C99290   1.104  10.579   4.958  0.0516 -0.6557  0.5432
  736MOL0     C99291   1.764  11.079   4.991 -0.4656 -0.9991 -0.6056
  736MOL0     C99292   1.839  11.196   5.023 -0.3275  0.1250  0.3008
  736MOL0     H99293   2.157  11.510   4.822 -0.6836 -0.5357  0.3768
  736MOL0     H99294   2.258  11.729   4.823 -2.3217  1.1916 -2.5289
  736MOL0     H99295   2.431  11.756   5.137  1.8536 -0.5604 -1.0767
  736MOL0     H99296   2.453  11.819   4.971  0.0914  2.3722 -1.2601
  736MOL0     H99297   2.475  11.975   5.217 -0.7856  2.1060 -0.0499
  736MOL0     H99298   2.594  11.944   5.105  0.5207  0.4315 -3.5909
  736MOL0     H99299   2.468  12.063   4.916 -4.2110 -1.9794 -1.0335
  736MOL0     H99300   2.352  12.130   5.019  0.0874  2.1040  2.2034
  736MOL0     H99301   2.504  12.304   5.014 -2.3143  1.2594  1.4257
  736MOL0     H99302   2.550  12.222   5.164  2.9529 -0.6839 -0.4986
  736MOL0     H99303   2.726  12.095   5.014  1.2915 -0.4149  0.4432
  736MOL0     H99304   2.654  12.156   4.870  0.2673 -4.5644  0.8686
  736MOL0     H99305   2.743  12.391   4.968  1.7951  0.5337  3.7536
  736MOL0     H99306   2.812  12.293   5.086 -1.2962  2.8119  0.9442
  736MOL0     H99307   2.932  12.173   4.878 -1.6459 -0.7415  0.7920
  736MOL0     H99308   2.867  12.313   4.791 -0.4124  0.7123  0.9476
  736MOL0     H99309   2.957  12.478   4.933  2.5032  1.1917 -1.1278
  736MOL0     H99310   3.092  12.391   4.860  0.2508  0.8713 -0.3836
  736MOL0     H99311   3.047  12.567   5.165  1.6912  0.5861  0.4210
  736MOL0     H99312   3.297  12.442   5.427 -0.4131  1.4082  2.5036
  736MOL0     H99313   3.179  12.577   5.416  0.7853 -0.1606 -1.7450
  736MOL0     H99314   3.150  12.408   5.623  1.0008 -0.6158 -0.0057
  736MOL0     H99315   3.108  12.296   5.513 -3.0750  0.3214  0.8463
  736MOL0     H99316   2.905  12.448   5.437 -0.9177  0.1626 -0.3364
  736MOL0     H99317   2.955  12.570   5.561  0.4313 -0.3259  1.7367
  736MOL0     H99318   2.867  12.285   5.619  1.7918  1.2134 -3.0804
  736MOL0     H99319   2.774  12.429   5.655 -0.6984  1.3248 -2.2105
  736MOL0     H99320   2.753  12.371   5.954 -2.1127  0.9647  2.8954
  736MOL0     H99321   2.643  12.487   6.198 -1.9867  2.5062  1.1402
  736MOL0     H99322   2.544  12.599   6.121 -1.1625 -1.7141  3.8078
  736MOL0     H99323   2.548  12.439   6.052 -1.1760 -1.5768  1.7494
  736MOL0     H99324   2.931  12.925   6.341  1.8164  1.9130  2.1342
  736MOL0     H99325   2.981  13.129   6.457 -0.6489  0.9796 -0.6990
  736MOL0     H99326   2.898  13.510   6.275 -2.1298 -2.6708 -2.2829
  736MOL0     H99327   2.753  13.488   6.360  1.2650 -1.4361 -1.1304
  736MOL0     H99328   2.858  13.686   6.438  0.7280  0.3728  0.9384
  736MOL0     H99329   2.872  13.583   6.576  2.6143  2.7895  1.3385
  736MOL0     H99330   3.099  13.584   6.366  0.1049  0.4623  0.0261
  736MOL0     H99331   3.094  13.521   6.531  1.5289  1.4935  0.5003
  736MOL0     H99332   3.091  13.816   6.461  0.4556 -0.4288 -1.1005
  736MOL0     H99333   3.066  13.742   6.626 -0.1495 -0.1837  0.3011
  736MOL0     H99334   3.307  13.704   6.448  3.9572  3.2966  1.1623
  736MOL0     H99335   3.304  13.645   6.611  0.5636 -0.0096 -0.7558
  736MOL0     H99336   3.283  13.882   6.688  0.7424 -0.0575  0.2122
  736MOL0     H99337   3.442  13.840   6.608  1.0354 -1.3524 -0.8330
  736MOL0     H99338   3.239  14.031   6.504  0.4781 -0.3291 -0.1633
  736MOL0     H99339   3.316  13.934   6.384  3.1301  0.1038 -1.4516
  736MOL0     H99340   3.458  14.087   6.596  0.8632 -4.6114  0.3374
  736MOL0     H99341   3.436  14.166   6.433  0.7502 -1.1235 -1.3154
  736MOL0     H99342   2.763  13.360   6.176 -2.7538 -0.1848  1.9834
  736MOL0     H99343   2.703  13.166   6.059 -2.1521  1.9642  0.4428
  736MOL0     H99344   2.939  12.826   5.923 -0.1271  0.3104 -1.3552
  736MOL0     H99345   3.029  12.663   5.778  0.7743 -0.2645  1.4504
  736MOL0     H99346   2.109  11.802   5.222  0.7729 -0.9018  0.7911
  736MOL0     H99347   1.967  11.582   5.191 -0.1474 -0.9196 -1.2882
  736MOL0     H99348   2.114  11.047   5.159  1.3033 -0.5545  0.5370
  736MOL0     H99349   1.968  10.836   5.108  1.0360 -0.5809 -0.6573
  736MOL0     H99350   1.525  10.859   5.006 -2.5155  1.7058 -2.4427
  736MOL0     H99351   1.615  10.901   4.856  1.6484  1.5823  1.4138
  736MOL0     H99352   1.614  10.626   5.004  2.1983 -1.0951 -1.8211
  736MOL0     H99353   1.648  10.660   4.828 -0.6701  0.5888 -1.1638
  736MOL0     H99354   1.431  10.554   4.845  0.2573 -1.5192  1.1914
  736MOL0     H99355   1.403  10.716   4.800  0.1468 -1.1920 -0.0143
  736MOL0     H99356   1.351  10.774   5.047 -1.3720 -0.3096  0.4378
  736MOL0     H99357   1.390  10.611   5.092 -0.4541  0.8529  1.4598
  736MOL0     H99358   1.011  10.542   4.922 -0.2901  0.6887 -0.0227
  736MOL0     H99359   1.670  11.112   4.949  1.2339  1.5968 -2.6633
  736MOL0     H99360   1.805  11.297   5.002 -0.0113  0.1388 -0.1693
  737MOL0     O99361   5.330   5.052   0.417  0.2288  0.3264  0.7663
  737MOL0     C99362   5.226   4.993   0.400 -0.0502  0.1847 -0.1474
  737MOL0     O99363   5.105   5.044   0.408  0.1559  1.2803  0.0101
  737MOL0     C99364   5.069   5.176   0.389 -1.4198 -0.6342 -1.3118
  737MOL0     C99365   4.938   5.217   0.417  0.4142  0.4555  0.2479
  737MOL0     C99366   4.902   5.347   0.411 -0.2525 -0.4925  0.2339
  737MOL0     C99367   4.989   5.444   0.363 -0.8187  0.4532 -0.3595
  737MOL0     O99368   4.951   5.579   0.330 -0.2999 -0.7773  0.3772
  737MOL0     C99369   4.820   5.620   0.361  0.1154  0.1878 -0.3597
  737MOL0     C99370   4.787   5.756   0.322 -0.5069  0.1680 -0.4454
  737MOL0     C99371   4.818   5.863   0.425 -0.3040  0.3675  0.8123
  737MOL0     C99372   4.715   5.858   0.536 -0.9406 -0.8098  0.7480
  737MOL0     C99373   4.714   5.979   0.624  0.3469 -0.5258  0.1702
  737MOL0     C99374   4.643   6.101   0.567  0.9908  0.2967 -0.0995
  737MOL0     C99375   4.687   6.237   0.629  0.7831  0.0013  0.3796
  737MOL0     C99376   4.823   6.271   0.602  1.1245  0.3026 -0.6228
  737MOL0     N99377   4.839   6.288   0.459  0.0797 -0.2379  0.1051
  737MOL0     C99378   4.922   6.211   0.380 -0.7348 -0.7214 -0.2522
  737MOL0     C99379   4.904   6.259   0.251  0.4864  0.2861 -0.3054
  737MOL0     C99380   4.963   6.188   0.128 -0.4609 -0.1138 -0.3099
  737MOL0     C99381   4.846   6.116   0.048  0.2196 -0.0902 -0.5271
  737MOL0     C99382   4.881   6.063  -0.088  0.2178 -0.3073  0.3418
  737MOL0     C99383   5.022   6.014  -0.097  0.8594 -0.0860 -0.6993
  737MOL0     O99384   5.123   6.117  -0.107  0.3629 -0.2553 -0.1114
  737MOL0     C99385   5.247   6.066  -0.080  0.0637  0.1970  0.6065
  737MOL0     C99386   5.326   6.116   0.024  0.3858  0.7477 -0.1132
  737MOL0     C99387   5.452   6.061   0.053 -0.3472 -0.2189  0.1138
  737MOL0     C99388   5.529   6.124   0.167  0.7613 -0.3886 -0.5538
  737MOL0     C99389   5.504   5.967  -0.034  0.8529  0.5032  0.0374
  737MOL0     C99390   5.631   5.892  -0.017 -0.9675 -0.2181  0.2804
  737MOL0     O99391   5.650   5.764  -0.070  0.1769 -1.2485 -0.2549
  737MOL0     C99392   5.770   5.709  -0.081 -0.2273  0.1289  0.5411
  737MOL0     C99393   5.814   5.622   0.007  0.1385 -0.3532 -0.1267
  737MOL0     C99394   5.930   5.552  -0.015  0.3202  0.7469 -0.5785
  737MOL0     C99395   5.999   5.574  -0.126  0.2026 -0.6567 -0.7482
  737MOL0     O99396   6.123   5.508  -0.148  0.4856 -0.0183  0.4863
  737MOL0     C99397   6.178   5.435  -0.034  0.1613 -0.5504 -0.1804
  737MOL0     C99398   6.330   5.416  -0.051  1.1092  0.1871  0.3275
  737MOL0     C99399   6.363   5.365  -0.188  0.0497  0.3822  0.6220
  737MOL0     C99400   6.507   5.375  -0.238 -0.3001  0.0924 -0.2897
  737MOL0     C99401   6.623   5.308  -0.151  0.4433 -0.4845 -0.0478
  737MOL0     C99402   6.608   5.168  -0.129  0.0583  0.7739 -1.2174
  737MOL0     C99403   6.730   5.115  -0.060  0.5910  0.6150  0.0030
  737MOL0     C99404   6.730   4.959  -0.072 -0.8769 -0.5332  0.7066
  737MOL0    Cl99405   6.851   4.872   0.027 -0.0853  0.7998 -0.4726
  737MOL0     C99406   5.944   5.655  -0.234  0.5433 -0.7552  0.5839
  737MOL0     C99407   5.830   5.732  -0.202 -0.4527  0.1126 -0.5294
  737MOL0     O99408   5.730   5.952   0.028 -0.4296 -0.6785  0.2023
  737MOL0     C99409   5.427   5.910  -0.133  0.2573 -0.2821  0.2494
  737MOL0     C99410   5.300   5.959  -0.154  0.8803 -0.7054  0.0026
  737MOL0     N99411   4.819   6.368   0.263  0.3352  0.5070  0.6932
  737MOL0     N99412   4.783   6.387   0.381 -1.1691 -0.2875 -0.9298
  737MOL0     C99413   5.129   5.408   0.337 -0.2107 -0.0916 -0.9136
  737MOL0     C99414   5.166   5.276   0.357  0.5580 -0.2090  0.0613
  737MOL0     C99415   5.229   4.851   0.356  0.1813  0.1161 -0.1449
  737MOL0     C99416   5.132   4.760   0.393 -0.8352 -0.4003 -0.6215
  737MOL0     C99417   5.147   4.623   0.369 -0.3817  0.7226  0.4167
  737MOL0     C99418   5.269   4.578   0.313  0.0340 -0.5563  0.9004
  737MOL0     O99419   5.275   4.443   0.291 -0.3785  0.3223  0.6333
  737MOL0     C99420   5.396   4.405   0.227  0.2228 -0.5229 -0.0133
  737MOL0     C99421   5.394   4.261   0.198 -0.1134  0.6712 -0.0094
  737MOL0     C99422   5.528   4.180   0.203 -0.8060  0.2300 -1.1226
  737MOL0     C99423   5.603   4.185   0.069  0.4568  0.2123 -1.0598
  737MOL0     C99424   5.730   4.101   0.081 -0.3197 -0.4589  0.2493
  737MOL0     C99425   5.842   4.049   0.094  0.2447 -0.0902 -0.8547
  737MOL0     C99426   5.372   4.672   0.279  0.2497  0.1825 -0.6194
  737MOL0     C99427   5.350   4.809   0.298 -0.7926 -0.2864 -0.2639
  737MOL0     H99428   4.856   5.147   0.424 -2.9472  4.0724  0.2359
  737MOL0     H99429   4.810   5.380   0.459 -2.1049 -3.6852 -0.8613
  737MOL0     H99430   4.753   5.556   0.304  1.3066 -1.5552  0.1218
  737MOL0     H99431   4.803   5.598   0.467 -0.9013  0.8398 -0.3761
  737MOL0     H99432   4.846   5.784   0.234  0.9387 -1.3097  0.0145
  737MOL0     H99433   4.682   5.756   0.291 -0.8341 -0.4888  0.6138
  737MOL0     H99434   4.909   5.830   0.475 -2.3281 -2.1721  3.1680
  737MOL0     H99435   4.816   5.960   0.376  3.3604  0.3892  0.4111
  737MOL0     H99436   4.614   5.840   0.499 -0.8718  1.4913 -0.8164
  737MOL0     H99437   4.740   5.770   0.595  0.2571 -1.4760 -0.6838
  737MOL0     H99438   4.664   5.956   0.719  0.2758 -0.8039  0.0674
  737MOL0     H99439   4.819   5.997   0.646  0.5111  3.3835 -2.7180
  737MOL0     H99440   4.651   6.113   0.458 -0.0265  2.4494 -0.0000
  737MOL0     H99441   4.538   6.078   0.590  0.5130  0.5151 -1.8558
  737MOL0     H99442   4.624   6.311   0.580 -1.6506 -1.1647  1.5720
  737MOL0     H99443   4.662   6.254   0.734  2.6033  5.2815  0.2663
  737MOL0     H99444   4.892   6.194   0.638  1.4191  0.0880 -1.6401
  737MOL0     H99445   4.848   6.361   0.659  1.8831 -0.8005  0.8847
  737MOL0     H99446   4.973   6.121   0.413  0.2422 -1.6516 -3.7557
  737MOL0     H99447   5.015   6.256   0.060 -0.5702 -1.3444 -1.6507
  737MOL0     H99448   5.044   6.120   0.155 -0.0450 -0.1589 -1.6250
  737MOL0     H99449   4.768   6.191   0.031  1.9049  1.3270 -2.5111
  737MOL0     H99450   4.801   6.037   0.110 -1.2298  3.1629  2.9807
  737MOL0     H99451   4.877   6.140  -0.166  1.2874 -0.9511 -0.3625
  737MOL0     H99452   4.816   5.981  -0.120 -1.0046  1.6585 -2.6661
  737MOL0     H99453   5.031   5.958  -0.190  1.9312 -3.0217  1.0641
  737MOL0     H99454   5.033   5.945  -0.013 -0.0643  1.1796  0.5200
  737MOL0     H99455   5.287   6.195   0.087  1.9417  1.4615  0.0026
  737MOL0     H99456   5.522   6.063   0.257 -2.0008 -1.5021 -1.4114
  737MOL0     H99457   5.633   6.154   0.153 -0.1884  3.9099  0.2338
  737MOL0     H99458   5.489   6.225   0.178  2.4134  0.3964 -1.3518
  737MOL0     H99459   5.760   5.605   0.100  0.7520  3.2771  1.0488
  737MOL0     H99460   5.951   5.490   0.071 -3.7511  1.5614  1.2687
  737MOL0     H99461   6.158   5.477   0.065 -0.3086 -0.1194 -0.4588
  737MOL0     H99462   6.131   5.336  -0.040  2.7836 -2.1825  2.7317
  737MOL0     H99463   6.378   5.514  -0.048  1.2133  0.2991 -2.4669
  737MOL0     H99464   6.348   5.346   0.031  0.1869  0.4165  0.7377
  737MOL0     H99465   6.318   5.414  -0.274 -1.3335 -1.4583  0.2332
  737MOL0     H99466   6.337   5.258  -0.183 -2.4203  0.9898  3.3637
  737MOL0     H99467   6.502   5.339  -0.342 -1.0496 -1.8259  0.3663
  737MOL0     H99468   6.524   5.483  -0.231 -0.8718  0.0939  1.5396
  737MOL0     H99469   6.621   5.351  -0.050  2.8268 -1.0346  0.2945
  737MOL0     H99470   6.719   5.338  -0.193 -0.0224  2.0226  0.4989
  737MOL0     H99471   6.526   5.154  -0.057  1.8291  1.1049  0.9904
  737MOL0     H99472   6.602   5.115  -0.224  2.6875 -2.2224  0.0937
  737MOL0     H99473   6.723   5.136   0.047  0.2343 -4.1377  1.1366
  737MOL0     H99474   6.823   5.162  -0.093  1.0861 -1.1023 -1.1526
  737MOL0     H99475   6.756   4.934  -0.175 -0.0548  0.2147  0.7202
  737MOL0     H99476   6.631   4.917  -0.055 -2.0544  0.2731 -3.1342
  737MOL0     H99477   5.999   5.680  -0.324  0.2940  0.0110  0.6344
  737MOL0     H99478   5.779   5.793  -0.275 -1.0957  0.6721  0.3663
  737MOL0     H99479   5.454   5.822  -0.191 -1.8529  1.2304 -3.3713
  737MOL0     H99480   5.238   5.920  -0.235 -0.1813 -1.6879  1.2328
  737MOL0     H99481   5.197   5.490   0.314 -0.8328  1.7190  2.9566
  737MOL0     H99482   5.271   5.252   0.344 -0.1206 -3.2624 -0.5915
  737MOL0     H99483   5.043   4.790   0.448 -0.0074  0.9256  0.0544
  737MOL0     H99484   5.069   4.554   0.400  0.5750 -0.2836  0.6452
  737MOL0     H99485   5.414   4.467   0.139  3.2964 -0.3231  0.6401
  737MOL0     H99486   5.480   4.416   0.296  1.4838 -1.2628 -1.3557
  737MOL0     H99487   5.339   4.247   0.105  0.2782 -2.7012  0.1498
  737MOL0     H99488   5.336   4.218   0.280 -0.1684 -3.8626 -2.0991
  737MOL0     H99489   5.496   4.076   0.215 -0.1298  0.2065  0.6729
  737MOL0     H99490   5.592   4.214   0.284  1.2376 -1.2084 -2.0456
  737MOL0     H99491   5.630   4.287   0.043  3.9356 -0.9256 -2.6293
  737MOL0     H99492   5.540   4.142  -0.010 -1.8589  1.3114  0.0983
  737MOL0     H99493   5.944   4.015   0.100  0.8666  1.0944 -3.4094
  737MOL0     H99494   5.463   4.636   0.232 -0.6041 -0.6514 -1.6841
  737MOL0     H99495   5.428   4.880   0.269  0.5782 -1.3149  0.7651
  738MOL0     O99496   1.326  11.351   6.931 -0.4441  0.8347  0.3406
  738MOL0     C99497   1.306  11.230   6.926 -0.1375 -0.5598 -0.1111
  738MOL0     O99498   1.393  11.135   6.975 -1.2334 -0.4013 -0.1987
  738MOL0     C99499   1.510  11.152   7.051  0.8992 -0.3097 -0.9219
  738MOL0     C99500   1.602  11.052   7.039 -0.2890  0.4277 -0.1173
  738MOL0     C99501   1.720  11.060   7.115  0.1982 -0.3148  0.2861
  738MOL0     C99502   1.747  11.163   7.207 -0.2830  0.6061  0.3917
  738MOL0     O99503   1.859  11.178   7.289 -0.1991 -0.4039 -0.8028
  738MOL0     C99504   1.959  11.083   7.313  0.0743  0.5503 -0.2086
  738MOL0     C99505   2.050  11.118   7.432  0.1979  0.1575  0.3473
  738MOL0     C99506   2.134  10.999   7.477 -0.4715  0.2766  0.4292
  738MOL0     C99507   2.244  11.049   7.578 -0.1990  1.5848  0.0730
  738MOL0     C99508   2.327  10.924   7.619 -0.1697 -0.5989  0.2629
  738MOL0     C99509   2.439  10.958   7.720 -0.3631  0.0145  0.4547
  738MOL0     C99510   2.495  10.823   7.791  0.1800 -0.6823 -0.7850
  738MOL0     C99511   2.533  10.709   7.694 -0.1718  0.6467 -0.4253
  738MOL0     N99512   2.602  10.596   7.759  0.2924 -0.6656 -0.1375
  738MOL0     C99513   2.552  10.479   7.810 -0.6251  0.3157  0.7927
  738MOL0     C99514   2.658  10.417   7.870  0.2058 -0.0949 -0.8329
  738MOL0     C99515   2.674  10.275   7.921 -0.8811 -0.1046  1.0116
  738MOL0     C99516   2.635  10.278   8.072  0.0298  0.0132  0.3447
  738MOL0     C99517   2.748  10.359   8.148  0.1207 -0.4719  0.6726
  738MOL0     C99518   2.736  10.367   8.297 -1.0383  0.0057  0.0838
  738MOL0     O99519   2.835  10.447   8.371 -0.7147  0.6749 -0.9788
  738MOL0     C99520   2.963  10.407   8.380  0.6140  0.1202  0.9051
  738MOL0     C99521   3.049  10.497   8.431  0.4761 -0.3165  0.1496
  738MOL0     C99522   3.178  10.475   8.450 -0.8785 -0.1046 -0.3657
  738MOL0     C99523   3.253  10.587   8.521 -0.3625 -0.4037  0.1719
  738MOL0     C99524   3.246  10.363   8.396 -0.6325  0.0086  0.3234
  738MOL0     C99525   3.393  10.332   8.395  0.4238  0.3931  0.4796
  738MOL0     O99526   3.437  10.239   8.308  0.6727 -0.5542  0.4350
  738MOL0     C99527   3.566  10.189   8.297  0.1681 -0.0441 -0.7080
  738MOL0     C99528   3.601  10.124   8.178  0.2601  0.2868 -0.3464
  738MOL0     C99529   3.735  10.066   8.150  0.2536  0.0028  0.2776
  738MOL0     C99530   3.836  10.096   8.241 -0.4794 -0.0803 -0.2657
  738MOL0     O99531   3.962  10.041   8.209 -0.0534 -0.6595 -0.4552
  738MOL0     C99532   4.012  10.062   8.080 -0.3362  1.0254 -0.0117
  738MOL0     C99533   4.156  10.008   8.070 -0.6519 -0.0303  1.2262
  738MOL0     C99534   4.225  10.028   7.934 -0.8427 -0.8549 -0.3226
  738MOL0     C99535   4.383  10.041   7.958 -0.0941 -0.3369 -0.1886
  738MOL0     C99536   4.480  10.038   7.842  0.0038 -1.0182  0.0219
  738MOL0     C99537   4.456  10.172   7.757  0.5469  0.3634 -0.4799
  738MOL0     C99538   4.544  10.198   7.630 -0.0826  0.0073 -0.7622
  738MOL0     C99539   4.516  10.334   7.580  1.1531 -0.8531  0.9380
  738MOL0    Cl99540   4.375  10.346   7.463  0.2765 -0.0754  0.4089
  738MOL0     C99541   3.813  10.169   8.358 -0.2240 -0.8021 -0.8356
  738MOL0     C99542   3.681  10.209   8.391  0.4642  0.7329 -0.1407
  738MOL0     O99543   3.462  10.396   8.465  1.1237  1.1765 -0.3388
  738MOL0     C99544   3.155  10.270   8.338  0.2377 -0.4462  0.3264
  738MOL0     C99545   3.018  10.289   8.334  1.3139 -0.3647 -1.4570
  738MOL0     N99546   2.769  10.496   7.861  1.4804 -0.3972 -0.1510
  738MOL0     N99547   2.731  10.607   7.794 -0.2821  0.1990 -0.4466
  738MOL0     C99548   1.658  11.274   7.204 -0.2500 -0.9354 -0.3315
  738MOL0     C99549   1.543  11.271   7.127 -0.1147 -0.8132  0.0082
  738MOL0     C99550   1.180  11.172   6.867  0.2447 -0.2709  0.3050
  738MOL0     C99551   1.155  11.040   6.868  0.1837 -0.7013 -0.5376
  738MOL0     C99552   1.036  10.997   6.813 -0.4822  0.6427 -0.3579
  738MOL0     C99553   0.936  11.086   6.749 -0.2639 -0.0692 -0.3505
  738MOL0     O99554   0.828  11.027   6.698 -0.0428  0.1689  0.4092
  738MOL0     C99555   0.721  11.106   6.666  0.1327 -0.2719  0.3412
  738MOL0     C99556   0.619  11.044   6.572  0.9396  0.2198  0.0640
  738MOL0     C99557   0.545  10.924   6.650 -0.0527 -0.5034  0.7379
  738MOL0     C99558   0.405  10.885   6.578  0.2032  0.0083  0.2934
  738MOL0     C99559   0.410  10.862   6.434  0.2112 -0.0665 -0.1535
  738MOL0     C99560   0.405  10.829   6.318 -0.9585  0.1082 -0.5098
  738MOL0     C99561   0.963  11.229   6.755 -0.5342 -0.2469 -1.0088
  738MOL0     C99562   1.093  11.264   6.808  0.1170 -0.2809 -0.0224
  738MOL0     H99563   1.593  10.966   6.973  2.0026 -0.0845  0.1511
  738MOL0     H99564   1.784  10.972   7.117 -1.4427 -1.5486  1.4144
  738MOL0     H99565   1.914  10.986   7.336 -0.8115  0.7206 -1.1525
  738MOL0     H99566   2.011  11.067   7.218 -2.4171 -1.7765 -1.3024
  738MOL0     H99567   2.110  11.201   7.394  0.0338 -0.0444 -0.3687
  738MOL0     H99568   1.981  11.142   7.514 -1.6133 -2.0656 -0.4195
  738MOL0     H99569   2.069  10.930   7.532 -3.8415  1.3776 -1.8781
  738MOL0     H99570   2.172  10.946   7.389 -3.5783  0.2061 -1.0054
  738MOL0     H99571   2.308  11.120   7.526  1.3979  0.7741  0.8752
  738MOL0     H99572   2.192  11.099   7.660 -0.3126 -2.5312  2.8466
  738MOL0     H99573   2.257  10.860   7.672 -0.5989  1.0386  1.7792
  738MOL0     H99574   2.359  10.873   7.528  4.3521  0.8205  0.7890
  738MOL0     H99575   2.514  11.002   7.654 -1.7088 -0.3239 -1.3716
  738MOL0     H99576   2.398  11.025   7.795  1.6945 -0.1136  1.7812
  738MOL0     H99577   2.585  10.854   7.846 -0.9276 -1.7540  1.7507
  738MOL0     H99578   2.425  10.788   7.867 -1.8588  1.6637 -1.4477
  738MOL0     H99579   2.604  10.749   7.622 -0.0953 -0.1216 -0.7866
  738MOL0     H99580   2.445  10.668   7.644 -0.1005 -0.7328  0.5197
  738MOL0     H99581   2.450  10.448   7.789 -0.4218 -0.9209  1.5307
  738MOL0     H99582   2.610  10.196   7.879 -1.5953 -0.6475  3.0216
  738MOL0     H99583   2.778  10.242   7.919 -0.7670  0.1907  1.8268
  738MOL0     H99584   2.633  10.178   8.115  1.1563 -0.1319  0.0934
  738MOL0     H99585   2.536  10.323   8.087  0.2349 -0.0166  1.8491
  738MOL0     H99586   2.751  10.459   8.104 -1.5634 -0.9232 -0.5721
  738MOL0     H99587   2.841  10.301   8.139  1.9531  2.1081  1.9085
  738MOL0     H99588   2.737  10.265   8.335 -1.3753  0.3226  0.9814
  738MOL0     H99589   2.645  10.411   8.339 -0.9777  1.3163 -1.0724
  738MOL0     H99590   3.017  10.589   8.478  3.0625  0.7546 -0.0248
  738MOL0     H99591   3.291  10.562   8.621 -1.6782  1.2438  1.1297
  738MOL0     H99592   3.341  10.631   8.472  0.1420 -0.7028  0.7974
  738MOL0     H99593   3.192  10.678   8.526  0.6824  0.3231  0.1311
  738MOL0     H99594   3.523  10.099   8.106 -2.1823  0.4021  2.1211
  738MOL0     H99595   3.751  10.013   8.057 -0.3267 -1.6387  1.0800
  738MOL0     H99596   3.953  10.013   8.001 -0.3820 -0.1444  0.7311
  738MOL0     H99597   4.012  10.169   8.058  0.5991  0.7083 -1.7251
  738MOL0     H99598   4.214  10.062   8.146  1.1975 -0.2659  0.0381
  738MOL0     H99599   4.171   9.901   8.089 -1.0189 -0.0112  1.6455
  738MOL0     H99600   4.188  10.120   7.888 -0.8974 -0.7086  0.0126
  738MOL0     H99601   4.203   9.944   7.868 -1.4744 -1.0178  0.0877
  738MOL0     H99602   4.415  10.116   8.031  0.3034 -1.3638  0.7054
  738MOL0     H99603   4.407   9.952   8.017  2.9306  0.3821 -0.1892
  738MOL0     H99604   4.453   9.952   7.781 -0.0165  0.2066 -1.7812
  738MOL0     H99605   4.586  10.035   7.871  0.0662  0.0112 -0.0715
  738MOL0     H99606   4.350  10.184   7.732  0.4802  0.7415 -0.0320
  738MOL0     H99607   4.489  10.258   7.815  0.8491  0.7708 -1.2405
  738MOL0     H99608   4.525  10.115   7.561 -0.7827 -1.0142  0.6241
  738MOL0     H99609   4.648  10.205   7.664 -0.4311 -0.6250  0.4932
  738MOL0     H99610   4.605  10.379   7.534  1.3476 -1.3257  0.8529
  738MOL0     H99611   4.496  10.405   7.662 -1.8086  1.3218 -1.4388
  738MOL0     H99612   3.895  10.192   8.426 -0.6293 -3.2504  0.6004
  738MOL0     H99613   3.662  10.268   8.480 -0.2250  0.0847  0.1459
  738MOL0     H99614   3.185  10.175   8.294  0.8507 -1.6593  3.1782
  738MOL0     H99615   2.960  10.210   8.289  0.5358 -1.6916  1.6408
  738MOL0     H99616   1.698  11.358   7.259 -3.8688  0.9946 -0.3157
  738MOL0     H99617   1.483  11.361   7.133  0.9620 -0.1080  0.3383
  738MOL0     H99618   1.209  10.961   6.919  1.1097 -1.1145 -2.1009
  738MOL0     H99619   1.005  10.893   6.823  0.8875  0.3602  1.6712
  738MOL0     H99620   0.680  11.140   6.761  1.6236  0.7019  0.6707
  738MOL0     H99621   0.754  11.187   6.601 -0.0875 -0.4503  0.0039
  738MOL0     H99622   0.661  11.003   6.480  3.3893  2.2780  0.1558
  738MOL0     H99623   0.536  11.113   6.558 -2.4232 -3.6127 -0.5875
  738MOL0     H99624   0.530  10.944   6.756  3.5088 -2.8876  1.8625
  738MOL0     H99625   0.617  10.842   6.649  2.7749  1.7609 -1.5411
  738MOL0     H99626   0.325  10.952   6.608 -0.7772 -0.1075 -1.8881
  738MOL0     H99627   0.371  10.789   6.619  0.0006 -1.3897 -2.8686
  738MOL0     H99628   0.400  10.775   6.225 -2.7088  0.9955 -0.9651
  738MOL0     H99629   0.894  11.298   6.707 -0.9039  2.0241  2.4319
  738MOL0     H99630   1.122  11.368   6.814  3.8352 -1.2480  1.3531
  739MOL0     O99631   5.090   9.821   6.048  0.0041  0.5404  0.1375
  739MOL0     C99632   5.032   9.924   6.043 -0.6682 -0.1559  0.6798
  739MOL0     O99633   5.080  10.041   6.098 -0.6218 -0.7099 -0.0504
  739MOL0     C99634   5.181  10.050   6.191  0.2288  0.1384  0.4490
  739MOL0     C99635   5.215   9.949   6.287  0.2832  0.0644 -0.0066
  739MOL0     C99636   5.321   9.973   6.366 -0.7678  0.5658 -0.6856
  739MOL0     C99637   5.400  10.088   6.367 -0.8054  0.1485 -0.0938
  739MOL0     O99638   5.517  10.080   6.445  0.2150  0.5842 -0.5653
  739MOL0     C99639   5.579  10.196   6.484 -0.9899 -0.6860 -0.6452
  739MOL0     C99640   5.662  10.152   6.597  0.0999 -0.0484  0.2334
  739MOL0     C99641   5.772  10.256   6.624  0.0456 -0.2383 -0.4862
  739MOL0     C99642   5.842  10.208   6.753  0.0852 -0.2142  0.1810
  739MOL0     C99643   5.969  10.295   6.763  0.3374 -0.0441 -0.0717
  739MOL0     C99644   6.065  10.230   6.871 -0.0124  0.7007 -0.4656
  739MOL0     C99645   6.164  10.336   6.925  0.3698 -0.3718  0.0599
  739MOL0     C99646   6.288  10.361   6.836  0.1875  0.1920  0.0865
  739MOL0     N99647   6.274  10.425   6.707  0.2312  0.4305  0.4873
  739MOL0     C99648   6.213  10.542   6.684 -0.2813 -0.5211 -0.1712
  739MOL0     C99649   6.194  10.546   6.545 -0.1047 -0.7638 -0.5779
  739MOL0     C99650   6.139  10.660   6.463 -0.9990 -0.4181  0.5006
  739MOL0     C99651   6.247  10.762   6.420 -0.0907  0.4463  1.0805
  739MOL0     C99652   6.185  10.855   6.318  0.2818  0.1308  0.0307
  739MOL0     C99653   6.286  10.967   6.281 -0.1649  0.9433  0.2004
  739MOL0     O99654   6.218  11.094   6.281 -0.1900  0.3880  0.1732
  739MOL0     C99655   6.295  11.205   6.308  0.0017 -1.5742  0.7601
  739MOL0     C99656   6.434  11.215   6.347 -0.8842 -0.2580 -0.6028
  739MOL0     C99657   6.499  11.335   6.364 -0.3148 -0.2468 -0.2340
  739MOL0     C99658   6.651  11.329   6.415  0.2302 -0.1412  0.1483
  739MOL0     C99659   6.425  11.454   6.342 -0.3479  0.4014 -0.3748
  739MOL0     C99660   6.488  11.586   6.356  0.0504 -0.2863  0.0829
  739MOL0     O99661   6.424  11.687   6.420 -0.7898  0.0765 -0.5597
  739MOL0     C99662   6.486  11.806   6.446 -0.8266  0.2346 -1.2310
  739MOL0     C99663   6.475  11.905   6.346 -1.0069 -0.3072  0.0008
  739MOL0     C99664   6.556  12.015   6.345 -0.3405 -0.2446 -1.1536
  739MOL0     C99665   6.642  12.031   6.454 -0.5525  1.4400 -0.3005
  739MOL0     O99666   6.733  12.133   6.455  0.0650  0.1527 -0.6896
  739MOL0     C99667   6.688  12.238   6.541 -0.5784 -0.5917  0.3636
  739MOL0     C99668   6.814  12.309   6.571  0.4153 -0.0363  0.5466
  739MOL0     C99669   6.805  12.423   6.670 -0.7013  0.4815  0.0388
  739MOL0     C99670   6.953  12.469   6.696  0.9007  0.6361 -0.5112
  739MOL0     C99671   6.946  12.605   6.774 -0.0362 -0.1141 -0.1000
  739MOL0     C99672   7.079  12.630   6.849 -0.2877 -0.9669  0.1878
  739MOL0     C99673   7.058  12.766   6.929  0.6279  0.9568 -0.5216
  739MOL0     C99674   6.978  12.742   7.059 -0.3764 -0.9284  0.0277
  739MOL0    Cl99675   7.000  12.589   7.150 -0.1895  0.2023  0.1048
  739MOL0     C99676   6.659  11.931   6.551 -0.1011  0.3406 -0.0932
  739MOL0     C99677   6.581  11.821   6.551  0.1066 -0.0037  0.0250
  739MOL0     O99678   6.585  11.606   6.283 -0.7641 -0.2836 -0.4119
  739MOL0     C99679   6.291  11.442   6.329  0.3873  0.2022 -1.1614
  739MOL0     C99680   6.223  11.319   6.313  0.0158  0.1108  0.2933
  739MOL0     N99681   6.248  10.439   6.488 -0.5552  0.2528  0.0961
  739MOL0     N99682   6.284  10.358   6.581  0.8687 -0.5141  0.8724
  739MOL0     C99683   5.362  10.198   6.289  0.8428 -0.4076  0.3311
  739MOL0     C99684   5.255  10.173   6.197 -0.5869 -0.5191  0.4026
  739MOL0     C99685   4.919   9.931   5.956  0.2785 -0.1840  0.1792
  739MOL0     C99686   4.901   9.832   5.851  0.5830  0.5253  0.3693
  739MOL0     C99687   4.799   9.846   5.759  0.6941  0.3200  0.5110
  739MOL0     C99688   4.723   9.964   5.760  0.2844 -0.6764  1.0411
  739MOL0     O99689   4.633   9.986   5.658 -0.6157 -0.3143  0.9062
  739MOL0     C99690   4.544  10.106   5.660 -1.1353  0.2196  1.5510
  739MOL0     C99691   4.424  10.092   5.747  0.4400 -0.4344  0.3433
  739MOL0     C99692   4.347   9.965   5.719  1.0140  0.4111  1.1147
  739MOL0     C99693   4.221   9.940   5.808 -0.4251  0.5269  0.6611
  739MOL0     C99694   4.136  10.058   5.814  0.6845  0.6168  0.3227
  739MOL0     C99695   4.052  10.149   5.832 -0.8861 -0.5882 -0.8296
  739MOL0     C99696   4.740  10.056   5.863 -0.7826  0.4378 -0.1002
  739MOL0     C99697   4.836  10.038   5.960  0.1509  0.2979 -0.2781
  739MOL0     H99698   5.162   9.855   6.279 -0.6753  0.2887  2.7182
  739MOL0     H99699   5.364   9.900   6.434  0.8631  1.4982 -0.6697
  739MOL0     H99700   5.636  10.240   6.401 -1.4070 -1.8689 -1.5869
  739MOL0     H99701   5.515  10.277   6.521  1.0349 -0.2671  2.2124
  739MOL0     H99702   5.610  10.127   6.690 -0.2440 -2.8965 -0.6394
  739MOL0     H99703   5.718  10.065   6.562  1.5833  1.2198 -0.6938
  739MOL0     H99704   5.853  10.272   6.552  0.8267  0.2037  0.4717
  739MOL0     H99705   5.718  10.348   6.645 -4.0006 -2.9183  2.2282
  739MOL0     H99706   5.774  10.209   6.839 -1.6599  1.6511 -1.1371
  739MOL0     H99707   5.872  10.103   6.743 -0.3830 -0.4462  1.0605
  739MOL0     H99708   6.027  10.312   6.672  2.8791  0.7986  1.5729
  739MOL0     H99709   5.941  10.393   6.803 -0.1866 -0.8442  1.6290
  739MOL0     H99710   6.001  10.199   6.954 -0.0695  1.7276 -0.1037
  739MOL0     H99711   6.118  10.141   6.838  0.6986  1.5811 -1.7995
  739MOL0     H99712   6.099  10.423   6.940  1.8146  0.7685 -0.0266
  739MOL0     H99713   6.209  10.313   7.023  1.0647 -0.5847 -0.3002
  739MOL0     H99714   6.317  10.261   6.804 -0.1445  0.0091  0.3508
  739MOL0     H99715   6.377  10.402   6.885  0.0579  1.5594 -0.7535
  739MOL0     H99716   6.197  10.629   6.746  4.2567  1.5708 -1.5393
  739MOL0     H99717   6.074  10.630   6.381 -1.6061  0.6362  0.5766
  739MOL0     H99718   6.083  10.704   6.547  1.4536 -2.2812  3.3238
  739MOL0     H99719   6.325  10.701   6.372 -0.8270  1.6846 -1.9127
  739MOL0     H99720   6.293  10.825   6.497 -2.5698  2.9351  0.6412
  739MOL0     H99721   6.098  10.895   6.370 -2.1098 -1.6312 -2.3049
  739MOL0     H99722   6.156  10.793   6.232 -1.0071 -1.5670  1.5952
  739MOL0     H99723   6.326  10.947   6.181 -2.3876 -0.1315 -0.5416
  739MOL0     H99724   6.369  10.973   6.352 -0.5910  0.3111  0.7628
  739MOL0     H99725   6.494  11.125   6.357 -0.7904 -0.2024 -0.6608
  739MOL0     H99726   6.727  11.279   6.355  0.0186 -0.7050  0.3408
  739MOL0     H99727   6.689  11.430   6.427  0.4946 -0.2517  0.2381
  739MOL0     H99728   6.647  11.280   6.513 -1.0989 -0.3965 -0.0079
  739MOL0     H99729   6.396  11.887   6.274 -1.2969 -0.8341  0.4410
  739MOL0     H99730   6.552  12.101   6.278 -3.3903 -0.6298 -1.6212
  739MOL0     H99731   6.613  12.302   6.492  0.2346 -1.7847 -2.6243
  739MOL0     H99732   6.646  12.202   6.635 -1.8379  1.8961  0.8318
  739MOL0     H99733   6.882  12.231   6.610 -0.8429 -1.3403  0.2151
  739MOL0     H99734   6.859  12.351   6.481  0.2904 -0.4662  0.2785
  739MOL0     H99735   6.760  12.385   6.762 -0.5803 -1.9510 -0.8479
  739MOL0     H99736   6.746  12.504   6.627 -0.5476  1.2563  1.2187
  739MOL0     H99737   6.995  12.391   6.760 -1.8701 -0.0892  0.5772
  739MOL0     H99738   7.008  12.477   6.602  0.1582 -0.4723 -1.0502
  739MOL0     H99739   6.860  12.591   6.841 -0.6856 -2.2897 -1.2975
  739MOL0     H99740   6.921  12.682   6.700 -2.9365 -0.9935 -0.1575
  739MOL0     H99741   7.100  12.537   6.903 -2.1261 -3.4268 -3.0077
  739MOL0     H99742   7.164  12.634   6.781 -0.7699 -2.5088 -0.5635
  739MOL0     H99743   7.009  12.845   6.870 -0.6499  0.5908  0.0116
  739MOL0     H99744   7.156  12.802   6.962  0.8946 -1.6984  1.9802
  739MOL0     H99745   6.872  12.754   7.037 -0.4642  1.1369  1.3211
  739MOL0     H99746   7.003  12.823   7.128  1.3792  0.9984 -2.6680
  739MOL0     H99747   6.734  11.947   6.628 -0.1742  1.9717 -0.3145
  739MOL0     H99748   6.580  11.741   6.624  0.0702 -0.5394 -0.5580
  739MOL0     H99749   6.240  11.537   6.328  2.0605  1.1490 -0.9417
  739MOL0     H99750   6.115  11.319   6.299 -0.2643  1.6378  2.0265
  739MOL0     H99751   5.418  10.289   6.278  1.0898 -0.4981  0.8489
  739MOL0     H99752   5.211  10.239   6.123  0.6769 -0.5645 -0.4139
  739MOL0     H99753   4.971   9.752   5.829 -1.0179 -0.8052 -0.1710
  739MOL0     H99754   4.784   9.779   5.675  1.4260 -1.6293  1.8565
  739MOL0     H99755   4.603  10.196   5.675 -1.1881  0.5725 -0.1712
  739MOL0     H99756   4.495  10.115   5.563 -1.0079  0.4742  1.5109
  739MOL0     H99757   4.354  10.173   5.726 -0.4154 -1.3197 -0.2820
  739MOL0     H99758   4.459  10.088   5.851 -2.3376 -1.6082  1.3207
  739MOL0     H99759   4.402   9.870   5.721  1.3460  0.4195 -2.1418
  739MOL0     H99760   4.323   9.967   5.613  0.1891 -2.4526  1.1594
  739MOL0     H99761   4.261   9.937   5.909  0.7602  2.8975  0.3355
  739MOL0     H99762   4.160   9.855   5.775  1.5784 -1.0014  0.7176
  739MOL0     H99763   3.987  10.231   5.854  1.0256  0.8571 -0.4013
  739MOL0     H99764   4.680  10.145   5.878 -0.8049  0.2402  1.0754
  739MOL0     H99765   4.866  10.115   6.030  1.1859  0.4703 -0.8920
  740MOL0     O99766   9.644   2.697   1.256  0.4250  0.0193 -0.5112
  740MOL0     C99767   9.564   2.788   1.280 -0.3092  0.8088  0.6590
  740MOL0     O99768   9.450   2.776   1.351  0.9495  0.0243  0.1383
  740MOL0     C99769   9.424   2.651   1.409  0.0652  0.1795 -0.1048
  740MOL0     C99770   9.390   2.648   1.543 -0.5600  0.2972 -0.2851
  740MOL0     C99771   9.341   2.527   1.601 -0.6787  0.2024 -0.4864
  740MOL0     C99772   9.319   2.419   1.518 -0.7921  0.4354  0.1912
  740MOL0     O99773   9.275   2.305   1.587 -0.3887 -0.3125 -0.7565
  740MOL0     C99774   9.199   2.221   1.514 -0.1602  1.1511 -0.0974
  740MOL0     C99775   9.143   2.105   1.597  0.8194  0.5661  1.1652
  740MOL0     C99776   9.243   2.018   1.652  1.0262 -1.2627  0.2165
  740MOL0     C99777   9.176   1.889   1.687 -0.3286  0.2016 -0.3984
  740MOL0     C99778   9.263   1.807   1.795  0.0181  0.2650  0.7776
  740MOL0     C99779   9.227   1.848   1.944  0.4905  0.0066  0.2545
  740MOL0     C99780   9.324   1.773   2.048 -0.2439 -0.6377 -0.3931
  740MOL0     C99781   9.318   1.618   2.047  0.0347  0.8554 -0.7327
  740MOL0     N99782   9.193   1.548   2.060  0.3026  0.2716 -0.7445
  740MOL0     C99783   9.124   1.543   2.175  0.4651 -0.5648 -0.0470
  740MOL0     C99784   9.030   1.455   2.158 -0.7433 -0.2432  0.4118
  740MOL0     C99785   8.949   1.405   2.270  0.4040  0.4852  0.8459
  740MOL0     C99786   8.871   1.519   2.337  0.1611  0.0378 -0.4756
  740MOL0     C99787   8.798   1.491   2.468  0.4234 -0.6538  0.0733
  740MOL0     C99788   8.697   1.368   2.483 -0.2047 -0.3494  0.8916
  740MOL0     O99789   8.778   1.252   2.482  0.9510 -0.2663  0.0581
  740MOL0     C99790   8.724   1.128   2.495  0.1165  0.7410  1.0296
  740MOL0     C99791   8.815   1.016   2.506  0.0535  0.0391  0.7022
  740MOL0     C99792   8.760   0.891   2.535  1.2119  0.4198 -0.4773
  740MOL0     C99793   8.859   0.783   2.586  0.1312 -0.0066 -0.4619
  740MOL0     C99794   8.613   0.873   2.536 -0.1702  0.2613  0.5912
  740MOL0     C99795   8.549   0.752   2.564 -0.3371  1.6366 -0.5122
  740MOL0     O99796   8.415   0.742   2.538  0.3373  0.2917  0.0990
  740MOL0     C99797   8.376   0.633   2.469  0.0048  0.1379  0.3381
  740MOL0     C99798   8.332   0.510   2.532  0.4302  0.3591 -1.1093
  740MOL0     C99799   8.301   0.392   2.462  0.5439  0.4439 -0.6473
  740MOL0     C99800   8.322   0.388   2.327  0.6981 -0.5863 -0.4269
  740MOL0     O99801   8.312   0.272   2.261 -0.2035  0.3579 -0.8717
  740MOL0     C99802   8.176   0.245   2.221 -0.7767 -0.2409 -0.7743
  740MOL0     C99803   8.163   0.101   2.215 -0.1954 -0.7942  0.4250
  740MOL0     C99804   8.019   0.066   2.191  0.0470 -0.7251 -0.4849
  740MOL0     C99805   7.998  -0.079   2.164 -0.1697  0.2932  1.2141
  740MOL0     C99806   7.841  -0.107   2.164  0.6023 -0.6928  0.1107
  740MOL0     C99807   7.815  -0.257   2.116 -0.7077  0.2408 -1.1612
  740MOL0     C99808   7.670  -0.278   2.087  0.0268  0.6375 -0.6097
  740MOL0     C99809   7.594  -0.271   2.218  0.3543  1.2456  0.9101
  740MOL0    Cl99810   7.526  -0.103   2.242  0.1894 -0.1541  0.2733
  740MOL0     C99811   8.372   0.503   2.262  0.8939 -0.9022  0.9533
  740MOL0     C99812   8.386   0.627   2.326  0.1495 -0.0967 -0.0796
  740MOL0     O99813   8.618   0.656   2.606  0.2554  0.1316 -0.3056
  740MOL0     C99814   8.533   0.980   2.527  0.4031 -0.2434  0.5300
  740MOL0     C99815   8.585   1.110   2.506  0.4457  0.5688 -0.3536
  740MOL0     N99816   9.054   1.389   2.036 -0.0909 -0.3997 -0.2220
  740MOL0     N99817   9.154   1.449   1.979  0.8200 -0.7723  0.9678
  740MOL0     C99818   9.340   2.433   1.379  0.0833 -0.2332  0.3871
  740MOL0     C99819   9.395   2.548   1.324 -0.2997  0.5293 -0.1292
  740MOL0     C99820   9.580   2.921   1.206  0.1123  0.0484  0.3841
  740MOL0     C99821   9.652   2.921   1.086 -0.7060 -0.4027 -0.0411
  740MOL0     C99822   9.648   3.038   1.003 -0.3522  0.0210  0.2362
  740MOL0     C99823   9.576   3.154   1.048 -1.1050  1.0337  1.4904
  740MOL0     O99824   9.552   3.259   0.963 -0.1101 -0.6092 -0.4077
  740MOL0     C99825   9.631   3.264   0.846 -0.2568 -0.2105  0.8901
  740MOL0     C99826   9.606   3.397   0.771 -0.4375 -0.4840  0.8895
  740MOL0     C99827   9.684   3.402   0.644 -0.9319 -0.4203  0.3094
  740MOL0     C99828   9.679   3.554   0.594  0.6684  0.1401 -0.4484
  740MOL0     C99829   9.722   3.576   0.455 -1.2967 -0.0469 -0.1073
  740MOL0     C99830   9.746   3.604   0.342  0.5555  0.7856  1.0360
  740MOL0     C99831   9.510   3.151   1.170 -0.0619 -0.2669 -0.1040
  740MOL0     C99832   9.509   3.034   1.243 -0.3546  0.0854 -0.3365
  740MOL0     H99833   9.419   2.733   1.603  2.1323 -0.3285 -0.5582
  740MOL0     H99834   9.316   2.515   1.706  1.6305  2.2679  0.3852
  740MOL0     H99835   9.116   2.276   1.470 -0.3442  1.0200  0.0884
  740MOL0     H99836   9.262   2.176   1.437  0.6510  0.3965  0.9680
  740MOL0     H99837   9.064   2.117   1.672 -1.4741  0.2997 -1.0968
  740MOL0     H99838   9.086   2.049   1.523  3.8710 -1.5286  0.2276
  740MOL0     H99839   9.322   2.002   1.579 -0.3939 -0.0807 -1.6608
  740MOL0     H99840   9.282   2.058   1.747 -2.5702  1.3637  0.7879
  740MOL0     H99841   9.081   1.914   1.734 -0.5529 -0.2233 -0.6169
  740MOL0     H99842   9.169   1.834   1.593  1.9301 -0.4372 -0.2591
  740MOL0     H99843   9.230   1.703   1.786 -1.4982  0.8375 -0.7452
  740MOL0     H99844   9.370   1.824   1.780 -0.1789 -0.3167 -1.7096
  740MOL0     H99845   9.257   1.953   1.946  0.8151 -0.0806 -0.0206
  740MOL0     H99846   9.123   1.824   1.967 -0.7288  2.4505 -2.2136
  740MOL0     H99847   9.429   1.800   2.036 -1.4906  5.4937 -0.6826
  740MOL0     H99848   9.302   1.813   2.147 -2.2163 -0.4926 -0.8332
  740MOL0     H99849   9.387   1.567   2.115  0.0437  1.7977 -0.0074
  740MOL0     H99850   9.348   1.587   1.947 -0.0026 -0.5645 -0.3356
  740MOL0     H99851   9.140   1.601   2.265  0.3506 -1.5672  0.6365
  740MOL0     H99852   8.876   1.332   2.234  0.2859  1.0754 -0.1293
  740MOL0     H99853   9.014   1.347   2.337 -1.0197 -2.3209 -0.0310
  740MOL0     H99854   8.798   1.558   2.265  1.6767  1.8505 -1.1312
  740MOL0     H99855   8.944   1.598   2.359  4.5840 -3.7655  0.1071
  740MOL0     H99856   8.742   1.583   2.483  1.2455 -0.4478  2.2679
  740MOL0     H99857   8.874   1.479   2.545 -0.8041 -1.1475  1.2541
  740MOL0     H99858   8.621   1.367   2.404 -1.1882 -0.8560  1.8123
  740MOL0     H99859   8.645   1.377   2.579 -0.1456  1.6113  0.7715
  740MOL0     H99860   8.923   1.023   2.503 -0.0825  3.8783 -0.8002
  740MOL0     H99861   8.959   0.827   2.577 -1.4114  3.6298 -2.0336
  740MOL0     H99862   8.844   0.754   2.690  0.2842 -0.8426 -0.6642
  740MOL0     H99863   8.858   0.693   2.523  4.3772 -0.6372  0.0592
  740MOL0     H99864   8.313   0.518   2.638 -0.5198  0.8041 -1.2946
  740MOL0     H99865   8.273   0.299   2.509  0.2125  0.3826 -0.9627
  740MOL0     H99866   8.102   0.290   2.288  2.4573  3.2973  0.8347
  740MOL0     H99867   8.180   0.286   2.120  3.8511  0.4911 -0.5158
  740MOL0     H99868   8.213   0.089   2.118  0.5625  2.2190  0.3422
  740MOL0     H99869   8.210   0.062   2.306 -2.4918 -0.4658  1.8217
  740MOL0     H99870   7.971   0.125   2.112 -0.4279  0.3629  0.5892
  740MOL0     H99871   7.960   0.087   2.280  0.1826 -3.0617  0.2140
  740MOL0     H99872   8.039  -0.113   2.068 -0.9502 -4.4199  2.3332
  740MOL0     H99873   8.041  -0.132   2.250 -0.1424 -1.8749 -0.0840
  740MOL0     H99874   7.781  -0.039   2.103  1.4364 -0.2217 -0.1862
  740MOL0     H99875   7.811  -0.083   2.267 -0.7100  1.3987 -0.7032
  740MOL0     H99876   7.882  -0.278   2.032  1.3692 -2.9120  1.0816
  740MOL0     H99877   7.849  -0.332   2.187 -2.1879 -0.1102 -0.7930
  740MOL0     H99878   7.657  -0.368   2.026  3.0627  0.1728 -0.7495
  740MOL0     H99879   7.639  -0.192   2.027  0.4745  1.3701  0.1867
  740MOL0     H99880   7.650  -0.318   2.300  3.0948 -1.1359 -2.0876
  740MOL0     H99881   7.502  -0.329   2.209  1.6069 -0.7926  0.6708
  740MOL0     H99882   8.377   0.474   2.158 -2.6463 -1.3211  0.7782
  740MOL0     H99883   8.401   0.715   2.266  0.7669 -0.5831 -0.6516
  740MOL0     H99884   8.425   0.978   2.539 -0.1932  3.6505 -2.2873
  740MOL0     H99885   8.510   1.188   2.500 -0.4010 -0.1976  0.0317
  740MOL0     H99886   9.312   2.355   1.309 -0.2463  2.0136 -2.1663
  740MOL0     H99887   9.408   2.555   1.216 -3.2167 -3.0672 -0.9435
  740MOL0     H99888   9.707   2.831   1.059  0.2726  0.2894 -0.4096
  740MOL0     H99889   9.693   3.020   0.906  1.3286 -2.7220  1.3911
  740MOL0     H99890   9.736   3.271   0.876 -0.4309 -0.0960  1.4649
  740MOL0     H99891   9.625   3.178   0.777 -0.0177 -2.0024  2.9950
  740MOL0     H99892   9.644   3.479   0.832 -0.8328  1.0776 -0.8867
  740MOL0     H99893   9.500   3.411   0.752 -0.7526 -1.5068  1.7897
  740MOL0     H99894   9.635   3.336   0.572 -1.4711 -0.8630  1.0658
  740MOL0     H99895   9.782   3.356   0.663 -0.7607 -0.0142  0.4040
  740MOL0     H99896   9.747   3.620   0.649 -0.2723  0.8629 -0.1234
  740MOL0     H99897   9.580   3.597   0.612  1.9885  2.6037  1.7040
  740MOL0     H99898   9.774   3.627   0.241 -0.4335 -0.2731  0.4942
  740MOL0     H99899   9.471   3.243   1.213 -0.8601 -1.6927  2.4001
  740MOL0     H99900   9.463   3.047   1.341  0.6921  1.1258  0.0421
  741MOL0     O99901   9.339   9.898   5.403  0.1106  0.4484  0.0019
  741MOL0     C99902   9.455   9.866   5.404 -0.0225 -0.1090  0.1040
  741MOL0     O99903   9.508   9.760   5.336  0.1578 -0.7020 -0.0503
  741MOL0     C99904   9.436   9.718   5.227  0.0871 -0.6574  0.0390
  741MOL0     C99905   9.371   9.591   5.220 -1.1530  0.2352 -0.1540
  741MOL0     C99906   9.294   9.552   5.112  0.2218  1.2096  0.1701
  741MOL0     C99907   9.276   9.641   5.013 -0.7333  0.4809  0.6040
  741MOL0     O99908   9.219   9.604   4.887  0.4798  0.4161  0.4988
  741MOL0     C99909   9.097   9.676   4.862 -0.8052 -0.2476  0.0768
  741MOL0     C99910   8.989   9.663   4.978  0.3964  0.8940 -1.0326
  741MOL0     C99911   8.850   9.720   4.932 -0.3117  0.9785 -0.6988
  741MOL0     C99912   8.771   9.767   5.055  0.6942  0.2237  0.3973
  741MOL0     C99913   8.665   9.863   5.002  0.5927 -0.0590  0.5247
  741MOL0     C99914   8.713  10.008   5.021 -0.3397 -0.6722  0.1112
  741MOL0     C99915   8.620  10.099   5.105 -0.5576  0.1091 -0.3728
  741MOL0     C99916   8.493  10.132   5.027  0.4382 -1.4245  0.1420
  741MOL0     N99917   8.424  10.255   5.065  0.2452 -0.3787 -0.0306
  741MOL0     C99918   8.331  10.266   5.167 -0.5206 -0.3740  0.3998
  741MOL0     C99919   8.259  10.383   5.154 -0.0759  0.4481 -0.1982
  741MOL0     C99920   8.146  10.448   5.233 -0.4023  0.0010 -0.6277
  741MOL0     C99921   8.020  10.365   5.244 -0.4703  0.0896 -0.0435
  741MOL0     C99922   7.912  10.457   5.301  0.3183  0.7744 -0.3516
  741MOL0     C99923   7.794  10.369   5.350  0.8359  0.0801 -0.5400
  741MOL0     O99924   7.832  10.312   5.482 -0.4800 -0.0200  0.1277
  741MOL0     C99925   7.826  10.391   5.589 -0.1955 -0.6890  0.5235
  741MOL0     C99926   7.855  10.316   5.700 -0.7343 -0.0572  0.3874
  741MOL0     C99927   7.859  10.379   5.819 -0.7736 -0.0241  0.1252
  741MOL0     C99928   7.935  10.316   5.933  0.0017 -0.5314  0.3079
  741MOL0     C99929   7.817  10.517   5.837 -0.9838 -0.3394  0.1703
  741MOL0     C99930   7.802  10.591   5.961 -0.0844  0.1862  0.1623
  741MOL0     O99931   7.803  10.519   6.063  0.5548 -0.0011 -0.2487
  741MOL0     C99932   7.816  10.563   6.192 -0.0361 -0.1350 -0.2013
  741MOL0     C99933   7.882  10.677   6.226  0.2214 -0.6887  0.2078
  741MOL0     C99934   7.885  10.718   6.360 -0.8877  0.4291 -0.2060
  741MOL0     C99935   7.809  10.652   6.455 -0.3140  0.0571 -0.1639
  741MOL0     O99936   7.792  10.687   6.586 -0.2243 -0.5983  0.0418
  741MOL0     C99937   7.797  10.827   6.613 -0.6984 -0.0856 -0.0845
  741MOL0     C99938   7.723  10.854   6.741  0.8086  0.0829  0.1158
  741MOL0     C99939   7.570  10.831   6.723  0.8346 -0.4137 -0.1593
  741MOL0     C99940   7.493  10.848   6.856 -0.0498 -0.1403  0.4471
  741MOL0     C99941   7.345  10.871   6.839  0.1120  0.2803 -0.6581
  741MOL0     C99942   7.270  10.737   6.803  0.5932  0.1346  1.4415
  741MOL0     C99943   7.111  10.732   6.827  0.8544 -0.6600 -0.0376
  741MOL0     C99944   7.048  10.589   6.793  1.1664  0.1184  0.4662
  741MOL0    Cl99945   7.028  10.565   6.617 -0.5036 -0.0587  0.4930
  741MOL0     C99946   7.749  10.537   6.425  0.3589 -0.1887 -0.3343
  741MOL0     C99947   7.762  10.486   6.293 -0.8168  0.4686  0.3217
  741MOL0     O99948   7.792  10.710   5.961  0.4385  0.4065 -0.1358
  741MOL0     C99949   7.776  10.587   5.726  0.6265 -0.2431  0.4938
  741MOL0     C99950   7.781  10.525   5.598 -0.6121 -0.7969 -0.9293
  741MOL0     N99951   8.312  10.444   5.041 -0.8399 -0.2890  0.1933
  741MOL0     N99952   8.421  10.378   4.997 -0.0999  0.0046 -1.0072
  741MOL0     C99953   9.317   9.773   5.025 -0.1337 -1.1982 -0.6245
  741MOL0     C99954   9.399   9.817   5.129  0.4628 -0.4110 -0.7959
  741MOL0     C99955   9.545   9.936   5.493  0.6771 -0.4909 -0.5006
  741MOL0     C99956   9.681   9.910   5.485 -0.7348  1.0410  0.1462
  741MOL0     C99957   9.776   9.962   5.569  0.4558  0.0200  0.5599
  741MOL0     C99958   9.732  10.045   5.674  0.0838  0.2526  0.6700
  741MOL0     O99959   9.814  10.104   5.759 -0.4178 -0.8305 -0.2323
  741MOL0     C99960   9.960  10.077   5.765  0.7125 -0.1589 -0.5782
  741MOL0     C99961   9.978   9.964   5.864 -0.0495 -1.0532  0.9325
  741MOL0     C99962   9.940   9.999   6.011  0.5292  0.1160 -0.2347
  741MOL0     C99963   9.925   9.874   6.100  0.1767 -0.1219  0.3444
  741MOL0     C99964   9.793   9.807   6.086  0.2672 -0.5062 -0.4420
  741MOL0     C99965   9.678   9.766   6.070 -0.0564  0.5951  0.2384
  741MOL0     C99966   9.601  10.086   5.680  0.3554 -0.1647  0.1379
  741MOL0     C99967   9.507  10.028   5.590  0.4314 -0.0385  0.0372
  741MOL0     H99968   9.370   9.523   5.304 -1.3728 -0.2442 -0.5459
  741MOL0     H99969   9.255   9.451   5.101  4.2671 -0.6461  1.0272
  741MOL0     H99970   9.114   9.783   4.855  2.3895 -0.6525  0.4107
  741MOL0     H99971   9.054   9.644   4.767  1.3783  3.4885 -2.3879
  741MOL0     H99972   8.986   9.555   4.998  0.8141  1.2247  1.0575
  741MOL0     H99973   9.027   9.710   5.070 -2.0617  2.6868 -0.8467
  741MOL0     H99974   8.868   9.798   4.858  1.2930  0.0903 -1.2970
  741MOL0     H99975   8.792   9.638   4.888  0.1723  0.9356 -1.2648
  741MOL0     H99976   8.735   9.682   5.113  2.2563 -0.1205  0.8957
  741MOL0     H99977   8.838   9.808   5.132  0.2353  1.0679  0.3659
  741MOL0     H99978   8.640   9.846   4.896 -2.5815  0.4094  1.0942
  741MOL0     H99979   8.571   9.838   5.053 -0.0791  0.8945 -0.1968
  741MOL0     H99980   8.812  10.014   5.067  0.0390 -1.4150 -0.5789
  741MOL0     H99981   8.731  10.043   4.919  0.3446 -0.9565  0.1277
  741MOL0     H99982   8.601  10.040   5.195 -1.4092  1.7939  0.5990
  741MOL0     H99983   8.678  10.189   5.126  0.9395 -0.8839 -0.1322
  741MOL0     H99984   8.418  10.054   5.015  0.3506 -1.0977 -1.7519
  741MOL0     H99985   8.527  10.162   4.927  1.0407  0.3189  0.8315
  741MOL0     H99986   8.308  10.196   5.246 -1.8810  1.8898  2.1354
  741MOL0     H99987   8.188  10.460   5.333 -0.7920  0.2519 -0.4912
  741MOL0     H99988   8.124  10.550   5.201 -5.0674 -0.8904 -1.0085
  741MOL0     H99989   8.035  10.281   5.312 -0.5972 -0.9881 -1.3007
  741MOL0     H99990   7.984  10.316   5.153 -0.3488 -3.0003  1.4306
  741MOL0     H99991   7.872  10.524   5.224 -3.5389 -1.1190 -0.2483
  741MOL0     H99992   7.953  10.511   5.387 -0.8215 -0.7855  1.2544
  741MOL0     H99993   7.788  10.303   5.264  2.6497 -1.3579  0.3676
  741MOL0     H99994   7.702  10.427   5.365  0.9548 -0.0088  0.6511
  741MOL0     H99995   7.898  10.221   5.671 -0.9195 -0.2643  0.7812
  741MOL0     H99996   7.980  10.229   5.884  0.7983  0.9764 -1.7777
  741MOL0     H99997   8.009  10.385   5.975 -2.1572  2.6491 -0.7777
  741MOL0     H99998   7.883  10.269   6.018  1.3325 -4.2319 -0.7091
  741MOL0     H99999   7.938  10.735   6.153 -1.5023 -0.1761 -0.7672
  741MOL0     H    0   7.948  10.797   6.399 -1.2166 -0.9694  3.5791
  741MOL0     H    1   7.899  10.867   6.623 -1.5103  1.6041  2.1772
  741MOL0     H    2   7.746  10.875   6.529  1.3464 -0.2786 -1.4966
  741MOL0     H    3   7.759  10.787   6.819  0.8585 -1.4391 -1.1794
  741MOL0     H    4   7.738  10.959   6.768 -0.8597  0.4610 -0.3475
  741MOL0     H    5   7.559  10.726   6.696  0.2092 -0.8201  1.5684
  741MOL0     H    6   7.536  10.902   6.647 -3.8463  0.0595  2.0510
  741MOL0     H    7   7.499  10.747   6.898 -0.2038 -0.0054  0.7929
  741MOL0     H    8   7.547  10.911   6.927  0.3596  1.0887 -0.8968
  741MOL0     H    9   7.321  10.952   6.770 -2.7012 -0.5066 -0.7439
  741MOL0     H   10   7.301  10.909   6.932 -0.0460 -2.5028  0.5098
  741MOL0     H   11   7.279  10.724   6.695 -0.9248 -0.3640  1.3495
  741MOL0     H   12   7.312  10.655   6.861 -1.3661 -1.0954  1.2068
  741MOL0     H   13   7.052  10.809   6.776 -1.5198 -0.7994  2.2817
  741MOL0     H   14   7.075  10.745   6.929 -1.0393  1.0357 -0.8589
  741MOL0     H   15   6.948  10.585   6.838  0.1777  0.3224 -1.5995
  741MOL0     H   16   7.112  10.508   6.830  1.5333 -0.8482 -2.1033
  741MOL0     H   17   7.686  10.484   6.495  1.5038 -0.5137  0.4768
  741MOL0     H   18   7.736  10.382   6.273 -2.1889  1.0137 -0.8758
  741MOL0     H   19   7.728  10.684   5.720  1.1727 -0.0268 -0.9770
  741MOL0     H   20   7.751  10.578   5.508  2.1304  0.5491 -1.1692
  741MOL0     H   21   9.290   9.845   4.949 -3.2492  1.1236  2.3326
  741MOL0     H   22   9.436   9.919   5.141 -1.9210  0.3611  0.7580
  741MOL0     H   23   9.715   9.842   5.407 -1.4467 -0.9080  1.4482
  741MOL0     H   24   9.876   9.927   5.547  1.5459  2.6413  1.0358
  741MOL0     H   25   9.999  10.058   5.665 -3.9097 -0.1483 -2.6279
  741MOL0     H   26  10.002  10.167   5.811 -0.2455  0.8283 -1.5790
  741MOL0     H   27  10.085   9.945   5.863  0.1158 -0.2412 -0.8211
  741MOL0     H   28   9.937   9.868   5.829  2.7478 -2.2646  0.7594
  741MOL0     H   29   9.842  10.045   6.000  0.1737 -0.6166 -0.2020
  741MOL0     H   30  10.006  10.073   6.057 -1.5796  0.5054  2.3666
  741MOL0     H   31   9.939   9.907   6.203 -2.1184  2.2411 -0.0010
  741MOL0     H   32  10.001   9.801   6.071  1.9355  2.0366 -0.7218
  741MOL0     H   33   9.586   9.726   6.034  0.4630  2.4986 -3.6379
  741MOL0     H   34   9.572  10.154   5.760 -3.3106  1.2051 -2.0739
  741MOL0     H   35   9.403  10.056   5.603  0.0237 -1.2228 -0.5658
  742MOL0     O   36   6.616   2.999   4.386  0.2090  0.1431  0.7570
  742MOL0     C   37   6.665   3.034   4.285 -0.2209  0.3935  0.1883
  742MOL0     O   38   6.661   2.960   4.164  0.2453 -0.6650  0.0129
  742MOL0     C   39   6.599   2.840   4.148  0.2999 -0.5623  0.7541
  742MOL0     C   40   6.582   2.798   4.016 -0.1958  0.6384  0.4581
  742MOL0     C   41   6.508   2.675   3.999  0.3718  0.1027 -0.3307
  742MOL0     C   42   6.463   2.596   4.109 -0.1179  0.4571  0.6130
  742MOL0     O   43   6.392   2.480   4.087 -0.0540  0.1912 -1.0312
  742MOL0     C   44   6.466   2.372   4.036  1.2701  0.3391  0.4389
  742MOL0     C   45   6.397   2.326   3.910 -0.6549  0.3577  0.5391
  742MOL0     C   46   6.454   2.197   3.854 -0.2409 -0.3749  0.2267
  742MOL0     C   47   6.573   2.210   3.765  0.1765 -0.5109 -0.0404
  742MOL0     C   48   6.644   2.073   3.748  0.4283 -0.2833 -0.1519
  742MOL0     C   49   6.774   2.081   3.658  0.1433 -0.3225 -0.6604
  742MOL0     C   50   6.766   1.995   3.531  0.1699 -0.2872  0.8512
  742MOL0     C   51   6.646   2.036   3.455  0.2477 -0.2928  0.5498
  742MOL0     N   52   6.682   2.038   3.304  0.0465 -0.3300  0.6185
  742MOL0     C   53   6.768   2.129   3.248 -0.4795  0.4274  0.0398
  742MOL0     C   54   6.762   2.097   3.116  0.3451 -0.2977  0.2360
  742MOL0     C   55   6.860   2.149   3.013  0.1993  0.5895 -0.5049
  742MOL0     C   56   6.801   2.253   2.934  0.1459  0.7766  0.1535
  742MOL0     C   57   6.678   2.229   2.842  0.1549  1.0901 -0.0464
  742MOL0     C   58   6.711   2.174   2.707  0.2753  0.2621 -0.0113
  742MOL0     O   59   6.747   2.036   2.735 -0.4184  0.5019 -0.1897
  742MOL0     C   60   6.735   1.946   2.632  0.8475  0.7610 -0.4456
  742MOL0     C   61   6.744   1.971   2.496 -0.1142 -0.2031 -0.6781
  742MOL0     C   62   6.736   1.870   2.397 -0.8555 -0.1339  0.4832
  742MOL0     C   63   6.756   1.915   2.254  0.2015  0.3973 -0.0225
  742MOL0     C   64   6.723   1.739   2.431  1.7003 -0.1046  1.0307
  742MOL0     C   65   6.714   1.626   2.335 -0.4105 -1.6342  0.1867
  742MOL0     O   66   6.778   1.516   2.378 -0.1272 -0.7419  0.5205
  742MOL0     C   67   6.807   1.406   2.298 -0.3133 -0.8206  0.6797
  742MOL0     C   68   6.923   1.334   2.323 -0.1724  0.9398 -0.6189
  742MOL0     C   69   6.956   1.210   2.260  0.3437  0.8597  0.2334
  742MOL0     C   70   6.861   1.159   2.168 -0.2443 -0.4856 -1.0725
  742MOL0     O   71   6.870   1.039   2.101 -0.2781  0.5519  0.1915
  742MOL0     C   72   6.987   0.955   2.100 -0.1850 -0.1414 -0.7373
  742MOL0     C   73   6.957   0.846   1.995  0.1108 -0.2372 -0.0176
  742MOL0     C   74   7.077   0.750   1.968  0.1090  0.1198  0.6870
  742MOL0     C   75   7.036   0.645   1.850 -0.3968  0.2593  0.7899
  742MOL0     C   76   7.150   0.550   1.799 -0.5846  0.2744  0.9992
  742MOL0     C   77   7.121   0.508   1.656 -0.3664  0.1735  0.7165
  742MOL0     C   78   7.211   0.387   1.616  0.4084  0.9461 -0.3441
  742MOL0     C   79   7.360   0.418   1.618 -0.8404 -0.4701 -1.2039
  742MOL0    Cl   80   7.403   0.571   1.506  0.3658  0.2788  0.2011
  742MOL0     C   81   6.748   1.230   2.142  0.1118 -0.0026 -0.6259
  742MOL0     C   82   6.714   1.347   2.197  0.5257  0.4292 -0.1137
  742MOL0     O   83   6.649   1.646   2.235 -0.3345  0.7429 -0.2463
  742MOL0     C   84   6.721   1.710   2.566 -0.2875  0.2193 -0.5077
  742MOL0     C   85   6.727   1.809   2.667  0.5036  0.0150  1.0002
  742MOL0     N   86   6.670   1.990   3.091  0.2270 -1.1503 -0.2352
  742MOL0     N   87   6.632   1.952   3.209 -0.6634  0.3313  0.1092
  742MOL0     C   88   6.495   2.643   4.233  0.8554 -0.4686  0.6218
  742MOL0     C   89   6.564   2.763   4.253 -0.3516  0.7131  0.7407
  742MOL0     C   90   6.719   3.170   4.272  0.3620  0.5560 -0.1281
  742MOL0     C   91   6.749   3.238   4.392  0.4091 -0.2907  0.7762
  742MOL0     C   92   6.816   3.366   4.389  0.6486 -0.0750  0.4053
  742MOL0     C   93   6.846   3.422   4.270  1.0929  0.6127 -0.4358
  742MOL0     O   94   6.925   3.529   4.234 -0.1424 -0.4833 -0.1203
  742MOL0     C   95   7.003   3.596   4.340  0.0751 -0.1588  0.1139
  742MOL0     C   96   7.082   3.696   4.252 -0.6925  0.3917  0.0478
  742MOL0     C   97   7.204   3.625   4.189  0.0418  0.3840  0.2340
  742MOL0     C   98   7.178   3.599   4.044  0.5110  0.5710  0.6216
  742MOL0     C   99   7.273   3.519   3.961  0.4254 -0.3703 -0.1490
  742MOL0     C  100   7.369   3.467   3.906  0.1177  0.2683 -0.6504
  742MOL0     C  101   6.806   3.367   4.149  0.4698 -0.1093 -0.4163
  742MOL0     C  102   6.741   3.244   4.152 -0.8746  0.1945 -0.1327
  742MOL0     H  103   6.610   2.855   3.928 -2.5797 -0.7467 -1.3145
  742MOL0     H  104   6.474   2.646   3.900 -0.4192  1.2513 -0.4057
  742MOL0     H  105   6.573   2.394   4.026  1.6149  0.5002  3.5516
  742MOL0     H  106   6.449   2.286   4.101 -2.6035  0.6294  0.0155
  742MOL0     H  107   6.291   2.307   3.930 -1.7704  1.3006 -3.5702
  742MOL0     H  108   6.407   2.410   3.841  2.7499  2.4891  3.2743
  742MOL0     H  109   6.461   2.118   3.929 -2.1170  0.0162  0.8883
  742MOL0     H  110   6.376   2.157   3.788 -0.6589 -0.7126  0.9184
  742MOL0     H  111   6.543   2.245   3.666  2.2582 -1.5613 -1.1100
  742MOL0     H  112   6.634   2.287   3.815 -2.3274  1.4304  0.2461
  742MOL0     H  113   6.679   2.047   3.849  0.7018  1.7567  0.3332
  742MOL0     H  114   6.575   1.994   3.719 -0.3401  0.9020 -1.6781
  742MOL0     H  115   6.782   2.182   3.618  0.6908 -0.9917 -2.3548
  742MOL0     H  116   6.858   2.053   3.723  1.4357 -0.5827 -2.3657
  742MOL0     H  117   6.856   2.020   3.476 -0.5763  2.1301  0.6186
  742MOL0     H  118   6.780   1.890   3.559  1.2544 -0.9004 -1.7520
  742MOL0     H  119   6.626   2.143   3.463 -0.1806 -0.4622  1.8818
  742MOL0     H  120   6.557   1.974   3.469  0.6856 -1.4216 -1.2214
  742MOL0     H  121   6.827   2.204   3.300 -0.6147 -0.2386  1.1860
  742MOL0     H  122   6.949   2.189   3.064  1.1968 -2.0216 -0.0185
  742MOL0     H  123   6.897   2.066   2.952 -0.3719 -1.5565  1.9000
  742MOL0     H  124   6.881   2.289   2.868 -0.6213  1.1190 -0.6046
  742MOL0     H  125   6.777   2.329   3.009  2.9564  0.7205  1.2467
  742MOL0     H  126   6.634   2.327   2.822 -1.2979  0.4782 -0.0018
  742MOL0     H  127   6.601   2.169   2.892 -0.4745  1.1746 -0.8918
  742MOL0     H  128   6.790   2.233   2.660  0.7016  0.2062  0.6285
  742MOL0     H  129   6.620   2.173   2.646 -1.2910 -1.5681  2.1704
  742MOL0     H  130   6.741   2.076   2.467 -3.3040 -0.4897 -1.6748
  742MOL0     H  131   6.845   1.874   2.206 -0.3428  0.9662 -1.5849
  742MOL0     H  132   6.664   1.911   2.196  0.9830  0.1277 -1.2855
  742MOL0     H  133   6.768   2.024   2.250  2.2781  0.1711 -2.3025
  742MOL0     H  134   6.987   1.380   2.398 -1.5915  1.8660  0.0700
  742MOL0     H  135   7.047   1.172   2.307  0.1022  2.7457  2.4132
  742MOL0     H  136   7.075   1.014   2.070  1.0563 -0.5071  1.8975
  742MOL0     H  137   7.006   0.911   2.198 -0.1218  2.4517  0.5056
  742MOL0     H  138   6.873   0.785   2.030  1.0416 -1.2290  0.5701
  742MOL0     H  139   6.944   0.898   1.900  2.1051  0.8785  0.2508
  742MOL0     H  140   7.104   0.693   2.057  1.1277 -1.3981 -0.5523
  742MOL0     H  141   7.165   0.794   1.920 -0.8476  0.3247 -0.9583
  742MOL0     H  142   6.959   0.578   1.892 -1.2007  1.2045  0.8518
  742MOL0     H  143   6.988   0.692   1.764 -0.6887 -2.5392 -0.7021
  742MOL0     H  144   7.160   0.463   1.865 -0.2931  0.4375  1.1731
  742MOL0     H  145   7.247   0.600   1.793 -2.0637  4.0879  4.0541
  742MOL0     H  146   7.021   0.465   1.652  0.7718 -2.7493  1.4079
  742MOL0     H  147   7.134   0.597   1.593  1.3386  1.3186  2.5475
  742MOL0     H  148   7.178   0.359   1.516  2.2123  1.0605 -1.0080
  742MOL0     H  149   7.182   0.298   1.673  0.3520  1.0415 -0.2215
  742MOL0     H  150   7.405   0.330   1.571  3.3943  1.8808 -2.0763
  742MOL0     H  151   7.391   0.430   1.722 -1.7188 -1.8093 -0.7531
  742MOL0     H  152   6.681   1.201   2.063 -2.6366  0.3537  1.4197
  742MOL0     H  153   6.627   1.401   2.162 -1.2666 -0.4648  2.5975
  742MOL0     H  154   6.718   1.606   2.598 -1.5210 -0.0787 -1.5188
  742MOL0     H  155   6.723   1.773   2.769  0.5687 -0.9055  0.6898
  742MOL0     H  156   6.459   2.588   4.319 -0.8445 -1.9338 -0.9545
  742MOL0     H  157   6.603   2.782   4.352  0.5632 -0.9978  0.7419
  742MOL0     H  158   6.741   3.179   4.483  2.7805 -0.6525  0.8197
  742MOL0     H  159   6.858   3.402   4.482 -0.5105  1.0249  0.5264
  742MOL0     H  160   6.928   3.646   4.402 -0.1533  0.4285 -0.6285
  742MOL0     H  161   7.070   3.536   4.403  0.5859 -0.1553 -0.4142
  742MOL0     H  162   7.117   3.785   4.305 -1.1436  1.5640 -1.5482
  742MOL0     H  163   7.012   3.733   4.177 -1.5257 -0.1825  0.5182
  742MOL0     H  164   7.211   3.530   4.243 -1.0220 -0.2553 -0.7260
  742MOL0     H  165   7.297   3.683   4.193  0.7563 -0.6905 -0.2034
  742MOL0     H  166   7.160   3.695   3.995 -1.0840  0.2824  0.5874
  742MOL0     H  167   7.086   3.540   4.031  2.0964 -2.2451  1.4025
  742MOL0     H  168   7.452   3.406   3.875  0.7606 -0.3005  1.9127
  742MOL0     H  169   6.826   3.424   4.059 -2.0129  0.4065 -0.7120
  742MOL0     H  170   6.720   3.182   4.065 -2.2552  0.0528  0.2728
  743MOL0     O  171  10.936   9.794   7.810  0.5893 -0.3818  0.4137
  743MOL0     C  172  10.931   9.869   7.710  0.1291  0.1450 -0.4414
  743MOL0     O  173  11.015   9.972   7.682 -0.8584  0.0074 -0.5291
  743MOL0     C  174  11.109  10.005   7.771 -0.3274 -0.8584 -1.4982
  743MOL0     C  175  11.250   9.987   7.760  0.3872 -0.6451  0.0963
  743MOL0     C  176  11.332  10.023   7.860  0.1074 -0.0404  0.4517
  743MOL0     C  177  11.295  10.090   7.979  0.2220 -0.7636  0.6682
  743MOL0     O  178  11.394  10.131   8.056 -0.7509 -0.1348 -0.3904
  743MOL0     C  179  11.381  10.178   8.194  0.5521  0.2230  0.5284
  743MOL0     C  180  11.281  10.107   8.300 -0.6361  0.3487 -0.5443
  743MOL0     C  181  11.298   9.957   8.305  0.3347 -0.0704 -0.5634
  743MOL0     C  182  11.436   9.911   8.297 -0.0880 -0.2665 -0.5562
  743MOL0     C  183  11.462   9.766   8.333  0.6307  0.6571  0.3515
  743MOL0     C  184  11.604   9.717   8.297  0.1974  0.0492  0.0303
  743MOL0     C  185  11.716   9.788   8.365  0.4960 -0.4315 -0.0348
  743MOL0     C  186  11.844   9.718   8.358 -0.4244  0.1019 -0.4284
  743MOL0     N  187  11.857   9.600   8.452  0.5578 -0.7683  0.6421
  743MOL0     C  188  11.857   9.612   8.591  1.0259 -0.3496 -0.0258
  743MOL0     C  189  11.842   9.482   8.632 -0.3943  0.0122 -1.0343
  743MOL0     C  190  11.823   9.442   8.775  0.0897 -0.6635  0.2788
  743MOL0     C  191  11.927   9.491   8.867  0.7363  0.3058 -0.2506
  743MOL0     C  192  11.858   9.466   9.009 -0.3510 -0.5325  0.8535
  743MOL0     C  193  11.935   9.508   9.133 -0.0715  0.0264 -0.0978
  743MOL0     O  194  12.066   9.447   9.132 -0.0304 -0.1038  0.0255
  743MOL0     C  195  12.100   9.356   9.232 -0.7831  0.6012 -0.8030
  743MOL0     C  196  12.200   9.252   9.201 -0.5343  0.2742 -1.1916
  743MOL0     C  197  12.239   9.142   9.278  1.0166  0.5008  0.5768
  743MOL0     C  198  12.368   9.066   9.238  0.0544  0.4322  0.8857
  743MOL0     C  199  12.178   9.135   9.403 -0.5190  0.5191 -0.9579
  743MOL0     C  200  12.204   9.023   9.496  0.0614 -0.2474 -0.9971
  743MOL0     O  201  12.126   9.027   9.622 -0.4399  0.4831  0.4271
  743MOL0     C  202  12.144   8.915   9.701 -0.4615  0.1529 -0.1119
  743MOL0     C  203  12.057   8.802   9.693  0.5505 -0.0222  0.7314
  743MOL0     C  204  12.076   8.694   9.778 -0.2181 -0.5784  1.2910
  743MOL0     C  205  12.187   8.685   9.861 -1.2303  0.7379  1.0192
  743MOL0     O  206  12.185   8.569   9.935  0.8888  0.3515  0.6159
  743MOL0     C  207  12.253   8.570  10.062  0.0299  0.0170  0.1441
  743MOL0     C  208  12.202   8.460  10.150  0.0371 -0.2959 -1.1694
  743MOL0     C  209  12.194   8.326  10.069 -0.4878 -0.2599 -0.9010
  743MOL0     C  210  12.185   8.197  10.159  0.0761 -0.3712  0.4483
  743MOL0     C  211  12.211   8.070  10.066  0.1035 -0.0493  0.5607
  743MOL0     C  212  12.235   7.957  10.149 -0.0240 -0.0565 -0.3896
  743MOL0     C  213  12.119   7.932  10.257 -0.0841 -0.1584 -0.0476
  743MOL0     C  214  12.148   7.793  10.321 -0.3979  0.0941 -0.6856
  743MOL0    Cl  215  12.068   7.770  10.479 -0.2125  0.0873  0.2724
  743MOL0     C  216  12.272   8.794   9.872  0.0356  0.1830 -0.2051
  743MOL0     C  217  12.253   8.906   9.791 -0.0719  0.6077  0.6814
  743MOL0     O  218  12.281   8.932   9.469  0.4021  0.7778  0.7151
  743MOL0     C  219  12.085   9.239   9.448  0.4652  0.2013  0.6220
  743MOL0     C  220  12.050   9.346   9.364  0.4655  0.5657  0.6330
  743MOL0     N  221  11.848   9.401   8.521 -0.3920 -0.1289  0.2517
  743MOL0     N  222  11.882   9.472   8.416  0.6531  0.2903 -0.1081
  743MOL0     C  223  11.158  10.128   7.982 -0.6536  1.0800  1.1483
  743MOL0     C  224  11.067  10.078   7.890 -0.3609  0.4751  0.1342
  743MOL0     C  225  10.815   9.854   7.616  0.6080  1.2966 -0.3760
  743MOL0     C  226  10.706   9.770   7.642  0.0688 -0.1024  0.2241
  743MOL0     C  227  10.586   9.766   7.563 -0.7271 -0.7970  0.3380
  743MOL0     C  228  10.591   9.836   7.442  0.0043  0.1353  0.6603
  743MOL0     O  229  10.501   9.833   7.339  0.3472  0.9103 -0.0572
  743MOL0     C  230  10.381   9.763   7.356  0.5507 -0.1133 -0.6995
  743MOL0     C  231  10.246   9.843   7.328 -0.5013  0.6188  0.2505
  743MOL0     C  232  10.208   9.852   7.173  0.9191 -0.0513 -0.3154
  743MOL0     C  233  10.101   9.959   7.154 -0.5437  0.7377 -0.8765
  743MOL0     C  234  10.085  10.002   7.017 -0.0616  0.2616 -0.1541
  743MOL0     C  235  10.051  10.033   6.907 -0.9028 -0.2483 -0.5299
  743MOL0     C  236  10.701   9.916   7.419  0.3872  0.0219 -0.0029
  743MOL0     C  237  10.808   9.929   7.505  0.3135 -0.7068  0.7376
  743MOL0     H  238  11.293   9.925   7.681  0.9499  0.1569 -0.2368
  743MOL0     H  239  11.438   9.997   7.857 -0.1744 -1.2021 -0.2043
  743MOL0     H  240  11.480  10.168   8.239 -0.0828  0.4513  2.0667
  743MOL0     H  241  11.353  10.283   8.190  1.9675  0.5984  0.1989
  743MOL0     H  242  11.289  10.157   8.397  0.5284 -0.1587 -0.3656
  743MOL0     H  243  11.177  10.137   8.281 -1.5464 -1.5839  1.0111
  743MOL0     H  244  11.256   9.915   8.397 -0.3974  0.8712 -0.4541
  743MOL0     H  245  11.250   9.913   8.217  1.4649 -1.1273 -0.6802
  743MOL0     H  246  11.466   9.925   8.192  0.3840  1.8945 -0.1834
  743MOL0     H  247  11.505   9.970   8.359 -0.1688  1.1421 -1.7272
  743MOL0     H  248  11.449   9.744   8.439  1.9531  0.9067  0.5836
  743MOL0     H  249  11.400   9.693   8.279  1.9901 -0.2776 -0.0142
  743MOL0     H  250  11.611   9.608   8.302  0.4800 -0.1140 -2.3835
  743MOL0     H  251  11.628   9.717   8.190  2.7998 -1.5315  0.5396
  743MOL0     H  252  11.715   9.881   8.307  3.4091  0.2655  0.9071
  743MOL0     H  253  11.684   9.806   8.468 -3.7779 -0.8229 -1.0642
  743MOL0     H  254  11.924   9.793   8.355 -0.3622  0.0306 -2.4392
  743MOL0     H  255  11.858   9.673   8.259  1.3051  0.0211 -0.1892
  743MOL0     H  256  11.861   9.703   8.650  0.8743 -1.5187  1.8408
  743MOL0     H  257  11.732   9.497   8.802 -1.3097 -1.2356 -2.8736
  743MOL0     H  258  11.814   9.334   8.765 -2.4295 -0.3520 -1.7419
  743MOL0     H  259  11.953   9.597   8.855  0.0909  0.7052  1.5618
  743MOL0     H  260  12.014   9.425   8.862  0.9501  0.4839  0.9113
  743MOL0     H  261  11.851   9.357   9.013  1.8293 -0.8325 -1.3483
  743MOL0     H  262  11.760   9.514   9.011  0.7379  1.8857  0.6159
  743MOL0     H  263  11.870   9.478   9.216 -0.0556 -0.2467 -0.1821
  743MOL0     H  264  11.935   9.617   9.143 -0.0013 -0.1369  2.2012
  743MOL0     H  265  12.240   9.269   9.102  2.4680  2.1388  0.1999
  743MOL0     H  266  12.352   8.967   9.196  3.0494 -1.9700  4.7194
  743MOL0     H  267  12.417   9.130   9.164  0.2925 -0.7919 -0.0313
  743MOL0     H  268  12.431   9.056   9.327 -1.3942  0.7315  1.9874
  743MOL0     H  269  11.982   8.795   9.615  2.4878  0.1664 -1.2455
  743MOL0     H  270  12.001   8.616   9.767 -2.6620  1.4761  2.4611
  743MOL0     H  271  12.359   8.550  10.043 -0.2346 -1.8025  0.4615
  743MOL0     H  272  12.238   8.668  10.108 -2.4553 -0.3348  0.1926
  743MOL0     H  273  12.267   8.446  10.237  0.5659  0.9745 -1.3343
  743MOL0     H  274  12.102   8.483  10.189  1.2482 -1.0401  2.7870
  743MOL0     H  275  12.285   8.314  10.009  0.1195 -0.3399  0.0171
  743MOL0     H  276  12.107   8.328  10.003 -0.8511 -0.3329 -0.4277
  743MOL0     H  277  12.257   8.195  10.241 -0.4087 -0.6059  0.8772
  743MOL0     H  278  12.089   8.199  10.212  0.0220  0.6364  0.3318
  743MOL0     H  279  12.297   8.092  10.003  1.3227 -1.2473  1.7491
  743MOL0     H  280  12.118   8.054  10.011 -2.1245  2.4100  3.2473
  743MOL0     H  281  12.249   7.871  10.084 -2.7955 -0.3830 -0.6414
  743MOL0     H  282  12.336   7.959  10.193  0.5969  0.6224 -1.7936
  743MOL0     H  283  12.021   7.931  10.208 -0.5705  1.9500  0.7921
  743MOL0     H  284  12.111   7.997  10.344 -1.7553 -3.0742  2.1850
  743MOL0     H  285  12.257   7.778  10.320 -0.6121 -1.6850 -0.0329
  743MOL0     H  286  12.120   7.709  10.257 -0.9696  0.1820 -0.5497
  743MOL0     H  287  12.351   8.797   9.947  1.8523 -1.9263 -1.9201
  743MOL0     H  288  12.317   8.994   9.793  1.3099 -0.3782  1.6072
  743MOL0     H  289  12.040   9.240   9.546 -1.7734 -0.0426 -0.3407
  743MOL0     H  290  11.964   9.396   9.406 -0.2747 -1.0684  1.1287
  743MOL0     H  291  11.115  10.196   8.055  2.4734  2.1991  2.1128
  743MOL0     H  292  10.961  10.099   7.895 -0.8626 -1.1229 -2.1129
  743MOL0     H  293  10.713   9.695   7.720  0.0835 -2.6543 -2.0966
  743MOL0     H  294  10.509   9.696   7.593 -1.7119 -0.9823 -2.3659
  743MOL0     H  295  10.378   9.681   7.283  0.9825  0.7290 -1.6924
  743MOL0     H  296  10.372   9.718   7.456 -0.1083 -3.8070 -2.2319
  743MOL0     H  297  10.261   9.947   7.360 -0.5707  1.0685 -1.1116
  743MOL0     H  298  10.166   9.782   7.370 -0.5737 -0.9171 -1.9300
  743MOL0     H  299  10.169   9.755   7.140  1.7532 -1.4531  2.5680
  743MOL0     H  300  10.291   9.880   7.107  1.5810 -1.0091  0.1086
  743MOL0     H  301  10.134  10.045   7.212 -2.5339  0.3898  0.8764
  743MOL0     H  302  10.005   9.921   7.190 -1.6293  4.0175  0.0255
  743MOL0     H  303  10.016  10.070   6.812  0.5062  1.0899 -0.5711
  743MOL0     H  304  10.693   9.973   7.327  0.9852  1.3389  0.7309
  743MOL0     H  305  10.878  10.004   7.471 -0.5635  0.5939  1.7182
  744MOL0     O  306   4.801  10.826   1.801  0.8273  0.1461  0.6911
  744MOL0     C  307   4.767  10.941   1.851 -0.2980  0.2967 -0.5722
  744MOL0     O  308   4.669  11.022   1.808  0.1714  0.8320 -0.3479
  744MOL0     C  309   4.590  10.989   1.696  0.1718 -0.2612  0.2795
  744MOL0     C  310   4.546  11.103   1.616 -0.7139  0.2858  1.0658
  744MOL0     C  311   4.461  11.084   1.504 -0.1305  0.5793 -0.4422
  744MOL0     C  312   4.438  10.962   1.452  1.1217  0.6094 -0.7691
  744MOL0     O  313   4.349  10.959   1.338  0.4274  0.1286 -0.5815
  744MOL0     C  314   4.361  10.834   1.268 -1.0393  0.3765  0.5673
  744MOL0     C  315   4.313  10.845   1.130 -0.0143 -0.5403  0.3203
  744MOL0     C  316   4.324  10.702   1.058  0.2527 -0.1542 -0.0809
  744MOL0     C  317   4.464  10.648   1.032  1.1051 -0.3142  0.3872
  744MOL0     C  318   4.466  10.497   1.009 -0.4848 -0.1748  0.4453
  744MOL0     C  319   4.361  10.445   0.907  0.5152 -0.7233  0.7482
  744MOL0     C  320   4.375  10.490   0.764  0.0431 -0.3851  0.3428
  744MOL0     C  321   4.478  10.403   0.707  0.5616  1.0431  0.2669
  744MOL0     N  322   4.484  10.440   0.566  0.6382  0.1221  0.8442
  744MOL0     C  323   4.441  10.352   0.463 -0.2058 -0.0113  0.3447
  744MOL0     C  324   4.450  10.434   0.355  0.4255 -0.3921  0.0021
  744MOL0     C  325   4.404  10.391   0.222 -0.3093 -0.0515  0.8680
  744MOL0     C  326   4.263  10.324   0.235 -0.2828 -0.4495 -0.4172
  744MOL0     C  327   4.188  10.345   0.112 -1.1729  0.3445  0.1343
  744MOL0     C  328   4.056  10.293   0.130  0.7054  0.0654 -0.0041
  744MOL0     O  329   3.973  10.325   0.021 -0.3721  0.2242 -0.3218
  744MOL0     C  330   3.916  10.449   0.020  0.5698  0.1920  0.7761
  744MOL0     C  331   3.869  10.490  -0.106  1.0976  0.1285  0.2853
  744MOL0     C  332   3.818  10.616  -0.128 -0.4099  0.0432  0.5505
  744MOL0     C  333   3.785  10.658  -0.265  0.1180  0.2918  0.2284
  744MOL0     C  334   3.806  10.706  -0.025 -1.2256 -0.0102  0.7515
  744MOL0     C  335   3.739  10.833  -0.037 -0.3128 -0.1201  0.4215
  744MOL0     O  336   3.824  10.942  -0.020  0.8639  0.3251 -0.2194
  744MOL0     C  337   3.764  11.061  -0.037  0.9039 -0.6417  0.1131
  744MOL0     C  338   3.736  11.124  -0.161 -0.3752 -0.1373  0.8085
  744MOL0     C  339   3.657  11.243  -0.165  0.8652 -0.1555  0.1536
  744MOL0     C  340   3.617  11.308  -0.049  0.7525  0.8497 -0.1867
  744MOL0     O  341   3.542  11.418  -0.060 -0.0701 -0.7208  0.4381
  744MOL0     C  342   3.421  11.438   0.019  0.7300  0.2721  0.1067
  744MOL0     C  343   3.335  11.540  -0.067  0.0460 -0.4920  1.0051
  744MOL0     C  344   3.210  11.556   0.021 -0.0231  0.1784  0.1822
  744MOL0     C  345   3.110  11.658  -0.019 -0.4131 -0.5500 -0.0707
  744MOL0     C  346   2.983  11.670   0.062 -0.4543 -0.6204  0.2906
  744MOL0     C  347   3.007  11.682   0.212 -0.6457 -0.6578 -0.6516
  744MOL0     C  348   2.891  11.741   0.284 -0.0650  0.3017 -0.3569
  744MOL0     C  349   2.882  11.691   0.436  0.7876 -0.7568 -0.1609
  744MOL0    Cl  350   2.723  11.738   0.511 -0.0382 -0.2574 -0.0470
  744MOL0     C  351   3.647  11.245   0.068 -0.4182  0.1473 -0.1442
  744MOL0     C  352   3.714  11.128   0.080  0.6567  0.7694  0.1215
  744MOL0     O  353   3.616  10.838  -0.069 -0.0213 -0.3196 -0.7839
  744MOL0     C  354   3.865  10.674   0.099  0.4173 -0.8331 -0.1883
  744MOL0     C  355   3.917  10.547   0.121 -0.5951 -0.0661 -0.3877
  744MOL0     N  356   4.477  10.562   0.392  0.1116  0.2939  0.0327
  744MOL0     N  357   4.507  10.561   0.512 -0.5525 -0.2549 -0.2611
  744MOL0     C  358   4.470  10.856   1.536  0.1740 -0.3390  0.3245
  744MOL0     C  359   4.542  10.866   1.651  0.3897 -0.1886 -0.2412
  744MOL0     C  360   4.833  10.993   1.971 -0.5624 -0.0794 -0.2072
  744MOL0     C  361   4.914  10.911   2.051  0.1995 -0.9757  0.0580
  744MOL0     C  362   4.980  10.965   2.167 -0.2751 -0.8538  0.4959
  744MOL0     C  363   4.978  11.110   2.194 -0.4599  0.2806 -0.5116
  744MOL0     O  364   5.055  11.155   2.290 -0.0606  0.2664 -0.4478
  744MOL0     C  365   5.001  11.160   2.420 -0.5934 -0.2486  0.2504
  744MOL0     C  366   5.130  11.179   2.516 -0.3410  1.2545  0.5530
  744MOL0     C  367   5.213  11.302   2.494  0.2322 -0.0874 -0.8732
  744MOL0     C  368   5.147  11.435   2.552  0.3484 -0.7711 -0.5176
  744MOL0     C  369   5.179  11.432   2.698 -0.3929  1.0675 -0.3619
  744MOL0     C  370   5.215  11.390   2.809 -0.3461  0.4705  0.6142
  744MOL0     C  371   4.902  11.190   2.120  0.4136  0.4284  0.2510
  744MOL0     C  372   4.828  11.131   2.009 -0.0756 -0.0387  0.1246
  744MOL0     H  373   4.597  11.193   1.647 -1.3764  0.3573  1.9877
  744MOL0     H  374   4.425  11.167   1.444 -0.4071  0.7857  0.0039
  744MOL0     H  375   4.466  10.808   1.249 -2.3676 -3.4537 -3.1882
  744MOL0     H  376   4.324  10.744   1.318  1.5951 -2.8381 -2.7295
  744MOL0     H  377   4.210  10.880   1.115  0.5732  1.1827  0.0996
  744MOL0     H  378   4.378  10.910   1.071 -0.0439 -0.7602  0.0420
  744MOL0     H  379   4.277  10.640   1.135  0.4453  1.5473  1.4533
  744MOL0     H  380   4.274  10.707   0.961 -1.1985  0.3988  0.6593
  744MOL0     H  381   4.506  10.705   0.948  1.8103 -1.2459  0.0860
  744MOL0     H  382   4.530  10.653   1.118  0.6352 -2.0791  0.8974
  744MOL0     H  383   4.567  10.463   0.986 -0.6117 -1.4555  1.6467
  744MOL0     H  384   4.445  10.446   1.104  0.7739 -1.1303  0.2336
  744MOL0     H  385   4.352  10.336   0.913  0.3683 -1.0223 -2.6543
  744MOL0     H  386   4.263  10.483   0.938  1.1634  1.0161  0.7837
  744MOL0     H  387   4.282  10.484   0.707  0.4208  0.6113 -0.4079
  744MOL0     H  388   4.398  10.597   0.768  0.7616 -0.3059 -2.9744
  744MOL0     H  389   4.462  10.298   0.734 -0.6696  1.3546  0.8140
  744MOL0     H  390   4.572  10.434   0.753  1.2750  1.6223 -1.5080
  744MOL0     H  391   4.407  10.249   0.472  0.1244 -0.0109  1.9782
  744MOL0     H  392   4.408  10.478   0.157 -0.3543  0.6184  1.7501
  744MOL0     H  393   4.460  10.312   0.169  0.3954  0.1188  1.3484
  744MOL0     H  394   4.208  10.372   0.317 -0.5055 -0.2514 -0.6849
  744MOL0     H  395   4.293  10.222   0.262  3.1425  0.7817  0.9645
  744MOL0     H  396   4.243  10.304   0.026  1.6590  0.4690  1.7443
  744MOL0     H  397   4.176  10.451   0.088 -2.8256 -0.4503 -3.1832
  744MOL0     H  398   4.013  10.312   0.229  2.3019 -1.3458  1.0193
  744MOL0     H  399   4.058  10.184   0.130  3.0020 -0.0283  2.9461
  744MOL0     H  400   3.874  10.409  -0.177 -1.7099 -1.6994  1.9416
  744MOL0     H  401   3.677  10.655  -0.284  0.3844 -3.8497 -1.7975
  744MOL0     H  402   3.829  10.754  -0.291 -0.7371  1.0808  1.5654
  744MOL0     H  403   3.830  10.590  -0.338 -1.7737  1.9627 -2.6989
  744MOL0     H  404   3.776  11.096  -0.258  0.6820  0.4249  1.0649
  744MOL0     H  405   3.623  11.281  -0.261 -2.2454 -0.5797  0.9779
  744MOL0     H  406   3.372  11.345   0.051  0.9316  0.7800  2.0495
  744MOL0     H  407   3.452  11.476   0.118  2.2615 -1.7965  0.5042
  744MOL0     H  408   3.385  11.637  -0.068 -0.7401 -0.0035 -2.1887
  744MOL0     H  409   3.304  11.509  -0.167  0.7071  2.4900 -0.2491
  744MOL0     H  410   3.212  11.579   0.128 -1.8926 -1.0084  0.5201
  744MOL0     H  411   3.152  11.463   0.019  0.8571 -0.3904  0.3416
  744MOL0     H  412   3.148  11.760  -0.028 -2.0745 -0.0359 -1.9487
  744MOL0     H  413   3.089  11.637  -0.124 -0.7754  0.0112 -0.1133
  744MOL0     H  414   2.929  11.577   0.043  0.0986 -0.2628 -3.9818
  744MOL0     H  415   2.920  11.758   0.043 -0.6980  0.0702  3.6906
  744MOL0     H  416   3.026  11.585   0.259 -5.9478 -1.6395  0.1014
  744MOL0     H  417   3.096  11.741   0.235 -0.6229 -0.7856 -0.4024
  744MOL0     H  418   2.802  11.700   0.235  1.4603 -1.8451 -1.5261
  744MOL0     H  419   2.895  11.850   0.288 -1.2000  0.3576 -0.4483
  744MOL0     H  420   2.966  11.731   0.493 -2.2024  2.9776  2.1619
  744MOL0     H  421   2.882  11.582   0.435  0.7045 -0.9007  3.5782
  744MOL0     H  422   3.633  11.300   0.160  2.9894  2.0794 -0.6060
  744MOL0     H  423   3.725  11.085   0.179 -3.0727  0.5984  0.5959
  744MOL0     H  424   3.861  10.750   0.177  0.8516  0.3407 -1.2672
  744MOL0     H  425   3.958  10.524   0.219 -3.2268 -0.1341  0.7967
  744MOL0     H  426   4.421  10.763   1.510  0.7810  0.2631 -3.6207
  744MOL0     H  427   4.554  10.780   1.716 -1.9831 -0.6712 -0.3619
  744MOL0     H  428   4.932  10.806   2.030  3.1184 -0.9339  1.8253
  744MOL0     H  429   5.034  10.915   2.247  2.7813  0.2867 -0.7346
  744MOL0     H  430   4.924  11.235   2.437  0.1503  0.1682  2.0684
  744MOL0     H  431   4.947  11.071   2.451 -1.4877  0.1373 -0.1837
  744MOL0     H  432   5.189  11.089   2.495 -4.3594 -1.5812  0.1330
  744MOL0     H  433   5.103  11.176   2.622  1.2123  2.5864  1.0220
  744MOL0     H  434   5.221  11.306   2.385 -1.7949  0.0402 -1.0514
  744MOL0     H  435   5.313  11.295   2.538  0.8968 -1.7343 -2.4809
  744MOL0     H  436   5.042  11.456   2.532  0.2192  1.6309  2.0280
  744MOL0     H  437   5.192  11.521   2.502 -2.1000  1.1365  0.3216
  744MOL0     H  438   5.223  11.334   2.900  0.2193  0.0950  0.3424
  744MOL0     H  439   4.894  11.296   2.139 -0.5631 -0.2526  4.6598
  744MOL0     H  440   4.787  11.202   1.938  1.4288  1.3499  0.5651
  745MOL0     O  441   2.329  11.208   0.537  0.6995  0.4340 -0.9808
  745MOL0     C  442   2.212  11.173   0.531  0.1390  0.2239  0.6081
  745MOL0     O  443   2.112  11.197   0.625  0.1663 -0.4855  0.4816
  745MOL0     C  444   2.148  11.259   0.739 -0.0868 -0.4326 -0.4741
  745MOL0     C  445   2.074  11.225   0.861 -0.4438  1.5075 -0.3673
  745MOL0     C  446   2.072  11.308   0.964 -0.7217  0.4281 -0.4761
  745MOL0     C  447   2.155  11.419   0.961 -0.2620 -0.1705 -0.6691
  745MOL0     O  448   2.160  11.498   1.076 -0.1010 -0.3204  0.4364
  745MOL0     C  449   2.261  11.433   1.162  0.5537 -0.0833 -0.8736
  745MOL0     C  450   2.227  11.472   1.299 -0.0858 -0.5605  0.7092
  745MOL0     C  451   2.101  11.421   1.342  1.2132  0.3243  0.4006
  745MOL0     C  452   2.063  11.437   1.479 -0.6105 -0.6863 -0.3287
  745MOL0     C  453   2.113  11.330   1.578 -0.2720  0.6488 -0.4462
  745MOL0     C  454   2.044  11.344   1.713  0.2140  0.1713 -0.9936
  745MOL0     C  455   2.142  11.437   1.798 -0.3474  0.3666  0.4989
  745MOL0     C  456   2.103  11.472   1.932 -0.1323  0.6435 -0.1440
  745MOL0     N  457   2.204  11.520   2.031  0.4538 -0.6030  0.1597
  745MOL0     C  458   2.294  11.624   2.016 -0.4706  0.5283  0.1728
  745MOL0     C  459   2.367  11.629   2.127 -0.1617  0.1905  0.2488
  745MOL0     C  460   2.494  11.707   2.155 -0.0141 -0.6047  0.1029
  745MOL0     C  461   2.574  11.720   2.027  0.4471 -0.0307 -0.0563
  745MOL0     C  462   2.700  11.796   2.065  0.8067  0.2002  0.2250
  745MOL0     C  463   2.778  11.877   1.958  0.2194  0.9396  0.2347
  745MOL0     O  464   2.773  11.800   1.838 -0.2508  0.4272 -0.3995
  745MOL0     C  465   2.801  11.858   1.716 -0.3733 -0.2895 -0.3422
  745MOL0     C  466   2.846  11.761   1.623  0.8677 -0.1123  0.4983
  745MOL0     C  467   2.857  11.787   1.484  1.1718 -0.5486 -0.8069
  745MOL0     C  468   2.883  11.674   1.396 -0.6539  0.1295  0.0393
  745MOL0     C  469   2.839  11.921   1.438 -0.1053  0.1954  0.8943
  745MOL0     C  470   2.850  11.952   1.286 -1.0456  0.0398  0.6635
  745MOL0     O  471   2.830  12.083   1.258  0.3880  0.3255  0.6108
  745MOL0     C  472   2.886  12.134   1.139  0.4321 -0.2272 -0.0662
  745MOL0     C  473   2.810  12.220   1.065 -0.1345  0.2234  1.1971
  745MOL0     C  474   2.863  12.282   0.953 -0.3361  0.0532 -0.2525
  745MOL0     C  475   2.989  12.241   0.900 -0.1388 -0.1626 -0.1361
  745MOL0     O  476   3.020  12.295   0.782 -0.0512  0.5485  0.0887
  745MOL0     C  477   3.143  12.252   0.717  0.6770 -0.2943 -0.0095
  745MOL0     C  478   3.160  12.329   0.585 -0.3473  0.7451 -0.0458
  745MOL0     C  479   3.195  12.472   0.619  0.3802 -0.4066  0.5662
  745MOL0     C  480   3.192  12.558   0.499 -0.2254 -0.5093  0.2512
  745MOL0     C  481   3.205  12.708   0.522  0.3363  0.5230 -0.1089
  745MOL0     C  482   3.351  12.732   0.574  0.4012 -0.6599  0.8267
  745MOL0     C  483   3.373  12.888   0.578 -0.1063 -0.4457 -0.6037
  745MOL0     C  484   3.497  12.934   0.652  0.0726  0.8979  0.9020
  745MOL0    Cl  485   3.621  12.956   0.521 -0.2539  0.3339 -0.3444
  745MOL0     C  486   3.063  12.145   0.974  1.1820 -0.7100  0.1689
  745MOL0     C  487   3.010  12.100   1.095 -0.7707 -0.3949  0.3754
  745MOL0     O  488   2.862  11.866   1.197 -0.1843 -0.4857 -0.1734
  745MOL0     C  489   2.808  12.023   1.529  0.5864 -0.0867  0.1212
  745MOL0     C  490   2.794  11.991   1.672 -1.5172 -0.1920  0.8123
  745MOL0     N  491   2.316  11.528   2.208  0.0906  0.4082  0.1452
  745MOL0     N  492   2.221  11.461   2.148  0.8599 -1.0667  0.2597
  745MOL0     C  493   2.235  11.444   0.854 -0.0055 -0.3029  0.8138
  745MOL0     C  494   2.227  11.373   0.745  1.0497  0.7362  1.0099
  745MOL0     C  495   2.182  11.078   0.423  1.4405 -0.6536 -0.3782
  745MOL0     C  496   2.288  11.022   0.343  0.3692  0.3093 -0.2261
  745MOL0     C  497   2.268  10.910   0.258 -0.2690  0.0260 -0.0485
  745MOL0     C  498   2.135  10.860   0.245 -1.3086 -1.4297 -0.6036
  745MOL0     O  499   2.103  10.770   0.143  0.1509 -0.0255  0.6111
  745MOL0     C  500   1.984  10.692   0.148  0.1668 -0.4518 -0.3261
  745MOL0     C  501   1.987  10.607   0.024 -0.3684  0.0614  0.5356
  745MOL0     C  502   2.097  10.499   0.021  0.0559  0.1377 -0.2286
  745MOL0     C  503   2.121  10.473  -0.130 -0.0310 -0.1766 -0.3710
  745MOL0     C  504   2.227  10.369  -0.149 -0.1771 -0.2889  0.5048
  745MOL0     C  505   2.319  10.299  -0.161  0.1448  0.4140 -0.4034
  745MOL0     C  506   2.029  10.920   0.326  0.6009  1.1016  0.8485
  745MOL0     C  507   2.056  11.020   0.407  0.9312  0.6408 -0.4364
  745MOL0     H  508   2.013  11.135   0.857  2.4662 -0.6541  0.5646
  745MOL0     H  509   2.008  11.276   1.046 -1.4585  0.7730 -0.9125
  745MOL0     H  510   2.253  11.324   1.153 -2.8599  0.0878 -1.0283
  745MOL0     H  511   2.361  11.466   1.132  0.7133  0.8523  0.6263
  745MOL0     H  512   2.296  11.429   1.372  0.3918 -0.0634  0.5468
  745MOL0     H  513   2.219  11.580   1.314 -0.5825 -0.9703  4.1075
  745MOL0     H  514   2.017  11.463   1.287 -0.0198 -1.4947  0.7926
  745MOL0     H  515   2.093  11.312   1.330  0.5563  0.7140 -4.3314
  745MOL0     H  516   2.114  11.529   1.509  0.4228 -1.3242 -0.1064
  745MOL0     H  517   1.955  11.450   1.491 -0.4998  4.4781 -2.4006
  745MOL0     H  518   2.088  11.230   1.541 -0.1863  0.8081 -0.9362
  745MOL0     H  519   2.222  11.327   1.586 -0.2750 -2.1068 -0.3651
  745MOL0     H  520   1.945  11.387   1.694  0.6354  2.1781  0.8987
  745MOL0     H  521   2.036  11.243   1.754 -1.0808 -0.2626 -2.2548
  745MOL0     H  522   2.238  11.386   1.797 -1.3301 -1.6214  1.5295
  745MOL0     H  523   2.154  11.530   1.742 -4.4460 -0.1507 -1.6529
  745MOL0     H  524   2.075  11.382   1.986  0.9096 -0.1044 -0.8283
  745MOL0     H  525   2.018  11.542   1.934  0.1738  1.0410 -0.8132
  745MOL0     H  526   2.315  11.676   1.923 -1.7709  3.4890  1.4334
  745MOL0     H  527   2.470  11.811   2.179 -2.1028 -0.7573 -1.1191
  745MOL0     H  528   2.555  11.658   2.232 -1.9409 -2.2919  0.6106
  745MOL0     H  529   2.507  11.775   1.959 -2.8439 -1.2376  1.9834
  745MOL0     H  530   2.594  11.621   1.985 -0.6811 -0.6167  0.7301
  745MOL0     H  531   2.772  11.731   2.116  2.4739  3.3496  2.2492
  745MOL0     H  532   2.666  11.869   2.139 -2.0775  0.3875 -1.1420
  745MOL0     H  533   2.884  11.887   1.984 -0.2100  0.1339  2.5218
  745MOL0     H  534   2.729  11.972   1.939 -1.0369 -0.0137 -1.5919
  745MOL0     H  535   2.871  11.664   1.666  0.4024  0.0046  1.0383
  745MOL0     H  536   2.978  11.698   1.348 -0.3449 -0.4106  0.3666
  745MOL0     H  537   2.895  11.585   1.459 -2.2908 -0.5326 -0.5162
  745MOL0     H  538   2.802  11.649   1.327  0.7717 -3.2150 -0.6140
  745MOL0     H  539   2.710  12.228   1.107 -0.3060  0.5982  0.7256
  745MOL0     H  540   2.811  12.363   0.903  3.5810  2.0131 -1.4906
  745MOL0     H  541   3.228  12.273   0.783  1.8814 -0.1477 -1.5542
  745MOL0     H  542   3.138  12.144   0.697 -3.0309 -0.0965 -0.8888
  745MOL0     H  543   3.239  12.278   0.528 -1.0620 -2.0165  1.2637
  745MOL0     H  544   3.076  12.319   0.515 -1.7440  0.5332  1.6097
  745MOL0     H  545   3.297  12.482   0.657 -0.6719  1.5136  3.1537
  745MOL0     H  546   3.129  12.515   0.695 -2.0755 -0.7800 -1.2071
  745MOL0     H  547   3.270  12.529   0.428  1.5781  3.2413  0.4766
  745MOL0     H  548   3.104  12.544   0.435 -0.4456  1.2384  0.1143
  745MOL0     H  549   3.133  12.743   0.596  0.4948  4.7247 -1.6167
  745MOL0     H  550   3.205  12.766   0.428 -2.2963  2.3242  0.8668
  745MOL0     H  551   3.371  12.692   0.674 -0.3430  2.7168  2.5003
  745MOL0     H  552   3.430  12.697   0.507 -0.5661  2.7310 -2.4081
  745MOL0     H  553   3.286  12.932   0.627 -1.3104 -0.1759 -2.8497
  745MOL0     H  554   3.370  12.915   0.472 -0.3968  3.0330  0.1653
  745MOL0     H  555   3.540  12.870   0.729 -0.8141 -1.3210 -0.3567
  745MOL0     H  556   3.473  13.035   0.685  0.8778  2.1972 -2.1014
  745MOL0     H  557   3.147  12.090   0.931  0.1830 -1.5630 -0.7495
  745MOL0     H  558   3.065  12.020   1.142  1.1429  0.0913 -0.9209
  745MOL0     H  559   2.782  12.125   1.502 -1.1072 -0.4524  0.2455
  745MOL0     H  560   2.767  12.070   1.742  1.3847  3.6519 -1.9373
  745MOL0     H  561   2.299  11.531   0.846 -1.1951  0.6934  1.7353
  745MOL0     H  562   2.276  11.400   0.652  0.9533  3.3954  1.6423
  745MOL0     H  563   2.391  11.056   0.345  2.0151 -4.0990  1.2201
  745MOL0     H  564   2.350  10.872   0.200  0.5161 -2.2619  2.3873
  745MOL0     H  565   1.979  10.627   0.236  0.2578  0.1183  0.1060
  745MOL0     H  566   1.890  10.747   0.141 -1.0080 -2.6080 -3.4807
  745MOL0     H  567   2.002  10.683  -0.054 -0.9650  0.6336  0.9655
  745MOL0     H  568   1.887  10.564   0.011 -0.6028  0.0345  2.2133
  745MOL0     H  569   2.063  10.406   0.068 -0.0222  0.3226  0.0853
  745MOL0     H  570   2.188  10.523   0.077  0.2247 -0.3705 -0.2772
  745MOL0     H  571   2.158  10.565  -0.176  0.7688 -0.3375 -0.0643
  745MOL0     H  572   2.034  10.435  -0.184 -0.3026  0.9877 -0.7898
  745MOL0     H  573   2.410  10.243  -0.167 -0.3825 -0.7472  1.5719
  745MOL0     H  574   1.929  10.878   0.324  1.1981 -0.3600  0.2850
  745MOL0     H  575   1.983  11.065   0.473  0.6974 -2.3292  1.5250
  746MOL0     O  576   1.341   2.699  10.628 -0.3393  0.3234 -0.2656
  746MOL0     C  577   1.361   2.676  10.743 -0.8954 -0.0844  0.6136
  746MOL0     O  578   1.283   2.599  10.825 -0.0393 -0.2450  0.1114
  746MOL0     C  579   1.181   2.529  10.762  0.1711 -0.5092  0.1841
  746MOL0     C  580   1.053   2.538  10.810  0.0295 -0.7270 -0.3400
  746MOL0     C  581   0.948   2.468  10.753  0.2734 -0.0644 -0.4118
  746MOL0     C  582   0.971   2.371  10.653  0.1829  0.0241  0.9919
  746MOL0     O  583   0.882   2.291  10.584  0.9677 -0.1945  0.5788
  746MOL0     C  584   0.760   2.357  10.550 -0.2545 -0.9918  0.5399
  746MOL0     C  585   0.685   2.280  10.434  0.7343 -0.3897  0.2687
  746MOL0     C  586   0.726   2.309  10.285  0.3879 -0.5456  0.1184
  746MOL0     C  587   0.674   2.450  10.233  0.0602  0.5938 -0.6049
  746MOL0     C  588   0.527   2.442  10.184 -0.5686  0.1911 -0.0407
  746MOL0     C  589   0.490   2.589  10.139 -0.5563  0.1020  0.3255
  746MOL0     C  590   0.339   2.600  10.139 -0.2673 -0.5298  0.0209
  746MOL0     C  591   0.270   2.737  10.103  0.7625  0.5522 -0.1917
  746MOL0     N  592   0.121   2.731  10.080 -0.4684  1.1020  0.1087
  746MOL0     C  593   0.037   2.619  10.109  0.0464 -0.4847  1.0345
  746MOL0     C  594  -0.090   2.678  10.095 -1.0301 -0.3819  0.0131
  746MOL0     C  595  -0.223   2.619  10.120  0.7177  0.7812  0.5555
  746MOL0     C  596  -0.272   2.555   9.984 -0.0127  0.0495 -0.8223
  746MOL0     C  597  -0.191   2.435   9.943  1.0652  0.1426 -0.2433
  746MOL0     C  598  -0.214   2.376   9.802  0.3983 -0.4781  0.5588
  746MOL0     O  599  -0.206   2.476   9.709 -0.2871 -0.0234  0.6061
  746MOL0     C  600  -0.274   2.470   9.587  1.1241 -0.2921  0.2737
  746MOL0     C  601  -0.312   2.343   9.537  0.0689  0.1552  0.3913
  746MOL0     C  602  -0.365   2.346   9.404  0.4044  0.5069 -0.1387
  746MOL0     C  603  -0.396   2.200   9.344 -0.1117  0.1432  0.2975
  746MOL0     C  604  -0.404   2.462   9.332  1.1068  0.4942 -0.2574
  746MOL0     C  605  -0.455   2.471   9.193 -0.0990 -0.3474 -0.1533
  746MOL0     O  606  -0.452   2.588   9.137 -0.2591 -0.0434  0.2087
  746MOL0     C  607  -0.492   2.607   9.010 -0.0517 -0.2762  0.4018
  746MOL0     C  608  -0.628   2.620   8.964  0.7654  0.6960 -0.0077
  746MOL0     C  609  -0.642   2.641   8.831  0.0094  0.3996 -0.8737
  746MOL0     C  610  -0.549   2.682   8.740  0.2297  0.2910  0.0456
  746MOL0     O  611  -0.595   2.720   8.621 -0.6100 -0.2589  0.1936
  746MOL0     C  612  -0.491   2.729   8.515 -0.4319  0.2514  0.1836
  746MOL0     C  613  -0.540   2.827   8.413 -0.1733 -0.3767 -0.8680
  746MOL0     C  614  -0.525   2.970   8.444 -0.4550  0.5261  0.7287
  746MOL0     C  615  -0.581   3.027   8.573 -0.2409 -0.2577  0.8447
  746MOL0     C  616  -0.618   3.178   8.556  0.5719  0.6762 -1.3386
  746MOL0     C  617  -0.527   3.277   8.498 -0.5720 -0.0741  0.9167
  746MOL0     C  618  -0.548   3.425   8.523  0.0529  0.2197 -0.6498
  746MOL0     C  619  -0.484   3.508   8.417 -0.4093  0.3379  0.5309
  746MOL0    Cl  620  -0.312   3.482   8.414  0.3157  0.4265  0.4433
  746MOL0     C  621  -0.417   2.688   8.786 -0.4412 -0.6920 -0.0470
  746MOL0     C  622  -0.387   2.654   8.917 -0.1138  0.6493 -0.1410
  746MOL0     O  623  -0.472   2.369   9.127 -0.3200 -0.8641  0.0903
  746MOL0     C  624  -0.372   2.583   9.392  0.0023 -0.1461 -0.3347
  746MOL0     C  625  -0.303   2.591   9.517  0.2944 -0.1314 -0.2220
  746MOL0     N  626  -0.075   2.803  10.041  0.2664 -0.7339 -0.1882
  746MOL0     N  627   0.055   2.836  10.027  0.3537  0.1176 -0.2193
  746MOL0     C  628   1.103   2.357  10.606 -0.1374  0.1260  0.9849
  746MOL0     C  629   1.205   2.433  10.663  0.2540 -0.8978 -1.6086
  746MOL0     C  630   1.477   2.739  10.817 -0.6698 -0.1799 -0.1787
  746MOL0     C  631   1.554   2.835  10.767  0.2540  0.8086 -0.1982
  746MOL0     C  632   1.661   2.893  10.837  0.7270  0.5870 -0.4998
  746MOL0     C  633   1.691   2.867  10.968  0.2798  0.4023 -0.6765
  746MOL0     O  634   1.819   2.900  11.010  0.0158 -0.1993 -0.4523
  746MOL0     C  635   1.845   2.916  11.155 -0.3351 -0.5843 -0.5280
  746MOL0     C  636   1.907   2.781  11.201 -0.3771  0.3524  0.2632
  746MOL0     C  637   1.944   2.781  11.344  0.7957  0.4381 -0.1211
  746MOL0     C  638   1.836   2.795  11.453 -0.7965 -0.8851 -0.5341
  746MOL0     C  639   1.739   2.685  11.448 -1.2553  0.3002 -0.4140
  746MOL0     C  640   1.674   2.581  11.442  0.6662  0.0326  1.3107
  746MOL0     C  641   1.612   2.769  11.032  1.3815 -0.3407 -0.0421
  746MOL0     C  642   1.511   2.707  10.948  0.0871 -0.2492  0.2889
  746MOL0     H  643   1.041   2.609  10.891 -0.7938 -4.6118  3.2824
  746MOL0     H  644   0.848   2.477  10.793  0.7691 -0.4869  0.9745
  746MOL0     H  645   0.686   2.359  10.630  0.4256  2.3242  1.2295
  746MOL0     H  646   0.778   2.460  10.518  1.0187 -1.6775 -1.1367
  746MOL0     H  647   0.700   2.173  10.451  0.7582 -0.3103  0.7576
  746MOL0     H  648   0.577   2.297  10.425  1.1238  2.4550  0.2887
  746MOL0     H  649   0.835   2.322  10.284  0.4583 -1.1501 -0.0679
  746MOL0     H  650   0.692   2.233  10.215 -2.9162  1.0814 -0.2493
  746MOL0     H  651   0.674   2.539  10.297 -2.9286  1.3095 -1.4121
  746MOL0     H  652   0.734   2.467  10.143 -1.5819  0.9535 -1.6906
  746MOL0     H  653   0.504   2.369  10.107 -1.6326 -0.8936  1.2571
  746MOL0     H  654   0.473   2.418  10.276 -2.9662 -1.2113 -1.6919
  746MOL0     H  655   0.519   2.654  10.222 -1.4993 -1.0079  1.5618
  746MOL0     H  656   0.528   2.630  10.045 -2.0811  2.1296  0.5567
  746MOL0     H  657   0.300   2.530  10.065  1.1050 -0.3017 -0.9583
  746MOL0     H  658   0.306   2.569  10.239  0.3551 -1.7652 -0.1393
  746MOL0     H  659   0.330   2.776  10.021  2.2195 -0.2043  0.4616
  746MOL0     H  660   0.271   2.802  10.192 -1.4967 -0.1968  0.4508
  746MOL0     H  661   0.065   2.520  10.143 -1.2492 -0.9021  0.9199
  746MOL0     H  662  -0.230   2.549  10.203  1.3750 -0.3014 -0.2700
  746MOL0     H  663  -0.286   2.708  10.135  1.3028  1.1024  1.1382
  746MOL0     H  664  -0.288   2.629   9.905 -1.8630  0.4847 -0.0959
  746MOL0     H  665  -0.375   2.523  10.002 -1.3511  1.3911 -4.9656
  746MOL0     H  666  -0.212   2.361  10.021  2.5394 -0.8006 -0.6904
  746MOL0     H  667  -0.085   2.463   9.945  1.3241 -0.7962  1.4999
  746MOL0     H  668  -0.315   2.336   9.804 -0.5719  1.7522  3.0702
  746MOL0     H  669  -0.135   2.301   9.792  1.7403  0.6091  2.2119
  746MOL0     H  670  -0.296   2.249   9.589 -0.5623 -0.1099  0.1139
  746MOL0     H  671  -0.320   2.163   9.274 -0.8625 -0.2814 -0.3055
  746MOL0     H  672  -0.391   2.128   9.426 -1.2943 -0.8082 -0.4439
  746MOL0     H  673  -0.489   2.208   9.287  0.6752  5.3106 -0.8006
  746MOL0     H  674  -0.705   2.576   9.027  3.5646 -4.6101  0.2843
  746MOL0     H  675  -0.748   2.629   8.810 -0.1682 -1.5682  0.8158
  746MOL0     H  676  -0.386   2.749   8.539 -0.5188  1.1604 -0.1550
  746MOL0     H  677  -0.478   2.639   8.455 -1.3937 -0.7017  1.3563
  746MOL0     H  678  -0.493   2.811   8.316  2.4406  2.8157 -0.2949
  746MOL0     H  679  -0.649   2.815   8.405 -0.4248 -1.2160  2.3721
  746MOL0     H  680  -0.558   3.034   8.362  0.2537  0.0492  0.0580
  746MOL0     H  681  -0.421   3.005   8.451  0.4129 -1.9355  0.9670
  746MOL0     H  682  -0.672   2.973   8.599  0.2537 -1.9740 -0.7418
  746MOL0     H  683  -0.504   3.021   8.651  1.0696 -1.5746 -0.4870
  746MOL0     H  684  -0.632   3.200   8.663 -1.5226  0.9336 -1.6252
  746MOL0     H  685  -0.718   3.187   8.513  1.0013 -1.2188 -2.8362
  746MOL0     H  686  -0.424   3.249   8.523 -0.5042 -0.2349  0.4672
  746MOL0     H  687  -0.544   3.271   8.390  2.6502  0.8147  0.2390
  746MOL0     H  688  -0.505   3.462   8.617 -1.4134  2.1981 -0.6919
  746MOL0     H  689  -0.656   3.439   8.527  0.1062  0.8045  3.4134
  746MOL0     H  690  -0.500   3.615   8.435  1.1239  0.5956  0.4748
  746MOL0     H  691  -0.525   3.483   8.319 -1.1110 -0.8399  1.1071
  746MOL0     H  692  -0.330   2.719   8.729  0.4605  1.7757  2.4560
  746MOL0     H  693  -0.283   2.654   8.948 -0.3507  1.3869  0.7044
  746MOL0     H  694  -0.395   2.683   9.356  0.0295  1.3447  3.3827
  746MOL0     H  695  -0.297   2.693   9.553  0.6758  0.6868 -2.4348
  746MOL0     H  696   1.115   2.288  10.523 -1.0318  1.6766 -0.4994
  746MOL0     H  697   1.306   2.417  10.626  1.6131  3.6449 -0.5307
  746MOL0     H  698   1.531   2.873  10.668 -1.9232  2.2529  0.7695
  746MOL0     H  699   1.710   2.981  10.796 -0.8763  3.6696  3.4954
  746MOL0     H  700   1.907   3.005  11.167 -1.8685  0.5778 -0.9114
  746MOL0     H  701   1.756   2.934  11.215  0.7747  1.0415  0.7099
  746MOL0     H  702   1.990   2.759  11.133  1.1881  1.5767  1.6627
  746MOL0     H  703   1.830   2.705  11.185 -1.4739  1.5280 -0.2424
  746MOL0     H  704   2.015   2.860  11.372 -0.6423  1.6030  0.4016
  746MOL0     H  705   1.995   2.687  11.365 -2.9075 -2.3065 -2.1884
  746MOL0     H  706   1.790   2.893  11.441 -0.9347 -1.2022 -3.3892
  746MOL0     H  707   1.888   2.785  11.548  0.1313 -1.4380 -1.0765
  746MOL0     H  708   1.614   2.492  11.442  0.8083 -0.1514 -1.2537
  746MOL0     H  709   1.617   2.730  11.133 -3.0353  4.0104  2.2887
  746MOL0     H  710   1.447   2.639  11.003  0.0765  0.1348  0.7517
  747MOL0     O  711   7.283   9.952   2.586 -0.4750 -0.6283  0.2371
  747MOL0     C  712   7.256  10.052   2.651 -0.1689  1.0074  0.4135
  747MOL0     O  713   7.342  10.120   2.733 -0.4418  0.2583  0.3288
  747MOL0     C  714   7.474  10.074   2.734 -0.3862  0.5668 -0.8999
  747MOL0     C  715   7.559  10.111   2.628 -0.0401 -0.1927  0.2212
  747MOL0     C  716   7.690  10.061   2.616  0.1614  0.8191 -0.4108
  747MOL0     C  717   7.741   9.976   2.705 -0.0381 -0.1190 -0.1853
  747MOL0     O  718   7.874   9.955   2.696  0.5428  0.4002 -0.6568
  747MOL0     C  719   7.924   9.851   2.777  0.4385 -0.6623 -0.2914
  747MOL0     C  720   8.070   9.823   2.756  0.2815  0.1317  0.9377
  747MOL0     C  721   8.090   9.730   2.635 -0.8474  0.0578  0.3709
  747MOL0     C  722   8.234   9.757   2.562 -0.3755 -1.2529  0.1953
  747MOL0     C  723   8.265   9.641   2.457  0.1672 -0.9899  0.5492
  747MOL0     C  724   8.224   9.669   2.306  0.0690  0.1425 -0.0941
  747MOL0     C  725   8.090   9.721   2.291  1.2656  0.7886  1.0725
  747MOL0     C  726   8.059   9.687   2.143 -0.3507 -0.4068 -0.1277
  747MOL0     N  727   8.051   9.546   2.115  0.0342 -0.1429  0.4863
  747MOL0     C  728   8.121   9.480   2.020  0.1897 -0.4742 -0.2542
  747MOL0     C  729   8.101   9.349   2.046 -0.2577 -0.0848 -0.7108
  747MOL0     C  730   8.181   9.235   1.999 -0.5900 -0.1671  0.1412
  747MOL0     C  731   8.335   9.250   1.994 -0.3170 -0.4296 -0.6370
  747MOL0     C  732   8.403   9.220   2.131 -0.2318  0.8875  0.0218
  747MOL0     C  733   8.389   9.315   2.243 -0.5347 -0.2735  0.2414
  747MOL0     O  734   8.434   9.261   2.367 -0.0447 -0.2564 -0.2893
  747MOL0     C  735   8.338   9.195   2.440  0.6147 -0.3561 -0.1028
  747MOL0     C  736   8.205   9.168   2.403 -0.2718  0.3491 -0.8673
  747MOL0     C  737   8.113   9.104   2.490 -0.5267 -0.0452 -0.8480
  747MOL0     C  738   7.971   9.089   2.433  0.5817 -0.0579  0.1359
  747MOL0     C  739   8.154   9.081   2.624  0.2259 -0.3403  0.0196
  747MOL0     C  740   8.072   9.014   2.734  0.3182  0.1522  0.0409
  747MOL0     O  741   8.137   8.992   2.855  0.4445  0.0460  0.1257
  747MOL0     C  742   8.055   8.955   2.961 -0.0005 -0.7730 -0.0822
  747MOL0     C  743   8.011   8.824   2.965  0.5043 -0.1700 -0.1122
  747MOL0     C  744   7.912   8.789   3.063  0.9134 -0.0286 -0.5740
  747MOL0     C  745   7.863   8.887   3.157  0.3388  0.1005  0.2679
  747MOL0     O  746   7.773   8.864   3.253  1.0260  0.1798 -0.3822
  747MOL0     C  747   7.678   8.760   3.239  0.1725  0.1348  0.2244
  747MOL0     C  748   7.582   8.761   3.358  0.0815 -0.0279  0.3897
  747MOL0     C  749   7.477   8.640   3.337  0.6066  0.3893 -0.1249
  747MOL0     C  750   7.402   8.613   3.467 -0.1661 -0.1470 -0.1222
  747MOL0     C  751   7.370   8.461   3.469  0.3737 -0.2715  0.0281
  747MOL0     C  752   7.271   8.421   3.363  0.9909 -0.5213  0.4268
  747MOL0     C  753   7.223   8.273   3.372  0.3766  0.2828  0.1107
  747MOL0     C  754   7.107   8.247   3.472  0.6364 -0.4410  0.1972
  747MOL0    Cl  755   6.953   8.265   3.386 -0.3059 -0.6486 -0.5891
  747MOL0     C  756   7.921   9.010   3.149 -0.5369  0.4718 -0.0647
  747MOL0     C  757   8.022   9.046   3.063 -0.1670 -0.1994  0.0567
  747MOL0     O  758   7.957   8.973   2.706 -0.3923  0.2072 -0.1659
  747MOL0     C  759   8.278   9.122   2.665  0.1220 -0.3527  0.3750
  747MOL0     C  760   8.371   9.176   2.578  1.5908  0.9089  0.4004
  747MOL0     N  761   8.004   9.337   2.143  0.7515  0.2411  0.2980
  747MOL0     N  762   7.971   9.454   2.177 -0.2177 -0.8323 -0.6284
  747MOL0     C  763   7.659   9.937   2.815  0.4281  0.1995 -0.0977
  747MOL0     C  764   7.526   9.983   2.834 -0.5766 -0.7766  0.5133
  747MOL0     C  765   7.104  10.079   2.651 -1.0263  0.2667 -1.3098
  747MOL0     C  766   6.999   9.994   2.610 -0.6620  0.0577 -0.3428
  747MOL0     C  767   6.869  10.027   2.635 -0.0872  0.3832  0.1716
  747MOL0     C  768   6.833  10.150   2.686 -0.4921 -0.0624 -0.5154
  747MOL0     O  769   6.703  10.163   2.727 -0.5188 -0.0192 -0.1398
  747MOL0     C  770   6.660  10.289   2.786  0.1003  1.2754 -0.0503
  747MOL0     C  771   6.509  10.281   2.814  0.1925  0.2315  0.6534
  747MOL0     C  772   6.436  10.277   2.680 -0.3203 -0.4883  0.0135
  747MOL0     C  773   6.292  10.239   2.706 -0.7981 -0.2840  0.5738
  747MOL0     C  774   6.212  10.235   2.585  0.4256  0.6815 -0.1282
  747MOL0     C  775   6.127  10.233   2.494  0.0671  0.3100 -0.1362
  747MOL0     C  776   6.932  10.246   2.723 -0.2808  0.7805 -0.6529
  747MOL0     C  777   7.067  10.209   2.699 -0.2821 -0.1825 -0.1784
  747MOL0     H  778   7.518  10.179   2.554  4.7069  0.8410 -1.8393
  747MOL0     H  779   7.750  10.103   2.536  1.9943  0.4209  0.6842
  747MOL0     H  780   7.915   9.882   2.881  1.0907 -0.1924 -0.3684
  747MOL0     H  781   7.862   9.763   2.759 -0.4593  0.3460 -2.5579
  747MOL0     H  782   8.122   9.918   2.739 -0.2093  0.2384 -0.0956
  747MOL0     H  783   8.108   9.772   2.844 -1.0869 -2.3461  0.1867
  747MOL0     H  784   8.094   9.626   2.670  3.0947  0.5758  2.1098
  747MOL0     H  785   8.011   9.744   2.561 -1.1145  0.1272  0.6660
  747MOL0     H  786   8.233   9.857   2.517  2.2719 -0.0753  2.4659
  747MOL0     H  787   8.319   9.762   2.631 -1.5622  1.0077  1.6125
  747MOL0     H  788   8.373   9.625   2.451  0.2788 -0.4536  1.0049
  747MOL0     H  789   8.217   9.552   2.497  0.3844 -1.2693  0.1887
  747MOL0     H  790   8.302   9.736   2.268  1.0599  0.9655  3.0424
  747MOL0     H  791   8.247   9.575   2.255 -1.3681  1.3487 -3.1590
  747MOL0     H  792   8.025   9.658   2.352  0.2762  2.5082  1.8877
  747MOL0     H  793   8.070   9.827   2.310 -1.4522  0.5160  0.1378
  747MOL0     H  794   8.141   9.729   2.084 -2.4746  1.7929 -1.7237
  747MOL0     H  795   7.976   9.753   2.116  1.5673  1.0961 -2.8168
  747MOL0     H  796   8.174   9.522   1.935 -1.2150  0.0706 -0.9027
  747MOL0     H  797   8.166   9.141   2.054 -0.6947  0.6775  1.5851
  747MOL0     H  798   8.146   9.230   1.896  3.0928  2.6176 -1.4706
  747MOL0     H  799   8.369   9.347   1.958 -1.2191  0.5787  1.0919
  747MOL0     H  800   8.373   9.185   1.915 -0.0273  0.4956 -1.2697
  747MOL0     H  801   8.508   9.202   2.108 -0.4416 -2.0832  0.9606
  747MOL0     H  802   8.369   9.121   2.165  2.5043 -1.1271 -2.5825
  747MOL0     H  803   8.295   9.372   2.240 -1.9528 -2.4009  1.3670
  747MOL0     H  804   8.460   9.397   2.233  1.6113 -2.1187 -0.5388
  747MOL0     H  805   8.174   9.185   2.301  1.3762  3.0800 -0.9974
  747MOL0     H  806   7.944   8.985   2.414  2.6317 -1.3403  3.3636
  747MOL0     H  807   7.904   9.124   2.512  1.6706  0.9226  0.6572
  747MOL0     H  808   7.949   9.151   2.345 -1.6018 -1.0243 -0.0357
  747MOL0     H  809   8.042   8.755   2.887  1.6974 -0.6076  0.7230
  747MOL0     H  810   7.873   8.688   3.078  0.4355  0.4625  1.9801
  747MOL0     H  811   7.626   8.771   3.143  2.7709  0.1823 -1.2869
  747MOL0     H  812   7.733   8.666   3.225 -1.0470 -0.3957 -1.3074
  747MOL0     H  813   7.641   8.758   3.450 -3.1202  0.3776  2.6253
  747MOL0     H  814   7.533   8.858   3.367 -0.6897 -0.4558  0.9092
  747MOL0     H  815   7.528   8.553   3.294  1.0802  0.6470 -0.0987
  747MOL0     H  816   7.404   8.679   3.265  0.0571  1.9875  1.2292
  747MOL0     H  817   7.469   8.639   3.550  0.7011 -0.2253 -0.7907
  747MOL0     H  818   7.307   8.664   3.486 -0.7638 -1.0821 -0.5051
  747MOL0     H  819   7.324   8.438   3.566  0.9432 -2.8198 -0.2301
  747MOL0     H  820   7.464   8.405   3.467  0.4530 -0.1571  0.4396
  747MOL0     H  821   7.184   8.486   3.361  3.8957  3.7525  0.0176
  747MOL0     H  822   7.313   8.434   3.262 -0.6681  0.7343 -0.1354
  747MOL0     H  823   7.308   8.207   3.394  2.2805  2.2842 -0.8832
  747MOL0     H  824   7.192   8.245   3.271  0.1490 -0.0479  0.2708
  747MOL0     H  825   7.101   8.314   3.558  0.2682  0.7284 -0.7223
  747MOL0     H  826   7.110   8.143   3.508 -0.5171 -1.1097 -1.4614
  747MOL0     H  827   7.888   9.085   3.220  1.7232 -0.1656  1.7714
  747MOL0     H  828   8.070   9.143   3.061 -0.1746 -0.1628 -3.3867
  747MOL0     H  829   8.316   9.107   2.766 -0.6607 -1.8115  0.4716
  747MOL0     H  830   8.465   9.219   2.612  1.6810  1.0523 -0.0298
  747MOL0     H  831   7.700   9.860   2.879 -3.2139 -1.2311  0.7248
  747MOL0     H  832   7.456   9.951   2.911 -1.8541  1.8283  0.5506
  747MOL0     H  833   7.028   9.898   2.568 -0.4691 -0.0083 -0.0591
  747MOL0     H  834   6.785   9.962   2.613  0.9536 -1.0893  0.4074
  747MOL0     H  835   6.712  10.288   2.882  0.8734 -0.5830 -0.4404
  747MOL0     H  836   6.692  10.375   2.726 -0.0047  0.2237 -1.6677
  747MOL0     H  837   6.474  10.361   2.880 -1.6261  1.5277 -1.6906
  747MOL0     H  838   6.490  10.184   2.861  1.4614 -1.4402 -2.0312
  747MOL0     H  839   6.491  10.212   2.611 -1.3680  1.5383 -2.9149
  747MOL0     H  840   6.439  10.378   2.637 -0.1128 -0.9075 -0.9747
  747MOL0     H  841   6.244  10.302   2.781  3.3224  0.5129  2.8844
  747MOL0     H  842   6.311  10.136   2.739  6.0706 -1.8604 -5.5537
  747MOL0     H  843   6.053  10.223   2.417 -0.9087 -1.2050  0.9422
  747MOL0     H  844   6.905  10.328   2.789  1.8159  1.2687 -0.3334
  747MOL0     H  845   7.142  10.286   2.718 -1.8350  2.0042 -2.3172
  748MOL0     O  846   9.771  10.347   8.538  0.0718  0.7607 -0.2917
  748MOL0     C  847   9.686  10.427   8.519  0.3550  0.3011  0.3957
  748MOL0     O  848   9.653  10.478   8.403 -0.3968 -0.3183  0.8551
  748MOL0     C  849   9.736  10.463   8.292 -0.2270 -1.2791 -0.2362
  748MOL0     C  850   9.729  10.354   8.200  0.3797  0.2524  0.1365
  748MOL0     C  851   9.809  10.347   8.083 -0.7605  0.6112 -0.3244
  748MOL0     C  852   9.896  10.454   8.062 -0.2241  0.0541  0.2754
  748MOL0     O  853   9.966  10.442   7.945 -0.0859  0.5720  0.8246
  748MOL0     C  854  10.039  10.557   7.899  0.3607 -0.6325 -0.0670
  748MOL0     C  855  10.073  10.546   7.752  0.3080  0.6728 -1.1512
  748MOL0     C  856  10.159  10.663   7.703  0.7632 -0.0284 -0.5142
  748MOL0     C  857  10.200  10.635   7.551 -0.5190  0.1644 -0.8990
  748MOL0     C  858  10.125  10.735   7.464 -0.5232  0.8371  0.1402
  748MOL0     C  859  10.166  10.720   7.306  0.0295 -0.8978 -0.5796
  748MOL0     C  860  10.127  10.842   7.220 -1.1938  0.3797  0.2884
  748MOL0     C  861  10.163  10.814   7.073 -0.6455  0.7446  0.4553
  748MOL0     N  862  10.098  10.916   6.992 -0.1457  0.1545  0.0033
  748MOL0     C  863  10.118  11.047   7.007  0.4326 -0.3083 -0.7359
  748MOL0     C  864  10.055  11.094   6.896  0.1349  0.5514 -0.2851
  748MOL0     C  865  10.062  11.237   6.846  0.2723  0.3998 -0.8358
  748MOL0     C  866   9.955  11.322   6.915  0.5491  0.8490  0.0998
  748MOL0     C  867   9.940  11.460   6.849 -0.2315 -0.2260  0.5638
  748MOL0     C  868   9.903  11.436   6.705 -0.0458  0.1531 -0.6053
  748MOL0     O  869  10.013  11.455   6.621 -0.1629 -0.0931 -0.1863
  748MOL0     C  870   9.991  11.435   6.483 -0.5623 -1.3784  0.3356
  748MOL0     C  871   9.872  11.410   6.432 -0.2960 -0.2270 -0.0460
  748MOL0     C  872   9.857  11.399   6.294  0.4064 -1.3933 -0.8218
  748MOL0     C  873   9.725  11.365   6.247  0.3154 -0.1070  1.1025
  748MOL0     C  874   9.963  11.429   6.206  0.3744  0.1102 -0.3430
  748MOL0     C  875   9.949  11.434   6.054  0.5084  0.6780  0.3367
  748MOL0     O  876  10.072  11.433   5.997  0.0859  0.2403  0.4360
  748MOL0     C  877  10.088  11.481   5.869  0.4183  0.4531  1.5352
  748MOL0     C  878  10.043  11.407   5.760  0.5124  0.3474  0.1062
  748MOL0     C  879  10.070  11.451   5.633 -0.2248 -0.4160  0.5128
  748MOL0     C  880  10.147  11.565   5.609  0.1467  0.5146 -0.0302
  748MOL0     O  881  10.180  11.614   5.485  0.8246 -0.1107 -0.2580
  748MOL0     C  882  10.068  11.646   5.407  0.1664  0.0386  0.3913
  748MOL0     C  883  10.142  11.763   5.324  0.6652  0.0510 -0.6243
  748MOL0     C  884  10.159  11.884   5.420 -0.3711 -1.1035 -0.5622
  748MOL0     C  885  10.255  11.984   5.344 -0.6236 -0.1460  0.4269
  748MOL0     C  886  10.250  12.123   5.400  0.5553  0.1745  0.0792
  748MOL0     C  887  10.359  12.207   5.340 -1.0533  0.4650  0.3255
  748MOL0     C  888  10.354  12.341   5.411 -0.0998 -0.3769 -0.0457
  748MOL0     C  889  10.376  12.458   5.321 -1.2123 -0.0661  0.1099
  748MOL0    Cl  890  10.529  12.439   5.239  0.0404  0.2247 -0.3729
  748MOL0     C  891  10.202  11.631   5.723 -0.3887  0.7901 -0.1836
  748MOL0     C  892  10.173  11.583   5.844  0.3999 -0.2003  0.2545
  748MOL0     O  893   9.842  11.415   5.993  1.3624 -0.2829 -0.4061
  748MOL0     C  894  10.086  11.447   6.269  0.1695  0.4496 -0.1732
  748MOL0     C  895  10.103  11.452   6.404  0.6187 -0.7499  0.4578
  748MOL0     N  896  10.006  10.992   6.823  0.6089  0.5847 -0.1696
  748MOL0     N  897  10.044  10.887   6.872  0.4723  0.4997  0.5034
  748MOL0     C  898   9.909  10.559   8.157 -0.1603 -0.0567  0.2924
  748MOL0     C  899   9.826  10.565   8.263  0.0130  0.3974 -0.2483
  748MOL0     C  900   9.615  10.472   8.637 -0.2859  0.5647 -0.0923
  748MOL0     C  901   9.506  10.560   8.623 -0.0587  0.1855 -0.1154
  748MOL0     C  902   9.436  10.604   8.738  0.8987  0.0040  1.0964
  748MOL0     C  903   9.473  10.552   8.867 -0.2690 -0.4639 -0.6181
  748MOL0     O  904   9.397  10.595   8.967 -0.5614 -0.8060  0.3747
  748MOL0     C  905   9.405  10.531   9.091 -0.9666  0.3953 -0.3047
  748MOL0     C  906   9.289  10.575   9.165 -0.5554  0.0764 -0.6981
  748MOL0     C  907   9.282  10.513   9.308 -0.3942 -0.3697 -0.1400
  748MOL0     C  908   9.137  10.512   9.348  0.9731  1.3419  0.2968
  748MOL0     C  909   9.116  10.487   9.497  0.5870  0.8453 -0.4403
  748MOL0     C  910   9.094  10.484   9.615 -1.6603  1.1176 -0.8514
  748MOL0     C  911   9.592  10.477   8.880 -0.3842  0.5947  0.0780
  748MOL0     C  912   9.666  10.441   8.767 -0.3134  0.4760  0.3702
  748MOL0     H  913   9.662  10.270   8.211 -0.2527  0.5117 -1.5097
  748MOL0     H  914   9.814  10.265   8.012 -1.7339  0.2611  0.0024
  748MOL0     H  915   9.967  10.638   7.915  1.5131  0.1949  1.2109
  748MOL0     H  916  10.138  10.568   7.945 -0.3422 -0.2935  1.4460
  748MOL0     H  917  10.126  10.454   7.728  0.0365  0.0355  0.5214
  748MOL0     H  918   9.980  10.539   7.695 -0.5268 -1.6680  0.3381
  748MOL0     H  919  10.087  10.745   7.708 -0.5494 -1.0959 -1.2067
  748MOL0     H  920  10.243  10.684   7.770  1.5198  1.4884 -1.8651
  748MOL0     H  921  10.307  10.650   7.535 -0.4577  2.3453  1.1240
  748MOL0     H  922  10.172  10.532   7.529  0.2799  0.0207 -1.2651
  748MOL0     H  923  10.017  10.745   7.483 -1.1286 -2.8515 -0.6680
  748MOL0     H  924  10.162  10.833   7.495  2.8697  0.1835 -1.4228
  748MOL0     H  925  10.275  10.731   7.303 -0.2352  2.5830 -2.6646
  748MOL0     H  926  10.130  10.623   7.271  0.9617 -1.7779  0.7902
  748MOL0     H  927  10.025  10.882   7.216 -1.8912 -1.3864 -0.7656
  748MOL0     H  928  10.198  10.918   7.252 -0.2821 -0.7027  0.8956
  748MOL0     H  929  10.122  10.724   7.026 -2.6234  0.2432  2.9058
  748MOL0     H  930  10.271  10.813   7.058 -0.3755 -0.6237  2.1316
  748MOL0     H  931  10.172  11.103   7.083 -2.1970  2.1473 -0.5294
  748MOL0     H  932  10.164  11.272   6.865  2.3495 -4.3357 -1.7012
  748MOL0     H  933  10.055  11.217   6.738  1.3994 -2.8246 -0.4361
  748MOL0     H  934   9.982  11.331   7.021  0.3047  0.4919  0.1914
  748MOL0     H  935   9.859  11.270   6.914  1.3509 -0.8724  2.6168
  748MOL0     H  936  10.039  11.506   6.852  1.1552 -2.4523 -3.2260
  748MOL0     H  937   9.859  11.520   6.891 -1.2041 -0.3523 -1.0751
  748MOL0     H  938   9.819  11.496   6.670 -0.1600 -0.3896 -1.2929
  748MOL0     H  939   9.877  11.330   6.700 -0.2111  0.1145  0.6261
  748MOL0     H  940   9.788  11.376   6.492 -0.9439  2.2974  0.6077
  748MOL0     H  941   9.681  11.444   6.186  1.9310 -0.7286 -0.9916
  748MOL0     H  942   9.716  11.278   6.181 -0.6121  1.3588 -0.8027
  748MOL0     H  943   9.651  11.356   6.327 -4.4126  0.7536 -2.6964
  748MOL0     H  944   9.998  11.309   5.766  2.3070 -0.5932 -0.9819
  748MOL0     H  945  10.050  11.378   5.555  0.2742 -0.2460  0.2239
  748MOL0     H  946  10.037  11.554   5.357  1.4652 -0.8668  1.1900
  748MOL0     H  947   9.978  11.677   5.460 -1.4382 -3.7758  0.2237
  748MOL0     H  948  10.240  11.730   5.288  0.5279 -2.1204  0.8111
  748MOL0     H  949  10.075  11.795   5.244  0.7653  1.7860 -0.0639
  748MOL0     H  950  10.200  11.853   5.516  3.5931  2.4699 -0.7718
  748MOL0     H  951  10.060  11.927   5.436 -0.9701 -1.7589 -2.2371
  748MOL0     H  952  10.356  11.951   5.366  0.4977  2.6467 -0.0659
  748MOL0     H  953  10.238  11.979   5.236 -0.4972  1.4813  0.3057
  748MOL0     H  954  10.264  12.121   5.508 -1.9020  2.6300  0.5369
  748MOL0     H  955  10.154  12.175   5.396  0.5610  0.2610  0.9172
  748MOL0     H  956  10.456  12.158   5.346  0.4590  3.2625  0.1500
  748MOL0     H  957  10.330  12.215   5.235 -1.4658 -2.9234  0.0472
  748MOL0     H  958  10.428  12.325   5.490  0.5067  0.4458 -0.4309
  748MOL0     H  959  10.260  12.346   5.468  1.7702 -0.7650  3.3447
  748MOL0     H  960  10.375  12.555   5.373 -0.5707  0.2745 -0.4965
  748MOL0     H  961  10.293  12.465   5.251 -1.3052  0.2986  0.2526
  748MOL0     H  962  10.272  11.713   5.726  2.6531 -1.6000 -0.5671
  748MOL0     H  963  10.218  11.625   5.934 -1.1327  0.2646  0.8270
  748MOL0     H  964  10.172  11.464   6.205 -1.3481  2.8794 -1.7498
  748MOL0     H  965  10.194  11.476   6.458  0.1232 -0.1612  1.0578
  748MOL0     H  966   9.981  10.639   8.141  0.5449 -0.8726 -0.7947
  748MOL0     H  967   9.827  10.648   8.333  0.4952 -0.0037  0.2251
  748MOL0     H  968   9.465  10.588   8.527 -2.8925 -1.7113  0.4164
  748MOL0     H  969   9.355  10.676   8.731  2.2371  1.4006 -1.0751
  748MOL0     H  970   9.412  10.422   9.081  0.4883  0.4668 -0.2765
  748MOL0     H  971   9.483  10.562   9.161 -1.6581  3.5868 -0.8011
  748MOL0     H  972   9.206  10.537   9.105 -0.0058  2.5112 -3.1926
  748MOL0     H  973   9.275  10.684   9.172 -1.5754  0.0335 -1.7748
  748MOL0     H  974   9.339  10.576   9.376 -0.0895  0.0365 -0.7749
  748MOL0     H  975   9.315  10.409   9.295 -1.1953 -0.7282  0.5272
  748MOL0     H  976   9.084  10.443   9.283  2.9116 -1.4452  1.4572
  748MOL0     H  977   9.086  10.604   9.319 -2.9205 -0.4892  0.8247
  748MOL0     H  978   9.079  10.486   9.721 -1.8609 -2.8739 -0.6387
  748MOL0     H  979   9.629  10.449   8.977 -0.2195 -1.9837 -0.6516
  748MOL0     H  980   9.755  10.380   8.781  1.5206  3.0477  0.5688
  749MOL0     O  981  10.783   4.219   5.474  0.1464  0.0781 -0.2168
  749MOL0     C  982  10.840   4.274   5.387  0.1207  0.1971  0.1732
  749MOL0     O  983  10.925   4.386   5.406 -0.3313 -0.0004  0.3517
  749MOL0     C  984  10.950   4.414   5.538 -0.3258 -0.6625  0.6324
  749MOL0     C  985  11.018   4.332   5.622 -0.1185  0.0216  0.4081
  749MOL0     C  986  11.053   4.375   5.751  1.0124 -0.4361  0.2887
  749MOL0     C  987  11.008   4.497   5.807 -0.3302  0.2558 -0.0677
  749MOL0     O  988  11.047   4.534   5.931  0.2565 -0.0940 -0.4607
  749MOL0     C  989  11.083   4.672   5.965 -0.0523  0.8435 -0.3670
  749MOL0     C  990  11.136   4.680   6.116 -0.0407  0.0080 -0.4363
  749MOL0     C  991  11.018   4.710   6.210 -1.3245 -0.1960 -0.1126
  749MOL0     C  992  10.979   4.857   6.216  0.3129 -0.5593 -0.6669
  749MOL0     C  993  10.904   4.893   6.341  0.5141  0.6799 -0.2668
  749MOL0     C  994  10.897   5.047   6.351  0.7700  0.1748 -0.4264
  749MOL0     C  995  10.771   5.098   6.433  0.7844  0.2572 -0.5452
  749MOL0     C  996  10.803   5.084   6.579 -0.0736  0.8216  0.5760
  749MOL0     N  997  10.700   5.135   6.668  0.7966 -0.2956 -0.3788
  749MOL0     C  998  10.712   5.254   6.750  0.0164  1.0035  0.1874
  749MOL0     C  999  10.603   5.250   6.823  0.1222 -0.2461  0.4758
  749MOL0     C 1000  10.553   5.353   6.918  0.4275  0.4551 -0.2404
  749MOL0     C 1001  10.610   5.333   7.058 -0.3959 -0.5582 -0.2054
  749MOL0     C 1002  10.547   5.418   7.161 -0.5098 -0.0810 -0.0123
  749MOL0     C 1003  10.601   5.398   7.306 -0.1260  0.4214 -0.1764
  749MOL0     O 1004  10.743   5.444   7.315  0.4954 -0.2633  0.1379
  749MOL0     C 1005  10.775   5.479   7.435  0.1954  0.6219  0.0611
  749MOL0     C 1006  10.817   5.383   7.528 -0.3880  0.1978  1.0289
  749MOL0     C 1007  10.840   5.413   7.668  0.1702 -0.1649  0.8451
  749MOL0     C 1008  10.899   5.296   7.755  0.4099  0.1101 -0.3629
  749MOL0     C 1009  10.812   5.540   7.715  1.4782 -1.1563  0.1455
  749MOL0     C 1010  10.821   5.580   7.859 -0.2399 -1.0230 -0.5764
  749MOL0     O 1011  10.745   5.681   7.902  0.1828  1.2453  0.2915
  749MOL0     C 1012  10.739   5.701   8.043 -0.2767  0.1507  0.0283
  749MOL0     C 1013  10.619   5.665   8.108 -0.3337 -0.1012 -0.0745
  749MOL0     C 1014  10.590   5.701   8.246 -0.8157 -0.6383  0.5020
  749MOL0     C 1015  10.704   5.754   8.320  0.5769 -0.0557 -0.0990
  749MOL0     O 1016  10.693   5.774   8.454  0.5424 -0.6195  0.7634
  749MOL0     C 1017  10.620   5.891   8.484  0.0915 -0.1108 -0.7319
  749MOL0     C 1018  10.582   5.899   8.639 -0.1192  0.1642 -0.6144
  749MOL0     C 1019  10.455   5.815   8.675 -0.3908  0.0236  0.1797
  749MOL0     C 1020  10.325   5.889   8.705  0.6030  0.3322 -0.5203
  749MOL0     C 1021  10.213   5.792   8.730  0.4414  0.4492 -0.5985
  749MOL0     C 1022  10.220   5.734   8.867  0.3514 -0.1713  0.0030
  749MOL0     C 1023  10.095   5.653   8.895  0.1183  0.0372 -0.5189
  749MOL0     C 1024  10.110   5.495   8.875  0.7774  0.3387 -0.7352
  749MOL0    Cl 1025  10.192   5.403   9.002 -0.1678 -0.2089  0.0603
  749MOL0     C 1026  10.822   5.782   8.254 -0.5213 -0.4219 -0.8442
  749MOL0     C 1027  10.842   5.762   8.117 -0.4665  0.0692  0.0406
  749MOL0     O 1028  10.896   5.520   7.927 -0.0008  0.0849 -0.1527
  749MOL0     C 1029  10.747   5.629   7.622 -0.7148 -0.2899 -0.2318
  749MOL0     C 1030  10.738   5.605   7.480  0.2945 -0.5174  0.7032
  749MOL0     N 1031  10.519   5.142   6.780  0.6807 -0.2473  0.4706
  749MOL0     N 1032  10.577   5.086   6.688 -0.0918 -1.0212  0.5930
  749MOL0     C 1033  10.945   4.586   5.715  0.3167 -0.1248 -0.0696
  749MOL0     C 1034  10.918   4.545   5.581  0.9344 -0.5131  0.1564
  749MOL0     C 1035  10.813   4.228   5.240 -0.3995  0.1776  0.1343
  749MOL0     C 1036  10.727   4.118   5.212 -0.5155  0.1214  0.2767
  749MOL0     C 1037  10.707   4.078   5.077  0.6990  0.0914 -0.0225
  749MOL0     C 1038  10.771   4.136   4.963 -0.8756 -0.0688  0.6102
  749MOL0     O 1039  10.751   4.073   4.838 -0.3665 -0.0794 -0.0971
  749MOL0     C 1040  10.779   4.139   4.718  0.0954 -0.5011  0.2242
  749MOL0     C 1041  10.896   4.077   4.647 -1.0911  0.6646  0.7646
  749MOL0     C 1042  10.873   3.931   4.591  0.0103  0.7853 -0.6637
  749MOL0     C 1043  10.795   3.935   4.468 -0.4120  0.0401 -0.0877
  749MOL0     C 1044  10.794   3.800   4.421  1.1880  0.1902 -0.2051
  749MOL0     C 1045  10.776   3.682   4.390  0.0423 -0.2467  1.6098
  749MOL0     C 1046  10.846   4.254   4.990  0.5934  0.4040 -0.1608
  749MOL0     C 1047  10.868   4.291   5.129  0.3752  1.0988  0.0430
  749MOL0     H 1048  11.062   4.243   5.580 -2.0729 -1.6726  1.7704
  749MOL0     H 1049  11.113   4.304   5.808  0.6186 -0.6425  0.4533
  749MOL0     H 1050  11.154   4.719   5.896  0.8237 -1.2393 -0.9803
  749MOL0     H 1051  10.989   4.727   5.971 -0.4309  0.1392  0.3186
  749MOL0     H 1052  11.178   4.579   6.116 -0.3297 -0.1742  1.7221
  749MOL0     H 1053  11.212   4.758   6.125 -0.5970  0.6957 -1.5284
  749MOL0     H 1054  10.934   4.643   6.187 -0.4486 -1.8968  1.4120
  749MOL0     H 1055  11.048   4.677   6.309  2.8445  0.8239 -0.8580
  749MOL0     H 1056  11.065   4.923   6.209 -1.3392  1.7911  0.0336
  749MOL0     H 1057  10.924   4.890   6.128  0.7578  2.7057  0.1587
  749MOL0     H 1058  10.813   4.832   6.342  2.6936 -2.9485 -2.1642
  749MOL0     H 1059  10.955   4.854   6.430  3.2735  2.5479 -0.9199
  749MOL0     H 1060  10.987   5.092   6.393 -1.1976  1.0543  3.3439
  749MOL0     H 1061  10.900   5.104   6.258 -0.3418  0.2659 -0.4221
  749MOL0     H 1062  10.748   5.202   6.409  2.8929  0.1555 -3.5128
  749MOL0     H 1063  10.684   5.037   6.407  1.9147 -2.9599  2.4476
  749MOL0     H 1064  10.888   5.148   6.601 -1.8836  4.4014 -1.8487
  749MOL0     H 1065  10.818   4.977   6.597 -1.2786  0.5897  0.3112
  749MOL0     H 1066  10.799   5.317   6.766 -0.2553  1.6412 -0.8149
  749MOL0     H 1067  10.591   5.450   6.883  3.3087  0.6288  2.8698
  749MOL0     H 1068  10.445   5.347   6.906  0.3958 -0.1645  0.3424
  749MOL0     H 1069  10.719   5.337   7.066 -0.3603 -2.3600  0.6542
  749MOL0     H 1070  10.588   5.232   7.093 -0.9083  0.1054  1.4816
  749MOL0     H 1071  10.438   5.419   7.170 -0.6763 -0.3184 -1.6332
  749MOL0     H 1072  10.570   5.523   7.140  0.0872  0.2993  2.2753
  749MOL0     H 1073  10.582   5.294   7.332  1.7151 -0.0770 -0.6657
  749MOL0     H 1074  10.530   5.460   7.361 -1.5123 -1.9999  0.9050
  749MOL0     H 1075  10.829   5.280   7.496 -0.7164  0.0406  1.4050
  749MOL0     H 1076  10.838   5.265   7.841  1.9639 -4.1461 -0.5289
  749MOL0     H 1077  10.929   5.204   7.704 -2.3953 -0.2024 -1.6704
  749MOL0     H 1078  10.997   5.329   7.790  0.2992  0.9129 -0.7874
  749MOL0     H 1079  10.534   5.618   8.059 -0.1423 -0.2090 -0.3037
  749MOL0     H 1080  10.500   5.674   8.302  0.6570 -2.0995  2.3198
  749MOL0     H 1081  10.671   5.985   8.462 -0.8205  0.3689 -0.8894
  749MOL0     H 1082  10.526   5.895   8.428  0.3213  2.3992 -1.0796
  749MOL0     H 1083  10.668   5.877   8.702 -0.7013  2.2416  1.0241
  749MOL0     H 1084  10.552   6.004   8.650 -2.3437  0.1177 -4.2923
  749MOL0     H 1085  10.480   5.769   8.771  2.5976  0.0206 -0.4921
  749MOL0     H 1086  10.453   5.733   8.602  3.8328  0.2206 -0.4429
  749MOL0     H 1087  10.344   5.960   8.786 -0.8797  0.4386 -0.2382
  749MOL0     H 1088  10.303   5.948   8.615  2.6197  0.3744 -1.0276
  749MOL0     H 1089  10.229   5.703   8.667  1.1569 -0.7613  1.1969
  749MOL0     H 1090  10.122   5.852   8.717  0.8070  1.5241  1.4027
  749MOL0     H 1091  10.306   5.669   8.887  2.3708  2.6486  1.1318
  749MOL0     H 1092  10.224   5.816   8.939 -1.9130 -2.4834  3.0214
  749MOL0     H 1093  10.017   5.685   8.825 -0.5342 -1.7304 -0.6541
  749MOL0     H 1094  10.057   5.667   8.996 -0.0923 -2.8575 -0.1237
  749MOL0     H 1095  10.155   5.472   8.778 -1.6773  0.6112 -2.0284
  749MOL0     H 1096  10.005   5.464   8.875  0.2608  1.9275 -1.5065
  749MOL0     H 1097  10.907   5.820   8.310 -0.5568 -0.3749 -0.8216
  749MOL0     H 1098  10.934   5.792   8.067 -2.3119  0.4230 -3.4633
  749MOL0     H 1099  10.718   5.728   7.656  0.6968 -0.4640  1.6275
  749MOL0     H 1100  10.697   5.663   7.397  0.9087 -2.4479 -1.0316
  749MOL0     H 1101  10.903   4.676   5.759  0.5156 -1.5359  3.2900
  749MOL0     H 1102  10.877   4.604   5.500  2.5365 -0.4006 -0.6089
  749MOL0     H 1103  10.679   4.073   5.299 -1.8373  0.0557 -0.4579
  749MOL0     H 1104  10.649   3.987   5.068 -0.6466  0.8304  0.9267
  749MOL0     H 1105  10.683   4.127   4.667  1.2061 -1.9175 -1.6760
  749MOL0     H 1106  10.807   4.244   4.735  1.1759 -0.5799 -0.8638
  749MOL0     H 1107  10.974   4.085   4.723 -0.9755  1.2745  0.5828
  749MOL0     H 1108  10.911   4.148   4.565 -3.3030  1.4136  0.9364
  749MOL0     H 1109  10.825   3.873   4.670 -1.5085  1.7676 -0.8260
  749MOL0     H 1110  10.971   3.889   4.566 -1.0820 -2.0200 -0.6484
  749MOL0     H 1111  10.837   3.997   4.388  0.2313 -1.2834 -0.8182
  749MOL0     H 1112  10.698   3.970   4.502  0.4447  1.4819  0.9860
  749MOL0     H 1113  10.755   3.581   4.363  1.6706 -0.0584 -0.6565
  749MOL0     H 1114  10.905   4.309   4.917 -0.2530  1.1874 -0.2852
  749MOL0     H 1115  10.933   4.371   5.163 -1.7056  2.2321  1.6431
  750MOL0     O 1116   4.158   4.584   9.378  0.1486 -0.9718 -0.4177
  750MOL0     C 1117   4.189   4.466   9.363  1.6396 -0.0573 -0.8213
  750MOL0     O 1118   4.300   4.411   9.415 -0.3521 -0.2989 -0.0804
  750MOL0     C 1119   4.383   4.492   9.486 -1.4521  0.3395 -0.1159
  750MOL0     C 1120   4.518   4.484   9.460  0.4700  1.2087  0.9297
  750MOL0     C 1121   4.623   4.540   9.523 -0.6823  0.0774  0.3094
  750MOL0     C 1122   4.598   4.622   9.640 -0.6789 -0.0630  0.1945
  750MOL0     O 1123   4.711   4.661   9.701  0.1029  0.2818  0.0986
  750MOL0     C 1124   4.705   4.744   9.815 -0.0232  0.7584  1.1233
  750MOL0     C 1125   4.824   4.705   9.904  0.4633  0.7209  1.2706
  750MOL0     C 1126   4.828   4.790  10.040 -0.9980  0.4437  0.4869
  750MOL0     C 1127   4.979   4.834  10.083 -0.0217 -0.9057  0.7586
  750MOL0     C 1128   5.032   4.974  10.041  0.6543 -0.2408 -0.1431
  750MOL0     C 1129   5.081   4.977   9.900 -0.6647  0.7797 -0.4704
  750MOL0     C 1130   5.126   5.111   9.856  0.1193 -0.2286  0.4517
  750MOL0     C 1131   5.016   5.218   9.824 -0.5936  0.6727 -0.1994
  750MOL0     N 1132   4.996   5.305   9.939  0.0196  0.1714  0.0744
  750MOL0     C 1133   5.026   5.436   9.938 -0.0283 -1.2420 -0.2168
  750MOL0     C 1134   4.990   5.490  10.057 -1.2173  0.5143 -0.2052
  750MOL0     C 1135   5.009   5.626  10.116 -0.5623  0.1210  0.1833
  750MOL0     C 1136   5.089   5.716  10.021 -0.0746 -0.0923  0.5243
  750MOL0     C 1137   5.131   5.846  10.078  0.3921  0.0368  0.7504
  750MOL0     C 1138   5.160   5.948   9.968 -0.9876  0.3891  0.4288
  750MOL0     O 1139   5.260   5.908   9.870  1.1697  0.2648 -0.3417
  750MOL0     C 1140   5.358   5.991   9.830  0.1602  0.4259 -0.0688
  750MOL0     C 1141   5.359   6.134   9.833  0.3856  1.2701  0.2379
  750MOL0     C 1142   5.474   6.211   9.807 -0.1928 -0.2482 -0.9430
  750MOL0     C 1143   5.470   6.366   9.804 -0.5270  0.3649 -0.4536
  750MOL0     C 1144   5.601   6.146   9.784  0.4126  0.7615 -0.5713
  750MOL0     C 1145   5.739   6.218   9.765  0.6012  0.1041 -0.4502
  750MOL0     O 1146   5.828   6.157   9.689  0.4992  0.1503  1.1421
  750MOL0     C 1147   5.957   6.217   9.671 -0.5005 -0.2538  0.1075
  750MOL0     C 1148   6.037   6.161   9.575  0.4912  0.3468 -0.0931
  750MOL0     C 1149   6.165   6.203   9.544  0.1669  0.5687 -0.1610
  750MOL0     C 1150   6.229   6.303   9.613  0.6162 -0.0414  0.7504
  750MOL0     O 1151   6.340   6.377   9.577 -0.0583 -0.7075 -0.2080
  750MOL0     C 1152   6.335   6.444   9.450  0.1290  0.5306  0.4498
  750MOL0     C 1153   6.438   6.551   9.436  0.1384  0.4287  0.0542
  750MOL0     C 1154   6.414   6.660   9.535  0.1341 -0.7364 -0.2710
  750MOL0     C 1155   6.335   6.788   9.488  0.1600  0.5673  0.1231
  750MOL0     C 1156   6.199   6.757   9.428  0.9528  0.5831 -0.4701
  750MOL0     C 1157   6.119   6.884   9.425 -0.6941 -0.7863  0.0828
  750MOL0     C 1158   6.071   6.933   9.568 -0.0639 -0.2622  0.3619
  750MOL0     C 1159   5.983   6.843   9.650 -0.0186  0.3501 -0.1694
  750MOL0    Cl 1160   5.831   6.799   9.555  0.0341  0.0108  0.4828
  750MOL0     C 1161   6.155   6.357   9.725 -0.2380  0.3347  0.6626
  750MOL0     C 1162   6.029   6.305   9.756 -0.0075 -1.5130  0.4783
  750MOL0     O 1163   5.746   6.328   9.828  0.3789  0.5614  0.1466
  750MOL0     C 1164   5.603   6.008   9.770 -0.1062 -0.2337  0.2802
  750MOL0     C 1165   5.482   5.934   9.794 -1.2639 -0.6427  0.1239
  750MOL0     N 1166   4.928   5.388  10.122 -0.4131  0.1352 -0.3213
  750MOL0     N 1167   4.928   5.279  10.050 -0.6048 -0.6627 -0.3135
  750MOL0     C 1168   4.466   4.640   9.666 -0.9667  0.7582 -0.3387
  750MOL0     C 1169   4.357   4.581   9.595 -0.5854  0.3431  0.1846
  750MOL0     C 1170   4.091   4.387   9.287  0.4954 -0.4249  1.0021
  750MOL0     C 1171   3.995   4.453   9.200 -0.3329 -0.7213  0.4762
  750MOL0     C 1172   3.891   4.384   9.138  0.5934 -0.2682  0.7940
  750MOL0     C 1173   3.876   4.248   9.167  0.5209  0.2959 -0.1172
  750MOL0     O 1174   3.796   4.157   9.095  0.1575 -0.0709  0.3351
  750MOL0     C 1175   3.736   4.199   8.974  0.7684 -0.0779 -0.0840
  750MOL0     C 1176   3.836   4.189   8.855 -0.2711  0.1508 -0.1239
  750MOL0     C 1177   3.893   4.043   8.842 -0.9195  0.0395  0.0894
  750MOL0     C 1178   3.803   3.930   8.837 -0.4615  0.0818  0.4135
  750MOL0     C 1179   3.697   3.940   8.738  0.2464  0.4401 -0.3007
  750MOL0     C 1180   3.606   3.919   8.668  0.2756  1.0080  0.8324
  750MOL0     C 1181   3.956   4.186   9.259 -0.2535  0.2620  0.8897
  750MOL0     C 1182   4.058   4.253   9.323 -0.3464  0.2327 -0.9484
  750MOL0     H 1183   4.532   4.421   9.373 -0.4288  0.6488  1.1757
  750MOL0     H 1184   4.726   4.530   9.491 -0.5391  0.8542  0.5016
  750MOL0     H 1185   4.723   4.849   9.792  1.8323 -0.1021 -2.0495
  750MOL0     H 1186   4.614   4.738   9.875 -1.2266 -1.1658 -0.7205
  750MOL0     H 1187   4.834   4.596   9.901 -0.3211  0.5505 -3.4895
  750MOL0     H 1188   4.915   4.737   9.852  0.0908  1.9867  1.3890
  750MOL0     H 1189   4.760   4.874  10.024 -2.9063 -1.0703  0.2396
  750MOL0     H 1190   4.792   4.734  10.127  1.3160 -1.5139  0.2930
  750MOL0     H 1191   4.993   4.825  10.192 -0.1452 -3.7893  0.6224
  750MOL0     H 1192   5.059   4.767  10.049  2.2070  2.4952 -1.2543
  750MOL0     H 1193   4.960   5.055  10.059  1.9772  0.8281  0.5222
  750MOL0     H 1194   5.120   4.994  10.102  1.5218 -2.5771 -0.5404
  750MOL0     H 1195   5.165   4.912   9.874 -0.8890  0.9214 -1.6159
  750MOL0     H 1196   5.003   4.949   9.829  1.6828 -4.5575 -1.4027
  750MOL0     H 1197   5.188   5.163   9.929 -1.2055  1.0071  0.7269
  750MOL0     H 1198   5.186   5.095   9.766 -0.7722  1.0163 -0.4018
  750MOL0     H 1199   4.921   5.178   9.786 -0.4635  0.2054 -0.0434
  750MOL0     H 1200   5.057   5.276   9.741 -0.9212 -1.4354 -1.9373
  750MOL0     H 1201   5.082   5.490   9.862  0.5769 -0.5461  0.7040
  750MOL0     H 1202   4.909   5.667  10.135 -2.9501 -4.2756 -1.2399
  750MOL0     H 1203   5.059   5.614  10.212  1.7739 -0.1522 -0.9995
  750MOL0     H 1204   5.020   5.745   9.941 -0.6878  1.0286  1.4166
  750MOL0     H 1205   5.161   5.662   9.958 -2.7290 -1.9667 -1.1485
  750MOL0     H 1206   5.218   5.841  10.144 -0.3209  0.4281  1.7412
  750MOL0     H 1207   5.046   5.878  10.138 -0.8690  0.3058 -1.1079
  750MOL0     H 1208   5.185   6.042  10.019  2.4047 -0.4728  0.5442
  750MOL0     H 1209   5.063   5.952   9.918 -2.0141 -1.8532  2.0457
  750MOL0     H 1210   5.259   6.174   9.850 -0.4017  0.7345 -2.6018
  750MOL0     H 1211   5.503   6.414   9.712 -4.2009  3.0066 -0.6211
  750MOL0     H 1212   5.368   6.403   9.814 -0.1029  1.1170  1.8396
  750MOL0     H 1213   5.515   6.403   9.897 -2.5046 -1.3055  1.2563
  750MOL0     H 1214   5.987   6.094   9.505  2.4716 -1.8121  0.4488
  750MOL0     H 1215   6.216   6.159   9.459  4.1922 -0.6284  2.5709
  750MOL0     H 1216   6.353   6.370   9.371 -0.2748 -2.2546  2.7959
  750MOL0     H 1217   6.237   6.485   9.425 -0.0412 -1.1157 -1.9745
  750MOL0     H 1218   6.540   6.519   9.459 -0.3936 -0.5103  1.2249
  750MOL0     H 1219   6.418   6.582   9.333 -1.2233 -2.6528 -0.7304
  750MOL0     H 1220   6.508   6.702   9.571 -0.5315 -1.6789  2.8790
  750MOL0     H 1221   6.364   6.623   9.625  1.1139  3.0422  2.0668
  750MOL0     H 1222   6.324   6.872   9.557 -2.0841  0.1246  0.3910
  750MOL0     H 1223   6.390   6.823   9.400 -1.3014 -3.2495 -2.5539
  750MOL0     H 1224   6.146   6.676   9.480 -3.4633  0.6826 -4.1120
  750MOL0     H 1225   6.213   6.717   9.327 -3.8945  0.4158 -1.3423
  750MOL0     H 1226   6.178   6.969   9.389  0.1401 -0.2862  2.4515
  750MOL0     H 1227   6.031   6.869   9.362 -2.3391  0.1812  2.0256
  750MOL0     H 1228   6.020   7.029   9.556 -0.0955  0.2843  3.8292
  750MOL0     H 1229   6.161   6.962   9.622  0.1798  0.1494 -0.2510
  750MOL0     H 1230   5.948   6.888   9.744 -0.3294  3.7377 -1.7283
  750MOL0     H 1231   6.020   6.746   9.684 -1.6464 -0.0192  0.6557
  750MOL0     H 1232   6.192   6.441   9.782  0.5818 -0.2755  1.0419
  750MOL0     H 1233   5.970   6.348   9.836  0.5544 -1.0583  0.6572
  750MOL0     H 1234   5.698   5.959   9.754 -0.3590 -0.5140 -0.4529
  750MOL0     H 1235   5.475   5.825   9.802  0.2731 -0.7984 -0.3524
  750MOL0     H 1236   4.435   4.684   9.760 -1.9704 -0.8228  0.1159
  750MOL0     H 1237   4.252   4.588   9.621 -0.7814 -1.1727 -0.1013
  750MOL0     H 1238   4.017   4.555   9.170  1.5532  0.3252  4.6894
  750MOL0     H 1239   3.840   4.448   9.067 -1.8325 -1.8794  0.9568
  750MOL0     H 1240   3.647   4.136   8.960  1.3365 -0.6451 -1.3376
  750MOL0     H 1241   3.695   4.300   8.975 -2.3886 -1.2250 -0.0588
  750MOL0     H 1242   3.912   4.267   8.868  2.1788 -1.8017 -1.6975
  750MOL0     H 1243   3.794   4.225   8.761 -0.3499 -2.7028 -1.2767
  750MOL0     H 1244   3.968   4.034   8.922  1.0506  1.9436 -1.4166
  750MOL0     H 1245   3.936   4.046   8.742 -4.0648 -5.5362 -1.8572
  750MOL0     H 1246   3.756   3.926   8.936 -0.1983 -0.2032  0.5301
  750MOL0     H 1247   3.862   3.838   8.825 -0.9327 -0.3741  1.4247
  750MOL0     H 1248   3.530   3.886   8.600  0.8322 -4.3142  2.3192
  750MOL0     H 1249   3.947   4.080   9.279 -0.1898 -0.1503 -1.0248
  750MOL0     H 1250   4.130   4.205   9.390  0.9022  1.0091 -1.6809
  751MOL0     O 1251   8.722   4.653   5.731 -0.3574 -0.6799  0.5819
  751MOL0     C 1252   8.793   4.598   5.643  0.1241 -0.0108  0.1360
  751MOL0     O 1253   8.868   4.489   5.653  0.0415 -0.1480  0.1878
  751MOL0     C 1254   8.855   4.411   5.766 -0.2370 -0.2837 -0.0200
  751MOL0     C 1255   8.960   4.401   5.853  0.1916  0.3805 -0.2512
  751MOL0     C 1256   8.954   4.320   5.971 -0.2367  0.3520 -0.2013
  751MOL0     C 1257   8.832   4.258   6.003 -0.8933  0.0132  0.4416
  751MOL0     O 1258   8.828   4.187   6.119  0.5824 -0.0721  0.4510
  751MOL0     C 1259   8.718   4.198   6.213 -0.4250  0.1915 -0.1871
  751MOL0     C 1260   8.731   4.327   6.294 -1.1601  0.2315  0.4796
  751MOL0     C 1261   8.627   4.350   6.402 -0.1462  0.3394 -0.2726
  751MOL0     C 1262   8.620   4.479   6.476 -1.9895 -0.6781 -0.7471
  751MOL0     C 1263   8.535   4.470   6.597 -0.1704 -0.1644 -0.4212
  751MOL0     C 1264   8.511   4.617   6.653 -0.4579 -0.0125  0.3058
  751MOL0     C 1265   8.640   4.694   6.692 -0.5171 -0.5010 -0.1903
  751MOL0     C 1266   8.607   4.812   6.781 -0.9030 -1.0253 -0.2659
  751MOL0     N 1267   8.743   4.875   6.812  0.2272 -0.2867 -0.6246
  751MOL0     C 1268   8.842   4.807   6.879  0.0929 -0.6875 -0.3796
  751MOL0     C 1269   8.950   4.887   6.867 -0.2849 -0.6851 -0.3747
  751MOL0     C 1270   9.090   4.856   6.923  0.3415 -0.3750  0.0517
  751MOL0     C 1271   9.093   4.925   7.066 -0.1842 -0.3127 -0.4801
  751MOL0     C 1272   9.224   4.952   7.115 -1.0805  0.3495 -0.6573
  751MOL0     C 1273   9.225   4.933   7.265 -0.1166  0.6540 -0.5271
  751MOL0     O 1274   9.182   4.802   7.312 -0.3802  1.1351  0.0655
  751MOL0     C 1275   9.271   4.692   7.334  0.3242 -0.4294  1.6621
  751MOL0     C 1276   9.228   4.583   7.405  0.0601 -0.1970 -0.9168
  751MOL0     C 1277   9.308   4.477   7.450 -0.1175  0.7266  0.2926
  751MOL0     C 1278   9.247   4.378   7.544 -0.4439  0.0813  0.3350
  751MOL0     C 1279   9.439   4.474   7.393 -0.1426  0.7220  0.2706
  751MOL0     C 1280   9.525   4.359   7.419 -0.6088  0.0757  0.6233
  751MOL0     O 1281   9.515   4.284   7.525  0.0677  0.5290 -0.2055
  751MOL0     C 1282   9.590   4.175   7.551 -0.3868  0.3913  1.5657
  751MOL0     C 1283   9.646   4.169   7.675  0.0587  0.0674 -0.2773
  751MOL0     C 1284   9.680   4.044   7.730 -0.1683  0.0893 -0.1921
  751MOL0     C 1285   9.678   3.922   7.665  0.3187 -1.3453 -0.3984
  751MOL0     O 1286   9.745   3.813   7.713 -0.0317 -0.2760 -0.1430
  751MOL0     C 1287   9.725   3.690   7.648  0.2956 -0.0228 -0.6745
  751MOL0     C 1288   9.758   3.583   7.757  0.3063 -0.8758 -0.3156
  751MOL0     C 1289   9.649   3.588   7.870  0.7449 -0.7591  0.2443
  751MOL0     C 1290   9.690   3.487   7.983 -0.2287  0.7806  0.8831
  751MOL0     C 1291   9.717   3.343   7.937 -1.3412  0.9213  0.1639
  751MOL0     C 1292   9.683   3.246   8.041  0.5347 -0.0344 -0.6346
  751MOL0     C 1293   9.728   3.104   8.009  0.4563  0.5625 -0.1487
  751MOL0     C 1294   9.605   3.004   8.038 -0.9423  0.1137 -0.7109
  751MOL0    Cl 1295   9.666   2.841   7.983 -0.1228 -0.0757 -0.0386
  751MOL0     C 1296   9.629   3.936   7.532 -0.9272 -0.4283  0.3292
  751MOL0     C 1297   9.586   4.057   7.480 -0.9784  1.0647  0.2370
  751MOL0     O 1298   9.596   4.327   7.319 -0.1502  0.0032 -0.3931
  751MOL0     C 1299   9.482   4.586   7.314 -0.2225  0.0561 -0.7165
  751MOL0     C 1300   9.399   4.694   7.283 -0.1769  0.1096 -0.6292
  751MOL0     N 1301   8.924   4.990   6.783  0.4481  0.1564  0.8309
  751MOL0     N 1302   8.803   4.981   6.745  0.6611  0.1118  0.3565
  751MOL0     C 1303   8.726   4.267   5.906  0.0901 -1.0931 -0.8406
  751MOL0     C 1304   8.744   4.336   5.791 -0.2205  0.3696  0.3241
  751MOL0     C 1305   8.790   4.668   5.508 -1.0196  0.5613  0.0234
  751MOL0     C 1306   8.666   4.712   5.448  0.0020  0.2926 -0.0808
  751MOL0     C 1307   8.667   4.777   5.334 -0.0166  0.4780 -1.0825
  751MOL0     C 1308   8.789   4.800   5.270 -0.0169  0.8810  0.2213
  751MOL0     O 1309   8.786   4.878   5.159  0.2480 -0.2907 -0.0061
  751MOL0     C 1310   8.767   4.811   5.037  0.3322  0.2871  0.4532
  751MOL0     C 1311   8.814   4.899   4.927  0.1246  0.2674 -0.9446
  751MOL0     C 1312   8.777   4.847   4.787  1.4646  0.0499 -0.5377
  751MOL0     C 1313   8.632   4.799   4.740 -0.1304 -0.2893  0.4709
  751MOL0     C 1314   8.543   4.919   4.738  0.1079 -0.9685  0.8680
  751MOL0     C 1315   8.462   5.008   4.743 -0.3541  0.5003  0.6418
  751MOL0     C 1316   8.906   4.757   5.319 -0.3812 -0.4184 -0.2339
  751MOL0     C 1317   8.914   4.684   5.437  0.0596  0.6106  0.0486
  751MOL0     H 1318   9.054   4.452   5.836  1.1760 -0.9763  0.8285
  751MOL0     H 1319   9.041   4.308   6.034 -0.2657  1.3951  0.0527
  751MOL0     H 1320   8.625   4.186   6.157  0.5780 -1.8724 -1.5382
  751MOL0     H 1321   8.703   4.118   6.286 -0.3526 -1.9824 -2.4347
  751MOL0     H 1322   8.835   4.331   6.327 -1.1038  0.2350  0.3065
  751MOL0     H 1323   8.726   4.414   6.228  0.0920  0.7750  1.0511
  751MOL0     H 1324   8.526   4.340   6.361 -0.0190 -1.9481 -0.1235
  751MOL0     H 1325   8.645   4.270   6.473  0.0342  1.3290  0.8266
  751MOL0     H 1326   8.723   4.505   6.505 -0.6259 -2.7106 -3.2904
  751MOL0     H 1327   8.583   4.561   6.414 -0.4728 -1.4172 -2.7721
  751MOL0     H 1328   8.436   4.426   6.579 -0.7089  0.3945  1.0259
  751MOL0     H 1329   8.571   4.417   6.686  0.0852  2.9552  1.4825
  751MOL0     H 1330   8.454   4.681   6.585 -2.0238  1.0432  2.4555
  751MOL0     H 1331   8.448   4.600   6.741 -3.5911 -2.7091 -2.1953
  751MOL0     H 1332   8.701   4.621   6.746  0.5439 -0.6712 -1.5572
  751MOL0     H 1333   8.709   4.726   6.614  1.4465 -2.8283  0.4589
  751MOL0     H 1334   8.555   4.791   6.875 -2.1468  0.5815 -0.5610
  751MOL0     H 1335   8.555   4.892   6.728  3.4079  3.1045  1.0870
  751MOL0     H 1336   8.825   4.720   6.942 -3.2356  0.6757  0.8608
  751MOL0     H 1337   9.096   4.746   6.925  1.2553 -0.3627 -0.9015
  751MOL0     H 1338   9.166   4.889   6.851 -2.9471  0.4049 -3.3535
  751MOL0     H 1339   9.032   4.860   7.130 -1.1843  0.2734 -0.8018
  751MOL0     H 1340   9.043   5.022   7.054 -2.6431 -1.4651 -0.1355
  751MOL0     H 1341   9.243   5.051   7.073 -2.0810  0.0451 -1.8728
  751MOL0     H 1342   9.290   4.882   7.063 -3.6162 -0.3737 -3.1520
  751MOL0     H 1343   9.169   5.010   7.318 -1.6753 -1.7830  1.6012
  751MOL0     H 1344   9.326   4.962   7.295 -1.5458  6.1131  0.1170
  751MOL0     H 1345   9.122   4.579   7.428  0.3157  1.1922  0.7484
  751MOL0     H 1346   9.306   4.365   7.635 -1.4832  0.2599  1.0554
  751MOL0     H 1347   9.145   4.397   7.580  0.4969 -1.4787  4.3215
  751MOL0     H 1348   9.240   4.290   7.479 -2.7917  0.4071  0.0533
  751MOL0     H 1349   9.652   4.257   7.739  1.3852 -0.1685 -0.0384
  751MOL0     H 1350   9.714   4.040   7.833  1.7854 -0.0081 -0.8036
  751MOL0     H 1351   9.622   3.669   7.618 -0.2418 -1.4098  1.8633
  751MOL0     H 1352   9.786   3.684   7.558 -0.6103 -1.5028 -1.2281
  751MOL0     H 1353   9.755   3.485   7.709 -0.1718 -0.5737 -0.9158
  751MOL0     H 1354   9.859   3.595   7.799  0.4299 -2.7393  0.0316
  751MOL0     H 1355   9.550   3.550   7.842 -1.2047  1.1616  3.8780
  751MOL0     H 1356   9.640   3.691   7.904 -3.2032 -0.8848 -0.0302
  751MOL0     H 1357   9.771   3.535   8.038 -1.9573  0.6660  3.7192
  751MOL0     H 1358   9.603   3.488   8.050 -1.5898 -0.1374 -0.7970
  751MOL0     H 1359   9.820   3.328   7.904 -1.9073  0.0017 -1.2771
  751MOL0     H 1360   9.652   3.322   7.852 -1.5296  1.2737  0.2157
  751MOL0     H 1361   9.724   3.265   8.141 -0.4206 -3.1414  0.4832
  751MOL0     H 1362   9.576   3.254   8.059  0.7988 -0.1273  1.2091
  751MOL0     H 1363   9.824   3.080   8.055 -0.3787  0.6860  1.7418
  751MOL0     H 1364   9.737   3.098   7.900  1.3725 -1.0521 -0.0201
  751MOL0     H 1365   9.527   3.042   7.971  0.3312  1.2423 -1.6083
  751MOL0     H 1366   9.576   3.006   8.143  0.8973  1.0802 -0.1777
  751MOL0     H 1367   9.615   3.853   7.463 -0.6704  0.6789 -1.1215
  751MOL0     H 1368   9.551   4.051   7.378  1.9324 -0.6247 -0.7863
  751MOL0     H 1369   9.580   4.599   7.269  2.4590  0.8356  4.5485
  751MOL0     H 1370   9.432   4.780   7.227 -0.3643 -0.1185 -1.0983
  751MOL0     H 1371   8.629   4.224   5.931 -0.6455  0.1027 -1.5257
  751MOL0     H 1372   8.659   4.350   5.726 -0.6822 -4.4087 -0.4595
  751MOL0     H 1373   8.584   4.683   5.514  1.4682  0.0591  1.7193
  751MOL0     H 1374   8.572   4.813   5.298 -0.0944 -0.6582 -2.0777
  751MOL0     H 1375   8.797   4.708   5.020  0.4357  0.5508 -1.1444
  751MOL0     H 1376   8.657   4.803   5.035  0.2195  1.6109 -0.9011
  751MOL0     H 1377   8.920   4.914   4.948  0.0774 -1.5299  0.8994
  751MOL0     H 1378   8.784   5.003   4.944  3.2226  0.9899  0.8795
  751MOL0     H 1379   8.851   4.771   4.762  0.6163 -0.0842 -2.8078
  751MOL0     H 1380   8.809   4.927   4.720 -2.9597  1.5572 -1.1557
  751MOL0     H 1381   8.603   4.717   4.807  0.8939 -2.6536 -1.7811
  751MOL0     H 1382   8.623   4.754   4.641  0.4753  0.2319  0.1780
  751MOL0     H 1383   8.395   5.090   4.762 -0.1112  0.2271  3.0219
  751MOL0     H 1384   8.996   4.779   5.263  1.2432 -1.3061  1.8548
  751MOL0     H 1385   9.007   4.658   5.486 -1.0687  0.6114  2.3797
  752MOL0     O 1386   6.503   0.323   9.981  0.3098  0.0717 -0.7263
  752MOL0     C 1387   6.412   0.310   9.901 -0.2404 -0.2400 -0.3200
  752MOL0     O 1388   6.425   0.293   9.762  0.0223  0.7783  0.3145
  752MOL0     C 1389   6.544   0.274   9.709 -0.8044 -0.1284  0.2435
  752MOL0     C 1390   6.591   0.144   9.695 -0.0983  0.7012 -0.3472
  752MOL0     C 1391   6.711   0.119   9.623  0.4820  0.9467 -0.1441
  752MOL0     C 1392   6.790   0.228   9.586 -0.7002 -1.3988  0.0229
  752MOL0     O 1393   6.908   0.222   9.522 -0.5725  0.1609 -0.4181
  752MOL0     C 1394   7.004   0.128   9.574 -0.0549 -0.7349 -0.6588
  752MOL0     C 1395   7.149   0.177   9.526 -0.0868  0.2647 -0.3526
  752MOL0     C 1396   7.255   0.103   9.604 -0.2946 -0.0229  0.3083
  752MOL0     C 1397   7.279   0.159   9.746  0.2847  0.9233 -0.5342
  752MOL0     C 1398   7.410   0.106   9.816  0.4213 -0.7600 -0.1677
  752MOL0     C 1399   7.467   0.200   9.917  0.5750  0.4809 -0.5974
  752MOL0     C 1400   7.601   0.163   9.974  0.7386 -0.1517 -0.6460
  752MOL0     C 1401   7.574   0.061  10.087  0.7053 -0.5544  0.4089
  752MOL0     N 1402   7.695   0.027  10.164  0.2536 -0.7973 -0.3121
  752MOL0     C 1403   7.768   0.121  10.233 -0.0338  0.3627  0.7651
  752MOL0     C 1404   7.877   0.057  10.262  0.4970  0.1776  0.5130
  752MOL0     C 1405   7.990   0.117  10.332 -0.2457  0.0275 -0.0830
  752MOL0     C 1406   8.041   0.036  10.454  0.7038 -0.0709 -0.0554
  752MOL0     C 1407   7.939  -0.001  10.571  0.7560 -0.7373  0.0174
  752MOL0     C 1408   7.863   0.122  10.640  0.4750 -0.6373 -0.5746
  752MOL0     O 1409   7.823   0.217  10.542  1.0349 -0.0385  0.8490
  752MOL0     C 1410   7.772   0.333  10.588 -0.2758 -0.1229 -0.0982
  752MOL0     C 1411   7.683   0.346  10.698 -0.2099 -0.2918 -0.7115
  752MOL0     C 1412   7.626   0.466  10.734  0.2285  0.1376 -0.5152
  752MOL0     C 1413   7.520   0.454  10.842  0.0081  0.8209  0.7785
  752MOL0     C 1414   7.663   0.581  10.658 -0.3565 -1.1388  0.1765
  752MOL0     C 1415   7.607   0.717  10.670  0.0738  0.3553  0.1549
  752MOL0     O 1416   7.561   0.753  10.788 -0.0732  0.0166  0.5280
  752MOL0     C 1417   7.523   0.879  10.784  1.1924 -0.4967 -0.1883
  752MOL0     C 1418   7.608   0.971  10.851  0.8691  0.1918  0.2180
  752MOL0     C 1419   7.571   1.112  10.852 -0.3787 -0.9061 -0.0796
  752MOL0     C 1420   7.457   1.157  10.785  0.2572 -0.7646 -0.4492
  752MOL0     O 1421   7.422   1.291  10.778  0.0920  0.2194  0.1941
  752MOL0     C 1422   7.516   1.400  10.801  0.1701 -0.1445 -0.2758
  752MOL0     C 1423   7.462   1.523  10.728  0.8332  0.8018  0.3788
  752MOL0     C 1424   7.549   1.641  10.756  0.3802 -0.7906  0.0169
  752MOL0     C 1425   7.469   1.786  10.754  0.1286  1.1466  0.1003
  752MOL0     C 1426   7.463   1.850  10.616 -0.8582 -0.2087 -0.4822
  752MOL0     C 1427   7.595   1.908  10.573  0.7005  0.2608 -0.3456
  752MOL0     C 1428   7.560   2.006  10.466  0.0461 -0.0728  0.7525
  752MOL0     C 1429   7.677   2.038  10.377 -0.2942  0.0425  0.3890
  752MOL0    Cl 1430   7.632   2.161  10.257  0.3917 -0.1585 -0.0606
  752MOL0     C 1431   7.368   1.067  10.728  0.0667  0.5737  0.5905
  752MOL0     C 1432   7.405   0.931  10.734 -0.5713  0.5956  0.6043
  752MOL0     O 1433   7.615   0.794  10.565 -1.2950  0.7764 -1.2130
  752MOL0     C 1434   7.746   0.557  10.556 -0.1277 -0.0414  0.4268
  752MOL0     C 1435   7.802   0.441  10.512  0.0931  0.6219 -0.4829
  752MOL0     N 1436   7.867  -0.086  10.236 -0.1104 -0.4600 -0.2449
  752MOL0     N 1437   7.753  -0.097  10.176 -0.5684 -0.1484 -0.0887
  752MOL0     C 1438   6.744   0.362   9.609  0.0911 -0.9144  0.7141
  752MOL0     C 1439   6.613   0.383   9.668 -0.9973  0.0914  0.5849
  752MOL0     C 1440   6.272   0.295   9.951 -1.0449 -0.0977  1.4418
  752MOL0     C 1441   6.248   0.298  10.088  0.5459  0.8924 -0.0484
  752MOL0     C 1442   6.122   0.278  10.128  1.1384 -0.1155  0.0233
  752MOL0     C 1443   6.014   0.252  10.035 -0.1071 -0.2884  0.2446
  752MOL0     O 1444   5.882   0.231  10.081 -0.2182  0.1574 -0.8724
  752MOL0     C 1445   5.814   0.342  10.123  0.2435 -0.4007  0.2810
  752MOL0     C 1446   5.694   0.326  10.205  0.1152  0.1834  0.0090
  752MOL0     C 1447   5.717   0.237  10.319  0.0962  0.3127 -0.3585
  752MOL0     C 1448   5.749   0.317  10.444  0.1717  0.0330  0.2343
  752MOL0     C 1449   5.866   0.259  10.518 -0.1372  0.1662  0.0200
  752MOL0     C 1450   5.952   0.206  10.579  0.0026  0.6958  0.2877
  752MOL0     C 1451   6.047   0.254   9.906  0.7331  0.2242 -0.1148
  752MOL0     C 1452   6.171   0.274   9.856  0.2296 -1.1323 -0.5243
  752MOL0     H 1453   6.541   0.062   9.745  0.6459  0.0736 -0.6007
  752MOL0     H 1454   6.742   0.017   9.604 -0.2192  0.7927 -0.4983
  752MOL0     H 1455   7.005   0.124   9.683  3.4784 -0.7387 -0.5645
  752MOL0     H 1456   6.972   0.028   9.543 -0.9921 -0.5468 -0.3358
  752MOL0     H 1457   7.168   0.164   9.419 -0.4275 -0.0194 -0.3798
  752MOL0     H 1458   7.157   0.286   9.534 -2.0354  0.4648 -0.5895
  752MOL0     H 1459   7.241  -0.005   9.609 -2.3863  0.2275  0.7154
  752MOL0     H 1460   7.355   0.112   9.561 -1.1829  2.7393 -1.4491
  752MOL0     H 1461   7.286   0.268   9.745  2.9502  0.8190 -0.1832
  752MOL0     H 1462   7.184   0.137   9.796  0.0276 -0.8905 -1.7148
  752MOL0     H 1463   7.395   0.003   9.848 -2.0110 -0.7414 -1.0645
  752MOL0     H 1464   7.488   0.095   9.740 -0.2799  1.9422 -1.4062
  752MOL0     H 1465   7.476   0.301   9.875  0.7658  0.0297 -1.6670
  752MOL0     H 1466   7.392   0.214   9.996 -0.1609  1.9384 -1.5054
  752MOL0     H 1467   7.658   0.118   9.893  0.0804 -2.4096  0.0821
  752MOL0     H 1468   7.649   0.254  10.012 -1.3033 -0.5878  3.6784
  752MOL0     H 1469   7.522  -0.029  10.051  0.5400 -1.1049  1.9519
  752MOL0     H 1470   7.500   0.113  10.148 -2.6866 -0.4301 -3.3394
  752MOL0     H 1471   7.755   0.228  10.242 -0.6901  0.5001 -1.2614
  752MOL0     H 1472   8.073   0.116  10.261 -0.9039  0.7246 -0.8712
  752MOL0     H 1473   7.975   0.225  10.345  3.7869  1.1197 -2.5611
  752MOL0     H 1474   8.115   0.106  10.494  1.8348  0.5740 -2.9780
  752MOL0     H 1475   8.091  -0.057  10.428  2.2023 -0.2569  3.0587
  752MOL0     H 1476   7.992  -0.049  10.654 -1.2191  0.8914  2.3581
  752MOL0     H 1477   7.861  -0.061  10.523  1.8836 -1.4003 -1.0450
  752MOL0     H 1478   7.935   0.164  10.711 -2.1422 -0.0441  1.8848
  752MOL0     H 1479   7.774   0.085  10.691 -1.2493  1.2038 -2.0939
  752MOL0     H 1480   7.658   0.262  10.761  0.9445  0.7771  1.2675
  752MOL0     H 1481   7.421   0.479  10.803  0.3828  1.7060  0.3762
  752MOL0     H 1482   7.514   0.354  10.886 -0.4002 -0.2923 -1.6556
  752MOL0     H 1483   7.538   0.529  10.920  2.0664  3.3840 -1.9353
  752MOL0     H 1484   7.703   0.942  10.895 -0.2344 -4.6877 -0.0518
  752MOL0     H 1485   7.644   1.180  10.896 -0.7766 -1.0540  0.8147
  752MOL0     H 1486   7.527   1.414  10.909 -2.5769  1.1381 -0.0705
  752MOL0     H 1487   7.609   1.360  10.759 -0.4259 -1.0184 -0.7882
  752MOL0     H 1488   7.458   1.512  10.620  0.9019  2.0364  0.2407
  752MOL0     H 1489   7.361   1.548  10.762  0.3613  0.1040 -0.4774
  752MOL0     H 1490   7.635   1.643  10.688  1.9889 -2.3796  1.8566
  752MOL0     H 1491   7.597   1.636  10.854  4.0388  2.0123 -1.3777
  752MOL0     H 1492   7.361   1.779  10.770 -0.0964  3.1339 -0.2626
  752MOL0     H 1493   7.514   1.850  10.832 -2.7378 -0.2302  3.1280
  752MOL0     H 1494   7.379   1.920  10.622 -1.5882 -0.7762 -2.8176
  752MOL0     H 1495   7.431   1.775  10.543  0.0290 -0.6864 -0.3954
  752MOL0     H 1496   7.651   1.968  10.647  2.4842  1.0195 -2.2135
  752MOL0     H 1497   7.669   1.832  10.549  3.8703  2.2165  2.2880
  752MOL0     H 1498   7.508   2.090  10.512 -0.2857 -1.4441  3.0836
  752MOL0     H 1499   7.499   1.945  10.399  3.7801 -3.9326  0.4238
  752MOL0     H 1500   7.699   1.947  10.321  3.3194  1.6968 -1.1899
  752MOL0     H 1501   7.771   2.060  10.429 -0.6211 -0.2299  1.1075
  752MOL0     H 1502   7.273   1.094  10.684 -2.1771 -3.3114  2.5085
  752MOL0     H 1503   7.343   0.866  10.674 -1.1526  1.7705 -0.1218
  752MOL0     H 1504   7.790   0.637  10.497 -0.8518  0.8352  1.0612
  752MOL0     H 1505   7.858   0.432  10.420  0.1784  0.5957 -0.4282
  752MOL0     H 1506   6.809   0.447   9.590  1.4247 -2.0627 -0.0650
  752MOL0     H 1507   6.583   0.484   9.694  0.1929  1.1557 -1.8501
  752MOL0     H 1508   6.326   0.308  10.163 -0.7963 -0.5632  1.6284
  752MOL0     H 1509   6.086   0.290  10.229 -0.7257  2.3772 -0.8386
  752MOL0     H 1510   5.878   0.408  10.182  1.5469 -0.3869 -1.0913
  752MOL0     H 1511   5.784   0.402  10.036  2.3399 -0.4465 -0.5286
  752MOL0     H 1512   5.629   0.275  10.133  2.0399 -1.8108 -0.4197
  752MOL0     H 1513   5.638   0.416  10.233  2.2186  0.9302  2.0975
  752MOL0     H 1514   5.803   0.170  10.307 -0.0856  0.1665 -0.8842
  752MOL0     H 1515   5.639   0.163  10.340  1.9431 -0.6152  4.4408
  752MOL0     H 1516   5.670   0.305  10.519 -0.1718 -0.7974 -0.2462
  752MOL0     H 1517   5.766   0.424  10.430  2.4024 -0.4820 -1.6392
  752MOL0     H 1518   6.018   0.152  10.645  0.2019  0.7205  0.1127
  752MOL0     H 1519   5.961   0.234   9.843 -0.3396 -2.4295  1.9982
  752MOL0     H 1520   6.195   0.262   9.751 -2.2477  0.0575 -1.2929
  753MOL0     O 1521   9.328   1.161   8.548 -0.1265 -0.1753 -0.3855
  753MOL0     C 1522   9.262   1.057   8.518 -0.4696  0.2209  0.1694
  753MOL0     O 1523   9.314   0.958   8.436 -0.1058  0.3340 -1.1062
  753MOL0     C 1524   9.440   0.959   8.388  0.6883  0.6934  0.3467
  753MOL0     C 1525   9.486   1.057   8.304 -0.7201 -0.8415  0.1392
  753MOL0     C 1526   9.606   1.037   8.239 -0.2652 -0.8844  0.6703
  753MOL0     C 1527   9.685   0.921   8.250  0.9173  0.1911 -0.3669
  753MOL0     O 1528   9.799   0.901   8.179 -0.0067  0.1334 -1.0082
  753MOL0     C 1529   9.791   0.800   8.078 -0.0921  0.3281 -0.7491
  753MOL0     C 1530   9.899   0.823   7.974 -0.0166  0.4778 -0.5258
  753MOL0     C 1531   9.868   0.849   7.827  0.2225  0.6298 -0.4897
  753MOL0     C 1532   9.926   0.739   7.739 -0.1177 -0.1743 -0.2164
  753MOL0     C 1533   9.867   0.747   7.599 -0.2111 -0.5856  0.3341
  753MOL0     C 1534   9.828   0.889   7.540 -1.0277 -0.3277 -0.9356
  753MOL0     C 1535   9.806   0.887   7.391 -0.5131 -0.5551  0.7456
  753MOL0     C 1536   9.728   0.758   7.346  0.1770  0.4722  0.2484
  753MOL0     N 1537   9.694   0.772   7.203 -0.0268  0.8282  0.0466
  753MOL0     C 1538   9.610   0.861   7.151  0.2279 -0.3563 -0.0620
  753MOL0     C 1539   9.602   0.837   7.022  1.2670  0.4796 -0.0949
  753MOL0     C 1540   9.518   0.919   6.931 -0.5432 -0.0350  0.1157
  753MOL0     C 1541   9.542   1.066   6.949 -0.1645  0.3698  0.5599
  753MOL0     C 1542   9.673   1.119   6.896 -0.0419  0.1539  0.1899
  753MOL0     C 1543   9.683   1.115   6.735 -1.1650 -0.6867  0.7717
  753MOL0     O 1544   9.807   1.154   6.687 -0.1486 -0.1094 -0.3406
  753MOL0     C 1545   9.850   1.146   6.555 -0.2748 -0.5937 -0.8697
  753MOL0     C 1546   9.793   1.068   6.456 -0.9056 -0.1492  0.1653
  753MOL0     C 1547   9.850   1.051   6.324  0.5077 -0.0014  0.0906
  753MOL0     C 1548   9.775   0.965   6.221  0.3274 -0.5157  0.8106
  753MOL0     C 1549   9.959   1.134   6.289 -0.2458 -0.6142  0.6381
  753MOL0     C 1550  10.036   1.119   6.171 -1.2257  0.0714  0.4609
  753MOL0     O 1551  10.170   1.142   6.194  0.7791 -0.0811 -0.4390
  753MOL0     C 1552  10.260   1.117   6.098  0.6202 -0.0366 -0.2786
  753MOL0     C 1553  10.330   1.232   6.063  0.1994 -0.6017 -0.1407
  753MOL0     C 1554  10.432   1.237   5.964  0.0786  1.0989 -0.6598
  753MOL0     C 1555  10.441   1.114   5.895  0.2098  0.4304 -0.6907
  753MOL0     O 1556  10.522   1.126   5.785 -0.7853  0.0789 -0.3562
  753MOL0     C 1557  10.574   1.017   5.706 -0.0673 -0.1288 -0.4929
  753MOL0     C 1558  10.664   1.081   5.593  0.1935 -0.2039  0.5586
  753MOL0     C 1559  10.800   1.113   5.656  0.9039  0.5949  0.4664
  753MOL0     C 1560  10.883   1.188   5.558 -0.6940  0.0197 -0.2243
  753MOL0     C 1561  11.012   1.240   5.621  0.2244 -0.2435 -0.3262
  753MOL0     C 1562  11.075   1.343   5.530 -0.9779  0.2867  1.0862
  753MOL0     C 1563  11.215   1.373   5.559 -0.7054  0.3459  0.0649
  753MOL0     C 1564  11.274   1.481   5.466 -0.6713 -0.1746 -0.3093
  753MOL0    Cl 1565  11.271   1.429   5.296 -0.5214  0.4724 -0.3232
  753MOL0     C 1566  10.360   0.997   5.927  0.1382 -0.1617  0.3040
  753MOL0     C 1567  10.272   0.997   6.030  0.7422 -0.7301  0.5763
  753MOL0     O 1568   9.987   1.096   6.061  0.2221  0.4060  0.6806
  753MOL0     C 1569   9.999   1.223   6.389 -0.3430 -0.1161  1.1288
  753MOL0     C 1570   9.948   1.226   6.513 -0.2067  0.1865 -0.2686
  753MOL0     N 1571   9.686   0.733   6.979  0.3400  0.5299  0.5089
  753MOL0     N 1572   9.735   0.696   7.094  0.1961 -0.1997 -0.2410
  753MOL0     C 1573   9.642   0.821   8.332 -0.1708 -0.0971 -0.4334
  753MOL0     C 1574   9.518   0.840   8.395  0.2026 -0.4046 -0.5789
  753MOL0     C 1575   9.136   1.040   8.586 -0.2880 -0.1048 -0.5417
  753MOL0     C 1576   9.077   1.140   8.660  1.1447 -0.6492 -0.7577
  753MOL0     C 1577   8.945   1.135   8.701 -0.3789 -0.7271 -0.0305
  753MOL0     C 1578   8.877   1.017   8.694 -0.3286 -0.5270  0.2807
  753MOL0     O 1579   8.756   0.993   8.749 -0.5712  0.0590  0.9053
  753MOL0     C 1580   8.680   1.094   8.798  0.5058 -0.2374 -0.9391
  753MOL0     C 1581   8.681   1.105   8.947 -0.2079 -0.2535 -0.4094
  753MOL0     C 1582   8.582   1.210   9.010  0.2221  0.6051 -0.7780
  753MOL0     C 1583   8.644   1.281   9.125 -0.4618  0.6882 -0.8388
  753MOL0     C 1584   8.694   1.183   9.226  0.0461 -0.4839 -0.6528
  753MOL0     C 1585   8.736   1.121   9.318 -0.7464  0.5301 -0.2475
  753MOL0     C 1586   8.929   0.909   8.635  0.2228  0.1847 -0.1185
  753MOL0     C 1587   9.057   0.920   8.573 -0.3766 -0.1141 -0.6789
  753MOL0     H 1588   9.430   1.149   8.292 -0.1456 -0.6010 -0.8342
  753MOL0     H 1589   9.623   1.116   8.166 -2.0824 -1.1229 -0.0460
  753MOL0     H 1590   9.767   0.703   8.123 -2.6920  0.8995 -0.7180
  753MOL0     H 1591   9.700   0.826   8.023 -0.3635 -1.8590 -1.4530
  753MOL0     H 1592   9.940   0.921   7.999 -0.4867  0.7001 -0.6177
  753MOL0     H 1593   9.974   0.744   7.985  0.4217  1.1038  1.1731
  753MOL0     H 1594   9.758   0.851   7.821  0.2220 -0.5452 -1.0686
  753MOL0     H 1595   9.920   0.939   7.792  1.5498 -0.4977 -1.5329
  753MOL0     H 1596  10.034   0.750   7.730 -0.1727  0.6761  0.0265
  753MOL0     H 1597   9.911   0.639   7.782  1.7396 -0.0950  0.7157
  753MOL0     H 1598   9.940   0.703   7.531  2.7120 -2.1102  4.1316
  753MOL0     H 1599   9.778   0.684   7.606  0.2867 -1.1559  1.6862
  753MOL0     H 1600   9.742   0.922   7.598  2.2905  4.0265  2.2841
  753MOL0     H 1601   9.908   0.964   7.548 -1.0850 -0.1604 -1.8503
  753MOL0     H 1602   9.755   0.977   7.357  0.1127 -0.8928 -1.1621
  753MOL0     H 1603   9.902   0.886   7.339  0.2462  3.9785  1.6058
  753MOL0     H 1604   9.641   0.755   7.413  1.3129 -0.3932  1.7593
  753MOL0     H 1605   9.783   0.666   7.366 -1.4334 -0.1591  2.2409
  753MOL0     H 1606   9.564   0.938   7.212  0.5308  1.1554 -1.6463
  753MOL0     H 1607   9.534   0.897   6.825 -0.0144 -3.1798  0.7439
  753MOL0     H 1608   9.413   0.911   6.962 -0.3232 -1.0660  0.6286
  753MOL0     H 1609   9.527   1.101   7.051  1.9103 -0.8547  1.3430
  753MOL0     H 1610   9.465   1.114   6.888  1.7569 -0.8495 -3.1926
  753MOL0     H 1611   9.745   1.054   6.945  0.0057  0.2924  0.3067
  753MOL0     H 1612   9.695   1.221   6.931  1.5253 -0.6113  1.5790
  753MOL0     H 1613   9.615   1.187   6.690 -0.5962  0.1229  1.1717
  753MOL0     H 1614   9.643   1.018   6.703 -4.0698  0.0673  1.7839
  753MOL0     H 1615   9.707   1.008   6.486  1.1915 -1.1619  5.1262
  753MOL0     H 1616   9.718   1.025   6.149  2.1230  0.6676  0.3090
  753MOL0     H 1617   9.837   0.901   6.157  1.5819  1.2257  0.2292
  753MOL0     H 1618   9.693   0.912   6.270 -0.4311 -1.5165 -1.3928
  753MOL0     H 1619  10.303   1.324   6.115 -3.3414 -2.9334  2.6542
  753MOL0     H 1620  10.476   1.330   5.928  2.8115 -1.1061 -3.6440
  753MOL0     H 1621  10.639   0.955   5.767  0.2051  5.2261  5.7854
  753MOL0     H 1622  10.487   0.963   5.667 -0.2418 -0.6510  0.5876
  753MOL0     H 1623  10.688   1.005   5.518  2.1693  0.6544  0.2563
  753MOL0     H 1624  10.617   1.166   5.541  2.9316 -0.2626 -2.3267
  753MOL0     H 1625  10.845   1.016   5.679  1.3557  0.6166 -0.2976
  753MOL0     H 1626  10.791   1.168   5.751  0.3976  1.9720 -0.3492
  753MOL0     H 1627  10.906   1.122   5.474 -2.7013 -1.0883  0.0105
  753MOL0     H 1628  10.823   1.273   5.526  1.1191  1.5968  0.4016
  753MOL0     H 1629  11.092   1.167   5.639  3.1410  2.6186 -0.6851
  753MOL0     H 1630  11.005   1.286   5.720  0.3938  3.2619 -1.8000
  753MOL0     H 1631  11.059   1.312   5.426  0.8423 -0.9815  1.1300
  753MOL0     H 1632  11.041   1.446   5.542  0.3239  1.2994 -2.4296
  753MOL0     H 1633  11.282   1.287   5.547  0.0346  1.3301 -5.1696
  753MOL0     H 1634  11.225   1.418   5.658 -1.0651 -1.1174  0.8054
  753MOL0     H 1635  11.377   1.504   5.496 -1.0969 -0.1998  1.2666
  753MOL0     H 1636  11.211   1.569   5.478  0.7750  0.8858 -0.2824
  753MOL0     H 1637  10.371   0.905   5.870  0.7343 -1.7882  2.8296
  753MOL0     H 1638  10.209   0.913   6.059  0.7042 -0.9725 -0.1849
  753MOL0     H 1639  10.076   1.293   6.360  0.8343 -0.6651  2.7869
  753MOL0     H 1640  10.000   1.299   6.576 -0.8142  0.1196  0.3201
  753MOL0     H 1641   9.694   0.726   8.341 -1.7957 -0.9099  0.8671
  753MOL0     H 1642   9.479   0.756   8.454 -0.2577  0.2955  0.1441
  753MOL0     H 1643   9.141   1.225   8.681 -0.6165  0.6924 -0.5879
  753MOL0     H 1644   8.912   1.223   8.755 -1.4369 -0.2352 -1.4178
  753MOL0     H 1645   8.705   1.188   8.749  2.3837  0.1347  0.6162
  753MOL0     H 1646   8.581   1.064   8.762 -0.4807  1.3496  0.2561
  753MOL0     H 1647   8.783   1.131   8.977 -0.3787 -0.9817  0.8960
  753MOL0     H 1648   8.671   1.002   8.984  1.5868  0.4984  2.5130
  753MOL0     H 1649   8.490   1.163   9.047  0.5274  0.7698  0.2275
  753MOL0     H 1650   8.559   1.292   8.941  0.5774  0.3898 -1.1529
  753MOL0     H 1651   8.555   1.333   9.160  0.0452  0.3301  1.0684
  753MOL0     H 1652   8.713   1.360   9.093 -0.6994  0.5424 -1.7466
  753MOL0     H 1653   8.774   1.070   9.404 -0.3262  0.4442 -0.4803
  753MOL0     H 1654   8.882   0.811   8.635  0.1358  0.2263 -0.2865
  753MOL0     H 1655   9.101   0.829   8.532 -0.1823 -0.2098 -0.2681
  754MOL0     O 1656  10.954   4.257   2.865  1.0315 -0.0876 -0.1827
  754MOL0     C 1657  10.883   4.165   2.914  0.1522 -0.0173  0.6636
  754MOL0     O 1658  10.771   4.182   2.983  0.7001  0.2341  0.3209
  754MOL0     C 1659  10.691   4.290   2.966  0.6449  0.2844 -1.0757
  754MOL0     C 1660  10.611   4.327   3.084 -0.4171  1.2940  1.0803
  754MOL0     C 1661  10.537   4.445   3.088  0.2808 -1.1350 -0.7012
  754MOL0     C 1662  10.525   4.530   2.975 -0.2521 -0.2478 -0.2218
  754MOL0     O 1663  10.448   4.644   2.981  0.3394 -0.3870 -0.1510
  754MOL0     C 1664  10.431   4.708   2.860 -0.3260  0.7202  0.6801
  754MOL0     C 1665  10.328   4.818   2.868 -1.2132  0.0499 -0.7749
  754MOL0     C 1666  10.336   4.907   3.007  1.1136  0.8260 -0.1070
  754MOL0     C 1667  10.196   4.965   3.036  0.2186  0.1932  0.2030
  754MOL0     C 1668  10.108   4.865   3.105  0.0161 -0.0606  0.1436
  754MOL0     C 1669   9.972   4.923   3.144  1.4178  0.5278 -0.2734
  754MOL0     C 1670   9.901   5.000   3.036  0.6973 -0.4243  0.2207
  754MOL0     C 1671   9.753   4.990   3.034  0.0157  0.4476 -0.3222
  754MOL0     N 1672   9.692   5.010   3.167  0.5621  0.8556  0.5649
  754MOL0     C 1673   9.670   4.904   3.259  0.1509 -0.3845 -0.2536
  754MOL0     C 1674   9.591   4.971   3.344 -0.4131 -0.1709  1.3171
  754MOL0     C 1675   9.516   4.921   3.463 -0.4596  1.0090 -0.2108
  754MOL0     C 1676   9.388   4.844   3.432 -0.9030  0.7663  0.1001
  754MOL0     C 1677   9.365   4.706   3.504 -0.0314 -0.4836  0.0123
  754MOL0     C 1678   9.395   4.692   3.657  0.4479 -0.4118  1.1875
  754MOL0     O 1679   9.334   4.806   3.723 -0.2758  0.3682  0.6128
  754MOL0     C 1680   9.379   4.822   3.851 -0.4487 -0.4077 -1.0720
  754MOL0     C 1681   9.403   4.716   3.936  0.0776  0.3983 -0.3503
  754MOL0     C 1682   9.454   4.728   4.066 -1.0642 -0.6370  1.2542
  754MOL0     C 1683   9.482   4.604   4.146  0.1525 -1.1564 -0.1799
  754MOL0     C 1684   9.493   4.852   4.111 -0.2601 -0.2146 -0.4026
  754MOL0     C 1685   9.560   4.895   4.243 -0.1039  1.0374  1.3117
  754MOL0     O 1686   9.560   5.033   4.270 -0.4951 -0.3559  0.0797
  754MOL0     C 1687   9.623   5.087   4.375  0.4746  0.3874  0.1236
  754MOL0     C 1688   9.675   5.017   4.480 -0.2272  0.1690 -1.3151
  754MOL0     C 1689   9.720   5.082   4.593  0.7324  0.6938 -0.9614
  754MOL0     C 1690   9.714   5.223   4.598  1.0423 -0.5599  0.1029
  754MOL0     O 1691   9.762   5.301   4.708 -0.8118  0.4283  0.4510
  754MOL0     C 1692   9.736   5.263   4.842  0.0434  0.4889 -1.0376
  754MOL0     C 1693   9.610   5.329   4.896 -0.5193 -0.8608 -0.1418
  754MOL0     C 1694   9.484   5.245   4.866  0.3593 -0.0811 -0.4299
  754MOL0     C 1695   9.366   5.292   4.953 -0.6615  0.4144  1.8559
  754MOL0     C 1696   9.255   5.192   4.964  0.5283 -0.1562  0.2060
  754MOL0     C 1697   9.147   5.247   5.059 -0.1879  0.3572  0.0458
  754MOL0     C 1698   9.024   5.155   5.054 -0.8324 -0.2910  0.7654
  754MOL0     C 1699   8.907   5.210   5.136 -0.3147 -0.1420  0.1346
  754MOL0    Cl 1700   8.957   5.284   5.304 -0.0821  0.0741  0.1700
  754MOL0     C 1701   9.671   5.294   4.481  0.0152 -0.2290 -1.1067
  754MOL0     C 1702   9.613   5.219   4.374  0.1978 -0.5649 -0.9254
  754MOL0     O 1703   9.621   4.806   4.301 -0.4688 -0.7803 -1.2478
  754MOL0     C 1704   9.483   4.958   4.021  0.1454 -0.4783  0.9962
  754MOL0     C 1705   9.411   4.948   3.902  0.0713  0.0593  0.5815
  754MOL0     N 1706   9.585   5.106   3.317  0.9532 -0.0754  0.3293
  754MOL0     N 1707   9.646   5.127   3.211  0.1930  0.6848 -0.2591
  754MOL0     C 1708  10.598   4.493   2.857 -0.8280  0.4135  0.0508
  754MOL0     C 1709  10.680   4.376   2.855  0.3543  0.8031  0.7173
  754MOL0     C 1710  10.924   4.025   2.919 -0.2744  0.4065 -0.2269
  754MOL0     C 1711  10.859   3.919   2.995 -0.1233  0.5462  0.2557
  754MOL0     C 1712  10.910   3.793   2.994 -0.0406  0.1288  0.1890
  754MOL0     C 1713  11.026   3.759   2.919 -0.0810  0.1264  0.8770
  754MOL0     O 1714  11.086   3.637   2.927 -0.5860 -0.1312  1.0774
  754MOL0     C 1715  11.127   3.570   2.808 -0.4204  0.2544 -0.1167
  754MOL0     C 1716  11.251   3.481   2.823 -0.5197 -0.7123  0.9509
  754MOL0     C 1717  11.228   3.345   2.892 -0.3950  0.0609  0.7678
  754MOL0     C 1718  11.358   3.271   2.942  0.5494  0.7379  0.2489
  754MOL0     C 1719  11.331   3.145   3.018  0.1938  0.6754 -0.4718
  754MOL0     C 1720  11.320   3.037   3.065  0.5317  0.8588 -0.3493
  754MOL0     C 1721  11.084   3.857   2.837  0.2624 -0.3912 -0.6368
  754MOL0     C 1722  11.033   3.988   2.838 -0.1161 -0.5783 -1.0691
  754MOL0     H 1723  10.629   4.267   3.173  1.4695  0.8142  0.4101
  754MOL0     H 1724  10.490   4.482   3.179 -2.7138  0.1812 -2.6304
  754MOL0     H 1725  10.528   4.740   2.820  0.2045 -0.8609  0.6167
  754MOL0     H 1726  10.393   4.639   2.784  2.0635  0.2132 -0.1425
  754MOL0     H 1727  10.345   4.888   2.786 -1.1196 -0.6670 -1.3748
  754MOL0     H 1728  10.228   4.774   2.858 -1.5936  0.7381 -0.1507
  754MOL0     H 1729  10.373   4.855   3.095 -1.3310  2.3895  2.0014
  754MOL0     H 1730  10.407   4.988   2.991  3.3016 -0.3683  2.7115
  754MOL0     H 1731  10.204   5.054   3.100 -3.1196  2.0414 -1.6803
  754MOL0     H 1732  10.145   4.993   2.944  2.2903 -1.9051 -1.6980
  754MOL0     H 1733  10.098   4.781   3.036  1.1460  0.6678 -0.9668
  754MOL0     H 1734  10.166   4.827   3.190 -0.9032  0.1529  0.8727
  754MOL0     H 1735   9.901   4.840   3.152 -1.1958  2.4277 -2.1916
  754MOL0     H 1736   9.973   4.983   3.235  1.7513  0.1489 -0.0250
  754MOL0     H 1737   9.929   5.103   3.059  0.7792 -0.6100  0.9885
  754MOL0     H 1738   9.934   4.975   2.934  1.0200 -0.0524  0.2334
  754MOL0     H 1739   9.734   4.893   2.987  1.9118  1.9274 -4.5412
  754MOL0     H 1740   9.718   5.061   2.960  1.6682 -1.5017 -3.1555
  754MOL0     H 1741   9.694   4.798   3.252 -1.3985 -0.7529 -0.4402
  754MOL0     H 1742   9.575   4.858   3.530  1.0975  0.6418 -1.8237
  754MOL0     H 1743   9.497   5.008   3.526 -1.8435  0.9397 -0.5005
  754MOL0     H 1744   9.386   4.841   3.323 -1.0495  1.4079  0.0800
  754MOL0     H 1745   9.308   4.913   3.460  0.5071  1.1590  3.7726
  754MOL0     H 1746   9.426   4.638   3.444  3.0965  1.9406  0.1637
  754MOL0     H 1747   9.260   4.684   3.485 -0.7433  1.4745  1.3785
  754MOL0     H 1748   9.503   4.680   3.670  1.3698 -0.1909 -4.0737
  754MOL0     H 1749   9.348   4.595   3.674 -0.7657  0.2433  1.6782
  754MOL0     H 1750   9.367   4.616   3.911 -1.0111  0.2820  1.4415
  754MOL0     H 1751   9.443   4.619   4.247 -1.6923 -2.4937 -0.6459
  754MOL0     H 1752   9.422   4.516   4.123  1.2332 -1.6637 -1.1360
  754MOL0     H 1753   9.589   4.582   4.137  1.0398  2.4604 -0.3337
  754MOL0     H 1754   9.682   4.910   4.493 -2.8458  0.1378  0.5780
  754MOL0     H 1755   9.756   5.026   4.679 -2.3447 -3.5556 -2.1268
  754MOL0     H 1756   9.738   5.154   4.849  0.3247  0.5895  1.1884
  754MOL0     H 1757   9.822   5.312   4.887  1.0763 -2.5438  0.5533
  754MOL0     H 1758   9.638   5.334   5.001 -0.0477 -1.7878 -0.2155
  754MOL0     H 1759   9.592   5.423   4.844 -2.5221 -1.2114 -0.1920
  754MOL0     H 1760   9.498   5.138   4.882 -1.2300 -0.2501 -0.0400
  754MOL0     H 1761   9.455   5.260   4.762  0.4286 -1.8883 -0.7306
  754MOL0     H 1762   9.401   5.313   5.054 -1.6274  1.4125  2.0015
  754MOL0     H 1763   9.322   5.389   4.928 -0.1003  0.4844  1.1028
  754MOL0     H 1764   9.279   5.090   4.995 -0.9810 -1.1198 -1.6291
  754MOL0     H 1765   9.205   5.189   4.867 -3.4234 -1.1522  2.0507
  754MOL0     H 1766   9.179   5.255   5.163 -1.1371 -4.5770  0.9514
  754MOL0     H 1767   9.113   5.348   5.036  2.8829  1.0562 -2.0323
  754MOL0     H 1768   9.049   5.058   5.098  0.1520 -2.7342 -4.3702
  754MOL0     H 1769   8.993   5.129   4.952 -0.0417 -1.4683  0.7975
  754MOL0     H 1770   8.833   5.128   5.138  1.5575 -2.0365 -2.3763
  754MOL0     H 1771   8.869   5.300   5.088 -0.0255  0.8147  1.6353
  754MOL0     H 1772   9.681   5.402   4.469 -2.3701 -0.1354 -2.9726
  754MOL0     H 1773   9.554   5.268   4.297  4.4275 -0.2377 -4.3473
  754MOL0     H 1774   9.503   5.060   4.051  2.5574 -1.4442  3.0519
  754MOL0     H 1775   9.398   5.041   3.846  3.4631  1.3393  1.6925
  754MOL0     H 1776  10.588   4.537   2.758 -0.9951 -3.1714 -1.6929
  754MOL0     H 1777  10.726   4.353   2.759  2.1655 -0.8220  1.8983
  754MOL0     H 1778  10.769   3.931   3.053 -0.3252  0.4987 -0.0431
  754MOL0     H 1779  10.878   3.716   3.063  3.0079 -2.5006 -1.0642
  754MOL0     H 1780  11.045   3.506   2.773 -0.8409 -0.7344  2.4720
  754MOL0     H 1781  11.148   3.632   2.721 -0.0473  0.9235  0.4455
  754MOL0     H 1782  11.314   3.549   2.880 -1.9559  0.9388  0.6623
  754MOL0     H 1783  11.292   3.457   2.725  1.6299 -1.7240  2.0341
  754MOL0     H 1784  11.171   3.279   2.826 -1.6669  0.6176  1.2630
  754MOL0     H 1785  11.160   3.357   2.978 -2.5790 -0.5053 -0.7918
  754MOL0     H 1786  11.412   3.338   3.010  3.3725 -0.1098 -1.0139
  754MOL0     H 1787  11.434   3.257   2.865  1.6607  4.1717  0.5371
  754MOL0     H 1788  11.296   2.944   3.111 -2.5669  1.3200 -0.7800
  754MOL0     H 1789  11.174   3.836   2.782  0.0698 -0.2235 -1.0213
  754MOL0     H 1790  11.075   4.053   2.763 -0.1380 -1.4442 -1.8474
  755MOL0     O 1791   9.955   7.350   1.231 -0.2130 -0.4085  0.4527
  755MOL0     C 1792  10.007   7.411   1.320 -0.9065 -0.6979  0.1733
  755MOL0     O 1793   9.946   7.492   1.415 -0.4085 -0.2311  0.1723
  755MOL0     C 1794   9.814   7.482   1.434  0.1238  0.5425  0.3935
  755MOL0     C 1795   9.721   7.493   1.330 -0.5175 -0.3057 -0.6371
  755MOL0     C 1796   9.579   7.496   1.345 -0.4875 -0.3970 -0.4576
  755MOL0     C 1797   9.524   7.474   1.465 -0.7555  1.4058 -0.6269
  755MOL0     O 1798   9.386   7.448   1.468 -0.5198  0.3580  0.6233
  755MOL0     C 1799   9.333   7.331   1.525 -0.4756 -0.0251 -0.0420
  755MOL0     C 1800   9.188   7.314   1.487 -1.0553  0.3905 -0.0361
  755MOL0     C 1801   9.114   7.199   1.551  0.1774  0.1884 -0.2205
  755MOL0     C 1802   8.963   7.235   1.573  0.6101  0.5849 -0.9789
  755MOL0     C 1803   8.891   7.119   1.639 -0.3724 -0.8845  0.0723
  755MOL0     C 1804   8.759   7.153   1.699  0.3005 -1.6178 -1.2262
  755MOL0     C 1805   8.771   7.242   1.821 -0.4559 -0.7285 -0.3274
  755MOL0     C 1806   8.838   7.171   1.941  0.1303 -0.2730  0.2769
  755MOL0     N 1807   8.772   7.222   2.053  0.2151 -0.4812 -0.2919
  755MOL0     C 1808   8.817   7.335   2.118  0.7968 -1.0167 -0.4611
  755MOL0     C 1809   8.712   7.370   2.203 -0.3866 -0.1786 -0.7996
  755MOL0     C 1810   8.694   7.503   2.289 -0.6035  0.5498 -0.2771
  755MOL0     C 1811   8.740   7.494   2.442 -0.4457  0.1962 -0.0474
  755MOL0     C 1812   8.655   7.390   2.522  0.3436 -0.1076 -1.3124
  755MOL0     C 1813   8.707   7.379   2.665  0.1943 -0.2061 -0.3481
  755MOL0     O 1814   8.601   7.304   2.729 -0.2129 -0.0225 -0.7258
  755MOL0     C 1815   8.533   7.379   2.816  0.2601 -0.8770  0.2725
  755MOL0     C 1816   8.404   7.419   2.787 -1.1138  0.6521  0.8777
  755MOL0     C 1817   8.325   7.502   2.869  0.7074  0.7031  0.1170
  755MOL0     C 1818   8.180   7.545   2.830 -0.3752  0.0914  0.2849
  755MOL0     C 1819   8.396   7.570   2.977  0.2635  0.3338 -0.0441
  755MOL0     C 1820   8.332   7.671   3.058  1.5210  0.2575  0.0382
  755MOL0     O 1821   8.419   7.779   3.078 -0.0779  0.6104  0.7436
  755MOL0     C 1822   8.378   7.875   3.162  0.7220 -0.2262 -0.2260
  755MOL0     C 1823   8.407   8.008   3.126 -0.0878 -0.1159  0.4876
  755MOL0     C 1824   8.387   8.104   3.224 -0.3741  0.3342  0.1777
  755MOL0     C 1825   8.336   8.079   3.349 -0.2307 -0.4188 -0.2142
  755MOL0     O 1826   8.325   8.190   3.429 -0.2803 -0.0600  0.4876
  755MOL0     C 1827   8.256   8.175   3.553 -0.1929 -0.3651 -0.0756
  755MOL0     C 1828   8.298   8.293   3.635 -0.0051 -0.1553 -0.6972
  755MOL0     C 1829   8.450   8.308   3.670  0.0251 -0.5373 -1.0888
  755MOL0     C 1830   8.464   8.410   3.790  0.2950  0.1734  0.2645
  755MOL0     C 1831   8.595   8.398   3.863 -1.2398  0.0696  0.2021
  755MOL0     C 1832   8.589   8.472   3.997  1.2021 -0.8990  1.0650
  755MOL0     C 1833   8.719   8.475   4.077 -0.5080  0.4995 -0.4605
  755MOL0     C 1834   8.745   8.344   4.148 -0.0607 -0.9354  0.7299
  755MOL0    Cl 1835   8.857   8.394   4.282  0.0271  0.1269  0.0773
  755MOL0     C 1836   8.308   7.941   3.386 -0.0835 -0.2394  0.0035
  755MOL0     C 1837   8.331   7.844   3.290  0.9115  0.8792 -0.5843
  755MOL0     O 1838   8.210   7.673   3.086 -0.5125 -0.3703  0.4073
  755MOL0     C 1839   8.525   7.531   3.016 -0.2137 -0.6244  0.3943
  755MOL0     C 1840   8.591   7.444   2.926  0.4823  0.0771 -0.3934
  755MOL0     N 1841   8.614   7.268   2.184 -0.5212  0.1235  0.2913
  755MOL0     N 1842   8.649   7.194   2.092  0.3700 -0.3697  0.6740
  755MOL0     C 1843   9.610   7.464   1.571 -0.0128 -0.2317  0.7911
  755MOL0     C 1844   9.751   7.467   1.557 -0.1879 -0.4521  0.2380
  755MOL0     C 1845  10.155   7.426   1.321  0.8751  0.0557 -0.8873
  755MOL0     C 1846  10.227   7.448   1.443 -1.1385  0.2477 -1.0031
  755MOL0     C 1847  10.370   7.450   1.444 -0.3170 -0.7669 -0.2190
  755MOL0     C 1848  10.442   7.441   1.329 -0.2256  0.5837  0.6800
  755MOL0     O 1849  10.575   7.466   1.329 -0.6509  0.4724 -0.3450
  755MOL0     C 1850  10.652   7.364   1.398  0.3829 -0.3391  1.2938
  755MOL0     C 1851  10.717   7.418   1.522 -0.2786  0.4851 -0.3494
  755MOL0     C 1852  10.865   7.474   1.482  0.7961  0.6051  0.9954
  755MOL0     C 1853  10.939   7.530   1.606 -0.0561  0.1940 -0.4678
  755MOL0     C 1854  11.019   7.648   1.571  0.3430  0.1838  0.0338
  755MOL0     C 1855  11.083   7.744   1.548 -0.7963 -0.8936 -0.2365
  755MOL0     C 1856  10.376   7.425   1.206  0.0320 -0.8338  0.2290
  755MOL0     C 1857  10.237   7.405   1.205 -0.1210 -0.3303 -0.0776
  755MOL0     H 1858   9.767   7.500   1.232  0.4924 -0.0549 -0.1562
  755MOL0     H 1859   9.504   7.522   1.271 -2.2574  3.4065  2.3383
  755MOL0     H 1860   9.384   7.245   1.480  1.2974  0.0030  1.7698
  755MOL0     H 1861   9.339   7.337   1.634 -0.4894  1.8996 -0.1085
  755MOL0     H 1862   9.140   7.408   1.518 -3.0759 -0.1378 -1.3328
  755MOL0     H 1863   9.190   7.307   1.378  3.4182 -0.6828 -0.0644
  755MOL0     H 1864   9.131   7.105   1.497  1.2057  0.9490 -1.2852
  755MOL0     H 1865   9.162   7.179   1.647  0.3783 -0.2554 -0.4119
  755MOL0     H 1866   8.963   7.314   1.649 -2.1890 -1.8628  1.8221
  755MOL0     H 1867   8.919   7.262   1.477 -2.0900 -0.6476 -0.1840
  755MOL0     H 1868   8.866   7.037   1.572  2.1680 -0.9242 -0.9327
  755MOL0     H 1869   8.957   7.076   1.715 -1.4083 -0.9100  0.9993
  755MOL0     H 1870   8.694   7.193   1.620  0.4688  3.8691  0.9139
  755MOL0     H 1871   8.710   7.060   1.730 -1.4856 -0.3975 -0.1367
  755MOL0     H 1872   8.834   7.328   1.795 -1.1782  0.1841  0.8063
  755MOL0     H 1873   8.667   7.277   1.831  0.0719  1.1674 -0.8867
  755MOL0     H 1874   8.947   7.168   1.947  0.1206  0.1955  0.7388
  755MOL0     H 1875   8.805   7.067   1.931 -0.7749  0.1436 -1.4299
  755MOL0     H 1876   8.904   7.396   2.098 -1.7748  3.2051 -0.1940
  755MOL0     H 1877   8.766   7.565   2.235  0.9048 -3.4316 -3.3172
  755MOL0     H 1878   8.588   7.531   2.289 -1.6932 -3.0625  0.4842
  755MOL0     H 1879   8.731   7.596   2.481  0.5126  0.0033  0.7266
  755MOL0     H 1880   8.847   7.471   2.451 -0.1088  0.7682 -2.0749
  755MOL0     H 1881   8.679   7.290   2.485  1.8401 -0.7595  1.1953
  755MOL0     H 1882   8.549   7.418   2.514  0.4429  1.1615  1.0313
  755MOL0     H 1883   8.735   7.473   2.714  1.0320  2.0676 -4.6517
  755MOL0     H 1884   8.795   7.315   2.670 -0.4148 -0.9543  1.5064
  755MOL0     H 1885   8.371   7.378   2.692 -0.0258 -0.5408  0.9966
  755MOL0     H 1886   8.149   7.494   2.738  1.2797  2.0011 -1.4636
  755MOL0     H 1887   8.103   7.522   2.903 -2.5039 -1.9600 -2.3984
  755MOL0     H 1888   8.176   7.653   2.812 -0.1447  0.2996  1.4370
  755MOL0     H 1889   8.446   8.026   3.027  0.8324  0.8248  1.0058
  755MOL0     H 1890   8.418   8.207   3.206 -0.1481 -0.0075 -1.6054
  755MOL0     H 1891   8.150   8.184   3.526  0.7376  0.8332 -3.9764
  755MOL0     H 1892   8.276   8.080   3.603  0.6184 -1.0377 -1.6125
  755MOL0     H 1893   8.269   8.378   3.573 -4.0416 -1.9545 -1.6127
  755MOL0     H 1894   8.231   8.310   3.719  1.0065  0.5855 -0.0104
  755MOL0     H 1895   8.521   8.343   3.594  3.6143 -0.8165  1.8308
  755MOL0     H 1896   8.486   8.208   3.697  3.5892  0.8556 -0.0342
  755MOL0     H 1897   8.434   8.513   3.774 -0.8619 -0.2246 -0.1941
  755MOL0     H 1898   8.380   8.379   3.853 -1.8276  0.7123 -2.1373
  755MOL0     H 1899   8.675   8.437   3.800 -0.0863 -1.9216  0.3828
  755MOL0     H 1900   8.628   8.294   3.868 -0.5227  0.2452 -0.6473
  755MOL0     H 1901   8.562   8.575   3.969  0.2190 -1.2794  0.5767
  755MOL0     H 1902   8.510   8.432   4.060  1.7251 -0.6079  1.9279
  755MOL0     H 1903   8.716   8.557   4.149  2.3644  0.8462 -0.6199
  755MOL0     H 1904   8.800   8.496   4.007  0.9443  0.9546  1.2910
  755MOL0     H 1905   8.795   8.272   4.082 -0.2160 -1.5209  1.2418
  755MOL0     H 1906   8.658   8.292   4.191 -0.5597 -1.8866 -1.3002
  755MOL0     H 1907   8.278   7.913   3.487  0.6793  2.7275  1.1753
  755MOL0     H 1908   8.309   7.740   3.314 -3.3450  1.1738 -2.3813
  755MOL0     H 1909   8.591   7.579   3.088  0.7893 -2.1859  0.5420
  755MOL0     H 1910   8.694   7.416   2.944  0.2438 -1.3175 -1.0149
  755MOL0     H 1911   9.575   7.466   1.674 -3.7701 -0.6241 -0.3044
  755MOL0     H 1912   9.814   7.446   1.643  2.1466  1.1187 -0.9821
  755MOL0     H 1913  10.177   7.451   1.539 -2.1334  1.3159 -1.5315
  755MOL0     H 1914  10.407   7.459   1.545 -1.6693 -3.7205  0.6327
  755MOL0     H 1915  10.598   7.274   1.429  2.5275 -1.2891  2.5449
  755MOL0     H 1916  10.726   7.314   1.335  1.8747 -2.9229  4.7147
  755MOL0     H 1917  10.725   7.332   1.588 -2.1778  1.2185  0.9391
  755MOL0     H 1918  10.665   7.494   1.582 -1.0014 -3.8715  5.3717
  755MOL0     H 1919  10.842   7.562   1.421  0.6111  0.0738  0.2878
  755MOL0     H 1920  10.922   7.396   1.431 -0.7597  1.1548 -1.8348
  755MOL0     H 1921  11.007   7.451   1.637 -0.0777 -1.0084 -3.1807
  755MOL0     H 1922  10.877   7.561   1.691 -2.7894  0.4181 -2.3741
  755MOL0     H 1923  11.136   7.831   1.516 -1.1687  0.1780  1.9103
  755MOL0     H 1924  10.426   7.424   1.110  0.0929 -0.2898  0.2535
  755MOL0     H 1925  10.201   7.399   1.103  0.0966 -2.1704 -0.0876
  756MOL0     O 1926   0.956   3.119   5.524 -1.1198 -0.3685  0.0148
  756MOL0     C 1927   0.969   3.015   5.584 -0.5506  0.3162  0.1761
  756MOL0     O 1928   0.870   2.931   5.600  0.1834 -0.2645 -0.7438
  756MOL0     C 1929   0.777   2.920   5.500 -0.2172 -0.0193 -0.3931
  756MOL0     C 1930   0.813   2.840   5.387 -0.0770  0.0250  0.0118
  756MOL0     C 1931   0.725   2.826   5.276 -0.5254 -0.0062 -0.9934
  756MOL0     C 1932   0.609   2.891   5.273  0.0563 -1.0716  0.3785
  756MOL0     O 1933   0.535   2.880   5.165 -0.0815 -0.3374 -0.2397
  756MOL0     C 1934   0.577   2.966   5.051 -0.8363  0.1803  0.2343
  756MOL0     C 1935   0.471   2.984   4.943 -0.0323 -0.3450  0.3167
  756MOL0     C 1936   0.342   3.036   5.004  0.3098 -0.1642 -0.0409
  756MOL0     C 1937   0.209   3.028   4.926  0.3199 -0.2699 -0.2738
  756MOL0     C 1938   0.094   3.077   5.014  0.4454 -0.4894  0.6729
  756MOL0     C 1939  -0.044   3.046   4.963  0.3054  0.1300  0.4200
  756MOL0     C 1940  -0.073   3.088   4.814 -0.4344  0.0488  0.6918
  756MOL0     C 1941  -0.224   3.082   4.780  0.2637  0.7017 -0.1828
  756MOL0     N 1942  -0.258   2.935   4.780 -0.6904  0.3378  0.9397
  756MOL0     C 1943  -0.334   2.876   4.877  1.5347 -0.3521 -0.2290
  756MOL0     C 1944  -0.369   2.755   4.838 -0.5127  0.6007 -0.2510
  756MOL0     C 1945  -0.458   2.664   4.918 -0.1491 -0.4025  0.6104
  756MOL0     C 1946  -0.379   2.534   4.952  0.3439 -0.6580  0.8845
  756MOL0     C 1947  -0.460   2.414   4.981 -0.2047 -0.6602  0.7236
  756MOL0     C 1948  -0.568   2.391   4.866 -0.7509  0.3849 -0.1904
  756MOL0     O 1949  -0.521   2.420   4.734 -0.5943 -0.3673  0.0259
  756MOL0     C 1950  -0.464   2.329   4.650 -0.0511 -1.0942  0.0362
  756MOL0     C 1951  -0.431   2.202   4.686  0.1231  0.4782 -0.1508
  756MOL0     C 1952  -0.364   2.114   4.596 -0.8181 -0.3796 -1.1113
  756MOL0     C 1953  -0.355   1.970   4.633 -0.6440  0.4815  0.6310
  756MOL0     C 1954  -0.326   2.166   4.471 -0.6835 -0.3984 -0.3449
  756MOL0     C 1955  -0.229   2.096   4.391 -0.2267  0.5636 -0.3253
  756MOL0     O 1956  -0.103   2.106   4.416 -0.1692  0.2292 -0.4438
  756MOL0     C 1957  -0.006   2.064   4.328 -0.0257 -0.0018  0.7327
  756MOL0     C 1958  -0.003   1.934   4.285 -0.4213 -0.0443 -0.4923
  756MOL0     C 1959   0.101   1.892   4.199 -0.1231  0.0593  0.0386
  756MOL0     C 1960   0.188   1.990   4.136  0.4317  0.3470  0.5020
  756MOL0     O 1961   0.285   1.935   4.045 -0.7036  0.0393 -0.7403
  756MOL0     C 1962   0.398   2.019   4.025 -0.7087  0.4919  0.1365
  756MOL0     C 1963   0.506   1.972   4.129 -0.0126  0.8355  0.1921
  756MOL0     C 1964   0.639   2.043   4.094  0.5027  0.2818 -0.2648
  756MOL0     C 1965   0.740   1.987   4.201 -0.4990 -0.6143 -0.1071
  756MOL0     C 1966   0.883   2.051   4.160  0.5842  0.5712 -0.8639
  756MOL0     C 1967   0.967   1.930   4.108  0.5734 -0.0106  0.4866
  756MOL0     C 1968   1.106   1.990   4.065 -0.2978 -0.5170 -0.0734
  756MOL0     C 1969   1.180   1.881   3.982 -0.2658 -0.1641 -0.4450
  756MOL0    Cl 1970   1.337   1.932   3.908 -0.1573  0.2571  0.1402
  756MOL0     C 1971   0.173   2.129   4.171 -0.2002  0.1345  0.0917
  756MOL0     C 1972   0.074   2.164   4.270 -0.8395  0.8966  0.1524
  756MOL0     O 1973  -0.276   2.040   4.286  0.6270 -0.1129  0.3492
  756MOL0     C 1974  -0.358   2.291   4.424  0.6798 -0.1813 -0.3611
  756MOL0     C 1975  -0.433   2.374   4.517 -0.0000 -0.7647  0.0905
  756MOL0     N 1976  -0.319   2.737   4.711 -0.5975  0.5971  0.1120
  756MOL0     N 1977  -0.246   2.840   4.678  0.1920 -0.0916  0.6155
  756MOL0     C 1978   0.575   2.976   5.380 -0.1776 -0.7545 -0.1657
  756MOL0     C 1979   0.660   2.997   5.493  0.7026  0.0404  0.1692
  756MOL0     C 1980   1.090   2.991   5.669  0.0258  0.4443  0.4027
  756MOL0     C 1981   1.213   3.055   5.636  0.7021  0.5305 -0.1109
  756MOL0     C 1982   1.329   3.027   5.703  0.4003  0.8179 -0.4356
  756MOL0     C 1983   1.322   2.926   5.805  0.6239 -0.3788  0.3816
  756MOL0     O 1984   1.438   2.885   5.868 -0.2091  0.3550  0.6265
  756MOL0     C 1985   1.547   2.977   5.874  0.2116 -0.2194  0.2147
  756MOL0     C 1986   1.625   2.972   6.005  0.0367 -0.3376  0.8487
  756MOL0     C 1987   1.663   2.844   6.060 -0.5116  0.5761  0.7796
  756MOL0     C 1988   1.766   2.861   6.183 -0.2961  0.2189 -0.0483
  756MOL0     C 1989   1.774   2.731   6.237 -0.4044 -0.1337 -0.4844
  756MOL0     C 1990   1.789   2.619   6.278  0.4211 -0.4184 -0.0389
  756MOL0     C 1991   1.206   2.868   5.845 -0.1597 -0.4447  0.6182
  756MOL0     C 1992   1.084   2.907   5.779 -0.1386  0.4006  0.5742
  756MOL0     H 1993   0.913   2.797   5.397  0.0646  0.2077 -0.5906
  756MOL0     H 1994   0.755   2.756   5.199  2.8941 -2.5546  2.3047
  756MOL0     H 1995   0.611   3.066   5.078 -0.7079  0.5170 -1.1027
  756MOL0     H 1996   0.664   2.919   5.005 -1.9852 -0.5759 -1.2346
  756MOL0     H 1997   0.519   3.058   4.879 -2.0107 -1.0107 -2.0734
  756MOL0     H 1998   0.464   2.886   4.895  1.8733 -0.6693  0.6194
  756MOL0     H 1999   0.323   2.976   5.093 -1.3746  0.7494  0.2679
  756MOL0     H 2000   0.341   3.138   5.043 -3.8036 -1.0691  2.9167
  756MOL0     H 2001   0.224   3.081   4.832  3.7908  1.0435  0.8624
  756MOL0     H 2002   0.180   2.925   4.903 -0.5040 -0.3273  0.9197
  756MOL0     H 2003   0.099   3.036   5.115 -0.9948  1.2253  1.5032
  756MOL0     H 2004   0.099   3.186   5.016 -2.2981 -0.2119 -1.5124
  756MOL0     H 2005  -0.058   2.939   4.979  0.6306 -0.1091 -0.8031
  756MOL0     H 2006  -0.115   3.097   5.029 -4.2474 -1.8326 -2.4764
  756MOL0     H 2007  -0.032   3.188   4.800 -0.3468 -0.1615 -0.6681
  756MOL0     H 2008  -0.025   3.016   4.747 -1.4582  1.0792 -1.2352
  756MOL0     H 2009  -0.228   3.124   4.679  1.8856 -2.4729 -1.6955
  756MOL0     H 2010  -0.284   3.135   4.855  0.4847  1.0406 -0.2414
  756MOL0     H 2011  -0.366   2.926   4.967 -1.7776  1.1372 -2.0770
  756MOL0     H 2012  -0.498   2.700   5.013  1.2503  0.4444  0.8989
  756MOL0     H 2013  -0.538   2.641   4.847  1.0947 -3.6583  0.0825
  756MOL0     H 2014  -0.320   2.561   5.040 -0.1272  1.0962  0.6999
  756MOL0     H 2015  -0.309   2.512   4.871 -0.8370 -0.7762 -0.1111
  756MOL0     H 2016  -0.516   2.421   5.076 -2.5956 -0.5836 -0.6061
  756MOL0     H 2017  -0.392   2.332   5.007  0.3939 -0.0864  0.9795
  756MOL0     H 2018  -0.659   2.450   4.879 -0.4460  1.4367 -2.4508
  756MOL0     H 2019  -0.602   2.287   4.863  0.5589 -0.0427 -2.9917
  756MOL0     H 2020  -0.437   2.173   4.791  0.5761 -2.1244 -0.7769
  756MOL0     H 2021  -0.389   1.966   4.737  0.1998 -0.3747  0.8923
  756MOL0     H 2022  -0.427   1.917   4.571 -1.1585  2.3442 -0.4506
  756MOL0     H 2023  -0.258   1.925   4.612 -1.9925 -2.0946 -0.5420
  756MOL0     H 2024  -0.066   1.868   4.343 -0.7977  0.3474 -0.4461
  756MOL0     H 2025   0.111   1.788   4.173  6.5194 -0.5162  2.7223
  756MOL0     H 2026   0.439   2.007   3.925  0.9632 -3.4035  1.1135
  756MOL0     H 2027   0.392   2.126   4.048 -2.7095 -0.2669  4.1529
  756MOL0     H 2028   0.475   1.996   4.231  1.3593  0.0519  0.8262
  756MOL0     H 2029   0.524   1.864   4.120  1.2806  0.8303  2.0901
  756MOL0     H 2030   0.617   2.150   4.098  1.0567  0.3744  2.6920
  756MOL0     H 2031   0.662   1.999   3.996  2.4796 -2.4858  1.2937
  756MOL0     H 2032   0.721   2.007   4.307  4.4662 -3.3311  1.5884
  756MOL0     H 2033   0.738   1.879   4.185  2.0587 -0.7050 -0.1541
  756MOL0     H 2034   0.937   2.091   4.246 -0.1359  1.0146 -0.6061
  756MOL0     H 2035   0.880   2.136   4.092  0.2304 -0.2934 -1.9588
  756MOL0     H 2036   0.980   1.851   4.182 -0.1398 -0.6833 -0.0965
  756MOL0     H 2037   0.907   1.884   4.030 -0.3471  0.8324  0.6716
  756MOL0     H 2038   1.171   2.002   4.153 -1.4973 -1.7046  1.0333
  756MOL0     H 2039   1.104   2.078   4.002 -0.5489 -2.1227 -2.4267
  756MOL0     H 2040   1.114   1.856   3.898 -1.4202  1.6491 -0.1335
  756MOL0     H 2041   1.200   1.796   4.048 -1.6646 -1.4948 -1.6447
  756MOL0     H 2042   0.218   2.216   4.124  0.8063 -1.1836 -1.4796
  756MOL0     H 2043   0.052   2.262   4.310  0.5677  1.0343  0.6557
  756MOL0     H 2044  -0.309   2.332   4.337  1.9911 -0.7189  0.0905
  756MOL0     H 2045  -0.455   2.474   4.482 -0.2608 -1.3845 -1.6201
  756MOL0     H 2046   0.474   3.015   5.369 -1.2133 -3.3755 -0.7406
  756MOL0     H 2047   0.648   3.076   5.567 -0.7549 -0.6291  0.6849
  756MOL0     H 2048   1.211   3.122   5.550 -0.0845 -0.5502 -0.9547
  756MOL0     H 2049   1.421   3.071   5.663  0.7022 -1.2065 -2.1784
  756MOL0     H 2050   1.620   2.953   5.796  5.0727  4.2484  2.7663
  756MOL0     H 2051   1.528   3.081   5.848  1.6146 -0.3617 -1.6425
  756MOL0     H 2052   1.569   3.023   6.085  1.2536 -2.9247  3.5338
  756MOL0     H 2053   1.718   3.027   5.993  1.0412 -1.8676  1.3850
  756MOL0     H 2054   1.718   2.790   5.982  1.5336  2.0213  1.1442
  756MOL0     H 2055   1.580   2.778   6.087  0.2912 -1.0674 -0.6374
  756MOL0     H 2056   1.728   2.930   6.260  1.4966 -3.0779  4.2245
  756MOL0     H 2057   1.864   2.894   6.148  0.3097 -1.3311  0.1205
  756MOL0     H 2058   1.813   2.519   6.310  0.4028 -0.3549  0.1761
  756MOL0     H 2059   1.201   2.792   5.922 -0.1254  0.4099  1.4882
  756MOL0     H 2060   0.992   2.883   5.830 -1.3992  1.2933 -1.1741
  757MOL0     O 2061  11.128   6.869   0.221 -0.1467  0.2574  0.6618
  757MOL0     C 2062  11.223   6.938   0.251  0.1365  0.4437 -1.0058
  757MOL0     O 2063  11.304   6.920   0.362 -0.5271 -0.6385 -0.1096
  757MOL0     C 2064  11.354   6.797   0.402  0.3056  0.9472  0.3739
  757MOL0     C 2065  11.389   6.790   0.534  0.1723 -0.2627  0.5849
  757MOL0     C 2066  11.473   6.685   0.580 -0.4591 -0.2533 -0.9693
  757MOL0     C 2067  11.479   6.570   0.503 -0.0814 -0.1913 -0.1520
  757MOL0     O 2068  11.544   6.466   0.571  0.4547 -0.2195 -0.4167
  757MOL0     C 2069  11.545   6.329   0.521  1.1411 -0.5886 -0.1976
  757MOL0     C 2070  11.659   6.309   0.431  0.3779 -0.2099  0.2062
  757MOL0     C 2071  11.684   6.175   0.370  0.3800  0.8241  0.0947
  757MOL0     C 2072  11.572   6.128   0.281  0.4041 -0.1598 -0.2748
  757MOL0     C 2073  11.601   6.002   0.195 -0.6216  0.8769  0.1871
  757MOL0     C 2074  11.473   5.935   0.154 -0.5499 -0.4270  0.8996
  757MOL0     C 2075  11.465   5.783   0.131  0.0141 -0.6485  0.2014
  757MOL0     C 2076  11.331   5.726   0.096  0.2815  0.1209  0.1859
  757MOL0     N 2077  11.276   5.801  -0.022 -0.3866  0.9722  0.1320
  757MOL0     C 2078  11.325   5.773  -0.157 -0.4477  0.8602  0.2084
  757MOL0     C 2079  11.232   5.843  -0.228 -0.1749  0.0683 -0.4582
  757MOL0     C 2080  11.217   5.862  -0.381 -0.0695 -0.3385 -0.7068
  757MOL0     C 2081  11.103   5.783  -0.445  0.5390 -0.1700 -0.7632
  757MOL0     C 2082  11.012   5.882  -0.516  0.5857 -0.4835  0.6157
  757MOL0     C 2083  10.871   5.818  -0.529  0.0204  0.2978  0.7864
  757MOL0     O 2084  10.784   5.902  -0.605  0.1962  0.0231 -0.5190
  757MOL0     C 2085  10.767   5.873  -0.741 -0.8371  0.0555 -0.1889
  757MOL0     C 2086  10.673   5.952  -0.808 -0.3211  0.6608  0.1467
  757MOL0     C 2087  10.654   5.926  -0.949  0.5639 -0.3764  0.1437
  757MOL0     C 2088  10.546   6.017  -1.013 -0.1504  0.2798 -0.2711
  757MOL0     C 2089  10.730   5.829  -1.021 -0.7615 -0.6268 -0.9117
  757MOL0     C 2090  10.727   5.805  -1.164 -0.0403 -0.4398  0.8537
  757MOL0     O 2091  10.653   5.889  -1.234  0.3094  0.5126  0.7580
  757MOL0     C 2092  10.634   5.873  -1.366  0.0219 -0.0553  0.3984
  757MOL0     C 2093  10.628   5.986  -1.448 -0.3367 -0.4779  0.0655
  757MOL0     C 2094  10.601   5.965  -1.584  1.0752  0.8462 -0.0984
  757MOL0     C 2095  10.570   5.830  -1.632  0.5590 -0.4651 -0.6834
  757MOL0     O 2096  10.541   5.816  -1.764  1.0256 -0.0771 -0.8886
  757MOL0     C 2097  10.423   5.735  -1.787 -0.6736 -0.5554 -0.6420
  757MOL0     C 2098  10.367   5.761  -1.923 -0.4137 -0.4720 -0.9932
  757MOL0     C 2099  10.260   5.665  -1.964 -0.0379  0.0614 -0.5545
  757MOL0     C 2100  10.221   5.687  -2.107 -0.4762 -0.2843 -0.2292
  757MOL0     C 2101  10.107   5.598  -2.159 -0.8061 -0.7914 -0.7197
  757MOL0     C 2102   9.977   5.632  -2.071 -1.2683  0.3837 -0.0959
  757MOL0     C 2103   9.866   5.577  -2.150  0.1597  0.1165  0.0791
  757MOL0     C 2104   9.872   5.424  -2.182  0.7683  0.1009 -0.2967
  757MOL0    Cl 2105   9.713   5.332  -2.209  0.1569  0.1563 -0.0306
  757MOL0     C 2106  10.570   5.719  -1.550 -1.3898  0.2803 -0.2247
  757MOL0     C 2107  10.608   5.742  -1.419  0.8756 -0.6824 -0.4599
  757MOL0     O 2108  10.786   5.708  -1.208 -0.5895 -0.0786  0.4865
  757MOL0     C 2109  10.825   5.759  -0.949  0.8236  0.2779  1.2227
  757MOL0     C 2110  10.851   5.785  -0.815 -0.1143  0.0007 -0.1317
  757MOL0     N 2111  11.129   5.896  -0.145  0.8057  0.0857 -0.2823
  757MOL0     N 2112  11.153   5.866  -0.024  0.7703  0.5962  0.2173
  757MOL0     C 2113  11.425   6.570   0.380  0.2306  0.3914  0.2429
  757MOL0     C 2114  11.360   6.680   0.325 -0.4136  0.0591  0.0677
  757MOL0     C 2115  11.261   7.051   0.163  1.8182  0.2952  0.8235
  757MOL0     C 2116  11.211   7.070   0.033  0.1239  0.5189 -0.1877
  757MOL0     C 2117  11.248   7.167  -0.053  0.1751 -0.0335 -1.2018
  757MOL0     C 2118  11.349   7.254  -0.018 -0.3050  0.0894  0.3589
  757MOL0     O 2119  11.403   7.345  -0.107 -1.0672  0.1885  0.3799
  757MOL0     C 2120  11.445   7.282  -0.227 -0.4514  1.3830  0.1112
  757MOL0     C 2121  11.524   7.389  -0.300  0.5402  0.8807 -0.7214
  757MOL0     C 2122  11.598   7.508  -0.223 -0.4729  0.6707 -1.3587
  757MOL0     C 2123  11.699   7.458  -0.109 -0.3735  0.4373 -0.3737
  757MOL0     C 2124  11.800   7.363  -0.160  0.4081  0.0234  0.8487
  757MOL0     C 2125  11.894   7.301  -0.206  0.1215 -0.6222 -0.3029
  757MOL0     C 2126  11.401   7.242   0.114  0.6465 -0.3544  0.2325
  757MOL0     C 2127  11.357   7.143   0.207  0.4779  0.9784  0.7551
  757MOL0     H 2128  11.370   6.882   0.590 -1.3723 -0.0046 -0.3011
  757MOL0     H 2129  11.519   6.682   0.678  1.3588 -1.1875 -1.8030
  757MOL0     H 2130  11.559   6.273   0.614  3.2287  1.3057  0.7120
  757MOL0     H 2131  11.448   6.304   0.478  0.6772  2.9995 -1.5995
  757MOL0     H 2132  11.662   6.379   0.347  0.0630  2.7231  2.4877
  757MOL0     H 2133  11.740   6.352   0.491  1.3618 -1.8412  0.0989
  757MOL0     H 2134  11.780   6.173   0.319  0.0070 -2.5622 -0.7641
  757MOL0     H 2135  11.692   6.105   0.454 -2.1055 -1.0162 -1.0626
  757MOL0     H 2136  11.483   6.119   0.345 -0.0142 -1.6465 -1.0192
  757MOL0     H 2137  11.559   6.203   0.202 -1.3042  0.4228  0.4978
  757MOL0     H 2138  11.663   6.034   0.111  1.3596  1.0868  1.6554
  757MOL0     H 2139  11.660   5.942   0.265 -1.2900  2.5606  2.3116
  757MOL0     H 2140  11.405   5.937   0.240 -0.4176 -1.2627  1.0270
  757MOL0     H 2141  11.426   5.992   0.073 -0.0168  1.2835  1.7420
  757MOL0     H 2142  11.537   5.748   0.057  1.0088 -0.1262  0.8976
  757MOL0     H 2143  11.495   5.737   0.226  1.5338  0.0814  0.1029
  757MOL0     H 2144  11.252   5.725   0.172 -3.3380  0.0533 -3.2519
  757MOL0     H 2145  11.330   5.618   0.076 -1.7228 -0.4905  3.0172
  757MOL0     H 2146  11.401   5.705  -0.192 -0.4647  0.7970  0.2948
  757MOL0     H 2147  11.214   5.968  -0.407 -0.3770 -0.8056 -2.7175
  757MOL0     H 2148  11.304   5.833  -0.440 -1.2510  1.7824 -3.7207
  757MOL0     H 2149  11.039   5.733  -0.371 -1.1782  2.3157 -0.4289
  757MOL0     H 2150  11.140   5.697  -0.500  0.1965  0.0346 -1.3213
  757MOL0     H 2151  11.043   5.902  -0.619  2.7792 -1.4151  1.0317
  757MOL0     H 2152  11.000   5.977  -0.463 -2.3608 -1.0109  1.0911
  757MOL0     H 2153  10.833   5.813  -0.426 -1.3189  2.1819  0.4168
  757MOL0     H 2154  10.871   5.714  -0.564 -1.8592  1.2977 -2.5798
  757MOL0     H 2155  10.628   6.035  -0.754  0.7764  1.4628 -0.1290
  757MOL0     H 2156  10.467   5.968  -1.071 -4.8153  5.0472  1.2686
  757MOL0     H 2157  10.488   6.078  -0.943  0.9648  0.9982  0.0564
  757MOL0     H 2158  10.594   6.086  -1.083 -2.4099  1.1293 -1.0929
  757MOL0     H 2159  10.660   6.082  -1.410  0.5675 -0.3202 -1.0299
  757MOL0     H 2160  10.589   6.048  -1.654 -0.1965  0.5195 -0.2874
  757MOL0     H 2161  10.462   5.634  -1.771 -1.0052 -0.1764  3.9903
  757MOL0     H 2162  10.352   5.753  -1.706 -0.8517 -2.7047 -0.2543
  757MOL0     H 2163  10.327   5.863  -1.918 -0.4312 -0.4904 -0.7240
  757MOL0     H 2164  10.445   5.768  -1.999  0.2604 -1.4928 -0.4158
  757MOL0     H 2165  10.167   5.674  -1.909 -2.7881  0.9452 -4.8509
  757MOL0     H 2166  10.291   5.560  -1.968 -3.1690 -1.0064  0.4839
  757MOL0     H 2167  10.199   5.793  -2.120 -0.1281 -0.3339 -1.3019
  757MOL0     H 2168  10.307   5.657  -2.168 -0.4230 -4.4094  1.5319
  757MOL0     H 2169  10.131   5.492  -2.142  2.8656 -0.3654 -2.2939
  757MOL0     H 2170  10.088   5.621  -2.264 -0.2436  2.6760 -0.1753
  757MOL0     H 2171   9.986   5.589  -1.971  2.8282 -0.6071 -0.7115
  757MOL0     H 2172   9.953   5.738  -2.066 -0.9036  0.4998 -0.6399
  757MOL0     H 2173   9.859   5.625  -2.248 -0.7240 -0.0003  0.0781
  757MOL0     H 2174   9.771   5.600  -2.101 -0.5982 -3.1591  0.4195
  757MOL0     H 2175   9.906   5.386  -2.085  0.1377  4.1590  1.7455
  757MOL0     H 2176   9.945   5.399  -2.259 -0.1596 -2.4605 -0.4528
  757MOL0     H 2177  10.547   5.617  -1.580  2.6590 -0.0819 -2.8840
  757MOL0     H 2178  10.624   5.656  -1.354 -0.3017 -1.6782 -1.4347
  757MOL0     H 2179  10.893   5.690  -0.998  2.5229  0.4731  3.1471
  757MOL0     H 2180  10.920   5.722  -0.759  0.4214  0.0576 -0.7134
  757MOL0     H 2181  11.430   6.483   0.316 -1.3741  1.1094 -0.9180
  757MOL0     H 2182  11.323   6.683   0.223  0.1381  2.4056 -0.1249
  757MOL0     H 2183  11.131   7.002   0.003 -0.5401  0.8427  0.7891
  757MOL0     H 2184  11.213   7.168  -0.156  0.2324 -0.2218 -1.2244
  757MOL0     H 2185  11.512   7.201  -0.194  0.8232  0.8737 -3.2937
  757MOL0     H 2186  11.363   7.242  -0.287  0.7268 -0.3195 -0.4552
  757MOL0     H 2187  11.450   7.430  -0.371 -0.3957 -1.9755 -1.5463
  757MOL0     H 2188  11.594   7.324  -0.353  0.6215  1.8359 -1.8281
  757MOL0     H 2189  11.515   7.561  -0.174  0.2233  0.6617 -0.1415
  757MOL0     H 2190  11.650   7.577  -0.291  4.7866 -2.1497 -0.6906
  757MOL0     H 2191  11.631   7.405  -0.041 -3.3106  1.0517 -2.6318
  757MOL0     H 2192  11.755   7.542  -0.067  2.7147 -1.1002 -1.0840
  757MOL0     H 2193  11.979   7.252  -0.250 -0.8320 -2.2692 -0.4215
  757MOL0     H 2194  11.480   7.315   0.128 -1.0630  1.7020 -0.2549
  757MOL0     H 2195  11.403   7.140   0.306  3.2114  1.5367 -0.4174
  758MOL0     O 2196   3.876   1.583   9.887 -0.3941  0.1477  0.1587
  758MOL0     C 2197   3.902   1.459   9.869  0.6837 -0.1973  0.8688
  758MOL0     O 2198   3.893   1.387   9.760 -0.2760 -0.7890  0.1322
  758MOL0     C 2199   3.845   1.445   9.649 -0.3765 -0.5742  0.1845
  758MOL0     C 2200   3.923   1.543   9.575  0.7016 -0.2656 -0.1554
  758MOL0     C 2201   3.878   1.600   9.454  0.0084  0.3473 -0.7315
  758MOL0     C 2202   3.763   1.543   9.396 -0.8188  0.2365 -1.3042
  758MOL0     O 2203   3.735   1.583   9.272  0.2936  0.4160  0.5262
  758MOL0     C 2204   3.739   1.718   9.242 -1.1761  0.5366  0.1362
  758MOL0     C 2205   3.707   1.740   9.098  0.7085  0.4179 -0.2672
  758MOL0     C 2206   3.824   1.689   9.011 -0.3699 -1.4034 -0.0916
  758MOL0     C 2207   3.802   1.750   8.863 -0.4007  0.2546  0.3391
  758MOL0     C 2208   3.700   1.669   8.785 -0.2056  0.1470 -0.7201
  758MOL0     C 2209   3.675   1.731   8.640 -0.2336  0.2937 -0.2325
  758MOL0     C 2210   3.796   1.718   8.537 -0.0774  0.7227  1.1120
  758MOL0     C 2211   3.745   1.761   8.398 -0.4145 -0.6585  0.4877
  758MOL0     N 2212   3.847   1.722   8.296  0.3402 -0.1345  0.3475
  758MOL0     C 2213   3.976   1.779   8.298 -0.3142  1.3866 -0.0220
  758MOL0     C 2214   4.032   1.731   8.177  0.7498  0.3225  0.7170
  758MOL0     C 2215   4.179   1.740   8.135  0.3149  0.2566 -0.5497
  758MOL0     C 2216   4.198   1.801   7.996 -0.0099  0.3493 -0.0636
  758MOL0     C 2217   4.324   1.881   7.984 -0.6703 -0.2182 -0.6163
  758MOL0     C 2218   4.325   1.928   7.837  0.8432 -0.3056  1.0266
  758MOL0     O 2219   4.410   2.044   7.840 -0.7735  0.3050  0.2371
  758MOL0     C 2220   4.350   2.165   7.813  0.0143 -0.4055 -0.2574
  758MOL0     C 2221   4.299   2.245   7.916  0.2956  0.8538  0.2737
  758MOL0     C 2222   4.211   2.349   7.890 -0.3417 -0.2985 -0.5770
  758MOL0     C 2223   4.145   2.412   8.009  0.4052  0.1916  0.4593
  758MOL0     C 2224   4.201   2.393   7.753  0.4235 -0.2418  0.5691
  758MOL0     C 2225   4.111   2.504   7.703  1.1248 -0.2594 -1.1614
  758MOL0     O 2226   4.135   2.558   7.580  0.2972  0.0877  0.3326
  758MOL0     C 2227   4.053   2.660   7.545 -0.1910  0.5874 -0.1795
  758MOL0     C 2228   3.910   2.668   7.551  0.0217 -0.1734  0.0825
  758MOL0     C 2229   3.842   2.774   7.490  0.4650  0.0473 -0.0195
  758MOL0     C 2230   3.908   2.874   7.421 -0.1816 -0.1811 -0.2951
  758MOL0     O 2231   3.830   2.966   7.358  0.2706  0.2190  0.1563
  758MOL0     C 2232   3.898   3.062   7.271  0.5912 -0.1334  0.3368
  758MOL0     C 2233   3.793   3.091   7.155 -0.7074 -0.5983 -0.4627
  758MOL0     C 2234   3.636   3.068   7.189 -0.0678  0.1580  0.4356
  758MOL0     C 2235   3.572   3.072   7.050  0.2978 -0.8124  0.6358
  758MOL0     C 2236   3.575   3.219   6.986  0.0716 -0.2678 -0.4901
  758MOL0     C 2237   3.458   3.252   6.905 -0.0056 -0.3697  0.7542
  758MOL0     C 2238   3.447   3.394   6.848  0.0384  0.2513  0.5168
  758MOL0     C 2239   3.320   3.402   6.766  0.8458 -0.4811  1.0977
  758MOL0    Cl 2240   3.312   3.293   6.622 -0.4050 -0.1292 -0.0986
  758MOL0     C 2241   4.052   2.883   7.428 -0.5980  0.4685 -0.7068
  758MOL0     C 2242   4.118   2.770   7.490 -0.6514  0.9294  0.5336
  758MOL0     O 2243   4.021   2.544   7.784 -0.6177  0.7771 -0.3074
  758MOL0     C 2244   4.261   2.315   7.652 -0.4041  0.5215 -0.2046
  758MOL0     C 2245   4.334   2.202   7.678  1.0817  0.8686 -0.7645
  758MOL0     N 2246   3.933   1.658   8.109  0.4809  0.5103 -0.0105
  758MOL0     N 2247   3.823   1.674   8.175  0.1027 -0.4008 -0.6156
  758MOL0     C 2248   3.693   1.446   9.466  0.1709  0.0676  0.3605
  758MOL0     C 2249   3.728   1.395   9.593  0.3003 -0.2214  0.0525
  758MOL0     C 2250   3.945   1.393   9.989 -1.2425 -0.2816 -0.2871
  758MOL0     C 2251   3.965   1.476  10.102 -0.7190  0.5362 -0.4081
  758MOL0     C 2252   4.041   1.423  10.212 -0.1271 -0.1871  0.1725
  758MOL0     C 2253   4.063   1.291  10.232  1.0426 -0.3055 -0.0901
  758MOL0     O 2254   4.129   1.245  10.346  0.6678  0.0444 -0.6986
  758MOL0     C 2255   4.142   1.103  10.374 -0.5986 -1.4414  0.7232
  758MOL0     C 2256   4.253   1.033  10.291 -0.2096  0.3021  0.4925
  758MOL0     C 2257   4.265   0.902  10.364 -0.0980 -0.0217 -0.2278
  758MOL0     C 2258   4.360   0.805  10.296 -0.7220 -0.5941  0.4509
  758MOL0     C 2259   4.327   0.789  10.155  0.4046  0.5251  0.3822
  758MOL0     C 2260   4.294   0.776  10.037  0.0339 -0.0749 -0.2868
  758MOL0     C 2261   4.015   1.210  10.129  0.6590 -0.8003  0.3767
  758MOL0     C 2262   3.974   1.261  10.002 -0.4797  0.2584 -0.7660
  758MOL0     H 2263   4.014   1.580   9.621 -0.7360  3.4756  0.0560
  758MOL0     H 2264   3.946   1.676   9.419  0.2493  0.6548  0.3628
  758MOL0     H 2265   3.671   1.758   9.317  1.4067  0.9615  2.3932
  758MOL0     H 2266   3.838   1.762   9.253 -1.1548  1.4360 -2.7168
  758MOL0     H 2267   3.610   1.692   9.079  0.9358  0.1537 -0.7723
  758MOL0     H 2268   3.703   1.848   9.087  1.7645  0.8683  2.6965
  758MOL0     H 2269   3.915   1.737   9.049 -1.1581 -0.1532  0.2614
  758MOL0     H 2270   3.838   1.582   8.991 -0.7190 -1.3697 -0.5385
  758MOL0     H 2271   3.772   1.854   8.876  1.3518  0.6917  1.2019
  758MOL0     H 2272   3.886   1.756   8.794 -1.7020  1.7695 -1.2204
  758MOL0     H 2273   3.743   1.569   8.786 -1.2442 -0.4382  3.3211
  758MOL0     H 2274   3.600   1.653   8.828 -0.4757 -3.0497 -2.2551
  758MOL0     H 2275   3.579   1.698   8.600 -0.6154 -2.0021  2.2483
  758MOL0     H 2276   3.662   1.839   8.652 -2.5515  0.1239 -0.7287
  758MOL0     H 2277   3.885   1.778   8.556  1.3366 -0.5720 -1.0103
  758MOL0     H 2278   3.838   1.617   8.534 -1.0160  0.2948 -2.7588
  758MOL0     H 2279   3.726   1.869   8.404 -3.7368 -1.1387  0.6179
  758MOL0     H 2280   3.649   1.713   8.379 -3.0967  3.9616  0.8501
  758MOL0     H 2281   4.036   1.817   8.380 -1.7855  1.7565  0.9201
  758MOL0     H 2282   4.215   1.794   8.223  1.2424 -0.4591 -0.4767
  758MOL0     H 2283   4.224   1.640   8.135  1.2127  0.5886  1.9648
  758MOL0     H 2284   4.110   1.864   7.977  0.7484  1.0271 -1.4165
  758MOL0     H 2285   4.207   1.721   7.922  1.7004 -0.9267  1.4356
  758MOL0     H 2286   4.412   1.818   8.005 -1.2581 -0.6518  0.6353
  758MOL0     H 2287   4.330   1.961   8.058  0.8344 -0.1323 -0.7938
  758MOL0     H 2288   4.229   1.956   7.793  1.6990  1.4974  0.1850
  758MOL0     H 2289   4.365   1.849   7.773  0.4172 -0.9685  1.5646
  758MOL0     H 2290   4.303   2.202   8.015 -1.6537  0.1769  0.1032
  758MOL0     H 2291   4.185   2.400   8.110 -1.5589  1.1410  1.4059
  758MOL0     H 2292   4.149   2.521   7.999  0.0878  0.5991  3.7629
  758MOL0     H 2293   4.040   2.381   8.008  0.6023 -0.6836  2.6432
  758MOL0     H 2294   3.865   2.578   7.593  0.5993  0.0693  1.2470
  758MOL0     H 2295   3.734   2.773   7.490  0.3766 -1.3652  2.7241
  758MOL0     H 2296   3.934   3.152   7.321  0.6764  0.0821 -0.1063
  758MOL0     H 2297   3.992   3.024   7.232  1.0372  1.6846 -0.4591
  758MOL0     H 2298   3.800   3.196   7.125  0.1114 -1.3175 -3.0484
  758MOL0     H 2299   3.830   3.027   7.075  2.2719  0.3757 -0.0063
  758MOL0     H 2300   3.602   3.135   7.269 -1.3543  1.5124 -1.1728
  758MOL0     H 2301   3.627   2.969   7.235  3.3809 -0.5588 -0.1747
  758MOL0     H 2302   3.631   3.017   6.975  1.4743  1.4278 -0.1734
  758MOL0     H 2303   3.472   3.029   7.056 -1.2579  2.3943 -0.1666
  758MOL0     H 2304   3.671   3.228   6.934  0.3026  0.2120  0.0126
  758MOL0     H 2305   3.576   3.289   7.070 -1.5748 -0.6991 -0.0658
  758MOL0     H 2306   3.467   3.176   6.827  4.3660 -0.2041  0.8039
  758MOL0     H 2307   3.366   3.237   6.962 -0.2190  2.3915  1.2912
  758MOL0     H 2308   3.528   3.409   6.777 -1.8831 -0.6320 -2.0023
  758MOL0     H 2309   3.454   3.472   6.925  0.7729  0.4241  0.2813
  758MOL0     H 2310   3.301   3.505   6.734  0.7614 -0.3764  1.4702
  758MOL0     H 2311   3.228   3.378   6.820 -0.0356  2.6216  1.1550
  758MOL0     H 2312   4.120   2.957   7.386 -2.1302  0.8451 -2.6887
  758MOL0     H 2313   4.223   2.745   7.486 -0.7141  0.6857  0.3504
  758MOL0     H 2314   4.242   2.349   7.551 -1.8329  0.8678  0.1655
  758MOL0     H 2315   4.386   2.150   7.598 -1.2580 -3.7104  0.3778
  758MOL0     H 2316   3.603   1.423   9.409  1.5030 -0.9237 -1.4706
  758MOL0     H 2317   3.677   1.311   9.639  2.1744  0.0174  2.7870
  758MOL0     H 2318   3.948   1.583  10.094  1.8242  1.0036 -0.4018
  758MOL0     H 2319   4.066   1.492  10.292  1.9770 -2.1215  1.2966
  758MOL0     H 2320   4.180   1.101  10.477 -2.1914 -3.5193  1.3495
  758MOL0     H 2321   4.045   1.052  10.367  0.1978 -2.9966  0.6102
  758MOL0     H 2322   4.343   1.093  10.305 -0.0468  0.0039  0.7314
  758MOL0     H 2323   4.227   1.005  10.189  0.2762 -1.4896  0.8377
  758MOL0     H 2324   4.163   0.860  10.366 -0.9501  1.7270 -2.1936
  758MOL0     H 2325   4.310   0.911  10.463  0.0830 -2.6810  0.0022
  758MOL0     H 2326   4.365   0.709  10.348 -2.6907 -0.0905  1.6616
  758MOL0     H 2327   4.460   0.850  10.300 -0.7759 -0.5051  0.9284
  758MOL0     H 2328   4.265   0.776   9.933 -0.2568 -1.4276 -0.2232
  758MOL0     H 2329   4.014   1.101  10.136 -0.3254 -0.8463 -0.2935
  758MOL0     H 2330   3.959   1.187   9.925 -1.7933  1.0551 -1.3100
  759MOL0     O 2331   4.763   7.528   7.079 -0.3195  0.5881 -0.4054
  759MOL0     C 2332   4.838   7.619   7.057 -0.7945 -0.2778  0.5892
  759MOL0     O 2333   4.943   7.611   6.967  0.2143 -1.1994  0.8929
  759MOL0     C 2334   4.952   7.493   6.905 -0.7366 -0.1826 -1.2105
  759MOL0     C 2335   4.929   7.486   6.766  0.7456 -0.1733 -0.0522
  759MOL0     C 2336   4.954   7.365   6.705  0.4100  0.5506 -0.1968
  759MOL0     C 2337   4.996   7.251   6.768 -0.5770 -0.0732 -0.2702
  759MOL0     O 2338   5.015   7.137   6.698 -0.8390  0.6763  0.6547
  759MOL0     C 2339   4.885   7.095   6.627 -0.0559  0.1486 -0.0793
  759MOL0     C 2340   4.860   6.943   6.644 -1.1567 -0.3925  1.0446
  759MOL0     C 2341   4.963   6.861   6.556  0.6003  0.1129 -0.2564
  759MOL0     C 2342   4.935   6.704   6.543 -0.2042 -0.5204  0.3925
  759MOL0     C 2343   5.065   6.636   6.512  0.0883 -0.2980 -0.0306
  759MOL0     C 2344   5.131   6.579   6.638  0.0619  0.2298  0.7515
  759MOL0     C 2345   5.266   6.502   6.580 -0.0231 -0.1676  0.5597
  759MOL0     C 2346   5.397   6.559   6.620 -0.8296  0.0866  0.3817
  759MOL0     N 2347   5.436   6.687   6.551 -0.1658 -0.6204  0.5885
  759MOL0     C 2348   5.471   6.817   6.599  0.2504  0.4471 -0.3226
  759MOL0     C 2349   5.503   6.880   6.490  0.1219  0.8497 -0.3277
  759MOL0     C 2350   5.540   7.021   6.487 -0.4048 -0.8442  0.0313
  759MOL0     C 2351   5.595   7.071   6.347 -0.6454 -0.0710 -0.0914
  759MOL0     C 2352   5.730   7.002   6.292  0.1166  0.2753 -0.3946
  759MOL0     C 2353   5.715   6.965   6.145  0.9666 -0.7616  0.4585
  759MOL0     O 2354   5.809   6.866   6.126  0.3785  0.3649 -0.3635
  759MOL0     C 2355   5.817   6.797   6.005  0.0550 -0.1954  0.9267
  759MOL0     C 2356   5.728   6.809   5.897 -1.3748 -0.2427  0.8565
  759MOL0     C 2357   5.734   6.731   5.784 -0.5125 -0.7294 -0.1541
  759MOL0     C 2358   5.614   6.742   5.690 -0.7506 -0.3818  0.7122
  759MOL0     C 2359   5.849   6.656   5.758 -0.0091 -1.3519 -0.8734
  759MOL0     C 2360   5.886   6.597   5.627 -0.1380  0.0131 -0.2000
  759MOL0     O 2361   6.002   6.524   5.620 -0.7977  0.3811 -0.2866
  759MOL0     C 2362   6.036   6.453   5.507  0.4199 -0.0273 -0.4622
  759MOL0     C 2363   5.953   6.352   5.465 -0.7333  0.2372  0.4646
  759MOL0     C 2364   5.989   6.266   5.365  1.0572 -0.5778  0.6400
  759MOL0     C 2365   6.112   6.273   5.312 -0.8496 -0.0881  0.8455
  759MOL0     O 2366   6.150   6.185   5.218 -0.4638 -0.1972  1.1345
  759MOL0     C 2367   6.063   6.111   5.137  0.3175  0.4511  0.4233
  759MOL0     C 2368   6.136   5.995   5.065  0.4229  0.2065  0.4909
  759MOL0     C 2369   6.285   6.028   5.027  0.0255  0.3625  1.0931
  759MOL0     C 2370   6.290   6.123   4.905 -0.5984  0.3258  0.2914
  759MOL0     C 2371   6.434   6.168   4.873 -1.0455 -0.1521  1.0602
  759MOL0     C 2372   6.437   6.280   4.771  0.0824  0.8414 -0.5339
  759MOL0     C 2373   6.346   6.241   4.644  0.0734 -0.5177  0.5478
  759MOL0     C 2374   6.383   6.324   4.519  0.4694  0.4693 -1.0405
  759MOL0    Cl 2375   6.309   6.484   4.532  0.1861  0.0845 -0.3289
  759MOL0     C 2376   6.196   6.381   5.358 -0.8225 -0.1727  0.1165
  759MOL0     C 2377   6.158   6.477   5.455 -0.7577  0.2464  0.2028
  759MOL0     O 2378   5.812   6.618   5.526 -0.0538  0.0521 -0.0853
  759MOL0     C 2379   5.941   6.645   5.866  0.7435  0.7040 -0.1921
  759MOL0     C 2380   5.921   6.709   5.989 -0.2789  0.1474  0.0991
  759MOL0     N 2381   5.500   6.790   6.376  0.8402 -0.6494 -0.4589
  759MOL0     N 2382   5.459   6.683   6.416 -0.9851 -0.8904  0.9498
  759MOL0     C 2383   5.015   7.261   6.908 -0.0476  0.1947  0.7997
  759MOL0     C 2384   4.999   7.383   6.974  0.1653 -0.2136 -0.0267
  759MOL0     C 2385   4.800   7.751   7.110  0.4053  0.1523  0.6246
  759MOL0     C 2386   4.883   7.861   7.086  0.2631  0.7429 -0.0296
  759MOL0     C 2387   4.844   7.990   7.123  0.6722 -0.3920 -0.6903
  759MOL0     C 2388   4.716   8.017   7.177 -0.2871 -0.5828 -0.7855
  759MOL0     O 2389   4.669   8.134   7.229 -0.5663 -0.3814 -0.4770
  759MOL0     C 2390   4.764   8.202   7.314  0.1927 -0.4577 -0.1224
  759MOL0     C 2391   4.739   8.353   7.334  0.4895  0.6469  0.3590
  759MOL0     C 2392   4.753   8.422   7.196  0.0093  0.0800  1.7432
  759MOL0     C 2393   4.642   8.403   7.092 -1.0488 -0.1288  0.2874
  759MOL0     C 2394   4.654   8.492   6.975  0.1170  0.7873  0.1098
  759MOL0     C 2395   4.666   8.573   6.882 -0.1078 -0.7653 -0.2367
  759MOL0     C 2396   4.621   7.911   7.174 -0.8875  0.2032 -0.1155
  759MOL0     C 2397   4.661   7.781   7.139 -0.7403  0.4486 -1.3417
  759MOL0     H 2398   4.903   7.577   6.713  2.9505 -1.1057 -2.9915
  759MOL0     H 2399   4.934   7.354   6.599 -1.2403  1.2829 -0.0040
  759MOL0     H 2400   4.796   7.140   6.672  1.9857  0.2124  4.5309
  759MOL0     H 2401   4.880   7.117   6.520 -0.0462  2.2489  0.3084
  759MOL0     H 2402   4.858   6.917   6.750  0.3611  1.0276  1.4686
  759MOL0     H 2403   4.766   6.919   6.593  0.1401 -2.8720 -0.3094
  759MOL0     H 2404   4.980   6.909   6.460  4.0450  0.3764  0.3502
  759MOL0     H 2405   5.055   6.872   6.615  1.3025 -0.6775 -1.1651
  759MOL0     H 2406   4.898   6.679   6.643 -1.6765  1.0190  0.2684
  759MOL0     H 2407   4.873   6.675   6.457  1.8713 -1.6798 -0.8065
  759MOL0     H 2408   5.055   6.547   6.449  0.0444 -1.1098  1.1018
  759MOL0     H 2409   5.136   6.692   6.451  0.2331 -1.0029 -0.5201
  759MOL0     H 2410   5.147   6.666   6.703 -0.3845  1.8989 -1.2247
  759MOL0     H 2411   5.060   6.506   6.677  0.0044 -0.6722 -0.9353
  759MOL0     H 2412   5.263   6.401   6.622 -1.8402 -0.1307  0.5699
  759MOL0     H 2413   5.264   6.480   6.473 -0.7324 -3.0053  1.0720
  759MOL0     H 2414   5.475   6.487   6.592 -1.4781 -0.4537 -0.0815
  759MOL0     H 2415   5.408   6.569   6.728  3.2510  0.1823  0.1072
  759MOL0     H 2416   5.448   6.854   6.699 -0.1674  0.9922 -0.6154
  759MOL0     H 2417   5.452   7.084   6.498  1.4845  1.9928  0.1190
  759MOL0     H 2418   5.608   7.037   6.571 -0.2532 -2.0773  0.1599
  759MOL0     H 2419   5.615   7.178   6.357  0.6840  0.0955 -3.3994
  759MOL0     H 2420   5.519   7.067   6.268  0.8083  0.7518 -1.5968
  759MOL0     H 2421   5.774   6.921   6.351 -1.3269 -0.5472 -0.4019
  759MOL0     H 2422   5.812   7.075   6.286  1.8184 -1.4317  0.9129
  759MOL0     H 2423   5.721   7.051   6.077 -1.5089 -0.6851  0.2488
  759MOL0     H 2424   5.622   6.908   6.132 -0.5953  2.0107 -1.7289
  759MOL0     H 2425   5.648   6.882   5.905  0.2994  1.4662  3.4705
  759MOL0     H 2426   5.524   6.767   5.747 -2.0522 -1.8808 -0.5669
  759MOL0     H 2427   5.640   6.824   5.622  2.2166 -0.8877  1.1264
  759MOL0     H 2428   5.589   6.646   5.644  0.3240  0.7373 -2.4990
  759MOL0     H 2429   5.865   6.335   5.526 -3.2404  2.6795 -2.1310
  759MOL0     H 2430   5.928   6.185   5.328  0.4335  1.3791 -3.1322
  759MOL0     H 2431   5.980   6.061   5.187 -1.7351  1.5825 -1.6738
  759MOL0     H 2432   6.012   6.169   5.060  0.0675  0.3771  0.5340
  759MOL0     H 2433   6.139   5.898   5.117  2.9620 -0.9122 -1.4662
  759MOL0     H 2434   6.077   5.978   4.975  0.1387  2.5819  0.1647
  759MOL0     H 2435   6.328   5.929   5.008 -1.3221 -0.5194  2.3658
  759MOL0     H 2436   6.332   6.071   5.117 -0.1701  0.0898  1.3267
  759MOL0     H 2437   6.251   6.067   4.820  1.0850  1.9154 -1.6207
  759MOL0     H 2438   6.225   6.207   4.931  0.7337  1.6461 -0.4485
  759MOL0     H 2439   6.493   6.083   4.837 -1.6835  0.2873 -1.1698
  759MOL0     H 2440   6.481   6.204   4.965  1.4067  3.2634 -1.2995
  759MOL0     H 2441   6.404   6.375   4.814 -0.4017  0.6089 -0.3785
  759MOL0     H 2442   6.542   6.288   4.742  0.8301 -1.1996  1.3523
  759MOL0     H 2443   6.239   6.255   4.656 -0.4878 -2.4688 -1.4780
  759MOL0     H 2444   6.379   6.138   4.623  2.0660  0.2038 -0.1335
  759MOL0     H 2445   6.356   6.284   4.421  1.7903  3.1700 -2.6245
  759MOL0     H 2446   6.492   6.333   4.524  0.6888 -0.4079 -3.2781
  759MOL0     H 2447   6.298   6.367   5.326 -1.0406 -1.4141 -0.1081
  759MOL0     H 2448   6.239   6.541   5.489 -0.1998 -1.0856  1.4773
  759MOL0     H 2449   6.027   6.581   5.849 -1.4371 -1.7608 -2.9920
  759MOL0     H 2450   5.995   6.692   6.067 -2.0897 -2.6295  1.3615
  759MOL0     H 2451   5.057   7.178   6.962  0.8003 -1.0053 -1.5656
  759MOL0     H 2452   5.035   7.391   7.077  1.4001  2.7008 -0.5777
  759MOL0     H 2453   4.979   7.849   7.037 -0.1534 -1.1211 -0.4778
  759MOL0     H 2454   4.907   8.076   7.100 -1.0545  1.6365  1.5302
  759MOL0     H 2455   4.764   8.155   7.413 -0.8168 -1.9205 -0.7833
  759MOL0     H 2456   4.868   8.199   7.281  0.2251  0.8688 -0.1793
  759MOL0     H 2457   4.816   8.384   7.406  0.5319  1.2513  0.0594
  759MOL0     H 2458   4.643   8.368   7.385  1.4000  1.6940  1.8625
  759MOL0     H 2459   4.848   8.390   7.153 -1.4833 -0.4053 -1.5426
  759MOL0     H 2460   4.752   8.531   7.202  1.4143  0.3807 -1.5593
  759MOL0     H 2461   4.546   8.419   7.142 -0.9739 -2.6451  1.3947
  759MOL0     H 2462   4.622   8.299   7.065 -2.6243  0.3367 -0.5124
  759MOL0     H 2463   4.680   8.641   6.801  1.6192  0.0581  0.6786
  759MOL0     H 2464   4.519   7.942   7.196 -0.4495  3.6832 -2.2704
  759MOL0     H 2465   4.580   7.709   7.128  0.4289 -1.3826  1.1487
  760MOL0     O 2466   8.244   3.787   1.742  0.5918  0.9086 -0.7119
  760MOL0     C 2467   8.263   3.708   1.836 -0.9082 -0.0490  0.1225
  760MOL0     O 2468   8.190   3.691   1.949 -0.2180  1.1747  0.0280
  760MOL0     C 2469   8.085   3.776   1.967  0.6035  0.5213 -0.0321
  760MOL0     C 2470   7.965   3.715   1.945  0.6038 -0.3998 -0.0096
  760MOL0     C 2471   7.844   3.778   1.974 -0.4125 -0.1896  0.2774
  760MOL0     C 2472   7.847   3.911   2.020 -0.1570 -0.2264 -0.2266
  760MOL0     O 2473   7.720   3.969   2.032  0.0436 -0.6664  0.5453
  760MOL0     C 2474   7.691   4.113   2.065 -1.3491  0.3590 -0.0578
  760MOL0     C 2475   7.534   4.117   2.052 -0.2405  0.0402 -0.0163
  760MOL0     C 2476   7.473   4.031   2.174  0.4475 -0.7320  0.0977
  760MOL0     C 2477   7.318   4.023   2.152  0.0087 -0.2777 -1.0547
  760MOL0     C 2478   7.249   3.958   2.273 -0.5340 -0.8614 -0.3781
  760MOL0     C 2479   7.101   3.931   2.257  0.5749 -0.1298 -0.3539
  760MOL0     C 2480   7.048   3.821   2.348 -1.0375 -0.4934 -0.5895
  760MOL0     C 2481   6.910   3.856   2.395 -0.0603  0.4210  0.0080
  760MOL0     N 2482   6.841   3.751   2.472 -0.4572  0.2670  0.7202
  760MOL0     C 2483   6.733   3.692   2.426 -0.1182 -0.3323  0.1275
  760MOL0     C 2484   6.677   3.633   2.531  0.4807  0.8359 -0.7362
  760MOL0     C 2485   6.544   3.550   2.540  0.3716 -1.2013  0.5797
  760MOL0     C 2486   6.566   3.417   2.614  0.0491 -0.2292 -0.4701
  760MOL0     C 2487   6.635   3.317   2.520  0.1485 -0.0363  0.8854
  760MOL0     C 2488   6.628   3.173   2.587  0.2227 -0.0188  0.5097
  760MOL0     O 2489   6.644   3.097   2.477  0.3057 -0.3435 -0.2740
  760MOL0     C 2490   6.750   3.008   2.471  0.4615 -0.6517 -0.4764
  760MOL0     C 2491   6.873   3.025   2.522 -0.0388 -0.1156 -1.0474
  760MOL0     C 2492   6.981   2.934   2.499  0.6968 -0.4139 -0.1666
  760MOL0     C 2493   7.103   2.962   2.567 -0.3297 -0.3916 -0.3274
  760MOL0     C 2494   6.953   2.828   2.408  0.0844 -0.1981  0.6268
  760MOL0     C 2495   7.063   2.723   2.380  0.0125 -0.9706  0.7587
  760MOL0     O 2496   7.067   2.594   2.427  0.0214  0.4578 -0.7919
  760MOL0     C 2497   6.947   2.544   2.440  0.9607  0.6620 -0.5408
  760MOL0     C 2498   6.908   2.463   2.334  0.1285  0.9993  0.5226
  760MOL0     C 2499   6.786   2.390   2.340  0.0366 -1.0701  0.5535
  760MOL0     C 2500   6.705   2.403   2.451 -0.2349 -0.4265  0.1424
  760MOL0     O 2501   6.589   2.331   2.452 -0.2980 -0.4932 -0.6084
  760MOL0     C 2502   6.474   2.399   2.514  0.7344  0.0270  0.0579
  760MOL0     C 2503   6.347   2.320   2.461  0.3169  0.0030  0.1762
  760MOL0     C 2504   6.356   2.165   2.475  0.3340  1.3288  0.6390
  760MOL0     C 2505   6.224   2.099   2.418  0.0617 -0.6875 -0.1592
  760MOL0     C 2506   6.222   1.948   2.438  0.4281 -0.8495 -0.1289
  760MOL0     C 2507   6.325   1.861   2.373  1.0046 -0.7967 -0.1195
  760MOL0     C 2508   6.290   1.715   2.413  0.3704 -0.4080 -0.3661
  760MOL0     C 2509   6.147   1.678   2.386  0.2903  0.3797  0.3101
  760MOL0    Cl 2510   6.119   1.501   2.392  0.7785 -0.7528  0.5259
  760MOL0     C 2511   6.743   2.483   2.562  0.4270  0.0685  0.4902
  760MOL0     C 2512   6.854   2.559   2.551 -1.1979 -1.0251 -0.6975
  760MOL0     O 2513   7.157   2.777   2.322 -0.5124 -0.1188  0.1329
  760MOL0     C 2514   6.832   2.824   2.343  0.5666  0.4776 -0.2481
  760MOL0     C 2515   6.725   2.907   2.381 -0.0300  0.3053  0.3751
  760MOL0     N 2516   6.760   3.637   2.633  0.0003  0.7589 -0.0040
  760MOL0     N 2517   6.862   3.715   2.602 -0.4330 -0.3673 -0.0173
  760MOL0     C 2518   7.973   3.980   2.036  0.1456 -0.3781  0.1183
  760MOL0     C 2519   8.090   3.900   2.019 -0.1913  0.1824  0.3815
  760MOL0     C 2520   8.386   3.611   1.825  0.2364  0.1494  0.8950
  760MOL0     C 2521   8.413   3.519   1.915  0.7910  0.1217  0.2526
  760MOL0     C 2522   8.509   3.420   1.897 -0.3003 -1.2710 -0.4543
  760MOL0     C 2523   8.582   3.420   1.780 -0.2528 -0.1548 -0.2396
  760MOL0     O 2524   8.673   3.319   1.764 -0.3991 -0.6821  0.2159
  760MOL0     C 2525   8.750   3.304   1.645 -0.4514 -0.1760 -0.2222
  760MOL0     C 2526   8.833   3.180   1.662 -0.8684 -0.4380 -0.5143
  760MOL0     C 2527   8.898   3.151   1.522  0.3184  1.0513 -0.2524
  760MOL0     C 2528   8.951   3.012   1.508 -1.0964  0.1004  0.0855
  760MOL0     C 2529   9.063   2.983   1.410  0.3066  0.1571  0.3736
  760MOL0     C 2530   9.157   2.960   1.334 -0.3893 -0.0743  0.1827
  760MOL0     C 2531   8.551   3.519   1.681  0.4258 -0.2561 -0.3356
  760MOL0     C 2532   8.447   3.606   1.700  0.1182  0.4753  0.0509
  760MOL0     H 2533   7.960   3.622   1.889  2.0989 -0.7034  0.3388
  760MOL0     H 2534   7.749   3.733   1.946 -0.4403  1.3183 -2.3600
  760MOL0     H 2535   7.730   4.154   2.158 -2.0048 -1.8080  1.2479
  760MOL0     H 2536   7.750   4.163   1.988  3.7208 -2.3496  1.5742
  760MOL0     H 2537   7.500   4.221   2.048 -1.0580 -0.1144  1.9867
  760MOL0     H 2538   7.500   4.077   1.956  0.7276  3.3786 -1.9089
  760MOL0     H 2539   7.515   3.930   2.185 -1.1535 -1.4355  0.0142
  760MOL0     H 2540   7.490   4.081   2.269 -2.0656 -0.9999  0.7702
  760MOL0     H 2541   7.279   4.125   2.149  0.2941 -0.1836 -1.6819
  760MOL0     H 2542   7.303   3.973   2.056  1.1839  0.5584 -1.6873
  760MOL0     H 2543   7.309   3.871   2.302  0.1271 -0.2405  0.1677
  760MOL0     H 2544   7.261   4.034   2.351  0.3206  2.3147 -3.3372
  760MOL0     H 2545   7.054   4.029   2.270 -0.4671  0.1613 -4.7667
  760MOL0     H 2546   7.079   3.902   2.154 -1.4346 -0.6100  0.1688
  760MOL0     H 2547   7.035   3.723   2.301 -1.5635 -1.0815  0.7400
  760MOL0     H 2548   7.120   3.814   2.429  0.3052 -0.6188 -1.7589
  760MOL0     H 2549   6.862   3.885   2.301 -1.5743  1.6007  1.0751
  760MOL0     H 2550   6.910   3.946   2.458 -0.7823 -0.8578  1.9296
  760MOL0     H 2551   6.686   3.686   2.328  1.6843  1.1846 -0.8748
  760MOL0     H 2552   6.468   3.612   2.588  0.1878  0.2257 -1.4116
  760MOL0     H 2553   6.506   3.541   2.438  0.5433  0.2298  0.3611
  760MOL0     H 2554   6.465   3.387   2.644 -0.4846 -0.4208 -2.3687
  760MOL0     H 2555   6.620   3.430   2.709  0.9022  0.5015 -1.0327
  760MOL0     H 2556   6.730   3.362   2.491 -1.5230  2.5310 -1.0197
  760MOL0     H 2557   6.572   3.312   2.431  0.2258 -1.4307  0.8885
  760MOL0     H 2558   6.528   3.162   2.631  0.3223 -2.5875  0.2464
  760MOL0     H 2559   6.699   3.161   2.670  0.1026  3.2825  1.2270
  760MOL0     H 2560   6.896   3.113   2.581 -2.4185  0.9559 -1.6327
  760MOL0     H 2561   7.113   2.903   2.659  5.1443 -0.8395 -0.8935
  760MOL0     H 2562   7.191   2.929   2.512  0.8962  1.9617  0.0915
  760MOL0     H 2563   7.114   3.067   2.596 -2.2750  0.0918 -1.1771
  760MOL0     H 2564   6.980   2.446   2.255 -0.3442  0.9872  0.0854
  760MOL0     H 2565   6.768   2.318   2.262 -1.7928 -0.8250  0.6905
  760MOL0     H 2566   6.471   2.391   2.623  1.3758 -2.3466 -0.0496
  760MOL0     H 2567   6.482   2.504   2.483  0.5743  0.1248  0.3386
  760MOL0     H 2568   6.270   2.354   2.530 -0.6757 -0.5865 -0.6224
  760MOL0     H 2569   6.323   2.354   2.360  1.2183 -0.4895 -0.2208
  760MOL0     H 2570   6.361   2.133   2.579  4.1343 -0.9152 -0.0478
  760MOL0     H 2571   6.443   2.119   2.427 -1.2207  0.2470 -1.3438
  760MOL0     H 2572   6.136   2.149   2.458 -0.5465  0.0673 -2.2936
  760MOL0     H 2573   6.228   2.116   2.310  0.7395  0.5283  0.0406
  760MOL0     H 2574   6.123   1.920   2.401  0.1612 -1.6410  1.1114
  760MOL0     H 2575   6.210   1.931   2.546  2.6918  0.1989  0.3275
  760MOL0     H 2576   6.336   1.878   2.265 -0.3589  2.3073  0.0984
  760MOL0     H 2577   6.422   1.881   2.419  1.8521 -2.3876 -1.1247
  760MOL0     H 2578   6.313   1.694   2.517  2.3603 -1.4531 -0.9699
  760MOL0     H 2579   6.354   1.645   2.359  0.6847 -0.1734 -0.3053
  760MOL0     H 2580   6.123   1.708   2.284 -1.4948  0.3646  0.6849
  760MOL0     H 2581   6.074   1.718   2.457 -0.6142 -0.4731 -0.1216
  760MOL0     H 2582   6.690   2.505   2.654  1.0051  1.3977  0.5286
  760MOL0     H 2583   6.891   2.627   2.627  1.4839 -4.2598  1.2104
  760MOL0     H 2584   6.805   2.747   2.271  3.0008  0.2933 -1.0815
  760MOL0     H 2585   6.628   2.885   2.338  1.2542 -0.4528 -2.3547
  760MOL0     H 2586   7.979   4.083   2.069  0.0024 -0.0259 -0.9228
  760MOL0     H 2587   8.178   3.957   2.047  0.5178 -1.2239  1.1045
  760MOL0     H 2588   8.337   3.516   1.992  2.2121 -1.0470  1.6712
  760MOL0     H 2589   8.520   3.344   1.973  0.4278  1.3543  2.2266
  760MOL0     H 2590   8.689   3.294   1.555 -1.2359  3.0369 -0.1461
  760MOL0     H 2591   8.814   3.391   1.626 -0.2458 -0.0920  0.8066
  760MOL0     H 2592   8.770   3.099   1.698 -1.4315 -0.4009 -1.3874
  760MOL0     H 2593   8.913   3.197   1.734  1.5798 -3.4729 -2.2753
  760MOL0     H 2594   8.972   3.232   1.519  0.2454  1.1084 -2.9329
  760MOL0     H 2595   8.838   3.164   1.431  1.1434 -0.2710 -1.0234
  760MOL0     H 2596   8.864   2.950   1.482 -2.3190  2.3228 -1.4289
  760MOL0     H 2597   8.995   2.986   1.605  0.8917  0.1656 -0.7420
  760MOL0     H 2598   9.244   2.935   1.278 -0.6804 -1.5706  0.3635
  760MOL0     H 2599   8.599   3.529   1.584  3.6539 -0.1621  1.1745
  760MOL0     H 2600   8.412   3.657   1.611 -0.3566 -1.2297 -0.7711
  761MOL0     O 2601   5.759   3.150   2.253  0.2174 -0.1804 -0.1340
  761MOL0     C 2602   5.829   3.132   2.149  0.4145  0.5383  0.1541
  761MOL0     O 2603   5.965   3.107   2.152  0.3300  0.5900 -1.1608
  761MOL0     C 2604   6.026   3.083   2.271 -0.1074 -0.4581  0.6649
  761MOL0     C 2605   6.015   2.959   2.344 -0.2575 -0.6195 -0.4740
  761MOL0     C 2606   6.095   2.932   2.450 -0.1998  0.1443  0.2498
  761MOL0     C 2607   6.175   3.030   2.497  0.5211  0.2081  0.2281
  761MOL0     O 2608   6.242   3.006   2.608 -0.3953  0.3004  0.4244
  761MOL0     C 2609   6.216   3.086   2.731  0.2067 -0.7729  0.4311
  761MOL0     C 2610   6.082   3.040   2.794  0.4407  0.4664  0.3670
  761MOL0     C 2611   6.053   3.120   2.921 -0.0791 -0.4456  0.4253
  761MOL0     C 2612   5.909   3.126   2.963 -0.6413  0.2608 -0.4030
  761MOL0     C 2613   5.887   3.232   3.078  0.2660  1.1497 -0.7466
  761MOL0     C 2614   5.946   3.371   3.042 -0.0007 -0.3797 -0.7844
  761MOL0     C 2615   5.906   3.454   3.162  0.8631  0.4255  0.0412
  761MOL0     C 2616   5.978   3.587   3.175 -0.2092 -0.0690  0.1301
  761MOL0     N 2617   5.917   3.693   3.094  0.1973 -0.1174 -0.5003
  761MOL0     C 2618   5.797   3.749   3.116  0.9669  0.7365 -0.0093
  761MOL0     C 2619   5.792   3.852   3.028  0.1751  0.7552  0.0142
  761MOL0     C 2620   5.665   3.940   2.999 -0.0410  0.9362  0.6327
  761MOL0     C 2621   5.622   4.035   3.115 -0.5714 -0.7789  0.0394
  761MOL0     C 2622   5.504   4.122   3.074  0.1514 -0.1394  0.8257
  761MOL0     C 2623   5.369   4.037   3.044  0.1696 -0.2903  0.5058
  761MOL0     O 2624   5.349   3.914   3.116  0.3909 -0.0149  0.4829
  761MOL0     C 2625   5.314   3.932   3.249 -0.0141  0.9083 -0.2584
  761MOL0     C 2626   5.283   4.057   3.318  0.2242  0.0716  0.3296
  761MOL0     C 2627   5.250   4.060   3.453 -0.0124  1.0709  0.7257
  761MOL0     C 2628   5.250   4.189   3.531 -0.2957 -0.2923  0.2473
  761MOL0     C 2629   5.234   3.935   3.517 -0.3114 -0.1040 -0.9798
  761MOL0     C 2630   5.179   3.935   3.653  0.6103 -0.8874  0.6554
  761MOL0     O 2631   5.034   3.930   3.657  0.5294  0.3028 -0.1183
  761MOL0     C 2632   4.980   3.906   3.779  0.9157  0.3880 -0.0107
  761MOL0     C 2633   4.956   4.009   3.867 -0.1305  0.1454 -0.0052
  761MOL0     C 2634   4.896   3.989   3.996 -1.4125 -0.3856 -0.3462
  761MOL0     C 2635   4.876   3.862   4.043  0.4024  0.2519  0.5270
  761MOL0     O 2636   4.824   3.820   4.163 -0.0542 -0.0937  0.2750
  761MOL0     C 2637   4.834   3.910   4.273  0.7338  0.3065  0.8898
  761MOL0     C 2638   4.960   3.879   4.359  0.5948  0.4969 -0.7879
  761MOL0     C 2639   4.965   3.963   4.486  0.8587 -0.1793 -0.4914
  761MOL0     C 2640   5.099   3.981   4.556 -0.1706  0.6364 -0.4768
  761MOL0     C 2641   5.179   4.108   4.504 -0.6470 -0.6103  0.3285
  761MOL0     C 2642   5.119   4.222   4.577  0.4890 -1.1948 -0.7401
  761MOL0     C 2643   5.179   4.361   4.557 -0.1051  0.4505 -0.8452
  761MOL0     C 2644   5.311   4.383   4.614  0.5795 -0.1403 -0.1446
  761MOL0    Cl 2645   5.329   4.359   4.797 -0.2733 -0.1740  0.7278
  761MOL0     C 2646   4.905   3.753   3.959 -0.2708 -0.5180  0.4667
  761MOL0     C 2647   4.951   3.782   3.830 -1.0429 -0.3452  0.9082
  761MOL0     O 2648   5.260   3.958   3.746  0.6191  0.3351  0.0607
  761MOL0     C 2649   5.247   3.807   3.453 -0.3951 -0.8477 -0.0564
  761MOL0     C 2650   5.297   3.811   3.323 -0.6870  0.0845 -0.2541
  761MOL0     N 2651   5.902   3.854   2.949 -0.5718  0.9475 -0.0936
  761MOL0     N 2652   5.975   3.752   2.990 -0.0408 -0.6328  0.2675
  761MOL0     C 2653   6.197   3.152   2.428 -0.3856 -0.0958  0.4064
  761MOL0     C 2654   6.121   3.176   2.313  0.2131 -0.0304  1.0771
  761MOL0     C 2655   5.739   3.094   2.026 -0.9828  0.5564 -0.5007
  761MOL0     C 2656   5.807   3.050   1.910  0.1933  0.3099 -0.3428
  761MOL0     C 2657   5.740   3.017   1.788  1.3587  0.3396 -0.0966
  761MOL0     C 2658   5.600   3.039   1.778  0.8767 -0.3842 -0.0065
  761MOL0     O 2659   5.539   3.017   1.661  0.1857 -0.0191 -0.0317
  761MOL0     C 2660   5.413   3.071   1.630 -0.2576 -0.4444 -0.1715
  761MOL0     C 2661   5.427   3.200   1.550  0.3801 -0.4442 -0.4400
  761MOL0     C 2662   5.318   3.299   1.537 -0.2629 -0.7142  0.3162
  761MOL0     C 2663   5.271   3.338   1.667  0.0602  0.7010 -0.4380
  761MOL0     C 2664   5.185   3.460   1.666 -0.7835 -0.9872  0.1237
  761MOL0     C 2665   5.110   3.555   1.673  1.0308 -0.7528  0.3842
  761MOL0     C 2666   5.539   3.077   1.892 -0.5976 -0.2980  0.5991
  761MOL0     C 2667   5.601   3.115   2.014  0.1721  0.2029  0.4165
  761MOL0     H 2668   5.949   2.881   2.309  0.5938 -1.6331  0.1283
  761MOL0     H 2669   6.086   2.841   2.509 -2.4080 -0.4410 -0.8556
  761MOL0     H 2670   6.287   3.073   2.814 -0.8806 -2.3465  1.1519
  761MOL0     H 2671   6.206   3.189   2.696  0.3682 -0.0540  2.3847
  761MOL0     H 2672   5.996   3.048   2.726  1.5619 -0.8855 -1.3205
  761MOL0     H 2673   6.097   2.932   2.803 -0.9724 -0.0183 -2.0315
  761MOL0     H 2674   6.112   3.074   3.001  1.9649  0.7547 -0.3275
  761MOL0     H 2675   6.110   3.213   2.914 -1.2841  0.3234  0.5455
  761MOL0     H 2676   5.847   3.151   2.876  2.8198 -2.9074 -4.2250
  761MOL0     H 2677   5.876   3.026   2.990  0.0018 -0.7563 -3.0352
  761MOL0     H 2678   5.781   3.254   3.096  0.4186  1.5578 -0.3262
  761MOL0     H 2679   5.928   3.206   3.175 -1.5935  2.0767  0.3465
  761MOL0     H 2680   6.055   3.362   3.041  0.3113  2.1737  0.7098
  761MOL0     H 2681   5.901   3.408   2.949 -2.7911 -3.1016 -0.6770
  761MOL0     H 2682   5.797   3.465   3.166  0.7524 -0.7291  0.5982
  761MOL0     H 2683   5.931   3.411   3.259 -0.2658 -1.6043 -0.5017
  761MOL0     H 2684   6.084   3.577   3.151 -0.4172 -2.2919 -0.0866
  761MOL0     H 2685   5.979   3.614   3.281  1.7792  1.0302 -0.1087
  761MOL0     H 2686   5.719   3.719   3.185 -1.3516 -1.7805 -3.3578
  761MOL0     H 2687   5.682   4.015   2.921 -0.1637  0.8565  0.5291
  761MOL0     H 2688   5.589   3.872   2.959  2.1358 -0.6045 -1.0930
  761MOL0     H 2689   5.697   4.103   3.156 -0.4111 -1.5786  1.1275
  761MOL0     H 2690   5.595   3.966   3.195  1.9968 -1.0589  0.7753
  761MOL0     H 2691   5.532   4.181   2.986  0.8070 -0.7058  0.6448
  761MOL0     H 2692   5.476   4.198   3.147 -2.5589  0.1485 -0.3699
  761MOL0     H 2693   5.377   3.991   2.945  0.3039 -0.6016  0.6606
  761MOL0     H 2694   5.279   4.099   3.037 -1.4353 -2.4955  0.7225
  761MOL0     H 2695   5.287   4.151   3.265  3.1668 -0.1737 -0.0904
  761MOL0     H 2696   5.149   4.229   3.548  0.1716  0.5301  1.2359
  761MOL0     H 2697   5.296   4.174   3.629  0.7770 -0.7402 -0.3160
  761MOL0     H 2698   5.303   4.273   3.485 -2.1992  1.2223  0.6520
  761MOL0     H 2699   4.974   4.111   3.837  0.5928  0.3566  1.0839
  761MOL0     H 2700   4.872   4.081   4.050 -3.2772 -1.0042 -0.0505
  761MOL0     H 2701   4.833   4.018   4.254  7.1339  0.4753 -0.9532
  761MOL0     H 2702   4.744   3.902   4.334 -2.8698  1.1314 -3.7820
  761MOL0     H 2703   4.965   3.771   4.377 -1.4532  0.6910  1.5584
  761MOL0     H 2704   5.048   3.905   4.300  0.4582  2.5870 -0.1532
  761MOL0     H 2705   4.901   3.922   4.565  1.5210  1.5066  1.0141
  761MOL0     H 2706   4.912   4.059   4.488  2.1225  0.5869  2.4375
  761MOL0     H 2707   5.097   3.983   4.665  2.3560 -4.9980  0.0554
  761MOL0     H 2708   5.164   3.896   4.533 -0.2420 -0.0580  1.6694
  761MOL0     H 2709   5.167   4.114   4.396 -0.9556 -4.3546  0.0102
  761MOL0     H 2710   5.283   4.101   4.536 -0.6687  2.9909  1.6552
  761MOL0     H 2711   5.012   4.224   4.553  0.9976 -1.4959 -3.3673
  761MOL0     H 2712   5.124   4.213   4.686  1.0852  1.6201 -0.4410
  761MOL0     H 2713   5.122   4.446   4.595  1.6221  0.7499  1.2315
  761MOL0     H 2714   5.178   4.379   4.449 -2.3580  0.8371 -0.8011
  761MOL0     H 2715   5.339   4.488   4.598 -4.4859  1.6336  0.8651
  761MOL0     H 2716   5.385   4.317   4.567 -0.2952 -2.0456  1.0175
  761MOL0     H 2717   4.897   3.648   3.985  0.6101 -1.6779 -3.2591
  761MOL0     H 2718   4.978   3.699   3.766  0.8489  0.1421  1.0206
  761MOL0     H 2719   5.231   3.711   3.501  1.9051 -0.0329  2.6668
  761MOL0     H 2720   5.309   3.710   3.285  3.0839 -0.9531  3.0233
  761MOL0     H 2721   6.273   3.223   2.460  0.1003 -0.1443 -0.5728
  761MOL0     H 2722   6.138   3.264   2.252  0.4561 -1.4291 -0.9692
  761MOL0     H 2723   5.916   3.048   1.913  0.3201 -2.6499 -2.2691
  761MOL0     H 2724   5.803   2.977   1.709 -0.0120  0.8731 -1.5302
  761MOL0     H 2725   5.361   2.993   1.573 -1.8462 -0.2363  0.9523
  761MOL0     H 2726   5.357   3.108   1.716  1.6001  0.8921  0.5382
  761MOL0     H 2727   5.478   3.178   1.455  0.7585 -1.3932 -0.0359
  761MOL0     H 2728   5.501   3.257   1.607 -3.3252  0.6423  3.8333
  761MOL0     H 2729   5.244   3.242   1.480 -3.2872  2.6994  0.4433
  761MOL0     H 2730   5.341   3.382   1.468 -1.0488 -0.4163  0.3961
  761MOL0     H 2731   5.358   3.368   1.727  0.8390 -0.7091 -0.8230
  761MOL0     H 2732   5.215   3.258   1.716  2.2803 -0.5966  0.1204
  761MOL0     H 2733   5.045   3.640   1.677  0.0807 -1.2457 -2.5374
  761MOL0     H 2734   5.432   3.095   1.892 -0.3372  1.6796 -1.7374
  761MOL0     H 2735   5.549   3.176   2.086  2.6941  2.2365  0.6614
  762MOL0     O 2736   3.914   4.533   9.964  0.4016 -1.1703 -0.9497
  762MOL0     C 2737   3.982   4.621   9.909 -0.1426  0.1591 -0.3326
  762MOL0     O 2738   3.957   4.666   9.786 -0.2375  0.0951 -0.2325
  762MOL0     C 2739   3.854   4.616   9.707  0.6558  0.3351 -0.3290
  762MOL0     C 2740   3.718   4.621   9.744  0.9000  0.7249  0.0671
  762MOL0     C 2741   3.616   4.551   9.670  0.6864  0.1615 -0.8531
  762MOL0     C 2742   3.634   4.479   9.549 -0.1565  0.7920 -0.8091
  762MOL0     O 2743   3.538   4.405   9.497 -0.0578  0.0717  0.2292
  762MOL0     C 2744   3.563   4.335   9.375  0.8260 -0.8399 -0.6634
  762MOL0     C 2745   3.455   4.230   9.365 -0.5033 -0.0713 -0.7931
  762MOL0     C 2746   3.499   4.145   9.249  0.7757 -0.2591  0.0857
  762MOL0     C 2747   3.392   4.042   9.217  1.0399  0.3877 -0.2175
  762MOL0     C 2748   3.396   4.001   9.067  0.0144 -0.2033 -0.7722
  762MOL0     C 2749   3.295   3.889   9.039 -0.1970  0.0240  0.0585
  762MOL0     C 2750   3.318   3.851   8.889 -0.2580  0.3151 -0.0005
  762MOL0     C 2751   3.236   3.722   8.856 -0.1482 -0.1648  0.0688
  762MOL0     N 2752   3.167   3.710   8.723 -0.5489  0.3458 -0.8599
  762MOL0     C 2753   3.225   3.678   8.605 -0.7365 -0.3798 -0.7780
  762MOL0     C 2754   3.143   3.727   8.512 -0.0045 -0.7097 -0.2038
  762MOL0     C 2755   3.160   3.685   8.374  0.2355  0.5383 -0.0022
  762MOL0     C 2756   3.295   3.663   8.308 -0.1186 -0.3777 -0.8366
  762MOL0     C 2757   3.387   3.787   8.290 -0.0254  0.1136  0.0981
  762MOL0     C 2758   3.347   3.896   8.204  0.2092 -0.5889 -0.4801
  762MOL0     O 2759   3.480   3.968   8.186  0.0580 -0.0125  0.4673
  762MOL0     C 2760   3.464   4.077   8.094  0.0695  0.9229  0.8072
  762MOL0     C 2761   3.522   4.208   8.128 -0.2012 -0.0025 -0.3080
  762MOL0     C 2762   3.509   4.319   8.048 -0.0322 -0.4945  0.6734
  762MOL0     C 2763   3.570   4.455   8.091  0.6437 -0.4079 -0.0760
  762MOL0     C 2764   3.452   4.300   7.921 -0.2193  0.4452 -0.1233
  762MOL0     C 2765   3.436   4.416   7.822 -0.3257  0.8935  0.0932
  762MOL0     O 2766   3.455   4.374   7.694  0.5578  0.4395  0.7865
  762MOL0     C 2767   3.418   4.463   7.600  0.5446 -0.5263  0.1988
  762MOL0     C 2768   3.281   4.449   7.547 -0.2430 -1.0129 -0.3595
  762MOL0     C 2769   3.244   4.521   7.427 -0.1463  0.1247 -0.0160
  762MOL0     C 2770   3.336   4.612   7.358  1.1586  0.4310  0.4667
  762MOL0     O 2771   3.304   4.686   7.248  0.3060 -0.1002 -0.1999
  762MOL0     C 2772   3.279   4.823   7.275  0.5372 -0.0185  0.3356
  762MOL0     C 2773   3.302   4.897   7.150 -0.2110 -0.3233  0.6341
  762MOL0     C 2774   3.184   5.002   7.130  1.3190  0.5031 -0.4523
  762MOL0     C 2775   3.200   5.104   7.255  0.2572 -0.9691 -0.5664
  762MOL0     C 2776   3.102   5.227   7.230 -0.4994 -0.1243  0.1317
  762MOL0     C 2777   3.094   5.323   7.347  0.2466 -0.3746  0.0386
  762MOL0     C 2778   2.959   5.309   7.430 -0.1332  0.3362 -0.5833
  762MOL0     C 2779   2.961   5.428   7.536  0.6307  0.3413  0.5612
  762MOL0    Cl 2780   2.792   5.463   7.583 -0.0447  0.5625  0.2459
  762MOL0     C 2781   3.468   4.610   7.409  0.4367  0.5321  0.2788
  762MOL0     C 2782   3.506   4.529   7.517  0.2645 -0.7495  0.5278
  762MOL0     O 2783   3.410   4.526   7.853  0.0382 -0.1325 -0.0437
  762MOL0     C 2784   3.408   4.177   7.878  0.2894  1.0263  0.2836
  762MOL0     C 2785   3.413   4.066   7.963  0.1339  0.1179  1.5016
  762MOL0     N 2786   3.039   3.795   8.569  0.6271 -0.5771 -0.6778
  762MOL0     N 2787   3.058   3.785   8.691 -0.2566 -1.2460  0.6007
  762MOL0     C 2788   3.759   4.489   9.501 -0.0351  0.6755 -0.9860
  762MOL0     C 2789   3.869   4.550   9.575  0.0457  0.0702  0.3793
  762MOL0     C 2790   4.103   4.682   9.981  0.3915  0.2377 -0.3945
  762MOL0     C 2791   4.174   4.614  10.083  0.3086  0.3515  0.2277
  762MOL0     C 2792   4.280   4.676  10.143 -0.0019 -0.4591 -1.0228
  762MOL0     C 2793   4.328   4.802  10.095 -0.0925 -0.4852 -0.5207
  762MOL0     O 2794   4.445   4.875  10.141 -0.1357  0.2243 -0.1154
  762MOL0     C 2795   4.507   4.832  10.256 -0.1907 -0.2271  0.8602
  762MOL0     C 2796   4.428   4.864  10.380 -0.3064 -1.2051 -0.2743
  762MOL0     C 2797   4.414   5.021  10.395 -0.0406  0.1408 -0.3882
  762MOL0     C 2798   4.344   5.067  10.518 -1.3331  0.7352 -0.9443
  762MOL0     C 2799   4.412   5.034  10.644 -0.6450  0.5164 -0.2498
  762MOL0     C 2800   4.459   4.993  10.747  0.4298 -0.0358 -1.0305
  762MOL0     C 2801   4.261   4.855   9.988 -0.4374  0.0432  0.0175
  762MOL0     C 2802   4.151   4.806   9.938 -0.1269 -0.0310 -0.0012
  762MOL0     H 2803   3.685   4.668   9.836 -0.2262 -1.2348  0.7210
  762MOL0     H 2804   3.515   4.544   9.710 -0.1389 -2.6480 -3.0828
  762MOL0     H 2805   3.542   4.404   9.292 -1.7143  0.3173  0.7977
  762MOL0     H 2806   3.663   4.291   9.375  2.6131  2.7827  0.2878
  762MOL0     H 2807   3.447   4.184   9.464  1.8554  0.5369 -0.2574
  762MOL0     H 2808   3.359   4.278   9.341  0.0117  1.2745 -0.2751
  762MOL0     H 2809   3.518   4.219   9.171  2.7155  3.5959  3.7783
  762MOL0     H 2810   3.588   4.083   9.261 -1.2295 -3.2761  0.4697
  762MOL0     H 2811   3.411   3.958   9.285 -0.3818  0.3125  0.1325
  762MOL0     H 2812   3.290   4.081   9.231  1.4219  2.4030 -2.3980
  762MOL0     H 2813   3.370   4.086   9.004 -0.2879 -1.2200 -2.0484
  762MOL0     H 2814   3.501   3.971   9.059 -0.0151 -0.0055 -2.1897
  762MOL0     H 2815   3.325   3.798   9.091 -2.6008 -0.1633  1.2757
  762MOL0     H 2816   3.191   3.897   9.072 -0.3009 -4.8802  1.6487
  762MOL0     H 2817   3.285   3.936   8.829 -0.3102 -0.1695 -0.6737
  762MOL0     H 2818   3.422   3.835   8.860 -0.0038 -0.6500  1.3502
  762MOL0     H 2819   3.152   3.714   8.926 -0.4254 -1.0226 -0.3510
  762MOL0     H 2820   3.300   3.634   8.866  2.3523  1.2871 -2.0148
  762MOL0     H 2821   3.319   3.625   8.598  0.3332  0.9557  1.9218
  762MOL0     H 2822   3.116   3.586   8.357  4.1876 -1.1731 -1.4807
  762MOL0     H 2823   3.104   3.762   8.320  0.4995  1.1382  0.5739
  762MOL0     H 2824   3.267   3.629   8.208 -0.3907  2.7243 -1.9365
  762MOL0     H 2825   3.342   3.579   8.360 -1.3275 -1.8335 -2.0026
  762MOL0     H 2826   3.464   3.739   8.228 -2.8085 -0.6910 -3.0385
  762MOL0     H 2827   3.426   3.821   8.386  2.6339  0.3744 -0.9674
  762MOL0     H 2828   3.275   3.967   8.246  2.9014  2.3181 -0.3869
  762MOL0     H 2829   3.307   3.865   8.106  1.5580  2.3148 -2.0865
  762MOL0     H 2830   3.564   4.220   8.228 -0.3001  2.1862 -0.4761
  762MOL0     H 2831   3.638   4.436   8.174 -0.1837 -0.3289  0.6342
  762MOL0     H 2832   3.631   4.488   8.006 -1.1311 -0.2582 -1.3402
  762MOL0     H 2833   3.493   4.533   8.098 -0.4534 -1.2519 -1.9121
  762MOL0     H 2834   3.218   4.375   7.594 -1.4350 -1.7629 -2.9672
  762MOL0     H 2835   3.150   4.505   7.375 -0.5875  3.1452 -0.3262
  762MOL0     H 2836   3.186   4.845   7.327 -0.5397 -3.2406 -0.0139
  762MOL0     H 2837   3.363   4.854   7.337 -0.2171  2.9289  0.0115
  762MOL0     H 2838   3.398   4.950   7.153  0.5748 -1.5898 -0.8167
  762MOL0     H 2839   3.310   4.827   7.066  2.4372  0.9757 -0.3345
  762MOL0     H 2840   3.083   4.961   7.124  1.2689  0.4911  0.3764
  762MOL0     H 2841   3.195   5.049   7.031 -2.1257 -2.1283 -2.3091
  762MOL0     H 2842   3.164   5.048   7.342 -0.1342  0.1841  0.0304
  762MOL0     H 2843   3.300   5.136   7.283 -0.5121 -1.1228  2.7903
  762MOL0     H 2844   3.004   5.190   7.201 -1.5033  1.3802  1.4408
  762MOL0     H 2845   3.139   5.274   7.138 -1.2201  1.3019  0.5512
  762MOL0     H 2846   3.181   5.307   7.412  2.4301  3.3442 -1.6729
  762MOL0     H 2847   3.112   5.421   7.303 -3.1568 -0.7609 -2.6599
  762MOL0     H 2848   2.945   5.216   7.486  0.2624  1.7563  2.0135
  762MOL0     H 2849   2.871   5.309   7.364 -0.7263  0.6305  0.1846
  762MOL0     H 2850   3.003   5.522   7.498  0.9561  0.4968  1.2953
  762MOL0     H 2851   3.016   5.381   7.618  1.6241 -1.5445 -1.1137
  762MOL0     H 2852   3.540   4.667   7.350  2.5126 -0.8859  1.3280
  762MOL0     H 2853   3.609   4.523   7.550  0.3816 -1.9712 -0.0407
  762MOL0     H 2854   3.357   4.161   7.783  0.5893  0.6070  0.1888
  762MOL0     H 2855   3.389   3.970   7.917 -0.0921  1.2869 -0.9835
  762MOL0     H 2856   3.769   4.452   9.399 -0.1421 -1.9068 -0.1175
  762MOL0     H 2857   3.959   4.560   9.517 -0.9629  1.4154 -1.0367
  762MOL0     H 2858   4.139   4.518  10.118  1.3618 -0.2196 -0.2322
  762MOL0     H 2859   4.332   4.630  10.226  3.5507  2.5568 -1.2744
  762MOL0     H 2860   4.529   4.726  10.243  1.9971  0.3646 -1.0840
  762MOL0     H 2861   4.605   4.882  10.257  0.6489 -1.6561 -1.4788
  762MOL0     H 2862   4.474   4.822  10.470 -2.4213 -1.4417  0.7598
  762MOL0     H 2863   4.326   4.827  10.369 -1.2904  0.1275  2.9548
  762MOL0     H 2864   4.367   5.064  10.306 -2.0975  2.2855  1.5940
  762MOL0     H 2865   4.515   5.061  10.400  0.0623 -0.1887  0.3309
  762MOL0     H 2866   4.239   5.039  10.513 -1.3146  0.2352  0.8209
  762MOL0     H 2867   4.345   5.176  10.525 -1.4068  0.6248  1.5139
  762MOL0     H 2868   4.490   4.965  10.845 -0.4757 -0.1825 -0.7742
  762MOL0     H 2869   4.306   4.942   9.941  1.2074 -0.5240  0.4711
  762MOL0     H 2870   4.108   4.860   9.855  1.2925 -1.8159 -1.9796
  763MOL0     O 2871   7.577   8.910   0.309 -0.0692 -0.5243  0.8722
  763MOL0     C 2872   7.626   8.802   0.303 -1.0476  0.2322  0.0042
  763MOL0     O 2873   7.573   8.696   0.362 -0.2758  0.9951 -0.2266
  763MOL0     C 2874   7.520   8.716   0.487 -0.0243 -0.2821 -0.2473
  763MOL0     C 2875   7.613   8.734   0.595  0.0298  0.8610  0.1720
  763MOL0     C 2876   7.566   8.743   0.732 -0.9205  0.1378  0.3784
  763MOL0     C 2877   7.430   8.729   0.763 -1.2681  0.8008 -0.1286
  763MOL0     O 2878   7.371   8.748   0.891  0.7970 -0.0136 -0.4394
  763MOL0     C 2879   7.450   8.807   0.994  0.0511 -0.0698 -0.1595
  763MOL0     C 2880   7.371   8.902   1.089  0.6095  0.0633  0.1084
  763MOL0     C 2881   7.246   8.849   1.157  0.1200  0.6538  0.2780
  763MOL0     C 2882   7.200   8.926   1.281  0.3682  0.0863  0.0672
  763MOL0     C 2883   7.082   8.860   1.355 -0.0511  0.5226  0.4809
  763MOL0     C 2884   7.127   8.726   1.424  0.0448  0.4459 -1.4167
  763MOL0     C 2885   7.028   8.693   1.521 -0.5216 -0.0308  0.4546
  763MOL0     C 2886   7.052   8.760   1.651  0.1135 -0.0554 -0.2109
  763MOL0     N 2887   6.993   8.695   1.773  0.2238  0.3988  0.8788
  763MOL0     C 2888   7.009   8.748   1.899 -0.0591 -0.3142 -0.0639
  763MOL0     C 2889   6.930   8.676   1.988  0.2277  0.4024  0.2958
  763MOL0     C 2890   6.923   8.671   2.137 -0.7210 -0.8835  0.3003
  763MOL0     C 2891   6.786   8.660   2.197  0.0913 -0.3868  1.1200
  763MOL0     C 2892   6.703   8.788   2.208 -0.2685 -0.1679  0.4174
  763MOL0     C 2893   6.657   8.839   2.070  0.4926 -0.5936  0.0208
  763MOL0     O 2894   6.552   8.938   2.090 -0.5007 -0.5325 -0.4545
  763MOL0     C 2895   6.502   9.013   1.987  0.3774  0.2145 -0.1156
  763MOL0     C 2896   6.562   9.010   1.858  0.7251  0.2945 -0.3281
  763MOL0     C 2897   6.514   9.085   1.752  0.2663  0.3539 -0.0300
  763MOL0     C 2898   6.590   9.066   1.627  0.3414 -0.6345  1.1906
  763MOL0     C 2899   6.397   9.168   1.768 -0.3787  0.1681 -0.1171
  763MOL0     C 2900   6.341   9.261   1.670  0.3676 -0.4210  0.5320
  763MOL0     O 2901   6.236   9.333   1.721 -0.6889 -0.4867 -0.3067
  763MOL0     C 2902   6.155   9.405   1.640  0.2360 -0.7368  0.1696
  763MOL0     C 2903   6.054   9.474   1.716 -0.1576  0.6129  1.1346
  763MOL0     C 2904   5.946   9.535   1.652  0.7440 -0.6183  0.6833
  763MOL0     C 2905   5.941   9.547   1.513  0.2267 -0.2390  0.6728
  763MOL0     O 2906   5.840   9.603   1.439 -0.1912  0.1480 -0.0164
  763MOL0     C 2907   5.711   9.545   1.431  0.1796 -0.2339  0.4994
  763MOL0     C 2908   5.650   9.590   1.293 -0.3128  0.3875 -0.1431
  763MOL0     C 2909   5.510   9.554   1.295 -0.1532  0.4289  0.0469
  763MOL0     C 2910   5.451   9.549   1.156  0.6701  0.2600 -0.2000
  763MOL0     C 2911   5.294   9.521   1.175 -0.4698  0.2286  0.5727
  763MOL0     C 2912   5.208   9.483   1.051  0.1646  0.3394 -0.5065
  763MOL0     C 2913   5.198   9.595   0.943  0.5247 -0.2776 -0.3813
  763MOL0     C 2914   5.131   9.532   0.830 -0.6683 -0.0609  0.6558
  763MOL0    Cl 2915   5.227   9.418   0.725 -0.4351 -0.0913 -0.8504
  763MOL0     C 2916   6.060   9.505   1.440  0.0440  0.8616 -0.0051
  763MOL0     C 2917   6.161   9.432   1.500  1.3948 -0.5868  1.4341
  763MOL0     O 2918   6.398   9.280   1.560 -0.0672 -0.1489 -0.3991
  763MOL0     C 2919   6.336   9.170   1.896 -0.4040  0.8435  0.6383
  763MOL0     C 2920   6.392   9.098   2.003 -0.7486 -1.3208 -0.6922
  763MOL0     N 2921   6.868   8.583   1.901  0.0716  0.3194 -0.4093
  763MOL0     N 2922   6.904   8.588   1.778 -0.0883 -0.7158 -0.4275
  763MOL0     C 2923   7.342   8.710   0.654  0.3390 -0.5201  0.4277
  763MOL0     C 2924   7.384   8.693   0.516  0.2936 -0.0365  0.1523
  763MOL0     C 2925   7.753   8.788   0.229  0.1628  0.6079 -1.1094
  763MOL0     C 2926   7.790   8.653   0.179 -0.4651  0.0636 -0.3959
  763MOL0     C 2927   7.915   8.640   0.117 -0.2981 -1.1462 -0.5014
  763MOL0     C 2928   7.993   8.761   0.086  0.3115 -0.0307  0.0440
  763MOL0     O 2929   8.119   8.740   0.031  0.1388 -0.3808  0.7045
  763MOL0     C 2930   8.169   8.840  -0.060  0.3654  0.6269 -0.1225
  763MOL0     C 2931   8.301   8.790  -0.126 -0.1885  0.3665 -0.3589
  763MOL0     C 2932   8.361   8.677  -0.037 -0.0015  0.7251 -0.9490
  763MOL0     C 2933   8.503   8.636  -0.082  0.7100  0.6233 -0.1699
  763MOL0     C 2934   8.510   8.610  -0.232 -0.9691  0.5948  0.4484
  763MOL0     C 2935   8.520   8.606  -0.353 -0.9049 -0.5297  0.4532
  763MOL0     C 2936   7.946   8.888   0.126  0.3845 -0.1489  0.1157
  763MOL0     C 2937   7.834   8.897   0.207 -0.0127  0.0301  0.2752
  763MOL0     H 2938   7.716   8.716   0.567 -0.0262  1.0185 -0.1415
  763MOL0     H 2939   7.652   8.754   0.798 -0.6144  1.6143 -0.2121
  763MOL0     H 2940   7.493   8.727   1.056 -0.3101  0.5992  0.9843
  763MOL0     H 2941   7.534   8.869   0.961 -0.6600  2.3254  2.1715
  763MOL0     H 2942   7.442   8.939   1.163  0.8111  3.0457 -1.3973
  763MOL0     H 2943   7.348   8.997   1.039  2.2267  1.2123  1.4496
  763MOL0     H 2944   7.162   8.863   1.088  0.5585 -0.3653 -0.4945
  763MOL0     H 2945   7.256   8.742   1.172 -0.6570  0.1300 -2.3796
  763MOL0     H 2946   7.291   8.943   1.340  1.7623 -1.1120 -1.6336
  763MOL0     H 2947   7.155   9.021   1.252 -0.5137  0.8615  3.5274
  763MOL0     H 2948   7.046   8.929   1.431 -1.2152  0.0621  0.3749
  763MOL0     H 2949   6.996   8.853   1.287 -1.2905  1.5162  1.8952
  763MOL0     H 2950   7.132   8.640   1.357  0.7127 -0.8597  0.2209
  763MOL0     H 2951   7.222   8.740   1.477 -1.5787 -0.3414  2.0048
  763MOL0     H 2952   6.926   8.715   1.488  0.4162  1.4481 -1.6958
  763MOL0     H 2953   7.031   8.586   1.539  0.5634 -0.1591 -0.4424
  763MOL0     H 2954   7.024   8.865   1.662 -1.8263 -0.7562  3.0564
  763MOL0     H 2955   7.155   8.774   1.685 -0.2719 -0.8718  1.4268
  763MOL0     H 2956   7.090   8.815   1.926 -0.2967 -0.0171 -0.0788
  763MOL0     H 2957   6.982   8.585   2.167 -0.0573 -1.4893 -2.4817
  763MOL0     H 2958   6.974   8.765   2.161 -0.9853 -1.1426  1.9907
  763MOL0     H 2959   6.791   8.612   2.295  0.0767 -0.2782  1.1745
  763MOL0     H 2960   6.739   8.597   2.121 -0.5472  1.8781 -0.4968
  763MOL0     H 2961   6.762   8.867   2.255  2.0925 -1.5639 -0.0552
  763MOL0     H 2962   6.609   8.765   2.258 -1.0417  1.2640 -0.3102
  763MOL0     H 2963   6.621   8.764   1.998 -1.5598 -1.1616  1.5427
  763MOL0     H 2964   6.743   8.891   2.028  0.7754 -0.2609  0.9921
  763MOL0     H 2965   6.647   8.945   1.838 -0.5500 -1.1984 -1.1332
  763MOL0     H 2966   6.676   9.133   1.616  1.3226 -2.2395 -2.1980
  763MOL0     H 2967   6.631   8.965   1.618  1.2418 -0.1936 -0.0894
  763MOL0     H 2968   6.524   9.086   1.543  0.4322  3.3363  1.8884
  763MOL0     H 2969   6.052   9.449   1.822  1.9825  2.7018  1.7626
  763MOL0     H 2970   5.864   9.573   1.712  0.0554  2.2144 -1.8078
  763MOL0     H 2971   5.720   9.436   1.435 -3.0917 -0.7225 -1.6502
  763MOL0     H 2972   5.642   9.566   1.514  0.2200 -3.8317  1.6347
  763MOL0     H 2973   5.670   9.696   1.275 -0.0281  0.5525  1.0685
  763MOL0     H 2974   5.690   9.520   1.219 -3.2142 -0.3588 -1.1420
  763MOL0     H 2975   5.460   9.637   1.346 -1.2668  1.3863 -2.4385
  763MOL0     H 2976   5.496   9.453   1.334 -1.1204  0.9212  1.0543
  763MOL0     H 2977   5.468   9.649   1.116 -0.4634  0.2021 -0.8475
  763MOL0     H 2978   5.496   9.466   1.101 -0.9168 -0.6479 -0.1897
  763MOL0     H 2979   5.237   9.602   1.222  0.7115  0.5503  1.4954
  763MOL0     H 2980   5.297   9.432   1.238 -1.0526 -1.6534 -1.9309
  763MOL0     H 2981   5.229   9.384   1.008  0.4453 -0.6178  1.6935
  763MOL0     H 2982   5.118   9.456   1.107  1.8331 -3.5758  0.7050
  763MOL0     H 2983   5.297   9.626   0.908  1.0424 -0.0676  1.1794
  763MOL0     H 2984   5.143   9.682   0.982  1.0881  0.3799 -1.0168
  763MOL0     H 2985   5.122   9.622   0.768  0.3423  2.1830  3.5711
  763MOL0     H 2986   5.033   9.487   0.848 -1.5698  1.4720 -0.2222
  763MOL0     H 2987   6.053   9.536   1.336  0.3531 -0.6904 -0.5087
  763MOL0     H 2988   6.243   9.416   1.430  0.2500  2.9822 -0.9758
  763MOL0     H 2989   6.256   9.241   1.915 -0.5165  2.1625 -3.7411
  763MOL0     H 2990   6.349   9.097   2.103  3.2835  2.5539  1.3805
  763MOL0     H 2991   7.237   8.711   0.682  0.5515 -0.9619  1.2794
  763MOL0     H 2992   7.307   8.682   0.441 -1.3089  3.5962  1.0386
  763MOL0     H 2993   7.717   8.573   0.185 -1.3331  0.8141 -0.7528
  763MOL0     H 2994   7.949   8.548   0.072 -3.2847 -1.0520 -3.2836
  763MOL0     H 2995   8.093   8.849  -0.138 -0.1072 -1.8320 -0.0292
  763MOL0     H 2996   8.202   8.928  -0.004  2.9989 -0.6821  0.5327
  763MOL0     H 2997   8.369   8.870  -0.155 -2.2470  1.2228 -3.3328
  763MOL0     H 2998   8.271   8.739  -0.219  3.1625 -2.6909  0.0506
  763MOL0     H 2999   8.297   8.590  -0.024  0.0332  0.9467  1.0271
  763MOL0     H 3000   8.384   8.730   0.056  2.4251 -0.3022 -0.9003
  763MOL0     H 3001   8.532   8.540  -0.036 -3.8467 -0.8195  0.1562
  763MOL0     H 3002   8.585   8.701  -0.050  0.6337 -0.7747  3.3492
  763MOL0     H 3003   8.530   8.588  -0.458 -0.7218 -1.9953  0.6914
  763MOL0     H 3004   8.001   8.982   0.129 -0.8114  0.6081 -0.7927
  763MOL0     H 3005   7.812   8.988   0.261 -0.6923 -0.6783  1.2331
  764MOL0     O 3006   9.705   7.549   0.829 -0.1941 -0.1372 -0.1890
  764MOL0     C 3007   9.730   7.607   0.933 -0.2735 -0.7917 -1.0812
  764MOL0     O 3008   9.634   7.656   1.023  0.0310  0.9159  0.7275
  764MOL0     C 3009   9.501   7.618   1.000  0.4591 -0.4955  0.2841
  764MOL0     C 3010   9.404   7.687   1.069  0.4284  0.4741  0.4027
  764MOL0     C 3011   9.268   7.643   1.064 -0.8847  0.4991 -0.3119
  764MOL0     C 3012   9.223   7.532   0.992  0.3750 -0.3920  0.9349
  764MOL0     O 3013   9.096   7.489   1.006 -0.0013  0.3890  0.5165
  764MOL0     C 3014   9.004   7.546   1.093 -0.0165  0.0984 -0.9125
  764MOL0     C 3015   8.868   7.473   1.091 -0.1807  0.1256 -0.4664
  764MOL0     C 3016   8.879   7.353   1.184  0.1536 -0.4836  0.0286
  764MOL0     C 3017   8.733   7.288   1.190 -0.8502 -0.4415 -0.2702
  764MOL0     C 3018   8.735   7.144   1.255  0.4369  0.2304  0.4895
  764MOL0     C 3019   8.831   7.044   1.192 -1.2060  0.2690 -0.2224
  764MOL0     C 3020   8.805   6.906   1.241  0.1507  0.2781 -0.2942
  764MOL0     C 3021   8.906   6.803   1.171 -0.4905  1.5904  0.4355
  764MOL0     N 3022   8.859   6.663   1.203  0.5627  0.5159  0.3361
  764MOL0     C 3023   8.835   6.556   1.117  0.5814  0.5073 -0.8870
  764MOL0     C 3024   8.804   6.452   1.200  0.6271  0.2857  1.0667
  764MOL0     C 3025   8.737   6.323   1.182  0.3655 -0.2562  0.4138
  764MOL0     C 3026   8.754   6.287   1.034  0.0959 -0.0144  0.3831
  764MOL0     C 3027   8.728   6.135   1.016 -0.5177 -0.3302  0.5885
  764MOL0     C 3028   8.820   6.038   1.092 -0.4281  0.4100  0.2024
  764MOL0     O 3029   8.794   5.888   1.069  0.6292  0.3854 -0.6777
  764MOL0     C 3030   8.861   5.824   0.970  0.0889  0.5312 -0.4307
  764MOL0     C 3031   8.838   5.680   0.954  0.1004 -0.4689  0.3591
  764MOL0     C 3032   8.895   5.605   0.851  0.1591 -0.4056 -0.3366
  764MOL0     C 3033   8.863   5.453   0.845  0.5109  0.6721 -1.0081
  764MOL0     C 3034   8.991   5.664   0.767  0.4583  0.0888  0.1777
  764MOL0     C 3035   9.070   5.592   0.654  0.6093 -0.3718 -0.3180
  764MOL0     O 3036   9.127   5.669   0.559 -0.8613  0.3000  0.1447
  764MOL0     C 3037   9.239   5.618   0.512 -0.4958  0.0770  0.5764
  764MOL0     C 3038   9.253   5.578   0.382  0.3478  0.9513  0.9259
  764MOL0     C 3039   9.368   5.543   0.323  0.6856 -1.2318 -0.6233
  764MOL0     C 3040   9.486   5.546   0.398 -0.9294  0.0978  0.0594
  764MOL0     O 3041   9.598   5.511   0.337 -0.3626  0.0209  0.7872
  764MOL0     C 3042   9.723   5.485   0.400  0.7157  0.3294 -0.0286
  764MOL0     C 3043   9.787   5.630   0.420 -0.1199 -0.3737 -0.7716
  764MOL0     C 3044   9.892   5.623   0.527  0.1931 -0.3255  0.4037
  764MOL0     C 3045   9.844   5.581   0.664 -0.4688 -0.4524 -0.0679
  764MOL0     C 3046   9.954   5.527   0.748  0.8012  0.9453  0.1455
  764MOL0     C 3047  10.037   5.643   0.812 -0.2286  0.0978  0.2660
  764MOL0     C 3048   9.974   5.690   0.945 -0.3915  0.9557 -0.0942
  764MOL0     C 3049  10.054   5.800   0.998 -0.2577 -0.7753  0.9340
  764MOL0    Cl 3050  10.056   5.942   0.890 -0.0152 -0.0078 -0.5011
  764MOL0     C 3051   9.474   5.576   0.539 -0.1237 -0.7184 -0.6137
  764MOL0     C 3052   9.349   5.619   0.591 -0.9594  0.1972  0.0100
  764MOL0     O 3053   9.079   5.467   0.657 -0.5183 -0.4082 -0.3241
  764MOL0     C 3054   9.026   5.798   0.791  0.8475 -0.1582  0.3754
  764MOL0     C 3055   8.956   5.874   0.887  0.4350 -0.3175  0.0452
  764MOL0     N 3056   8.813   6.498   1.328  0.5547  0.0327 -0.7129
  764MOL0     N 3057   8.845   6.621   1.330 -0.0643  0.6930 -0.5191
  764MOL0     C 3058   9.320   7.454   0.926  0.6776 -0.0491 -0.6186
  764MOL0     C 3059   9.458   7.500   0.936  0.2285 -0.3347 -0.0647
  764MOL0     C 3060   9.874   7.650   0.963  0.1494 -0.2494 -0.4756
  764MOL0     C 3061   9.974   7.644   0.868  0.1808 -0.3422 -0.5908
  764MOL0     C 3062  10.106   7.667   0.891  0.4607 -0.4099 -0.0283
  764MOL0     C 3063  10.150   7.712   1.017  0.2866 -0.2689 -0.0388
  764MOL0     O 3064  10.286   7.745   1.034 -0.1211 -0.2281  0.1547
  764MOL0     C 3065  10.327   7.823   1.153 -1.0141 -0.1696  0.7120
  764MOL0     C 3066  10.473   7.868   1.146 -0.1474 -0.0805  0.0347
  764MOL0     C 3067  10.567   7.755   1.182  0.2641 -0.3136  0.0791
  764MOL0     C 3068  10.719   7.788   1.154  0.6879  0.9616 -0.7473
  764MOL0     C 3069  10.787   7.874   1.254  0.1364 -0.3760  0.0603
  764MOL0     C 3070  10.829   7.960   1.338 -0.9982 -0.6592  0.5904
  764MOL0     C 3071  10.054   7.718   1.116  0.4537 -0.4335  0.0666
  764MOL0     C 3072   9.915   7.693   1.089 -0.7349 -0.3500 -0.8855
  764MOL0     H 3073   9.440   7.771   1.127  0.8290  1.7473 -1.5838
  764MOL0     H 3074   9.209   7.708   1.127  1.9503  0.2879  2.8166
  764MOL0     H 3075   9.038   7.557   1.196  1.7057 -0.5173 -1.3734
  764MOL0     H 3076   8.983   7.652   1.075  1.2586 -0.0703 -4.0321
  764MOL0     H 3077   8.804   7.549   1.137  1.7627  1.4975  0.1398
  764MOL0     H 3078   8.830   7.454   0.990 -4.5381 -4.3204  1.5907
  764MOL0     H 3079   8.951   7.285   1.139  0.5590  1.1948 -2.0174
  764MOL0     H 3080   8.909   7.385   1.284 -0.2656  0.9379 -0.2727
  764MOL0     H 3081   8.673   7.366   1.239 -1.1145  0.6682 -2.2729
  764MOL0     H 3082   8.693   7.285   1.089  0.4060 -1.0555 -0.7686
  764MOL0     H 3083   8.758   7.147   1.362 -0.5268 -3.2452  0.9201
  764MOL0     H 3084   8.638   7.095   1.239  0.8477  0.0425 -1.8456
  764MOL0     H 3085   8.817   7.039   1.084 -1.0726 -0.8913 -0.2024
  764MOL0     H 3086   8.934   7.066   1.222 -1.3018  1.5340 -0.7523
  764MOL0     H 3087   8.817   6.898   1.350 -1.4734 -0.5767 -0.1625
  764MOL0     H 3088   8.700   6.883   1.227 -0.3162  1.7301  0.5451
  764MOL0     H 3089   9.003   6.825   1.216  0.3800  0.5469 -0.8615
  764MOL0     H 3090   8.927   6.821   1.065  1.1037  1.3546  0.6816
  764MOL0     H 3091   8.818   6.562   1.010  0.6875 -0.4529 -0.9655
  764MOL0     H 3092   8.769   6.246   1.253 -0.3734 -2.7217 -1.7456
  764MOL0     H 3093   8.629   6.336   1.195  0.3434 -1.2067  1.3802
  764MOL0     H 3094   8.858   6.310   1.008 -0.3733  1.2925 -0.4529
  764MOL0     H 3095   8.678   6.337   0.974  1.5834  2.8938  0.7488
  764MOL0     H 3096   8.724   6.092   0.916  1.2330 -2.1440  1.2439
  764MOL0     H 3097   8.628   6.109   1.052  0.7811 -4.8692  1.5373
  764MOL0     H 3098   8.805   6.053   1.199 -2.0157  2.8093 -0.2717
  764MOL0     H 3099   8.922   6.063   1.063  0.2086 -4.8201 -3.3047
  764MOL0     H 3100   8.769   5.628   1.021  0.6100 -0.8154  0.6241
  764MOL0     H 3101   8.852   5.447   0.737 -5.1742  3.0298 -0.9470
  764MOL0     H 3102   8.942   5.390   0.887  1.0186  1.2566 -1.0758
  764MOL0     H 3103   8.766   5.430   0.891  0.1124 -0.3552 -2.3283
  764MOL0     H 3104   9.163   5.589   0.322 -1.6743 -0.5120  3.4770
  764MOL0     H 3105   9.367   5.519   0.217 -0.2033 -0.8787 -0.7066
  764MOL0     H 3106   9.698   5.425   0.488 -1.0280 -1.2534 -1.5101
  764MOL0     H 3107   9.788   5.423   0.337 -0.1719  3.3248 -4.3798
  764MOL0     H 3108   9.836   5.666   0.330 -0.6621 -0.2133 -1.0072
  764MOL0     H 3109   9.710   5.697   0.459 -0.4113 -0.8696 -0.4806
  764MOL0     H 3110   9.931   5.724   0.542 -0.8575  0.3465 -1.1690
  764MOL0     H 3111   9.971   5.552   0.499 -0.1792 -0.8026  0.5400
  764MOL0     H 3112   9.786   5.664   0.707  0.4214  1.8747 -3.0211
  764MOL0     H 3113   9.793   5.486   0.652 -0.2760 -0.4255 -1.2077
  764MOL0     H 3114  10.014   5.467   0.680  0.1720  3.3021 -2.6956
  764MOL0     H 3115   9.924   5.456   0.825 -0.1106  0.6046 -0.4956
  764MOL0     H 3116  10.140   5.611   0.825 -0.0264  0.3221 -0.7072
  764MOL0     H 3117  10.026   5.718   0.733 -0.9355 -1.5062 -1.1984
  764MOL0     H 3118   9.983   5.614   1.023 -1.6676  1.1558  0.2547
  764MOL0     H 3119   9.871   5.725   0.938 -0.5781  0.8578  1.7437
  764MOL0     H 3120  10.156   5.767   1.018  0.7651  0.1064 -2.2525
  764MOL0     H 3121  10.007   5.831   1.092  3.8198  2.2609  2.2811
  764MOL0     H 3122   9.558   5.575   0.607  0.4267  3.0419 -1.0069
  764MOL0     H 3123   9.337   5.630   0.698 -0.9740 -1.0716  0.1434
  764MOL0     H 3124   9.092   5.851   0.722  1.3512 -2.6839 -1.2044
  764MOL0     H 3125   8.991   5.974   0.908 -1.3292  0.8805 -2.2698
  764MOL0     H 3126   9.307   7.364   0.867  4.5746 -0.2298 -1.4670
  764MOL0     H 3127   9.515   7.445   0.862  0.3598  2.1402 -1.9516
  764MOL0     H 3128   9.950   7.606   0.769  2.0827 -0.8986 -0.8722
  764MOL0     H 3129  10.186   7.650   0.820  0.5283 -1.2276  0.2423
  764MOL0     H 3130  10.269   7.915   1.162 -0.6092  0.3295 -1.3404
  764MOL0     H 3131  10.316   7.761   1.242  2.2762  1.9317  2.7845
  764MOL0     H 3132  10.485   7.951   1.216 -0.1469 -0.8349  0.9434
  764MOL0     H 3133  10.507   7.892   1.044  1.1846  0.6465  0.6266
  764MOL0     H 3134  10.527   7.673   1.122 -0.5958  0.8168 -0.9490
  764MOL0     H 3135  10.557   7.729   1.288  1.2441 -3.2876 -0.4717
  764MOL0     H 3136  10.736   7.819   1.051 -3.0887  1.9655 -1.1931
  764MOL0     H 3137  10.764   7.691   1.175 -0.4853  0.3970 -0.7702
  764MOL0     H 3138  10.859   8.038   1.405 -0.4774 -0.5891  0.2746
  764MOL0     H 3139  10.088   7.729   1.218 -2.8470  0.9656  1.1085
  764MOL0     H 3140   9.856   7.686   1.180  1.6056  0.0091  0.7550
  765MOL0     O 3141   8.441   2.999  10.746 -0.0912 -0.5785 -0.1542
  765MOL0     C 3142   8.485   2.907  10.674  0.3560  0.4293 -0.0111
  765MOL0     O 3143   8.611   2.897  10.621 -0.3360 -0.7005 -0.3060
  765MOL0     C 3144   8.719   2.981  10.642  0.6048 -0.1486 -0.1526
  765MOL0     C 3145   8.725   3.105  10.708  0.5052 -0.0746 -0.8652
  765MOL0     C 3146   8.840   3.175  10.699 -0.6992  0.3670  0.0453
  765MOL0     C 3147   8.950   3.123  10.640  0.5524  0.3819 -0.5581
  765MOL0     O 3148   9.063   3.196  10.636  0.0873  0.3606 -0.2407
  765MOL0     C 3149   9.091   3.242  10.500 -1.1528  0.4022  0.6047
  765MOL0     C 3150   9.240   3.284  10.508  0.0312  0.2620  0.8109
  765MOL0     C 3151   9.251   3.423  10.580  0.5561  0.6664  0.6765
  765MOL0     C 3152   9.398   3.433  10.612 -0.0518 -0.8062 -0.1420
  765MOL0     C 3153   9.445   3.573  10.659 -0.1803  0.2398 -0.2327
  765MOL0     C 3154   9.587   3.552  10.701 -0.7310 -0.0501 -0.2185
  765MOL0     C 3155   9.634   3.674  10.770 -0.4888  0.2654 -0.2052
  765MOL0     C 3156   9.652   3.803  10.684 -0.0513 -0.6108 -0.2143
  765MOL0     N 3157   9.726   3.788  10.558 -0.4981 -0.0351 -0.9534
  765MOL0     C 3158   9.859   3.750  10.545 -0.6534  0.5045  1.5895
  765MOL0     C 3159   9.874   3.730  10.420 -0.1222 -0.2898  0.9085
  765MOL0     C 3160  10.013   3.696  10.348  0.2718  0.5046 -0.6664
  765MOL0     C 3161  10.088   3.830  10.319 -0.0588  0.0407  0.6964
  765MOL0     C 3162  10.064   3.907  10.193 -0.3517  0.2030  0.7173
  765MOL0     C 3163  10.123   4.050  10.203  0.7435 -0.2824 -0.4085
  765MOL0     O 3164  10.264   4.059  10.182 -0.5509  0.6144  0.0250
  765MOL0     C 3165  10.324   4.177  10.220 -0.3418  0.0559 -0.3326
  765MOL0     C 3166  10.303   4.297  10.154  0.3180 -0.7325 -0.1469
  765MOL0     C 3167  10.359   4.420  10.192  0.0678  0.7043 -0.4343
  765MOL0     C 3168  10.356   4.541  10.102 -0.0916 -0.5215  0.4416
  765MOL0     C 3169  10.434   4.424  10.312 -0.6548  0.2497 -0.2075
  765MOL0     C 3170  10.473   4.555  10.383  0.2421  0.1838 -0.1306
  765MOL0     O 3171  10.504   4.548  10.511  0.1323  0.2125  0.1835
  765MOL0     C 3172  10.484   4.655  10.592 -0.0964 -0.0834 -1.2093
  765MOL0     C 3173  10.587   4.750  10.619 -0.8289 -0.5013  0.0699
  765MOL0     C 3174  10.570   4.849  10.717  0.7686  0.3538  0.0467
  765MOL0     C 3175  10.446   4.867  10.774  0.4174 -0.2382  0.8952
  765MOL0     O 3176  10.417   4.968  10.862 -0.3180 -0.8713  0.2667
  765MOL0     C 3177  10.396   5.094  10.799 -0.5978  0.6231  1.1169
  765MOL0     C 3178  10.388   5.207  10.900  1.0828  0.0665 -0.3300
  765MOL0     C 3179  10.335   5.344  10.853 -0.4702 -0.1332 -0.0340
  765MOL0     C 3180  10.373   5.381  10.706 -0.4332  0.1417 -0.0484
  765MOL0     C 3181  10.329   5.524  10.671  0.5048  0.6805  0.7338
  765MOL0     C 3182  10.348   5.546  10.520 -0.2773  0.9383  0.1307
  765MOL0     C 3183  10.352   5.692  10.488  0.4202  0.2174 -0.5167
  765MOL0     C 3184  10.330   5.711  10.339 -0.7582 -0.3402 -0.2533
  765MOL0    Cl 3185  10.163   5.678  10.291 -0.4919 -0.2255 -0.3754
  765MOL0     C 3186  10.344   4.779  10.743  0.2572  0.1079  0.3654
  765MOL0     C 3187  10.359   4.671  10.656 -0.0651 -0.6081 -0.0363
  765MOL0     O 3188  10.447   4.660  10.330 -0.1447  0.4033  0.7819
  765MOL0     C 3189  10.448   4.303  10.384 -1.0958 -0.4085  0.4235
  765MOL0     C 3190  10.404   4.182  10.333 -0.7680 -0.6906  1.1282
  765MOL0     N 3191   9.758   3.746  10.341  0.1017 -0.0204  0.6442
  765MOL0     N 3192   9.666   3.783  10.431  1.1646 -0.5601  0.3791
  765MOL0     C 3193   8.949   2.990  10.600 -0.8054 -0.4362  0.7888
  765MOL0     C 3194   8.836   2.927  10.579  0.7464 -0.9780  0.5647
  765MOL0     C 3195   8.394   2.807  10.628 -0.0690  0.0079  0.0327
  765MOL0     C 3196   8.276   2.848  10.560  0.0158 -0.2404 -0.1447
  765MOL0     C 3197   8.187   2.748  10.511  0.0483  0.7026  0.1957
  765MOL0     C 3198   8.219   2.619  10.531 -0.9097  0.2137  0.1533
  765MOL0     O 3199   8.141   2.513  10.482 -0.1904 -0.4551 -0.7671
  765MOL0     C 3200   8.098   2.421  10.582  0.1071  0.0230 -0.4735
  765MOL0     C 3201   8.126   2.272  10.546 -0.0291 -0.0853 -1.0765
  765MOL0     C 3202   8.058   2.207  10.432  0.1596 -0.4508 -0.4869
  765MOL0     C 3203   8.103   2.065  10.419  0.1711  0.5027  0.0495
  765MOL0     C 3204   8.045   2.015  10.296 -0.0790  0.1797  0.0020
  765MOL0     C 3205   8.010   1.952  10.197  0.1099  0.0084 -0.4736
  765MOL0     C 3206   8.343   2.582  10.587 -0.2619  0.3340  0.0943
  765MOL0     C 3207   8.425   2.673  10.644 -0.3587 -0.1874  0.5626
  765MOL0     H 3208   8.643   3.157  10.756  2.5146  2.1422  0.3427
  765MOL0     H 3209   8.854   3.273  10.743 -0.2917  0.2941  0.0770
  765MOL0     H 3210   9.083   3.176  10.413  1.3681  1.5017 -0.5770
  765MOL0     H 3211   9.034   3.333  10.483  0.7338  1.6786  0.8128
  765MOL0     H 3212   9.292   3.204  10.560  0.9309  1.7832  2.3627
  765MOL0     H 3213   9.291   3.283  10.412 -1.3011 -1.2077  0.0704
  765MOL0     H 3214   9.231   3.505  10.511 -0.6532 -0.6481 -0.6187
  765MOL0     H 3215   9.196   3.444  10.672  1.1777  0.4409  1.1123
  765MOL0     H 3216   9.427   3.366  10.693 -2.1870 -1.4528  0.1540
  765MOL0     H 3217   9.445   3.420  10.514 -1.4938  1.3326 -1.2182
  765MOL0     H 3218   9.447   3.641  10.574 -2.7672 -0.2668 -0.8020
  765MOL0     H 3219   9.375   3.604  10.737  1.4797  1.9630  0.6533
  765MOL0     H 3220   9.592   3.470  10.773  2.4803  0.6571  0.5032
  765MOL0     H 3221   9.655   3.526  10.620  0.0905 -0.3477  0.5487
  765MOL0     H 3222   9.565   3.697  10.852 -1.3432 -2.1294 -0.1745
  765MOL0     H 3223   9.731   3.641  10.808 -1.9885 -2.4093  1.6498
  765MOL0     H 3224   9.688   3.883  10.749  0.6221 -1.7538  0.8576
  765MOL0     H 3225   9.553   3.840  10.656  0.2963 -1.3471 -2.6716
  765MOL0     H 3226   9.927   3.732  10.628  0.4291 -1.5862  0.3660
  765MOL0     H 3227  10.079   3.645  10.419 -1.2638  2.1754  2.1405
  765MOL0     H 3228  10.009   3.650  10.250  1.4121  0.0750 -0.5274
  765MOL0     H 3229  10.194   3.803  10.316 -0.1517 -0.2791 -1.0223
  765MOL0     H 3230  10.074   3.896  10.405 -0.3067 -0.6317  1.1838
  765MOL0     H 3231   9.956   3.909  10.179 -0.2548 -1.8366 -0.7043
  765MOL0     H 3232  10.113   3.855  10.110  0.7346  1.6625  0.4080
  765MOL0     H 3233  10.101   4.109  10.292  2.5442  1.5662 -1.0894
  765MOL0     H 3234  10.082   4.099  10.114 -0.4785 -0.2711  0.1464
  765MOL0     H 3235  10.253   4.290  10.058 -0.8886  0.0073  0.4089
  765MOL0     H 3236  10.459   4.572  10.081 -0.8022  0.9339 -1.1198
  765MOL0     H 3237  10.310   4.513  10.007 -0.5758 -1.2731  0.8862
  765MOL0     H 3238  10.292   4.626  10.125 -0.7544 -0.8905 -0.0236
  765MOL0     H 3239  10.679   4.736  10.564 -0.8188  1.2809 -0.4296
  765MOL0     H 3240  10.641   4.926  10.745 -1.4418  1.8945  1.7135
  765MOL0     H 3241  10.475   5.116  10.726  2.3440  0.1384  3.9029
  765MOL0     H 3242  10.300   5.076  10.749 -1.8408 -1.3389  3.9564
  765MOL0     H 3243  10.322   5.173  10.981 -1.7193  1.7921 -1.7225
  765MOL0     H 3244  10.490   5.232  10.928  0.9573 -1.2811  1.5157
  765MOL0     H 3245  10.381   5.415  10.922 -3.4490  0.6293  1.3163
  765MOL0     H 3246  10.225   5.346  10.857 -0.8816 -1.4349 -4.4996
  765MOL0     H 3247  10.482   5.381  10.694 -0.5646  2.2991 -2.0619
  765MOL0     H 3248  10.330   5.313  10.632 -2.4051  2.3506 -1.0832
  765MOL0     H 3249  10.400   5.588  10.724  4.5362 -3.4007  0.8555
  765MOL0     H 3250  10.226   5.551  10.695  0.0668  0.0132 -0.3095
  765MOL0     H 3251  10.444   5.500  10.494  0.2097  1.6971  0.5746
  765MOL0     H 3252  10.267   5.487  10.476  0.8041  0.2385 -0.9883
  765MOL0     H 3253  10.454   5.730  10.501  0.6827 -0.1324 -1.4757
  765MOL0     H 3254  10.287   5.750  10.553  0.2979 -0.1990 -0.2671
  765MOL0     H 3255  10.399   5.651  10.280 -2.2605 -1.3301 -1.0847
  765MOL0     H 3256  10.361   5.811  10.308 -1.4542 -0.8153 -2.6805
  765MOL0     H 3257  10.248   4.789  10.792 -0.1416 -3.6588  0.7153
  765MOL0     H 3258  10.279   4.600  10.637 -1.8487  1.6141 -1.3282
  765MOL0     H 3259  10.504   4.306  10.476 -4.5844  1.4024  2.7098
  765MOL0     H 3260  10.418   4.091  10.390  0.5799  0.2078  2.2933
  765MOL0     H 3261   9.044   2.942  10.580 -1.2169 -1.2775  0.8282
  765MOL0     H 3262   8.836   2.832  10.525 -0.4276 -0.8445  0.2921
  765MOL0     H 3263   8.256   2.953  10.542 -0.9986 -0.1161  1.4834
  765MOL0     H 3264   8.094   2.779  10.466  0.5919  5.1124  1.6405
  765MOL0     H 3265   8.138   2.453  10.679 -0.2179 -3.6871  1.0401
  765MOL0     H 3266   7.991   2.435  10.597  0.6648  2.7054  1.9564
  765MOL0     H 3267   8.094   2.216  10.635  2.6232  0.6025  0.4294
  765MOL0     H 3268   8.235   2.260  10.541  0.0572 -0.5783  1.0920
  765MOL0     H 3269   8.094   2.267  10.348  2.1964 -0.8427  0.0555
  765MOL0     H 3270   7.948   2.213  10.434  0.1963  0.4853 -0.6007
  765MOL0     H 3271   8.060   2.016  10.506  0.5170  1.3356  0.6996
  765MOL0     H 3272   8.210   2.045  10.418  0.7654  3.2091  0.2823
  765MOL0     H 3273   7.962   1.899  10.117  3.6094 -0.0614 -2.7080
  765MOL0     H 3274   8.371   2.477  10.599  1.9532  1.1001  2.6141
  765MOL0     H 3275   8.519   2.644  10.690 -0.8150 -0.7005  1.1762
  766MOL0     O 3276   9.287   2.523  11.054  0.1205  0.4597  0.0543
  766MOL0     C 3277   9.230   2.602  10.976  0.1749  1.4098  0.1447
  766MOL0     O 3278   9.169   2.566  10.866  0.3215  0.3452 -0.0222
  766MOL0     C 3279   9.126   2.436  10.841 -0.0937 -0.1265  0.2649
  766MOL0     C 3280   9.081   2.428  10.710 -0.0219  0.0496  0.6682
  766MOL0     C 3281   9.047   2.305  10.661  0.1065 -0.6254 -0.8920
  766MOL0     C 3282   9.059   2.188  10.744 -0.2585 -0.1132 -0.0070
  766MOL0     O 3283   9.050   2.062  10.694 -0.7062 -0.1506 -0.2182
  766MOL0     C 3284   8.969   2.028  10.582  0.6724 -0.3065 -1.3833
  766MOL0     C 3285   9.004   1.893  10.521  0.4208 -0.5358 -0.4555
  766MOL0     C 3286   8.896   1.824  10.441 -1.3422 -0.8681 -0.0602
  766MOL0     C 3287   8.938   1.680  10.392 -0.9884  0.0115 -0.0010
  766MOL0     C 3288   8.833   1.615  10.310  0.4828  0.4063  0.1981
  766MOL0     C 3289   8.874   1.469  10.286  0.2428 -1.5302  0.8908
  766MOL0     C 3290   8.834   1.368  10.386  0.3134  0.1589 -1.1903
  766MOL0     C 3291   8.679   1.344  10.389  0.1994  0.7616  0.0632
  766MOL0     N 3292   8.629   1.276  10.276 -0.1645  0.3377 -0.3386
  766MOL0     C 3293   8.563   1.331  10.171  0.5088  0.2123  0.3198
  766MOL0     C 3294   8.523   1.228  10.094  0.9220 -0.0736  0.1284
  766MOL0     C 3295   8.437   1.201   9.962  0.0475  0.5584  0.3505
  766MOL0     C 3296   8.512   1.277   9.859 -0.6807  1.5930  0.2564
  766MOL0     C 3297   8.649   1.207   9.829 -0.6203  0.0733  0.7534
  766MOL0     C 3298   8.697   1.266   9.699 -0.2260  0.2093 -0.2798
  766MOL0     O 3299   8.695   1.412   9.718  0.4883 -0.0388 -0.7719
  766MOL0     C 3300   8.751   1.477   9.604  0.1451  0.5586 -0.6346
  766MOL0     C 3301   8.723   1.610   9.597 -0.5222  0.6230 -0.1165
  766MOL0     C 3302   8.755   1.682   9.484 -0.6876 -0.7882 -0.2315
  766MOL0     C 3303   8.715   1.825   9.492  0.6769  0.1172  0.4742
  766MOL0     C 3304   8.813   1.621   9.372 -0.4725  0.2382  0.6428
  766MOL0     C 3305   8.854   1.686   9.243 -0.1415 -0.4149 -0.2717
  766MOL0     O 3306   8.960   1.628   9.178 -0.4087 -0.1439  0.3660
  766MOL0     C 3307   9.022   1.702   9.075  0.1117 -0.2828 -0.9700
  766MOL0     C 3308   8.966   1.704   8.948 -1.4900  0.0906  0.4295
  766MOL0     C 3309   9.023   1.781   8.842  1.2105 -0.5336 -0.2547
  766MOL0     C 3310   9.123   1.870   8.876  0.1452  0.0758  1.3162
  766MOL0     O 3311   9.190   1.942   8.780 -0.1934  0.1993 -0.3888
  766MOL0     C 3312   9.159   1.935   8.635 -0.2053 -0.3416 -0.0195
  766MOL0     C 3313   9.198   2.066   8.564 -0.1590 -0.3192  0.2428
  766MOL0     C 3314   9.106   2.189   8.577  0.1173 -0.2016  0.1669
  766MOL0     C 3315   9.142   2.317   8.503  1.0381 -0.2108  0.9606
  766MOL0     C 3316   9.165   2.296   8.354  0.2373  0.4886 -0.3677
  766MOL0     C 3317   9.138   2.419   8.261 -0.2926 -0.5733 -0.2104
  766MOL0     C 3318   9.238   2.537   8.301  1.0173  0.5411  0.1958
  766MOL0     C 3319   9.210   2.673   8.232  0.4615  0.4217  0.6240
  766MOL0    Cl 3320   9.192   2.643   8.052  0.5641  0.2630 -0.0020
  766MOL0     C 3321   9.184   1.862   9.007 -0.4754 -0.0806  0.6580
  766MOL0     C 3322   9.133   1.780   9.100 -0.4071 -0.7172  0.6054
  766MOL0     O 3323   8.796   1.791   9.206  0.2769 -0.0293  0.1164
  766MOL0     C 3324   8.836   1.476   9.384 -0.4582  0.0799  0.6935
  766MOL0     C 3325   8.813   1.407   9.498  0.0719 -0.0293 -0.4201
  766MOL0     N 3326   8.560   1.112  10.162 -0.0649  0.5859 -0.5279
  766MOL0     N 3327   8.637   1.141  10.260  0.8602  0.1631  0.3991
  766MOL0     C 3328   9.108   2.201  10.869  0.3761  1.4213  0.6087
  766MOL0     C 3329   9.133   2.317  10.921  0.2856 -0.8105  0.5763
  766MOL0     C 3330   9.239   2.747  11.014  1.0476  0.2550  1.0689
  766MOL0     C 3331   9.182   2.842  10.931 -0.5890 -0.5713  0.2199
  766MOL0     C 3332   9.205   2.973  10.961  0.8656  0.5396  0.0909
  766MOL0     C 3333   9.274   3.018  11.069 -0.1676 -0.3854 -0.2734
  766MOL0     O 3334   9.299   3.151  11.112  0.0606 -0.0515 -0.4669
  766MOL0     C 3335   9.253   3.257  11.027 -0.8620  0.2715  0.4577
  766MOL0     C 3336   9.323   3.389  11.071  0.6098  0.0033  0.4060
  766MOL0     C 3337   9.246   3.520  11.026 -0.7592  0.5956  0.5518
  766MOL0     C 3338   9.347   3.636  11.031 -0.1902  0.2270 -0.1468
  766MOL0     C 3339   9.302   3.753  10.959  0.9590  0.1904  1.0109
  766MOL0     C 3340   9.274   3.857  10.892 -0.0782  0.6883 -0.0674
  766MOL0     C 3341   9.323   2.925  11.163  0.2556 -1.3663  0.4294
  766MOL0     C 3342   9.306   2.789  11.130 -0.2032 -0.7479  0.5533
  766MOL0     H 3343   9.042   2.516  10.660 -3.2259  1.0078  4.3433
  766MOL0     H 3344   9.018   2.290  10.557 -2.6036  2.5788 -0.7773
  766MOL0     H 3345   8.868   2.011  10.621  1.3235 -0.1715  0.4357
  766MOL0     H 3346   8.966   2.107  10.506  0.9030 -0.7433 -1.8570
  766MOL0     H 3347   9.092   1.905  10.458 -0.8499  0.3014 -2.1537
  766MOL0     H 3348   9.017   1.816  10.598 -2.3567 -1.1434 -0.4632
  766MOL0     H 3349   8.805   1.816  10.501 -1.3390 -1.9034 -0.1711
  766MOL0     H 3350   8.863   1.889  10.359  0.8952 -1.8146 -1.8237
  766MOL0     H 3351   9.029   1.698  10.334 -2.0727  3.5445 -0.8463
  766MOL0     H 3352   8.976   1.623  10.478 -0.6626  0.7418  0.3483
  766MOL0     H 3353   8.740   1.620  10.367 -1.1996 -0.8775 -2.2324
  766MOL0     H 3354   8.823   1.670  10.216 -0.9622  3.2944  1.8895
  766MOL0     H 3355   8.840   1.435  10.187  0.3658 -0.2048  0.3760
  766MOL0     H 3356   8.983   1.468  10.281  0.3466 -0.9079  2.4438
  766MOL0     H 3357   8.880   1.273  10.360 -1.5981 -0.7469 -1.4650
  766MOL0     H 3358   8.868   1.390  10.488  1.5206 -2.7503 -0.8771
  766MOL0     H 3359   8.633   1.442  10.400 -3.2702 -0.0102 -4.4337
  766MOL0     H 3360   8.658   1.269  10.466 -0.2502 -0.5425 -1.2681
  766MOL0     H 3361   8.552   1.438  10.159 -0.3476  0.3194  1.7972
  766MOL0     H 3362   8.421   1.097   9.935  0.4691  0.0481  1.9357
  766MOL0     H 3363   8.335   1.239   9.970 -0.0221  0.0252  3.9929
  766MOL0     H 3364   8.514   1.384   9.880 -2.8346  2.0614 -1.4699
  766MOL0     H 3365   8.450   1.265   9.769 -1.8784  3.3732  0.7906
  766MOL0     H 3366   8.645   1.098   9.817  0.6743 -0.2600  2.9591
  766MOL0     H 3367   8.723   1.227   9.906 -1.7961  0.1130  1.9105
  766MOL0     H 3368   8.639   1.238   9.611 -2.1865  1.4510  0.5377
  766MOL0     H 3369   8.800   1.231   9.691 -1.2760 -2.8241 -5.8598
  766MOL0     H 3370   8.672   1.653   9.682 -2.8302  1.0192 -1.6212
  766MOL0     H 3371   8.786   1.901   9.458  0.0046  0.1240 -0.9747
  766MOL0     H 3372   8.623   1.839   9.435 -0.2531  0.7602  2.0502
  766MOL0     H 3373   8.706   1.848   9.599  4.0322 -0.4403  0.9999
  766MOL0     H 3374   8.901   1.622   8.921 -0.6161  0.0394 -1.6940
  766MOL0     H 3375   8.977   1.767   8.745 -0.5524  2.0078  0.1267
  766MOL0     H 3376   9.212   1.853   8.588  0.7780  1.9415 -3.2270
  766MOL0     H 3377   9.054   1.920   8.607 -0.9767  0.7633  1.9882
  766MOL0     H 3378   9.297   2.098   8.598 -0.6810 -0.8102  2.3556
  766MOL0     H 3379   9.199   2.038   8.458 -3.4425  0.1402 -0.0306
  766MOL0     H 3380   9.098   2.224   8.681 -1.4759  0.8526 -0.2695
  766MOL0     H 3381   9.008   2.151   8.546 -0.1744  1.0012 -0.4429
  766MOL0     H 3382   9.061   2.390   8.513 -0.3298 -1.2246 -1.6651
  766MOL0     H 3383   9.241   2.355   8.529 -0.6105  5.2671  0.3462
  766MOL0     H 3384   9.099   2.214   8.321 -2.2655  1.4030  1.9754
  766MOL0     H 3385   9.267   2.271   8.326  0.1693  1.2529 -1.3379
  766MOL0     H 3386   9.165   2.389   8.159  1.7372  0.3957 -0.0206
  766MOL0     H 3387   9.032   2.446   8.268 -0.7015 -2.1069 -0.1413
  766MOL0     H 3388   9.340   2.506   8.277  1.4501  2.2525 -0.2905
  766MOL0     H 3389   9.228   2.542   8.410  0.8527  0.0204  0.2076
  766MOL0     H 3390   9.286   2.748   8.255  2.1162 -1.3251  1.1387
  766MOL0     H 3391   9.115   2.714   8.269 -0.6343 -0.6905 -0.8377
  766MOL0     H 3392   9.277   1.917   9.016 -0.9043  1.7214 -3.4129
  766MOL0     H 3393   9.190   1.748   9.187 -1.8040 -1.0343  1.4455
  766MOL0     H 3394   8.863   1.424   9.292  0.5599 -0.7704  1.4509
  766MOL0     H 3395   8.838   1.302   9.496  0.1400  0.0017 -2.0107
  766MOL0     H 3396   9.118   2.111  10.929  1.7801  0.8148 -0.4825
  766MOL0     H 3397   9.171   2.328  11.022  0.1942  1.2238  0.4223
  766MOL0     H 3398   9.124   2.814  10.844  2.0021 -2.1728 -1.1142
  766MOL0     H 3399   9.182   3.041  10.880 -0.7898 -0.0489  0.0293
  766MOL0     H 3400   9.266   3.239  10.919  3.3215 -2.4246  1.1776
  766MOL0     H 3401   9.145   3.268  11.039 -1.0876  2.0075 -2.1656
  766MOL0     H 3402   9.427   3.389  11.037 -0.1933 -0.4698 -2.3500
  766MOL0     H 3403   9.319   3.383  11.180  2.7914 -0.6764  0.4923
  766MOL0     H 3404   9.152   3.540  11.077 -2.1716 -1.1525 -1.1865
  766MOL0     H 3405   9.221   3.503  10.920 -0.0416 -0.6968  0.5643
  766MOL0     H 3406   9.439   3.603  10.982  1.2956  3.4856  0.1349
  766MOL0     H 3407   9.390   3.663  11.128 -1.4722  2.7888 -0.2016
  766MOL0     H 3408   9.252   3.931  10.818 -2.6655  0.2679  0.1797
  766MOL0     H 3409   9.367   2.955  11.258 -0.5875 -1.4402  0.8462
  766MOL0     H 3410   9.359   2.721  11.195  0.5923 -2.8154 -2.0448
  767MOL0     O 3411   6.442   6.788  10.313 -0.5041 -0.0146  0.6423
  767MOL0     C 3412   6.543   6.792  10.383  0.0360 -0.2061  0.3774
  767MOL0     O 3413   6.543   6.799  10.521 -0.1261  0.3845  0.1082
  767MOL0     C 3414   6.435   6.755  10.585  0.5714 -1.0686  0.6487
  767MOL0     C 3415   6.392   6.829  10.696 -0.2683  0.1314  0.1191
  767MOL0     C 3416   6.272   6.796  10.762 -0.6353  0.4928  0.2641
  767MOL0     C 3417   6.190   6.694  10.716 -0.2870 -0.3176  0.7984
  767MOL0     O 3418   6.060   6.669  10.755 -0.4811 -0.5986 -0.5505
  767MOL0     C 3419   5.997   6.789  10.803 -0.9791 -0.1943  0.8488
  767MOL0     C 3420   5.842   6.803  10.793  0.1285  0.4867  0.4874
  767MOL0     C 3421   5.767   6.698  10.876  0.0122  1.2492 -1.0685
  767MOL0     C 3422   5.617   6.732  10.874 -0.3965 -0.2991 -0.3838
  767MOL0     C 3423   5.540   6.643  10.979 -0.7452 -0.3300 -0.8319
  767MOL0     C 3424   5.503   6.501  10.956 -0.4978  0.9651 -0.7857
  767MOL0     C 3425   5.462   6.469  10.817  0.0144 -0.3454 -0.3907
  767MOL0     C 3426   5.424   6.322  10.809 -0.4873 -0.2769 -0.5473
  767MOL0     N 3427   5.282   6.290  10.846  0.7863 -1.1317  0.6866
  767MOL0     C 3428   5.237   6.250  10.969 -0.5106 -0.2365  0.7611
  767MOL0     C 3429   5.108   6.225  10.943  0.9590  0.0911  0.7022
  767MOL0     C 3430   5.004   6.199  11.050 -0.0749  0.0802 -0.2855
  767MOL0     C 3431   4.877   6.282  11.034 -0.2049 -0.4425  0.1203
  767MOL0     C 3432   4.900   6.431  11.033  0.7819 -0.5800 -0.3149
  767MOL0     C 3433   5.000   6.475  11.145 -0.1228 -0.2350  0.3931
  767MOL0     O 3434   5.011   6.626  11.142 -0.4273 -0.4846 -0.4251
  767MOL0     C 3435   5.119   6.677  11.195 -0.0071 -0.5541  0.7075
  767MOL0     C 3436   5.209   6.614  11.276 -1.2279  0.6376  0.2468
  767MOL0     C 3437   5.326   6.675  11.326  0.2469  1.3394  0.9380
  767MOL0     C 3438   5.391   6.593  11.427  0.0622  0.0872  0.3833
  767MOL0     C 3439   5.356   6.807  11.292  0.5503  0.0271  1.1182
  767MOL0     C 3440   5.481   6.877  11.323 -1.4465  0.5549 -0.5256
  767MOL0     O 3441   5.584   6.805  11.361 -0.5495  0.5736 -0.7563
  767MOL0     C 3442   5.713   6.859  11.349  0.9661 -0.7400 -0.2727
  767MOL0     C 3443   5.797   6.876  11.458  1.0179  0.8525  0.2721
  767MOL0     C 3444   5.927   6.911  11.434 -0.4299  0.5766  0.8023
  767MOL0     C 3445   5.975   6.942  11.303 -0.5221  0.1292  0.3980
  767MOL0     O 3446   6.105   6.968  11.272 -0.9213 -0.2007 -0.3382
  767MOL0     C 3447   6.199   7.011  11.371 -0.7294 -0.1580 -0.7615
  767MOL0     C 3448   6.339   6.984  11.325 -0.1460 -0.5063  0.3029
  767MOL0     C 3449   6.463   7.024  11.411  0.6271 -0.6408  0.4070
  767MOL0     C 3450   6.455   6.983  11.558  0.0791 -0.1957 -0.0909
  767MOL0     C 3451   6.586   7.021  11.623 -0.5761 -0.0364 -1.5776
  767MOL0     C 3452   6.600   7.010  11.775  0.6440  0.0196  0.2582
  767MOL0     C 3453   6.724   7.090  11.832  0.0945  0.3922  0.3074
  767MOL0     C 3454   6.862   7.052  11.767 -0.4920  0.5799  0.0543
  767MOL0    Cl 3455   6.998   7.128  11.858  0.5450  0.1782 -0.6172
  767MOL0     C 3456   5.881   6.927  11.196 -0.2578 -0.1585 -0.1786
  767MOL0     C 3457   5.753   6.887  11.219  0.8445 -0.8352  0.0888
  767MOL0     O 3458   5.482   6.997  11.304 -0.3906  0.2882 -0.5886
  767MOL0     C 3459   5.260   6.874  11.209 -0.3477  1.3362 -0.5995
  767MOL0     C 3460   5.147   6.814  11.163  0.3564 -0.5571 -0.7598
  767MOL0     N 3461   5.075   6.252  10.810 -0.1561  0.3994 -0.0831
  767MOL0     N 3462   5.179   6.290  10.757 -0.6198  0.2480  0.6881
  767MOL0     C 3463   6.242   6.609  10.604  0.3442  0.0947 -0.3668
  767MOL0     C 3464   6.360   6.643  10.544 -0.3091 -0.8789  0.3295
  767MOL0     C 3465   6.678   6.769  10.332  0.2228  0.6448  0.9025
  767MOL0     C 3466   6.786   6.743  10.417  0.1452  0.1557  0.1811
  767MOL0     C 3467   6.918   6.734  10.363 -0.2631 -0.3788 -0.4897
  767MOL0     C 3468   6.945   6.760  10.231  0.5789  0.8894 -0.0551
  767MOL0     O 3469   7.054   6.775  10.158 -0.2844 -0.2113 -0.3971
  767MOL0     C 3470   7.175   6.780  10.224  0.9695 -0.2783 -0.2068
  767MOL0     C 3471   7.220   6.634  10.244  1.1282  0.1989 -0.2030
  767MOL0     C 3472   7.344   6.623  10.338  0.7509 -0.1293  0.2956
  767MOL0     C 3473   7.418   6.489  10.339 -1.0880  0.6654 -0.3461
  767MOL0     C 3474   7.531   6.483  10.439  0.2942  0.5754 -0.4766
  767MOL0     C 3475   7.625   6.464  10.514  1.5428  0.3465 -1.2560
  767MOL0     C 3476   6.833   6.768  10.148 -0.4117 -0.0172 -0.1398
  767MOL0     C 3477   6.702   6.770  10.197  0.4275 -0.4733  0.0938
  767MOL0     H 3478   6.450   6.918  10.718  1.6454 -1.0722  0.2532
  767MOL0     H 3479   6.243   6.861  10.844 -3.4233  0.7907 -0.8271
  767MOL0     H 3480   6.023   6.812  10.906  1.6689  0.1860  0.1939
  767MOL0     H 3481   6.036   6.874  10.746 -2.7485  2.2589  3.0983
  767MOL0     H 3482   5.825   6.905  10.829  0.1612  0.5582  0.3040
  767MOL0     H 3483   5.809   6.797  10.689 -1.2856  1.7845  0.8201
  767MOL0     H 3484   5.791   6.600  10.834 -2.6522  0.5714 -1.1558
  767MOL0     H 3485   5.810   6.708  10.976 -1.0649  1.0701 -0.5781
  767MOL0     H 3486   5.611   6.834  10.913  0.6958  0.6040 -2.3939
  767MOL0     H 3487   5.573   6.714  10.775 -1.1687 -2.0699  0.2441
  767MOL0     H 3488   5.592   6.650  11.075  2.9229 -1.1749 -2.5937
  767MOL0     H 3489   5.449   6.698  11.004 -0.1143  0.6521 -0.6380
  767MOL0     H 3490   5.599   6.453  10.974 -0.5306  1.8213  2.3786
  767MOL0     H 3491   5.434   6.468  11.034 -1.1188 -0.3989 -1.8780
  767MOL0     H 3492   5.375   6.531  10.793  0.5927  0.4189 -0.5562
  767MOL0     H 3493   5.544   6.486  10.747  0.7996  1.1536  0.8465
  767MOL0     H 3494   5.502   6.271  10.866  2.4163  0.6549 -3.4173
  767MOL0     H 3495   5.444   6.285  10.708  0.8914  0.9040 -0.7492
  767MOL0     H 3496   5.297   6.243  11.060 -0.4259 -0.0453  0.7213
  767MOL0     H 3497   5.001   6.090  11.061 -3.4671  0.0634 -0.3050
  767MOL0     H 3498   5.046   6.231  11.146 -1.7478 -2.0696  1.2379
  767MOL0     H 3499   4.807   6.248  11.111 -0.1662  0.3340  0.4993
  767MOL0     H 3500   4.834   6.252  10.938 -2.1432  1.9591  0.1585
  767MOL0     H 3501   4.810   6.492  11.022 -0.9815 -2.6942  1.5200
  767MOL0     H 3502   4.952   6.464  10.942  0.9893  0.7481  0.2669
  767MOL0     H 3503   5.104   6.442  11.138  0.1339  0.4930  0.7448
  767MOL0     H 3504   4.965   6.435  11.240  1.8527 -3.4088 -0.0579
  767MOL0     H 3505   5.200   6.509  11.303 -0.2955 -0.6531 -3.7617
  767MOL0     H 3506   5.472   6.549  11.368 -0.7043  0.9111 -1.3664
  767MOL0     H 3507   5.443   6.655  11.501  0.4437  1.1963 -0.7601
  767MOL0     H 3508   5.337   6.508  11.470 -0.8663  0.9574  0.9946
  767MOL0     H 3509   5.756   6.850  11.555  0.8573  1.7033  0.4386
  767MOL0     H 3510   5.985   6.946  11.518 -3.4878 -0.0499  3.3738
  767MOL0     H 3511   6.193   7.118  11.392  2.6735 -0.2926  1.5913
  767MOL0     H 3512   6.198   6.949  11.461  0.8393 -3.2679 -2.7021
  767MOL0     H 3513   6.344   6.875  11.312 -1.2201 -0.4551 -0.8386
  767MOL0     H 3514   6.360   7.017  11.223  0.6645 -0.1036  0.5914
  767MOL0     H 3515   6.463   7.133  11.411  1.8365 -0.6112 -1.3694
  767MOL0     H 3516   6.551   6.982  11.361  1.8882 -0.2883  2.2245
  767MOL0     H 3517   6.376   7.037  11.611 -0.0389 -0.7547  0.3031
  767MOL0     H 3518   6.432   6.877  11.546  1.1598 -0.1970 -3.0809
  767MOL0     H 3519   6.619   7.119  11.585 -0.5240  0.1360 -1.0886
  767MOL0     H 3520   6.656   6.952  11.575  0.6726 -0.5952  0.9200
  767MOL0     H 3521   6.517   7.050  11.834  0.5641  1.3937 -0.7375
  767MOL0     H 3522   6.612   6.905  11.804  3.3762  0.9970  3.2261
  767MOL0     H 3523   6.725   7.058  11.937 -0.7329 -3.8448 -0.7574
  767MOL0     H 3524   6.698   7.195  11.819 -4.1547 -0.4514  0.5128
  767MOL0     H 3525   6.872   7.075  11.660 -0.0446  0.6023  0.1019
  767MOL0     H 3526   6.874   6.944  11.758  1.2215  0.8767 -2.0241
  767MOL0     H 3527   5.901   6.957  11.093 -1.6073 -0.1338 -0.4553
  767MOL0     H 3528   5.685   6.880  11.135 -2.3779  0.0679  2.4097
  767MOL0     H 3529   5.283   6.973  11.173  0.3048  2.2943  2.1547
  767MOL0     H 3530   5.076   6.866  11.099  1.4080 -0.6847 -2.0663
  767MOL0     H 3531   6.184   6.529  10.559  1.7799 -0.8572 -0.6015
  767MOL0     H 3532   6.397   6.581  10.463 -0.6020 -1.0272  0.3075
  767MOL0     H 3533   6.777   6.751  10.524  1.9533  4.0898  0.2162
  767MOL0     H 3534   7.001   6.721  10.432 -1.1599  0.6175  0.8345
  767MOL0     H 3535   7.251   6.827  10.161  0.9262 -0.8119 -0.6621
  767MOL0     H 3536   7.160   6.829  10.320 -0.4418 -2.4086  0.7260
  767MOL0     H 3537   7.241   6.592  10.146 -0.4223  1.0547 -0.9351
  767MOL0     H 3538   7.143   6.567  10.283  1.8881 -2.2417 -2.6119
  767MOL0     H 3539   7.296   6.646  10.433 -1.6264  3.1388 -1.4799
  767MOL0     H 3540   7.424   6.693  10.312  0.5094  0.5580  1.3491
  767MOL0     H 3541   7.461   6.469  10.240 -0.6221 -0.6482  0.0888
  767MOL0     H 3542   7.361   6.397  10.359  1.3324 -0.7299  0.6390
  767MOL0     H 3543   7.698   6.456  10.592  1.9932  3.9413 -1.1484
  767MOL0     H 3544   6.854   6.786  10.043 -1.0792  0.5263 -0.1874
  767MOL0     H 3545   6.619   6.780  10.128  0.4160  0.3473  0.2134
  768MOL0     O 3546   8.769  10.091   8.653 -0.3052 -0.4609 -0.1786
  768MOL0     C 3547   8.728  10.201   8.606 -0.3440 -0.1953  1.0397
  768MOL0     O 3548   8.597  10.250   8.611 -0.4654 -0.2635  0.0213
  768MOL0     C 3549   8.490  10.194   8.671  0.2423  0.4615  0.0359
  768MOL0     C 3550   8.424  10.275   8.759  0.1425 -0.8470  0.1836
  768MOL0     C 3551   8.328  10.229   8.854  0.1633  0.6862  0.2088
  768MOL0     C 3552   8.300  10.091   8.863  0.2140 -0.2773  0.3815
  768MOL0     O 3553   8.221  10.032   8.959  0.4551  0.2168  0.1271
  768MOL0     C 3554   8.094   9.974   8.924 -0.2041 -1.1191  0.7701
  768MOL0     C 3555   8.017   9.917   9.041 -0.0399 -0.6826  0.4052
  768MOL0     C 3556   8.081   9.810   9.135  0.9012 -0.2050 -0.0584
  768MOL0     C 3557   8.129   9.687   9.060  0.1540 -0.8580  0.6411
  768MOL0     C 3558   8.187   9.572   9.136  0.1723 -0.5276  0.6543
  768MOL0     C 3559   8.308   9.618   9.234  0.4837 -0.6189 -0.0503
  768MOL0     C 3560   8.402   9.499   9.273  0.5015  0.2610  0.6652
  768MOL0     C 3561   8.344   9.392   9.365  0.0867 -0.6446  1.0852
  768MOL0     N 3562   8.289   9.440   9.496  0.5159 -0.5179 -1.1677
  768MOL0     C 3563   8.366   9.485   9.608  1.0268 -0.4369  0.9322
  768MOL0     C 3564   8.264   9.525   9.693 -1.1723  0.2699 -0.7365
  768MOL0     C 3565   8.284   9.563   9.836 -0.7263  0.0264 -0.4713
  768MOL0     C 3566   8.170   9.644   9.891 -0.1883  0.0845 -0.8634
  768MOL0     C 3567   8.210   9.704  10.027  0.3263  0.3629 -0.7121
  768MOL0     C 3568   8.332   9.791  10.027 -0.4977 -0.7428 -0.1719
  768MOL0     O 3569   8.343   9.887  10.132 -0.4650  0.1479 -0.4811
  768MOL0     C 3570   8.464   9.937  10.181 -0.0570 -0.0738  0.3928
  768MOL0     C 3571   8.595   9.901  10.151 -0.5601 -0.5689 -0.3149
  768MOL0     C 3572   8.701   9.980  10.185  0.0016  0.6947 -0.0197
  768MOL0     C 3573   8.842   9.924  10.176 -0.0312  0.0136 -0.2111
  768MOL0     C 3574   8.671  10.111  10.245 -0.3066  0.9522  0.3082
  768MOL0     C 3575   8.770  10.208  10.293  1.0748 -0.0194  0.1486
  768MOL0     O 3576   8.722  10.288  10.391  0.0940 -0.3456  0.3012
  768MOL0     C 3577   8.783  10.408  10.410 -0.3615  0.2412  0.9800
  768MOL0     C 3578   8.816  10.495  10.303 -0.7808 -0.8640  1.0943
  768MOL0     C 3579   8.875  10.619  10.323 -0.3018  0.1491  0.2996
  768MOL0     C 3580   8.901  10.658  10.456  0.2154 -0.1590 -0.5821
  768MOL0     O 3581   8.959  10.783  10.484  0.3472 -0.0576  0.3148
  768MOL0     C 3582   8.937  10.848  10.607 -0.1930  0.5728 -0.7225
  768MOL0     C 3583   9.008  10.986  10.618  0.2247  0.1467  0.8008
  768MOL0     C 3584   8.963  11.109  10.530 -0.5488  0.2484  0.6368
  768MOL0     C 3585   9.013  11.241  10.579 -0.8645  0.0515  1.0488
  768MOL0     C 3586   8.975  11.364  10.484 -0.2375 -0.5300 -1.1581
  768MOL0     C 3587   9.068  11.486  10.483 -0.4892 -0.8669 -0.3472
  768MOL0     C 3588   9.088  11.556  10.626 -0.4651  0.2517  1.0509
  768MOL0     C 3589   9.133  11.704  10.606  0.1946  0.0326  0.2032
  768MOL0    Cl 3590   9.166  11.774  10.761 -0.4327 -0.4199 -0.5050
  768MOL0     C 3591   8.876  10.567  10.562 -0.2126  0.6318  0.4689
  768MOL0     C 3592   8.809  10.451  10.537  0.3365 -0.0943 -0.1104
  768MOL0     O 3593   8.887  10.195  10.246  0.7580  0.1410  0.3426
  768MOL0     C 3594   8.542  10.131  10.288  0.1006 -0.3018  0.4203
  768MOL0     C 3595   8.446  10.050  10.247 -0.2150 -0.0852 -0.6035
  768MOL0     N 3596   8.145   9.520   9.637  0.2030  0.8380  0.2386
  768MOL0     N 3597   8.157   9.470   9.519  0.2092 -0.4746 -0.2545
  768MOL0     C 3598   8.366  10.002   8.772 -1.0868 -0.9246  1.1745
  768MOL0     C 3599   8.463  10.051   8.676 -0.0429  0.2419  0.3372
  768MOL0     C 3600   8.831  10.260   8.514  0.4057  0.2889 -0.5660
  768MOL0     C 3601   8.968  10.218   8.522  0.1079 -0.4364  0.2153
  768MOL0     C 3602   9.068  10.275   8.447  0.3697  0.2815  0.1548
  768MOL0     C 3603   9.023  10.384   8.365 -0.4536 -0.4729 -0.1916
  768MOL0     O 3604   9.116  10.453   8.291 -0.0688 -1.2929 -0.3864
  768MOL0     C 3605   9.181  10.364   8.197  0.0492 -0.0162 -0.2840
  768MOL0     C 3606   9.274  10.447   8.098  1.2222  0.1053 -0.5498
  768MOL0     C 3607   9.387  10.508   8.184 -0.0716  0.5816 -0.1729
  768MOL0     C 3608   9.462  10.614   8.094  0.1309 -0.2965 -0.4658
  768MOL0     C 3609   9.513  10.552   7.974  0.6548  0.0070 -0.5401
  768MOL0     C 3610   9.571  10.487   7.888  0.0191  0.9591 -0.5568
  768MOL0     C 3611   8.896  10.430   8.362  0.4619 -0.0412  0.3021
  768MOL0     C 3612   8.804  10.368   8.435  0.1816 -0.1771 -0.8052
  768MOL0     H 3613   8.447  10.381   8.768 -0.5853 -0.6544 -0.1514
  768MOL0     H 3614   8.279  10.301   8.918  0.3298  2.4203 -1.5294
  768MOL0     H 3615   8.035  10.054   8.877  0.4767 -0.7906  0.4496
  768MOL0     H 3616   8.114   9.888   8.859 -0.0334 -0.3009 -0.3073
  768MOL0     H 3617   7.980  10.002   9.099 -1.6568 -1.8595  1.1617
  768MOL0     H 3618   7.924   9.877   9.001 -1.7611  1.5839  1.9241
  768MOL0     H 3619   8.154   9.851   9.206 -0.1292 -0.0029  0.9176
  768MOL0     H 3620   8.013   9.764   9.207 -0.8702  0.7863 -1.0207
  768MOL0     H 3621   8.036   9.655   9.012 -0.2832 -1.7434  2.0479
  768MOL0     H 3622   8.193   9.721   8.978 -0.3515 -0.2866  0.4796
  768MOL0     H 3623   8.112   9.520   9.197 -0.2569 -0.2215  0.3906
  768MOL0     H 3624   8.228   9.494   9.071  1.7928  0.4098  0.5218
  768MOL0     H 3625   8.368   9.694   9.182  0.3821  0.7111  1.6644
  768MOL0     H 3626   8.272   9.673   9.321  2.8028  0.7089  0.1513
  768MOL0     H 3627   8.428   9.447   9.181 -0.0567  1.4180 -0.1654
  768MOL0     H 3628   8.491   9.537   9.322  2.3610 -0.4827 -1.9294
  768MOL0     H 3629   8.414   9.310   9.380 -0.1871 -0.9521  0.6992
  768MOL0     H 3630   8.260   9.343   9.316 -1.0273  1.0750  1.1673
  768MOL0     H 3631   8.472   9.467   9.617  1.0775 -2.0855 -1.8341
  768MOL0     H 3632   8.289   9.468   9.889 -0.3805 -0.6349 -1.6540
  768MOL0     H 3633   8.375   9.624   9.833 -0.9046  0.2619 -2.0739
  768MOL0     H 3634   8.078   9.586   9.906  0.0139  0.0919  0.4928
  768MOL0     H 3635   8.140   9.718   9.816 -1.3739  1.3670  0.7783
  768MOL0     H 3636   8.227   9.625  10.101  0.6942 -0.6505 -1.8587
  768MOL0     H 3637   8.117   9.756  10.053  0.2321  0.0189 -0.3487
  768MOL0     H 3638   8.344   9.846   9.933  3.1170  2.3658  1.8195
  768MOL0     H 3639   8.416   9.722  10.037 -0.1814 -0.2968  0.2867
  768MOL0     H 3640   8.612   9.801  10.111 -0.1345 -0.6518  0.0685
  768MOL0     H 3641   8.833   9.816  10.162 -1.8360  0.0429  0.4666
  768MOL0     H 3642   8.907   9.955  10.093  0.4510  0.1468  0.2100
  768MOL0     H 3643   8.889   9.939  10.274 -1.6171 -0.2364  0.6154
  768MOL0     H 3644   8.797  10.458  10.203  1.0274  1.8831 -0.3985
  768MOL0     H 3645   8.913  10.675  10.237 -3.0424  1.2371 -0.3025
  768MOL0     H 3646   8.831  10.860  10.631 -0.2890 -1.3899  0.0613
  768MOL0     H 3647   8.964  10.791  10.697  0.9849  1.1993 -0.6574
  768MOL0     H 3648   9.014  11.020  10.722  1.3839  2.1352  0.1481
  768MOL0     H 3649   9.112  10.961  10.593 -0.6209 -1.5415 -1.2828
  768MOL0     H 3650   8.854  11.107  10.538 -0.6278  0.9537 -0.2665
  768MOL0     H 3651   8.985  11.078  10.428  0.2256 -0.9960  1.1545
  768MOL0     H 3652   8.969  11.274  10.674 -0.6658 -0.3851  1.2935
  768MOL0     H 3653   9.122  11.245  10.579 -0.8725  0.7979 -0.2811
  768MOL0     H 3654   8.872  11.394  10.507 -0.0353 -1.1391  0.7797
  768MOL0     H 3655   8.979  11.312  10.388 -2.8402  1.3299 -2.3845
  768MOL0     H 3656   9.167  11.462  10.443  0.2616  2.3843 -0.6830
  768MOL0     H 3657   9.026  11.560  10.414  2.0072  1.7884  0.7681
  768MOL0     H 3658   9.163  11.514  10.693  2.1407  2.5688 -0.2261
  768MOL0     H 3659   8.992  11.555  10.680  0.6495  3.1113  3.4128
  768MOL0     H 3660   9.043  11.754  10.570 -0.4231 -1.4307 -0.3594
  768MOL0     H 3661   9.223  11.721  10.546 -0.3898  2.1307 -0.1529
  768MOL0     H 3662   8.910  10.581  10.664  2.1710 -0.9749 -0.0340
  768MOL0     H 3663   8.785  10.402  10.631 -0.3997  1.0470  0.3261
  768MOL0     H 3664   8.504  10.207  10.356 -0.1933 -0.9797  1.0255
  768MOL0     H 3665   8.350  10.055  10.296 -0.7707 -0.5665 -1.6219
  768MOL0     H 3666   8.366   9.898   8.804 -0.9243 -0.8567  1.3927
  768MOL0     H 3667   8.517   9.976   8.621  1.6412  1.3668  0.3740
  768MOL0     H 3668   9.002  10.141   8.590  0.6834  0.5466  1.0746
  768MOL0     H 3669   9.174  10.256   8.459  1.2572  4.4678  0.3502
  768MOL0     H 3670   9.248  10.297   8.251  0.9242 -0.5692 -1.9982
  768MOL0     H 3671   9.116  10.293   8.145 -0.1228  0.3759 -0.6068
  768MOL0     H 3672   9.214  10.525   8.049 -2.8032  0.1405  3.7868
  768MOL0     H 3673   9.322  10.379   8.027 -1.1752 -4.6633  1.9436
  768MOL0     H 3674   9.467  10.438   8.208  0.4751  0.4533 -2.1653
  768MOL0     H 3675   9.345  10.558   8.272  1.8894 -1.5270  2.0993
  768MOL0     H 3676   9.547  10.653   8.151  0.7368  2.3407 -2.9116
  768MOL0     H 3677   9.392  10.697   8.079 -1.0229 -0.6678  2.2895
  768MOL0     H 3678   9.648  10.439   7.831  0.3883  0.3884  0.4136
  768MOL0     H 3679   8.872  10.520   8.306 -0.0956 -0.8280 -0.7623
  768MOL0     H 3680   8.702  10.408   8.434  0.8667  1.7487  0.3858
  769MOL0     O 3681   8.722   0.668   5.599 -0.5144  0.1908  0.8139
  769MOL0     C 3682   8.645   0.600   5.534 -0.2950 -0.5215  0.1878
  769MOL0     O 3683   8.562   0.652   5.439 -0.0781  1.0763 -0.7090
  769MOL0     C 3684   8.566   0.783   5.424  0.4520 -0.4181  0.7194
  769MOL0     C 3685   8.546   0.884   5.513 -0.4670  0.1365  0.4400
  769MOL0     C 3686   8.549   1.016   5.459  0.1722 -0.2557  0.6318
  769MOL0     C 3687   8.561   1.048   5.323 -0.3378  0.5065  0.2345
  769MOL0     O 3688   8.553   1.180   5.288 -0.1038 -1.0939 -0.7897
  769MOL0     C 3689   8.591   1.217   5.155 -0.3085  0.2992 -0.3274
  769MOL0     C 3690   8.548   1.364   5.144 -0.2268  0.1231  0.4174
  769MOL0     C 3691   8.534   1.398   4.997 -0.2188 -0.0374 -0.1136
  769MOL0     C 3692   8.523   1.550   4.960 -0.1601  0.1242  0.2211
  769MOL0     C 3693   8.462   1.580   4.817  0.9889 -0.5700  0.7833
  769MOL0     C 3694   8.307   1.558   4.806 -0.3585 -0.0358  0.2326
  769MOL0     C 3695   8.241   1.586   4.673  0.3878  0.1338  1.0058
  769MOL0     C 3696   8.271   1.737   4.635  0.6398  0.2394 -0.1873
  769MOL0     N 3697   8.207   1.777   4.513  0.5206 -0.4428  0.1944
  769MOL0     C 3698   8.168   1.904   4.497  1.0086  0.5185  0.2988
  769MOL0     C 3699   8.140   1.912   4.361  0.2767  0.6286  0.2200
  769MOL0     C 3700   8.086   2.030   4.291  1.3226  0.0928 -0.0798
  769MOL0     C 3701   7.929   2.030   4.255  0.1016 -0.0527  0.5936
  769MOL0     C 3702   7.842   2.051   4.368  0.9718 -0.0894 -0.1187
  769MOL0     C 3703   7.800   2.196   4.386 -0.1505 -0.5734  0.0671
  769MOL0     O 3704   7.769   2.257   4.257  0.4723 -0.9172  0.0062
  769MOL0     C 3705   7.762   2.398   4.257 -0.4591 -0.1013 -0.1965
  769MOL0     C 3706   7.810   2.465   4.142  0.1501  0.5896  0.4782
  769MOL0     C 3707   7.827   2.609   4.124 -0.7146  0.7254  0.1679
  769MOL0     C 3708   7.888   2.649   3.989 -0.0666  0.0903 -0.6809
  769MOL0     C 3709   7.793   2.683   4.235 -0.4301 -0.2132 -0.1895
  769MOL0     C 3710   7.798   2.836   4.234 -0.7309  0.1900  0.5533
  769MOL0     O 3711   7.760   2.898   4.351 -0.5277  0.2378 -0.7120
  769MOL0     C 3712   7.722   3.029   4.341 -0.2207  0.8738  0.3477
  769MOL0     C 3713   7.820   3.128   4.310 -0.0856 -0.5769  0.2972
  769MOL0     C 3714   7.778   3.265   4.316 -0.4398  0.1585  0.1344
  769MOL0     C 3715   7.642   3.303   4.350 -0.6835  0.2569 -0.2629
  769MOL0     O 3716   7.594   3.430   4.367  0.0699  0.5175 -1.1589
  769MOL0     C 3717   7.610   3.531   4.265 -0.0281  0.3644  0.1323
  769MOL0     C 3718   7.664   3.664   4.322  0.8190 -1.0031 -0.0936
  769MOL0     C 3719   7.559   3.739   4.402 -0.4989  0.3951  0.0354
  769MOL0     C 3720   7.586   3.886   4.439 -0.1375  0.2089 -0.6799
  769MOL0     C 3721   7.468   3.943   4.512 -0.9813 -0.4949 -0.6535
  769MOL0     C 3722   7.470   3.928   4.666 -0.1277  0.3695 -0.0595
  769MOL0     C 3723   7.362   4.002   4.736  0.2134  0.2144  0.3363
  769MOL0     C 3724   7.352   3.967   4.885 -0.5197 -0.5042  0.5655
  769MOL0    Cl 3725   7.492   4.020   4.985 -0.4901 -0.0193  0.4267
  769MOL0     C 3726   7.553   3.196   4.388  0.7060  0.0396 -0.8738
  769MOL0     C 3727   7.590   3.062   4.390 -0.7454 -0.2991  1.0261
  769MOL0     O 3728   7.807   2.891   4.123  0.0847 -0.0208 -0.5094
  769MOL0     C 3729   7.735   2.616   4.346  0.3390  0.4698  0.4808
  769MOL0     C 3730   7.713   2.483   4.350  0.6070 -0.1374 -0.2622
  769MOL0     N 3731   8.161   1.786   4.306  0.7354 -0.6089 -0.1084
  769MOL0     N 3732   8.209   1.710   4.395  1.0657  0.0712 -0.6602
  769MOL0     C 3733   8.580   0.938   5.233 -0.0383 -0.1825  0.9283
  769MOL0     C 3734   8.589   0.813   5.289  0.7552  0.4753 -0.4771
  769MOL0     C 3735   8.619   0.458   5.587  0.1639 -0.1158  1.2533
  769MOL0     C 3736   8.663   0.417   5.713  0.0852 -0.6267 -0.0734
  769MOL0     C 3737   8.635   0.289   5.753  0.7347 -0.9236  0.6083
  769MOL0     C 3738   8.554   0.203   5.679  0.0740 -0.0222 -0.3606
  769MOL0     O 3739   8.550   0.071   5.708 -0.4574 -0.0242 -1.1767
  769MOL0     C 3740   8.424   0.002   5.701 -0.2782 -0.2367 -0.5879
  769MOL0     C 3741   8.419  -0.135   5.760  0.2875  0.4720  0.2712
  769MOL0     C 3742   8.277  -0.169   5.806 -0.0065  1.4904  0.0120
  769MOL0     C 3743   8.154  -0.121   5.723  0.6932  0.2880 -0.4444
  769MOL0     C 3744   8.163  -0.159   5.578  0.2182  0.1699  0.2662
  769MOL0     C 3745   8.187  -0.146   5.456 -0.2366 -0.0528  0.3168
  769MOL0     C 3746   8.483   0.253   5.570  0.2132 -0.5087  0.4601
  769MOL0     C 3747   8.524   0.381   5.519  0.5435  0.2607  0.2402
  769MOL0     H 3748   8.525   0.869   5.619 -3.1576  1.8806  0.2514
  769MOL0     H 3749   8.545   1.090   5.538 -0.3572  0.6328 -0.1971
  769MOL0     H 3750   8.701   1.215   5.152 -0.2294 -0.8185  1.4746
  769MOL0     H 3751   8.541   1.161   5.075 -1.9871 -0.5452  1.2389
  769MOL0     H 3752   8.454   1.387   5.195 -0.3663  1.1777 -0.2794
  769MOL0     H 3753   8.626   1.423   5.192  2.3080 -1.3979 -1.5911
  769MOL0     H 3754   8.627   1.357   4.956  1.1503  2.0240  0.7348
  769MOL0     H 3755   8.450   1.347   4.950  0.9601 -0.5738 -1.7780
  769MOL0     H 3756   8.470   1.599   5.042  0.9787 -2.0398  2.3633
  769MOL0     H 3757   8.624   1.591   4.957  0.0654 -0.4571 -0.4921
  769MOL0     H 3758   8.484   1.685   4.799  1.3763 -0.4735  1.7596
  769MOL0     H 3759   8.514   1.514   4.746  0.0261  0.5600 -1.0322
  769MOL0     H 3760   8.290   1.453   4.831 -3.3970  0.8232  2.3888
  769MOL0     H 3761   8.264   1.618   4.887  0.6841 -0.3563  1.0405
  769MOL0     H 3762   8.297   1.532   4.596  1.0866  0.0276  1.5812
  769MOL0     H 3763   8.134   1.564   4.679  0.3073 -0.1116 -0.7517
  769MOL0     H 3764   8.378   1.750   4.620  0.5444  2.6882  0.7768
  769MOL0     H 3765   8.243   1.805   4.716 -8.5882 -0.9059 -1.3598
  769MOL0     H 3766   8.175   1.987   4.567 -2.4097 -0.1840  1.6890
  769MOL0     H 3767   8.102   2.128   4.338  2.5536  1.4223 -3.0214
  769MOL0     H 3768   8.137   2.040   4.195  0.8031  2.6975 -0.1618
  769MOL0     H 3769   7.901   1.937   4.203  3.5132 -0.2091 -1.2834
  769MOL0     H 3770   7.904   2.104   4.178  0.1334 -1.2981 -0.6703
  769MOL0     H 3771   7.894   2.007   4.454  2.7224  0.8839 -0.6234
  769MOL0     H 3772   7.748   1.995   4.360 -0.3810  2.0253  0.3452
  769MOL0     H 3773   7.873   2.252   4.445 -2.3881  1.8182  0.7707
  769MOL0     H 3774   7.711   2.196   4.449  1.3263  1.5979  2.3633
  769MOL0     H 3775   7.836   2.396   4.062 -2.2954 -0.1891  0.2841
  769MOL0     H 3776   7.975   2.713   4.002 -0.6775  0.3684  3.0521
  769MOL0     H 3777   7.924   2.568   3.925 -1.0804 -1.7428  0.9753
  769MOL0     H 3778   7.815   2.707   3.932  2.0624  0.1948 -3.5230
  769MOL0     H 3779   7.928   3.124   4.302  0.0630  1.2640  0.9080
  769MOL0     H 3780   7.852   3.343   4.305 -2.3163  1.8165 -1.5325
  769MOL0     H 3781   7.690   3.495   4.199  0.8831  1.2713  0.7156
  769MOL0     H 3782   7.513   3.532   4.213 -0.7538 -1.6761  1.3416
  769MOL0     H 3783   7.754   3.645   4.383  0.4466 -0.2751  0.7106
  769MOL0     H 3784   7.692   3.719   4.232 -0.6860 -2.0467 -1.2502
  769MOL0     H 3785   7.545   3.676   4.490 -3.2948  1.4447  0.4419
  769MOL0     H 3786   7.467   3.745   4.343  0.1128 -3.5321 -1.5940
  769MOL0     H 3787   7.674   3.887   4.505 -1.7414 -2.3917  1.7320
  769MOL0     H 3788   7.614   3.936   4.346 -0.1838 -0.1891 -0.9078
  769MOL0     H 3789   7.377   3.895   4.474 -1.1533 -0.7529  0.0722
  769MOL0     H 3790   7.479   4.049   4.486  2.0460  0.0303  2.0808
  769MOL0     H 3791   7.459   3.822   4.692  1.5896 -0.0525 -0.8701
  769MOL0     H 3792   7.564   3.968   4.705 -0.7036 -1.1560  3.2152
  769MOL0     H 3793   7.270   3.976   4.682  1.5237 -1.7965 -1.0394
  769MOL0     H 3794   7.386   4.109   4.732  2.7798 -0.3164  0.1285
  769MOL0     H 3795   7.350   3.859   4.873  1.6817 -0.2848 -3.9427
  769MOL0     H 3796   7.258   4.010   4.921 -1.7375 -1.2066 -1.6235
  769MOL0     H 3797   7.447   3.215   4.402  1.1038  1.6676  0.2380
  769MOL0     H 3798   7.513   2.989   4.416 -2.6945  1.3096  0.0188
  769MOL0     H 3799   7.703   2.677   4.430 -0.6542  1.4064 -0.5496
  769MOL0     H 3800   7.661   2.456   4.442 -0.1595  1.4933 -0.1702
  769MOL0     H 3801   8.579   0.957   5.126 -0.7218  0.1168  0.9786
  769MOL0     H 3802   8.582   0.733   5.216 -1.5513 -2.4462  2.6277
  769MOL0     H 3803   8.726   0.485   5.770  1.0294  2.6679 -4.4747
  769MOL0     H 3804   8.642   0.256   5.856 -3.0400 -0.7151  1.0647
  769MOL0     H 3805   8.366   0.065   5.768 -0.3976 -0.9358 -0.0251
  769MOL0     H 3806   8.372   0.008   5.605 -3.0054  1.6543  0.8887
  769MOL0     H 3807   8.493  -0.136   5.841  0.5472 -0.7089  0.0371
  769MOL0     H 3808   8.454  -0.194   5.675 -1.9639  2.1099 -1.9567
  769MOL0     H 3809   8.269  -0.129   5.907 -0.1176  1.4313  0.0268
  769MOL0     H 3810   8.263  -0.276   5.826 -4.5036  2.1623  1.6287
  769MOL0     H 3811   8.144  -0.013   5.738 -1.9318  0.0042  0.3467
  769MOL0     H 3812   8.065  -0.161   5.771  1.1063 -2.9896 -2.1387
  769MOL0     H 3813   8.223  -0.157   5.355 -0.8585 -0.5138  0.1399
  769MOL0     H 3814   8.410   0.189   5.522 -0.0138 -2.1097  2.7975
  769MOL0     H 3815   8.485   0.414   5.423 -0.0791 -2.8602 -0.6671
  770MOL0     O 3816   1.775   3.400   6.178 -0.0083 -0.2088  0.2349
  770MOL0     C 3817   1.737   3.473   6.267 -0.0106  0.9345 -0.7367
  770MOL0     O 3818   1.768   3.602   6.292  0.2876 -0.0253 -0.1339
  770MOL0     C 3819   1.816   3.682   6.190 -0.1221 -0.4110  0.1967
  770MOL0     C 3820   1.946   3.734   6.203  0.0547  0.1634 -0.6587
  770MOL0     C 3821   1.988   3.842   6.129  0.3717  1.0494 -0.0896
  770MOL0     C 3822   1.907   3.893   6.024  0.5944  0.3914 -0.1292
  770MOL0     O 3823   1.945   4.023   5.985  0.1599 -0.5050  0.2178
  770MOL0     C 3824   1.875   4.087   5.876 -0.4360 -0.8333 -0.8812
  770MOL0     C 3825   1.764   4.179   5.928  0.4236  0.0191 -0.5089
  770MOL0     C 3826   1.680   4.235   5.821  0.2610 -0.0420  0.2747
  770MOL0     C 3827   1.569   4.313   5.880 -0.3481 -0.3549 -0.6341
  770MOL0     C 3828   1.591   4.461   5.881 -0.0148 -0.5700  0.2657
  770MOL0     C 3829   1.463   4.532   5.952  1.0699  0.9692 -0.7256
  770MOL0     C 3830   1.469   4.680   5.947  0.1617 -0.2266 -0.4866
  770MOL0     C 3831   1.578   4.735   6.049  0.1885 -0.0208 -0.1423
  770MOL0     N 3832   1.634   4.866   6.002 -0.2042  0.2754  1.0579
  770MOL0     C 3833   1.584   4.992   6.006 -0.0309 -0.8760 -0.0204
  770MOL0     C 3834   1.666   5.061   5.930 -0.1906  0.3106  0.5110
  770MOL0     C 3835   1.661   5.206   5.911  0.9695 -0.2709 -0.0642
  770MOL0     C 3836   1.533   5.252   5.842 -0.1621  0.4381 -0.3831
  770MOL0     C 3837   1.537   5.399   5.809 -0.3905 -0.6168  0.2095
  770MOL0     C 3838   1.545   5.488   5.935 -0.4446 -0.0166  0.1281
  770MOL0     O 3839   1.658   5.577   5.918 -0.1295 -0.1439  0.0163
  770MOL0     C 3840   1.642   5.704   5.880 -0.0516 -0.2131  0.6137
  770MOL0     C 3841   1.591   5.797   5.973  0.1907 -0.0608 -0.2384
  770MOL0     C 3842   1.570   5.932   5.938 -0.0525 -0.6984  0.4449
  770MOL0     C 3843   1.528   6.036   6.048 -0.3595  1.6245 -0.5163
  770MOL0     C 3844   1.596   5.976   5.803 -0.2032  0.1364 -0.4980
  770MOL0     C 3845   1.577   6.118   5.749 -0.0303  0.7125  1.4208
  770MOL0     O 3846   1.538   6.121   5.615 -0.5151 -0.1399 -0.0612
  770MOL0     C 3847   1.554   6.247   5.565 -0.4076 -0.1620 -0.6522
  770MOL0     C 3848   1.471   6.353   5.609 -0.4281  0.4143  0.1271
  770MOL0     C 3849   1.483   6.481   5.548 -0.6329 -0.5726 -0.0726
  770MOL0     C 3850   1.582   6.500   5.446  0.2496  0.9551 -0.2040
  770MOL0     O 3851   1.611   6.622   5.411 -0.3766 -0.0993 -0.4625
  770MOL0     C 3852   1.616   6.650   5.269  0.1988  0.1840  0.2663
  770MOL0     C 3853   1.563   6.792   5.247 -0.3804 -0.0506 -0.3353
  770MOL0     C 3854   1.412   6.814   5.279  0.3331  0.0969  1.0044
  770MOL0     C 3855   1.375   6.954   5.255  0.1620 -0.7617  0.2401
  770MOL0     C 3856   1.224   6.978   5.277 -0.7523  0.0515 -0.0649
  770MOL0     C 3857   1.189   7.124   5.314 -0.3495 -0.9706  0.0704
  770MOL0     C 3858   1.041   7.147   5.320 -0.5977 -0.0560  0.1123
  770MOL0     C 3859   1.001   7.296   5.288  0.3758  0.2720  0.7381
  770MOL0    Cl 3860   0.833   7.319   5.365 -0.0494 -0.7626 -0.1239
  770MOL0     C 3861   1.660   6.391   5.403 -0.2064  0.2764 -0.0875
  770MOL0     C 3862   1.641   6.268   5.465  0.1105 -0.0326 -0.5186
  770MOL0     O 3863   1.619   6.210   5.817 -0.3780  0.1559 -0.0879
  770MOL0     C 3864   1.642   5.877   5.712  0.0864 -0.0871 -0.4467
  770MOL0     C 3865   1.673   5.751   5.758 -0.7088  0.3075  0.7815
  770MOL0     N 3866   1.767   4.987   5.880  0.4299  0.3632  0.5758
  770MOL0     N 3867   1.737   4.862   5.919 -0.6602  0.7448 -0.5916
  770MOL0     C 3868   1.774   3.830   6.000 -0.9351  1.0612  0.3863
  770MOL0     C 3869   1.730   3.731   6.084 -0.0848 -0.4978 -0.9636
  770MOL0     C 3870   1.636   3.419   6.367 -0.4467  0.7475 -1.3121
  770MOL0     C 3871   1.599   3.489   6.488 -0.3303  0.4310 -0.8746
  770MOL0     C 3872   1.505   3.432   6.589 -0.2255 -0.2065  1.0128
  770MOL0     C 3873   1.429   3.318   6.567  0.0285 -0.5865 -0.4351
  770MOL0     O 3874   1.339   3.286   6.655 -0.0256  0.6027 -0.6612
  770MOL0     C 3875   1.283   3.159   6.643  1.3242 -0.6012 -0.1036
  770MOL0     C 3876   1.176   3.147   6.757 -0.0713 -0.0056 -0.4438
  770MOL0     C 3877   1.231   3.120   6.897 -0.7275 -0.3334 -0.3935
  770MOL0     C 3878   1.300   2.986   6.905  0.7343  0.1445  0.4388
  770MOL0     C 3879   1.206   2.874   6.898 -1.3525  0.1928 -0.1891
  770MOL0     C 3880   1.137   2.783   6.886  1.0139  0.1868  0.3828
  770MOL0     C 3881   1.459   3.251   6.446 -0.0444 -0.1878  0.3473
  770MOL0     C 3882   1.565   3.293   6.350 -0.1476  0.8167  0.0106
  770MOL0     H 3883   2.011   3.699   6.283 -0.9150 -0.8512 -0.2875
  770MOL0     H 3884   2.088   3.877   6.154  0.0037  1.1922  1.2400
  770MOL0     H 3885   1.948   4.147   5.821  0.9071 -0.2706  1.4001
  770MOL0     H 3886   1.842   4.004   5.813  1.9922 -2.5733 -0.0047
  770MOL0     H 3887   1.693   4.128   5.995  0.5978 -1.6182 -1.5109
  770MOL0     H 3888   1.802   4.266   5.983  0.6972 -0.5210  0.1734
  770MOL0     H 3889   1.731   4.310   5.759 -1.0088 -0.7834 -1.8058
  770MOL0     H 3890   1.647   4.158   5.751  2.0946  1.1969 -2.0905
  770MOL0     H 3891   1.475   4.302   5.825 -0.8603 -1.0427  0.3368
  770MOL0     H 3892   1.549   4.287   5.985 -0.9653 -1.3583 -0.9855
  770MOL0     H 3893   1.677   4.478   5.947 -0.2854  2.2798  0.0090
  770MOL0     H 3894   1.609   4.502   5.781  0.5501  0.6798  0.8514
  770MOL0     H 3895   1.372   4.497   5.902 -0.4946  0.7530  2.0750
  770MOL0     H 3896   1.451   4.489   6.052 -2.7571 -0.7067 -1.7123
  770MOL0     H 3897   1.496   4.711   5.846 -1.0815 -1.8987 -1.3867
  770MOL0     H 3898   1.371   4.718   5.978  1.5013  1.3052  2.2621
  770MOL0     H 3899   1.659   4.664   6.071  0.1498 -0.1288 -0.3419
  770MOL0     H 3900   1.536   4.734   6.150  3.0038 -0.8742  1.1134
  770MOL0     H 3901   1.488   5.025   6.045  0.4071  2.3723 -1.3487
  770MOL0     H 3902   1.664   5.241   6.014  1.4990 -0.0428 -0.1532
  770MOL0     H 3903   1.756   5.241   5.869  2.1779  1.8443  3.9436
  770MOL0     H 3904   1.443   5.241   5.903  2.0219  2.0852  3.5392
  770MOL0     H 3905   1.510   5.200   5.748 -1.1464 -0.3662  0.2847
  770MOL0     H 3906   1.439   5.412   5.764 -0.6861  0.3196  1.0956
  770MOL0     H 3907   1.603   5.434   5.730 -1.5556  1.0390 -0.0717
  770MOL0     H 3908   1.540   5.438   6.033 -0.2478  0.3821  0.3457
  770MOL0     H 3909   1.455   5.549   5.933  0.3564  1.2253  0.8296
  770MOL0     H 3910   1.564   5.762   6.073  2.3205 -0.2743  0.3096
  770MOL0     H 3911   1.581   6.130   6.031  1.8473  0.6515  0.6163
  770MOL0     H 3912   1.422   6.060   6.032 -0.3985  0.9309 -1.4059
  770MOL0     H 3913   1.539   6.001   6.151 -0.5619 -0.2206 -1.0914
  770MOL0     H 3914   1.403   6.330   5.690  1.2575  1.4005  1.9111
  770MOL0     H 3915   1.426   6.572   5.562  1.5557  0.8514 -0.0256
  770MOL0     H 3916   1.718   6.641   5.229  0.3397  2.3321  0.0298
  770MOL0     H 3917   1.549   6.579   5.221 -2.0074  0.6397  2.4729
  770MOL0     H 3918   1.618   6.866   5.307 -0.9924  0.9070 -0.9294
  770MOL0     H 3919   1.572   6.833   5.146 -0.8321 -0.7845 -0.6757
  770MOL0     H 3920   1.381   6.786   5.380  3.6400 -0.4430  1.9907
  770MOL0     H 3921   1.359   6.751   5.206  4.0939 -2.5285  0.2700
  770MOL0     H 3922   1.424   7.018   5.329  2.2866 -3.4550  1.3101
  770MOL0     H 3923   1.405   6.987   5.155 -2.0663  1.6249  0.2236
  770MOL0     H 3924   1.193   6.919   5.364  1.1094  1.9084  1.9852
  770MOL0     H 3925   1.167   6.949   5.188  1.8803 -1.8775 -1.2391
  770MOL0     H 3926   1.235   7.165   5.405 -1.7675  3.7648 -1.0543
  770MOL0     H 3927   1.242   7.187   5.242 -2.6583  3.1195  1.5844
  770MOL0     H 3928   1.018   7.122   5.424  1.7492  0.3146  0.7754
  770MOL0     H 3929   0.998   7.067   5.258 -1.4952  1.8223 -1.8316
  770MOL0     H 3930   0.997   7.326   5.183 -2.4311  1.3503  1.0746
  770MOL0     H 3931   1.073   7.360   5.339 -1.7547  1.6846  2.1048
  770MOL0     H 3932   1.732   6.401   5.322 -2.3999  1.2850 -2.0817
  770MOL0     H 3933   1.691   6.178   5.430  2.2051  1.2717 -1.0560
  770MOL0     H 3934   1.668   5.892   5.607  2.4735  1.0180  0.2167
  770MOL0     H 3935   1.718   5.686   5.684 -0.4976 -0.5357  1.6345
  770MOL0     H 3936   1.712   3.874   5.923 -2.0918  1.0571  1.2950
  770MOL0     H 3937   1.626   3.701   6.080 -0.8919  1.5675  1.7295
  770MOL0     H 3938   1.653   3.582   6.504  1.7449 -0.9270  0.5492
  770MOL0     H 3939   1.474   3.494   6.673 -0.8676  2.2284 -0.8859
  770MOL0     H 3940   1.236   3.140   6.546  0.1140 -1.5649  0.6374
  770MOL0     H 3941   1.358   3.080   6.655  1.6952 -0.0184  1.7144
  770MOL0     H 3942   1.114   3.063   6.723  1.1865 -1.3638  0.4796
  770MOL0     H 3943   1.121   3.240   6.770 -1.3642 -0.8139  0.0768
  770MOL0     H 3944   1.147   3.141   6.964 -0.0780  1.9759 -0.2310
  770MOL0     H 3945   1.305   3.196   6.921 -0.2949 -1.3677  1.9419
  770MOL0     H 3946   1.363   2.966   6.992  1.0828 -0.5190  0.0446
  770MOL0     H 3947   1.368   2.981   6.819  0.5518  1.4268  0.2030
  770MOL0     H 3948   1.065   2.704   6.881 -0.4960  1.4641  1.0659
  770MOL0     H 3949   1.429   3.147   6.441  2.4706 -0.9413 -0.6965
  770MOL0     H 3950   1.593   3.237   6.261  0.7887  1.0519  0.1447
  771MOL0     O 3951   6.064   9.611  10.576 -0.3724 -0.2151 -0.3221
  771MOL0     C 3952   6.115   9.674  10.668  0.3367  0.7367  0.4363
  771MOL0     O 3953   6.098   9.805  10.689 -0.1510  0.0069  0.0394
  771MOL0     C 3954   6.090   9.907  10.589  0.0015 -0.1479 -0.2766
  771MOL0     C 3955   6.057  10.032  10.643 -0.2216 -0.5739 -0.0177
  771MOL0     C 3956   6.033  10.127  10.556  0.6002  0.6691  0.4958
  771MOL0     C 3957   6.036  10.116  10.418 -0.6516  0.2379 -0.4545
  771MOL0     O 3958   6.018  10.238  10.357 -0.5526 -0.0538 -0.0166
  771MOL0     C 3959   6.118  10.286  10.268  0.5136 -0.2552 -0.2664
  771MOL0     C 3960   6.190  10.405  10.335  0.8568 -0.3903  0.0410
  771MOL0     C 3961   6.285  10.354  10.446 -0.5626  0.8952 -0.5902
  771MOL0     C 3962   6.287  10.446  10.572 -0.2873  0.6741 -0.6410
  771MOL0     C 3963   6.389  10.395  10.680  0.4082  0.1161  0.9664
  771MOL0     C 3964   6.380  10.486  10.799 -0.0953 -0.9191 -0.3938
  771MOL0     C 3965   6.446  10.422  10.912 -0.5130 -0.4672 -1.0334
  771MOL0     C 3966   6.376  10.301  10.967 -0.0434 -0.4796  0.0752
  771MOL0     N 3967   6.455  10.234  11.073  0.1473  0.2510 -0.2079
  771MOL0     C 3968   6.461  10.276  11.204  0.6283  1.3541  0.9961
  771MOL0     C 3969   6.556  10.199  11.260 -0.0798 -0.5980 -0.2067
  771MOL0     C 3970   6.613  10.202  11.398  0.5836 -0.5674  0.8867
  771MOL0     C 3971   6.667  10.341  11.440 -0.4066  0.2158  0.8816
  771MOL0     C 3972   6.575  10.455  11.469  0.1768  0.0367  0.4782
  771MOL0     C 3973   6.648  10.579  11.518  0.7725 -0.7044 -0.1558
  771MOL0     O 3974   6.543  10.672  11.560  0.2321  0.1732 -0.4373
  771MOL0     C 3975   6.574  10.795  11.611  0.1603  0.0877 -1.5466
  771MOL0     C 3976   6.474  10.876  11.641 -0.5458  0.7226  0.0915
  771MOL0     C 3977   6.501  10.999  11.704 -0.8234  0.1817  0.0649
  771MOL0     C 3978   6.389  11.094  11.696 -0.1514 -0.9870 -0.2970
  771MOL0     C 3979   6.625  11.029  11.766  0.5023 -0.7304 -0.2380
  771MOL0     C 3980   6.656  11.155  11.843 -0.3171 -1.2956 -0.0220
  771MOL0     O 3981   6.783  11.153  11.904  0.4108 -0.0186 -0.5532
  771MOL0     C 3982   6.831  11.269  11.948 -0.4327  0.1727 -0.6070
  771MOL0     C 3983   6.822  11.302  12.081  0.8993 -0.4508 -0.8202
  771MOL0     C 3984   6.865  11.427  12.128 -0.3842 -0.4830 -0.3752
  771MOL0     C 3985   6.929  11.520  12.042 -0.8878  0.8056 -0.9337
  771MOL0     O 3986   6.990  11.640  12.080 -0.6934  0.3974 -0.2662
  771MOL0     C 3987   7.030  11.656  12.218 -0.0691 -0.0670  0.6686
  771MOL0     C 3988   7.162  11.576  12.242 -0.3739 -0.6013 -0.6569
  771MOL0     C 3989   7.290  11.657  12.203  0.4202 -0.4661 -0.1565
  771MOL0     C 3990   7.322  11.756  12.323  0.2616  0.1147  1.1669
  771MOL0     C 3991   7.423  11.861  12.280 -0.2076 -0.5744 -0.2289
  771MOL0     C 3992   7.501  11.921  12.405  0.5746 -0.0357  0.0988
  771MOL0     C 3993   7.596  12.042  12.365  0.9031  0.1004  0.0065
  771MOL0     C 3994   7.660  12.104  12.489 -0.3650 -0.3962 -0.2143
  771MOL0    Cl 3995   7.523  12.177  12.593  0.5018  0.0567  0.0036
  771MOL0     C 3996   6.940  11.488  11.906  0.4080  0.3445  0.3647
  771MOL0     C 3997   6.885  11.362  11.858 -0.4329 -0.1950 -0.6568
  771MOL0     O 3998   6.590  11.259  11.820  0.4440 -0.0015  0.0426
  771MOL0     C 3999   6.730  10.941  11.743 -0.7402  0.2268  0.1192
  771MOL0     C 4000   6.700  10.826  11.666 -0.6278 -0.0630 -0.3387
  771MOL0     N 4001   6.608  10.116  11.166 -0.2555 -0.5646  1.2703
  771MOL0     N 4002   6.548  10.132  11.052 -0.0359 -1.1709  0.5516
  771MOL0     C 4003   6.097   9.991  10.372 -0.8156  0.9023  0.1404
  771MOL0     C 4004   6.110   9.883  10.453  0.5859 -0.8084  0.4369
  771MOL0     C 4005   6.184   9.603  10.774  0.2186 -0.0238  0.2521
  771MOL0     C 4006   6.170   9.462  10.788  0.5155 -0.5278 -0.1218
  771MOL0     C 4007   6.238   9.405  10.897 -0.5367 -0.2163  0.3577
  771MOL0     C 4008   6.316   9.480  10.983  0.3209 -0.1350  0.8924
  771MOL0     O 4009   6.387   9.412  11.081  0.3068 -1.0551  0.5694
  771MOL0     C 4010   6.439   9.469  11.198 -0.0880 -0.3071 -0.3630
  771MOL0     C 4011   6.508   9.357  11.279  0.9256 -0.3645 -0.8556
  771MOL0     C 4012   6.397   9.263  11.317 -0.1065  1.6246  0.3123
  771MOL0     C 4013   6.417   9.123  11.245 -0.5692  0.1494 -0.9690
  771MOL0     C 4014   6.402   9.128  11.101  0.1680  0.6764 -0.3181
  771MOL0     C 4015   6.410   9.114  10.981  0.4294 -0.2350  0.3196
  771MOL0     C 4016   6.339   9.618  10.951  0.0692  0.5519 -0.7866
  771MOL0     C 4017   6.268   9.681  10.853 -0.9304 -0.3171  0.1586
  771MOL0     H 4018   6.022  10.054  10.744  1.8975 -0.6696  0.7823
  771MOL0     H 4019   6.006  10.222  10.601 -1.1090  0.3916  0.0912
  771MOL0     H 4020   6.180  10.199  10.242  0.9941 -0.2517  0.8006
  771MOL0     H 4021   6.074  10.313  10.172  1.9263  0.9850 -0.6141
  771MOL0     H 4022   6.256  10.451  10.262 -2.2163 -0.5582 -3.0662
  771MOL0     H 4023   6.111  10.477  10.358 -0.6037 -2.3542  1.5589
  771MOL0     H 4024   6.262  10.252  10.479 -1.0404  1.3833  0.6468
  771MOL0     H 4025   6.392  10.348  10.424 -0.2086 -1.5577  1.3315
  771MOL0     H 4026   6.306  10.548  10.535 -0.0669 -0.0067 -2.5174
  771MOL0     H 4027   6.188  10.438  10.618  0.7323  3.0031  2.2895
  771MOL0     H 4028   6.370  10.292  10.711  0.7422  0.2533  1.6493
  771MOL0     H 4029   6.484  10.395  10.625  0.5776  0.5635  1.2571
  771MOL0     H 4030   6.425  10.585  10.788 -1.6594  0.1934  2.1412
  771MOL0     H 4031   6.275  10.496  10.829  0.0182 -0.9328  0.0213
  771MOL0     H 4032   6.544  10.386  10.880  0.7729  1.6263  0.3218
  771MOL0     H 4033   6.450  10.502  10.986  1.7524  0.0038 -1.5946
  771MOL0     H 4034   6.362  10.227  10.888  0.6093 -3.6593  2.7150
  771MOL0     H 4035   6.285  10.341  11.012  2.2705  2.0118  3.0181
  771MOL0     H 4036   6.410  10.358  11.254  0.6926  0.5951  2.3535
  771MOL0     H 4037   6.527  10.173  11.458 -0.1237  0.6154  0.4729
  771MOL0     H 4038   6.683  10.118  11.408 -1.2209 -1.9433  2.8692
  771MOL0     H 4039   6.730  10.376  11.359  2.5882  3.0339  4.0816
  771MOL0     H 4040   6.746  10.326  11.515  1.3636  1.1259 -0.7262
  771MOL0     H 4041   6.496  10.429  11.540  0.3336 -1.8666  0.0176
  771MOL0     H 4042   6.523  10.481  11.376  0.9116 -0.7125 -0.1643
  771MOL0     H 4043   6.693  10.628  11.431  0.6956  2.2814  1.3596
  771MOL0     H 4044   6.727  10.553  11.590  1.9261 -0.1337 -1.1671
  771MOL0     H 4045   6.375  10.854  11.603 -0.1645  0.3212 -0.7122
  771MOL0     H 4046   6.416  11.194  11.660 -1.4040 -0.9739 -1.2907
  771MOL0     H 4047   6.307  11.063  11.630  1.3646  1.1187 -3.4543
  771MOL0     H 4048   6.348  11.121  11.793 -1.2591 -1.5822 -0.5837
  771MOL0     H 4049   6.771  11.235  12.150  3.2523 -0.5308  0.9416
  771MOL0     H 4050   6.840  11.455  12.230  0.7114  0.2862 -0.2980
  771MOL0     H 4051   7.036  11.765  12.230 -0.7850  0.3102 -1.6972
  771MOL0     H 4052   6.951  11.623  12.286 -0.8509  0.3290 -0.0280
  771MOL0     H 4053   7.180  11.565  12.349 -1.7759 -0.7038 -0.4118
  771MOL0     H 4054   7.163  11.480  12.189  2.3809  1.0504 -4.0550
  771MOL0     H 4055   7.260  11.714  12.114 -3.1542  0.2856  1.3252
  771MOL0     H 4056   7.365  11.579  12.191 -0.0427 -0.9526  0.1009
  771MOL0     H 4057   7.228  11.802  12.355  0.1013  0.8428 -0.2778
  771MOL0     H 4058   7.369  11.695  12.401  1.3939 -1.2753 -0.5264
  771MOL0     H 4059   7.363  11.944  12.240  2.8078  1.9585  0.0639
  771MOL0     H 4060   7.484  11.812  12.204  0.3158 -0.2017 -0.0610
  771MOL0     H 4061   7.422  11.936  12.480  0.3404  2.9381 -0.5972
  771MOL0     H 4062   7.566  11.844  12.446 -0.2053 -0.5843  0.3410
  771MOL0     H 4063   7.540  12.113  12.304  0.9950 -0.5942 -0.9226
  771MOL0     H 4064   7.675  12.003  12.300  0.8514 -0.9099  0.5216
  771MOL0     H 4065   7.723  12.190  12.468  1.8682 -2.4809 -2.8164
  771MOL0     H 4066   7.712  12.025  12.544  1.6949  0.9801 -0.0975
  771MOL0     H 4067   6.991  11.555  11.837  0.0916 -0.6741 -0.9081
  771MOL0     H 4068   6.884  11.339  11.752  2.5311  1.8015 -1.2577
  771MOL0     H 4069   6.827  10.959  11.790 -1.9066  1.6737  2.0973
  771MOL0     H 4070   6.773  10.747  11.655 -1.5530 -1.0422  0.3748
  771MOL0     H 4071   6.124   9.980  10.268 -2.5690  1.3342 -0.4022
  771MOL0     H 4072   6.122   9.785  10.408 -2.1359 -0.6299 -0.9125
  771MOL0     H 4073   6.098   9.411  10.724 -3.8403  2.3408  2.0237
  771MOL0     H 4074   6.217   9.302  10.924 -2.9669  0.3033  0.7351
  771MOL0     H 4075   6.520   9.539  11.176 -0.3334  0.7087  1.7716
  771MOL0     H 4076   6.358   9.520  11.249  0.5682  1.4888 -1.0465
  771MOL0     H 4077   6.550   9.401  11.369  0.6978  1.2736 -1.5264
  771MOL0     H 4078   6.593   9.320  11.221  2.9702 -0.0762  1.7986
  771MOL0     H 4079   6.291   9.289  11.303  0.2276  1.9002 -2.2514
  771MOL0     H 4080   6.417   9.245  11.423  2.4262  0.7812 -0.2442
  771MOL0     H 4081   6.347   9.049  11.283  0.2438 -0.7933 -1.2648
  771MOL0     H 4082   6.518   9.086  11.263 -0.7792 -2.0153 -3.6150
  771MOL0     H 4083   6.412   9.084  10.878  3.1315 -2.0152  0.7884
  771MOL0     H 4084   6.404   9.679  11.013 -1.2267  2.0183 -0.8071
  771MOL0     H 4085   6.299   9.783  10.834 -3.6350  1.0716  2.4076
  772MOL0     O 4086   7.139   7.787   5.164 -0.0028  1.1717  0.2433
  772MOL0     C 4087   7.136   7.695   5.084  0.5739  0.8964  1.5064
  772MOL0     O 4088   7.183   7.571   5.114  0.4481 -0.0959  0.4187
  772MOL0     C 4089   7.249   7.559   5.226  0.4320  0.0731  0.1048
  772MOL0     C 4090   7.193   7.491   5.338 -0.5342  0.1088  1.0963
  772MOL0     C 4091   7.263   7.483   5.455 -0.2120 -0.3061  0.2885
  772MOL0     C 4092   7.392   7.539   5.471 -0.1042  0.3140 -0.1431
  772MOL0     O 4093   7.449   7.543   5.594 -0.6023 -0.5878 -0.4899
  772MOL0     C 4094   7.371   7.545   5.717 -0.4475  0.1530 -0.3581
  772MOL0     C 4095   7.457   7.640   5.804  0.7426 -0.7997  0.5823
  772MOL0     C 4096   7.390   7.679   5.940  0.0942  0.2066  0.3548
  772MOL0     C 4097   7.486   7.747   6.044 -0.3019 -0.5880 -0.0064
  772MOL0     C 4098   7.441   7.789   6.179  0.1780  0.0218 -0.3190
  772MOL0     C 4099   7.536   7.878   6.257 -0.0726  0.1531 -1.1889
  772MOL0     C 4100   7.478   7.917   6.397  0.1878  0.5159 -0.5250
  772MOL0     C 4101   7.517   7.812   6.502  0.1143  0.7805  1.0388
  772MOL0     N 4102   7.509   7.829   6.646  0.0009 -0.1898  0.9334
  772MOL0     C 4103   7.418   7.900   6.714  0.2758  0.1087 -0.5333
  772MOL0     C 4104   7.468   7.915   6.839  0.6781  0.2998 -0.3784
  772MOL0     C 4105   7.381   7.987   6.951 -0.4604  0.5022  0.4556
  772MOL0     C 4106   7.227   7.995   6.937 -0.1629 -0.2740 -0.6558
  772MOL0     C 4107   7.157   7.850   6.935 -0.2927 -0.0808 -0.3464
  772MOL0     C 4108   7.218   7.756   7.043  0.2474  0.2300  0.5837
  772MOL0     O 4109   7.118   7.657   7.083  0.7733  0.8518  0.0719
  772MOL0     C 4110   7.169   7.528   7.116  0.2448 -0.0387  0.0065
  772MOL0     C 4111   7.266   7.503   7.211  1.2225 -0.0694 -0.0422
  772MOL0     C 4112   7.303   7.374   7.261 -0.2042 -1.0688 -0.0166
  772MOL0     C 4113   7.384   7.366   7.380  0.5194 -0.1905  0.1693
  772MOL0     C 4114   7.230   7.256   7.209  0.0135 -0.5288  0.3403
  772MOL0     C 4115   7.249   7.114   7.242 -0.1901  0.1355  0.0018
  772MOL0     O 4116   7.164   7.029   7.177  0.4299  0.4167  0.8155
  772MOL0     C 4117   7.181   6.889   7.181  0.0559 -0.6581  0.1087
  772MOL0     C 4118   7.068   6.828   7.139 -0.7650 -0.0834  0.2699
  772MOL0     C 4119   7.059   6.694   7.137  0.1754  0.3056 -0.5540
  772MOL0     C 4120   7.164   6.604   7.191 -0.6249 -0.0162  0.2977
  772MOL0     O 4121   7.154   6.470   7.194 -0.9598 -0.0307 -0.4779
  772MOL0     C 4122   7.018   6.419   7.200  0.2557  0.5245 -1.2027
  772MOL0     C 4123   7.024   6.278   7.251  0.4688 -0.0388  0.0229
  772MOL0     C 4124   6.878   6.222   7.247  1.0180 -0.1091  0.7399
  772MOL0     C 4125   6.876   6.086   7.329  0.3689  0.2027  0.0442
  772MOL0     C 4126   6.727   6.028   7.323 -0.6681 -0.4986  0.9062
  772MOL0     C 4127   6.722   5.892   7.381 -1.1062 -0.5991  0.3468
  772MOL0     C 4128   6.584   5.835   7.388  0.3202  0.0691  0.5266
  772MOL0     C 4129   6.596   5.695   7.444 -0.1537 -0.2296  0.3115
  772MOL0    Cl 4130   6.422   5.640   7.459 -0.1855 -0.6152 -0.0706
  772MOL0     C 4131   7.278   6.669   7.244 -0.0697 -0.3627 -0.0682
  772MOL0     C 4132   7.283   6.804   7.234  0.4137  1.0142 -0.8370
  772MOL0     O 4133   7.333   7.075   7.326  0.4990 -0.1951  0.3111
  772MOL0     C 4134   7.130   7.285   7.115 -1.1137  0.5110 -0.2245
  772MOL0     C 4135   7.092   7.410   7.071  0.4143  0.2703  0.4836
  772MOL0     N 4136   7.586   7.837   6.849  0.0933 -0.2855 -0.3050
  772MOL0     N 4137   7.604   7.786   6.734  0.1495 -0.5746  0.1466
  772MOL0     C 4138   7.450   7.584   5.357 -1.5618 -0.3618  0.8453
  772MOL0     C 4139   7.384   7.597   5.233 -0.4585  0.1618  0.0546
  772MOL0     C 4140   7.040   7.707   4.970  0.1287  0.6575 -0.0818
  772MOL0     C 4141   6.950   7.819   4.960 -0.6669  0.3898  1.4370
  772MOL0     C 4142   6.852   7.832   4.860 -0.0764  0.4151  0.5952
  772MOL0     C 4143   6.850   7.728   4.757 -0.1274 -0.0310 -0.6836
  772MOL0     O 4144   6.765   7.722   4.651 -0.6073 -0.4762  0.3470
  772MOL0     C 4145   6.693   7.842   4.618  0.5516 -0.0386 -0.3836
  772MOL0     C 4146   6.654   7.847   4.473 -0.1881 -0.2528  0.2961
  772MOL0     C 4147   6.576   7.713   4.428  0.0711 -0.4341 -1.0478
  772MOL0     C 4148   6.655   7.619   4.332  0.3852 -0.1827 -0.1938
  772MOL0     C 4149   6.670   7.679   4.195 -0.6613 -0.2440 -0.8076
  772MOL0     C 4150   6.693   7.727   4.084 -0.0537  0.6829  0.5089
  772MOL0     C 4151   6.939   7.617   4.767  1.0370 -0.9198 -0.9817
  772MOL0     C 4152   7.029   7.606   4.870 -0.9320 -1.1441 -0.2038
  772MOL0     H 4153   7.091   7.455   5.348  0.2624 -2.2068  1.4977
  772MOL0     H 4154   7.221   7.427   5.538 -0.1915  0.1535  0.6122
  772MOL0     H 4155   7.273   7.589   5.696 -0.6999  0.0790  0.6009
  772MOL0     H 4156   7.372   7.448   5.767  0.0576 -0.4765 -1.5457
  772MOL0     H 4157   7.562   7.612   5.821  0.5703 -0.9798  1.3532
  772MOL0     H 4158   7.468   7.737   5.754  1.3768  1.5613  4.8734
  772MOL0     H 4159   7.306   7.748   5.930 -0.3597 -0.2132  1.1750
  772MOL0     H 4160   7.353   7.584   5.980  0.6906 -0.5963 -0.9524
  772MOL0     H 4161   7.557   7.665   6.064 -0.8395 -0.6810  1.7091
  772MOL0     H 4162   7.529   7.829   5.987 -0.6504 -2.6979 -3.5952
  772MOL0     H 4163   7.338   7.824   6.167 -0.9711 -1.9470  2.5875
  772MOL0     H 4164   7.408   7.708   6.245 -4.0795  1.7696  0.0319
  772MOL0     H 4165   7.638   7.837   6.262 -0.2656 -0.4809 -2.1414
  772MOL0     H 4166   7.553   7.975   6.209  2.2452 -0.2228 -1.2632
  772MOL0     H 4167   7.507   8.021   6.414  2.0462 -0.2041  1.1191
  772MOL0     H 4168   7.369   7.921   6.399  0.1745  2.0332  2.5926
  772MOL0     H 4169   7.623   7.812   6.476 -0.0803  0.1818  0.2212
  772MOL0     H 4170   7.461   7.723   6.474 -1.9713  1.8814  1.5585
  772MOL0     H 4171   7.337   7.963   6.680  1.4108  1.2230 -1.2655
  772MOL0     H 4172   7.406   7.934   7.043 -1.0186 -2.4798 -0.9887
  772MOL0     H 4173   7.421   8.088   6.946 -0.3275  0.4646  0.8063
  772MOL0     H 4174   7.190   8.053   6.852 -1.3337  2.0314  1.3272
  772MOL0     H 4175   7.193   8.055   7.022 -0.2657 -1.2594  0.0128
  772MOL0     H 4176   7.151   7.812   6.833  0.3127 -0.4541 -0.2457
  772MOL0     H 4177   7.052   7.853   6.966 -0.0940 -1.5525  0.5595
  772MOL0     H 4178   7.264   7.811   7.126 -1.3511 -0.7486  2.1937
  772MOL0     H 4179   7.300   7.699   7.000  0.5160 -1.4467  3.1324
  772MOL0     H 4180   7.304   7.598   7.248 -1.9706  1.3302 -0.0024
  772MOL0     H 4181   7.455   7.282   7.379  1.0064  0.1121  2.3947
  772MOL0     H 4182   7.450   7.452   7.395  1.6477 -0.6626 -1.7239
  772MOL0     H 4183   7.311   7.359   7.461  0.6660  0.0150  0.3200
  772MOL0     H 4184   6.986   6.888   7.101 -1.1451 -0.3948  0.5918
  772MOL0     H 4185   6.962   6.657   7.106  0.0487  1.7124 -1.9692
  772MOL0     H 4186   6.955   6.470   7.274 -2.2072 -0.8909 -2.1672
  772MOL0     H 4187   6.977   6.414   7.098 -0.1991  0.5420 -1.0228
  772MOL0     H 4188   7.095   6.217   7.195 -0.8276 -1.4516 -0.1601
  772MOL0     H 4189   7.059   6.280   7.354 -1.6534 -1.5035  0.8645
  772MOL0     H 4190   6.875   6.208   7.139 -0.5098  0.0457  0.7373
  772MOL0     H 4191   6.794   6.285   7.277  1.1410 -0.8425  2.7883
  772MOL0     H 4192   6.943   6.018   7.275  1.9388 -0.1790  2.3229
  772MOL0     H 4193   6.912   6.092   7.433  0.5664 -1.1522  0.0778
  772MOL0     H 4194   6.696   6.019   7.219 -1.1378 -2.5071  1.1681
  772MOL0     H 4195   6.651   6.084   7.378 -0.3253  1.5496 -0.5839
  772MOL0     H 4196   6.797   5.834   7.325 -0.0240  1.9917 -1.0795
  772MOL0     H 4197   6.767   5.887   7.481  1.1742 -3.1469 -0.6732
  772MOL0     H 4198   6.551   5.828   7.283 -0.2594 -0.8528  0.7558
  772MOL0     H 4199   6.497   5.885   7.431 -2.3160 -0.0182 -4.0118
  772MOL0     H 4200   6.654   5.697   7.537  0.5435 -0.3241 -0.1156
  772MOL0     H 4201   6.646   5.630   7.371  1.5625  0.4247  0.8424
  772MOL0     H 4202   7.356   6.606   7.287 -2.1732 -2.4424  0.8955
  772MOL0     H 4203   7.375   6.843   7.275 -0.3643  0.1049  1.9950
  772MOL0     H 4204   7.068   7.204   7.078  0.5175 -1.6849  1.5679
  772MOL0     H 4205   7.019   7.426   6.993  4.0159  1.1856 -3.0421
  772MOL0     H 4206   7.558   7.599   5.352 -0.4849 -6.0206 -0.8090
  772MOL0     H 4207   7.440   7.649   5.156  0.0552  2.2083  1.7148
  772MOL0     H 4208   6.977   7.904   5.022  2.1439  0.4165  0.3146
  772MOL0     H 4209   6.782   7.915   4.862  1.8407  2.1199  0.8611
  772MOL0     H 4210   6.595   7.837   4.667 -0.6244  0.2741 -2.5307
  772MOL0     H 4211   6.753   7.930   4.643 -0.5740  2.2778 -4.7407
  772MOL0     H 4212   6.744   7.868   4.414 -1.5941  1.8365 -1.2467
  772MOL0     H 4213   6.589   7.932   4.453  1.6127  1.8762  2.8112
  772MOL0     H 4214   6.487   7.751   4.377  0.7464  0.2232 -1.7541
  772MOL0     H 4215   6.564   7.643   4.512  2.1411 -0.6407 -0.8627
  772MOL0     H 4216   6.589   7.533   4.317 -1.2962  1.0619 -0.1908
  772MOL0     H 4217   6.751   7.591   4.376  0.7730  1.5189  0.1230
  772MOL0     H 4218   6.699   7.767   3.985 -1.4504 -0.1592  0.0570
  772MOL0     H 4219   6.935   7.533   4.698  2.3306 -1.7997 -0.0431
  772MOL0     H 4220   7.089   7.516   4.868 -2.0871 -1.9664  0.8569
  773MOL0     O 4221   1.810   7.148   5.057  0.6305 -0.4634 -0.1118
  773MOL0     C 4222   1.801   7.129   5.180  0.1145 -0.1722  0.5490
  773MOL0     O 4223   1.868   7.034   5.253  0.0297  0.2364  0.3968
  773MOL0     C 4224   1.971   6.961   5.203  0.3863  0.9413  0.1944
  773MOL0     C 4225   2.047   6.977   5.093  0.4426  0.3068  1.4004
  773MOL0     C 4226   2.152   6.881   5.063 -0.4661 -0.0631 -0.6874
  773MOL0     C 4227   2.174   6.762   5.136 -0.5870  0.2591 -0.5019
  773MOL0     O 4228   2.289   6.682   5.102 -0.1856 -0.0193 -0.1765
  773MOL0     C 4229   2.300   6.628   4.962  0.6468 -0.6900 -0.2034
  773MOL0     C 4230   2.392   6.502   4.942  0.8523  0.3284 -0.4064
  773MOL0     C 4231   2.316   6.383   5.001  0.3656  0.7609 -0.0409
  773MOL0     C 4232   2.367   6.257   4.923 -0.0744 -0.7148 -0.0945
  773MOL0     C 4233   2.277   6.136   4.970  0.1149  0.6894  0.4452
  773MOL0     C 4234   2.330   6.004   4.904 -0.6019 -0.7244  0.3228
  773MOL0     C 4235   2.241   5.889   4.950 -0.9702  0.4448 -0.5710
  773MOL0     C 4236   2.274   5.755   4.882  0.4143 -0.1328  0.2782
  773MOL0     N 4237   2.398   5.688   4.928  0.0051 -0.0227 -0.9246
  773MOL0     C 4238   2.402   5.596   5.034  0.1449 -0.0837  0.4095
  773MOL0     C 4239   2.535   5.569   5.062  0.5416  0.1650  1.3062
  773MOL0     C 4240   2.591   5.493   5.179  0.6196 -0.4685 -0.6635
  773MOL0     C 4241   2.625   5.591   5.299  0.0220 -0.4626 -0.0877
  773MOL0     C 4242   2.732   5.696   5.271  0.0610 -0.0477  0.1796
  773MOL0     C 4243   2.870   5.644   5.257 -0.4669  0.8023 -0.3753
  773MOL0     O 4244   2.918   5.587   5.379 -0.4433  0.1681 -0.1601
  773MOL0     C 4245   2.971   5.672   5.480  0.1389  0.3145  0.3144
  773MOL0     C 4246   3.079   5.742   5.450 -0.6811 -0.3351  0.5634
  773MOL0     C 4247   3.134   5.838   5.547 -0.3016  0.9014 -0.4120
  773MOL0     C 4248   3.259   5.917   5.509 -0.1825  0.3589  1.0260
  773MOL0     C 4249   3.074   5.850   5.676  0.2518 -0.4679 -0.5265
  773MOL0     C 4250   3.125   5.942   5.780 -0.4585 -0.4719  0.1468
  773MOL0     O 4251   3.176   6.060   5.733  0.4457  0.0152 -0.0729
  773MOL0     C 4252   3.229   6.157   5.814 -0.6629 -0.3540 -0.1652
  773MOL0     C 4253   3.342   6.234   5.769  0.8006  0.0531  0.5750
  773MOL0     C 4254   3.396   6.335   5.845 -0.0061  0.1194 -0.0633
  773MOL0     C 4255   3.331   6.364   5.969 -0.6151  0.0953 -0.4831
  773MOL0     O 4256   3.388   6.448   6.065  0.0425  0.3965  0.8086
  773MOL0     C 4257   3.432   6.573   6.032 -0.0690 -0.4469  0.5709
  773MOL0     C 4258   3.564   6.609   6.092 -0.7757 -0.3536  0.1164
  773MOL0     C 4259   3.679   6.565   6.009 -1.0351 -0.3932  0.3648
  773MOL0     C 4260   3.726   6.428   6.045 -0.5676  0.7308  0.7158
  773MOL0     C 4261   3.862   6.375   5.991 -0.5356  0.1819 -0.7414
  773MOL0     C 4262   3.863   6.235   5.926  0.4670  0.0054  1.1406
  773MOL0     C 4263   3.816   6.250   5.781  0.4127 -1.0790 -0.0752
  773MOL0     C 4264   3.801   6.112   5.704  0.6137 -0.4147 -0.9437
  773MOL0    Cl 4265   3.653   6.119   5.603  0.3443 -0.5276 -0.4466
  773MOL0     C 4266   3.211   6.298   6.004  0.2833  0.2617 -0.0700
  773MOL0     C 4267   3.167   6.195   5.930  0.1511 -0.7500 -0.1396
  773MOL0     O 4268   3.120   5.904   5.896  0.3655 -0.3067 -0.0540
  773MOL0     C 4269   2.958   5.769   5.701 -0.7609  0.5176 -0.4935
  773MOL0     C 4270   2.913   5.684   5.602  0.5614 -1.0976  1.0178
  773MOL0     N 4271   2.605   5.648   4.972  0.3604 -0.0146 -0.1624
  773MOL0     N 4272   2.523   5.716   4.892  0.4770  0.0890 -0.2417
  773MOL0     C 4273   2.104   6.752   5.259 -0.4081 -0.7131  0.3613
  773MOL0     C 4274   2.000   6.850   5.289 -0.6638  0.3624 -0.0708
  773MOL0     C 4275   1.690   7.206   5.244 -0.8654 -0.1595  0.8619
  773MOL0     C 4276   1.606   7.286   5.171 -0.4183  0.3139 -0.0925
  773MOL0     C 4277   1.507   7.373   5.219  0.1928  0.6049  0.2830
  773MOL0     C 4278   1.482   7.355   5.356  0.2530  1.1486 -0.4201
  773MOL0     O 4279   1.364   7.407   5.400 -0.3748  0.0420 -0.0385
  773MOL0     C 4280   1.395   7.514   5.503  0.2779  0.0113 -0.4785
  773MOL0     C 4281   1.342   7.468   5.634  0.4630 -0.8440 -0.4168
  773MOL0     C 4282   1.199   7.416   5.639 -0.2489 -0.3890  0.0413
  773MOL0     C 4283   1.122   7.433   5.772 -0.2668 -0.3083  0.6438
  773MOL0     C 4284   0.989   7.364   5.763 -0.0663 -0.9890  0.3603
  773MOL0     C 4285   0.888   7.309   5.746  0.0605  0.2240  0.0697
  773MOL0     C 4286   1.556   7.270   5.444 -0.3138 -0.4140  0.1234
  773MOL0     C 4287   1.662   7.190   5.382  0.5122 -0.1142 -0.5678
  773MOL0     H 4288   2.026   7.053   5.018 -1.2967 -2.0939 -0.7233
  773MOL0     H 4289   2.222   6.906   4.984  0.2246  0.9109  0.2064
  773MOL0     H 4290   2.198   6.602   4.932  0.6261  2.5981 -3.7169
  773MOL0     H 4291   2.345   6.710   4.907 -2.0088  2.1568  1.5091
  773MOL0     H 4292   2.412   6.482   4.837  1.4453 -0.4822 -0.1535
  773MOL0     H 4293   2.483   6.496   5.003  0.1550 -0.5216  0.5964
  773MOL0     H 4294   2.340   6.379   5.108  0.6492 -0.3258 -0.1280
  773MOL0     H 4295   2.208   6.392   4.991  0.0898 -3.0308 -3.4024
  773MOL0     H 4296   2.358   6.278   4.816 -0.2833  1.5587  0.3289
  773MOL0     H 4297   2.473   6.242   4.944  0.0980  2.8725  2.4936
  773MOL0     H 4298   2.276   6.137   5.079 -0.6218  0.4846  0.4426
  773MOL0     H 4299   2.172   6.147   4.944  0.6158  2.0654 -1.2510
  773MOL0     H 4300   2.332   6.021   4.796 -0.8745 -0.3664  0.3680
  773MOL0     H 4301   2.434   5.994   4.934 -0.8461 -0.0756  1.4732
  773MOL0     H 4302   2.258   5.873   5.057 -2.5911  2.7011  0.0856
  773MOL0     H 4303   2.138   5.924   4.949 -0.7503  1.6342  3.1239
  773MOL0     H 4304   2.273   5.772   4.774 -0.5032  0.2710  0.3368
  773MOL0     H 4305   2.196   5.685   4.913  1.4106 -0.9097  1.0894
  773MOL0     H 4306   2.316   5.554   5.085 -0.1657 -1.7134 -1.3338
  773MOL0     H 4307   2.525   5.415   5.217  1.9196  0.8372  5.4370
  773MOL0     H 4308   2.685   5.443   5.154  0.7771 -0.5135 -0.0148
  773MOL0     H 4309   2.668   5.519   5.370 -2.1287 -1.7573 -0.0273
  773MOL0     H 4310   2.536   5.639   5.339  0.3734  1.9846 -1.9904
  773MOL0     H 4311   2.740   5.770   5.351  2.5918  0.5753 -0.5646
  773MOL0     H 4312   2.702   5.750   5.181 -2.0467  0.0439  0.8859
  773MOL0     H 4313   2.943   5.724   5.238 -0.1503  0.4440 -0.6849
  773MOL0     H 4314   2.873   5.574   5.173 -0.9733 -2.0959  1.8524
  773MOL0     H 4315   3.129   5.722   5.356  2.6928  0.7158  1.9691
  773MOL0     H 4316   3.291   5.876   5.413  2.9355  0.4981  1.9083
  773MOL0     H 4317   3.243   6.025   5.507 -2.8340  0.0861 -2.5191
  773MOL0     H 4318   3.336   5.880   5.577 -1.4936 -3.2805  0.7426
  773MOL0     H 4319   3.382   6.215   5.670 -1.3300 -1.7039 -0.0394
  773MOL0     H 4320   3.494   6.377   5.823  0.3295 -0.5699  0.0692
  773MOL0     H 4321   3.444   6.594   5.925  0.4171  1.6558  1.0061
  773MOL0     H 4322   3.359   6.643   6.075  1.2053 -0.4800  2.9055
  773MOL0     H 4323   3.557   6.718   6.082 -1.5211 -0.5301 -1.9987
  773MOL0     H 4324   3.575   6.574   6.195  0.8515  1.3222  0.5568
  773MOL0     H 4325   3.764   6.633   6.021  0.1429 -2.0893  2.4164
  773MOL0     H 4326   3.660   6.561   5.902  2.2853  0.2603 -0.3734
  773MOL0     H 4327   3.718   6.414   6.154 -3.1495  0.1224  0.5206
  773MOL0     H 4328   3.657   6.357   5.998 -1.5804  2.1850 -0.0540
  773MOL0     H 4329   3.924   6.371   6.082  1.0212 -0.8361 -1.7893
  773MOL0     H 4330   3.907   6.448   5.924  0.2676 -0.1172 -0.5526
  773MOL0     H 4331   3.968   6.204   5.932 -0.0155 -2.0504 -0.1121
  773MOL0     H 4332   3.807   6.169   5.993  0.6576 -0.6087  0.6998
  773MOL0     H 4333   3.899   6.305   5.735  0.2943 -0.1739  0.7430
  773MOL0     H 4334   3.722   6.305   5.773 -0.4017 -2.4905 -0.4914
  773MOL0     H 4335   3.797   6.033   5.779  1.2326 -0.6761 -1.1808
  773MOL0     H 4336   3.893   6.086   5.651  1.6962 -0.8164  1.0207
  773MOL0     H 4337   3.139   6.312   6.083 -4.0148 -0.3866 -3.4453
  773MOL0     H 4338   3.078   6.145   5.968 -1.0965  0.4383 -1.3725
  773MOL0     H 4339   2.912   5.761   5.799  1.9212  0.6949  0.8794
  773MOL0     H 4340   2.820   5.630   5.615  0.5034 -1.2187  0.1907
  773MOL0     H 4341   2.119   6.674   5.332  0.8272  0.5142  1.4927
  773MOL0     H 4342   1.948   6.841   5.384 -0.4596  3.0483  0.3741
  773MOL0     H 4343   1.618   7.302   5.064  1.0140  0.8062  0.1208
  773MOL0     H 4344   1.443   7.440   5.163  1.5018 -0.2337 -2.3962
  773MOL0     H 4345   1.502   7.530   5.516 -0.0749  0.7364  1.7989
  773MOL0     H 4346   1.354   7.611   5.475 -0.6283  0.7561  3.0408
  773MOL0     H 4347   1.362   7.543   5.711  1.1968 -2.2372  0.8032
  773MOL0     H 4348   1.406   7.388   5.672 -0.4221 -1.5350 -0.3545
  773MOL0     H 4349   1.215   7.309   5.620  1.8921  0.3092 -2.8250
  773MOL0     H 4350   1.130   7.463   5.568 -0.3371 -0.8123 -0.1610
  773MOL0     H 4351   1.116   7.541   5.781 -0.9539 -0.3858  1.1939
  773MOL0     H 4352   1.188   7.397   5.852  1.2899  1.3829  0.2067
  773MOL0     H 4353   0.797   7.254   5.732 -0.0089  0.2715  0.3277
  773MOL0     H 4354   1.527   7.270   5.549 -0.6210  0.5541  0.0433
  773MOL0     H 4355   1.725   7.123   5.439 -1.3943  0.8532  3.0442
  774MOL0     O 4356   5.800   2.634   6.388 -0.3281  0.1068 -0.0538
  774MOL0     C 4357   5.858   2.695   6.476 -0.2458 -0.0187  0.5881
  774MOL0     O 4358   5.998   2.737   6.467 -0.2353  0.6333  0.2618
  774MOL0     C 4359   6.060   2.694   6.353  0.6199 -0.0605 -0.2742
  774MOL0     C 4360   6.150   2.591   6.354  0.0356  0.4826 -0.2261
  774MOL0     C 4361   6.196   2.543   6.234 -0.7409  0.1039  0.5933
  774MOL0     C 4362   6.159   2.595   6.109  0.1156  0.0708 -0.0215
  774MOL0     O 4363   6.197   2.553   5.986 -0.4906 -0.4070 -0.1346
  774MOL0     C 4364   6.346   2.548   5.972 -0.1510 -0.6065  0.7200
  774MOL0     C 4365   6.378   2.607   5.831 -0.0647 -0.3285  0.6017
  774MOL0     C 4366   6.525   2.598   5.788 -1.4402  1.2198 -0.1187
  774MOL0     C 4367   6.570   2.449   5.780  0.0626 -0.4585  0.2260
  774MOL0     C 4368   6.701   2.413   5.860 -0.1301  0.3694  0.1295
  774MOL0     C 4369   6.673   2.399   6.011 -0.0636 -0.1279  0.2477
  774MOL0     C 4370   6.796   2.379   6.099 -0.6659  0.6385 -0.8387
  774MOL0     C 4371   6.908   2.494   6.083  0.9316 -0.0913 -0.0414
  774MOL0     N 4372   6.966   2.520   6.220  0.2048  0.3494 -0.5609
  774MOL0     C 4373   7.071   2.440   6.265  0.0922 -0.3392  0.0067
  774MOL0     C 4374   7.090   2.480   6.391  0.5593 -0.3316  0.1775
  774MOL0     C 4375   7.185   2.416   6.474  0.2267  1.1254  0.1141
  774MOL0     C 4376   7.293   2.507   6.523 -0.0056  0.0801 -0.1127
  774MOL0     C 4377   7.399   2.442   6.609 -1.0719  0.0199  0.3449
  774MOL0     C 4378   7.369   2.385   6.736 -0.0680  0.2559  0.1391
  774MOL0     O 4379   7.285   2.464   6.816  0.6149 -0.5755 -0.2845
  774MOL0     C 4380   7.243   2.404   6.936 -0.4769 -0.2890 -1.0982
  774MOL0     C 4381   7.129   2.449   7.002 -0.0594  0.6933 -0.5354
  774MOL0     C 4382   7.081   2.408   7.124  0.1903 -0.1275  0.7538
  774MOL0     C 4383   6.938   2.469   7.168 -0.2918 -0.4604 -0.0024
  774MOL0     C 4384   7.152   2.303   7.188 -0.6628 -0.7416  1.3285
  774MOL0     C 4385   7.119   2.243   7.318  0.0543  0.1791 -0.1314
  774MOL0     O 4386   7.031   2.323   7.399 -0.1508 -0.5493  0.5460
  774MOL0     C 4387   6.986   2.250   7.503  0.1624  0.3022  0.2656
  774MOL0     C 4388   7.069   2.211   7.605 -0.2412  0.2641 -0.1961
  774MOL0     C 4389   7.019   2.136   7.713  0.6054 -0.5238  0.4920
  774MOL0     C 4390   6.887   2.097   7.722  0.1495  0.1606 -0.0767
  774MOL0     O 4391   6.831   2.009   7.805  0.0723 -0.4744  0.3694
  774MOL0     C 4392   6.917   1.924   7.885  0.7284 -0.2332 -0.1951
  774MOL0     C 4393   6.824   1.812   7.935 -0.4230 -0.7341  0.9591
  774MOL0     C 4394   6.908   1.694   7.994 -0.2858  0.1024  0.1984
  774MOL0     C 4395   6.832   1.569   8.052  0.4850  0.4431  0.3239
  774MOL0     C 4396   6.919   1.459   8.117  0.3335  0.1294 -0.5311
  774MOL0     C 4397   6.956   1.494   8.260 -0.2810 -0.2851  1.2029
  774MOL0     C 4398   7.051   1.378   8.314  0.0626 -0.5628 -0.1783
  774MOL0     C 4399   7.060   1.392   8.462 -0.1131  0.3688  0.2526
  774MOL0    Cl 4400   7.124   1.553   8.498  0.0505  0.1316 -0.2573
  774MOL0     C 4401   6.810   2.134   7.612  0.1926 -0.4951 -0.1316
  774MOL0     C 4402   6.857   2.219   7.507 -0.3431  1.4285  0.1706
  774MOL0     O 4403   7.165   2.137   7.352 -0.1584  0.7095 -0.3510
  774MOL0     C 4404   7.264   2.256   7.127 -0.6364  0.9891 -0.3667
  774MOL0     C 4405   7.319   2.306   7.009  0.0300 -1.6941 -0.0018
  774MOL0     N 4406   6.992   2.576   6.420  0.2942  0.9697 -0.4017
  774MOL0     N 4407   6.926   2.610   6.307 -0.1641  0.5584 -0.0971
  774MOL0     C 4408   6.070   2.697   6.108  0.7918 -0.3939 -0.5556
  774MOL0     C 4409   6.016   2.741   6.228  0.6149  0.4846 -0.5275
  774MOL0     C 4410   5.778   2.744   6.589  0.2882 -0.2220  0.3582
  774MOL0     C 4411   5.652   2.681   6.612 -0.5674 -0.1140 -0.2477
  774MOL0     C 4412   5.582   2.716   6.731  0.3594 -0.7374  0.0528
  774MOL0     C 4413   5.635   2.819   6.814  0.0305 -0.5411 -0.5311
  774MOL0     O 4414   5.571   2.869   6.927  0.5694 -0.2583 -0.5648
  774MOL0     C 4415   5.430   2.839   6.940 -0.7095 -0.3688  0.1198
  774MOL0     C 4416   5.363   2.930   7.048  0.5251 -0.0029  0.6633
  774MOL0     C 4417   5.341   3.068   6.990 -0.5745  0.6868  0.3805
  774MOL0     C 4418   5.192   3.073   6.934 -0.8734 -0.2181  1.2244
  774MOL0     C 4419   5.097   3.083   7.042 -0.5264 -0.1112  0.6023
  774MOL0     C 4420   5.009   3.099   7.119  0.5261  0.2694 -0.7567
  774MOL0     C 4421   5.758   2.871   6.792 -0.4291 -0.5132 -0.5037
  774MOL0     C 4422   5.831   2.835   6.675  0.8606  0.3062  1.1632
  774MOL0     H 4423   6.181   2.543   6.446 -2.8029  1.3770  1.2977
  774MOL0     H 4424   6.272   2.466   6.233 -1.1211 -0.3792  3.0125
  774MOL0     H 4425   6.392   2.603   6.055 -0.4493  1.4646 -0.4123
  774MOL0     H 4426   6.377   2.444   5.979  0.5723 -0.7097 -2.5957
  774MOL0     H 4427   6.318   2.558   5.754 -1.4639 -2.4189  2.8805
  774MOL0     H 4428   6.347   2.711   5.845  2.1669  0.2124  2.0315
  774MOL0     H 4429   6.540   2.650   5.693 -0.8688  0.9082 -0.2043
  774MOL0     H 4430   6.585   2.661   5.854 -2.3549  1.7597  0.2233
  774MOL0     H 4431   6.495   2.374   5.806  0.4336 -1.0876 -0.4504
  774MOL0     H 4432   6.596   2.438   5.674  0.2638 -0.5082  0.2787
  774MOL0     H 4433   6.753   2.323   5.827 -0.9727  0.0661 -0.3942
  774MOL0     H 4434   6.775   2.492   5.845  1.9834 -1.4142  0.6941
  774MOL0     H 4435   6.622   2.487   6.050  0.9942  1.5397 -1.9384
  774MOL0     H 4436   6.610   2.312   6.034 -1.5460  0.6821 -0.5755
  774MOL0     H 4437   6.774   2.369   6.205 -0.9021  1.3446 -0.8124
  774MOL0     H 4438   6.845   2.281   6.090  0.7240  0.5804  4.3875
  774MOL0     H 4439   6.855   2.579   6.040  0.2065 -0.5689 -0.1115
  774MOL0     H 4440   6.989   2.463   6.017  2.4652  2.5662  0.4746
  774MOL0     H 4441   7.124   2.363   6.210  0.9672  1.1400 -1.3150
  774MOL0     H 4442   7.135   2.369   6.559  0.5589  0.2521 -0.1645
  774MOL0     H 4443   7.245   2.343   6.420 -0.3399  2.0781 -1.9124
  774MOL0     H 4444   7.255   2.593   6.579 -2.3133 -0.2837 -1.0008
  774MOL0     H 4445   7.354   2.550   6.443  1.7510  2.2250  2.2269
  774MOL0     H 4446   7.464   2.528   6.626  0.9494 -0.8199 -2.4210
  774MOL0     H 4447   7.454   2.365   6.554 -0.3373 -2.1639  3.8289
  774MOL0     H 4448   7.457   2.347   6.787 -0.3413 -1.2463 -0.4657
  774MOL0     H 4449   7.316   2.292   6.712 -0.0557 -0.2047  1.8165
  774MOL0     H 4450   7.078   2.531   6.952  1.1091  0.6594 -1.8149
  774MOL0     H 4451   6.861   2.394   7.189 -0.8770 -0.7204 -2.6625
  774MOL0     H 4452   6.944   2.538   7.252 -1.3393  0.4500 -0.6438
  774MOL0     H 4453   6.905   2.523   7.079  1.9417 -1.5535 -1.5883
  774MOL0     H 4454   7.174   2.238   7.611  0.4476 -2.3128  0.7254
  774MOL0     H 4455   7.080   2.107   7.799  1.7753 -1.3348 -0.5701
  774MOL0     H 4456   7.001   1.885   7.826  2.0559  3.5966 -1.1557
  774MOL0     H 4457   6.947   1.980   7.975  1.6856  0.9239 -1.1948
  774MOL0     H 4458   6.750   1.866   7.995 -0.5932  4.2655 -3.0831
  774MOL0     H 4459   6.770   1.784   7.844  1.0144 -3.0229  0.7255
  774MOL0     H 4460   6.961   1.733   8.082 -6.3439  0.6401  4.2368
  774MOL0     H 4461   6.971   1.653   7.915  1.0344 -1.1146  1.8146
  774MOL0     H 4462   6.749   1.588   8.121 -1.5898  1.0355 -2.2198
  774MOL0     H 4463   6.785   1.525   7.964  0.6496  2.7460 -0.9883
  774MOL0     H 4464   7.012   1.447   8.061  0.5954 -0.7263  0.0700
  774MOL0     H 4465   6.875   1.359   8.108  0.7645 -0.0901 -0.2526
  774MOL0     H 4466   7.024   1.579   8.247  0.0781 -0.6634  0.5923
  774MOL0     H 4467   6.869   1.516   8.324  0.1967  2.4327  1.0342
  774MOL0     H 4468   7.149   1.392   8.269 -0.0238  0.5395 -0.0434
  774MOL0     H 4469   7.029   1.272   8.295  2.9995 -0.9324 -2.1194
  774MOL0     H 4470   7.128   1.311   8.490  0.1413  0.8297  1.0259
  774MOL0     H 4471   6.967   1.370   8.516  0.5908  1.0367  1.8260
  774MOL0     H 4472   6.709   2.099   7.594  0.5750 -1.6768 -0.1092
  774MOL0     H 4473   6.791   2.257   7.430 -1.5317  0.1766  0.5293
  774MOL0     H 4474   7.323   2.190   7.189 -0.1491 -0.2625 -2.0853
  774MOL0     H 4475   7.411   2.270   6.963  0.0080 -0.2816 -1.2177
  774MOL0     H 4476   6.038   2.736   6.012 -0.9584 -0.7498 -0.1641
  774MOL0     H 4477   5.933   2.809   6.216 -1.4527 -1.2194  2.7281
  774MOL0     H 4478   5.607   2.609   6.543 -3.3853  1.3065 -0.0391
  774MOL0     H 4479   5.482   2.677   6.750  0.1073  1.6439  5.6355
  774MOL0     H 4480   5.378   2.855   6.845 -1.0473  2.2605  0.6578
  774MOL0     H 4481   5.414   2.736   6.972 -2.0551  0.0313  0.8000
  774MOL0     H 4482   5.419   2.930   7.142  0.0225  2.5378  1.0171
  774MOL0     H 4483   5.269   2.884   7.080  0.3151 -0.6054 -0.7463
  774MOL0     H 4484   5.411   3.084   6.907  0.0268  0.1225  0.7648
  774MOL0     H 4485   5.363   3.144   7.065  3.4194  0.2997 -0.1734
  774MOL0     H 4486   5.180   2.979   6.879 -2.8388  1.1332 -0.8608
  774MOL0     H 4487   5.170   3.146   6.854 -0.5255 -2.6234 -1.2085
  774MOL0     H 4488   4.939   3.121   7.197  1.6061  1.8066 -0.1616
  774MOL0     H 4489   5.798   2.939   6.866  0.3453 -0.8180 -0.6276
  774MOL0     H 4490   5.931   2.874   6.654  0.7817 -0.1659 -0.2136
  775MOL0     O 4491   8.383   6.362   7.526 -0.0228  0.0991  0.6438
  775MOL0     C 4492   8.328   6.378   7.640  0.1269 -0.3448 -0.8845
  775MOL0     O 4493   8.358   6.476   7.727  0.1380 -0.0415 -0.1821
  775MOL0     C 4494   8.258   6.532   7.806  0.1677 -0.0942 -0.7823
  775MOL0     C 4495   8.294   6.650   7.871 -0.1371  0.1940 -0.2737
  775MOL0     C 4496   8.209   6.725   7.944 -0.1086 -0.8483  0.1621
  775MOL0     C 4497   8.078   6.675   7.970 -0.3994 -0.3525 -0.3476
  775MOL0     O 4498   7.979   6.740   8.036 -0.2517 -0.5753  0.2102
  775MOL0     C 4499   8.020   6.840   8.132  0.3149 -0.0426 -0.3534
  775MOL0     C 4500   7.907   6.905   8.203 -0.4923  0.2093  0.4257
  775MOL0     C 4501   7.839   6.822   8.315  0.0852  0.5246  0.0104
  775MOL0     C 4502   7.920   6.825   8.442  0.8537 -0.1575 -0.4487
  775MOL0     C 4503   7.873   6.706   8.529 -0.5326  0.6416 -0.5956
  775MOL0     C 4504   7.973   6.681   8.639 -0.4055  0.2076 -0.3764
  775MOL0     C 4505   7.928   6.572   8.734  0.3976 -0.2909 -0.0919
  775MOL0     C 4506   7.803   6.603   8.814 -0.3808 -0.1427  0.4988
  775MOL0     N 4507   7.798   6.519   8.933  0.0077  0.7003 -0.1283
  775MOL0     C 4508   7.860   6.405   8.978  0.3132  0.1841  1.3243
  775MOL0     C 4509   7.814   6.375   9.101  0.4871 -0.5129 -0.0835
  775MOL0     C 4510   7.860   6.253   9.187  0.9390 -0.6834 -0.7240
  775MOL0     C 4511   7.811   6.117   9.135  0.3320  0.6723 -1.2702
  775MOL0     C 4512   7.888   6.003   9.207  0.6486 -0.6875 -0.1001
  775MOL0     C 4513   7.847   5.857   9.155  0.4147 -0.1811 -1.0803
  775MOL0     O 4514   7.715   5.843   9.184  0.8997  0.6389 -0.8393
  775MOL0     C 4515   7.653   5.712   9.193  0.2267 -0.5979 -0.7299
  775MOL0     C 4516   7.698   5.605   9.125 -0.1649 -0.1054 -0.8815
  775MOL0     C 4517   7.644   5.482   9.130 -0.1840  0.6701  0.4584
  775MOL0     C 4518   7.700   5.381   9.034  0.5906 -0.4728 -0.5268
  775MOL0     C 4519   7.546   5.454   9.233 -0.2975 -0.7379 -0.5442
  775MOL0     C 4520   7.504   5.320   9.284 -0.0439 -0.6466 -0.1128
  775MOL0     O 4521   7.409   5.314   9.386  0.3785 -0.2191 -0.1162
  775MOL0     C 4522   7.377   5.199   9.447 -0.3164  0.9563 -0.2291
  775MOL0     C 4523   7.432   5.188   9.572  0.1328  0.2455 -0.3157
  775MOL0     C 4524   7.392   5.073   9.651  0.2208 -0.2555 -0.1324
  775MOL0     C 4525   7.315   4.970   9.603  0.4804 -0.5370  0.4554
  775MOL0     O 4526   7.277   4.868   9.687  0.0081 -0.2265  0.6621
  775MOL0     C 4527   7.292   4.729   9.634  0.7493 -0.3837  0.2486
  775MOL0     C 4528   7.308   4.627   9.748 -0.2044 -0.5547  0.4747
  775MOL0     C 4529   7.444   4.656   9.825 -0.1946 -0.5085 -0.2012
  775MOL0     C 4530   7.465   4.554   9.936  0.1685 -0.3677 -1.1820
  775MOL0     C 4531   7.579   4.586  10.045 -0.5058 -0.4626  0.4978
  775MOL0     C 4532   7.699   4.487  10.045  0.6176 -0.2450  0.4891
  775MOL0     C 4533   7.800   4.476  10.161  0.1643 -0.8447 -0.0770
  775MOL0     C 4534   7.910   4.373  10.133  0.5694 -0.5488  0.0218
  775MOL0    Cl 4535   8.014   4.367  10.287  0.1332 -0.2881 -0.2047
  775MOL0     C 4536   7.263   4.982   9.475 -0.9795 -0.5300 -0.1708
  775MOL0     C 4537   7.293   5.095   9.404  0.2173 -0.3182  0.4142
  775MOL0     O 4538   7.562   5.222   9.244  0.3636 -0.7665 -0.0465
  775MOL0     C 4539   7.490   5.561   9.301 -0.2582 -0.5668 -0.5276
  775MOL0     C 4540   7.539   5.686   9.281 -0.4003  0.4902 -0.3260
  775MOL0     N 4541   7.721   6.485   9.133 -0.3000 -0.1468  0.1560
  775MOL0     N 4542   7.709   6.562   9.028  0.3870  0.9990 -0.3695
  775MOL0     C 4543   8.040   6.553   7.917 -0.2830 -0.4344  0.7834
  775MOL0     C 4544   8.122   6.484   7.822  0.2277 -0.6383  0.4613
  775MOL0     C 4545   8.279   6.254   7.695 -0.1701  0.4924 -0.0816
  775MOL0     C 4546   8.189   6.175   7.618  0.6063  0.7307  0.3839
  775MOL0     C 4547   8.132   6.061   7.672 -0.4047 -0.0293 -0.4213
  775MOL0     C 4548   8.159   6.024   7.799  0.5482 -0.0710 -0.1637
  775MOL0     O 4549   8.113   5.918   7.866 -0.7587  0.5138  0.0984
  775MOL0     C 4550   8.010   5.829   7.814  0.8162 -0.9830  0.2747
  775MOL0     C 4551   7.996   5.704   7.889  0.4737  0.6057  0.7269
  775MOL0     C 4552   7.919   5.593   7.817 -0.1226  0.0341  0.7118
  775MOL0     C 4553   7.774   5.553   7.848 -0.1345 -0.1963  0.7570
  775MOL0     C 4554   7.756   5.415   7.797  0.3557 -0.5789 -0.9646
  775MOL0     C 4555   7.750   5.305   7.743 -0.0787 -0.5099 -0.0146
  775MOL0     C 4556   8.242   6.106   7.878 -0.4141  0.0062  0.9646
  775MOL0     C 4557   8.300   6.219   7.826  0.1528  0.6707  0.3289
  775MOL0     H 4558   8.397   6.681   7.860  1.4803 -4.3333  0.1807
  775MOL0     H 4559   8.232   6.828   7.968  0.6099 -1.0541  0.3918
  775MOL0     H 4560   8.095   6.801   8.201 -0.1847  0.1914  0.3262
  775MOL0     H 4561   8.074   6.909   8.066  0.1769  0.6670  0.2720
  775MOL0     H 4562   7.949   6.993   8.251  1.0634 -0.4599  0.3258
  775MOL0     H 4563   7.833   6.935   8.128  0.5832 -1.7799 -1.5236
  775MOL0     H 4564   7.739   6.864   8.324  0.4983  1.2699  1.5311
  775MOL0     H 4565   7.833   6.720   8.277 -0.8825 -1.2015  4.2646
  775MOL0     H 4566   8.027   6.812   8.422  1.7612 -1.0911  3.8138
  775MOL0     H 4567   7.905   6.921   8.492  0.1656  0.6747 -2.1784
  775MOL0     H 4568   7.775   6.740   8.562 -1.1794 -1.9276  0.3376
  775MOL0     H 4569   7.869   6.617   8.466  0.2780  1.6590 -2.1484
  775MOL0     H 4570   8.059   6.644   8.582 -2.5749 -1.6949 -2.7091
  775MOL0     H 4571   7.995   6.769   8.699  0.9045  2.7636 -4.2262
  775MOL0     H 4572   7.927   6.473   8.687  0.8388  0.0296 -0.7797
  775MOL0     H 4573   8.013   6.565   8.803  1.0867  0.4618 -0.8360
  775MOL0     H 4574   7.720   6.580   8.747 -0.7358  1.7857  0.2069
  775MOL0     H 4575   7.786   6.709   8.837  1.7129  0.6127 -1.0310
  775MOL0     H 4576   7.927   6.345   8.918 -0.7805 -1.5097  1.7257
  775MOL0     H 4577   7.969   6.252   9.184  1.1093  0.8142  1.9499
  775MOL0     H 4578   7.823   6.274   9.288  1.2866 -0.6021 -0.6113
  775MOL0     H 4579   7.810   6.109   9.026  2.1490 -3.2865 -1.1680
  775MOL0     H 4580   7.707   6.114   9.170  0.5322  1.3162 -0.5790
  775MOL0     H 4581   7.874   6.009   9.315  2.6687 -0.8144  0.2084
  775MOL0     H 4582   7.995   6.018   9.190  0.4464 -0.4961 -1.3149
  775MOL0     H 4583   7.908   5.783   9.207  0.0167 -1.3168 -2.1669
  775MOL0     H 4584   7.856   5.839   9.047 -1.0220  1.7577 -1.5904
  775MOL0     H 4585   7.783   5.621   9.059  3.5897 -2.2309  2.9293
  775MOL0     H 4586   7.780   5.332   9.090 -0.1400  0.9453  1.8751
  775MOL0     H 4587   7.623   5.304   9.024 -0.8244  1.0486 -2.2367
  775MOL0     H 4588   7.729   5.412   8.933  2.0817 -0.9988 -0.2785
  775MOL0     H 4589   7.491   5.271   9.610  1.0376 -0.7754  0.5760
  775MOL0     H 4590   7.430   5.062   9.752 -0.6103  2.3391  0.5452
  775MOL0     H 4591   7.200   4.700   9.582  0.8032 -0.1932  0.0460
  775MOL0     H 4592   7.375   4.717   9.564 -0.8847 -1.0037 -1.6760
  775MOL0     H 4593   7.224   4.631   9.817  1.1115  1.4637  2.0919
  775MOL0     H 4594   7.314   4.529   9.701  0.6675 -0.8480  1.1857
  775MOL0     H 4595   7.440   4.753   9.874  1.8872 -0.0592 -0.8181
  775MOL0     H 4596   7.530   4.656   9.756  0.4541 -1.1369  0.5960
  775MOL0     H 4597   7.366   4.556   9.982  0.6920 -0.3317 -0.0279
  775MOL0     H 4598   7.480   4.452   9.900  5.3029 -0.6920  1.0245
  775MOL0     H 4599   7.531   4.587  10.144  2.0519  0.8296  1.8247
  775MOL0     H 4600   7.617   4.688  10.035 -0.7336 -0.5723 -2.0677
  775MOL0     H 4601   7.655   4.387  10.038  0.7291 -0.2417 -0.3639
  775MOL0     H 4602   7.746   4.506   9.948 -0.8511 -0.8900 -0.3721
  775MOL0     H 4603   7.740   4.457  10.251  0.9235  2.8090  1.3780
  775MOL0     H 4604   7.843   4.575  10.181 -0.5188 -0.8282  1.5598
  775MOL0     H 4605   7.971   4.401  10.047  1.4336 -4.2075 -0.7173
  775MOL0     H 4606   7.875   4.272  10.107  1.2628 -0.7598 -0.1123
  775MOL0     H 4607   7.188   4.907   9.451 -2.9014  0.6037  1.8827
  775MOL0     H 4608   7.256   5.097   9.302  2.2752 -4.0905 -0.6193
  775MOL0     H 4609   7.413   5.539   9.374  2.0229 -2.5531  1.4486
  775MOL0     H 4610   7.505   5.774   9.334  0.9045  0.9409 -0.2056
  775MOL0     H 4611   7.937   6.530   7.942 -0.4696  2.3447  3.0200
  775MOL0     H 4612   8.089   6.393   7.775  1.1369  0.2825 -2.1423
  775MOL0     H 4613   8.154   6.196   7.517  0.7222  0.7096  0.3389
  775MOL0     H 4614   8.068   6.001   7.609  1.0240 -0.8770 -1.1121
  775MOL0     H 4615   7.917   5.886   7.807  1.6590  0.4788  0.6694
  775MOL0     H 4616   8.039   5.804   7.711 -0.0143  3.1102 -1.1069
  775MOL0     H 4617   7.942   5.722   7.982 -0.2913 -1.1525  0.6418
  775MOL0     H 4618   8.095   5.661   7.907  0.9616  1.7275  0.8789
  775MOL0     H 4619   7.982   5.507   7.841  0.9276  1.0531  1.6860
  775MOL0     H 4620   7.924   5.610   7.709 -0.6440 -0.9850  0.5094
  775MOL0     H 4621   7.711   5.627   7.798  1.0404 -0.7683 -1.7349
  775MOL0     H 4622   7.750   5.562   7.955 -0.4759  2.2238  0.5263
  775MOL0     H 4623   7.762   5.210   7.695 -1.6165 -0.4610 -0.5451
  775MOL0     H 4624   8.264   6.071   7.979 -0.6527 -1.6816  0.4585
  775MOL0     H 4625   8.354   6.277   7.900  1.1061 -0.8479  0.8531
  776MOL0     O 4626   7.299   8.247   7.224 -0.0205 -0.5833  0.4714
  776MOL0     C 4627   7.378   8.165   7.266 -0.4653  1.0601  0.6686
  776MOL0     O 4628   7.508   8.191   7.296  0.3092  0.3078  0.2190
  776MOL0     C 4629   7.555   8.315   7.280 -1.0461  0.5706  0.1867
  776MOL0     C 4630   7.568   8.401   7.392 -0.0787  0.5339  0.0952
  776MOL0     C 4631   7.614   8.535   7.374 -0.5754  0.8075 -0.6267
  776MOL0     C 4632   7.660   8.578   7.250 -0.1354 -0.3773  0.1916
  776MOL0     O 4633   7.717   8.700   7.252  0.3799  0.1994  0.3731
  776MOL0     C 4634   7.805   8.762   7.149 -0.0242  0.8316  0.3245
  776MOL0     C 4635   7.869   8.882   7.204 -0.6554 -0.1203 -0.1866
  776MOL0     C 4636   7.767   8.984   7.276  0.0956 -0.1860 -0.0904
  776MOL0     C 4637   7.838   9.103   7.325 -0.0713 -0.2569 -0.3838
  776MOL0     C 4638   7.852   9.113   7.475 -0.3703 -0.2731 -0.3405
  776MOL0     C 4639   7.718   9.135   7.543  0.2545 -0.6713 -0.3050
  776MOL0     C 4640   7.733   9.231   7.654  1.0913 -0.3617  0.6020
  776MOL0     C 4641   7.765   9.144   7.780 -0.9613  0.7520 -0.4780
  776MOL0     N 4642   7.765   9.213   7.902  0.3760  0.0213 -0.6021
  776MOL0     C 4643   7.734   9.160   8.019 -0.9210 -0.4480  0.1192
  776MOL0     C 4644   7.748   9.257   8.107 -0.1060 -0.1233 -0.2733
  776MOL0     C 4645   7.725   9.222   8.257 -0.0950  0.0136 -0.0173
  776MOL0     C 4646   7.588   9.166   8.297  0.2310 -0.2548 -0.1595
  776MOL0     C 4647   7.579   9.175   8.450 -0.0357  1.2513 -0.1684
  776MOL0     C 4648   7.446   9.129   8.515  0.3584 -0.3062  1.0432
  776MOL0     O 4649   7.345   9.232   8.503 -0.2634  1.0348 -0.7810
  776MOL0     C 4650   7.219   9.205   8.546  0.2322 -0.0284  0.8256
  776MOL0     C 4651   7.115   9.306   8.529  0.6542  0.9979  0.8253
  776MOL0     C 4652   6.987   9.292   8.576  0.4112  0.0303 -0.1788
  776MOL0     C 4653   6.895   9.412   8.564  0.6381  0.6348 -0.2782
  776MOL0     C 4654   6.944   9.175   8.639 -0.6472  0.5976  0.5026
  776MOL0     C 4655   6.802   9.142   8.683 -0.5096 -0.2725  0.8797
  776MOL0     O 4656   6.713   9.189   8.584  0.1106 -0.6191 -0.2507
  776MOL0     C 4657   6.580   9.201   8.624  0.3609 -0.5026 -0.1001
  776MOL0     C 4658   6.509   9.082   8.654  0.2836 -1.0808 -0.5038
  776MOL0     C 4659   6.370   9.100   8.680  0.2229  0.6200  0.7156
  776MOL0     C 4660   6.300   9.228   8.681 -0.3753 -0.2643 -0.1510
  776MOL0     O 4661   6.174   9.218   8.725  0.2770 -0.0646  0.1573
  776MOL0     C 4662   6.112   9.340   8.769 -0.9163  0.1495 -0.0317
  776MOL0     C 4663   5.991   9.312   8.857  0.0088  0.7177  0.4421
  776MOL0     C 4664   5.932   9.437   8.916  0.9599  0.1736  0.0469
  776MOL0     C 4665   5.871   9.542   8.822 -0.1525 -0.0757 -0.0854
  776MOL0     C 4666   5.972   9.642   8.763  0.0978  0.1202 -0.6245
  776MOL0     C 4667   5.964   9.783   8.834 -0.4415  0.7856 -0.8250
  776MOL0     C 4668   6.048   9.883   8.754  0.2196  0.6220 -0.1212
  776MOL0     C 4669   6.075   9.996   8.852 -0.5536 -1.1617  0.1395
  776MOL0    Cl 4670   5.929  10.070   8.928 -0.3307 -0.1434 -0.4353
  776MOL0     C 4671   6.379   9.344   8.658 -0.1263 -0.5893  0.5188
  776MOL0     C 4672   6.514   9.329   8.616  0.3707 -0.1239  0.5573
  776MOL0     O 4673   6.778   9.083   8.784  0.1223  0.1590  0.6906
  776MOL0     C 4674   7.041   9.073   8.652 -1.1319 -0.5792  0.4115
  776MOL0     C 4675   7.174   9.085   8.600 -0.5283  0.1097 -0.5123
  776MOL0     N 4676   7.776   9.375   8.047 -0.0956 -0.0857  0.3309
  776MOL0     N 4677   7.808   9.340   7.920 -0.3277 -0.5808  0.0746
  776MOL0     C 4678   7.660   8.493   7.139  0.0718  0.1027  0.0012
  776MOL0     C 4679   7.601   8.365   7.151 -0.0769  0.1428  0.1181
  776MOL0     C 4680   7.317   8.038   7.320  0.0897  0.4264 -0.0666
  776MOL0     C 4681   7.181   8.005   7.300 -0.6435  0.2099  0.3458
  776MOL0     C 4682   7.127   7.891   7.352 -0.1553  0.3769  0.3221
  776MOL0     C 4683   7.203   7.798   7.423 -0.3131 -0.7818 -0.3981
  776MOL0     O 4684   7.154   7.682   7.485  0.3026  0.2341  1.0306
  776MOL0     C 4685   7.011   7.664   7.481 -0.5884 -0.1143 -0.4561
  776MOL0     C 4686   6.962   7.535   7.566  0.6598 -0.4427  0.5550
  776MOL0     C 4687   7.005   7.554   7.710  0.8249 -0.3582  0.1290
  776MOL0     C 4688   6.965   7.434   7.807 -0.3718 -0.1360 -0.3123
  776MOL0     C 4689   6.818   7.423   7.810  0.1468 -0.6720 -0.1347
  776MOL0     C 4690   6.696   7.415   7.807  0.2495 -0.3181  0.4559
  776MOL0     C 4691   7.335   7.828   7.437  0.4760  0.9216 -0.2494
  776MOL0     C 4692   7.396   7.949   7.391  0.5148 -0.9646 -0.1376
  776MOL0     H 4693   7.540   8.369   7.492 -0.7787  1.5727  0.2469
  776MOL0     H 4694   7.631   8.600   7.458 -0.0713  0.7160 -0.6544
  776MOL0     H 4695   7.880   8.685   7.130 -1.4239 -0.5404  0.2144
  776MOL0     H 4696   7.746   8.771   7.057  2.7742 -2.5769 -2.0318
  776MOL0     H 4697   7.944   8.850   7.277  1.4869  0.6817 -1.9411
  776MOL0     H 4698   7.924   8.936   7.126 -1.1871  0.7572  0.0226
  776MOL0     H 4699   7.700   9.027   7.201  0.7568  2.0170  0.5138
  776MOL0     H 4700   7.714   8.925   7.351 -0.4845  0.1440 -0.2374
  776MOL0     H 4701   7.937   9.103   7.278 -0.2668 -1.4085 -0.8218
  776MOL0     H 4702   7.782   9.188   7.285  0.0833 -1.0250 -2.3230
  776MOL0     H 4703   7.897   9.017   7.500  0.8013  0.2546 -0.3940
  776MOL0     H 4704   7.924   9.191   7.500 -1.0691  0.7023 -1.2886
  776MOL0     H 4705   7.649   9.188   7.477 -2.7239 -0.8643  2.4078
  776MOL0     H 4706   7.658   9.049   7.573 -1.0619  0.1833 -0.3962
  776MOL0     H 4707   7.799   9.317   7.645 -0.3125  0.8223  1.1651
  776MOL0     H 4708   7.637   9.278   7.678  0.0165 -1.1515 -1.8388
  776MOL0     H 4709   7.867   9.103   7.779 -0.1888  2.5055  0.4239
  776MOL0     H 4710   7.707   9.052   7.789  1.3931 -0.7495  0.6190
  776MOL0     H 4711   7.717   9.055   8.038  2.6376 -0.7093  2.6625
  776MOL0     H 4712   7.797   9.145   8.287  0.8036  2.1941  4.1819
  776MOL0     H 4713   7.749   9.310   8.318  0.7343  1.1125 -1.8510
  776MOL0     H 4714   7.569   9.064   8.264 -1.0062 -0.0254 -0.2148
  776MOL0     H 4715   7.501   9.219   8.257 -0.2698 -2.1406 -1.7327
  776MOL0     H 4716   7.598   9.278   8.484 -1.5396  1.8451 -1.0388
  776MOL0     H 4717   7.658   9.108   8.484 -0.1772  1.3952  0.4537
  776MOL0     H 4718   7.464   9.097   8.618  3.1107  3.6348  2.0039
  776MOL0     H 4719   7.408   9.044   8.457 -3.3294  2.3101 -0.8546
  776MOL0     H 4720   7.144   9.397   8.476 -0.6527  0.8478 -0.1887
  776MOL0     H 4721   6.944   9.509   8.553 -0.4637  1.1769 -0.5075
  776MOL0     H 4722   6.828   9.406   8.478  2.1576 -2.5079 -1.3726
  776MOL0     H 4723   6.833   9.417   8.655  0.6466  3.2054 -0.3250
  776MOL0     H 4724   6.550   8.982   8.652 -1.7988 -1.9817 -0.8116
  776MOL0     H 4725   6.304   9.018   8.709  2.0628 -0.9492  0.6688
  776MOL0     H 4726   6.180   9.388   8.840 -1.3962 -0.1755  0.6507
  776MOL0     H 4727   6.091   9.404   8.682 -1.6853  2.3180  1.6663
  776MOL0     H 4728   5.916   9.256   8.801  1.1817 -1.4124  0.9131
  776MOL0     H 4729   6.023   9.259   8.947 -3.4302  4.0906  4.0310
  776MOL0     H 4730   6.012   9.486   8.972  1.7514  0.3646 -1.2224
  776MOL0     H 4731   5.846   9.402   8.974  0.8052 -2.9350 -1.8468
  776MOL0     H 4732   5.834   9.487   8.735 -0.6770  1.2749 -0.7345
  776MOL0     H 4733   5.791   9.594   8.876 -0.5022  0.6882 -1.3018
  776MOL0     H 4734   5.945   9.649   8.658 -2.6424 -0.5896 -0.0576
  776MOL0     H 4735   6.078   9.614   8.754  0.9341  2.6647  0.2673
  776MOL0     H 4736   5.861   9.821   8.838 -0.2097  1.3405  0.4518
  776MOL0     H 4737   5.997   9.787   8.938 -2.8238  4.2604 -0.0262
  776MOL0     H 4738   6.001   9.900   8.657  0.5393 -0.5790 -0.5117
  776MOL0     H 4739   6.150   9.854   8.727  0.1707 -0.2354  0.5532
  776MOL0     H 4740   6.132  10.073   8.799 -0.4779  0.2681  2.2049
  776MOL0     H 4741   6.144   9.970   8.933  0.3020  1.5489  0.3855
  776MOL0     H 4742   6.323   9.437   8.652  0.2484 -0.4561 -2.7615
  776MOL0     H 4743   6.578   9.415   8.600 -2.4739  2.2305  1.1581
  776MOL0     H 4744   7.018   8.981   8.703 -0.4596  0.0076  1.8477
  776MOL0     H 4745   7.240   8.999   8.595 -1.6905 -0.7745 -1.6970
  776MOL0     H 4746   7.706   8.535   7.049  0.3376  1.5859  0.7869
  776MOL0     H 4747   7.610   8.297   7.067  0.4215  0.7937 -0.3622
  776MOL0     H 4748   7.116   8.075   7.249 -0.0509  1.2645  1.0115
  776MOL0     H 4749   7.019   7.879   7.344  0.0838 -2.1210  0.0933
  776MOL0     H 4750   6.961   7.752   7.522  0.6920  0.9488 -1.1169
  776MOL0     H 4751   6.973   7.664   7.378  2.1938  1.7135 -1.5960
  776MOL0     H 4752   6.995   7.443   7.516 -0.6123 -0.1610 -0.8912
  776MOL0     H 4753   6.853   7.522   7.560  0.7606 -0.8195 -0.9965
  776MOL0     H 4754   6.955   7.645   7.745  0.0173 -0.6045 -0.3624
  776MOL0     H 4755   7.114   7.561   7.708  1.0290 -2.7330  0.5452
  776MOL0     H 4756   7.003   7.473   7.901  0.7917 -1.3963 -0.2277
  776MOL0     H 4757   7.017   7.342   7.777 -0.0447  0.5003 -1.7896
  776MOL0     H 4758   6.589   7.415   7.802  0.2667  1.0724 -0.5866
  776MOL0     H 4759   7.394   7.762   7.500 -0.2159  1.9383  1.5456
  776MOL0     H 4760   7.502   7.958   7.414  0.3148 -2.5987  1.6578
  777MOL0     O 4761   7.689   3.484   2.389 -0.0936 -0.9431 -0.1070
  777MOL0     C 4762   7.712   3.604   2.381  0.6931 -0.6633  0.5559
  777MOL0     O 4763   7.803   3.663   2.308 -0.4049  0.7834  0.7620
  777MOL0     C 4764   7.901   3.574   2.265  0.1940 -0.3559 -0.4169
  777MOL0     C 4765   7.872   3.499   2.148 -0.0533  1.1673 -0.0836
  777MOL0     C 4766   7.956   3.388   2.104 -0.7389  0.3765 -0.8197
  777MOL0     C 4767   8.070   3.353   2.181  1.4577 -0.7146  0.1015
  777MOL0     O 4768   8.156   3.256   2.126  0.5328  0.0723 -0.2179
  777MOL0     C 4769   8.290   3.244   2.171  0.1607 -0.4772 -0.0782
  777MOL0     C 4770   8.346   3.135   2.087 -0.2265 -0.7567  0.6821
  777MOL0     C 4771   8.491   3.095   2.118  0.4312 -0.7576 -1.0161
  777MOL0     C 4772   8.563   2.990   2.035  0.2473 -0.2045  0.4014
  777MOL0     C 4773   8.473   2.879   1.981 -0.3629 -0.6049  0.4238
  777MOL0     C 4774   8.553   2.775   1.909  0.2012  0.8085  0.7941
  777MOL0     C 4775   8.614   2.666   2.001 -0.3977 -0.7098  1.3992
  777MOL0     C 4776   8.536   2.545   2.021  0.2406 -0.4289 -0.1209
  777MOL0     N 4777   8.520   2.476   1.894  0.3627  0.6150  0.7563
  777MOL0     C 4778   8.595   2.362   1.859  0.2690  0.2245 -0.2044
  777MOL0     C 4779   8.533   2.333   1.741  0.4993  0.1458 -0.4143
  777MOL0     C 4780   8.568   2.224   1.642 -0.9140 -0.4028  0.0261
  777MOL0     C 4781   8.624   2.265   1.505 -1.1089  0.1599 -0.1140
  777MOL0     C 4782   8.539   2.341   1.407 -1.0496  0.5230  0.8343
  777MOL0     C 4783   8.445   2.268   1.314  0.2135  0.2601 -0.2823
  777MOL0     O 4784   8.523   2.184   1.225 -0.1998  0.3290 -0.7248
  777MOL0     C 4785   8.462   2.091   1.150  0.2548 -0.2828  0.1863
  777MOL0     C 4786   8.315   2.071   1.147 -0.3096 -0.0984  0.1482
  777MOL0     C 4787   8.260   1.979   1.057  0.1003  0.3015  0.4115
  777MOL0     C 4788   8.112   1.967   1.053  0.1496  0.3867 -0.2880
  777MOL0     C 4789   8.336   1.894   0.973  0.1960 -0.3879 -0.5081
  777MOL0     C 4790   8.277   1.788   0.877 -0.9139 -0.2091 -0.1541
  777MOL0     O 4791   8.378   1.700   0.825  0.9431  0.5663 -0.0133
  777MOL0     C 4792   8.330   1.567   0.809  0.0604 -0.2593  0.1195
  777MOL0     C 4793   8.228   1.530   0.716 -0.1145  0.5876 -0.7240
  777MOL0     C 4794   8.210   1.401   0.689 -0.8313  0.2113 -0.1322
  777MOL0     C 4795   8.270   1.298   0.762 -0.6891  0.4834  0.4565
  777MOL0     O 4796   8.233   1.164   0.742  0.8616 -0.0114 -0.0610
  777MOL0     C 4797   8.104   1.147   0.677  0.6916  0.6255  0.6081
  777MOL0     C 4798   8.067   1.006   0.687  0.3538  0.2577  0.4040
  777MOL0     C 4799   7.973   0.960   0.570 -0.2109  0.0509  0.8691
  777MOL0     C 4800   7.928   0.815   0.588 -0.1872  0.0569 -0.4852
  777MOL0     C 4801   7.865   0.754   0.461  0.7600  0.4707  0.2029
  777MOL0     C 4802   7.793   0.622   0.499  0.5548 -0.2463  0.1593
  777MOL0     C 4803   7.744   0.551   0.370 -0.3668  1.5359  0.0897
  777MOL0     C 4804   7.712   0.398   0.413 -0.1492 -0.0212  0.1629
  777MOL0    Cl 4805   7.619   0.325   0.281  0.3840  0.1960  0.2364
  777MOL0     C 4806   8.373   1.329   0.864  0.5768 -0.5070  0.9774
  777MOL0     C 4807   8.395   1.469   0.889 -0.8264  0.1428 -0.2030
  777MOL0     O 4808   8.158   1.782   0.851  0.3553 -0.3218 -0.1880
  777MOL0     C 4809   8.472   1.898   0.989 -0.4332  0.5982 -1.4582
  777MOL0     C 4810   8.533   2.006   1.063 -0.2731 -0.6611 -0.0590
  777MOL0     N 4811   8.430   2.419   1.706 -0.2969  0.3224  0.9200
  777MOL0     N 4812   8.428   2.508   1.802  0.1062  0.5840  0.8345
  777MOL0     C 4813   8.097   3.434   2.294  0.9574 -0.8590  0.3442
  777MOL0     C 4814   8.012   3.539   2.334 -0.4225 -0.5907  0.0433
  777MOL0     C 4815   7.623   3.705   2.450 -0.0126  0.5635 -0.2525
  777MOL0     C 4816   7.666   3.839   2.467  0.1028 -0.9137  0.9654
  777MOL0     C 4817   7.574   3.929   2.535 -0.4056 -0.0458  0.2076
  777MOL0     C 4818   7.444   3.896   2.567 -0.3600  0.4581  0.5911
  777MOL0     O 4819   7.373   3.997   2.622 -0.4693 -0.3828 -0.1511
  777MOL0     C 4820   7.268   3.954   2.710  0.6724  1.0263 -0.0119
  777MOL0     C 4821   7.313   3.873   2.830 -0.8847  1.1947 -0.4271
  777MOL0     C 4822   7.441   3.914   2.898 -0.0344 -0.0545  0.1489
  777MOL0     C 4823   7.427   4.022   3.004 -0.1757 -0.7669  0.2334
  777MOL0     C 4824   7.374   3.972   3.132  0.5144 -0.1276  0.7108
  777MOL0     C 4825   7.307   3.928   3.223 -0.3691  0.3100 -0.2369
  777MOL0     C 4826   7.405   3.768   2.535  0.4675  0.3027  0.4658
  777MOL0     C 4827   7.492   3.670   2.478  0.1128 -0.9048 -0.4081
  777MOL0     H 4828   7.781   3.518   2.093 -1.5080  1.5592  2.3300
  777MOL0     H 4829   7.942   3.320   2.020  1.7831 -2.0646  0.5475
  777MOL0     H 4830   8.346   3.336   2.156  2.1374 -1.6773 -0.4612
  777MOL0     H 4831   8.299   3.221   2.277 -2.2729  0.5276  0.4199
  777MOL0     H 4832   8.286   3.044   2.096  0.0029 -0.8794  0.9801
  777MOL0     H 4833   8.342   3.167   1.982  0.8807 -0.9454  0.5738
  777MOL0     H 4834   8.547   3.189   2.125  0.2200 -0.7690  3.1867
  777MOL0     H 4835   8.482   3.047   2.216 -1.6025 -0.2229 -0.9040
  777MOL0     H 4836   8.610   3.036   1.948  3.0321  0.3663  2.1063
  777MOL0     H 4837   8.645   2.938   2.086  2.7723 -1.0079 -3.9613
  777MOL0     H 4838   8.412   2.834   2.059  2.1720 -1.8502  1.8367
  777MOL0     H 4839   8.400   2.925   1.913 -0.4973  0.2575  1.1421
  777MOL0     H 4840   8.498   2.726   1.827  0.1039  1.4388  0.4818
  777MOL0     H 4841   8.632   2.829   1.857  0.9239  1.1605  2.2344
  777MOL0     H 4842   8.706   2.633   1.951  1.5838  0.2008  4.2291
  777MOL0     H 4843   8.638   2.718   2.094 -4.2193  2.6809  0.7830
  777MOL0     H 4844   8.431   2.559   2.048  0.7209  0.1596  1.5080
  777MOL0     H 4845   8.584   2.481   2.095 -0.0869  0.0585  0.5172
  777MOL0     H 4846   8.669   2.317   1.924 -1.6772 -0.7807  1.4541
  777MOL0     H 4847   8.635   2.164   1.704 -0.5964  0.8365  0.9202
  777MOL0     H 4848   8.477   2.164   1.629  0.7843 -3.8985  2.4744
  777MOL0     H 4849   8.667   2.177   1.456  4.7814  1.9954  0.9660
  777MOL0     H 4850   8.712   2.322   1.533 -2.3944  2.1083  0.1603
  777MOL0     H 4851   8.615   2.379   1.339 -0.4448  0.2051  1.3315
  777MOL0     H 4852   8.482   2.424   1.451 -1.4057  1.0326 -0.5515
  777MOL0     H 4853   8.391   2.342   1.255  2.5304  1.6468 -0.7643
  777MOL0     H 4854   8.375   2.205   1.370  0.1098 -1.3365 -2.0862
  777MOL0     H 4855   8.244   2.118   1.213  1.9612  1.4178  1.6712
  777MOL0     H 4856   8.055   2.026   1.126 -1.6431 -0.6703 -0.7742
  777MOL0     H 4857   8.079   2.001   0.954  0.5871 -1.5644 -1.1479
  777MOL0     H 4858   8.081   1.864   1.071  1.8630  0.0344  0.9683
  777MOL0     H 4859   8.174   1.605   0.659 -0.5253  1.3702  0.6654
  777MOL0     H 4860   8.140   1.372   0.611 -0.2959 -1.6090  0.0311
  777MOL0     H 4861   8.018   1.206   0.711  0.2523  0.6856 -0.5836
  777MOL0     H 4862   8.118   1.168   0.571 -0.1149 -3.6049 -0.5085
  777MOL0     H 4863   8.150   0.936   0.696  1.8605  1.6834 -1.5671
  777MOL0     H 4864   8.005   0.992   0.776  0.9933  3.1333  1.4047
  777MOL0     H 4865   8.028   0.956   0.475 -0.3263 -1.3081  0.8459
  777MOL0     H 4866   7.893   1.031   0.546 -0.1777 -1.0476 -3.2552
  777MOL0     H 4867   8.013   0.753   0.619 -1.7056 -1.2654  1.2693
  777MOL0     H 4868   7.853   0.814   0.668 -0.0954 -0.1774 -0.4016
  777MOL0     H 4869   7.942   0.741   0.384  1.2471  1.2589  0.5466
  777MOL0     H 4870   7.794   0.826   0.421 -1.0558 -0.9469  0.7060
  777MOL0     H 4871   7.858   0.553   0.554 -0.4966 -0.6597  0.9202
  777MOL0     H 4872   7.708   0.650   0.563 -0.5783 -1.5838 -0.6830
  777MOL0     H 4873   7.829   0.544   0.301  0.2923 -1.3451  1.0381
  777MOL0     H 4874   7.668   0.600   0.308  1.0308  1.7966 -1.4904
  777MOL0     H 4875   7.640   0.395   0.495 -1.6580  1.5238 -1.0164
  777MOL0     H 4876   7.802   0.339   0.429  0.2381  0.9118  1.5814
  777MOL0     H 4877   8.433   1.261   0.923 -0.0049 -1.0346  0.9717
  777MOL0     H 4878   8.470   1.506   0.957 -1.1582  1.2460 -0.4041
  777MOL0     H 4879   8.540   1.829   0.940 -0.2098  0.5196 -1.0418
  777MOL0     H 4880   8.640   2.021   1.073 -0.2094 -1.6234  0.8443
  777MOL0     H 4881   8.192   3.427   2.346  0.6632  0.5628  1.1345
  777MOL0     H 4882   8.023   3.604   2.420  0.4134 -1.3004  0.4802
  777MOL0     H 4883   7.769   3.867   2.450 -0.6278  0.7813 -1.1704
  777MOL0     H 4884   7.614   4.025   2.562  1.2236 -0.4117 -0.7855
  777MOL0     H 4885   7.224   4.047   2.746  0.1206  1.2817 -1.2989
  777MOL0     H 4886   7.186   3.909   2.653  0.5678  0.3881  0.6259
  777MOL0     H 4887   7.313   3.768   2.800  0.5463  1.3258 -0.9323
  777MOL0     H 4888   7.230   3.901   2.896 -0.2215  2.4470 -0.0926
  777MOL0     H 4889   7.506   3.958   2.822 -0.2216 -1.8444 -1.1306
  777MOL0     H 4890   7.492   3.826   2.937 -0.1321  0.4685  1.4968
  777MOL0     H 4891   7.359   4.097   2.961  1.5336 -0.4133 -2.0389
  777MOL0     H 4892   7.522   4.068   3.031 -0.2230 -1.2505  1.2764
  777MOL0     H 4893   7.246   3.887   3.301 -1.9387 -0.6727 -1.9083
  777MOL0     H 4894   7.304   3.736   2.559  0.5766 -1.0038 -0.6441
  777MOL0     H 4895   7.454   3.569   2.462 -0.9772 -0.9310  1.8919
  778MOL0     O 4896   3.872   8.721   6.522  0.7005 -1.0903  0.6436
  778MOL0     C 4897   3.847   8.718   6.403  0.3199 -0.3117 -0.1854
  778MOL0     O 4898   3.915   8.634   6.320 -0.7268 -0.0654  0.8190
  778MOL0     C 4899   4.021   8.564   6.374  0.1252 -0.3604  0.1174
  778MOL0     C 4900   4.135   8.619   6.444  1.2763  0.7843 -0.3405
  778MOL0     C 4901   4.225   8.526   6.494 -0.3334 -0.3015  0.5616
  778MOL0     C 4902   4.207   8.384   6.482  0.1929  0.7992 -0.8182
  778MOL0     O 4903   4.288   8.277   6.530  0.2756 -0.4668 -0.1278
  778MOL0     C 4904   4.422   8.302   6.588  0.1516 -0.3341  0.0406
  778MOL0     C 4905   4.525   8.351   6.496 -0.3499  0.1232  0.1922
  778MOL0     C 4906   4.584   8.247   6.389  0.0513 -0.2137 -0.0794
  778MOL0     C 4907   4.497   8.244   6.258 -0.5420 -0.4416  0.0310
  778MOL0     C 4908   4.573   8.174   6.140 -1.0237 -0.5908 -0.7241
  778MOL0     C 4909   4.703   8.246   6.093  0.5610  0.0842 -0.0271
  778MOL0     C 4910   4.674   8.371   6.026  0.1817  0.6085 -0.0504
  778MOL0     C 4911   4.689   8.497   6.115  0.4600 -0.3402  0.0282
  778MOL0     N 4912   4.690   8.620   6.036  0.0498 -0.7313  0.5618
  778MOL0     C 4913   4.785   8.677   5.956 -0.8598 -0.5818 -0.5278
  778MOL0     C 4914   4.724   8.784   5.896  0.2303 -1.0284  0.9817
  778MOL0     C 4915   4.810   8.872   5.800  0.1570  0.2563 -0.3719
  778MOL0     C 4916   4.835   9.011   5.845  0.6710  0.1318 -0.4380
  778MOL0     C 4917   4.704   9.105   5.848 -0.1950  0.3123  0.4188
  778MOL0     C 4918   4.677   9.182   5.718  0.0786 -2.0671 -0.5095
  778MOL0     O 4919   4.618   9.307   5.736  1.0299 -0.5326 -0.3909
  778MOL0     C 4920   4.599   9.388   5.628 -0.1572  0.0652 -0.4204
  778MOL0     C 4921   4.596   9.361   5.497  0.3551 -0.3143  0.1797
  778MOL0     C 4922   4.591   9.457   5.405 -0.5444  0.1591 -0.5304
  778MOL0     C 4923   4.593   9.397   5.262  0.0877  0.4663  0.6778
  778MOL0     C 4924   4.584   9.595   5.438  0.4582 -0.0219 -1.0157
  778MOL0     C 4925   4.590   9.716   5.354 -0.4751  1.2887  0.5215
  778MOL0     O 4926   4.534   9.837   5.384  0.2126  0.2234 -0.2143
  778MOL0     C 4927   4.573   9.938   5.305 -0.3485 -0.2772  0.0255
  778MOL0     C 4928   4.496   9.969   5.199  0.4902 -0.2534 -0.2796
  778MOL0     C 4929   4.523  10.085   5.124  0.1254 -0.4640  0.6314
  778MOL0     C 4930   4.633  10.161   5.150  0.2718 -1.2157  0.0458
  778MOL0     O 4931   4.683  10.261   5.078 -0.3710  0.3257 -0.2948
  778MOL0     C 4932   4.593  10.334   4.992 -0.4355  1.0152 -0.1744
  778MOL0     C 4933   4.677  10.434   4.918  0.2020  0.0295  0.7454
  778MOL0     C 4934   4.784  10.369   4.825 -0.5057  0.0922  0.4970
  778MOL0     C 4935   4.883  10.468   4.756  0.8981 -0.8031  0.9345
  778MOL0     C 4936   4.981  10.410   4.656 -0.7624 -0.0439  0.4638
  778MOL0     C 4937   5.058  10.528   4.585  0.8454 -0.1348  1.1786
  778MOL0     C 4938   5.179  10.584   4.662 -0.0677  0.3771  0.6519
  778MOL0     C 4939   5.161  10.730   4.647  0.1788 -1.4298 -0.4496
  778MOL0    Cl 4940   5.192  10.768   4.481  0.5718  0.3487 -0.2871
  778MOL0     C 4941   4.707  10.133   5.277  0.3557  0.7889  1.0652
  778MOL0     C 4942   4.674  10.025   5.349  0.0670 -0.2627  0.4684
  778MOL0     O 4943   4.646   9.686   5.241 -0.1139 -0.2284 -0.3419
  778MOL0     C 4944   4.570   9.624   5.574  0.1952 -0.3303 -0.0564
  778MOL0     C 4945   4.580   9.521   5.659 -0.0596  0.1807  0.5197
  778MOL0     N 4946   4.592   8.786   5.928 -0.0967 -0.6179  1.2382
  778MOL0     N 4947   4.576   8.695   6.021  0.0694  0.0714 -0.2780
  778MOL0     C 4948   4.089   8.333   6.422  0.0351 -0.8116  0.8606
  778MOL0     C 4949   4.005   8.426   6.355 -0.8627 -0.0834 -0.4269
  778MOL0     C 4950   3.735   8.788   6.344  0.9368 -0.4106  0.8964
  778MOL0     C 4951   3.691   8.747   6.219  0.3707 -0.4106  0.3810
  778MOL0     C 4952   3.566   8.812   6.179 -0.2146 -1.3376 -0.7188
  778MOL0     C 4953   3.490   8.898   6.253  0.4122 -0.1931 -0.3490
  778MOL0     O 4954   3.381   8.973   6.221  0.7974 -0.5738  0.2319
  778MOL0     C 4955   3.321   8.960   6.086  0.1536 -0.7371 -0.5579
  778MOL0     C 4956   3.181   9.019   6.102  0.2908 -0.6451 -0.5640
  778MOL0     C 4957   3.116   8.990   6.243  0.4986  0.8720 -0.3161
  778MOL0     C 4958   2.966   9.016   6.264  0.4722 -0.2592  0.2739
  778MOL0     C 4959   2.929   9.147   6.218 -0.3095  0.2659  0.6057
  778MOL0     C 4960   2.917   9.266   6.172 -0.3050  1.2101 -0.7327
  778MOL0     C 4961   3.544   8.924   6.378  0.0160 -0.4941  0.0085
  778MOL0     C 4962   3.661   8.877   6.429  0.2661  0.3556  0.8335
  778MOL0     H 4963   4.152   8.720   6.479  2.3325 -0.4337  3.0997
  778MOL0     H 4964   4.303   8.569   6.556 -0.9235  0.6962  0.6212
  778MOL0     H 4965   4.414   8.376   6.669  0.8601  3.5498 -3.1322
  778MOL0     H 4966   4.461   8.210   6.631  0.4235 -0.6520 -0.8599
  778MOL0     H 4967   4.492   8.440   6.443  2.5695  0.6962 -0.8813
  778MOL0     H 4968   4.609   8.386   6.557 -0.8611  0.9257  0.4504
  778MOL0     H 4969   4.687   8.269   6.357  0.5003 -2.4184 -0.2824
  778MOL0     H 4970   4.589   8.153   6.445  1.3561  0.0283  0.2595
  778MOL0     H 4971   4.412   8.180   6.280 -1.8085 -0.3149 -3.7239
  778MOL0     H 4972   4.454   8.342   6.239 -1.4122 -0.5722  1.2670
  778MOL0     H 4973   4.596   8.073   6.176 -1.8807 -0.2006  1.0438
  778MOL0     H 4974   4.501   8.140   6.065 -1.8341 -1.1165  0.2609
  778MOL0     H 4975   4.772   8.265   6.176 -1.9227  2.8589  1.6107
  778MOL0     H 4976   4.762   8.202   6.013  3.9200  3.0219  0.6285
  778MOL0     H 4977   4.752   8.397   5.954  1.3320  0.5734  1.1539
  778MOL0     H 4978   4.573   8.374   5.983 -0.9809  0.3710  2.4892
  778MOL0     H 4979   4.782   8.499   6.172 -0.7402 -1.8465  2.1513
  778MOL0     H 4980   4.606   8.496   6.185  2.6045  0.4566  2.7563
  778MOL0     H 4981   4.892   8.657   5.953 -0.9625 -0.9567 -2.3727
  778MOL0     H 4982   4.909   8.829   5.782  0.9500  0.7178  2.4392
  778MOL0     H 4983   4.755   8.863   5.706 -0.2105 -0.5279 -0.0970
  778MOL0     H 4984   4.914   9.055   5.784  2.9247  2.5971  3.7805
  778MOL0     H 4985   4.881   9.012   5.944  0.4810  0.2470 -0.3493
  778MOL0     H 4986   4.704   9.189   5.919  0.8765  0.6455  0.0341
  778MOL0     H 4987   4.615   9.048   5.878 -0.6557  0.8652  0.1412
  778MOL0     H 4988   4.622   9.112   5.654 -0.7771 -1.4891 -0.4201
  778MOL0     H 4989   4.772   9.201   5.668 -1.2093 -3.1603 -3.6158
  778MOL0     H 4990   4.613   9.255   5.480 -2.7970 -0.6657 -1.4060
  778MOL0     H 4991   4.524   9.451   5.197 -1.3744 -1.2434  0.7422
  778MOL0     H 4992   4.696   9.400   5.224 -0.6601  4.1404 -1.6173
  778MOL0     H 4993   4.552   9.296   5.265  3.4292 -1.0564 -0.1949
  778MOL0     H 4994   4.423   9.896   5.166  0.3291  0.5485 -1.7939
  778MOL0     H 4995   4.454  10.108   5.044  1.6126 -0.4352 -0.6866
  778MOL0     H 4996   4.549  10.266   4.917  0.2845 -0.8036  0.9853
  778MOL0     H 4997   4.511  10.375   5.051 -2.2112 -1.5573 -0.6881
  778MOL0     H 4998   4.611  10.493   4.853 -1.6475 -1.6695  0.9804
  778MOL0     H 4999   4.727  10.498   4.991 -0.0005 -1.0590  1.8586
  778MOL0     H 5000   4.725  10.322   4.746 -1.1788 -1.6141  1.9434
  778MOL0     H 5001   4.849  10.292   4.867  0.3985  0.2219 -0.6022
  778MOL0     H 5002   4.820  10.536   4.699  0.6654 -1.4462  0.4114
  778MOL0     H 5003   4.938  10.527   4.830  0.5283  0.6218  0.0904
  778MOL0     H 5004   4.931  10.342   4.587 -1.8380  1.2770 -0.1071
  778MOL0     H 5005   5.053  10.347   4.709 -1.0018 -1.6271 -1.0212
  778MOL0     H 5006   5.106  10.487   4.495 -0.0171 -0.6618  0.9527
  778MOL0     H 5007   4.992  10.605   4.544  0.4064 -1.4066 -0.6149
  778MOL0     H 5008   5.275  10.544   4.626 -0.0950  0.4528  0.4926
  778MOL0     H 5009   5.180  10.546   4.764  1.7835 -2.3552 -0.2568
  778MOL0     H 5010   5.234  10.787   4.706 -1.0931  2.1037 -1.9691
  778MOL0     H 5011   5.061  10.764   4.675  1.2289  0.5094  1.2946
  778MOL0     H 5012   4.792  10.198   5.297 -0.0540  2.8220 -2.6992
  778MOL0     H 5013   4.724   9.993   5.440  0.0102 -2.3489 -0.1752
  778MOL0     H 5014   4.559   9.715   5.631  1.8754 -3.7498  6.9164
  778MOL0     H 5015   4.606   9.536   5.764  0.2604 -0.2085  0.4964
  778MOL0     H 5016   4.072   8.226   6.424 -1.6076 -0.5542  2.5237
  778MOL0     H 5017   3.929   8.388   6.288  1.9533 -4.0586 -1.8125
  778MOL0     H 5018   3.748   8.698   6.141  0.9009 -1.7234  1.5554
  778MOL0     H 5019   3.536   8.779   6.079 -0.3121 -3.1567 -0.1151
  778MOL0     H 5020   3.392   9.016   6.025  0.0319  1.6984  1.3456
  778MOL0     H 5021   3.311   8.857   6.052 -3.9515 -0.9012  0.5704
  778MOL0     H 5022   3.121   8.984   6.017  0.9007 -1.0330 -0.8382
  778MOL0     H 5023   3.183   9.127   6.084 -2.7344 -0.9389 -4.0299
  778MOL0     H 5024   3.169   9.053   6.315  0.8940  0.1172  0.0638
  778MOL0     H 5025   3.138   8.885   6.266  1.2076  1.0471 -0.1642
  778MOL0     H 5026   2.938   9.011   6.370 -0.6173  0.3026  0.0314
  778MOL0     H 5027   2.902   8.946   6.209 -0.8570 -0.4861  2.0259
  778MOL0     H 5028   2.895   9.365   6.137 -1.5300  0.5743 -1.8571
  778MOL0     H 5029   3.489   9.001   6.430  2.0054  0.3605  0.9801
  778MOL0     H 5030   3.690   8.906   6.529 -1.6558  1.3576  1.1377
  779MOL0     O 5031  10.739  10.911   9.818 -0.5133 -0.4452  0.5899
  779MOL0     C 5032  10.707  10.974   9.918 -0.0767  0.0527 -0.1196
  779MOL0     O 5033  10.715  10.932  10.044 -0.0584  0.1451 -0.4149
  779MOL0     C 5034  10.746  10.805  10.071  0.3518  0.1163  0.1649
  779MOL0     C 5035  10.659  10.697  10.030 -0.0310  0.0907 -0.6655
  779MOL0     C 5036  10.704  10.562  10.047  0.2013 -0.2164  1.1075
  779MOL0     C 5037  10.823  10.536  10.109  0.0394 -0.0119  0.6687
  779MOL0     O 5038  10.874  10.412  10.132 -0.1334  0.8156 -0.1388
  779MOL0     C 5039  10.852  10.324  10.025 -0.9591 -0.0505  0.7805
  779MOL0     C 5040  10.918  10.386   9.896 -0.3032  1.4020  0.0141
  779MOL0     C 5041  10.938  10.266   9.799  0.4889 -0.3456  0.3025
  779MOL0     C 5042  11.027  10.308   9.684  0.9462 -0.3335 -0.0353
  779MOL0     C 5043  11.061  10.187   9.589  0.5792 -0.0586 -1.0369
  779MOL0     C 5044  11.151  10.082   9.652 -1.1380 -0.2424 -0.2346
  779MOL0     C 5045  11.195   9.979   9.551 -0.8154 -0.1535 -0.7872
  779MOL0     C 5046  11.075   9.881   9.520 -0.5532 -0.0589  0.4947
  779MOL0     N 5047  11.074   9.755   9.602  0.8466  0.0282  0.2233
  779MOL0     C 5048  11.118   9.738   9.734 -0.3388  0.2683  0.0510
  779MOL0     C 5049  11.111   9.601   9.759  0.3100  0.7132  0.3407
  779MOL0     C 5050  11.140   9.529   9.891  0.2645 -0.3765 -1.0725
  779MOL0     C 5051  11.277   9.471   9.906 -0.4115 -0.0165  0.4800
  779MOL0     C 5052  11.297   9.322   9.866 -0.8440  0.3704  0.5317
  779MOL0     C 5053  11.225   9.234   9.969 -0.2040 -0.0716  0.2735
  779MOL0     O 5054  11.259   9.262  10.104  0.5049  0.3294 -0.4146
  779MOL0     C 5055  11.384   9.229  10.155 -0.2072 -0.2057 -0.3103
  779MOL0     C 5056  11.432   9.290  10.277 -0.4541  1.4167 -0.2563
  779MOL0     C 5057  11.550   9.250  10.340 -0.8200 -0.2331  0.8922
  779MOL0     C 5058  11.567   9.309  10.475 -0.2914  0.1098 -0.1559
  779MOL0     C 5059  11.638   9.152  10.278  0.2891 -0.0558  0.0102
  779MOL0     C 5060  11.777   9.116  10.328 -0.0734 -0.1610  0.0259
  779MOL0     O 5061  11.860   9.060  10.237  0.2295 -0.6100  0.2553
  779MOL0     C 5062  11.981   9.007  10.260 -0.3523 -0.5350 -0.3861
  779MOL0     C 5063  12.079   9.031  10.167  0.5146  0.9015  0.5879
  779MOL0     C 5064  12.206   8.986  10.179 -0.0349 -0.1125  0.2826
  779MOL0     C 5065  12.236   8.913  10.300  0.6193 -0.1732 -0.1951
  779MOL0     O 5066  12.368   8.877  10.308 -0.7544  0.3978 -0.2245
  779MOL0     C 5067  12.431   8.833  10.430 -0.5304  0.1513  0.3303
  779MOL0     C 5068  12.571   8.785  10.388  0.1918  0.1591 -0.5477
  779MOL0     C 5069  12.552   8.661  10.303  0.1999  1.1788 -0.7786
  779MOL0     C 5070  12.685   8.573  10.312  1.0749 -0.3382 -0.3347
  779MOL0     C 5071  12.661   8.448  10.211  0.7147 -1.1264 -0.7755
  779MOL0     C 5072  12.758   8.343  10.258 -0.2738 -0.0551  0.0531
  779MOL0     C 5073  12.744   8.206  10.202 -0.2676  0.2665 -0.7034
  779MOL0     C 5074  12.758   8.190  10.052  0.4117 -0.3244 -0.3992
  779MOL0    Cl 5075  12.627   8.280   9.981  0.4262 -0.5724 -0.3395
  779MOL0     C 5076  12.139   8.893  10.398  0.7715  0.5515 -0.0934
  779MOL0     C 5077  12.012   8.943  10.387 -0.4324  0.6577  0.8928
  779MOL0     O 5078  11.803   9.119  10.448  0.5271  0.3471 -0.5482
  779MOL0     C 5079  11.597   9.107  10.153  0.0405  0.4433  0.6326
  779MOL0     C 5080  11.477   9.144  10.097 -0.2392  0.5336 -0.8893
  779MOL0     N 5081  11.065   9.537   9.647 -0.4319  0.4525 -0.8020
  779MOL0     N 5082  11.051   9.627   9.549  0.8161  0.0746 -0.1047
  779MOL0     C 5083  10.910  10.653  10.134 -0.3114  0.1303  0.6060
  779MOL0     C 5084  10.870  10.784  10.125  0.6182 -0.7742  0.0119
  779MOL0     C 5085  10.653  11.119   9.885  0.4578 -0.3137  0.3999
  779MOL0     C 5086  10.562  11.175   9.976 -0.0862  0.2350  0.1036
  779MOL0     C 5087  10.510  11.308   9.958  0.2955 -0.4067 -0.4886
  779MOL0     C 5088  10.539  11.382   9.841 -0.7560 -0.0068 -0.4147
  779MOL0     O 5089  10.478  11.501   9.816 -0.4282 -0.1221  0.0352
  779MOL0     C 5090  10.470  11.547   9.679  0.0187 -0.9729 -0.0941
  779MOL0     C 5091  10.365  11.652   9.673  0.7514 -0.1369 -1.3733
  779MOL0     C 5092  10.232  11.621   9.755  0.1330  0.2764  0.9555
  779MOL0     C 5093  10.143  11.498   9.711 -0.2522 -1.0109  0.8546
  779MOL0     C 5094  10.115  11.506   9.564  0.1705 -0.2810 -0.8114
  779MOL0     C 5095  10.088  11.516   9.452  1.0074 -0.3579  1.2759
  779MOL0     C 5096  10.640  11.331   9.753  0.4793 -0.2295 -0.9746
  779MOL0     C 5097  10.688  11.195   9.769 -0.1547 -0.4418  0.3546
  779MOL0     H 5098  10.562  10.712   9.984 -0.3286  1.1570  0.2829
  779MOL0     H 5099  10.639  10.479  10.018 -0.1463  0.3556  0.2107
  779MOL0     H 5100  10.896  10.228  10.052 -2.0379 -0.3857  1.4035
  779MOL0     H 5101  10.747  10.304  10.001 -1.8454  2.1206  2.5253
  779MOL0     H 5102  10.847  10.451   9.844 -2.0796 -1.0902 -0.9034
  779MOL0     H 5103  11.008  10.438   9.927  1.0533  1.0294 -2.9052
  779MOL0     H 5104  10.999  10.201   9.863 -1.4115 -0.5271  2.0363
  779MOL0     H 5105  10.843  10.216   9.777 -1.0432  2.7884 -0.7473
  779MOL0     H 5106  10.974  10.384   9.625  1.5066 -0.1753 -0.3415
  779MOL0     H 5107  11.115  10.363   9.717  1.7184 -1.4689 -0.1273
  779MOL0     H 5108  10.967  10.140   9.560 -0.2046 -2.2011  4.0090
  779MOL0     H 5109  11.112  10.235   9.504  1.3881  3.5707  1.2769
  779MOL0     H 5110  11.241  10.134   9.686 -0.5554 -1.3892  0.0424
  779MOL0     H 5111  11.102  10.032   9.736 -0.7944  1.3587  0.9706
  779MOL0     H 5112  11.236  10.025   9.461 -1.8689 -0.4444 -1.4335
  779MOL0     H 5113  11.267   9.914   9.602  0.2531  3.5644  2.9859
  779MOL0     H 5114  11.112   9.845   9.425 -0.0154  1.2061  0.2013
  779MOL0     H 5115  10.977   9.930   9.511 -1.3040 -1.7765 -1.1530
  779MOL0     H 5116  11.168   9.811   9.797 -0.7468 -1.2463  2.2732
  779MOL0     H 5117  11.125   9.607   9.966  3.7561  0.1842 -0.7914
  779MOL0     H 5118  11.065   9.450   9.894 -0.3949  0.2543 -0.4950
  779MOL0     H 5119  11.300   9.495  10.010 -0.8921 -1.3396  0.9090
  779MOL0     H 5120  11.347   9.530   9.846  0.5179  0.2114  1.7349
  779MOL0     H 5121  11.406   9.309   9.869 -0.9016 -0.4427 -0.3919
  779MOL0     H 5122  11.261   9.295   9.766  0.4603  0.7091 -0.0475
  779MOL0     H 5123  11.231   9.126   9.952 -0.3874 -0.1036  0.4146
  779MOL0     H 5124  11.121   9.263   9.956  0.2632  1.4985 -0.0789
  779MOL0     H 5125  11.360   9.354  10.328 -1.2449  0.6005 -0.3247
  779MOL0     H 5126  11.559   9.231  10.551 -1.5501 -0.4456 -0.8210
  779MOL0     H 5127  11.665   9.356  10.491 -0.7808  1.1938 -0.3087
  779MOL0     H 5128  11.486   9.374  10.508 -1.2227 -0.3933 -1.3487
  779MOL0     H 5129  12.068   9.089  10.076  0.4278  1.1922  0.7826
  779MOL0     H 5130  12.278   8.998  10.099 -0.1295  3.1390  0.5874
  779MOL0     H 5131  12.444   8.920  10.495  3.2088  0.3721 -0.5387
  779MOL0     H 5132  12.380   8.751  10.481 -2.2527  0.8392 -0.1958
  779MOL0     H 5133  12.623   8.863  10.332  0.8027  0.5922  0.5856
  779MOL0     H 5134  12.622   8.764  10.482 -1.7606  0.8395  0.7260
  779MOL0     H 5135  12.550   8.692  10.198 -0.5386  0.5623 -0.9513
  779MOL0     H 5136  12.464   8.602  10.328 -0.0908  0.0627 -3.9744
  779MOL0     H 5137  12.763   8.640  10.274  2.1164 -1.5687 -0.4340
  779MOL0     H 5138  12.714   8.551  10.415  0.4942 -1.5477 -0.4110
  779MOL0     H 5139  12.682   8.478  10.108  2.5350 -1.8527 -0.6642
  779MOL0     H 5140  12.560   8.407  10.214 -0.2655  0.8178 -3.4077
  779MOL0     H 5141  12.861   8.379  10.257  0.3749 -1.5587  2.8114
  779MOL0     H 5142  12.753   8.321  10.365 -1.3949 -0.7670 -0.1265
  779MOL0     H 5143  12.642   8.173  10.227 -0.5706  0.3783 -1.7588
  779MOL0     H 5144  12.812   8.132  10.245  2.3246  0.2314 -4.4445
  779MOL0     H 5145  12.761   8.082  10.032 -1.0072 -0.5590  0.5408
  779MOL0     H 5146  12.858   8.221  10.019  1.6724 -1.2540  2.2862
  779MOL0     H 5147  12.152   8.834  10.488 -1.4558  2.4508  1.6073
  779MOL0     H 5148  11.935   8.914  10.458 -0.9072 -0.1562  0.0586
  779MOL0     H 5149  11.661   9.054  10.083 -0.6938  1.6784 -1.0374
  779MOL0     H 5150  11.455   9.101   9.999 -1.1090  0.3802 -0.6340
  779MOL0     H 5151  11.007  10.610  10.156 -0.5000 -0.7732 -0.2501
  779MOL0     H 5152  10.943  10.857  10.160 -2.0630  0.9040  2.5287
  779MOL0     H 5153  10.536  11.121  10.066  1.3484  1.0081  1.0217
  779MOL0     H 5154  10.439  11.352  10.027  3.8569  1.4728  2.3282
  779MOL0     H 5155  10.560  11.599   9.646 -1.1199  1.1474  0.0021
  779MOL0     H 5156  10.447  11.474   9.600  3.4939 -1.0070 -1.2251
  779MOL0     H 5157  10.350  11.679   9.568 -2.7897 -0.5846 -1.0898
  779MOL0     H 5158  10.422  11.731   9.723  0.6970  0.7525 -2.6623
  779MOL0     H 5159  10.163  11.705   9.761  0.7364  0.9508 -0.8491
  779MOL0     H 5160  10.267  11.602   9.857  1.6018  2.4844  0.9329
  779MOL0     H 5161  10.051  11.500   9.769 -1.0018  0.4592 -0.2965
  779MOL0     H 5162  10.197  11.404   9.724 -1.1906 -2.0251 -1.8754
  779MOL0     H 5163  10.058  11.526   9.350 -0.7369  0.3516  1.8240
  779MOL0     H 5164  10.661  11.389   9.664  2.8468  1.7711  0.7434
  779MOL0     H 5165  10.741  11.151   9.685  2.0646  2.2159  0.1784
  780MOL0     O 5166   8.006   3.862   4.557  0.1591 -0.5551  0.3522
  780MOL0     C 5167   8.068   3.959   4.605 -1.2071 -0.3857 -0.3075
  780MOL0     O 5168   8.151   4.045   4.533 -0.0103 -0.3504 -0.2527
  780MOL0     C 5169   8.173   4.032   4.399 -0.1757 -0.0119 -1.0358
  780MOL0     C 5170   8.214   3.912   4.338 -0.8884 -0.4831 -0.0986
  780MOL0     C 5171   8.242   3.904   4.201 -0.0802  0.0462 -0.4394
  780MOL0     C 5172   8.220   4.018   4.122 -0.5106 -0.4005  0.4547
  780MOL0     O 5173   8.260   4.023   3.992  0.5205 -0.2730 -0.7197
  780MOL0     C 5174   8.310   3.909   3.926 -0.1528  0.9947  0.4005
  780MOL0     C 5175   8.347   3.934   3.780 -0.2265 -0.1075 -0.3155
  780MOL0     C 5176   8.285   4.061   3.716 -0.3658  0.2192  0.2806
  780MOL0     C 5177   8.132   4.076   3.725  0.3201 -0.7706 -0.9016
  780MOL0     C 5178   8.078   4.207   3.655  0.1634  0.4107 -0.2472
  780MOL0     C 5179   8.120   4.221   3.502 -1.1856  0.4771 -0.1727
  780MOL0     C 5180   8.029   4.306   3.423  0.8243  0.3521  0.9945
  780MOL0     C 5181   8.076   4.321   3.284 -0.2510  0.5049  0.3234
  780MOL0     N 5182   7.979   4.391   3.203  0.2667 -0.5572  0.4105
  780MOL0     C 5183   7.905   4.498   3.254  0.1326 -0.6083  0.1816
  780MOL0     C 5184   7.824   4.512   3.146  0.5243 -0.8111  0.0288
  780MOL0     C 5185   7.710   4.603   3.121  1.2048 -0.0147  0.0797
  780MOL0     C 5186   7.601   4.587   3.228 -0.0787  0.5039  0.6872
  780MOL0     C 5187   7.593   4.712   3.319 -0.1325 -0.2970  0.8117
  780MOL0     C 5188   7.496   4.680   3.433 -0.3472  0.9501  0.4000
  780MOL0     O 5189   7.371   4.637   3.380  0.1099 -0.3801 -0.5079
  780MOL0     C 5190   7.254   4.681   3.451 -0.2200  0.4939  0.8662
  780MOL0     C 5191   7.144   4.692   3.376  0.6358 -0.7673 -0.1506
  780MOL0     C 5192   7.014   4.714   3.433 -0.5809 -0.4070  0.8205
  780MOL0     C 5193   6.908   4.744   3.325 -0.1244  0.2160 -0.4695
  780MOL0     C 5194   7.003   4.725   3.577  0.6478 -0.1262  1.2473
  780MOL0     C 5195   6.870   4.740   3.640 -0.5155  0.8634  0.4979
  780MOL0     O 5196   6.767   4.676   3.584 -0.5490  0.1504 -0.5274
  780MOL0     C 5197   6.625   4.679   3.621 -0.7771  0.2578 -0.1266
  780MOL0     C 5198   6.531   4.635   3.532 -0.2284 -0.1943 -0.3902
  780MOL0     C 5199   6.395   4.632   3.560  0.3941  0.0661  0.2953
  780MOL0     C 5200   6.355   4.673   3.688 -0.0770  0.0292  0.6239
  780MOL0     O 5201   6.218   4.660   3.710  0.2698 -0.3579  0.5083
  780MOL0     C 5202   6.149   4.690   3.834  0.1210 -0.0211 -0.1638
  780MOL0     C 5203   5.999   4.647   3.826  0.3528 -0.4686  0.6639
  780MOL0     C 5204   5.995   4.497   3.851  0.0956  0.0940  0.3037
  780MOL0     C 5205   5.851   4.443   3.813 -1.1340  0.0793 -0.2415
  780MOL0     C 5206   5.815   4.420   3.666 -0.3221 -0.6654 -0.2010
  780MOL0     C 5207   5.686   4.340   3.657 -0.0423  0.5368  0.5919
  780MOL0     C 5208   5.637   4.344   3.512 -0.0645 -0.2561 -0.1867
  780MOL0     C 5209   5.674   4.222   3.430 -0.1403  0.4243 -0.3461
  780MOL0    Cl 5210   5.598   4.083   3.493 -0.4665  0.2786  0.3126
  780MOL0     C 5211   6.445   4.726   3.776  0.0901 -0.7394  0.4115
  780MOL0     C 5212   6.574   4.731   3.741  0.1006  0.1025  0.0431
  780MOL0     O 5213   6.868   4.809   3.738  0.4134 -0.0551  1.1977
  780MOL0     C 5214   7.130   4.737   3.648  0.8119 -0.1743  0.1748
  780MOL0     C 5215   7.250   4.703   3.588 -0.3586 -0.2159  0.0185
  780MOL0     N 5216   7.873   4.449   3.031 -0.4454 -0.0950 -0.4159
  780MOL0     N 5217   7.956   4.363   3.071  0.0805  0.1244 -0.4841
  780MOL0     C 5218   8.187   4.141   4.179  0.6396  0.4909 -0.5356
  780MOL0     C 5219   8.150   4.146   4.319 -0.2991  0.0468 -0.5887
  780MOL0     C 5220   8.068   3.976   4.757 -0.9108 -0.2798  0.9159
  780MOL0     C 5221   8.008   3.878   4.837 -0.7080  0.0071 -0.3699
  780MOL0     C 5222   8.004   3.891   4.974 -0.2668  0.5156  0.7199
  780MOL0     C 5223   8.061   4.006   5.030 -0.0476 -0.2238 -0.5659
  780MOL0     O 5224   8.075   4.026   5.171 -0.5815 -0.5082 -0.3138
  780MOL0     C 5225   7.957   4.080   5.235 -0.5251 -0.5165  0.5511
  780MOL0     C 5226   7.879   3.968   5.304 -1.0421  0.5131 -0.1360
  780MOL0     C 5227   7.785   4.012   5.415  0.2334  0.0044  0.5594
  780MOL0     C 5228   7.853   4.021   5.551  0.9785  0.3066  0.0814
  780MOL0     C 5229   7.743   4.024   5.659  0.5124 -1.0198 -0.4446
  780MOL0     C 5230   7.654   4.016   5.735 -0.9138 -0.4237 -0.1828
  780MOL0     C 5231   8.147   4.084   4.952  0.2558  0.5394  0.4739
  780MOL0     C 5232   8.158   4.067   4.811  0.2788  0.3376  0.7572
  780MOL0     H 5233   8.232   3.817   4.388  3.7157 -0.6483 -1.6355
  780MOL0     H 5234   8.298   3.820   4.159 -0.1936 -0.7502  0.9580
  780MOL0     H 5235   8.409   3.883   3.965  0.5771 -1.5057 -2.7218
  780MOL0     H 5236   8.248   3.820   3.940  2.3013 -1.0980 -1.2482
  780MOL0     H 5237   8.456   3.934   3.776 -0.1099 -1.1915  1.6401
  780MOL0     H 5238   8.322   3.843   3.725  0.6861 -1.8917  2.0324
  780MOL0     H 5239   8.335   4.148   3.758  2.5674 -0.7391 -0.9888
  780MOL0     H 5240   8.303   4.059   3.608 -1.7985  1.9656 -0.0343
  780MOL0     H 5241   8.088   3.991   3.673  0.4919 -0.2261 -1.9709
  780MOL0     H 5242   8.097   4.084   3.829  1.2601 -0.1519 -0.6214
  780MOL0     H 5243   7.969   4.195   3.656  0.3843 -2.4718  1.2361
  780MOL0     H 5244   8.112   4.295   3.710  1.0841  0.6383 -1.1546
  780MOL0     H 5245   8.223   4.253   3.518  0.1283 -0.4861 -5.0052
  780MOL0     H 5246   8.127   4.123   3.453 -1.5371 -0.9500  2.4462
  780MOL0     H 5247   7.931   4.259   3.428  0.8653  0.0838 -0.3199
  780MOL0     H 5248   8.013   4.397   3.482 -1.3939 -1.0823  2.7253
  780MOL0     H 5249   8.079   4.222   3.237 -0.3432  0.4756  0.3789
  780MOL0     H 5250   8.173   4.370   3.292 -0.8536  1.9419 -0.7030
  780MOL0     H 5251   7.895   4.549   3.349 -1.0972  3.4635 -1.9089
  780MOL0     H 5252   7.745   4.706   3.117  1.0167  0.0162 -3.6302
  780MOL0     H 5253   7.671   4.571   3.024  1.0159  0.1460  0.1021
  780MOL0     H 5254   7.629   4.494   3.278  2.9333  0.9251 -0.0333
  780MOL0     H 5255   7.502   4.579   3.182 -0.1859  1.9236  0.6216
  780MOL0     H 5256   7.551   4.802   3.273  0.1996  0.0612  1.2020
  780MOL0     H 5257   7.693   4.736   3.357 -0.0331  0.8231 -0.0939
  780MOL0     H 5258   7.488   4.772   3.493 -2.0915  2.3577 -1.8337
  780MOL0     H 5259   7.535   4.596   3.491 -0.0321  0.9607  0.2070
  780MOL0     H 5260   7.156   4.673   3.270  1.2942  1.3614 -0.4913
  780MOL0     H 5261   6.802   4.742   3.352 -0.2587 -0.7106 -1.0392
  780MOL0     H 5262   6.925   4.845   3.286  0.0904  0.5533  0.4632
  780MOL0     H 5263   6.930   4.674   3.244  1.1463  1.6777 -1.4444
  780MOL0     H 5264   6.560   4.601   3.434  0.2941 -3.8280  0.8888
  780MOL0     H 5265   6.325   4.592   3.488 -0.5669  1.2869  0.5034
  780MOL0     H 5266   6.203   4.649   3.920  2.2421 -2.8729 -2.6382
  780MOL0     H 5267   6.148   4.799   3.835  1.4350  0.0141 -0.5084
  780MOL0     H 5268   5.944   4.700   3.905 -0.6594  0.5131 -0.6480
  780MOL0     H 5269   5.961   4.682   3.730  1.8639 -0.7127 -0.0440
  780MOL0     H 5270   6.024   4.477   3.955  4.2385 -2.5246 -1.0803
  780MOL0     H 5271   6.066   4.444   3.787 -1.7129 -3.0990  0.7096
  780MOL0     H 5272   5.819   4.351   3.863 -3.0579  0.2705 -0.9901
  780MOL0     H 5273   5.778   4.515   3.851  1.5296  2.5350  0.4971
  780MOL0     H 5274   5.905   4.368   3.632  1.1084  1.7181 -0.2651
  780MOL0     H 5275   5.807   4.524   3.634  0.0860  0.0876  1.9718
  780MOL0     H 5276   5.701   4.235   3.681 -1.0490  0.3978  0.6694
  780MOL0     H 5277   5.612   4.389   3.721  0.1784  1.8915 -0.1433
  780MOL0     H 5278   5.687   4.424   3.457  1.0116 -1.5281 -1.1153
  780MOL0     H 5279   5.531   4.368   3.520  0.1737  0.3823  1.5319
  780MOL0     H 5280   5.782   4.208   3.437 -0.1016  1.4837  2.0449
  780MOL0     H 5281   5.639   4.236   3.327  0.8104  1.8834 -0.4875
  780MOL0     H 5282   6.417   4.757   3.876 -1.6508 -2.7490  0.5940
  780MOL0     H 5283   6.646   4.768   3.813  0.8428 -2.9596  1.0534
  780MOL0     H 5284   7.135   4.757   3.755  2.0948  0.4218  0.0294
  780MOL0     H 5285   7.337   4.708   3.653 -2.3425  1.0850  2.8014
  780MOL0     H 5286   8.173   4.229   4.117  0.4365 -0.2410 -1.5731
  780MOL0     H 5287   8.110   4.236   4.365  0.9966  1.0085 -1.2947
  780MOL0     H 5288   7.954   3.792   4.799 -0.5164 -0.8271  1.1766
  780MOL0     H 5289   7.953   3.819   5.038  1.8203 -0.3598  1.4971
  780MOL0     H 5290   7.994   4.142   5.317 -4.4520  0.4184  1.7922
  780MOL0     H 5291   7.887   4.137   5.175 -2.5990  0.8021  3.9356
  780MOL0     H 5292   7.963   3.909   5.342 -0.8270  0.8826 -0.0395
  780MOL0     H 5293   7.830   3.901   5.233 -1.3131  1.7287 -1.1325
  780MOL0     H 5294   7.707   3.936   5.420 -0.2926  0.6166  2.1088
  780MOL0     H 5295   7.742   4.112   5.406  0.0072 -0.1953 -0.8203
  780MOL0     H 5296   7.916   4.109   5.565  1.2621  0.3814 -1.5408
  780MOL0     H 5297   7.913   3.932   5.572  0.1776 -0.6909 -1.6550
  780MOL0     H 5298   7.584   4.007   5.816  1.6391 -1.0453  2.1044
  780MOL0     H 5299   8.203   4.162   5.002 -0.0638  1.3702 -0.4174
  780MOL0     H 5300   8.234   4.126   4.761 -1.0040  1.8873  0.5566
  781MOL0     O 5301   9.024   5.549   5.584 -0.2827  1.1279  0.1839
  781MOL0     C 5302   8.971   5.657   5.572  1.0468 -0.2693 -0.9078
  781MOL0     O 5303   9.026   5.771   5.518  0.3556 -0.5520  0.2052
  781MOL0     C 5304   9.149   5.745   5.467 -0.0643 -0.0913  0.0636
  781MOL0     C 5305   9.259   5.759   5.550 -0.4606 -0.5046 -0.3321
  781MOL0     C 5306   9.394   5.721   5.500  0.4040  0.2434 -0.1687
  781MOL0     C 5307   9.393   5.657   5.373  0.1766  0.1983  0.4047
  781MOL0     O 5308   9.502   5.601   5.316  0.0615  0.2835 -0.2389
  781MOL0     C 5309   9.569   5.504   5.403  0.3595 -0.1670 -0.4131
  781MOL0     C 5310   9.573   5.373   5.331 -0.0640  0.4544  0.8191
  781MOL0     C 5311   9.435   5.293   5.332 -0.4672 -0.1253 -0.3894
  781MOL0     C 5312   9.355   5.281   5.460  0.3471 -0.7223 -1.3517
  781MOL0     C 5313   9.414   5.191   5.569  0.4356  0.0838  0.6606
  781MOL0     C 5314   9.365   5.230   5.712  0.2859 -0.1880 -0.7054
  781MOL0     C 5315   9.221   5.277   5.729 -1.0665  0.4959 -0.0683
  781MOL0     C 5316   9.112   5.181   5.667 -0.5135  1.4425 -0.7276
  781MOL0     N 5317   9.119   5.040   5.715 -0.4766  0.4818 -0.0026
  781MOL0     C 5318   9.091   5.005   5.841  0.2284 -0.1439  0.0300
  781MOL0     C 5319   9.052   4.878   5.842  0.1693  0.3087  1.0542
  781MOL0     C 5320   8.997   4.807   5.964  0.9687 -0.3921 -1.0933
  781MOL0     C 5321   8.871   4.887   6.018 -0.3809 -0.9898 -0.1912
  781MOL0     C 5322   8.763   4.807   6.081  0.4270 -0.6686  0.5001
  781MOL0     C 5323   8.783   4.719   6.203 -0.5747 -0.0748 -0.6505
  781MOL0     O 5324   8.872   4.796   6.280 -0.4652  0.2671 -0.1902
  781MOL0     C 5325   8.994   4.752   6.318 -0.7433  0.4181 -0.2195
  781MOL0     C 5326   9.048   4.825   6.421  0.2225 -0.4078 -1.6949
  781MOL0     C 5327   9.184   4.801   6.470  0.0338  0.2936 -0.6516
  781MOL0     C 5328   9.232   4.903   6.578  0.6835 -0.7661  1.2738
  781MOL0     C 5329   9.261   4.691   6.413  0.3616  0.0299  0.7663
  781MOL0     C 5330   9.400   4.658   6.449 -0.5284 -0.0372  0.1520
  781MOL0     O 5331   9.463   4.566   6.361  0.4560  0.1944 -0.2892
  781MOL0     C 5332   9.589   4.520   6.373 -0.8457 -0.1681 -0.5422
  781MOL0     C 5333   9.623   4.398   6.318  0.3091 -0.0071  0.2686
  781MOL0     C 5334   9.755   4.348   6.325 -0.1591 -0.4380  0.8744
  781MOL0     C 5335   9.861   4.426   6.378  0.0626 -0.7416  0.4049
  781MOL0     O 5336   9.990   4.392   6.347  0.3370 -0.9189 -0.2601
  781MOL0     C 5337  10.084   4.498   6.339  0.3014  0.9677  0.2276
  781MOL0     C 5338  10.227   4.439   6.343  1.1124 -1.0005 -0.0219
  781MOL0     C 5339  10.247   4.354   6.473 -0.6412  0.2849 -0.5238
  781MOL0     C 5340  10.386   4.284   6.463  0.5635 -0.7626  0.1472
  781MOL0     C 5341  10.455   4.256   6.600 -0.0341 -0.8635  0.3813
  781MOL0     C 5342  10.363   4.166   6.688  1.4532  0.6386 -0.1911
  781MOL0     C 5343  10.311   4.042   6.620  0.8368 -0.3728 -0.4862
  781MOL0     C 5344  10.270   3.945   6.724  0.2253 -0.2414 -0.3060
  781MOL0    Cl 5345  10.402   3.825   6.755  0.0101  0.0016  0.2109
  781MOL0     C 5346   9.821   4.539   6.447  0.1472  0.4308  0.2394
  781MOL0     C 5347   9.691   4.587   6.436 -0.8799  0.7860 -1.6059
  781MOL0     O 5348   9.443   4.702   6.553 -0.1170 -0.2169 -0.3861
  781MOL0     C 5349   9.192   4.622   6.311 -0.7774  0.2342 -0.2688
  781MOL0     C 5350   9.064   4.651   6.263 -0.2069  0.7055 -0.3586
  781MOL0     N 5351   9.073   4.831   5.721 -0.5688  0.2314  0.5718
  781MOL0     N 5352   9.114   4.928   5.639 -0.5596  0.3486 -0.5950
  781MOL0     C 5353   9.279   5.637   5.297 -0.2267 -0.3289  0.0726
  781MOL0     C 5354   9.159   5.684   5.340 -0.2384 -0.1991 -0.4530
  781MOL0     C 5355   8.831   5.669   5.612  0.1148 -0.2760 -0.2505
  781MOL0     C 5356   8.756   5.786   5.612 -0.0254  0.6273 -0.6869
  781MOL0     C 5357   8.623   5.774   5.660 -0.4444  0.6580  0.5734
  781MOL0     C 5358   8.566   5.660   5.694  0.0966  0.4284  0.2949
  781MOL0     O 5359   8.442   5.672   5.748 -0.0744  0.9307 -1.3568
  781MOL0     C 5360   8.354   5.562   5.741  0.4201 -0.2391 -1.0343
  781MOL0     C 5361   8.331   5.536   5.583  0.6175 -0.9104 -0.0802
  781MOL0     C 5362   8.291   5.670   5.505  0.3367  0.6004 -0.7671
  781MOL0     C 5363   8.223   5.650   5.368 -0.2442 -0.2313  0.7088
  781MOL0     C 5364   8.311   5.588   5.267  0.8244 -0.2070  0.2449
  781MOL0     C 5365   8.378   5.546   5.179  0.0886  0.4547  0.1612
  781MOL0     C 5366   8.636   5.539   5.675  1.4650  0.2708  0.8916
  781MOL0     C 5367   8.766   5.544   5.643 -0.9718  0.5936  0.7424
  781MOL0     H 5368   9.262   5.792   5.653  1.6047 -3.3031  0.6353
  781MOL0     H 5369   9.480   5.750   5.559  0.1844  0.5369  0.0153
  781MOL0     H 5370   9.671   5.543   5.405  0.5031 -0.2417 -2.9359
  781MOL0     H 5371   9.534   5.509   5.507  0.5530  3.3614 -0.4070
  781MOL0     H 5372   9.605   5.382   5.227 -2.2303 -1.9640 -0.1479
  781MOL0     H 5373   9.652   5.312   5.376  1.7392 -0.9157 -3.5925
  781MOL0     H 5374   9.375   5.356   5.267 -0.7793 -1.9383 -1.9526
  781MOL0     H 5375   9.457   5.195   5.290  0.7989  0.1544 -0.4171
  781MOL0     H 5376   9.342   5.376   5.511 -3.8764 -1.1133 -1.3353
  781MOL0     H 5377   9.252   5.257   5.433 -0.6267  2.6750 -1.0996
  781MOL0     H 5378   9.377   5.091   5.546  1.3568 -0.1488  0.1161
  781MOL0     H 5379   9.523   5.181   5.565  0.2895 -1.4676 -0.2267
  781MOL0     H 5380   9.379   5.148   5.783  1.1060  0.4011 -0.1638
  781MOL0     H 5381   9.435   5.306   5.747  0.2161 -0.7661  0.7908
  781MOL0     H 5382   9.215   5.287   5.838  1.7414  0.8806  0.1300
  781MOL0     H 5383   9.216   5.379   5.692 -1.4821  1.8688  3.3642
  781MOL0     H 5384   9.116   5.166   5.558  1.8598 -1.5079 -0.3751
  781MOL0     H 5385   9.013   5.222   5.687 -0.0266  2.0256  0.5211
  781MOL0     H 5386   9.085   5.076   5.923  2.0860  1.1188 -0.8499
  781MOL0     H 5387   8.960   4.706   5.944 -0.5792 -0.0146 -0.3049
  781MOL0     H 5388   9.078   4.803   6.037 -0.1571 -1.1818  0.1463
  781MOL0     H 5389   8.821   4.951   5.944 -1.7475 -0.0232  1.4921
  781MOL0     H 5390   8.909   4.956   6.093 -2.6780  0.0501  0.1109
  781MOL0     H 5391   8.732   4.748   5.994  2.5385  2.0558 -2.3108
  781MOL0     H 5392   8.687   4.881   6.108  1.1440  0.7520 -1.2016
  781MOL0     H 5393   8.822   4.626   6.161 -1.5351 -1.4299  1.3433
  781MOL0     H 5394   8.694   4.707   6.265  0.3086  0.3568  0.7437
  781MOL0     H 5395   9.001   4.913   6.464  0.6576 -0.5036 -1.0098
  781MOL0     H 5396   9.142   4.959   6.607 -1.1379 -1.9319 -1.5987
  781MOL0     H 5397   9.276   4.852   6.663  1.1235 -0.8334  1.0080
  781MOL0     H 5398   9.285   4.985   6.528 -3.7907  0.8780 -1.4148
  781MOL0     H 5399   9.543   4.345   6.269  2.0681 -1.4158 -1.2013
  781MOL0     H 5400   9.785   4.268   6.258  1.3197  3.1716 -3.2586
  781MOL0     H 5401  10.062   4.553   6.247 -3.7980 -0.2330  0.2693
  781MOL0     H 5402  10.081   4.555   6.432  2.1988 -0.8201  1.4776
  781MOL0     H 5403  10.257   4.384   6.253  4.9799 -0.2811  0.6409
  781MOL0     H 5404  10.298   4.522   6.353  2.6877 -2.4768  1.7288
  781MOL0     H 5405  10.159   4.296   6.504 -0.2777 -0.9570 -1.6946
  781MOL0     H 5406  10.257   4.426   6.554 -2.3384  0.5937 -0.5580
  781MOL0     H 5407  10.374   4.188   6.412  0.1268 -2.3295  3.0234
  781MOL0     H 5408  10.450   4.349   6.402 -0.3141  1.7239  1.7408
  781MOL0     H 5409  10.485   4.347   6.654  4.2820 -0.6470 -1.9186
  781MOL0     H 5410  10.552   4.207   6.584  1.1409  1.7915 -1.4357
  781MOL0     H 5411  10.422   4.118   6.766 -0.9859 -2.4412 -0.0387
  781MOL0     H 5412  10.284   4.228   6.731  1.3225  0.6799 -0.4879
  781MOL0     H 5413  10.400   4.005   6.567  2.1227  0.7228  0.8217
  781MOL0     H 5414  10.224   4.071   6.560 -0.4444 -1.9353  0.5425
  781MOL0     H 5415  10.181   3.892   6.688 -0.5827  1.0592 -0.2654
  781MOL0     H 5416  10.236   3.999   6.813  0.7624  1.1140 -0.8925
  781MOL0     H 5417   9.890   4.613   6.488 -1.6946  1.1937  2.1230
  781MOL0     H 5418   9.664   4.677   6.490 -0.9468  1.3653 -2.5808
  781MOL0     H 5419   9.241   4.547   6.250 -2.4405  1.7950 -3.8930
  781MOL0     H 5420   9.024   4.594   6.180  1.0922  1.2218 -1.3688
  781MOL0     H 5421   9.284   5.589   5.200 -3.2741  0.1297 -0.3997
  781MOL0     H 5422   9.076   5.660   5.275 -1.9099  3.1612  0.2016
  781MOL0     H 5423   8.802   5.878   5.578  1.3185  1.1074  2.1331
  781MOL0     H 5424   8.565   5.865   5.671  0.0055  1.3641 -2.1725
  781MOL0     H 5425   8.389   5.468   5.785 -1.4162 -0.3013  0.4421
  781MOL0     H 5426   8.268   5.587   5.804  0.7625 -4.1008  1.3170
  781MOL0     H 5427   8.257   5.458   5.564 -0.3739 -0.3441  1.3007
  781MOL0     H 5428   8.424   5.507   5.532  1.0963 -1.7017  1.1997
  781MOL0     H 5429   8.385   5.725   5.490  0.0721  1.9386  1.9186
  781MOL0     H 5430   8.229   5.735   5.567  1.4628 -0.3549  1.4440
  781MOL0     H 5431   8.184   5.742   5.324  3.1119  0.9420 -0.1157
  781MOL0     H 5432   8.134   5.587   5.380 -2.3706  2.6940  1.4405
  781MOL0     H 5433   8.433   5.518   5.092 -1.0921  1.1486 -0.8353
  781MOL0     H 5434   8.598   5.443   5.709  0.4911  0.4294  0.2651
  781MOL0     H 5435   8.808   5.445   5.656 -1.5649  0.4030  1.2486
  782MOL0     O 5436  11.325   1.054  10.007  0.0422 -0.9659  0.1966
  782MOL0     C 5437  11.407   1.066   9.921 -0.1937  0.2059  1.0237
  782MOL0     O 5438  11.393   1.033   9.789  0.0387 -0.5988 -1.1069
  782MOL0     C 5439  11.269   0.995   9.739  0.2044  0.3419  0.0039
  782MOL0     C 5440  11.174   0.920   9.797 -1.3131  0.3430  0.7557
  782MOL0     C 5441  11.046   0.889   9.738 -0.6624 -0.2905  0.9440
  782MOL0     C 5442  11.004   0.962   9.622 -0.4212  0.3545  0.2511
  782MOL0     O 5443  10.888   0.938   9.557 -0.9893  0.4707 -0.0591
  782MOL0     C 5444  10.789   0.860   9.623  0.5130  0.5232 -0.3371
  782MOL0     C 5445  10.648   0.874   9.555 -0.3051  0.6687  0.1361
  782MOL0     C 5446  10.552   0.768   9.597 -0.2253  0.4795 -0.1823
  782MOL0     C 5447  10.488   0.781   9.731 -0.1211 -0.1888 -0.4080
  782MOL0     C 5448  10.385   0.678   9.742 -0.4238 -0.4775  0.0056
  782MOL0     C 5449  10.340   0.667   9.897  0.3571  0.4157  0.7575
  782MOL0     C 5450  10.230   0.566   9.923  0.6144  0.2305 -0.3318
  782MOL0     C 5451  10.197   0.557  10.069 -0.5478 -0.3567 -0.0326
  782MOL0     N 5452  10.092   0.459  10.087  0.0603 -0.1798  0.4947
  782MOL0     C 5453  10.101   0.317  10.075 -0.6328 -0.7402  0.5434
  782MOL0     C 5454   9.972   0.276  10.060 -0.8626  0.7474  0.1139
  782MOL0     C 5455   9.923   0.128  10.039 -0.6849 -0.1975  0.9318
  782MOL0     C 5456  10.014   0.025  10.104  0.4619  0.1843 -1.5628
  782MOL0     C 5457   9.938  -0.106  10.145  0.4654  0.1305 -0.5712
  782MOL0     C 5458  10.035  -0.201  10.218 -0.5633 -0.3795  0.7626
  782MOL0     O 5459  10.155  -0.217  10.143  0.1005 -0.2658 -1.0238
  782MOL0     C 5460  10.171  -0.350  10.108 -0.2698  0.5153 -0.5729
  782MOL0     C 5461  10.193  -0.379   9.976  0.7714  0.6436  0.4651
  782MOL0     C 5462  10.222  -0.511   9.930  0.4093  0.4007  0.0383
  782MOL0     C 5463  10.254  -0.521   9.787  0.3687  0.0777  0.1504
  782MOL0     C 5464  10.237  -0.614  10.034 -0.2478 -0.8629 -0.4993
  782MOL0     C 5465  10.262  -0.757   9.999  0.6483  0.1164  0.0095
  782MOL0     O 5466  10.247  -0.840  10.108  0.2201 -0.6379 -0.4812
  782MOL0     C 5467  10.283  -0.980  10.103  0.4287 -0.1082  0.2131
  782MOL0     C 5468  10.228  -1.060  10.001  0.2742 -0.3865 -0.3391
  782MOL0     C 5469  10.266  -1.193  10.005 -0.6174  0.0874  0.0263
  782MOL0     C 5470  10.355  -1.250  10.093 -0.8181 -0.3776 -0.6083
  782MOL0     O 5471  10.376  -1.384  10.106 -0.1671  0.1179  1.0775
  782MOL0     C 5472  10.295  -1.446  10.210  0.4671  0.5895  0.2992
  782MOL0     C 5473  10.298  -1.599  10.189 -0.6219  0.0550  0.2983
  782MOL0     C 5474  10.199  -1.682  10.276  0.2690  0.1915 -0.2760
  782MOL0     C 5475  10.179  -1.820  10.226 -0.5010  1.2347  0.6724
  782MOL0     C 5476  10.253  -1.924  10.311 -0.1594  0.2084 -0.6482
  782MOL0     C 5477  10.193  -1.947  10.456  0.9783  0.0134  0.2199
  782MOL0     C 5478  10.040  -1.963  10.470  0.2544 -0.0158 -0.9053
  782MOL0     C 5479   9.998  -2.020  10.610 -0.2619  0.0848  1.0772
  782MOL0    Cl 5480  10.009  -1.890  10.721  0.1122 -0.0949 -0.0342
  782MOL0     C 5481  10.418  -1.165  10.189  0.4956 -0.5933 -0.0553
  782MOL0     C 5482  10.383  -1.034  10.188  1.0911  0.3385  0.2083
  782MOL0     O 5483  10.287  -0.785   9.883  0.4515  0.5203  0.3868
  782MOL0     C 5484  10.231  -0.579  10.171  0.3650 -0.4568 -0.2134
  782MOL0     C 5485  10.195  -0.447  10.199  0.0431  0.2894  0.3465
  782MOL0     N 5486   9.889   0.392  10.054 -0.5558 -0.2221  0.2172
  782MOL0     N 5487   9.962   0.493  10.066 -0.3131 -0.2389  0.1925
  782MOL0     C 5488  11.108   1.040   9.555  0.0915 -0.4540  0.1441
  782MOL0     C 5489  11.233   1.061   9.622 -0.9978 -0.0365 -0.0603
  782MOL0     C 5490  11.540   1.113   9.960 -0.6445 -0.0730  0.2774
  782MOL0     C 5491  11.594   1.093  10.088 -0.1065  0.7382 -0.2963
  782MOL0     C 5492  11.723   1.132  10.117  0.1294 -0.1709  0.0036
  782MOL0     C 5493  11.811   1.181  10.021 -0.2980  0.3104  0.0880
  782MOL0     O 5494  11.940   1.212  10.052  0.1327  0.7984 -0.5692
  782MOL0     C 5495  12.007   1.164  10.172  0.0049  0.2080  0.3098
  782MOL0     C 5496  12.145   1.208  10.164 -0.3400  0.1910  0.0854
  782MOL0     C 5497  12.149   1.361  10.197 -0.0075  0.2353  0.3018
  782MOL0     C 5498  12.296   1.413  10.210  0.2568  1.0553 -0.1791
  782MOL0     C 5499  12.359   1.444  10.078  0.4966 -0.1167 -0.0250
  782MOL0     C 5500  12.420   1.463   9.968  0.1979 -0.1593  0.0177
  782MOL0     C 5501  11.758   1.194   9.892  0.3727  0.2169  0.5299
  782MOL0     C 5502  11.624   1.164   9.857  0.5687  1.0883  0.3225
  782MOL0     H 5503  11.182   0.870   9.893  1.7617 -0.3406  0.2380
  782MOL0     H 5504  10.977   0.817   9.783 -1.9057 -1.5290 -2.6130
  782MOL0     H 5505  10.823   0.758   9.640 -0.6855 -0.0883 -1.4497
  782MOL0     H 5506  10.770   0.901   9.723  0.4146  0.9708 -0.5377
  782MOL0     H 5507  10.606   0.973   9.574  4.9899  3.6041 -1.2059
  782MOL0     H 5508  10.668   0.868   9.447 -3.5678 -0.7250 -0.5008
  782MOL0     H 5509  10.473   0.769   9.521 -0.7058 -2.6942  0.1393
  782MOL0     H 5510  10.600   0.670   9.584 -2.1109 -0.4567 -0.3392
  782MOL0     H 5511  10.558   0.771   9.814  0.5876  2.7871 -0.5529
  782MOL0     H 5512  10.450   0.883   9.738  3.2817  1.2346 -0.7522
  782MOL0     H 5513  10.297   0.694   9.679 -1.0174  0.2813  1.0019
  782MOL0     H 5514  10.428   0.579   9.724 -0.0027 -0.1691 -0.7572
  782MOL0     H 5515  10.433   0.638   9.947  1.7901  0.3801 -1.7739
  782MOL0     H 5516  10.294   0.763   9.921 -2.5975 -0.1440 -2.0095
  782MOL0     H 5517  10.135   0.582   9.870 -2.3171 -1.8523  3.7156
  782MOL0     H 5518  10.272   0.470   9.892 -1.1538 -1.5342  2.3571
  782MOL0     H 5519  10.150   0.652  10.099 -1.1161 -0.2324 -1.2351
  782MOL0     H 5520  10.284   0.531  10.128 -1.0491 -0.7703  0.5293
  782MOL0     H 5521  10.192   0.257  10.075 -0.9718 -1.2667  1.1976
  782MOL0     H 5522   9.820   0.121  10.076 -0.7397  0.5247  0.9254
  782MOL0     H 5523   9.913   0.107   9.932 -0.6595  1.3148  0.6026
  782MOL0     H 5524  10.064   0.068  10.192 -0.0586 -1.7870 -0.2358
  782MOL0     H 5525  10.097  -0.005  10.040  1.1397  1.7370 -1.4651
  782MOL0     H 5526   9.894  -0.161  10.062  1.9734 -1.0420 -0.6458
  782MOL0     H 5527   9.859  -0.082  10.217  2.3341  1.1918  1.2620
  782MOL0     H 5528   9.979  -0.294  10.236  1.3493 -1.6498  0.4685
  782MOL0     H 5529  10.072  -0.163  10.314 -0.4890 -1.6343  1.2499
  782MOL0     H 5530  10.191  -0.297   9.905  1.5430  0.0655 -0.2569
  782MOL0     H 5531  10.360  -0.547   9.778 -0.4348 -2.9161 -3.5321
  782MOL0     H 5532  10.206  -0.599   9.727  2.7695  0.5098 -2.5614
  782MOL0     H 5533  10.236  -0.430   9.730  2.3520  0.6666  0.4184
  782MOL0     H 5534  10.164  -1.010   9.930 -0.6788  0.6076  1.1471
  782MOL0     H 5535  10.237  -1.248   9.916 -0.1792  2.9323 -2.0272
  782MOL0     H 5536  10.324  -1.424  10.313 -4.2941 -1.1197  2.2940
  782MOL0     H 5537  10.189  -1.420  10.203  0.3184  0.0630  0.5435
  782MOL0     H 5538  10.283  -1.629  10.085 -2.8174  1.3142  0.1821
  782MOL0     H 5539  10.399  -1.628  10.217 -0.5210 -0.0845 -0.1971
  782MOL0     H 5540  10.107  -1.622  10.272 -0.1947 -0.5284 -0.7369
  782MOL0     H 5541  10.232  -1.694  10.380  1.2471  0.2142 -0.5767
  782MOL0     H 5542  10.071  -1.833  10.217 -0.2281 -0.1325 -2.1797
  782MOL0     H 5543  10.219  -1.835  10.125  1.0585  0.6601  1.3458
  782MOL0     H 5544  10.361  -1.907  10.315 -0.5339  2.7450  0.2001
  782MOL0     H 5545  10.238  -2.016  10.254  0.9609 -1.4249  1.5341
  782MOL0     H 5546  10.244  -2.033  10.500  0.2789 -0.4195  0.1952
  782MOL0     H 5547  10.227  -1.861  10.515 -2.3481  0.1828  2.0858
  782MOL0     H 5548   9.998  -2.026  10.392  1.1017 -1.1980 -0.4442
  782MOL0     H 5549   9.999  -1.862  10.456  1.7923  0.7930  0.0288
  782MOL0     H 5550  10.062  -2.104  10.639  1.4970  0.7604 -0.6090
  782MOL0     H 5551   9.893  -2.048  10.624 -0.5790 -2.3080 -3.7785
  782MOL0     H 5552  10.492  -1.205  10.258  0.3445 -1.9328 -0.6480
  782MOL0     H 5553  10.425  -0.970  10.265 -3.3828  2.8269  0.8721
  782MOL0     H 5554  10.248  -0.642  10.258 -1.3936  1.5012  1.6887
  782MOL0     H 5555  10.202  -0.431  10.306  1.5186  1.1534  0.1416
  782MOL0     H 5556  11.089   1.094   9.462  0.2707  2.8960  1.8944
  782MOL0     H 5557  11.316   1.121   9.589  2.2296 -2.0969  3.4554
  782MOL0     H 5558  11.539   1.042  10.166  1.8157  0.8558  1.1925
  782MOL0     H 5559  11.762   1.124  10.218  0.6479 -0.4780 -0.2145
  782MOL0     H 5560  11.955   1.205  10.260 -1.1919  0.1078 -0.3236
  782MOL0     H 5561  12.000   1.055  10.170 -1.3900  0.2459  1.3109
  782MOL0     H 5562  12.179   1.187  10.062 -0.4491  0.1226  0.0610
  782MOL0     H 5563  12.204   1.149  10.235  0.1561  1.5224  0.8104
  782MOL0     H 5564  12.098   1.390  10.289  2.3361  3.2140  0.8322
  782MOL0     H 5565  12.096   1.417  10.119  1.5951 -0.7857 -1.6220
  782MOL0     H 5566  12.348   1.332  10.261 -1.8310 -0.9713 -1.1009
  782MOL0     H 5567  12.308   1.505  10.269  1.1428 -0.3974  2.0467
  782MOL0     H 5568  12.451   1.476   9.867 -2.3886  3.1825 -0.5581
  782MOL0     H 5569  11.824   1.242   9.821 -0.4302  0.4635 -0.0661
  782MOL0     H 5570  11.591   1.182   9.755 -0.6045  5.2828  1.2568
  783MOL0     O 5571   8.050   0.379  10.103 -0.1426 -0.0864 -0.2649
  783MOL0     C 5572   7.999   0.473  10.164 -0.5164  0.2003 -0.2003
  783MOL0     O 5573   8.053   0.522  10.278 -0.3546 -0.2012 -0.2753
  783MOL0     C 5574   8.177   0.466  10.325  0.2866 -0.9180  0.0371
  783MOL0     C 5575   8.297   0.488  10.252  0.4923 -0.1913  0.2685
  783MOL0     C 5576   8.414   0.424  10.288 -0.1450  0.1128  0.0499
  783MOL0     C 5577   8.422   0.358  10.413 -0.6197  0.5949  0.1396
  783MOL0     O 5578   8.534   0.303  10.464 -0.9134  0.7010  0.4928
  783MOL0     C 5579   8.655   0.383  10.467 -0.1230 -0.5314  0.7254
  783MOL0     C 5580   8.737   0.351  10.587 -0.0182  1.3023 -0.4953
  783MOL0     C 5581   8.655   0.304  10.708  0.1904 -0.2920 -0.3043
  783MOL0     C 5582   8.731   0.270  10.840  0.2268  0.0451  0.0844
  783MOL0     C 5583   8.825   0.384  10.880  1.1059  0.0288  0.3632
  783MOL0     C 5584   8.743   0.493  10.948  0.0513 -0.0894  0.2326
  783MOL0     C 5585   8.849   0.599  11.007  0.7772  0.9890  0.5430
  783MOL0     C 5586   8.915   0.673  10.891  0.0946 -1.0661  0.3757
  783MOL0     N 5587   9.030   0.746  10.942 -0.3189 -0.6542 -1.4633
  783MOL0     C 5588   9.138   0.686  11.007  0.2568 -0.7046  0.1147
  783MOL0     C 5589   9.220   0.787  11.041  0.0840  1.0586  0.9617
  783MOL0     C 5590   9.356   0.751  11.103 -0.1487  0.0002  0.6954
  783MOL0     C 5591   9.471   0.833  11.048 -0.1679 -0.3390  0.8339
  783MOL0     C 5592   9.589   0.845  11.140 -0.3696  0.0621 -0.5342
  783MOL0     C 5593   9.696   0.931  11.075  0.6406 -0.3574  0.6431
  783MOL0     O 5594   9.774   0.967  11.188  0.1876 -0.2366  1.2721
  783MOL0     C 5595   9.892   1.038  11.161 -0.6680  0.3698 -0.7604
  783MOL0     C 5596   9.954   1.052  11.032 -0.2062 -0.5148  0.0321
  783MOL0     C 5597  10.058   1.141  11.019  0.4929  0.3040  0.1082
  783MOL0     C 5598  10.101   1.159  10.876 -0.1036 -0.1890 -0.7199
  783MOL0     C 5599  10.111   1.200  11.131 -0.1973 -0.0431 -0.0149
  783MOL0     C 5600  10.234   1.289  11.131  0.2091  1.0524  1.3504
  783MOL0     O 5601  10.292   1.305  11.005  0.4783  0.1401 -0.1069
  783MOL0     C 5602  10.387   1.404  10.989 -0.6912  0.6289 -0.6432
  783MOL0     C 5603  10.513   1.391  11.046  0.9606 -1.0330 -0.3938
  783MOL0     C 5604  10.616   1.481  11.013 -0.4113 -0.2127  0.8611
  783MOL0     C 5605  10.604   1.568  10.910 -0.1155 -0.3168  1.3771
  783MOL0     O 5606  10.714   1.635  10.862  0.5963  0.3200  0.3389
  783MOL0     C 5607  10.708   1.725  10.744 -0.4241 -0.0244  0.0626
  783MOL0     C 5608  10.810   1.834  10.739  0.5766 -0.4144  0.6433
  783MOL0     C 5609  10.800   1.920  10.619 -0.4478 -0.6208 -0.0030
  783MOL0     C 5610  10.881   2.050  10.635 -0.4754  1.0100 -0.0069
  783MOL0     C 5611  10.873   2.146  10.517 -0.4614  0.0056 -0.7462
  783MOL0     C 5612  10.907   2.292  10.559  0.0362 -0.0553  0.3490
  783MOL0     C 5613  10.904   2.381  10.436 -0.5851 -0.4464  0.2448
  783MOL0     C 5614  10.879   2.526  10.473  0.6491  0.0243  0.9151
  783MOL0    Cl 5615  11.001   2.581  10.585 -0.0368  0.5033  0.7383
  783MOL0     C 5616  10.477   1.587  10.851 -0.4120  0.3957 -0.0230
  783MOL0     C 5617  10.374   1.504  10.897 -1.0911 -0.0842  1.0493
  783MOL0     O 5618  10.270   1.349  11.240 -0.2798  0.3094  0.0928
  783MOL0     C 5619  10.052   1.179  11.259 -0.4161 -0.0097  0.4576
  783MOL0     C 5620   9.948   1.106  11.264 -0.1550  0.1917 -0.8412
  783MOL0     N 5621   9.176   0.905  10.993 -0.6397  0.5025 -0.1397
  783MOL0     N 5622   9.062   0.883  10.932 -0.5265 -1.2360  0.7182
  783MOL0     C 5623   8.306   0.345  10.491  0.5074 -0.4801  0.4048
  783MOL0     C 5624   8.188   0.401  10.453  0.3458 -0.4441  0.0347
  783MOL0     C 5625   7.873   0.533  10.112 -1.3334  0.0747 -0.0664
  783MOL0     C 5626   7.801   0.626  10.182 -0.1252 -0.1302 -0.5333
  783MOL0     C 5627   7.683   0.670  10.135  0.1604  0.5541 -0.8452
  783MOL0     C 5628   7.641   0.634  10.005  0.8359 -0.5057 -0.7819
  783MOL0     O 5629   7.547   0.704   9.942  1.3636 -0.3148  0.1797
  783MOL0     C 5630   7.553   0.760   9.812  0.6376 -0.4802  0.1623
  783MOL0     C 5631   7.427   0.842   9.792  0.8530  0.0602 -0.2300
  783MOL0     C 5632   7.401   0.865   9.642  0.0616  0.4555  0.4578
  783MOL0     C 5633   7.488   0.962   9.561  0.7915  0.5264 -0.8649
  783MOL0     C 5634   7.423   1.095   9.566 -0.1126  1.3255 -0.6805
  783MOL0     C 5635   7.364   1.204   9.582 -0.3372  0.4908 -0.4891
  783MOL0     C 5636   7.712   0.535   9.934  0.3080 -0.3940 -0.0751
  783MOL0     C 5637   7.825   0.479   9.991  0.2774  0.3214 -0.2759
  783MOL0     H 5638   8.280   0.540  10.159  2.4677 -0.5471 -0.3160
  783MOL0     H 5639   8.496   0.414  10.218 -0.2585 -2.0526  0.1346
  783MOL0     H 5640   8.713   0.378  10.375 -1.7105 -2.1376 -0.2563
  783MOL0     H 5641   8.615   0.482  10.487 -3.5820 -0.8002 -3.5304
  783MOL0     H 5642   8.804   0.267  10.567 -0.9943  0.3594  0.1177
  783MOL0     H 5643   8.792   0.444  10.606 -1.7638  2.1425  0.7246
  783MOL0     H 5644   8.605   0.399  10.730  2.1382  0.4497  1.1087
  783MOL0     H 5645   8.580   0.225  10.700 -3.4570  2.4130  2.8171
  783MOL0     H 5646   8.655   0.246  10.915  2.2210  0.7606  2.4797
  783MOL0     H 5647   8.792   0.182  10.815  1.1432 -0.0426  2.3187
  783MOL0     H 5648   8.890   0.347  10.961  0.5653 -1.6181  0.0848
  783MOL0     H 5649   8.878   0.416  10.790 -2.6372  1.1382 -1.6467
  783MOL0     H 5650   8.683   0.549  10.875 -0.5933  0.4671  1.1696
  783MOL0     H 5651   8.683   0.456  11.031 -3.1970  0.9844 -1.4584
  783MOL0     H 5652   8.815   0.679  11.073  1.0426  1.1838  0.4489
  783MOL0     H 5653   8.929   0.547  11.061  1.0359  0.5906 -0.2105
  783MOL0     H 5654   8.847   0.745  10.844 -0.7634 -0.9178  1.7795
  783MOL0     H 5655   8.947   0.610  10.808 -0.9974 -1.6648  0.3988
  783MOL0     H 5656   9.142   0.579  11.028 -5.2968 -1.1723  0.2460
  783MOL0     H 5657   9.356   0.772  11.210  0.7331  1.4041  0.4430
  783MOL0     H 5658   9.383   0.645  11.092  0.6804  0.0293  2.1929
  783MOL0     H 5659   9.437   0.937  11.038  3.0447  0.9703  2.2471
  783MOL0     H 5660   9.499   0.796  10.949  2.3312 -0.0327  1.3626
  783MOL0     H 5661   9.629   0.744  11.150  0.9752  0.3878 -2.1175
  783MOL0     H 5662   9.561   0.883  11.239 -0.8764 -1.9911  0.1397
  783MOL0     H 5663   9.652   1.015  11.020 -0.3035 -0.7765  0.7483
  783MOL0     H 5664   9.750   0.873  10.999 -0.8012  0.1301 -0.8311
  783MOL0     H 5665   9.908   1.022  10.938  0.2608  3.3896 -1.6412
  783MOL0     H 5666  10.044   1.089  10.814 -1.8011  1.4274 -1.0662
  783MOL0     H 5667  10.085   1.264  10.850  0.8127 -0.2569 -1.6284
  783MOL0     H 5668  10.206   1.135  10.857 -0.6072 -1.8264 -1.6199
  783MOL0     H 5669  10.535   1.310  11.114 -4.0581 -0.9455  1.7880
  783MOL0     H 5670  10.715   1.454  11.049 -0.1062  2.8971  2.6884
  783MOL0     H 5671  10.729   1.662  10.657  3.4494 -1.4082  1.7385
  783MOL0     H 5672  10.613   1.779  10.748 -0.2977  0.1242  1.1568
  783MOL0     H 5673  10.817   1.894  10.830 -1.1138  0.6801  0.0871
  783MOL0     H 5674  10.910   1.789  10.738  0.9571  0.2106  3.2602
  783MOL0     H 5675  10.692   1.931  10.607 -0.3642 -1.4313 -2.0218
  783MOL0     H 5676  10.825   1.861  10.530 -1.0441 -0.5159 -0.2497
  783MOL0     H 5677  10.847   2.103  10.725 -4.2319 -2.3307  0.8352
  783MOL0     H 5678  10.986   2.033  10.660 -0.2446  3.7994  1.2751
  783MOL0     H 5679  10.771   2.143  10.478  0.0310  1.7095 -2.2897
  783MOL0     H 5680  10.927   2.096  10.436 -3.0775  1.6178 -3.6900
  783MOL0     H 5681  10.830   2.326  10.628 -0.3233  1.1742 -0.6279
  783MOL0     H 5682  11.005   2.282  10.607  0.6414 -2.5865 -1.1939
  783MOL0     H 5683  10.828   2.354  10.362 -0.9758  2.6133 -0.6218
  783MOL0     H 5684  10.999   2.375  10.383 -0.3464  1.2471  0.4009
  783MOL0     H 5685  10.780   2.530  10.520 -0.8531  0.5010 -2.0633
  783MOL0     H 5686  10.890   2.577  10.377 -0.1081 -0.6028  0.4813
  783MOL0     H 5687  10.464   1.651  10.764  1.4135  0.9027  0.0381
  783MOL0     H 5688  10.277   1.519  10.851 -0.5328  1.0632  0.1958
  783MOL0     H 5689  10.101   1.224  11.344  2.8199 -0.0909 -1.2252
  783MOL0     H 5690   9.924   1.097  11.369 -0.8683  2.3171 -0.7786
  783MOL0     H 5691   8.310   0.297  10.588 -0.7111  1.3083  1.3896
  783MOL0     H 5692   8.108   0.388  10.524 -0.8936 -1.3381 -1.4674
  783MOL0     H 5693   7.830   0.631  10.286  2.7789 -1.7157 -1.1334
  783MOL0     H 5694   7.626   0.743  10.192 -0.7112 -1.4225  0.9538
  783MOL0     H 5695   7.646   0.814   9.789  0.2533  0.4844  0.7719
  783MOL0     H 5696   7.556   0.673   9.747  3.1565 -0.0564 -0.4115
  783MOL0     H 5697   7.430   0.940   9.840 -1.0827 -0.7816  1.7812
  783MOL0     H 5698   7.347   0.784   9.838  0.6046 -0.1953 -0.9670
  783MOL0     H 5699   7.297   0.890   9.617 -0.1151 -0.9116 -0.3107
  783MOL0     H 5700   7.414   0.763   9.605  2.0278  1.0824 -0.7843
  783MOL0     H 5701   7.506   0.935   9.456  1.3443  1.6225 -1.0741
  783MOL0     H 5702   7.587   0.969   9.608 -0.3674 -1.3957  2.1186
  783MOL0     H 5703   7.312   1.297   9.590  0.7898  0.9852  2.6302
  783MOL0     H 5704   7.672   0.493   9.842 -1.1314  1.5026 -0.3810
  783MOL0     H 5705   7.878   0.390   9.958  3.0737  1.7758  0.0362
  784MOL0     O 5706   6.990   5.890   5.629 -0.1511 -0.1716 -0.5213
  784MOL0     C 5707   6.913   5.809   5.569  0.5715  0.2215 -0.0192
  784MOL0     O 5708   6.944   5.748   5.456  0.0906  0.3901  0.4608
  784MOL0     C 5709   7.068   5.775   5.403  0.0440 -0.1946 -0.9998
  784MOL0     C 5710   7.077   5.820   5.279  0.2762  0.4242  0.0529
  784MOL0     C 5711   7.206   5.814   5.211 -0.1358  0.3419 -0.2589
  784MOL0     C 5712   7.316   5.761   5.282  0.2158 -0.7457 -0.2404
  784MOL0     O 5713   7.439   5.731   5.221 -0.1783  0.0055  0.0377
  784MOL0     C 5714   7.500   5.834   5.142 -0.5083  0.0984 -0.1785
  784MOL0     C 5715   7.647   5.816   5.163  0.1621  0.3696 -0.2011
  784MOL0     C 5716   7.735   5.904   5.075  0.1834  0.6217  0.1069
  784MOL0     C 5717   7.882   5.905   5.122  0.6324 -0.6255  0.3562
  784MOL0     C 5718   7.979   5.987   5.030 -0.1733  0.5691  0.6780
  784MOL0     C 5719   7.977   6.139   5.054  0.3900  0.9041  0.0618
  784MOL0     C 5720   8.079   6.203   4.955  0.0823 -0.4793  1.3938
  784MOL0     C 5721   8.041   6.342   4.904 -0.6351 -0.6649  0.0581
  784MOL0     N 5722   8.130   6.412   4.801 -0.1136 -0.3336 -0.0716
  784MOL0     C 5723   8.253   6.359   4.762 -0.2127  0.0236  0.6345
  784MOL0     C 5724   8.310   6.455   4.688 -0.4743  0.5000 -0.1310
  784MOL0     C 5725   8.439   6.433   4.602 -0.1577  0.1469 -0.7132
  784MOL0     C 5726   8.562   6.417   4.690  0.1701  0.6842  0.1071
  784MOL0     C 5727   8.693   6.427   4.620 -0.9278 -0.1048 -0.1580
  784MOL0     C 5728   8.753   6.563   4.603 -0.4056 -1.0919 -0.1984
  784MOL0     O 5729   8.847   6.567   4.495 -0.9044 -0.3817 -0.7663
  784MOL0     C 5730   8.968   6.630   4.525  0.6348 -0.0042 -0.4415
  784MOL0     C 5731   9.081   6.557   4.576 -0.0381  0.2023  0.0648
  784MOL0     C 5732   9.195   6.616   4.624 -0.2830  0.6666 -0.0844
  784MOL0     C 5733   9.301   6.526   4.686  0.3258 -0.0659 -0.3623
  784MOL0     C 5734   9.204   6.758   4.614 -0.3035 -0.2892  0.2709
  784MOL0     C 5735   9.325   6.842   4.660 -0.6704 -1.0873  0.1310
  784MOL0     O 5736   9.311   6.985   4.635  0.2004  0.2374 -0.0329
  784MOL0     C 5737   9.400   7.071   4.692  0.5418 -0.1450  0.2672
  784MOL0     C 5738   9.538   7.057   4.728  0.4152 -0.2803  0.1057
  784MOL0     C 5739   9.610   7.153   4.795 -0.4518 -0.5587 -1.0813
  784MOL0     C 5740   9.552   7.271   4.829 -0.0492  0.1094  0.9151
  784MOL0     O 5741   9.622   7.346   4.924 -0.4387  0.2984  0.8972
  784MOL0     C 5742   9.545   7.431   5.003  0.2145 -0.3852 -0.2316
  784MOL0     C 5743   9.622   7.462   5.131  0.2862  0.0633 -0.4191
  784MOL0     C 5744   9.738   7.559   5.105 -1.0895  0.0076  0.0863
  784MOL0     C 5745   9.695   7.702   5.098  0.3548 -0.3448 -0.7968
  784MOL0     C 5746   9.758   7.793   5.204 -0.4798 -0.0227 -0.0211
  784MOL0     C 5747   9.909   7.824   5.174 -0.0939  0.5105  0.0292
  784MOL0     C 5748   9.989   7.872   5.299  0.9742  0.4853  0.0486
  784MOL0     C 5749  10.135   7.914   5.255 -0.2472  0.8022  0.0098
  784MOL0    Cl 5750  10.158   8.043   5.142 -0.3828 -0.3576  0.0616
  784MOL0     C 5751   9.424   7.296   4.781 -0.9336 -0.1310  0.1316
  784MOL0     C 5752   9.347   7.193   4.718 -0.1181 -0.8889 -0.6050
  784MOL0     O 5753   9.420   6.790   4.718 -0.0224 -0.2139 -0.3155
  784MOL0     C 5754   9.090   6.833   4.559 -0.2631 -0.0637  0.2546
  784MOL0     C 5755   8.979   6.767   4.514 -0.1513 -0.1431 -0.5290
  784MOL0     N 5756   8.239   6.573   4.701  0.0730 -0.7813 -0.0897
  784MOL0     N 5757   8.131   6.538   4.759  0.9575 -0.6343 -0.3490
  784MOL0     C 5758   7.298   5.724   5.407  0.3406  0.0434 -1.1279
  784MOL0     C 5759   7.175   5.718   5.467  0.2153 -0.1259 -0.2106
  784MOL0     C 5760   6.777   5.768   5.623 -0.1312 -0.7665 -0.1158
  784MOL0     C 5761   6.700   5.659   5.563 -0.4445  0.9015 -0.8443
  784MOL0     C 5762   6.574   5.621   5.622 -0.3637  0.5449 -0.8277
  784MOL0     C 5763   6.516   5.688   5.737 -1.2761 -0.6366  0.2002
  784MOL0     O 5764   6.410   5.647   5.810 -0.5137 -0.0928  0.5482
  784MOL0     C 5765   6.333   5.525   5.784 -0.2605  0.3512 -0.1473
  784MOL0     C 5766   6.359   5.412   5.886 -0.2424 -0.0475  0.5644
  784MOL0     C 5767   6.501   5.365   5.890  0.0828 -0.5760 -0.4269
  784MOL0     C 5768   6.569   5.430   6.014  0.6888  0.4663  0.5214
  784MOL0     C 5769   6.521   5.365   6.138 -0.3131 -0.0846  0.4739
  784MOL0     C 5770   6.490   5.309   6.234 -0.2095 -0.0418 -0.3699
  784MOL0     C 5771   6.584   5.806   5.774 -0.8325 -0.6668 -0.1899
  784MOL0     C 5772   6.711   5.840   5.715  1.2066 -0.9345 -0.2401
  784MOL0     H 5773   6.989   5.848   5.221 -0.1141  0.9580  0.8857
  784MOL0     H 5774   7.223   5.839   5.107 -2.6567  0.3824 -0.7269
  784MOL0     H 5775   7.469   5.844   5.038 -0.8965  1.2074  0.0336
  784MOL0     H 5776   7.489   5.930   5.193  1.8293  0.9755 -1.1552
  784MOL0     H 5777   7.665   5.829   5.270  1.3263 -2.6874  0.0931
  784MOL0     H 5778   7.686   5.715   5.147  0.9940  0.2937  2.0473
  784MOL0     H 5779   7.731   5.877   4.969 -0.3335  2.5413 -0.4091
  784MOL0     H 5780   7.698   6.007   5.071 -1.0822  0.2958  1.8769
  784MOL0     H 5781   7.881   5.958   5.218 -0.9679  0.7016 -0.3484
  784MOL0     H 5782   7.912   5.800   5.132  2.0458 -0.6848 -3.1331
  784MOL0     H 5783   8.076   5.947   5.061 -0.2433  1.1970  1.7666
  784MOL0     H 5784   7.949   5.958   4.929  0.4838  1.3494  0.2514
  784MOL0     H 5785   7.878   6.186   5.048 -1.5353 -2.8356  0.0120
  784MOL0     H 5786   8.005   6.161   5.157 -4.3663  0.6370  1.6735
  784MOL0     H 5787   8.182   6.207   4.992  0.9710 -0.8025 -0.8221
  784MOL0     H 5788   8.092   6.135   4.870 -0.1737  1.0246  0.0828
  784MOL0     H 5789   8.040   6.415   4.985  2.2913  1.1606 -1.3628
  784MOL0     H 5790   7.941   6.326   4.861  0.0150  0.7922 -2.2064
  784MOL0     H 5791   8.286   6.256   4.775  2.1554  0.9089  2.4733
  784MOL0     H 5792   8.420   6.342   4.546  1.4360 -0.3645 -0.4948
  784MOL0     H 5793   8.461   6.528   4.551 -0.3440  0.8858  0.5317
  784MOL0     H 5794   8.550   6.312   4.717 -2.7467  0.3441 -2.0594
  784MOL0     H 5795   8.570   6.484   4.776 -0.1446  3.3860 -1.8432
  784MOL0     H 5796   8.682   6.378   4.523 -1.5761  1.8887 -1.1438
  784MOL0     H 5797   8.759   6.362   4.679  0.3923  3.4650  2.6714
  784MOL0     H 5798   8.801   6.597   4.695 -3.3312  0.1593  1.0048
  784MOL0     H 5799   8.674   6.638   4.601 -1.6608 -2.3332  0.6141
  784MOL0     H 5800   9.054   6.452   4.580 -0.9769  0.4355  0.1120
  784MOL0     H 5801   9.273   6.421   4.701  3.1287 -0.9465 -0.6950
  784MOL0     H 5802   9.398   6.546   4.637  0.6439  0.8179  0.5831
  784MOL0     H 5803   9.317   6.564   4.787 -0.2352  2.7515 -1.2372
  784MOL0     H 5804   9.596   6.967   4.708  3.2461  1.2752  0.6850
  784MOL0     H 5805   9.712   7.132   4.826 -0.3157  2.3609  0.7860
  784MOL0     H 5806   9.526   7.522   4.946  4.0935  1.3089  0.8561
  784MOL0     H 5807   9.459   7.369   5.031  0.0466  0.3723  1.0395
  784MOL0     H 5808   9.553   7.502   5.205  0.4493 -0.0773 -0.1906
  784MOL0     H 5809   9.673   7.371   5.164  1.9565  1.4690  1.0612
  784MOL0     H 5810   9.791   7.525   5.016 -2.5246 -1.3837 -0.2794
  784MOL0     H 5811   9.816   7.538   5.179  0.4993  1.7844 -0.9776
  784MOL0     H 5812   9.709   7.740   4.997  3.6613 -2.1465 -1.1585
  784MOL0     H 5813   9.589   7.700   5.126  0.2732  3.3123 -0.4632
  784MOL0     H 5814   9.755   7.746   5.303  0.6185  0.7900  0.4211
  784MOL0     H 5815   9.695   7.882   5.214 -1.6543 -0.8672  0.3747
  784MOL0     H 5816   9.952   7.729   5.141 -1.5628 -1.0156  2.2058
  784MOL0     H 5817   9.916   7.882   5.081  0.9889 -1.3266 -1.0888
  784MOL0     H 5818   9.993   7.790   5.370 -2.2188 -2.1235 -2.4496
  784MOL0     H 5819   9.945   7.962   5.343  1.3898  0.3656  0.7151
  784MOL0     H 5820  10.189   7.825   5.222  1.9311  1.9176  0.4189
  784MOL0     H 5821  10.184   7.932   5.351  3.4591 -1.9623 -1.1449
  784MOL0     H 5822   9.359   7.380   4.802  2.0833  2.2953  0.5446
  784MOL0     H 5823   9.246   7.221   4.691 -0.5823  0.2791  2.0085
  784MOL0     H 5824   9.093   6.941   4.552 -0.2238 -0.1489 -1.9404
  784MOL0     H 5825   8.899   6.824   4.468  0.3804  0.8482 -0.2618
  784MOL0     H 5826   7.383   5.672   5.451  1.7146  1.2491 -2.2598
  784MOL0     H 5827   7.160   5.672   5.564  0.5011 -3.1223 -1.4747
  784MOL0     H 5828   6.758   5.600   5.493  0.4409 -0.4861  0.9724
  784MOL0     H 5829   6.530   5.530   5.582  0.4688  0.0881 -0.7234
  784MOL0     H 5830   6.232   5.565   5.774  0.1112  1.7489  1.1355
  784MOL0     H 5831   6.360   5.487   5.686  1.1290  2.0590 -0.4764
  784MOL0     H 5832   6.292   5.326   5.873  2.3183 -1.9961 -0.7440
  784MOL0     H 5833   6.329   5.457   5.981  0.0136 -0.5059  0.8654
  784MOL0     H 5834   6.558   5.389   5.799  1.0957 -0.6647  0.1684
  784MOL0     H 5835   6.510   5.257   5.904 -0.0757 -0.4770  0.4881
  784MOL0     H 5836   6.549   5.538   6.011  0.5425  0.4348  0.2542
  784MOL0     H 5837   6.677   5.417   6.011  0.6960  0.6529 -0.6117
  784MOL0     H 5838   6.473   5.254   6.325 -2.1001 -1.0902 -1.2885
  784MOL0     H 5839   6.555   5.860   5.864  2.7585  0.8065  0.2622
  784MOL0     H 5840   6.752   5.931   5.759 -0.1001  0.7593 -2.3453
  785MOL0     O 5841   3.170   6.960   7.238  0.8948 -0.0718  0.0642
  785MOL0     C 5842   3.076   6.971   7.160  1.4643 -0.0977 -0.6235
  785MOL0     O 5843   2.960   6.910   7.181 -0.0334 -0.4412  0.4581
  785MOL0     C 5844   2.951   6.799   7.263 -0.3939 -0.7302 -0.2573
  785MOL0     C 5845   3.002   6.786   7.402 -0.6025 -0.1299 -0.1889
  785MOL0     C 5846   2.996   6.652   7.456  0.4403 -0.3747 -1.0844
  785MOL0     C 5847   2.959   6.541   7.376  0.4634  0.6121  1.0101
  785MOL0     O 5848   2.961   6.410   7.411  0.9146 -0.6185 -0.0687
  785MOL0     C 5849   2.954   6.362   7.540  0.2034  0.4743  0.1624
  785MOL0     C 5850   3.093   6.358   7.604 -0.0523  0.4319 -0.8917
  785MOL0     C 5851   3.188   6.276   7.514 -0.1096 -0.0741  0.4003
  785MOL0     C 5852   3.321   6.241   7.582 -0.4473 -0.8992  1.1200
  785MOL0     C 5853   3.428   6.350   7.595  0.5074  0.3147 -0.4091
  785MOL0     C 5854   3.516   6.375   7.474  0.0682 -0.7330 -0.0351
  785MOL0     C 5855   3.612   6.490   7.504 -0.7275  0.5069  0.3303
  785MOL0     C 5856   3.722   6.435   7.602 -1.5444 -0.6956  0.5944
  785MOL0     N 5857   3.837   6.528   7.609 -0.0104 -0.1337  0.5805
  785MOL0     C 5858   3.828   6.670   7.612 -0.0709 -0.4176  0.8155
  785MOL0     C 5859   3.957   6.707   7.643  0.2993 -0.3543  0.8452
  785MOL0     C 5860   4.003   6.847   7.642 -0.1976  0.2751  0.2983
  785MOL0     C 5861   4.004   6.899   7.794  0.2041 -0.1304  0.1900
  785MOL0     C 5862   3.944   7.041   7.807 -0.2027  0.0011 -0.0834
  785MOL0     C 5863   3.791   7.042   7.781 -0.2930 -0.0721 -0.3563
  785MOL0     O 5864   3.714   6.991   7.895  0.1160 -0.5540 -0.6511
  785MOL0     C 5865   3.577   6.971   7.867 -0.2262 -0.0968 -0.8596
  785MOL0     C 5866   3.503   7.026   7.754  0.3264  0.0860  0.3759
  785MOL0     C 5867   3.362   7.000   7.747 -0.3100  0.2578  0.6193
  785MOL0     C 5868   3.280   7.057   7.636 -0.9206  0.6126 -0.3613
  785MOL0     C 5869   3.299   6.916   7.844 -0.0091  0.0362 -0.6889
  785MOL0     C 5870   3.165   6.862   7.834 -0.7418 -1.5925 -0.4664
  785MOL0     O 5871   3.083   6.876   7.944 -0.3262  0.5227  0.4224
  785MOL0     C 5872   2.947   6.847   7.924  0.3354  1.3215 -0.0366
  785MOL0     C 5873   2.869   6.913   7.832  0.3230  0.0235  0.4203
  785MOL0     C 5874   2.729   6.912   7.839  0.4874  0.5931 -0.3146
  785MOL0     C 5875   2.667   6.830   7.938 -0.2883 -0.2603 -0.0250
  785MOL0     O 5876   2.527   6.823   7.948 -0.1264 -0.1222  0.6182
  785MOL0     C 5877   2.481   6.722   7.866  0.3885  0.4604  0.0354
  785MOL0     C 5878   2.328   6.754   7.869 -0.1685 -0.1355 -0.2319
  785MOL0     C 5879   2.244   6.667   7.959  0.2807  0.4769 -0.3164
  785MOL0     C 5880   2.289   6.677   8.104 -0.1884  0.0165 -0.2493
  785MOL0     C 5881   2.217   6.581   8.194  0.1981  0.2989 -0.5095
  785MOL0     C 5882   2.305   6.470   8.256  0.8860  0.1290  0.1611
  785MOL0     C 5883   2.238   6.375   8.356  0.3339 -0.0381  0.2546
  785MOL0     C 5884   2.141   6.275   8.305  0.6739 -0.3933 -0.0543
  785MOL0    Cl 5885   2.219   6.173   8.180 -0.2041 -0.1278 -0.2039
  785MOL0     C 5886   2.748   6.767   8.028  0.3150 -0.0450 -0.1498
  785MOL0     C 5887   2.881   6.777   8.031  0.5961 -0.0711  0.1683
  785MOL0     O 5888   3.134   6.820   7.723 -0.1386 -0.3215  0.1236
  785MOL0     C 5889   3.373   6.872   7.953  0.4245  0.0628 -0.8611
  785MOL0     C 5890   3.512   6.892   7.961  0.2746  1.3357 -0.5020
  785MOL0     N 5891   4.036   6.599   7.660  0.2098 -0.1762 -0.0208
  785MOL0     N 5892   3.964   6.490   7.647 -0.4585 -0.0526  0.8421
  785MOL0     C 5893   2.906   6.567   7.247 -0.3998  0.6399 -1.0959
  785MOL0     C 5894   2.896   6.688   7.198 -0.1925  0.5419  1.1005
  785MOL0     C 5895   3.090   7.066   7.040  0.3193 -0.7258  0.5927
  785MOL0     C 5896   3.197   7.139   7.023 -0.7596  0.0317 -0.3096
  785MOL0     C 5897   3.212   7.223   6.915 -0.4324  0.7221  0.2856
  785MOL0     C 5898   3.123   7.230   6.811  0.8659 -0.0799  0.5495
  785MOL0     O 5899   3.133   7.290   6.690 -0.6153 -1.2923 -0.0876
  785MOL0     C 5900   3.183   7.428   6.703 -0.3763 -0.8904 -0.3109
  785MOL0     C 5901   3.186   7.495   6.557  0.4393 -0.6258 -0.1702
  785MOL0     C 5902   3.044   7.495   6.488 -0.8467 -0.8853 -0.7066
  785MOL0     C 5903   2.925   7.535   6.567  0.3622 -0.5073 -0.6054
  785MOL0     C 5904   2.926   7.682   6.595  0.6093 -0.5026 -0.1814
  785MOL0     C 5905   2.949   7.798   6.615  0.2334  0.1636  0.8947
  785MOL0     C 5906   3.004   7.148   6.827 -0.3470 -0.8227  0.5584
  785MOL0     C 5907   2.984   7.073   6.949 -0.6565 -1.2582  0.0268
  785MOL0     H 5908   3.021   6.868   7.470 -3.9973 -0.7936  1.8011
  785MOL0     H 5909   3.021   6.641   7.561  1.7871  0.2599 -1.3138
  785MOL0     H 5910   2.885   6.422   7.599 -0.6692 -1.5166  1.2500
  785MOL0     H 5911   2.908   6.263   7.545 -0.6543  0.9127  3.5475
  785MOL0     H 5912   3.137   6.458   7.610 -2.5342  1.5014  1.9830
  785MOL0     H 5913   3.086   6.323   7.707  0.5532  2.5810 -0.0760
  785MOL0     H 5914   3.146   6.180   7.486  1.0387 -0.9562  1.5706
  785MOL0     H 5915   3.209   6.335   7.424 -3.6414  3.2119  1.4867
  785MOL0     H 5916   3.310   6.195   7.681 -0.4060  1.4050  2.2640
  785MOL0     H 5917   3.360   6.166   7.513 -0.3273  1.2108 -1.2511
  785MOL0     H 5918   3.375   6.438   7.633  1.0367 -0.4656  2.4286
  785MOL0     H 5919   3.492   6.327   7.681  0.7635 -0.5323 -0.8132
  785MOL0     H 5920   3.562   6.278   7.456 -0.5373 -1.0466  0.0921
  785MOL0     H 5921   3.455   6.387   7.384 -0.7866 -0.5129  0.5604
  785MOL0     H 5922   3.664   6.528   7.415  0.4176 -1.1239  0.2687
  785MOL0     H 5923   3.557   6.579   7.537  0.8932  1.4552  0.6241
  785MOL0     H 5924   3.764   6.347   7.554 -3.0860 -1.4061  0.4826
  785MOL0     H 5925   3.678   6.420   7.702  1.0048  0.1934  1.9456
  785MOL0     H 5926   3.742   6.736   7.603 -0.1878 -0.6351  0.3385
  785MOL0     H 5927   4.105   6.847   7.602  0.4033  0.5387  1.7749
  785MOL0     H 5928   3.946   6.911   7.573  0.2785 -0.9476 -1.2961
  785MOL0     H 5929   4.109   6.894   7.825 -0.1513 -1.3088  1.2854
  785MOL0     H 5930   3.946   6.832   7.858  0.1787 -0.9528 -0.6625
  785MOL0     H 5931   3.987   7.099   7.725 -2.0965 -2.5980 -3.1668
  785MOL0     H 5932   3.966   7.082   7.906 -0.0405 -0.2065 -0.0319
  785MOL0     H 5933   3.760   6.980   7.696 -1.0567  2.5204 -2.0828
  785MOL0     H 5934   3.761   7.141   7.745 -0.2590  0.6523  1.5320
  785MOL0     H 5935   3.545   7.091   7.678 -1.1699 -0.7428 -1.2178
  785MOL0     H 5936   3.328   7.136   7.577 -0.2343 -1.0434 -2.1205
  785MOL0     H 5937   3.255   6.977   7.566  0.6202 -0.5037  0.3033
  785MOL0     H 5938   3.190   7.109   7.672 -1.5769 -0.0262 -1.0463
  785MOL0     H 5939   2.916   6.966   7.750  1.3790 -2.3973 -0.6608
  785MOL0     H 5940   2.667   6.967   7.769 -2.1721  0.7612  1.9942
  785MOL0     H 5941   2.513   6.738   7.763 -3.1633  1.2574 -1.0721
  785MOL0     H 5942   2.507   6.622   7.903 -2.2389 -0.2967  0.0402
  785MOL0     H 5943   2.306   6.859   7.890 -2.1455 -0.1071 -2.1010
  785MOL0     H 5944   2.301   6.741   7.763  2.4073  1.3409 -1.1756
  785MOL0     H 5945   2.253   6.565   7.921 -3.8445  0.6426 -2.2322
  785MOL0     H 5946   2.137   6.684   7.947  0.3267 -0.2299 -1.9393
  785MOL0     H 5947   2.394   6.647   8.110  0.0574  0.6492 -1.1825
  785MOL0     H 5948   2.275   6.777   8.146 -0.0829  0.8815 -2.1596
  785MOL0     H 5949   2.129   6.541   8.142  0.3328 -1.0676  0.2661
  785MOL0     H 5950   2.179   6.635   8.281 -1.7742 -4.3015  1.8529
  785MOL0     H 5951   2.347   6.403   8.182  0.0129  0.1824 -0.4010
  785MOL0     H 5952   2.386   6.518   8.312  2.1927 -2.4417  0.6166
  785MOL0     H 5953   2.198   6.443   8.432 -1.9512 -0.3883 -0.5675
  785MOL0     H 5954   2.322   6.319   8.399  2.8045  2.4329 -1.0663
  785MOL0     H 5955   2.063   6.334   8.256  1.7364 -0.8188 -2.4452
  785MOL0     H 5956   2.098   6.212   8.383 -0.2853  0.8038  0.4113
  785MOL0     H 5957   2.698   6.709   8.106  1.9970  1.6337  2.3351
  785MOL0     H 5958   2.948   6.737   8.106 -1.3156 -2.3026  0.7860
  785MOL0     H 5959   3.313   6.810   8.018  1.1115  1.4345  1.1610
  785MOL0     H 5960   3.556   6.841   8.047  3.3437 -2.0319 -3.7155
  785MOL0     H 5961   2.862   6.481   7.198  1.1363 -1.3239  0.7675
  785MOL0     H 5962   2.859   6.711   7.098  0.8745 -0.1441  0.5286
  785MOL0     H 5963   3.263   7.160   7.106 -2.1399  3.4543  0.1085
  785MOL0     H 5964   3.304   7.282   6.913  2.0714 -2.8143 -1.9545
  785MOL0     H 5965   3.111   7.478   6.769  1.2172  2.4460 -0.8560
  785MOL0     H 5966   3.280   7.430   6.752 -0.4048  0.0612 -0.2753
  785MOL0     H 5967   3.261   7.457   6.487 -0.3978 -2.0621 -0.3269
  785MOL0     H 5968   3.211   7.599   6.578 -1.7361 -0.4363  1.9438
  785MOL0     H 5969   3.022   7.397   6.445  0.9206 -1.1891 -0.9963
  785MOL0     H 5970   3.054   7.556   6.398 -1.0910 -1.7548 -1.3313
  785MOL0     H 5971   2.916   7.479   6.660  0.0444  0.3583 -0.1007
  785MOL0     H 5972   2.831   7.517   6.514 -2.0325  3.9061  1.5653
  785MOL0     H 5973   2.978   7.900   6.631 -3.0049  1.3787 -0.2116
  785MOL0     H 5974   2.926   7.151   6.752  1.0384  2.7726 -0.9869
  785MOL0     H 5975   2.893   7.020   6.976 -0.6836 -2.0837 -1.5668
  786MOL0     O 5976  11.454   8.262   5.759  0.9680 -0.9171  0.2184
  786MOL0     C 5977  11.425   8.277   5.643 -0.4693  0.0363  0.2876
  786MOL0     O 5978  11.479   8.375   5.560 -0.5695  0.6739 -0.0351
  786MOL0     C 5979  11.586   8.439   5.616 -0.8113  0.4575  0.6171
  786MOL0     C 5980  11.570   8.551   5.700 -0.0742  0.3206 -1.0682
  786MOL0     C 5981  11.673   8.601   5.780 -1.0278 -0.0361  0.4051
  786MOL0     C 5982  11.798   8.542   5.763 -0.0497  0.0088  0.2412
  786MOL0     O 5983  11.908   8.575   5.844  0.1500  0.1096  0.1381
  786MOL0     C 5984  11.974   8.702   5.822  0.0046 -0.8745  0.8620
  786MOL0     C 5985  12.085   8.696   5.727  0.0319  0.1393 -0.3533
  786MOL0     C 5986  12.177   8.813   5.739  0.5420 -0.5116 -0.8902
  786MOL0     C 5987  12.321   8.786   5.683  0.4139  0.3133 -0.7571
  786MOL0     C 5988  12.321   8.812   5.528 -0.0917 -0.4455  0.0589
  786MOL0     C 5989  12.445   8.765   5.465 -0.5117  0.1244  0.6877
  786MOL0     C 5990  12.576   8.788   5.538  0.3635 -0.1502 -0.1421
  786MOL0     C 5991  12.598   8.937   5.535  0.1369  0.0302 -0.5430
  786MOL0     N 5992  12.731   8.960   5.602 -0.1400 -1.0678 -0.0611
  786MOL0     C 5993  12.850   8.955   5.529  0.0920 -0.1403 -0.2188
  786MOL0     C 5994  12.944   8.958   5.624  1.0250 -0.2712 -0.4993
  786MOL0     C 5995  13.093   8.939   5.622  0.7963  0.0756  0.2686
  786MOL0     C 5996  13.156   8.831   5.539  1.2881  0.2835 -0.6055
  786MOL0     C 5997  13.305   8.849   5.550 -0.4509  0.1064 -0.5868
  786MOL0     C 5998  13.379   8.754   5.446 -0.2831  1.5436  0.9673
  786MOL0     O 5999  13.348   8.780   5.313  0.2916 -0.2294  0.3715
  786MOL0     C 6000  13.435   8.862   5.237  0.7296  0.0375 -0.7793
  786MOL0     C 6001  13.539   8.944   5.280 -0.4858  0.2832 -0.1079
  786MOL0     C 6002  13.608   9.030   5.190 -0.1022  0.2931  0.6936
  786MOL0     C 6003  13.715   9.117   5.248  0.5982  0.0408 -0.2944
  786MOL0     C 6004  13.583   9.028   5.053  0.3688  1.3092 -0.0626
  786MOL0     C 6005  13.644   9.105   4.945  0.1999  0.7129  0.8507
  786MOL0     O 6006  13.597   9.078   4.816  0.2444 -1.0427  0.6868
  786MOL0     C 6007  13.599   9.178   4.713 -1.0574  0.8247  0.3300
  786MOL0     C 6008  13.572   9.313   4.740  0.5547  0.4942  0.0088
  786MOL0     C 6009  13.549   9.401   4.634  0.0624 -0.5984 -0.4006
  786MOL0     C 6010  13.576   9.360   4.501  0.6657  0.2298  0.6808
  786MOL0     O 6011  13.556   9.460   4.405  0.7658  0.9562  0.4935
  786MOL0     C 6012  13.657   9.473   4.302 -0.5927 -0.5143 -0.0454
  786MOL0     C 6013  13.632   9.612   4.242  0.0450  0.4003  0.1028
  786MOL0     C 6014  13.554   9.592   4.116 -0.3558  1.6577 -0.1085
  786MOL0     C 6015  13.397   9.547   4.133 -0.1522  0.2949  0.1871
  786MOL0     C 6016  13.320   9.622   4.241 -0.0468 -0.6874  0.8597
  786MOL0     C 6017  13.299   9.779   4.232 -0.6544  0.4110 -0.7719
  786MOL0     C 6018  13.247   9.840   4.370  1.0932  1.0062 -0.1871
  786MOL0     C 6019  13.362   9.827   4.467 -0.3815 -0.3568 -0.0370
  786MOL0    Cl 6020  13.336   9.933   4.601 -0.1442  0.5850 -0.4088
  786MOL0     C 6021  13.616   9.230   4.469  0.6697  0.4585 -0.3239
  786MOL0     C 6022  13.626   9.133   4.577 -0.1726  0.0318 -0.0186
  786MOL0     O 6023  13.738   9.177   4.971  1.1969  0.5750  0.5841
  786MOL0     C 6024  13.464   8.957   5.011 -0.5163 -0.4518  0.1981
  786MOL0     C 6025  13.395   8.887   5.110  0.3110  0.7215 -0.1366
  786MOL0     N 6026  12.881   8.999   5.742 -0.6837 -0.5370  0.7075
  786MOL0     N 6027  12.756   8.988   5.732  0.8118  0.6391  0.2140
  786MOL0     C 6028  11.817   8.429   5.678  0.1829 -0.4072  0.8068
  786MOL0     C 6029  11.712   8.382   5.598 -0.0639 -0.3252 -1.1949
  786MOL0     C 6030  11.324   8.179   5.582 -0.1739 -0.9390  0.7392
  786MOL0     C 6031  11.293   8.064   5.657  0.3701 -0.5434 -0.7718
  786MOL0     C 6032  11.217   7.968   5.596  1.0230 -0.1765  0.1406
  786MOL0     C 6033  11.155   7.986   5.472  0.4317  0.1479 -0.0488
  786MOL0     O 6034  11.076   7.888   5.416 -0.3337  0.8259  0.1175
  786MOL0     C 6035  10.979   7.914   5.311 -0.2813 -0.1174 -0.5277
  786MOL0     C 6036  10.859   7.833   5.345  0.3380 -0.9292  0.1171
  786MOL0     C 6037  10.740   7.840   5.245  0.2095 -0.5599  0.6861
  786MOL0     C 6038  10.614   7.770   5.311 -0.6308 -0.5915 -0.6530
  786MOL0     C 6039  10.512   7.749   5.207 -0.0883 -0.0818 -0.2740
  786MOL0     C 6040  10.418   7.744   5.118 -0.6180 -0.6065 -0.7540
  786MOL0     C 6041  11.184   8.104   5.401  0.3987  0.4279 -0.1898
  786MOL0     C 6042  11.273   8.203   5.457  0.6195  0.9601  1.0014
  786MOL0     H 6043  11.473   8.599   5.707 -0.1902  0.6767 -4.0245
  786MOL0     H 6044  11.663   8.691   5.839  0.3650  1.1218 -1.0369
  786MOL0     H 6045  11.906   8.780   5.787  1.9849  0.7577  0.4350
  786MOL0     H 6046  12.012   8.730   5.921 -0.2418 -0.1958  0.7688
  786MOL0     H 6047  12.144   8.606   5.750 -0.0048  0.1474 -0.2285
  786MOL0     H 6048  12.040   8.696   5.627 -0.3357  1.1702 -0.2035
  786MOL0     H 6049  12.122   8.892   5.689  0.3190  1.4700  2.2259
  786MOL0     H 6050  12.184   8.838   5.845  2.3012 -1.8805 -0.6186
  786MOL0     H 6051  12.397   8.848   5.732  2.7080 -3.0101  0.2389
  786MOL0     H 6052  12.359   8.687   5.710  0.3083  0.3797 -0.3496
  786MOL0     H 6053  12.227   8.778   5.482  0.7661 -0.6534 -1.6256
  786MOL0     H 6054  12.316   8.921   5.517 -0.2457 -0.2850  1.5569
  786MOL0     H 6055  12.429   8.657   5.462 -4.2572  0.5681 -2.9615
  786MOL0     H 6056  12.454   8.795   5.361  0.9178 -3.9935 -0.6026
  786MOL0     H 6057  12.576   8.753   5.641  0.9829 -2.8520 -0.9731
  786MOL0     H 6058  12.656   8.733   5.487  0.1828  0.8887 -1.6257
  786MOL0     H 6059  12.524   8.994   5.591  1.8425  1.9268 -0.0910
  786MOL0     H 6060  12.606   8.975   5.433  3.1332 -1.3432 -0.9211
  786MOL0     H 6061  12.872   8.937   5.424 -0.5851  0.0733 -0.4048
  786MOL0     H 6062  13.130   9.037   5.590 -2.4792  1.4785  0.3821
  786MOL0     H 6063  13.130   8.914   5.722 -1.6898  0.4005  1.3286
  786MOL0     H 6064  13.124   8.845   5.435 -2.4427  2.4465  0.6757
  786MOL0     H 6065  13.126   8.733   5.577 -2.4591  1.6414  0.3170
  786MOL0     H 6066  13.337   8.837   5.654  2.0528  0.6521 -1.2241
  786MOL0     H 6067  13.344   8.944   5.513  1.0671 -1.2632 -2.6846
  786MOL0     H 6068  13.338   8.654   5.462  1.1001  1.0298  1.4579
  786MOL0     H 6069  13.487   8.746   5.461  0.0102  1.9678 -0.6274
  786MOL0     H 6070  13.568   8.937   5.384  1.1901 -2.1034 -0.6382
  786MOL0     H 6071  13.710   9.222   5.221 -0.4917 -0.3172 -1.5782
  786MOL0     H 6072  13.718   9.109   5.357  2.3679 -2.4610 -0.4316
  786MOL0     H 6073  13.816   9.086   5.216 -0.4994 -1.4337 -2.6108
  786MOL0     H 6074  13.532   9.328   4.840 -0.7731 -2.8866  0.1286
  786MOL0     H 6075  13.494   9.491   4.659  0.5706 -0.3554 -0.1458
  786MOL0     H 6076  13.758   9.465   4.344 -1.2918 -1.3999  1.5324
  786MOL0     H 6077  13.639   9.387   4.237  1.4473 -1.8264  1.0204
  786MOL0     H 6078  13.588   9.686   4.309  0.9268  0.6904  0.3873
  786MOL0     H 6079  13.731   9.644   4.209  0.3373  0.1070  0.6716
  786MOL0     H 6080  13.609   9.528   4.047 -1.6255 -0.1410  0.4781
  786MOL0     H 6081  13.558   9.695   4.078 -3.1164  2.1372  0.7166
  786MOL0     H 6082  13.341   9.548   4.039  0.3388 -1.3689 -0.1549
  786MOL0     H 6083  13.402   9.442   4.163 -1.6225  0.1668  0.0165
  786MOL0     H 6084  13.373   9.599   4.334  0.1297 -3.5969  0.1196
  786MOL0     H 6085  13.221   9.575   4.249 -2.8819  3.7756 -2.7253
  786MOL0     H 6086  13.397   9.826   4.217 -0.7863  1.8668  2.1829
  786MOL0     H 6087  13.221   9.807   4.160 -0.0043  3.0327 -0.5731
  786MOL0     H 6088  13.170   9.779   4.418  1.6399  0.8813  0.5572
  786MOL0     H 6089  13.209   9.941   4.355 -1.7375  0.3547  1.7061
  786MOL0     H 6090  13.456   9.851   4.415 -0.3351 -0.1411  0.1435
  786MOL0     H 6091  13.384   9.724   4.496  1.8729  0.5867  1.9251
  786MOL0     H 6092  13.638   9.205   4.365  1.4856 -5.0812  0.8579
  786MOL0     H 6093  13.668   9.038   4.547  0.8043  0.1684  0.8291
  786MOL0     H 6094  13.430   8.958   4.908  3.3346 -0.5120 -1.2503
  786MOL0     H 6095  13.297   8.848   5.088 -0.3674  1.1401  1.9758
  786MOL0     H 6096  11.913   8.382   5.659  0.0267 -0.2016 -0.5988
  786MOL0     H 6097  11.720   8.292   5.537 -0.2978 -1.9698  1.0655
  786MOL0     H 6098  11.330   8.042   5.757  0.3113  1.2917 -0.3136
  786MOL0     H 6099  11.208   7.878   5.656  0.2815 -0.0851  0.1751
  786MOL0     H 6100  10.954   8.021   5.303 -1.3017 -0.4404 -2.2075
  786MOL0     H 6101  11.022   7.888   5.215  0.7675  0.5404 -0.2574
  786MOL0     H 6102  10.818   7.857   5.444 -3.6826 -1.8845 -1.1577
  786MOL0     H 6103  10.899   7.732   5.351 -1.2896 -1.5964  0.0899
  786MOL0     H 6104  10.766   7.783   5.155 -1.4827  0.0362 -0.2319
  786MOL0     H 6105  10.712   7.944   5.223 -0.3209 -0.9867 -0.7911
  786MOL0     H 6106  10.567   7.827   5.392 -5.6241 -1.7241 -2.4224
  786MOL0     H 6107  10.647   7.672   5.347 -0.5114 -0.6892 -1.0277
  786MOL0     H 6108  10.343   7.769   5.046 -2.1917  2.0121  1.5890
  786MOL0     H 6109  11.157   8.112   5.297  1.5372  1.2644 -0.4425
  786MOL0     H 6110  11.319   8.275   5.391  4.6588 -2.4986 -0.4168
  787MOL0     O 6111   1.005   5.923   9.969  0.8469 -0.0177 -1.0288
  787MOL0     C 6112   0.931   6.020   9.972  0.4873  0.6549 -0.3847
  787MOL0     O 6113   0.879   6.082  10.082 -0.0381  0.8843  0.1303
  787MOL0     C 6114   0.887   6.025  10.204  0.0612  0.0725 -0.5203
  787MOL0     C 6115   0.793   5.921  10.225 -0.2640  0.2966 -0.1088
  787MOL0     C 6116   0.781   5.863  10.351 -0.1408  1.2309  0.5314
  787MOL0     C 6117   0.857   5.901  10.461 -0.1878 -0.4518  0.8996
  787MOL0     O 6118   0.839   5.858  10.585 -0.0286 -0.3392  0.3753
  787MOL0     C 6119   0.922   5.740  10.606  0.1132  0.4763 -0.0196
  787MOL0     C 6120   1.003   5.764  10.736  0.0996 -0.0072 -0.0042
  787MOL0     C 6121   1.126   5.855  10.719 -0.3608 -0.4346 -0.1086
  787MOL0     C 6122   1.235   5.853  10.824  0.9252  1.1373  0.4533
  787MOL0     C 6123   1.188   5.919  10.964  0.1624  0.0892  0.6785
  787MOL0     C 6124   1.301   5.958  11.061 -0.1522 -0.1017 -0.8720
  787MOL0     C 6125   1.370   6.091  11.042  0.0193  0.1338 -0.6390
  787MOL0     C 6126   1.473   6.116  11.150  0.6103  0.6270  0.3735
  787MOL0     N 6127   1.530   6.252  11.132 -0.6744 -1.0469  0.2240
  787MOL0     C 6128   1.468   6.375  11.129  1.1503 -0.5184  0.1850
  787MOL0     C 6129   1.566   6.473  11.132 -0.3394  0.3014  0.3572
  787MOL0     C 6130   1.547   6.618  11.127  0.4749 -0.0649  0.2365
  787MOL0     C 6131   1.447   6.674  11.221 -0.5713  0.0961 -0.5301
  787MOL0     C 6132   1.428   6.820  11.233  0.8576 -0.5432  0.0895
  787MOL0     C 6133   1.334   6.885  11.128 -0.2870 -0.2072 -0.3205
  787MOL0     O 6134   1.367   6.853  10.994  0.2980 -0.2676  0.0978
  787MOL0     C 6135   1.280   6.881  10.892  0.9004  0.1418 -0.2016
  787MOL0     C 6136   1.155   6.954  10.901 -0.5714  0.0978 -0.1725
  787MOL0     C 6137   1.080   6.972  10.781 -1.2202  0.5567 -0.5383
  787MOL0     C 6138   0.954   7.055  10.802  0.9025 -0.3577  0.0184
  787MOL0     C 6139   1.126   6.921  10.652 -0.1100  0.1733  0.3268
  787MOL0     C 6140   1.052   6.951  10.531  0.1708  0.6132  0.0105
  787MOL0     O 6141   1.072   6.857  10.427  0.0694 -0.7314 -0.1669
  787MOL0     C 6142   1.029   6.890  10.307  0.0240 -0.4131  0.1662
  787MOL0     C 6143   0.899   6.922  10.265  0.4631 -0.5236 -0.0949
  787MOL0     C 6144   0.869   6.969  10.136 -0.1031 -0.2695 -0.1130
  787MOL0     C 6145   0.967   6.979  10.042  0.3918 -0.5640  1.0632
  787MOL0     O 6146   0.945   7.029   9.913 -0.7846 -0.2818  0.1713
  787MOL0     C 6147   1.006   7.156   9.891  0.2072  0.5901  0.0900
  787MOL0     C 6148   0.972   7.224   9.764 -0.5512 -0.5940 -0.1619
  787MOL0     C 6149   1.081   7.338   9.735 -0.6553  0.3663  0.2556
  787MOL0     C 6150   1.095   7.362   9.587  0.7193  0.3350  0.3556
  787MOL0     C 6151   1.208   7.458   9.555  1.1238 -1.0227  0.3662
  787MOL0     C 6152   1.215   7.484   9.406  0.2326 -0.0040  0.8205
  787MOL0     C 6153   1.357   7.513   9.354  1.0746  0.1069 -0.6153
  787MOL0     C 6154   1.405   7.650   9.411  0.3967  0.6766 -1.4866
  787MOL0    Cl 6155   1.538   7.698   9.322  0.1370  0.6254 -0.2699
  787MOL0     C 6156   1.093   6.928  10.079  0.1755  0.3299 -0.3140
  787MOL0     C 6157   1.123   6.885  10.204  0.1644 -0.3490  0.1704
  787MOL0     O 6158   0.992   7.059  10.515  1.1183  0.1658 -0.0337
  787MOL0     C 6159   1.240   6.837  10.658 -0.7988  0.0456 -0.0956
  787MOL0     C 6160   1.308   6.805  10.776  0.2347 -0.2680  0.3158
  787MOL0     N 6161   1.686   6.412  11.119  0.7176 -1.2906 -0.3276
  787MOL0     N 6162   1.663   6.282  11.137 -0.0218  0.3148 -0.6355
  787MOL0     C 6163   0.954   6.001  10.438  0.4589  0.6396  0.9671
  787MOL0     C 6164   0.974   6.063  10.307 -1.0789 -0.3020 -0.3783
  787MOL0     C 6165   0.891   6.080   9.842  0.4025  0.2430  0.4595
  787MOL0     C 6166   0.780   6.171   9.839 -0.0550 -0.5340 -0.1998
  787MOL0     C 6167   0.736   6.231   9.724  0.2368  0.1812  0.7485
  787MOL0     C 6168   0.803   6.194   9.604 -0.5834 -0.2876  0.2513
  787MOL0     O 6169   0.760   6.245   9.485 -0.1793  0.2149  0.4374
  787MOL0     C 6170   0.732   6.392   9.478 -1.1463  0.5769  0.8550
  787MOL0     C 6171   0.587   6.424   9.478 -0.1658 -0.0273  0.0542
  787MOL0     C 6172   0.512   6.327   9.395  0.6897  0.1551  0.1469
  787MOL0     C 6173   0.360   6.383   9.381 -0.4831  0.4612 -0.7926
  787MOL0     C 6174   0.271   6.283   9.321 -0.1941  0.3100 -0.7041
  787MOL0     C 6175   0.198   6.200   9.268  0.2671 -0.6128 -0.4764
  787MOL0     C 6176   0.912   6.109   9.603  0.5159 -0.7847 -0.6038
  787MOL0     C 6177   0.965   6.055   9.723 -0.3533 -0.1803 -0.2792
  787MOL0     H 6178   0.735   5.876  10.145  0.2321 -0.6994  0.0774
  787MOL0     H 6179   0.710   5.784  10.373 -0.8744  1.5221 -0.7174
  787MOL0     H 6180   0.848   5.666  10.640 -1.6229  2.4632  0.7542
  787MOL0     H 6181   0.979   5.700  10.522  1.2223 -1.2578  1.4745
  787MOL0     H 6182   0.937   5.819  10.804 -2.4387 -0.7668 -1.7379
  787MOL0     H 6183   1.039   5.674  10.787 -0.5868 -0.9657 -1.1687
  787MOL0     H 6184   1.184   5.814  10.636  1.7312  2.1216 -0.0601
  787MOL0     H 6185   1.101   5.958  10.693  1.8916  0.2005 -0.0313
  787MOL0     H 6186   1.266   5.750  10.844 -1.8335  0.4710  1.7904
  787MOL0     H 6187   1.319   5.907  10.780  0.9756  0.9529  0.3197
  787MOL0     H 6188   1.117   6.000  10.945 -0.2969 -0.8577 -2.2115
  787MOL0     H 6189   1.137   5.839  11.018 -0.8599 -0.8036 -1.4492
  787MOL0     H 6190   1.267   5.954  11.165  2.4544  1.3562  0.1295
  787MOL0     H 6191   1.381   5.887  11.040  0.8634  1.2248 -1.6758
  787MOL0     H 6192   1.425   6.101  10.948 -0.9490  2.0992 -1.0528
  787MOL0     H 6193   1.294   6.169  11.034  1.0575  1.7606  3.0391
  787MOL0     H 6194   1.559   6.050  11.135 -0.0745  0.2091 -2.1212
  787MOL0     H 6195   1.438   6.103  11.253  1.6267  2.2774  0.9659
  787MOL0     H 6196   1.362   6.398  11.131  1.1988 -0.3484  1.7167
  787MOL0     H 6197   1.648   6.659  11.129  0.3101  0.3043  1.6265
  787MOL0     H 6198   1.506   6.659  11.034 -0.6326  1.9967  1.5650
  787MOL0     H 6199   1.484   6.645  11.320  1.6963  0.9447 -1.0517
  787MOL0     H 6200   1.349   6.629  11.206 -1.3915  1.7375 -0.2863
  787MOL0     H 6201   1.522   6.873  11.216  0.5078 -0.2810 -1.0922
  787MOL0     H 6202   1.384   6.835  11.333 -1.1946  1.2326 -0.9976
  787MOL0     H 6203   1.313   6.991  11.145 -1.4271 -0.5048  0.2796
  787MOL0     H 6204   1.235   6.841  11.147 -0.4652  1.2396  2.6891
  787MOL0     H 6205   1.114   7.010  10.984  0.4039  0.9795 -0.2657
  787MOL0     H 6206   0.882   7.001  10.740  0.7545  0.8139 -0.8859
  787MOL0     H 6207   0.917   7.078  10.902  0.1160 -0.2289 -0.2944
  787MOL0     H 6208   0.965   7.153  10.753 -1.3955  1.4817  2.8391
  787MOL0     H 6209   0.814   6.929  10.333  0.6743  0.6467  0.0651
  787MOL0     H 6210   0.769   7.003  10.111  0.2770  1.6068  0.7022
  787MOL0     H 6211   0.967   7.225   9.965  1.0912  0.9745  0.2160
  787MOL0     H 6212   1.114   7.142   9.902  0.0965 -1.7001 -1.1191
  787MOL0     H 6213   0.973   7.154   9.680 -1.1042 -0.0273 -0.6451
  787MOL0     H 6214   0.870   7.259   9.780  0.3340  1.9830  0.2678
  787MOL0     H 6215   1.182   7.302   9.757 -0.1950  1.6704  0.3620
  787MOL0     H 6216   1.068   7.432   9.790  0.6839  0.2161  0.8901
  787MOL0     H 6217   1.122   7.266   9.541 -0.7967 -1.1230  2.3188
  787MOL0     H 6218   0.992   7.376   9.554  1.0779 -0.2562 -1.0599
  787MOL0     H 6219   1.305   7.414   9.576  0.8090 -1.6810  0.4600
  787MOL0     H 6220   1.191   7.549   9.614  3.6507  2.4879 -3.6796
  787MOL0     H 6221   1.177   7.388   9.368 -1.5471 -0.3091  3.1725
  787MOL0     H 6222   1.159   7.568   9.365  2.2032  0.0546 -2.0766
  787MOL0     H 6223   1.342   7.535   9.248  0.9248  0.8009 -0.4588
  787MOL0     H 6224   1.430   7.432   9.363  0.7706 -0.1651 -0.5874
  787MOL0     H 6225   1.438   7.633   9.514 -1.4077 -1.5181 -1.1785
  787MOL0     H 6226   1.317   7.714   9.406 -2.2668 -2.6694 -1.0909
  787MOL0     H 6227   1.173   6.930  10.005  0.1988 -1.0560 -0.3675
  787MOL0     H 6228   1.225   6.853  10.222  0.2984 -0.8743 -1.3164
  787MOL0     H 6229   1.288   6.805  10.566  2.5662  2.0548  0.7892
  787MOL0     H 6230   1.381   6.725  10.778  0.3281 -0.2255 -0.8304
  787MOL0     H 6231   1.020   6.029  10.519 -1.1691  0.3103  2.4708
  787MOL0     H 6232   1.036   6.147  10.279 -0.6736 -1.2159 -2.3710
  787MOL0     H 6233   0.716   6.184   9.926  1.7569  2.5255  0.8142
  787MOL0     H 6234   0.654   6.302   9.730 -2.3972 -2.4541 -0.9425
  787MOL0     H 6235   0.784   6.440   9.562 -0.3182 -0.7785  1.1483
  787MOL0     H 6236   0.775   6.435   9.387  0.8064  1.6426  2.1942
  787MOL0     H 6237   0.576   6.520   9.426 -0.9507  0.1810  0.5963
  787MOL0     H 6238   0.545   6.418   9.578  1.1110 -1.3519  0.5496
  787MOL0     H 6239   0.511   6.224   9.432 -1.5758 -0.0345 -0.2988
  787MOL0     H 6240   0.556   6.323   9.294 -2.0328 -0.8592 -1.0930
  787MOL0     H 6241   0.349   6.476   9.326  2.0917  0.7077 -1.0085
  787MOL0     H 6242   0.319   6.404   9.480  1.6925  2.4376 -0.2227
  787MOL0     H 6243   0.122   6.131   9.235  1.2985 -1.3620 -1.3583
  787MOL0     H 6244   0.961   6.074   9.513  1.4543  0.4393 -0.5966
  787MOL0     H 6245   1.059   6.001   9.729 -0.9490 -1.1422  1.1190
  788MOL0     O 6246   3.062   7.259   2.326 -0.1035 -0.3656  0.3076
  788MOL0     C 6247   3.067   7.359   2.249 -0.1921  0.3996 -1.2338
  788MOL0     O 6248   3.014   7.373   2.120  0.2186 -0.1964  0.0475
  788MOL0     C 6249   2.959   7.269   2.061  0.5558  0.2425 -0.1425
  788MOL0     C 6250   3.035   7.164   2.027 -0.7288  0.0713  0.2016
  788MOL0     C 6251   2.987   7.041   1.969 -1.2991  0.6275 -0.2490
  788MOL0     C 6252   2.856   7.039   1.931  0.8144  0.2907  1.1004
  788MOL0     O 6253   2.810   6.934   1.858 -0.2105  0.5175  0.5309
  788MOL0     C 6254   2.902   6.861   1.774  0.0395 -0.7103  0.1701
  788MOL0     C 6255   2.827   6.763   1.679 -0.1472 -1.5212 -0.3241
  788MOL0     C 6256   2.753   6.659   1.758  0.1482  0.7245  0.7031
  788MOL0     C 6257   2.736   6.540   1.669  0.7179  0.7043 -0.4457
  788MOL0     C 6258   2.636   6.452   1.739 -0.1982 -0.1877 -0.1735
  788MOL0     C 6259   2.596   6.335   1.668 -0.0591  0.5723  0.8382
  788MOL0     C 6260   2.489   6.276   1.752 -0.3657  0.9378  0.4737
  788MOL0     C 6261   2.451   6.138   1.697  0.4301  0.4217  0.6889
  788MOL0     N 6262   2.364   6.064   1.787  0.2012 -0.2681  0.2315
  788MOL0     C 6263   2.269   5.987   1.728 -0.1684 -0.0179  0.6432
  788MOL0     C 6264   2.181   5.950   1.826  0.9355 -0.3768  0.0671
  788MOL0     C 6265   2.054   5.859   1.806  0.1251  0.6016 -0.1087
  788MOL0     C 6266   1.914   5.927   1.774  0.5689  0.4371 -0.1247
  788MOL0     C 6267   1.789   5.848   1.799  0.0859  1.3705 -0.4143
  788MOL0     C 6268   1.775   5.722   1.703 -0.8945 -0.6349  0.4125
  788MOL0     O 6269   1.766   5.762   1.567  0.0220 -0.6537 -0.2605
  788MOL0     C 6270   1.737   5.665   1.477  1.2102 -1.4676  0.6627
  788MOL0     C 6271   1.780   5.699   1.346 -0.0243 -0.1847 -0.1087
  788MOL0     C 6272   1.756   5.614   1.238  0.8032 -0.2655  0.1552
  788MOL0     C 6273   1.784   5.666   1.101 -0.8725 -0.1275 -0.4287
  788MOL0     C 6274   1.700   5.483   1.260 -0.7203 -0.1090  0.7370
  788MOL0     C 6275   1.673   5.385   1.144  0.3463  0.0812 -0.2186
  788MOL0     O 6276   1.762   5.390   1.039 -0.1505 -0.0196  0.3442
  788MOL0     C 6277   1.754   5.300   0.937 -0.1997  0.0104  0.3169
  788MOL0     C 6278   1.670   5.318   0.818  0.4860 -0.6378 -0.8975
  788MOL0     C 6279   1.650   5.228   0.723  0.3837 -0.1279 -0.4725
  788MOL0     C 6280   1.732   5.109   0.720  1.1226  0.0915  0.7078
  788MOL0     O 6281   1.744   5.014   0.622  0.1604  0.2959  0.4759
  788MOL0     C 6282   1.625   4.938   0.597  0.9300  0.1119 -0.4724
  788MOL0     C 6283   1.648   4.866   0.461  0.1161  0.0720 -0.5773
  788MOL0     C 6284   1.542   4.768   0.417  0.8364  0.7367  0.5062
  788MOL0     C 6285   1.555   4.624   0.470 -0.0313 -0.4205 -0.1948
  788MOL0     C 6286   1.487   4.513   0.387  0.2248  0.5591  0.5675
  788MOL0     C 6287   1.521   4.376   0.456  0.1970 -0.4992  0.8510
  788MOL0     C 6288   1.437   4.263   0.392  0.7374  0.4026  0.2559
  788MOL0     C 6289   1.469   4.123   0.454 -0.5806 -0.1537  0.5629
  788MOL0    Cl 6290   1.446   4.117   0.627  0.2565 -0.1913 -0.0782
  788MOL0     C 6291   1.829   5.100   0.824  0.2084 -0.0906  0.3168
  788MOL0     C 6292   1.834   5.187   0.926 -0.2327 -0.5741  0.8336
  788MOL0     O 6293   1.573   5.316   1.156 -0.0241 -0.5026  0.5397
  788MOL0     C 6294   1.663   5.453   1.383 -0.1993  0.0226 -0.4197
  788MOL0     C 6295   1.678   5.542   1.490 -0.3245  0.9880 -0.2338
  788MOL0     N 6296   2.229   5.985   1.944  0.0456 -0.3802 -1.1528
  788MOL0     N 6297   2.331   6.068   1.916 -0.3695  0.4396  0.2756
  788MOL0     C 6298   2.769   7.152   1.937 -0.0535 -0.0501 -0.7946
  788MOL0     C 6299   2.829   7.263   2.004  0.5787  0.7702  0.2765
  788MOL0     C 6300   3.139   7.471   2.301  0.2438  0.3939  0.5469
  788MOL0     C 6301   3.184   7.573   2.221  0.7221 -0.9426 -0.3746
  788MOL0     C 6302   3.251   7.683   2.265 -0.3647 -1.3707 -0.3751
  788MOL0     C 6303   3.278   7.703   2.404 -0.7644  0.4842  0.8079
  788MOL0     O 6304   3.365   7.795   2.474  1.1482  0.2111 -0.2880
  788MOL0     C 6305   3.365   7.930   2.412  0.4009  0.7074  0.1053
  788MOL0     C 6306   3.243   8.012   2.441  0.2894 -0.5632  0.5736
  788MOL0     C 6307   3.187   8.015   2.586  0.2958  0.2655  0.5107
  788MOL0     C 6308   3.050   8.073   2.605  0.1560  0.9957 -0.0022
  788MOL0     C 6309   3.065   8.221   2.582 -0.0462  0.6674 -0.6321
  788MOL0     C 6310   3.070   8.337   2.564  1.0523 -0.2318  0.2745
  788MOL0     C 6311   3.234   7.597   2.487 -0.8476  0.8427  0.5707
  788MOL0     C 6312   3.175   7.483   2.437 -1.1225  0.0229 -0.3065
  788MOL0     H 6313   3.139   7.163   2.057 -0.8167 -0.0483  0.5017
  788MOL0     H 6314   3.062   6.965   1.954 -1.9576  0.1112 -0.9398
  788MOL0     H 6315   2.957   6.934   1.714 -1.5841  1.3288  1.0163
  788MOL0     H 6316   2.966   6.802   1.840  0.6066 -0.7204 -0.3798
  788MOL0     H 6317   2.751   6.820   1.625 -0.8324 -0.0115  2.0779
  788MOL0     H 6318   2.887   6.725   1.596 -0.4303  0.8278 -1.7184
  788MOL0     H 6319   2.819   6.627   1.839 -0.5300 -0.9318  0.6447
  788MOL0     H 6320   2.659   6.697   1.800 -1.6078  2.3466 -4.0949
  788MOL0     H 6321   2.701   6.566   1.569  0.3881 -0.6925 -0.7068
  788MOL0     H 6322   2.829   6.486   1.653  0.7967  0.9104 -0.6851
  788MOL0     H 6323   2.689   6.425   1.832  1.8724  3.8715  0.0597
  788MOL0     H 6324   2.546   6.507   1.767  1.8219  1.9513  2.8258
  788MOL0     H 6325   2.561   6.354   1.567 -2.9648 -2.5019  1.1089
  788MOL0     H 6326   2.681   6.267   1.662 -0.0271  0.3636  2.7535
  788MOL0     H 6327   2.513   6.279   1.858  4.5393  2.3349 -0.4537
  788MOL0     H 6328   2.401   6.340   1.738 -1.1952 -0.1579  0.4767
  788MOL0     H 6329   2.544   6.085   1.677 -0.4833 -0.9599 -0.1083
  788MOL0     H 6330   2.396   6.167   1.607  4.4059  0.8101 -1.8274
  788MOL0     H 6331   2.257   5.975   1.621  4.2570  1.6331 -0.2521
  788MOL0     H 6332   2.066   5.793   1.719 -0.9934  0.6182 -0.2911
  788MOL0     H 6333   2.046   5.789   1.890  2.1201 -1.2834 -1.3713
  788MOL0     H 6334   1.911   5.973   1.675  3.3620  2.2014  0.4883
  788MOL0     H 6335   1.891   6.003   1.849  0.1722  0.8596 -0.6673
  788MOL0     H 6336   1.700   5.911   1.810 -0.6841 -0.0017  2.2458
  788MOL0     H 6337   1.798   5.811   1.902 -0.4405  0.9360 -0.5160
  788MOL0     H 6338   1.685   5.669   1.734 -0.4458 -0.8335  1.4025
  788MOL0     H 6339   1.860   5.653   1.700 -0.5516 -0.1944 -0.9634
  788MOL0     H 6340   1.824   5.796   1.324  0.6591 -0.9486 -2.3953
  788MOL0     H 6341   1.700   5.661   1.031 -0.4701 -2.4392 -0.8163
  788MOL0     H 6342   1.800   5.774   1.113 -2.0210  0.0606 -0.4957
  788MOL0     H 6343   1.873   5.615   1.062 -1.0626 -1.7284  1.1377
  788MOL0     H 6344   1.630   5.418   0.811  0.2543 -0.5072  1.4776
  788MOL0     H 6345   1.576   5.255   0.648 -0.5337  2.8218  1.3167
  788MOL0     H 6346   1.619   4.856   0.669  3.1684 -0.8541 -1.2770
  788MOL0     H 6347   1.532   4.992   0.584  0.9927  0.0707 -1.1247
  788MOL0     H 6348   1.653   4.945   0.385 -2.9229 -0.5110 -1.4826
  788MOL0     H 6349   1.745   4.816   0.457 -1.3935 -3.3527  1.5326
  788MOL0     H 6350   1.552   4.760   0.309  0.3299 -3.4327  0.6172
  788MOL0     H 6351   1.443   4.807   0.444  1.2210  2.1106 -0.0115
  788MOL0     H 6352   1.661   4.601   0.481  0.6573  2.0051 -0.9782
  788MOL0     H 6353   1.535   4.621   0.577  0.7929 -0.7121 -0.0385
  788MOL0     H 6354   1.517   4.512   0.282 -2.4550  0.6906 -0.2729
  788MOL0     H 6355   1.378   4.522   0.394 -0.2782  0.0917 -4.0015
  788MOL0     H 6356   1.628   4.357   0.440  0.4720  1.7805 -0.3522
  788MOL0     H 6357   1.501   4.378   0.563  3.2688 -0.1379  1.5023
  788MOL0     H 6358   1.464   4.241   0.288  1.7213  1.8802  0.1795
  788MOL0     H 6359   1.332   4.290   0.399  0.0425 -1.9785 -0.1019
  788MOL0     H 6360   1.573   4.102   0.429 -0.9747 -1.6927  0.0950
  788MOL0     H 6361   1.405   4.047   0.407  1.5207 -3.6586  2.9290
  788MOL0     H 6362   1.883   5.007   0.808  0.7173  0.4947 -1.7445
  788MOL0     H 6363   1.911   5.153   0.996  0.5013 -1.1315 -0.2168
  788MOL0     H 6364   1.619   5.355   1.399  2.5309 -1.0741  0.8040
  788MOL0     H 6365   1.647   5.515   1.590  0.9897  0.4497  0.0471
  788MOL0     H 6366   2.677   7.167   1.881 -0.5351  1.0873  0.2488
  788MOL0     H 6367   2.776   7.358   2.005 -3.3630 -1.1537  4.0369
  788MOL0     H 6368   3.163   7.575   2.114  1.7758  0.8775 -0.5912
  788MOL0     H 6369   3.290   7.761   2.200 -1.8195  0.5564  0.9620
  788MOL0     H 6370   3.452   7.988   2.445  3.9639 -3.3829 -1.2121
  788MOL0     H 6371   3.378   7.937   2.304 -0.6790  4.3369  0.0632
  788MOL0     H 6372   3.170   7.971   2.370 -1.8546  1.5210  1.4357
  788MOL0     H 6373   3.249   8.115   2.403 -8.4859  0.7410  0.6648
  788MOL0     H 6374   3.248   8.073   2.656  1.2521  2.5604 -2.0308
  788MOL0     H 6375   3.192   7.911   2.620 -1.9644 -0.5314 -1.3699
  788MOL0     H 6376   3.014   8.066   2.707 -0.5204 -2.5134 -0.3648
  788MOL0     H 6377   2.977   8.031   2.536  0.2321 -2.2820  1.7474
  788MOL0     H 6378   3.071   8.443   2.549 -0.6210  0.6249  4.7191
  788MOL0     H 6379   3.264   7.609   2.591 -2.7089 -0.0979  1.2460
  788MOL0     H 6380   3.143   7.417   2.517 -1.8967  2.7066  1.7503
  789MOL0     O 6381   9.548   7.635   7.320 -0.1544  0.8245 -1.2522
  789MOL0     C 6382   9.631   7.653   7.236 -0.4616 -0.1258 -0.5538
  789MOL0     O 6383   9.763   7.691   7.246 -0.1894  0.1747 -0.2175
  789MOL0     C 6384   9.793   7.739   7.371 -0.3312 -0.5933 -0.7495
  789MOL0     C 6385   9.812   7.875   7.404 -0.4743  0.1937 -0.1137
  789MOL0     C 6386   9.842   7.913   7.537 -0.3879 -0.3143  0.0313
  789MOL0     C 6387   9.874   7.816   7.626  0.6064  0.5095 -0.1110
  789MOL0     O 6388   9.906   7.844   7.758  0.0021  0.3422 -0.2663
  789MOL0     C 6389   9.908   7.982   7.803  0.4488  0.0870 -0.4099
  789MOL0     C 6390   9.940   7.974   7.953  0.7961 -0.3122 -0.5015
  789MOL0     C 6391  10.078   7.956   7.988 -0.6000 -0.2816  0.2282
  789MOL0     C 6392  10.125   7.993   8.135  0.5443  0.7002  0.7617
  789MOL0     C 6393  10.264   7.950   8.185 -1.4085 -0.2047 -0.1377
  789MOL0     C 6394  10.372   8.062   8.194  0.4234 -0.6771  0.0742
  789MOL0     C 6395  10.387   8.127   8.048  0.4594 -0.1331  0.7137
  789MOL0     C 6396  10.518   8.199   8.024  0.1672 -0.5412 -0.5426
  789MOL0     N 6397  10.537   8.324   8.095 -0.9763 -1.0385  0.1351
  789MOL0     C 6398  10.437   8.413   8.113  0.4453  0.3693  0.3328
  789MOL0     C 6399  10.480   8.500   8.211 -0.8050 -0.0164  0.1884
  789MOL0     C 6400  10.412   8.622   8.255  0.8544  0.6131 -0.1627
  789MOL0     C 6401  10.502   8.746   8.276 -0.2964 -0.8744  0.1338
  789MOL0     C 6402  10.514   8.826   8.152 -0.3817  0.0821 -0.4765
  789MOL0     C 6403  10.616   8.761   8.055 -0.9052  0.5778  0.8136
  789MOL0     O 6404  10.630   8.870   7.969  0.6297 -0.1373 -0.0137
  789MOL0     C 6405  10.555   8.872   7.855 -0.4147  0.0835  0.1915
  789MOL0     C 6406  10.521   8.760   7.777 -0.0150  0.1212 -0.1704
  789MOL0     C 6407  10.429   8.766   7.675 -0.4474 -1.0069  0.3619
  789MOL0     C 6408  10.388   8.642   7.607  0.2951 -1.5660  0.3287
  789MOL0     C 6409  10.392   8.892   7.623  0.2498 -0.0444  0.2571
  789MOL0     C 6410  10.281   8.924   7.520 -0.2545 -0.0599  1.1599
  789MOL0     O 6411  10.199   8.817   7.487 -0.5144 -0.3766 -0.7929
  789MOL0     C 6412  10.118   8.834   7.387  1.6703  0.1370 -0.5453
  789MOL0     C 6413  10.146   8.809   7.255 -0.5406  0.0848  0.7320
  789MOL0     C 6414  10.051   8.836   7.152 -0.3097  0.0326  0.0643
  789MOL0     C 6415   9.927   8.896   7.188  1.1108  0.2859  0.0137
  789MOL0     O 6416   9.841   8.925   7.088  0.3188  0.1410 -0.8035
  789MOL0     C 6417   9.852   9.057   7.036  0.5026  0.9733  0.6965
  789MOL0     C 6418   9.717   9.118   7.017  0.2565  0.3869 -0.1133
  789MOL0     C 6419   9.606   9.030   6.962 -0.2978  0.0352 -0.6233
  789MOL0     C 6420   9.481   9.114   6.907 -0.3861  0.1785 -0.6449
  789MOL0     C 6421   9.364   9.038   6.841 -0.0258  0.3290  1.1859
  789MOL0     C 6422   9.229   9.121   6.835 -0.2655 -0.3483 -0.6205
  789MOL0     C 6423   9.112   9.061   6.765 -0.7349  0.8833  0.1424
  789MOL0     C 6424   9.128   9.084   6.616 -1.1036 -0.6104  0.2016
  789MOL0    Cl 6425   9.004   9.014   6.514 -0.1624 -0.2661 -0.3508
  789MOL0     C 6426   9.899   8.935   7.320 -0.6075  0.3288  0.5252
  789MOL0     C 6427  10.003   8.912   7.415  0.8715  0.7677 -0.0323
  789MOL0     O 6428  10.271   9.031   7.473 -0.3366 -1.0223 -0.1620
  789MOL0     C 6429  10.439   9.008   7.690  0.2997  0.4946  1.1820
  789MOL0     C 6430  10.515   9.003   7.807  0.2610  0.1930 -0.6976
  789MOL0     N 6431  10.605   8.461   8.250  0.1408  0.0665 -0.4190
  789MOL0     N 6432  10.643   8.360   8.176  0.0692 -0.0476  0.6765
  789MOL0     C 6433   9.862   7.680   7.594  0.3162 -1.1159  0.5065
  789MOL0     C 6434   9.810   7.642   7.468 -0.0081  0.3790 -0.4624
  789MOL0     C 6435   9.580   7.648   7.098  0.5427  0.4319 -0.0704
  789MOL0     C 6436   9.449   7.613   7.056 -0.0749  0.1032 -0.9190
  789MOL0     C 6437   9.407   7.607   6.928  0.6015  0.2862  0.3572
  789MOL0     C 6438   9.492   7.642   6.821  0.0106  0.4186 -0.1313
  789MOL0     O 6439   9.418   7.637   6.699 -0.1988  0.4194 -0.4435
  789MOL0     C 6440   9.507   7.597   6.589 -0.0935  0.4803  0.2800
  789MOL0     C 6441   9.424   7.520   6.481  0.2175 -0.3315  0.7922
  789MOL0     C 6442   9.307   7.591   6.424 -0.3295  0.1806 -0.0708
  789MOL0     C 6443   9.235   7.514   6.306 -0.2871 -0.2371  0.5690
  789MOL0     C 6444   9.111   7.589   6.273 -0.1009 -0.2149  0.0686
  789MOL0     C 6445   9.016   7.654   6.253  0.1298 -0.4074  0.6664
  789MOL0     C 6446   9.619   7.683   6.857  0.7635  0.9731 -0.1746
  789MOL0     C 6447   9.661   7.684   6.990 -0.0010  0.0811 -0.9581
  789MOL0     H 6448   9.782   7.947   7.327 -0.8791  0.3752  0.2118
  789MOL0     H 6449   9.844   8.020   7.555  0.5528 -0.1243 -1.0558
  789MOL0     H 6450   9.983   8.043   7.753  1.6619  0.4001  1.6612
  789MOL0     H 6451   9.809   8.026   7.788 -0.6335 -2.4032 -0.9213
  789MOL0     H 6452   9.910   8.069   7.999 -2.1801 -0.8842 -1.0437
  789MOL0     H 6453   9.883   7.890   7.994 -2.8333  2.2902  0.3536
  789MOL0     H 6454  10.110   7.851   7.982  1.1040  0.1527  0.9616
  789MOL0     H 6455  10.151   8.004   7.923  0.4011 -0.6428  1.0489
  789MOL0     H 6456  10.124   8.102   8.141 -0.2116  0.8968 -1.8975
  789MOL0     H 6457  10.057   7.938   8.201  1.2107 -1.9601 -0.6042
  789MOL0     H 6458  10.254   7.910   8.286  2.4728  0.0629  0.5029
  789MOL0     H 6459  10.304   7.869   8.124 -1.8244 -0.7021  0.2457
  789MOL0     H 6460  10.335   8.131   8.271 -1.8495 -1.0684 -0.5814
  789MOL0     H 6461  10.463   8.018   8.236  1.6800  0.2091 -1.6423
  789MOL0     H 6462  10.389   8.043   7.977 -1.6252 -1.3248  1.9450
  789MOL0     H 6463  10.297   8.184   8.023  0.6716  0.7310  1.8610
  789MOL0     H 6464  10.537   8.229   7.921  0.3339 -2.4082 -1.0820
  789MOL0     H 6465  10.603   8.142   8.062 -1.1683 -1.9028  0.5446
  789MOL0     H 6466  10.350   8.422   8.048 -0.2587 -3.5418  0.4664
  789MOL0     H 6467  10.326   8.648   8.192  0.1866 -0.0439  0.4514
  789MOL0     H 6468  10.352   8.606   8.345 -0.1008  0.1366 -0.8627
  789MOL0     H 6469  10.601   8.709   8.303 -0.0934 -0.1091  0.4541
  789MOL0     H 6470  10.460   8.799   8.362 -1.4698  2.4442 -2.2901
  789MOL0     H 6471  10.547   8.925   8.188 -0.9449  0.4434 -0.9324
  789MOL0     H 6472  10.415   8.833   8.108 -1.2688 -2.8071  0.8474
  789MOL0     H 6473  10.573   8.666   8.019  0.5724 -0.5781  1.9525
  789MOL0     H 6474  10.710   8.732   8.102  0.6728 -0.2269 -2.5157
  789MOL0     H 6475  10.552   8.662   7.815 -2.3804 -1.3286 -1.7158
  789MOL0     H 6476  10.429   8.637   7.506 -0.8376  0.9184 -0.3422
  789MOL0     H 6477  10.394   8.543   7.653 -1.9424 -2.1118 -0.4457
  789MOL0     H 6478  10.279   8.639   7.596  0.4441 -0.4917 -1.9754
  789MOL0     H 6479  10.245   8.767   7.236  0.7407  2.4076  1.7641
  789MOL0     H 6480  10.081   8.813   7.050 -1.7165  3.4959 -1.2923
  789MOL0     H 6481   9.914   9.115   7.105  0.4894  0.3755  1.2310
  789MOL0     H 6482   9.899   9.037   6.940 -0.8497  0.4029  0.1329
  789MOL0     H 6483   9.690   9.139   7.121 -0.0633  2.1315 -0.5051
  789MOL0     H 6484   9.721   9.211   6.959  0.5007 -0.4987 -1.5616
  789MOL0     H 6485   9.572   8.950   7.029 -0.2081  1.1544  0.7977
  789MOL0     H 6486   9.658   8.986   6.877  1.6875  0.5720  0.2571
  789MOL0     H 6487   9.446   9.175   6.991  0.5696  2.4202 -1.7786
  789MOL0     H 6488   9.519   9.180   6.828 -1.1431 -1.1479 -2.1652
  789MOL0     H 6489   9.335   8.945   6.891  1.9682 -0.9781  0.0770
  789MOL0     H 6490   9.390   9.021   6.736 -2.2567 -1.3001  0.8174
  789MOL0     H 6491   9.208   9.126   6.942  0.9507  1.3136 -0.4256
  789MOL0     H 6492   9.255   9.219   6.796  0.7988 -0.8387 -1.1755
  789MOL0     H 6493   9.029   9.115   6.811  0.5147  0.8580  2.6009
  789MOL0     H 6494   9.115   8.953   6.783  0.6799  1.0496  1.0633
  789MOL0     H 6495   9.225   9.056   6.574 -1.7272  2.4899 -3.9337
  789MOL0     H 6496   9.112   9.191   6.600  0.2316 -0.1205  1.7700
  789MOL0     H 6497   9.802   8.974   7.349 -0.3443  1.2787  0.1486
  789MOL0     H 6498   9.973   8.942   7.515 -1.0876  3.5558 -1.3121
  789MOL0     H 6499  10.425   9.108   7.650  1.1048 -0.6539 -2.3554
  789MOL0     H 6500  10.556   9.088   7.861 -0.6368  0.5878 -0.6334
  789MOL0     H 6501   9.896   7.619   7.677 -0.3350 -1.2154  0.7103
  789MOL0     H 6502   9.816   7.536   7.444 -0.8264  0.0684  0.6032
  789MOL0     H 6503   9.386   7.584   7.139 -1.1288  3.0236 -0.5781
  789MOL0     H 6504   9.308   7.566   6.909  0.1334  1.5045  0.0650
  789MOL0     H 6505   9.568   7.681   6.554 -0.5424  1.1070  0.9890
  789MOL0     H 6506   9.566   7.516   6.633 -2.9299 -1.2905  1.0690
  789MOL0     H 6507   9.406   7.423   6.527 -0.8255  0.6823  2.6908
  789MOL0     H 6508   9.498   7.501   6.403  0.6666 -0.4287  1.2348
  789MOL0     H 6509   9.339   7.683   6.374 -3.3763  1.4186  0.0176
  789MOL0     H 6510   9.234   7.613   6.502 -1.9684 -3.7325 -0.2778
  789MOL0     H 6511   9.196   7.419   6.343 -0.8665 -0.9999 -1.8044
  789MOL0     H 6512   9.299   7.495   6.219  3.6040 -1.0768  3.3532
  789MOL0     H 6513   8.927   7.711   6.270 -0.1554 -0.3605 -0.8493
  789MOL0     H 6514   9.687   7.713   6.777  0.3364 -1.3604 -1.4997
  789MOL0     H 6515   9.769   7.694   7.001 -0.0070  1.1331 -1.6670
  790MOL0     O 6516   7.864   6.666  10.626  0.3173 -0.3786 -0.1998
  790MOL0     C 6517   7.813   6.737  10.543  0.2261 -0.6891  0.0588
  790MOL0     O 6518   7.813   6.713  10.409  0.0448  0.0642  0.3761
  790MOL0     C 6519   7.897   6.634  10.337  0.3157  0.4461  0.4480
  790MOL0     C 6520   8.029   6.660  10.329  0.2492 -0.5591  0.1914
  790MOL0     C 6521   8.114   6.596  10.244  1.1612 -0.2024 -0.2020
  790MOL0     C 6522   8.062   6.499  10.157 -0.5351 -0.6933  0.0062
  790MOL0     O 6523   8.149   6.426  10.073 -0.5895  0.6139 -0.0999
  790MOL0     C 6524   8.276   6.482  10.034 -0.2438 -0.2326 -0.2713
  790MOL0     C 6525   8.324   6.375   9.949 -0.2881  0.3296 -0.6329
  790MOL0     C 6526   8.403   6.261  10.028  0.3136  0.1360 -0.3820
  790MOL0     C 6527   8.454   6.165   9.926 -0.1024 -0.0925 -0.1835
  790MOL0     C 6528   8.475   6.032  10.009  0.2877 -0.1787  0.3513
  790MOL0     C 6529   8.537   5.926   9.930  1.4059  0.3694  0.5998
  790MOL0     C 6530   8.552   5.797  10.023 -0.1793 -1.1814  0.1374
  790MOL0     C 6531   8.678   5.803  10.126  1.8421 -0.4714 -0.9324
  790MOL0     N 6532   8.797   5.788  10.060 -0.5660 -0.1086  1.0403
  790MOL0     C 6533   8.832   5.662  10.007  0.3942  0.0189  0.8022
  790MOL0     C 6534   8.960   5.683   9.978  0.6923  0.4367  0.2877
  790MOL0     C 6535   9.061   5.587   9.912 -0.0156 -0.9556  0.9303
  790MOL0     C 6536   9.026   5.438   9.941  0.7201 -0.3640 -0.0384
  790MOL0     C 6537   9.134   5.352   9.897 -0.1778  0.2147 -0.0941
  790MOL0     C 6538   9.125   5.204   9.932 -0.3350 -0.3964  0.1550
  790MOL0     O 6539   9.239   5.137   9.875 -0.4567 -0.1704 -0.4322
  790MOL0     C 6540   9.259   5.007   9.913  0.2571  0.2005  1.2034
  790MOL0     C 6541   9.350   4.945   9.827 -0.6367  0.7505 -0.1435
  790MOL0     C 6542   9.376   4.805   9.835  0.6705 -0.0938 -0.1943
  790MOL0     C 6543   9.490   4.755   9.751  0.2854  0.7216 -0.5973
  790MOL0     C 6544   9.303   4.733   9.932 -0.8336 -0.0728  0.5883
  790MOL0     C 6545   9.306   4.590   9.935  0.1334  0.8023 -0.1135
  790MOL0     O 6546   9.354   4.527  10.051 -0.6023 -0.0596  0.0425
  790MOL0     C 6547   9.378   4.392  10.040  0.0958  0.7539 -0.6663
  790MOL0     C 6548   9.495   4.348   9.974  0.3310  0.3496 -0.8541
  790MOL0     C 6549   9.517   4.209   9.958  0.4383 -0.4336  0.5674
  790MOL0     C 6550   9.440   4.116  10.024 -0.1533 -0.5923 -0.3837
  790MOL0     O 6551   9.469   3.985  10.005  0.9136 -0.1244 -0.3446
  790MOL0     C 6552   9.375   3.878  10.034 -0.8788  0.8116 -0.0705
  790MOL0     C 6553   9.412   3.739   9.972  0.7913  0.2319 -0.5797
  790MOL0     C 6554   9.429   3.622  10.072  0.3543 -0.0480  0.9975
  790MOL0     C 6555   9.280   3.572  10.098  0.0353  0.9455  0.6582
  790MOL0     C 6556   9.291   3.431  10.146  0.5246  0.0228  0.8809
  790MOL0     C 6557   9.331   3.325  10.045 -0.3177 -0.9909  0.5343
  790MOL0     C 6558   9.323   3.187  10.104 -0.3366 -0.7848  0.3480
  790MOL0     C 6559   9.394   3.083  10.010  0.2164  0.9698  0.2567
  790MOL0    Cl 6560   9.573   3.078  10.045 -0.3286  0.0069 -0.2927
  790MOL0     C 6561   9.327   4.158  10.093  0.2817 -0.4838 -0.2480
  790MOL0     C 6562   9.299   4.297  10.099 -0.0289 -0.1631 -0.0183
  790MOL0     O 6563   9.246   4.533   9.843 -0.0654  0.1806  1.3061
  790MOL0     C 6564   9.202   4.802  10.013  0.1737 -0.4156 -1.3974
  790MOL0     C 6565   9.172   4.932   9.993  1.0695 -0.2767 -0.4184
  790MOL0     N 6566   8.999   5.803  10.030 -0.8334  0.3548  0.4713
  790MOL0     N 6567   8.898   5.873  10.067 -0.5501  0.1152 -0.9546
  790MOL0     C 6568   7.926   6.466  10.163 -0.0402  0.1406 -0.3176
  790MOL0     C 6569   7.848   6.537  10.252 -0.5425 -0.0220  0.1803
  790MOL0     C 6570   7.727   6.855  10.587  0.0527  0.6117  0.2022
  790MOL0     C 6571   7.737   6.898  10.713 -0.0362  0.6729  0.0637
  790MOL0     C 6572   7.669   7.004  10.763  0.2420 -0.0658  0.2907
  790MOL0     C 6573   7.578   7.067  10.683 -0.7300 -0.2937  0.3899
  790MOL0     O 6574   7.499   7.176  10.711  0.6884  0.4507  0.1618
  790MOL0     C 6575   7.417   7.164  10.825  0.6227 -0.5076  0.0859
  790MOL0     C 6576   7.299   7.258  10.832  0.6194 -0.0213  0.5711
  790MOL0     C 6577   7.204   7.222  10.938  0.0218 -0.2811  0.3006
  790MOL0     C 6578   7.114   7.098  10.899  0.1133  0.0405  0.2315
  790MOL0     C 6579   6.983   7.100  10.958 -0.1186 -0.1241 -0.6026
  790MOL0     C 6580   6.878   7.123  11.013 -0.4626  0.3439  0.0805
  790MOL0     C 6581   7.561   7.031  10.555 -0.3129  0.0368  0.0057
  790MOL0     C 6582   7.638   6.924  10.503 -0.7171 -0.2425 -0.5655
  790MOL0     H 6583   8.065   6.728  10.406 -0.0621 -0.6122  0.3853
  790MOL0     H 6584   8.217   6.620  10.266  0.3051  1.1116  2.9742
  790MOL0     H 6585   8.259   6.574   9.977  0.4849  0.6582  0.9241
  790MOL0     H 6586   8.346   6.501  10.116 -2.4466  0.3243  1.5949
  790MOL0     H 6587   8.238   6.332   9.897 -1.4196 -0.5791  1.8350
  790MOL0     H 6588   8.392   6.408   9.870 -0.1227 -1.1989 -1.1534
  790MOL0     H 6589   8.483   6.293  10.094 -2.6501  0.3831  3.4493
  790MOL0     H 6590   8.318   6.232  10.091 -0.5445  1.6911 -0.7635
  790MOL0     H 6591   8.383   6.150   9.845  1.8646  0.7195 -2.1607
  790MOL0     H 6592   8.549   6.205   9.889 -0.3159  0.2946 -0.3059
  790MOL0     H 6593   8.552   6.057  10.083  1.1801 -3.4394  0.6953
  790MOL0     H 6594   8.376   6.005  10.046  0.1439  1.5628  1.3159
  790MOL0     H 6595   8.461   5.895   9.857 -0.4101  1.6102  1.8916
  790MOL0     H 6596   8.631   5.964   9.888  0.8136  1.9158  0.6080
  790MOL0     H 6597   8.457   5.798  10.077 -1.9578  0.3757 -2.7102
  790MOL0     H 6598   8.556   5.702   9.968 -4.4067 -1.6475  0.2351
  790MOL0     H 6599   8.669   5.727  10.204 -0.2030 -1.5502 -2.1380
  790MOL0     H 6600   8.669   5.897  10.183 -2.6671 -0.1638 -1.7736
  790MOL0     H 6601   8.768   5.577   9.989  0.6496  0.0571 -0.3467
  790MOL0     H 6602   9.048   5.591   9.803 -1.4252  0.4468  1.1030
  790MOL0     H 6603   9.162   5.613   9.942  0.0721  1.0634 -0.9040
  790MOL0     H 6604   8.928   5.422   9.895 -0.2728 -0.0253  1.8670
  790MOL0     H 6605   9.012   5.432  10.049  3.6738 -0.9498  0.4167
  790MOL0     H 6606   9.224   5.383   9.950  1.5734 -0.9909 -2.2300
  790MOL0     H 6607   9.143   5.362   9.788 -0.4934  0.6530 -0.0828
  790MOL0     H 6608   9.035   5.180   9.875 -0.2352  2.1195 -1.1878
  790MOL0     H 6609   9.120   5.187  10.040  1.0070  2.4027  0.7622
  790MOL0     H 6610   9.397   5.011   9.755  0.3095  0.7223  0.4345
  790MOL0     H 6611   9.529   4.661   9.791 -1.3319 -1.5680 -3.9310
  790MOL0     H 6612   9.453   4.731   9.651 -0.9028  0.1444 -0.0382
  790MOL0     H 6613   9.573   4.826   9.746  1.1025 -0.2678 -1.6315
  790MOL0     H 6614   9.561   4.410   9.914 -0.3913 -0.6612 -2.7833
  790MOL0     H 6615   9.609   4.182   9.906 -0.6510  0.4462 -2.0056
  790MOL0     H 6616   9.370   3.869  10.143 -0.3155 -3.9850 -0.2283
  790MOL0     H 6617   9.273   3.897  10.001 -0.2952 -0.2467 -2.7170
  790MOL0     H 6618   9.331   3.718   9.901 -1.0506 -1.2527  1.7789
  790MOL0     H 6619   9.504   3.767   9.921  0.8669  1.7374  0.3152
  790MOL0     H 6620   9.468   3.660  10.167 -0.4544  0.1393  1.2646
  790MOL0     H 6621   9.493   3.540  10.039  0.0325  0.9028 -2.3521
  790MOL0     H 6622   9.229   3.634  10.172 -3.2357  0.3793 -0.9517
  790MOL0     H 6623   9.240   3.569   9.996  2.7571 -0.9422 -0.4765
  790MOL0     H 6624   9.193   3.403  10.185  1.0380 -3.4067 -0.0119
  790MOL0     H 6625   9.361   3.410  10.227  3.5411 -0.3739 -1.6277
  790MOL0     H 6626   9.267   3.347   9.959 -0.6500  0.4582  1.1228
  790MOL0     H 6627   9.432   3.353  10.013 -1.1080  0.9258 -0.4361
  790MOL0     H 6628   9.214   3.175  10.101 -0.3246 -1.8136  2.3421
  790MOL0     H 6629   9.368   3.179  10.204  5.2496  0.4798 -1.7121
  790MOL0     H 6630   9.377   3.101   9.904  0.5819 -3.1100 -0.6759
  790MOL0     H 6631   9.361   2.982  10.037  3.1088 -0.1336  0.0388
  790MOL0     H 6632   9.277   4.094  10.166  2.2265 -0.9929  0.7130
  790MOL0     H 6633   9.216   4.325  10.163  1.5397 -0.6502  2.3591
  790MOL0     H 6634   9.136   4.748  10.080 -1.5531  1.0246 -1.8594
  790MOL0     H 6635   9.080   4.960  10.042 -1.1001 -1.9938 -3.1854
  790MOL0     H 6636   7.896   6.382  10.102  2.9176 -2.4261  1.4742
  790MOL0     H 6637   7.747   6.503  10.270 -1.2926  0.4500 -2.6138
  790MOL0     H 6638   7.809   6.847  10.777 -0.3121 -1.4796 -1.2461
  790MOL0     H 6639   7.664   7.028  10.869  1.4129 -0.0236  0.3446
  790MOL0     H 6640   7.377   7.063  10.834  1.1890 -0.7691 -0.2936
  790MOL0     H 6641   7.480   7.186  10.912 -0.9097 -0.1894  1.1643
  790MOL0     H 6642   7.257   7.265  10.731  2.2188  0.9530 -0.0466
  790MOL0     H 6643   7.331   7.362  10.839 -0.1652  0.4542 -1.8885
  790MOL0     H 6644   7.139   7.308  10.953  1.6610  0.8221  1.2687
  790MOL0     H 6645   7.260   7.199  11.029  2.2325  2.2214 -0.3141
  790MOL0     H 6646   7.172   7.007  10.915 -1.7389 -1.2544 -0.0870
  790MOL0     H 6647   7.087   7.090  10.793 -2.5310 -0.6151  0.8829
  790MOL0     H 6648   6.785   7.132  11.067  0.4149  1.2795  1.5005
  790MOL0     H 6649   7.491   7.086  10.493 -1.3592 -2.1861 -0.8957
  790MOL0     H 6650   7.640   6.916  10.394 -0.5760  1.5210 -0.7203
  791MOL0     O 6651   4.511   1.721  10.549  0.0992  0.0430  0.3957
  791MOL0     C 6652   4.445   1.662  10.465 -0.0727 -0.4875 -0.9005
  791MOL0     O 6653   4.436   1.521  10.459  0.3831 -0.7353 -0.4900
  791MOL0     C 6654   4.492   1.429  10.538 -0.2305 -0.6502 -0.4660
  791MOL0     C 6655   4.611   1.436  10.616  0.5547  0.1909 -0.3547
  791MOL0     C 6656   4.659   1.323  10.683 -0.4538 -0.1705 -0.2188
  791MOL0     C 6657   4.595   1.195  10.673  0.1889  0.5558 -0.9459
  791MOL0     O 6658   4.634   1.083  10.729 -0.4976  0.3562  0.4211
  791MOL0     C 6659   4.725   1.089  10.840 -0.0511  0.7444  0.0053
  791MOL0     C 6660   4.741   0.956  10.920  0.0375 -0.6995 -0.8203
  791MOL0     C 6661   4.850   0.971  11.027 -0.1055 -0.7621  0.6137
  791MOL0     C 6662   4.963   0.881  10.983 -0.0237 -0.5759 -0.2793
  791MOL0     C 6663   4.933   0.733  10.998 -0.5473  0.5635 -0.2009
  791MOL0     C 6664   5.074   0.659  11.003  0.5581 -0.2417 -0.1585
  791MOL0     C 6665   5.049   0.501  11.020  1.4365 -1.2047  0.7111
  791MOL0     C 6666   5.021   0.434  10.877  0.4417 -1.5224 -0.2026
  791MOL0     N 6667   5.006   0.292  10.883 -0.0675  0.1720  0.0071
  791MOL0     C 6668   5.109   0.210  10.917 -0.0225  0.4803  1.2679
  791MOL0     C 6669   5.049   0.085  10.928  0.2294  0.5873 -0.6059
  791MOL0     C 6670   5.110  -0.047  10.970 -0.4825  0.5414  0.2529
  791MOL0     C 6671   5.240  -0.079  10.894 -0.1458  0.4159  0.1870
  791MOL0     C 6672   5.289  -0.230  10.894 -0.2115  0.0981 -0.0274
  791MOL0     C 6673   5.364  -0.277  11.027 -0.1440 -0.3832  0.1773
  791MOL0     O 6674   5.486  -0.201  11.052  0.4881  0.2940 -0.1288
  791MOL0     C 6675   5.582  -0.219  10.959  0.3902 -0.4528 -0.7538
  791MOL0     C 6676   5.647  -0.345  10.957 -0.0926 -0.7523  0.2544
  791MOL0     C 6677   5.734  -0.379  10.843  1.2766 -0.2839 -0.2153
  791MOL0     C 6678   5.805  -0.511  10.854 -0.1206 -0.6076  0.3455
  791MOL0     C 6679   5.755  -0.283  10.743 -0.6105  0.2573 -0.3929
  791MOL0     C 6680   5.833  -0.298  10.622 -0.5238  0.0307  0.1055
  791MOL0     O 6681   5.906  -0.193  10.580 -0.2030  0.0899 -0.0515
  791MOL0     C 6682   5.998  -0.204  10.476  0.0398 -0.5683  0.2338
  791MOL0     C 6683   5.997  -0.096  10.386 -0.2545 -0.3199  0.1349
  791MOL0     C 6684   6.083  -0.086  10.281  0.0936 -0.1938 -0.2944
  791MOL0     C 6685   6.189  -0.173  10.269 -0.3909 -0.5446 -0.0558
  791MOL0     O 6686   6.293  -0.159  10.183 -1.1456 -0.7379  0.5643
  791MOL0     C 6687   6.249  -0.130  10.054  0.0718 -0.4181  0.8325
  791MOL0     C 6688   6.353  -0.152   9.947 -0.1377 -0.5020  0.0961
  791MOL0     C 6689   6.372  -0.297   9.916 -0.4299 -0.2909 -0.0772
  791MOL0     C 6690   6.483  -0.324   9.810  0.1733 -0.0660  0.2269
  791MOL0     C 6691   6.617  -0.270   9.863 -0.3199 -0.0440  0.7913
  791MOL0     C 6692   6.729  -0.307   9.767 -0.0733 -0.2738 -0.4088
  791MOL0     C 6693   6.755  -0.453   9.734  1.9634 -1.5563  0.5622
  791MOL0     C 6694   6.878  -0.480   9.655 -0.0750 -0.8862 -0.2866
  791MOL0    Cl 6695   6.898  -0.414   9.481  0.0194 -0.4747 -0.0584
  791MOL0     C 6696   6.192  -0.295  10.351  1.3569 -0.1345 -0.3466
  791MOL0     C 6697   6.099  -0.303  10.457 -0.5411  0.1767  0.5803
  791MOL0     O 6698   5.831  -0.407  10.570  0.0704  0.7992  0.2251
  791MOL0     C 6699   5.692  -0.157  10.756  0.3511  0.2678  0.3847
  791MOL0     C 6700   5.612  -0.127  10.865  0.3915 -0.1955 -0.8196
  791MOL0     N 6701   4.913   0.105  10.916  0.2635  0.8112 -0.4158
  791MOL0     N 6702   4.892   0.226  10.889 -0.1320 -0.1176 -0.0873
  791MOL0     C 6703   4.489   1.193  10.590  0.8439 -0.2120  0.5228
  791MOL0     C 6704   4.442   1.302  10.522  0.1907 -0.5100  0.1770
  791MOL0     C 6705   4.367   1.738  10.368 -0.0626 -0.1733  0.0693
  791MOL0     C 6706   4.294   1.664  10.265  0.2930 -0.3633  0.3158
  791MOL0     C 6707   4.229   1.737  10.160 -0.3891 -0.1695  0.4257
  791MOL0     C 6708   4.239   1.876  10.151  0.3649 -0.3864  0.0232
  791MOL0     O 6709   4.174   1.957  10.060  0.1587  0.2898  0.0630
  791MOL0     C 6710   4.143   1.891   9.939  0.4139  0.4472  0.3395
  791MOL0     C 6711   4.065   1.969   9.841 -0.2376 -0.0638  0.6693
  791MOL0     C 6712   4.038   1.898   9.705  0.0685 -0.3656  0.5116
  791MOL0     C 6713   3.932   1.970   9.619 -0.3161 -0.0877  1.1038
  791MOL0     C 6714   3.799   1.926   9.652  0.6937  0.4974  0.2814
  791MOL0     C 6715   3.679   1.911   9.677  0.0558 -0.0413  0.1106
  791MOL0     C 6716   4.296   1.942  10.257 -0.3107  0.6688  0.1633
  791MOL0     C 6717   4.359   1.878  10.363 -0.9808  0.6223 -0.8145
  791MOL0     H 6718   4.667   1.529  10.614 -3.1053  2.6021 -2.5474
  791MOL0     H 6719   4.743   1.333  10.751  1.5692  0.2741 -2.6560
  791MOL0     H 6720   4.819   1.109  10.788 -1.4243  3.7744 -1.6157
  791MOL0     H 6721   4.699   1.165  10.914 -0.7348  0.6043 -0.0833
  791MOL0     H 6722   4.645   0.936  10.968  0.7022  0.6842  1.2168
  791MOL0     H 6723   4.763   0.875  10.849 -3.2872 -1.5590 -1.0123
  791MOL0     H 6724   4.895   1.071  11.031  0.1076 -0.7064 -1.7809
  791MOL0     H 6725   4.816   0.957  11.130  1.3978 -0.7047  1.1542
  791MOL0     H 6726   4.989   0.901  10.879  0.4233  1.8970  0.2288
  791MOL0     H 6727   5.053   0.903  11.042  0.8986  0.2907 -1.9297
  791MOL0     H 6728   4.882   0.715  11.093  0.8841 -1.0181  0.3113
  791MOL0     H 6729   4.876   0.684  10.919  1.8398 -0.8818 -1.1451
  791MOL0     H 6730   5.123   0.678  10.907  2.0193 -2.0380  0.1576
  791MOL0     H 6731   5.141   0.688  11.085  0.5297  1.0303 -0.5663
  791MOL0     H 6732   5.126   0.448  11.076 -0.5474 -2.0661  2.7897
  791MOL0     H 6733   4.955   0.490  11.075  0.4753  2.0603 -0.0614
  791MOL0     H 6734   5.108   0.448  10.811  1.2011  1.6802  1.2837
  791MOL0     H 6735   4.924   0.472  10.844 -1.3000 -0.9011  4.8753
  791MOL0     H 6736   5.213   0.231  10.941  0.7301 -1.6931  0.1801
  791MOL0     H 6737   5.135  -0.045  11.077  1.7291 -2.2440 -0.0948
  791MOL0     H 6738   5.041  -0.131  10.964 -0.9589  0.9446  0.0701
  791MOL0     H 6739   5.319  -0.013  10.933 -1.2959  2.0745 -0.1845
  791MOL0     H 6740   5.244  -0.034  10.794  2.6681  0.3041  0.1588
  791MOL0     H 6741   5.366  -0.247  10.818 -0.0483  0.4545  0.0605
  791MOL0     H 6742   5.201  -0.290  10.867 -0.2389  0.0787  0.1014
  791MOL0     H 6743   5.401  -0.380  11.033  1.2821 -0.0826 -2.1863
  791MOL0     H 6744   5.287  -0.257  11.102  0.3264 -0.9755  0.8346
  791MOL0     H 6745   5.620  -0.417  11.034  0.8803  1.0927  2.4279
  791MOL0     H 6746   5.804  -0.542  10.959  2.8240  0.8603  0.9062
  791MOL0     H 6747   5.767  -0.593  10.791  2.8940 -1.8914  0.0438
  791MOL0     H 6748   5.904  -0.504  10.809  0.3513 -0.6045  1.3398
  791MOL0     H 6749   5.909  -0.032  10.397  0.6481  1.0920 -0.5405
  791MOL0     H 6750   6.075   0.001  10.217  3.2873  1.2312  0.9953
  791MOL0     H 6751   6.156  -0.179  10.025 -0.0719  0.5742 -0.4744
  791MOL0     H 6752   6.231  -0.022  10.048 -1.2440 -0.6860 -0.5266
  791MOL0     H 6753   6.322  -0.100   9.856 -2.7569 -1.2315  0.5010
  791MOL0     H 6754   6.446  -0.105   9.980  0.5555  0.3488 -2.7262
  791MOL0     H 6755   6.279  -0.349   9.892  1.1811 -3.4242 -0.1168
  791MOL0     H 6756   6.394  -0.347  10.010 -3.4285  2.0854  2.0796
  791MOL0     H 6757   6.481  -0.428   9.777 -2.5917 -0.2901  0.8516
  791MOL0     H 6758   6.456  -0.264   9.722 -1.3547  1.4441  1.6380
  791MOL0     H 6759   6.636  -0.306   9.965 -0.5182  2.3528  1.7266
  791MOL0     H 6760   6.633  -0.163   9.878  2.5360 -0.2250 -0.2124
  791MOL0     H 6761   6.718  -0.249   9.675  0.6993  0.6733  0.0758
  791MOL0     H 6762   6.826  -0.276   9.808 -0.9807  2.4188 -0.1172
  791MOL0     H 6763   6.672  -0.496   9.678 -0.4038 -1.4626  3.7204
  791MOL0     H 6764   6.764  -0.508   9.828 -1.6794 -0.9544  1.4125
  791MOL0     H 6765   6.894  -0.588   9.647 -0.6668 -0.9933 -0.1021
  791MOL0     H 6766   6.969  -0.439   9.699  1.9842 -2.0658 -3.1503
  791MOL0     H 6767   6.271  -0.369  10.348  1.6982  0.2457 -1.3718
  791MOL0     H 6768   6.101  -0.385  10.529  0.2960  0.2532  0.6566
  791MOL0     H 6769   5.705  -0.083  10.678  0.7592 -1.2131 -1.0037
  791MOL0     H 6770   5.579  -0.023  10.869 -2.0695 -0.9400  1.3759
  791MOL0     H 6771   4.434   1.101  10.577  0.8233 -0.2414  0.8024
  791MOL0     H 6772   4.362   1.301  10.448  1.2250  0.8649 -1.0222
  791MOL0     H 6773   4.285   1.556  10.262 -0.4382 -0.3106 -2.8046
  791MOL0     H 6774   4.171   1.684  10.085 -0.5984 -0.9841  1.1428
  791MOL0     H 6775   4.235   1.852   9.895  1.3621  0.4023  2.2483
  791MOL0     H 6776   4.072   1.810   9.958  0.3735  0.8990  2.2626
  791MOL0     H 6777   4.131   2.054   9.825 -1.7590  1.2089  0.8104
  791MOL0     H 6778   3.971   2.002   9.888  0.9095  3.2125  0.8973
  791MOL0     H 6779   4.012   1.792   9.717  0.3923 -0.9844 -2.9942
  791MOL0     H 6780   4.137   1.897   9.660 -0.4341  1.8789 -0.7851
  791MOL0     H 6781   3.947   1.944   9.513 -1.4656  1.2316  0.5760
  791MOL0     H 6782   3.940   2.076   9.647  0.4066 -0.6425  3.1209
  791MOL0     H 6783   3.572   1.912   9.682  0.0558 -1.4913  0.9616
  791MOL0     H 6784   4.293   2.051  10.260 -1.3763  0.7433 -2.2103
  791MOL0     H 6785   4.412   1.931  10.442  1.2128  0.0896 -1.8558
  792MOL0     O 6786   9.153  10.965   1.494  0.3056 -0.0466 -0.3122
  792MOL0     C 6787   9.078  10.926   1.584 -0.5285 -0.9056  0.3409
  792MOL0     O 6788   9.017  11.011   1.674  0.0596 -0.4740  0.5925
  792MOL0     C 6789   9.059  11.135   1.685 -0.2747 -0.1081  0.0740
  792MOL0     C 6790   9.097  11.223   1.593  0.3722 -0.5564  0.9900
  792MOL0     C 6791   9.117  11.357   1.607 -1.0294  0.3211 -1.3850
  792MOL0     C 6792   9.119  11.411   1.738 -0.7580 -0.7474  0.0848
  792MOL0     O 6793   9.132  11.547   1.756  0.0785  0.0879  0.8152
  792MOL0     C 6794   9.248  11.605   1.814 -0.7538 -0.3877  1.1080
  792MOL0     C 6795   9.356  11.624   1.707  0.6317  0.4712 -0.2703
  792MOL0     C 6796   9.486  11.662   1.764 -0.7259 -0.0309 -0.6814
  792MOL0     C 6797   9.597  11.653   1.665 -0.0045 -0.9455  0.2694
  792MOL0     C 6798   9.717  11.751   1.683  0.0457  0.2093 -0.2608
  792MOL0     C 6799   9.801  11.778   1.560 -0.6004  0.3490  0.0658
  792MOL0     C 6800   9.881  11.659   1.526 -0.9861 -0.3975  0.2732
  792MOL0     C 6801   9.987  11.684   1.424  0.1151  0.0792 -0.3860
  792MOL0     N 6802  10.057  11.555   1.411  0.0092  0.1264  0.0423
  792MOL0     C 6803  10.175  11.535   1.472  0.2765  0.3972  0.1122
  792MOL0     C 6804  10.212  11.411   1.437  0.7513 -0.2124  0.4074
  792MOL0     C 6805  10.342  11.336   1.487 -0.2102 -0.7696  0.1975
  792MOL0     C 6806  10.453  11.340   1.374 -0.1114 -0.0692 -0.5038
  792MOL0     C 6807  10.440  11.229   1.268  0.3544 -0.1368 -0.5152
  792MOL0     C 6808  10.566  11.230   1.179  0.1674 -0.5593  0.0457
  792MOL0     O 6809  10.594  11.340   1.095 -0.1733  0.2410  0.8141
  792MOL0     C 6810  10.503  11.372   1.001  0.1171 -0.3906  0.9791
  792MOL0     C 6811  10.507  11.501   0.945  0.4558 -0.0599 -0.0142
  792MOL0     C 6812  10.419  11.542   0.841  0.0487  1.6375  0.4262
  792MOL0     C 6813  10.434  11.688   0.800  0.0337 -0.5778 -0.4363
  792MOL0     C 6814  10.335  11.446   0.789 -0.2952 -0.1126  0.0868
  792MOL0     C 6815  10.244  11.472   0.670 -0.3007 -0.9499  0.7630
  792MOL0     O 6816  10.118  11.411   0.661 -0.1138 -0.3568  0.2061
  792MOL0     C 6817  10.021  11.468   0.572  0.0119 -0.9412 -0.2973
  792MOL0     C 6818  10.028  11.604   0.532  0.4334 -0.4401 -0.0273
  792MOL0     C 6819   9.927  11.653   0.449  0.7310 -0.2018  1.1165
  792MOL0     C 6820   9.825  11.564   0.397  0.1004 -0.2125 -0.6033
  792MOL0     O 6821   9.740  11.630   0.309 -0.2774  0.6263 -0.2756
  792MOL0     C 6822   9.622  11.554   0.274  0.2485  0.0409 -0.7285
  792MOL0     C 6823   9.517  11.641   0.197  0.1192 -0.0591 -0.7755
  792MOL0     C 6824   9.379  11.583   0.171  0.0592 -0.5791  0.1795
  792MOL0     C 6825   9.279  11.696   0.139  1.1078  0.1653 -0.5312
  792MOL0     C 6826   9.139  11.643   0.096 -0.4843 -0.2630 -0.2650
  792MOL0     C 6827   9.055  11.769   0.052 -0.1337 -0.6848 -0.1897
  792MOL0     C 6828   8.911  11.725   0.030  0.6083 -0.4581 -0.1037
  792MOL0     C 6829   8.811  11.846  -0.003  0.9580  0.4995  0.3977
  792MOL0    Cl 6830   8.851  11.913  -0.170 -0.1755 -0.1073 -0.3113
  792MOL0     C 6831   9.819  11.428   0.436 -1.0530 -0.5367  0.4048
  792MOL0     C 6832   9.932  11.383   0.510  0.1341 -0.4240 -0.6541
  792MOL0     O 6833  10.299  11.539   0.586 -0.2776  0.2515  0.0774
  792MOL0     C 6834  10.335  11.315   0.841  0.0353 -0.0872  0.7459
  792MOL0     C 6835  10.424  11.275   0.934 -0.5286 -0.2239 -0.7756
  792MOL0     N 6836  10.116  11.359   1.364  0.8960  0.2101 -0.3584
  792MOL0     N 6837  10.025  11.443   1.336  0.1965 -0.3871  0.4747
  792MOL0     C 6838   9.093  11.326   1.843 -0.1949  0.8782 -0.2955
  792MOL0     C 6839   9.050  11.189   1.813  0.1425  0.1838 -0.8531
  792MOL0     C 6840   9.062  10.774   1.609  0.8162 -0.0322  0.2935
  792MOL0     C 6841   9.010  10.722   1.720 -0.2773  0.1511 -0.1899
  792MOL0     C 6842   9.003  10.578   1.733 -0.3682 -0.7019  0.6434
  792MOL0     C 6843   9.056  10.493   1.637  0.1911 -1.0452 -0.1105
  792MOL0     O 6844   9.045  10.360   1.675  0.2078  0.1276  0.5781
  792MOL0     C 6845   9.116  10.262   1.605 -0.1202 -0.0276 -0.2946
  792MOL0     C 6846   9.093  10.121   1.653 -0.1538  0.7964 -0.3445
  792MOL0     C 6847   9.075  10.087   1.809  0.0294 -0.6391  0.2134
  792MOL0     C 6848   9.211  10.107   1.874  0.6139  0.1724  0.0741
  792MOL0     C 6849   9.299   9.993   1.846  0.7332 -0.1798  0.3725
  792MOL0     C 6850   9.369   9.915   1.789  0.0122  0.0101  0.5691
  792MOL0     C 6851   9.098  10.547   1.512 -0.7044 -1.0153 -0.8204
  792MOL0     C 6852   9.102  10.690   1.508 -0.1798 -0.1212 -0.4925
  792MOL0     H 6853   9.105  11.199   1.488 -0.1589  0.4310  0.7130
  792MOL0     H 6854   9.134  11.409   1.514  1.6223 -2.3886 -2.5904
  792MOL0     H 6855   9.223  11.707   1.844 -2.3443  0.1641 -1.6745
  792MOL0     H 6856   9.284  11.550   1.901 -1.0737 -3.1211 -0.3500
  792MOL0     H 6857   9.372  11.533   1.649  3.6304 -0.5776  1.9544
  792MOL0     H 6858   9.324  11.712   1.650  0.5197  1.4005  1.1745
  792MOL0     H 6859   9.482  11.767   1.793  2.3461  0.3287 -1.2494
  792MOL0     H 6860   9.512  11.598   1.849  1.6753  0.1734 -1.1884
  792MOL0     H 6861   9.640  11.553   1.669 -3.0561 -2.4119 -0.6028
  792MOL0     H 6862   9.556  11.676   1.566  0.3006 -0.9353  0.1439
  792MOL0     H 6863   9.669  11.845   1.714  0.3567 -0.2936  1.9568
  792MOL0     H 6864   9.776  11.719   1.769  1.3782  2.3403 -0.2882
  792MOL0     H 6865   9.748  11.813   1.471 -0.9828 -0.5974 -0.0887
  792MOL0     H 6866   9.874  11.857   1.583 -0.0530  0.1747 -0.9979
  792MOL0     H 6867   9.931  11.633   1.620 -1.5909  1.7218  1.2320
  792MOL0     H 6868   9.825  11.568   1.504 -0.6664 -0.5431  0.0398
  792MOL0     H 6869  10.056  11.766   1.446  0.4297 -0.0114 -1.0130
  792MOL0     H 6870   9.941  11.701   1.326 -0.5354  0.2395 -0.0572
  792MOL0     H 6871  10.224  11.606   1.537  2.2707  0.9731 -1.8826
  792MOL0     H 6872  10.379  11.383   1.579  0.7125  0.4309 -0.7428
  792MOL0     H 6873  10.321  11.230   1.498  1.4901 -1.0650  0.9393
  792MOL0     H 6874  10.537  11.315   1.439  0.4156  1.6474 -0.4905
  792MOL0     H 6875  10.458  11.437   1.324 -0.1704 -0.0945 -0.5617
  792MOL0     H 6876  10.346  11.245   1.216 -2.4910 -0.4053  4.0272
  792MOL0     H 6877  10.429  11.133   1.320  3.7449 -0.7779 -0.7385
  792MOL0     H 6878  10.553  11.144   1.113  2.2979 -1.5230  0.8044
  792MOL0     H 6879  10.651  11.224   1.247  1.4732  3.4090 -0.9371
  792MOL0     H 6880  10.576  11.579   0.973 -0.2135  0.8146 -0.7514
  792MOL0     H 6881  10.512  11.682   0.724  0.7935  0.1764  0.2610
  792MOL0     H 6882  10.343  11.725   0.751  1.6480  3.5844 -0.7178
  792MOL0     H 6883  10.469  11.754   0.880  2.0688 -1.5856 -0.4412
  792MOL0     H 6884  10.106  11.678   0.542 -0.2246  0.1709  0.7841
  792MOL0     H 6885   9.938  11.754   0.411 -1.0181 -1.0699 -2.0379
  792MOL0     H 6886   9.652  11.478   0.201  0.6583 -1.0353  0.5244
  792MOL0     H 6887   9.570  11.506   0.358 -3.2363 -0.9516 -3.1950
  792MOL0     H 6888   9.499  11.726   0.263 -0.0324 -2.4916  2.6217
  792MOL0     H 6889   9.553  11.671   0.099  0.1548  2.6752 -0.0008
  792MOL0     H 6890   9.353  11.523   0.259 -1.7327 -1.6435 -1.0309
  792MOL0     H 6891   9.381  11.502   0.098 -0.7024 -3.0847  2.7638
  792MOL0     H 6892   9.264  11.753   0.232  0.7790 -2.7894  1.3686
  792MOL0     H 6893   9.320  11.759   0.060 -1.6062  0.7209 -1.6127
  792MOL0     H 6894   9.087  11.578   0.167  0.4191 -1.2468 -0.4632
  792MOL0     H 6895   9.150  11.581   0.007  0.8446  0.7362 -0.8377
  792MOL0     H 6896   9.063  11.853   0.122  1.3221 -1.4583  0.6131
  792MOL0     H 6897   9.088  11.799  -0.048  2.7795 -1.6991  0.3737
  792MOL0     H 6898   8.873  11.657   0.107 -1.6701 -1.2201 -1.7895
  792MOL0     H 6899   8.903  11.661  -0.058  1.9252  0.2012 -0.7235
  792MOL0     H 6900   8.808  11.918   0.079  0.8471  1.0223 -0.0561
  792MOL0     H 6901   8.707  11.814  -0.002 -0.3202  4.1555  1.2116
  792MOL0     H 6902   9.747  11.358   0.395 -2.1437  1.3938 -1.1754
  792MOL0     H 6903   9.951  11.278   0.531 -2.2481 -0.5042  1.5462
  792MOL0     H 6904  10.275  11.230   0.809 -0.7215  0.0774  1.6893
  792MOL0     H 6905  10.419  11.172   0.966  1.5554  0.3793  1.8483
  792MOL0     H 6906   9.102  11.367   1.943  0.6022 -1.3429  0.6041
  792MOL0     H 6907   9.014  11.141   1.904  0.1547  2.4142  0.3986
  792MOL0     H 6908   8.983  10.776   1.810 -4.0242 -0.0876 -0.9938
  792MOL0     H 6909   8.970  10.528   1.824 -0.2019 -0.7543  0.6753
  792MOL0     H 6910   9.095  10.261   1.497  2.3224 -1.7720 -0.8607
  792MOL0     H 6911   9.224  10.280   1.613 -0.6117  4.5895 -1.2174
  792MOL0     H 6912   9.171  10.055   1.614 -0.2526  0.8789 -0.6858
  792MOL0     H 6913   9.003  10.084   1.604  0.7127 -1.4533 -0.3630
  792MOL0     H 6914   9.030   9.991   1.836 -2.5015  0.5890  0.6816
  792MOL0     H 6915   9.012  10.168   1.849 -0.6304 -0.3646 -1.2932
  792MOL0     H 6916   9.194  10.119   1.981  2.0196  1.1427  0.2228
  792MOL0     H 6917   9.271  10.191   1.837 -0.9303  0.3671 -2.1660
  792MOL0     H 6918   9.449   9.858   1.748 -0.5061 -1.3764  1.4231
  792MOL0     H 6919   9.138  10.486   1.432 -0.0873 -0.7574 -0.7143
  792MOL0     H 6920   9.135  10.734   1.415  5.9975 -2.9653 -0.1588
  793MOL0     O 6921  11.360   8.453   8.137  0.7713 -0.2019  0.2593
  793MOL0     C 6922  11.302   8.386   8.222 -0.4162 -1.4470 -0.2526
  793MOL0     O 6923  11.257   8.441   8.340 -0.0925  0.1434 -0.3352
  793MOL0     C 6924  11.282   8.569   8.369 -0.7699  0.5933 -0.4685
  793MOL0     C 6925  11.176   8.650   8.393  0.4119 -0.8637 -0.6287
  793MOL0     C 6926  11.208   8.787   8.426  0.9583  0.7346 -0.8487
  793MOL0     C 6927  11.335   8.839   8.418  1.2576 -0.0190 -0.2564
  793MOL0     O 6928  11.366   8.976   8.446  0.2354 -0.2843 -0.0355
  793MOL0     C 6929  11.369   9.062   8.334 -0.3317 -0.4065  0.7657
  793MOL0     C 6930  11.227   9.093   8.278 -0.9561  0.1643 -0.5362
  793MOL0     C 6931  11.250   9.221   8.192 -0.7196 -0.1970  0.1162
  793MOL0     C 6932  11.125   9.236   8.097 -0.3957 -0.3965  1.4270
  793MOL0     C 6933  11.136   9.348   7.995  0.0640 -0.7721  0.0400
  793MOL0     C 6934  11.157   9.491   8.055  0.8900  0.5690 -0.3056
  793MOL0     C 6935  11.027   9.563   8.106 -0.1318  0.3133 -0.3165
  793MOL0     C 6936  11.066   9.715   8.139 -1.3519  0.3952 -0.1592
  793MOL0     N 6937  10.961   9.789   8.220  0.4007 -0.2457  0.5755
  793MOL0     C 6938  10.891   9.741   8.323 -1.3532 -0.2323 -0.6130
  793MOL0     C 6939  10.817   9.848   8.362  0.1622  0.0594 -0.4247
  793MOL0     C 6940  10.733   9.850   8.481  0.1501  0.5033  0.6314
  793MOL0     C 6941  10.599   9.920   8.453  0.0072  0.5625  0.1109
  793MOL0     C 6942  10.506   9.890   8.565 -0.4102 -0.4313  0.6143
  793MOL0     C 6943  10.404   9.775   8.541 -0.0822 -0.3135 -0.0758
  793MOL0     O 6944  10.435   9.643   8.566 -0.2090  0.1981 -0.5408
  793MOL0     C 6945  10.390   9.585   8.682  0.4658  0.0667  0.8375
  793MOL0     C 6946  10.249   9.587   8.706  0.0752 -1.0831 -0.1561
  793MOL0     C 6947  10.197   9.526   8.824 -0.2764  0.4440  0.1421
  793MOL0     C 6948  10.051   9.530   8.850  0.1356 -0.2515  0.1102
  793MOL0     C 6949  10.297   9.459   8.920 -0.5479  0.2772  0.6198
  793MOL0     C 6950  10.269   9.407   9.054 -0.1698  2.2396 -0.0999
  793MOL0     O 6951  10.374   9.363   9.132  0.3236  0.1324  0.2969
  793MOL0     C 6952  10.337   9.282   9.235  0.2981 -0.8562 -0.2768
  793MOL0     C 6953  10.335   9.341   9.358  0.0257 -1.0418 -0.1522
  793MOL0     C 6954  10.323   9.264   9.466  0.2952 -0.7575 -0.8744
  793MOL0     C 6955  10.321   9.127   9.459 -1.1765  0.7404  0.3919
  793MOL0     O 6956  10.339   9.066   9.580 -0.0125  0.0746 -0.0244
  793MOL0     C 6957  10.385   8.928   9.579 -0.1473 -0.2084 -0.3125
  793MOL0     C 6958  10.281   8.830   9.559 -0.2849  0.0118 -0.0167
  793MOL0     C 6959  10.185   8.811   9.673 -1.1986 -0.2746  0.0213
  793MOL0     C 6960  10.055   8.756   9.621 -0.2089 -0.4159 -0.8285
  793MOL0     C 6961   9.960   8.722   9.741  1.4048  0.0770 -0.3183
  793MOL0     C 6962   9.821   8.693   9.678  0.3981 -0.6423  0.2013
  793MOL0     C 6963   9.739   8.820   9.635  0.5246  0.7476  1.2413
  793MOL0     C 6964   9.606   8.773   9.578  0.1068  0.5865  0.3860
  793MOL0    Cl 6965   9.556   8.870   9.445  0.1202 -0.3179  0.2967
  793MOL0     C 6966  10.340   9.062   9.335  0.4460 -0.7771  0.0821
  793MOL0     C 6967  10.345   9.149   9.218 -1.1523  0.4379 -0.5352
  793MOL0     O 6968  10.155   9.364   9.077 -0.2298  0.3094  0.0406
  793MOL0     C 6969  10.426   9.463   8.878 -0.5486  0.1079  0.0032
  793MOL0     C 6970  10.476   9.522   8.764 -0.0392  0.1147 -0.6522
  793MOL0     N 6971  10.837   9.959   8.279  0.0309  0.1377 -0.5732
  793MOL0     N 6972  10.933   9.919   8.202 -0.3782  1.0541  0.0959
  793MOL0     C 6973  11.441   8.752   8.396  0.6148  0.2251 -0.3733
  793MOL0     C 6974  11.409   8.614   8.384 -0.8687  0.0015 -0.8111
  793MOL0     C 6975  11.287   8.252   8.195 -0.1213  0.0548 -0.1830
  793MOL0     C 6976  11.295   8.207   8.061  0.4296 -0.3330 -0.2388
  793MOL0     C 6977  11.295   8.070   8.034  0.0615  0.3268 -0.3703
  793MOL0     C 6978  11.298   7.980   8.145  0.0930  0.2965  0.3398
  793MOL0     O 6979  11.280   7.845   8.118  0.9960  0.6276 -0.4329
  793MOL0     C 6980  11.137   7.809   8.119 -0.1601  0.9590  0.5997
  793MOL0     C 6981  11.078   7.825   7.976  0.2467  0.9142 -0.0972
  793MOL0     C 6982  11.161   7.730   7.887  0.4054  0.5519  0.0575
  793MOL0     C 6983  11.183   7.792   7.752  0.5970 -0.2544  1.1259
  793MOL0     C 6984  11.073   7.785   7.664  0.2359 -0.1144 -0.6042
  793MOL0     C 6985  10.985   7.753   7.591 -0.0807 -1.0364  0.4210
  793MOL0     C 6986  11.288   8.018   8.279 -0.4001 -0.6044 -0.0023
  793MOL0     C 6987  11.283   8.159   8.308  0.1066  0.0466  0.8585
  793MOL0     H 6988  11.076   8.607   8.391  0.1914 -0.4017  0.0632
  793MOL0     H 6989  11.125   8.855   8.443 -0.1171 -0.3339 -1.6977
  793MOL0     H 6990  11.426   9.153   8.352  0.7118 -0.1306 -3.1277
  793MOL0     H 6991  11.427   9.012   8.255  0.6678  1.1956  0.4531
  793MOL0     H 6992  11.194   9.004   8.224  2.5217 -1.0687 -0.8350
  793MOL0     H 6993  11.162   9.118   8.363 -1.9487 -1.8835 -0.6447
  793MOL0     H 6994  11.260   9.306   8.260  1.5659  2.3501 -3.0507
  793MOL0     H 6995  11.342   9.221   8.133 -0.4196 -0.2984  0.5811
  793MOL0     H 6996  11.113   9.140   8.047 -1.5521  0.3741  0.1817
  793MOL0     H 6997  11.041   9.252   8.166 -1.6954  1.2462 -0.4403
  793MOL0     H 6998  11.216   9.352   7.921 -0.2187  3.7346 -0.2529
  793MOL0     H 6999  11.049   9.357   7.929  1.0437  4.4671 -0.9891
  793MOL0     H 7000  11.226   9.476   8.138 -1.4923 -1.4946  1.4335
  793MOL0     H 7001  11.201   9.552   7.976 -0.7216 -0.2156 -1.8706
  793MOL0     H 7002  10.948   9.571   8.030  2.5305 -2.1618 -3.6439
  793MOL0     H 7003  10.992   9.508   8.194 -0.2173 -1.3136 -1.3345
  793MOL0     H 7004  11.078   9.769   8.045  1.2936  2.1771  1.0697
  793MOL0     H 7005  11.153   9.733   8.203 -1.4888  1.6578 -0.2998
  793MOL0     H 7006  10.888   9.645   8.373  1.9116 -0.3783 -0.5194
  793MOL0     H 7007  10.703   9.747   8.505  2.2493 -0.4051 -0.3793
  793MOL0     H 7008  10.780   9.893   8.570  2.9218 -1.1832  0.1026
  793MOL0     H 7009  10.555   9.902   8.354  2.8191  2.1128 -1.5642
  793MOL0     H 7010  10.626  10.026   8.448 -0.4116  0.7093  0.8797
  793MOL0     H 7011  10.441   9.978   8.557  0.2910 -0.0940 -5.1240
  793MOL0     H 7012  10.563   9.885   8.658  1.2183 -2.8758 -0.4302
  793MOL0     H 7013  10.362   9.776   8.440 -2.5554 -1.2009  0.8771
  793MOL0     H 7014  10.325   9.800   8.612  1.7262  2.4512  1.1812
  793MOL0     H 7015  10.185   9.640   8.637  0.7933  3.6961  2.4065
  793MOL0     H 7016  10.000   9.600   8.783  0.0866 -1.2992 -0.9701
  793MOL0     H 7017  10.006   9.432   8.832  0.8865 -0.2618 -2.0957
  793MOL0     H 7018  10.036   9.572   8.950  2.0301  1.1685 -0.1379
  793MOL0     H 7019  10.343   9.449   9.358  1.4180 -1.1347 -0.3254
  793MOL0     H 7020  10.300   9.297   9.567  0.5430 -1.9647 -0.4076
  793MOL0     H 7021  10.462   8.913   9.502 -2.3004 -0.7067 -2.4983
  793MOL0     H 7022  10.428   8.904   9.677 -2.6974  1.8198  1.4442
  793MOL0     H 7023  10.217   8.861   9.477 -2.4212  0.0091  1.5666
  793MOL0     H 7024  10.333   8.734   9.544 -0.0290  0.3654 -1.5539
  793MOL0     H 7025  10.169   8.908   9.721 -1.9355 -1.5684  2.5394
  793MOL0     H 7026  10.226   8.742   9.747 -2.9695 -0.0615  1.2600
  793MOL0     H 7027  10.014   8.829   9.550  0.0118  2.9006  2.1773
  793MOL0     H 7028  10.075   8.663   9.567  1.5696 -1.3861  1.3218
  793MOL0     H 7029   9.948   8.808   9.808 -0.0506  0.2662 -0.8033
  793MOL0     H 7030   9.996   8.639   9.802 -1.1989  0.1859  1.5364
  793MOL0     H 7031   9.826   8.631   9.589  1.8902 -0.4799  0.1504
  793MOL0     H 7032   9.762   8.654   9.761 -0.3826 -1.5606 -0.7604
  793MOL0     H 7033   9.798   8.865   9.554 -0.3756  0.0493  0.1853
  793MOL0     H 7034   9.725   8.889   9.719  2.5564 -1.6486  3.7254
  793MOL0     H 7035   9.530   8.798   9.653 -1.8374  0.2788 -1.4084
  793MOL0     H 7036   9.594   8.666   9.560 -3.6360 -0.0459  4.6684
  793MOL0     H 7037  10.353   8.958   9.311  1.4750 -0.9577  1.3469
  793MOL0     H 7038  10.385   9.095   9.132  2.1921 -2.3529  2.4516
  793MOL0     H 7039  10.505   9.421   8.939  0.4030 -0.0690 -1.3062
  793MOL0     H 7040  10.585   9.521   8.765  0.0035  0.0049  1.8024
  793MOL0     H 7041  11.543   8.786   8.409 -0.0954  2.0784  0.7586
  793MOL0     H 7042  11.493   8.551   8.357  0.8928  1.8937  0.0592
  793MOL0     H 7043  11.295   8.277   7.978 -0.6086  0.1267  0.1300
  793MOL0     H 7044  11.277   8.039   7.931 -1.7232 -0.0583  0.0309
  793MOL0     H 7045  11.135   7.703   8.146  1.5677  0.2372 -1.7532
  793MOL0     H 7046  11.088   7.871   8.194  0.2733  0.4187  1.3377
  793MOL0     H 7047  11.053   7.926   7.943 -3.0832  0.0166 -0.6880
  793MOL0     H 7048  10.982   7.773   7.975  1.2620 -1.1007 -1.4162
  793MOL0     H 7049  11.099   7.642   7.869  0.4790  0.3070  0.9468
  793MOL0     H 7050  11.253   7.694   7.936 -1.2129 -0.4306  2.5686
  793MOL0     H 7051  11.264   7.733   7.707  1.4176  0.8413  1.1190
  793MOL0     H 7052  11.217   7.895   7.767 -0.3949 -0.1707  3.0519
  793MOL0     H 7053  10.911   7.707   7.528 -0.2530 -2.3620  1.5262
  793MOL0     H 7054  11.308   7.944   8.356  0.2089  2.4933  3.0597
  793MOL0     H 7055  11.265   8.178   8.413  1.4885  5.0008  0.4683
  794MOL0     O 7056   9.047   3.968   3.926  1.2694  0.6707 -0.6960
  794MOL0     C 7057   9.140   3.988   3.853 -0.5894 -0.8040 -0.2893
  794MOL0     O 7058   9.259   3.913   3.851 -0.1098 -0.0500  0.1386
  794MOL0     C 7059   9.285   3.816   3.939 -0.2891 -0.0160 -0.2827
  794MOL0     C 7060   9.420   3.791   3.964 -0.1662  0.2095 -0.6348
  794MOL0     C 7061   9.462   3.684   4.045  0.5062 -0.1488 -0.2277
  794MOL0     C 7062   9.365   3.604   4.106  0.4472 -0.0643 -0.5312
  794MOL0     O 7063   9.401   3.503   4.194  0.1336  0.3195  0.3165
  794MOL0     C 7064   9.331   3.379   4.185 -0.3864 -0.3059 -0.8423
  794MOL0     C 7065   9.424   3.267   4.221  0.1365  0.0293 -0.9088
  794MOL0     C 7066   9.498   3.280   4.356 -0.9313  0.1832  0.0012
  794MOL0     C 7067   9.576   3.157   4.398 -0.1462 -0.3760  0.1378
  794MOL0     C 7068   9.617   3.183   4.544  0.2162 -0.1804 -0.1112
  794MOL0     C 7069   9.712   3.067   4.595  0.1108  0.2926  0.0121
  794MOL0     C 7070   9.631   2.944   4.632  0.2550  0.1180  0.9181
  794MOL0     C 7071   9.719   2.851   4.724  0.1367  0.3854  0.3230
  794MOL0     N 7072   9.775   2.919   4.848  0.3970 -1.6285 -0.0900
  794MOL0     C 7073   9.701   2.985   4.944 -0.0715  1.0691 -0.5546
  794MOL0     C 7074   9.782   3.040   5.032 -0.3124  0.4551  0.3785
  794MOL0     C 7075   9.751   3.133   5.139 -0.4978 -0.2500  0.5138
  794MOL0     C 7076   9.776   3.282   5.093  0.6743  0.3208  0.3420
  794MOL0     C 7077   9.924   3.326   5.086 -0.1842 -0.0227  0.9968
  794MOL0     C 7078   9.939   3.476   5.051  0.3339  0.3264 -0.1035
  794MOL0     O 7079   9.846   3.520   4.956  0.0941 -0.4273  0.2492
  794MOL0     C 7080   9.866   3.496   4.825 -1.1267 -1.1349 -0.8355
  794MOL0     C 7081   9.981   3.433   4.769 -0.5768 -0.8861  0.1249
  794MOL0     C 7082  10.004   3.415   4.630  0.0841  0.5126 -0.4460
  794MOL0     C 7083  10.106   3.321   4.596 -0.5010 -0.2859  0.0413
  794MOL0     C 7084   9.903   3.464   4.542 -0.4199 -0.3555  0.6676
  794MOL0     C 7085   9.914   3.459   4.393  0.0506  0.7089  0.3468
  794MOL0     O 7086   9.799   3.491   4.319  0.1670 -1.0954 -0.0447
  794MOL0     C 7087   9.819   3.533   4.188  0.3848 -0.3252  0.4944
  794MOL0     C 7088   9.895   3.648   4.150  1.1998 -0.7760 -0.7123
  794MOL0     C 7089   9.901   3.682   4.012 -0.6134  0.8933 -0.8435
  794MOL0     C 7090   9.844   3.604   3.920 -1.0366  0.0066  1.0985
  794MOL0     O 7091   9.838   3.609   3.781 -0.3432  0.0137  0.6891
  794MOL0     C 7092   9.914   3.719   3.718  0.2057 -0.9661  0.0284
  794MOL0     C 7093   9.847   3.850   3.735  0.4793  0.0960  1.1508
  794MOL0     C 7094   9.930   3.953   3.653  0.9415  0.2281 -0.3110
  794MOL0     C 7095   9.863   4.094   3.671 -0.3338  0.3962 -0.4510
  794MOL0     C 7096   9.711   4.088   3.663  0.6312  0.5834  0.4940
  794MOL0     C 7097   9.644   4.227   3.647  0.4113  0.8248 -0.0543
  794MOL0     C 7098   9.693   4.289   3.516  0.5530 -0.9063 -0.0463
  794MOL0     C 7099   9.587   4.358   3.450  0.2965  0.0775  0.7484
  794MOL0    Cl 7100   9.657   4.480   3.346  0.6597 -0.2702  0.3706
  794MOL0     C 7101   9.766   3.500   3.957 -0.5741 -0.3609  0.4242
  794MOL0     C 7102   9.742   3.469   4.091 -0.2739 -0.5241 -0.2758
  794MOL0     O 7103  10.024   3.442   4.340 -0.1528  0.9770  0.0872
  794MOL0     C 7104   9.779   3.511   4.595  0.7170 -0.6687 -0.0906
  794MOL0     C 7105   9.762   3.525   4.737 -0.2219 -0.0581  0.4842
  794MOL0     N 7106   9.912   3.001   4.993 -1.3462 -0.0504  0.8862
  794MOL0     N 7107   9.908   2.932   4.882 -0.4428  0.3153 -0.1295
  794MOL0     C 7108   9.227   3.630   4.087  0.3797 -0.3945 -0.6147
  794MOL0     C 7109   9.192   3.735   3.992  0.4379 -0.0469 -1.0397
  794MOL0     C 7110   9.142   4.086   3.741 -0.5130 -0.5437 -0.0862
  794MOL0     C 7111   9.256   4.100   3.653  0.3610 -0.1945 -0.1997
  794MOL0     C 7112   9.256   4.190   3.545  0.2524 -0.2100  0.2844
  794MOL0     C 7113   9.142   4.263   3.516  0.2362 -0.3374 -0.1801
  794MOL0     O 7114   9.129   4.357   3.414  0.7517  0.3595  0.2357
  794MOL0     C 7115   9.226   4.350   3.312  0.6173  1.0555  0.1247
  794MOL0     C 7116   9.180   4.430   3.188 -0.4273 -0.0378  0.5536
  794MOL0     C 7117   9.286   4.510   3.116  0.1757  0.1220 -0.3598
  794MOL0     C 7118   9.234   4.577   2.979  0.2117 -0.3601 -0.1386
  794MOL0     C 7119   9.242   4.470   2.879  0.2734 -0.1527  0.0267
  794MOL0     C 7120   9.244   4.383   2.793  1.1500 -0.2468  0.7264
  794MOL0     C 7121   9.028   4.246   3.588 -1.1624  0.8515 -0.7434
  794MOL0     C 7122   9.025   4.147   3.695  0.1940 -1.5888 -0.4856
  794MOL0     H 7123   9.496   3.851   3.915 -1.2161  2.4591  0.3522
  794MOL0     H 7124   9.567   3.668   4.068  0.4352 -1.4934 -0.7482
  794MOL0     H 7125   9.246   3.380   4.254  1.8455 -0.4640  2.1137
  794MOL0     H 7126   9.310   3.348   4.083 -0.5394 -0.3935 -0.7828
  794MOL0     H 7127   9.351   3.187   4.238  0.1646  0.2379  0.2601
  794MOL0     H 7128   9.502   3.248   4.147  1.1859  1.1690 -0.1306
  794MOL0     H 7129   9.572   3.361   4.349  0.8137 -1.3040  0.4886
  794MOL0     H 7130   9.425   3.307   4.432  0.2225 -0.9897  1.5888
  794MOL0     H 7131   9.513   3.068   4.389  0.2508 -0.7130  0.6110
  794MOL0     H 7132   9.668   3.134   4.343  1.4674  3.9670  0.6631
  794MOL0     H 7133   9.663   3.280   4.566  0.0332 -0.0930 -0.1124
  794MOL0     H 7134   9.524   3.189   4.601  1.5677 -0.8974  2.3089
  794MOL0     H 7135   9.793   3.039   4.527 -0.0098 -1.4689  0.5335
  794MOL0     H 7136   9.766   3.102   4.683  2.5909 -3.1232  0.0570
  794MOL0     H 7137   9.539   2.973   4.683  0.8383  2.1894  0.8702
  794MOL0     H 7138   9.604   2.883   4.545 -2.0465 -0.1685  1.7700
  794MOL0     H 7139   9.801   2.811   4.663 -2.2256 -0.0992 -2.7614
  794MOL0     H 7140   9.650   2.779   4.769  1.1661 -1.5109 -0.9537
  794MOL0     H 7141   9.593   2.997   4.936  0.1021  2.8636 -0.6036
  794MOL0     H 7142   9.656   3.121   5.192  0.5145 -0.0268  2.5129
  794MOL0     H 7143   9.821   3.120   5.223 -0.6318  2.9674  1.2527
  794MOL0     H 7144   9.721   3.351   5.158 -1.8461 -1.0921 -0.1555
  794MOL0     H 7145   9.725   3.276   4.996 -0.3477  3.0567  0.6184
  794MOL0     H 7146   9.972   3.272   5.004 -1.3753  0.9536 -0.4026
  794MOL0     H 7147   9.974   3.303   5.180  0.3052  1.4419  1.1344
  794MOL0     H 7148  10.040   3.493   5.013  0.1800 -0.3044 -0.8156
  794MOL0     H 7149   9.921   3.537   5.140 -2.5117 -1.1434  0.4502
  794MOL0     H 7150  10.052   3.404   4.845  2.1547  1.1366 -1.4812
  794MOL0     H 7151  10.072   3.217   4.594  0.2217 -0.7424  3.9099
  794MOL0     H 7152  10.164   3.349   4.508 -0.3958 -1.4757 -0.2748
  794MOL0     H 7153  10.180   3.314   4.677 -3.7266  3.0654  3.7603
  794MOL0     H 7154   9.950   3.701   4.227 -2.4291  0.2336  1.4311
  794MOL0     H 7155   9.965   3.767   3.991 -0.2630  1.2810  1.5103
  794MOL0     H 7156  10.021   3.709   3.741  0.0738 -0.4773  0.8629
  794MOL0     H 7157   9.907   3.704   3.610 -2.1545  1.4021 -0.2518
  794MOL0     H 7158   9.742   3.830   3.711  0.9767 -2.8851  1.0995
  794MOL0     H 7159   9.858   3.881   3.839  1.0429 -0.5290  1.2859
  794MOL0     H 7160   9.922   3.918   3.550 -0.9899 -0.0982 -0.0875
  794MOL0     H 7161  10.033   3.955   3.688  0.4179  3.4661  1.4647
  794MOL0     H 7162   9.892   4.131   3.770 -0.3609  0.8355 -0.6017
  794MOL0     H 7163   9.915   4.163   3.603  3.4900 -1.7004  0.0455
  794MOL0     H 7164   9.666   4.046   3.754  3.0580 -2.3702  0.5009
  794MOL0     H 7165   9.687   4.010   3.590 -0.4441  0.7974  0.6031
  794MOL0     H 7166   9.535   4.222   3.649  0.4544 -2.6567  2.4203
  794MOL0     H 7167   9.672   4.292   3.731 -0.1243  1.9692 -0.7457
  794MOL0     H 7168   9.735   4.205   3.460  2.9157 -0.1158  0.4028
  794MOL0     H 7169   9.778   4.357   3.529  0.6899 -1.3870  1.7705
  794MOL0     H 7170   9.535   4.404   3.534 -0.8625  0.1368  0.0211
  794MOL0     H 7171   9.529   4.298   3.379  3.2909  0.2339 -2.1031
  794MOL0     H 7172   9.725   3.431   3.884  1.2784 -3.6105  2.2280
  794MOL0     H 7173   9.686   3.380   4.115 -0.2482  0.0601  2.2921
  794MOL0     H 7174   9.703   3.557   4.533  2.8781 -0.0999 -2.4955
  794MOL0     H 7175   9.681   3.591   4.767  0.6498  1.7404 -0.9331
  794MOL0     H 7176   9.149   3.569   4.132 -0.1746  2.1004  2.1390
  794MOL0     H 7177   9.085   3.739   3.975  0.8761  0.8400 -4.1941
  794MOL0     H 7178   9.345   4.041   3.671  1.4262  1.7439  1.2338
  794MOL0     H 7179   9.349   4.181   3.490 -0.6875 -2.3402 -1.0765
  794MOL0     H 7180   9.310   4.402   3.359  0.3368  0.9962  0.6965
  794MOL0     H 7181   9.255   4.245   3.302  0.6435  1.0910 -0.1738
  794MOL0     H 7182   9.095   4.496   3.203  0.5197  1.4920 -0.5096
  794MOL0     H 7183   9.147   4.351   3.120 -1.2764  0.5099  0.3231
  794MOL0     H 7184   9.370   4.442   3.095 -0.7510 -0.9590 -0.6700
  794MOL0     H 7185   9.330   4.585   3.182  1.4788  0.5389 -1.6515
  794MOL0     H 7186   9.286   4.672   2.961 -0.6038  0.7941  3.0318
  794MOL0     H 7187   9.129   4.607   2.983  0.8387  2.7486 -2.6521
  794MOL0     H 7188   9.242   4.300   2.724 -0.3812 -0.8805  1.4915
  794MOL0     H 7189   8.946   4.308   3.552 -1.2993  1.3493  0.4043
  794MOL0     H 7190   8.941   4.135   3.762 -0.3851 -1.0601 -1.1090
  795MOL0     O 7191   0.395   3.981   3.600  0.2138  0.1806 -0.2458
  795MOL0     C 7192   0.360   3.978   3.716  0.2619  0.1572  0.4534
  795MOL0     O 7193   0.375   4.075   3.807 -0.2810  1.0390 -0.1073
  795MOL0     C 7194   0.451   4.185   3.773  0.3845  0.3700  0.0316
  795MOL0     C 7195   0.401   4.305   3.821 -0.0995  0.3996 -0.0015
  795MOL0     C 7196   0.476   4.428   3.799 -1.4046 -0.5931  0.7393
  795MOL0     C 7197   0.604   4.424   3.755 -0.1771 -0.5996  0.4516
  795MOL0     O 7198   0.663   4.543   3.730  0.1470 -0.3724  0.3850
  795MOL0     C 7199   0.789   4.557   3.800  1.3159 -0.4076  0.6651
  795MOL0     C 7200   0.874   4.660   3.727 -0.1624  0.7044 -0.8733
  795MOL0     C 7201   0.812   4.789   3.716  0.5369 -0.2003 -1.0276
  795MOL0     C 7202   0.899   4.892   3.634  0.4821 -1.0542  0.1440
  795MOL0     C 7203   0.853   5.048   3.650 -0.9987  0.6542 -0.7671
  795MOL0     C 7204   0.726   5.081   3.583  0.2540  0.7965  0.7272
  795MOL0     C 7205   0.691   5.220   3.619 -0.2129 -0.6169  0.7508
  795MOL0     C 7206   0.567   5.271   3.541 -0.4275 -0.1234  0.1900
  795MOL0     N 7207   0.440   5.211   3.585  0.0267 -0.9313 -0.5894
  795MOL0     C 7208   0.330   5.287   3.581 -0.1794 -0.7385  0.0570
  795MOL0     C 7209   0.229   5.203   3.612 -0.1733  0.6307  0.2128
  795MOL0     C 7210   0.084   5.235   3.626 -0.8574 -0.1763 -0.4975
  795MOL0     C 7211   0.049   5.265   3.771 -0.2693  0.2790 -0.6091
  795MOL0     C 7212   0.149   5.355   3.854 -0.7567 -0.4688 -0.2100
  795MOL0     C 7213   0.164   5.497   3.800 -0.5120 -0.3777 -0.1697
  795MOL0     O 7214   0.049   5.586   3.811 -0.0279  0.2239  0.8777
  795MOL0     C 7215   0.007   5.635   3.689 -0.3327 -0.4528  0.2630
  795MOL0     C 7216  -0.116   5.600   3.624 -0.2309 -0.0274 -0.0745
  795MOL0     C 7217  -0.159   5.657   3.498 -0.5222  0.2677 -0.1301
  795MOL0     C 7218  -0.291   5.607   3.438 -0.6592 -0.7537  0.5576
  795MOL0     C 7219  -0.072   5.748   3.436  0.6660  0.0650  1.2475
  795MOL0     C 7220  -0.097   5.806   3.298  0.2511  0.5996  0.4848
  795MOL0     O 7221  -0.053   5.929   3.292 -0.6077 -0.3985 -0.0366
  795MOL0     C 7222  -0.037   6.003   3.180 -0.5471 -0.3041  0.3533
  795MOL0     C 7223   0.002   5.972   3.043  0.4686 -0.9720 -0.9144
  795MOL0     C 7224   0.013   6.073   2.948  0.0974  0.6434  0.7045
  795MOL0     C 7225   0.006   6.209   2.987 -0.4827  0.3508 -0.5726
  795MOL0     O 7226   0.064   6.293   2.893  0.1725 -0.8446  0.1051
  795MOL0     C 7227   0.081   6.437   2.923  0.0229  0.3299  0.9671
  795MOL0     C 7228   0.124   6.517   2.807  0.3737 -0.5423  0.0916
  795MOL0     C 7229   0.275   6.512   2.766  0.2577 -0.6149 -0.8256
  795MOL0     C 7230   0.356   6.634   2.825 -0.6402  0.8679 -0.2320
  795MOL0     C 7231   0.504   6.620   2.818 -0.1030 -0.3599  0.1123
  795MOL0     C 7232   0.573   6.734   2.901 -0.7573  0.1021  0.2104
  795MOL0     C 7233   0.721   6.760   2.875  0.7531  0.6922 -0.8107
  795MOL0     C 7234   0.779   6.880   2.941 -0.0960  0.4224  0.0525
  795MOL0    Cl 7235   0.958   6.888   2.914  0.2101  0.3105  0.8035
  795MOL0     C 7236  -0.040   6.244   3.113  0.4414  0.5113  0.4715
  795MOL0     C 7237  -0.059   6.145   3.210  0.4664  0.5133  0.5856
  795MOL0     O 7238  -0.146   5.745   3.201  0.7312  0.4093  0.6452
  795MOL0     C 7239   0.041   5.793   3.506 -0.5876 -0.0702  0.8551
  795MOL0     C 7240   0.074   5.742   3.630  0.4918  0.3291 -0.1497
  795MOL0     N 7241   0.281   5.072   3.624  0.1091 -0.5804 -0.4642
  795MOL0     N 7242   0.405   5.082   3.607  1.2728  0.2570 -0.8704
  795MOL0     C 7243   0.653   4.301   3.700 -0.8026 -0.0002  0.2655
  795MOL0     C 7244   0.576   4.180   3.708  0.2111  0.1342  0.3923
  795MOL0     C 7245   0.271   3.868   3.756  0.3275 -0.4722 -0.5909
  795MOL0     C 7246   0.236   3.864   3.888  0.5243  0.7198  0.7922
  795MOL0     C 7247   0.151   3.760   3.936 -0.2279 -0.3264  0.0865
  795MOL0     C 7248   0.114   3.656   3.857 -0.3983  0.4465  0.5311
  795MOL0     O 7249   0.036   3.559   3.911 -0.2989 -0.6839  0.2286
  795MOL0     C 7250   0.018   3.441   3.843  0.2119  0.7393  0.4891
  795MOL0     C 7251   0.013   3.328   3.942 -0.5081  0.3740  0.1043
  795MOL0     C 7252   0.155   3.292   3.978  0.3364 -0.6215  0.7809
  795MOL0     C 7253   0.154   3.169   4.064  0.2050 -0.1844  0.1542
  795MOL0     C 7254   0.290   3.105   4.078  0.2968  0.6605  0.9039
  795MOL0     C 7255   0.404   3.071   4.112  0.8709  1.2920  0.4601
  795MOL0     C 7256   0.138   3.667   3.718 -0.8778  0.1133  0.6596
  795MOL0     C 7257   0.214   3.777   3.672  0.1008 -0.0283  0.4225
  795MOL0     H 7258   0.304   4.313   3.869 -0.8784  1.3084 -1.6426
  795MOL0     H 7259   0.431   4.524   3.823 -1.5623 -0.7152  0.9417
  795MOL0     H 7260   0.759   4.609   3.891  0.9972  2.4876 -0.9443
  795MOL0     H 7261   0.844   4.466   3.822  2.8491  0.0851 -0.8642
  795MOL0     H 7262   0.966   4.665   3.787 -0.0080 -2.4101 -0.6767
  795MOL0     H 7263   0.914   4.625   3.632  1.4248  1.5726 -0.5681
  795MOL0     H 7264   0.710   4.782   3.675 -0.4169  0.1723  1.1526
  795MOL0     H 7265   0.806   4.820   3.820 -0.6515 -3.7961  0.1468
  795MOL0     H 7266   1.004   4.892   3.663  0.1588  0.8762  1.5674
  795MOL0     H 7267   0.890   4.878   3.526  0.2650  1.8736 -0.2977
  795MOL0     H 7268   0.833   5.063   3.757  4.2242  2.9893  0.1875
  795MOL0     H 7269   0.937   5.105   3.610  1.1947 -2.3230 -0.7790
  795MOL0     H 7270   0.745   5.071   3.475  3.1613  1.8938  1.0488
  795MOL0     H 7271   0.650   5.007   3.613  0.0470  0.5879 -0.2558
  795MOL0     H 7272   0.674   5.242   3.725 -0.3558  0.9117  0.4354
  795MOL0     H 7273   0.774   5.287   3.594 -2.0892  1.4354 -0.3640
  795MOL0     H 7274   0.580   5.244   3.435  0.1020 -0.1045  0.2485
  795MOL0     H 7275   0.558   5.378   3.562 -3.4602 -0.5031  1.3080
  795MOL0     H 7276   0.326   5.393   3.557  0.3509  0.2262  3.6303
  795MOL0     H 7277   0.088   5.328   3.568  2.6834 -0.5554 -1.1124
  795MOL0     H 7278   0.019   5.165   3.572 -1.0962 -0.0993 -0.3133
  795MOL0     H 7279   0.055   5.173   3.831  2.4832  1.9752  1.9890
  795MOL0     H 7280  -0.055   5.297   3.778  0.4763  2.5459  4.0076
  795MOL0     H 7281   0.249   5.311   3.849  0.6291  1.5830  4.0851
  795MOL0     H 7282   0.115   5.360   3.958  0.5748  1.3488  0.1893
  795MOL0     H 7283   0.199   5.482   3.697  2.3749 -0.3076  0.7175
  795MOL0     H 7284   0.258   5.540   3.835 -0.3114  2.0374 -3.1915
  795MOL0     H 7285  -0.182   5.538   3.684 -2.3355  3.7257  1.7908
  795MOL0     H 7286  -0.338   5.545   3.515 -1.4818  3.9762  4.3498
  795MOL0     H 7287  -0.349   5.690   3.397 -1.4763 -0.9419  1.3046
  795MOL0     H 7288  -0.263   5.552   3.347  1.9272 -0.3197  1.0068
  795MOL0     H 7289   0.030   5.868   3.038  1.4160 -0.7570 -0.3259
  795MOL0     H 7290   0.049   6.061   2.847 -1.3812 -1.0345  0.3237
  795MOL0     H 7291  -0.018   6.476   2.949 -0.0604 -0.5457  2.0850
  795MOL0     H 7292   0.144   6.456   3.011  1.5109 -0.1216  0.0328
  795MOL0     H 7293   0.070   6.475   2.722  0.2700  1.4009 -0.8673
  795MOL0     H 7294   0.077   6.616   2.809 -0.9607 -1.1462  1.9792
  795MOL0     H 7295   0.276   6.517   2.657 -3.4354 -1.5679 -1.0357
  795MOL0     H 7296   0.323   6.416   2.788  0.5480 -0.1831  0.5178
  795MOL0     H 7297   0.318   6.726   2.779 -1.5310  0.2214 -0.8251
  795MOL0     H 7298   0.333   6.637   2.932 -4.0392  0.1425 -0.8279
  795MOL0     H 7299   0.549   6.635   2.719  2.8603  0.1262  1.4192
  795MOL0     H 7300   0.535   6.526   2.864 -1.0232  0.5643  2.8133
  795MOL0     H 7301   0.524   6.831   2.887 -1.4917 -0.0452  1.5894
  795MOL0     H 7302   0.568   6.694   3.003  0.2630 -0.3049  0.1164
  795MOL0     H 7303   0.734   6.763   2.766 -0.1853 -0.3971 -0.9680
  795MOL0     H 7304   0.766   6.669   2.914 -1.1079 -0.1691 -0.5525
  795MOL0     H 7305   0.753   6.883   3.048  0.6039  2.3703  0.2005
  795MOL0     H 7306   0.723   6.968   2.909  1.7007  2.0522  1.1914
  795MOL0     H 7307  -0.061   6.348   3.138  0.1615  1.0543 -1.8393
  795MOL0     H 7308  -0.089   6.188   3.305 -2.3428  3.1637 -1.2750
  795MOL0     H 7309   0.114   5.860   3.461 -1.3268 -0.3688 -0.8891
  795MOL0     H 7310   0.166   5.786   3.668  0.3720  3.1655 -2.6910
  795MOL0     H 7311   0.757   4.306   3.667  0.6751 -2.3191  3.9596
  795MOL0     H 7312   0.608   4.080   3.681  0.5940  0.7692 -1.6862
  795MOL0     H 7313   0.273   3.934   3.963 -2.2398 -1.0125  4.0783
  795MOL0     H 7314   0.139   3.760   4.044 -0.1900  1.8801  0.1312
  795MOL0     H 7315  -0.082   3.456   3.801 -0.8332  1.8121  3.1469
  795MOL0     H 7316   0.089   3.406   3.768 -2.4529 -0.8982 -1.4899
  795MOL0     H 7317  -0.046   3.245   3.902 -1.7804  1.3200 -0.0385
  795MOL0     H 7318  -0.040   3.365   4.031  2.6197  0.8274  1.9278
  795MOL0     H 7319   0.191   3.377   4.036  0.7667  0.8256 -1.4758
  795MOL0     H 7320   0.221   3.285   3.891  1.1063 -3.1786  1.4637
  795MOL0     H 7321   0.099   3.090   4.013  3.5782 -3.5718  1.3329
  795MOL0     H 7322   0.098   3.173   4.158 -0.3997 -0.9806 -0.1551
  795MOL0     H 7323   0.500   3.032   4.141  0.9652 -1.1866 -2.6399
  795MOL0     H 7324   0.102   3.601   3.640 -0.4967  1.8370 -1.0653
  795MOL0     H 7325   0.246   3.788   3.568 -1.0308  2.7041  0.2946
  796MOL0     O 7326   7.083   2.827  11.440  0.1164  0.2765  1.2062
  796MOL0     C 7327   6.972   2.861  11.477  0.3269  0.7464  0.7782
  796MOL0     O 7328   6.895   2.974  11.433  0.7677  0.2836 -0.0821
  796MOL0     C 7329   6.957   3.058  11.339  0.1622  1.2414  0.0124
  796MOL0     C 7330   6.998   3.179  11.391  0.2405 -0.7331  0.2949
  796MOL0     C 7331   7.063   3.280  11.317  0.3635  0.9005  0.6201
  796MOL0     C 7332   7.105   3.254  11.181  0.3825  0.4380 -0.3313
  796MOL0     O 7333   7.150   3.349  11.101 -0.9345 -0.1684 -0.5569
  796MOL0     C 7334   7.080   3.476  11.090 -0.1226 -0.2859 -0.2685
  796MOL0     C 7335   7.161   3.596  11.134  0.0149  0.1955 -0.2346
  796MOL0     C 7336   7.084   3.731  11.114  0.0735  0.3284  0.0778
  796MOL0     C 7337   7.170   3.848  11.185  0.9013 -0.5005 -0.0576
  796MOL0     C 7338   7.112   3.984  11.176  0.8369  0.4618  0.2589
  796MOL0     C 7339   7.188   4.082  11.260  0.0839  0.0872 -0.0865
  796MOL0     C 7340   7.336   4.102  11.222 -0.0486  1.1358  0.4215
  796MOL0     C 7341   7.406   4.191  11.327  0.1367 -1.1941  1.1773
  796MOL0     N 7342   7.459   4.124  11.450 -0.0978 -0.9157  0.5959
  796MOL0     C 7343   7.552   4.179  11.534 -0.6747  0.0727 -0.4560
  796MOL0     C 7344   7.547   4.094  11.642 -0.4721  0.7815 -0.2545
  796MOL0     C 7345   7.619   4.111  11.767 -0.7050  0.2422 -0.2902
  796MOL0     C 7346   7.767   4.067  11.772 -0.2722  1.3487  0.2638
  796MOL0     C 7347   7.783   3.914  11.765 -0.2851  0.7255  0.0336
  796MOL0     C 7348   7.916   3.851  11.792  0.2632 -0.2916  0.6359
  796MOL0     O 7349   7.947   3.824  11.928 -0.1307  0.3059 -1.1268
  796MOL0     C 7350   8.067   3.777  11.925 -0.1785  0.0532  0.1118
  796MOL0     C 7351   8.094   3.643  11.947  0.7842  0.1099 -0.1979
  796MOL0     C 7352   8.221   3.585  11.932 -1.1898  0.5647 -1.0965
  796MOL0     C 7353   8.248   3.443  11.985 -0.4170 -0.7670 -0.0406
  796MOL0     C 7354   8.332   3.675  11.899 -0.5838 -0.9460 -0.4292
  796MOL0     C 7355   8.469   3.625  11.880 -0.2587 -0.5495  0.5611
  796MOL0     O 7356   8.565   3.712  11.929 -0.1815 -0.7959  0.3598
  796MOL0     C 7357   8.693   3.701  11.882 -1.0554 -0.3255  0.5969
  796MOL0     C 7358   8.767   3.588  11.875 -0.1472  0.0487 -0.1099
  796MOL0     C 7359   8.894   3.579  11.811 -0.0018  0.2406  0.7429
  796MOL0     C 7360   8.941   3.700  11.759  0.0260  0.4869  0.2114
  796MOL0     O 7361   9.054   3.709  11.703 -0.5714  0.4573  0.5909
  796MOL0     C 7362   9.161   3.721  11.798 -0.2576 -0.0007 -1.3538
  796MOL0     C 7363   9.300   3.770  11.736 -0.1300 -0.1861 -0.7284
  796MOL0     C 7364   9.389   3.820  11.842 -0.0677 -0.0450 -0.3277
  796MOL0     C 7365   9.501   3.901  11.794  0.2557 -0.8204  0.5124
  796MOL0     C 7366   9.566   3.989  11.906  0.6482 -0.3630  0.3653
  796MOL0     C 7367   9.597   3.922  12.043  0.3677 -1.1212 -0.0253
  796MOL0     C 7368   9.662   4.017  12.143  1.3316 -0.7641  0.2935
  796MOL0     C 7369   9.579   4.146  12.197  0.0363  0.3288 -0.0270
  796MOL0    Cl 7370   9.437   4.097  12.292 -0.0738 -0.2258 -0.2639
  796MOL0     C 7371   8.864   3.823  11.764 -1.0338 -0.2220 -1.4036
  796MOL0     C 7372   8.749   3.825  11.840 -0.1073  0.0978  0.5414
  796MOL0     O 7373   8.491   3.517  11.818  0.3164 -0.8103 -0.7900
  796MOL0     C 7374   8.309   3.819  11.908 -0.0038  0.0070 -0.2400
  796MOL0     C 7375   8.179   3.864  11.909  0.2442 -0.1721  0.1418
  796MOL0     N 7376   7.458   3.991  11.625 -0.3032  0.2788 -0.0210
  796MOL0     N 7377   7.402   4.016  11.510 -0.4425 -0.4493 -0.1368
  796MOL0     C 7378   7.077   3.124  11.135  0.0064 -0.3077 -0.3007
  796MOL0     C 7379   7.000   3.030  11.211 -0.4010 -0.2942 -1.4484
  796MOL0     C 7380   6.899   2.774  11.573 -0.0755  0.0723 -0.8991
  796MOL0     C 7381   6.777   2.818  11.616 -0.4163 -0.8658  0.4487
  796MOL0     C 7382   6.703   2.745  11.708 -0.2480 -0.7417  0.5574
  796MOL0     C 7383   6.754   2.620  11.752 -0.2325  0.7258  0.7364
  796MOL0     O 7384   6.693   2.527  11.839 -0.0823 -0.1121  0.2827
  796MOL0     C 7385   6.555   2.547  11.884 -0.3072 -0.2510 -0.2823
  796MOL0     C 7386   6.543   2.634  12.017 -0.7819  0.3187  0.0752
  796MOL0     C 7387   6.628   2.583  12.131  0.3784  1.0644  0.5323
  796MOL0     C 7388   6.701   2.694  12.204 -0.4768 -0.5049  1.1581
  796MOL0     C 7389   6.772   2.641  12.324  0.5766  0.2971  0.1924
  796MOL0     C 7390   6.818   2.592  12.420 -0.3376 -0.2826  0.8082
  796MOL0     C 7391   6.882   2.583  11.718 -0.3740  0.3271  0.6212
  796MOL0     C 7392   6.961   2.661  11.630  0.4983 -0.2933  0.9842
  796MOL0     H 7393   6.974   3.205  11.494  0.2717 -0.6473  0.2806
  796MOL0     H 7394   7.060   3.377  11.366 -0.8323  2.1855 -1.8454
  796MOL0     H 7395   7.056   3.493  10.985  4.7260 -1.1488 -1.7514
  796MOL0     H 7396   6.990   3.476  11.152  0.9047 -2.0632  1.3466
  796MOL0     H 7397   7.179   3.596  11.242  0.2117  3.7295 -0.1461
  796MOL0     H 7398   7.253   3.598  11.075  0.8648 -4.6901  0.5074
  796MOL0     H 7399   7.069   3.750  11.007 -0.9807 -0.7573  0.0058
  796MOL0     H 7400   6.987   3.716  11.161 -0.1199 -1.7313 -0.8301
  796MOL0     H 7401   7.207   3.814  11.282 -0.5827 -2.0275  0.0123
  796MOL0     H 7402   7.248   3.858  11.109 -1.0438  1.1363 -1.9888
  796MOL0     H 7403   7.116   4.012  11.070 -1.3298 -0.0015  0.0120
  796MOL0     H 7404   7.006   3.978  11.199  1.4039 -1.6986  2.8293
  796MOL0     H 7405   7.142   4.180  11.248  2.6622  1.5231  0.9317
  796MOL0     H 7406   7.174   4.057  11.366 -3.3220  1.7572 -0.0181
  796MOL0     H 7407   7.388   4.007  11.206 -0.2852  0.7683  1.7002
  796MOL0     H 7408   7.332   4.158  11.129 -1.6243  1.7338  0.8088
  796MOL0     H 7409   7.346   4.279  11.351 -2.8660 -2.3766 -1.3543
  796MOL0     H 7410   7.492   4.232  11.273 -0.3168  0.6554  1.7708
  796MOL0     H 7411   7.623   4.260  11.535 -0.3590 -0.1837  1.3417
  796MOL0     H 7412   7.626   4.217  11.794  2.0338 -0.2670  1.3898
  796MOL0     H 7413   7.563   4.060  11.846  0.0856  1.3964  1.0741
  796MOL0     H 7414   7.817   4.093  11.866 -0.5457  2.1758  0.1854
  796MOL0     H 7415   7.815   4.125  11.693  1.4958  0.0115  0.2849
  796MOL0     H 7416   7.743   3.898  11.665 -2.0282 -0.4306  0.8587
  796MOL0     H 7417   7.706   3.869  11.828 -0.0779  1.3059  0.7138
  796MOL0     H 7418   7.985   3.924  11.750  0.5322  0.6473  2.5722
  796MOL0     H 7419   7.932   3.760  11.734  1.2557 -0.2229  0.7903
  796MOL0     H 7420   8.018   3.579  11.990  1.8665 -1.0953  0.0062
  796MOL0     H 7421   8.311   3.380  11.921 -0.5678 -1.8374  0.8416
  796MOL0     H 7422   8.300   3.449  12.081 -1.2373 -1.6975  0.4850
  796MOL0     H 7423   8.153   3.392  12.003 -0.1349 -2.0234 -1.8068
  796MOL0     H 7424   8.724   3.494  11.910 -1.3631  1.1219  1.3966
  796MOL0     H 7425   8.950   3.487  11.818  1.4573  1.2227  3.8115
  796MOL0     H 7426   9.117   3.781  11.878 -1.3811 -0.4171 -1.6383
  796MOL0     H 7427   9.176   3.621  11.839 -3.5983 -0.8779 -1.9998
  796MOL0     H 7428   9.342   3.691  11.673  0.6515 -0.7563  0.4741
  796MOL0     H 7429   9.273   3.865  11.687 -0.9551 -0.8282 -1.5579
  796MOL0     H 7430   9.440   3.734  11.886  3.2689  2.3088  0.7453
  796MOL0     H 7431   9.329   3.879  11.912 -0.5667  2.1171 -2.4473
  796MOL0     H 7432   9.579   3.839  11.748 -0.7377 -1.3963 -0.4517
  796MOL0     H 7433   9.459   3.961  11.713  1.3474 -1.8276 -0.8801
  796MOL0     H 7434   9.485   4.058  11.931 -0.3256 -1.3277 -0.0157
  796MOL0     H 7435   9.656   4.038  11.869  0.8977 -0.5850  0.6811
  796MOL0     H 7436   9.506   3.890  12.093 -0.2315 -0.4644 -0.6849
  796MOL0     H 7437   9.661   3.833  12.033 -2.8642 -3.4800 -1.6107
  796MOL0     H 7438   9.748   4.053  12.086 -0.7049  0.3397 -2.2649
  796MOL0     H 7439   9.699   3.968  12.234  2.8222  1.0022  0.6956
  796MOL0     H 7440   9.545   4.203  12.111 -0.6917 -1.3297 -0.8833
  796MOL0     H 7441   9.635   4.218  12.257 -1.9527 -0.6814  3.3058
  796MOL0     H 7442   8.905   3.905  11.706 -1.4407  0.5516 -0.6134
  796MOL0     H 7443   8.682   3.908  11.859 -1.0896 -0.0613 -1.8358
  796MOL0     H 7444   8.391   3.890  11.905 -0.7706  0.9184 -3.2739
  796MOL0     H 7445   8.167   3.971  11.918  0.3799 -0.1224 -0.2316
  796MOL0     H 7446   7.106   3.091  11.036  0.3986 -0.7216 -0.0494
  796MOL0     H 7447   6.978   2.945  11.147  2.2053 -0.4462 -2.2690
  796MOL0     H 7448   6.732   2.909  11.577 -0.3681 -1.5083 -1.1819
  796MOL0     H 7449   6.605   2.774  11.743 -1.0577 -2.4743 -0.1481
  796MOL0     H 7450   6.484   2.583  11.808  0.3773  1.2644 -0.2430
  796MOL0     H 7451   6.536   2.440  11.897  0.1324 -0.2672  0.2162
  796MOL0     H 7452   6.437   2.636  12.044 -0.5666 -0.3515  1.0338
  796MOL0     H 7453   6.575   2.735  11.988  0.6569  0.5842  2.3012
  796MOL0     H 7454   6.690   2.498  12.100  0.1003  1.3242 -0.8210
  796MOL0     H 7455   6.560   2.542  12.206  0.8917 -0.1845  0.3383
  796MOL0     H 7456   6.642   2.775  12.246 -1.7243 -1.2524  0.9071
  796MOL0     H 7457   6.768   2.746  12.135 -0.6594 -1.6150  0.0972
  796MOL0     H 7458   6.855   2.538  12.505  0.2348  0.0627  0.7804
  796MOL0     H 7459   6.919   2.487  11.752 -0.3476  0.5682  1.2804
  796MOL0     H 7460   7.066   2.641  11.612  0.8158  1.2215  0.9502
  797MOL0     O 7461   0.341   9.229   7.280  0.1628  0.4404  0.0430
  797MOL0     C 7462   0.354   9.343   7.298  0.4765 -0.6068 -0.8764
  797MOL0     O 7463   0.324   9.403   7.420  0.2115  0.4822  1.1857
  797MOL0     C 7464   0.261   9.319   7.509 -0.2775 -0.1839 -0.1088
  797MOL0     C 7465   0.338   9.271   7.622 -0.0490 -0.0523  0.5119
  797MOL0     C 7466   0.279   9.189   7.726  0.3352  0.4954  0.6641
  797MOL0     C 7467   0.156   9.136   7.705 -0.0840 -1.1221 -0.6154
  797MOL0     O 7468   0.103   9.054   7.804  0.3961  0.0823 -0.7729
  797MOL0     C 7469  -0.043   9.017   7.789 -0.8703  0.4340 -0.4119
  797MOL0     C 7470  -0.086   8.914   7.892 -0.3258 -0.0218 -0.5825
  797MOL0     C 7471  -0.234   8.864   7.854  0.4010  0.2770  0.4255
  797MOL0     C 7472  -0.289   8.793   7.970  0.2562 -0.3400 -0.0388
  797MOL0     C 7473  -0.446   8.775   7.958 -0.1461 -1.3451 -0.4050
  797MOL0     C 7474  -0.473   8.653   7.859 -0.0328 -0.4715 -0.4341
  797MOL0     C 7475  -0.556   8.551   7.944 -0.1175 -0.1025  0.4425
  797MOL0     C 7476  -0.469   8.419   7.981 -1.0592  0.4655 -0.3487
  797MOL0     N 7477  -0.528   8.301   8.056 -0.2435 -0.4107 -0.4647
  797MOL0     C 7478  -0.544   8.311   8.193 -0.3435  0.6646 -0.1595
  797MOL0     C 7479  -0.578   8.186   8.235 -0.2784  0.5754 -0.1930
  797MOL0     C 7480  -0.582   8.146   8.381  0.4714  0.2521 -0.2232
  797MOL0     C 7481  -0.652   8.001   8.406  0.6354 -0.8412  0.0032
  797MOL0     C 7482  -0.800   8.020   8.418  0.3341  0.5110  0.1035
  797MOL0     C 7483  -0.872   7.895   8.434  0.5658  0.1787 -0.2498
  797MOL0     O 7484  -0.862   7.801   8.331 -0.1891  0.1423  0.7990
  797MOL0     C 7485  -0.963   7.699   8.333 -0.1582  0.2057 -0.4731
  797MOL0     C 7486  -0.991   7.625   8.220  0.3898  0.0576  0.4823
  797MOL0     C 7487  -1.093   7.528   8.217 -0.0033  0.1374  0.1901
  797MOL0     C 7488  -1.119   7.469   8.082 -0.0899  0.3176 -0.0535
  797MOL0     C 7489  -1.172   7.502   8.339  0.1606 -0.2139 -0.2070
  797MOL0     C 7490  -1.265   7.386   8.367  0.3953 -0.1970  0.9173
  797MOL0     O 7491  -1.296   7.375   8.492 -0.5862  0.4121 -0.1107
  797MOL0     C 7492  -1.378   7.275   8.532  0.1172 -0.1649  0.4583
  797MOL0     C 7493  -1.506   7.323   8.578 -0.0949  0.0433  0.3992
  797MOL0     C 7494  -1.602   7.233   8.637  0.4508 -0.0380  0.7135
  797MOL0     C 7495  -1.574   7.098   8.659  0.2945  0.0754  0.3694
  797MOL0     O 7496  -1.661   7.003   8.705 -0.0719  0.1688 -0.3751
  797MOL0     C 7497  -1.765   7.051   8.793 -0.0812  0.5552 -0.6890
  797MOL0     C 7498  -1.884   7.088   8.706  0.2431 -0.4149 -0.1397
  797MOL0     C 7499  -1.958   6.978   8.623 -0.1031  0.7152 -0.1756
  797MOL0     C 7500  -2.004   6.872   8.717 -1.1729 -0.1237  0.4220
  797MOL0     C 7501  -2.085   6.747   8.664  0.3568  0.1364  0.8724
  797MOL0     C 7502  -2.007   6.680   8.548 -0.2282 -0.0502 -0.2108
  797MOL0     C 7503  -1.869   6.638   8.602  0.5206  0.2123  0.2199
  797MOL0     C 7504  -1.796   6.542   8.516 -1.0518  0.7346  0.3952
  797MOL0    Cl 7505  -1.894   6.406   8.454 -0.2672 -0.2761  0.1087
  797MOL0     C 7506  -1.443   7.065   8.622  0.5685  0.8288  0.6557
  797MOL0     C 7507  -1.350   7.147   8.560  1.1180 -0.4214  0.2881
  797MOL0     O 7508  -1.305   7.308   8.281 -0.4823  0.0319  0.0008
  797MOL0     C 7509  -1.154   7.576   8.455 -0.0799 -0.8776  0.3618
  797MOL0     C 7510  -1.049   7.669   8.444 -0.4983  0.0377 -0.2050
  797MOL0     N 7511  -0.605   8.111   8.121  0.8467 -0.2575  0.1965
  797MOL0     N 7512  -0.562   8.178   8.020 -0.3943  0.3103  0.3159
  797MOL0     C 7513   0.073   9.180   7.594  0.0479 -0.1754 -0.2262
  797MOL0     C 7514   0.129   9.265   7.503  0.0647 -0.4550 -0.3691
  797MOL0     C 7515   0.377   9.441   7.185  0.9265 -0.1916 -0.2663
  797MOL0     C 7516   0.429   9.403   7.058  0.0489 -0.2070 -0.7482
  797MOL0     C 7517   0.413   9.481   6.946 -0.5593 -0.0623 -0.3559
  797MOL0     C 7518   0.370   9.621   6.969 -0.0795  0.7318  1.1166
  797MOL0     O 7519   0.344   9.705   6.866 -0.2346  0.6215 -0.1424
  797MOL0     C 7520   0.462   9.767   6.810 -0.6437 -0.0670  0.7832
  797MOL0     C 7521   0.476   9.741   6.662  0.4084  0.8509 -1.1934
  797MOL0     C 7522   0.570   9.825   6.580 -0.3222 -1.3775  0.3594
  797MOL0     C 7523   0.514   9.967   6.555  0.0789  1.1531  0.1671
  797MOL0     C 7524   0.546   9.998   6.415 -1.3260  0.6287 -0.7251
  797MOL0     C 7525   0.594  10.026   6.306  0.4176 -0.4218 -0.9570
  797MOL0     C 7526   0.329   9.662   7.091  0.2176 -1.0362  0.5589
  797MOL0     C 7527   0.329   9.578   7.206 -0.5481 -0.0991  0.0753
  797MOL0     H 7528   0.437   9.315   7.630  1.3158 -2.0792 -3.0539
  797MOL0     H 7529   0.334   9.163   7.816  0.1154  0.0089  0.6614
  797MOL0     H 7530  -0.103   9.108   7.795 -1.1920  0.2893 -1.2943
  797MOL0     H 7531  -0.051   8.974   7.688 -1.1851 -2.2146  0.6593
  797MOL0     H 7532  -0.016   8.829   7.891 -0.8520 -0.5349  1.7465
  797MOL0     H 7533  -0.091   8.960   7.991  0.7559 -0.8149 -0.1329
  797MOL0     H 7534  -0.305   8.940   7.821 -0.8856 -1.8048 -1.9828
  797MOL0     H 7535  -0.245   8.785   7.779 -3.5312 -1.3540  2.4393
  797MOL0     H 7536  -0.243   8.696   7.986 -3.1017 -2.2972 -1.1966
  797MOL0     H 7537  -0.273   8.845   8.066  4.5264 -0.8671 -0.2972
  797MOL0     H 7538  -0.497   8.764   8.054 -1.0857 -0.9879 -0.8529
  797MOL0     H 7539  -0.492   8.864   7.915 -2.8125 -0.8481  3.0838
  797MOL0     H 7540  -0.538   8.682   7.775 -2.0745  2.6041  1.9888
  797MOL0     H 7541  -0.386   8.608   7.811 -0.7234  0.7774 -3.1040
  797MOL0     H 7542  -0.593   8.585   8.041  0.6214 -0.6336  0.9236
  797MOL0     H 7543  -0.645   8.519   7.890 -1.1493  1.6157  1.0480
  797MOL0     H 7544  -0.371   8.438   8.025 -1.8333 -1.8051  2.7108
  797MOL0     H 7545  -0.440   8.379   7.883 -0.4992 -1.6301  0.6056
  797MOL0     H 7546  -0.513   8.388   8.262  0.4931  1.8547 -1.7958
  797MOL0     H 7547  -0.475   8.131   8.397  0.7237  2.4007  0.4092
  797MOL0     H 7548  -0.631   8.230   8.432 -1.3014 -0.0113 -1.4155
  797MOL0     H 7549  -0.615   7.967   8.503  0.7707  0.9852  0.6266
  797MOL0     H 7550  -0.623   7.930   8.328  0.3394 -1.5178  0.4970
  797MOL0     H 7551  -0.842   8.069   8.329 -1.8004  1.2849  1.4493
  797MOL0     H 7552  -0.831   8.079   8.505 -0.6351  0.5297 -0.2448
  797MOL0     H 7553  -0.981   7.904   8.444 -0.8308 -2.6928 -7.1959
  797MOL0     H 7554  -0.832   7.838   8.518 -0.4315 -3.5576 -2.0785
  797MOL0     H 7555  -0.928   7.649   8.135  2.8613 -1.1536  1.8651
  797MOL0     H 7556  -1.030   7.450   8.021 -2.3507 -0.2424 -3.4419
  797MOL0     H 7557  -1.173   7.375   8.071  0.1469  0.3602 -1.9789
  797MOL0     H 7558  -1.179   7.541   8.026 -0.6167 -1.2985 -1.6750
  797MOL0     H 7559  -1.527   7.429   8.592  0.3583  0.0213  1.3127
  797MOL0     H 7560  -1.690   7.285   8.675  0.3628  2.2193 -2.2516
  797MOL0     H 7561  -1.791   6.979   8.871 -0.1790  2.5520  1.2179
  797MOL0     H 7562  -1.727   7.128   8.861  1.9364 -1.2569  0.3609
  797MOL0     H 7563  -1.957   7.118   8.781  0.2116 -2.6012  0.7680
  797MOL0     H 7564  -1.862   7.166   8.632  1.8063 -1.2903 -0.6420
  797MOL0     H 7565  -1.889   6.934   8.550  1.0919  1.1271  0.6797
  797MOL0     H 7566  -2.038   7.017   8.559 -0.9438  0.1690  0.5260
  797MOL0     H 7567  -1.913   6.834   8.765  1.7078  0.9743 -3.6129
  797MOL0     H 7568  -2.052   6.923   8.801  1.9236 -0.1836  2.3630
  797MOL0     H 7569  -2.185   6.774   8.628  1.3425  0.8569 -1.5751
  797MOL0     H 7570  -2.087   6.675   8.746  1.3185  0.3198  1.0631
  797MOL0     H 7571  -2.058   6.587   8.520 -1.3230  0.4539  0.0436
  797MOL0     H 7572  -1.999   6.739   8.456 -0.0443 -0.4638 -0.4660
  797MOL0     H 7573  -1.875   6.600   8.704 -0.0545  0.0795  0.1394
  797MOL0     H 7574  -1.803   6.725   8.599  1.0193 -0.1699 -2.1440
  797MOL0     H 7575  -1.707   6.507   8.570 -0.0510 -1.3653 -2.3477
  797MOL0     H 7576  -1.755   6.604   8.436 -0.3552  0.5001  0.5650
  797MOL0     H 7577  -1.422   6.960   8.638 -0.6510 -0.0270 -2.5174
  797MOL0     H 7578  -1.263   7.096   8.519  0.0802 -3.9559  2.1043
  797MOL0     H 7579  -1.206   7.563   8.549  0.9365 -4.8159  0.5361
  797MOL0     H 7580  -1.013   7.716   8.535  4.8390  0.6122 -2.2283
  797MOL0     H 7581  -0.030   9.146   7.583 -1.1382  2.5935  1.2425
  797MOL0     H 7582   0.062   9.290   7.421 -3.3248  0.5169  2.4730
  797MOL0     H 7583   0.467   9.301   7.053 -1.5014 -1.0294  1.8770
  797MOL0     H 7584   0.445   9.434   6.853 -1.0665  0.0231 -0.5764
  797MOL0     H 7585   0.469   9.873   6.836  1.9142  0.6537 -2.2915
  797MOL0     H 7586   0.551   9.723   6.856 -0.3716 -0.0708  0.2527
  797MOL0     H 7587   0.378   9.748   6.615 -0.0495  2.2704 -0.0842
  797MOL0     H 7588   0.486   9.633   6.651 -1.1758  0.3347  1.5665
  797MOL0     H 7589   0.582   9.771   6.485  0.4678 -2.0076  0.8097
  797MOL0     H 7590   0.669   9.844   6.621  0.1684  1.5552 -1.8679
  797MOL0     H 7591   0.572  10.036   6.617  1.8838 -0.7363  0.7037
  797MOL0     H 7592   0.407   9.966   6.576  0.2011 -0.4332  0.8885
  797MOL0     H 7593   0.635  10.051   6.210  2.4079 -1.1138 -0.3316
  797MOL0     H 7594   0.309   9.768   7.098 -1.3110 -1.1535 -1.0936
  797MOL0     H 7595   0.293   9.620   7.300 -2.3382 -0.9078 -0.2081
  798MOL0     O 7596   5.818   0.785   3.661  0.5695  0.1602  0.1492
  798MOL0     C 7597   5.817   0.837   3.769 -0.8021  0.4270 -0.7638
  798MOL0     O 7598   5.766   0.789   3.882 -0.1590  0.4673  0.3508
  798MOL0     C 7599   5.700   0.667   3.884 -0.0711 -0.0310 -0.0434
  798MOL0     C 7600   5.569   0.648   3.841 -0.3891  0.6075 -0.4778
  798MOL0     C 7601   5.502   0.526   3.869 -0.6282 -0.7930 -1.0571
  798MOL0     C 7602   5.569   0.423   3.921 -1.0710  0.1851 -0.1029
  798MOL0     O 7603   5.495   0.311   3.934 -1.0503 -0.1611 -0.6634
  798MOL0     C 7604   5.554   0.190   3.918  0.0681  0.0411  0.5509
  798MOL0     C 7605   5.433   0.094   3.918 -0.3776  0.4149 -0.0871
  798MOL0     C 7606   5.479  -0.049   3.958  0.4252  0.8101 -0.3727
  798MOL0     C 7607   5.457  -0.084   4.110  0.1304  0.1551 -1.2405
  798MOL0     C 7608   5.429  -0.228   4.151 -0.9307  0.4882  0.0283
  798MOL0     C 7609   5.294  -0.271   4.098 -0.7033 -0.3251 -0.4963
  798MOL0     C 7610   5.204  -0.345   4.194 -0.3985  0.5929 -0.5241
  798MOL0     C 7611   5.066  -0.364   4.130  0.5475  0.2007 -0.2688
  798MOL0     N 7612   4.996  -0.240   4.107  0.2903 -0.7422  0.2251
  798MOL0     C 7613   4.959  -0.205   3.979 -0.5610 -0.2510 -0.1271
  798MOL0     C 7614   4.889  -0.091   3.996 -0.3672 -0.1895  0.1266
  798MOL0     C 7615   4.831  -0.005   3.893  0.1331 -0.3442 -0.4476
  798MOL0     C 7616   4.938   0.094   3.826  0.0565  0.2732 -1.4716
  798MOL0     C 7617   4.877   0.187   3.722 -0.7808  0.4011 -0.1008
  798MOL0     C 7618   4.985   0.266   3.660 -0.1729  0.0456  0.2268
  798MOL0     O 7619   5.032   0.185   3.554  0.9328 -0.0672 -0.4544
  798MOL0     C 7620   5.089   0.234   3.438  0.0294  0.1681 -0.4737
  798MOL0     C 7621   5.075   0.156   3.330  0.0009 -0.2584  0.2919
  798MOL0     C 7622   5.142   0.183   3.210 -0.5312 -0.0337 -0.2777
  798MOL0     C 7623   5.149   0.067   3.109  0.7828 -0.2200 -0.2318
  798MOL0     C 7624   5.206   0.310   3.188 -0.9942 -0.0499 -0.8867
  798MOL0     C 7625   5.273   0.354   3.063  0.4359  0.1868  0.4032
  798MOL0     O 7626   5.329   0.484   3.067  0.3162 -0.1867  0.2200
  798MOL0     C 7627   5.395   0.552   2.966  1.0919  0.1199 -0.0800
  798MOL0     C 7628   5.453   0.674   3.015 -0.8086  0.2861  0.4588
  798MOL0     C 7629   5.526   0.757   2.931 -0.0533 -0.3823 -0.3831
  798MOL0     C 7630   5.527   0.731   2.797 -0.1754  0.3571  0.0296
  798MOL0     O 7631   5.585   0.827   2.720  0.2977  0.1977 -0.2221
  798MOL0     C 7632   5.591   0.816   2.586  0.2008  0.9569  0.7484
  798MOL0     C 7633   5.462   0.830   2.497 -0.6725 -0.2490  0.1498
  798MOL0     C 7634   5.372   0.958   2.512 -1.1302  0.0454 -0.3177
  798MOL0     C 7635   5.395   1.049   2.391 -1.0505  0.0787 -0.0764
  798MOL0     C 7636   5.327   1.186   2.403  0.3287 -0.2096 -1.1090
  798MOL0     C 7637   5.365   1.266   2.280  1.2695  0.4996  0.9678
  798MOL0     C 7638   5.310   1.406   2.297 -0.2994  0.0459 -0.3107
  798MOL0     C 7639   5.179   1.427   2.217  0.5057 -0.0822  0.1482
  798MOL0    Cl 7640   5.178   1.355   2.053 -0.2166 -0.0091  0.2237
  798MOL0     C 7641   5.480   0.608   2.749 -1.4339 -0.7974 -0.5556
  798MOL0     C 7642   5.413   0.520   2.832 -0.1348 -0.5135  0.6554
  798MOL0     O 7643   5.272   0.280   2.960 -1.1062  0.0752 -0.0078
  798MOL0     C 7644   5.213   0.395   3.299 -0.3381 -0.2030 -0.3977
  798MOL0     C 7645   5.155   0.359   3.426  0.4698  0.1627  0.2840
  798MOL0     N 7646   4.890  -0.063   4.129  0.3632 -0.3221 -0.8398
  798MOL0     N 7647   4.950  -0.151   4.198 -0.1821  0.5318 -0.4578
  798MOL0     C 7648   5.705   0.437   3.951  0.1856  0.0572  0.6232
  798MOL0     C 7649   5.770   0.554   3.924 -0.0626 -0.0962  0.4651
  798MOL0     C 7650   5.904   0.956   3.781 -0.0014 -0.3803 -0.4449
  798MOL0     C 7651   6.001   0.993   3.685  0.1536  0.6148  0.5058
  798MOL0     C 7652   6.065   1.119   3.681 -0.8927 -1.3187 -0.3989
  798MOL0     C 7653   6.037   1.226   3.768 -0.1865  0.4813  0.3552
  798MOL0     O 7654   6.127   1.331   3.769  0.2826  0.4035  0.3220
  798MOL0     C 7655   6.119   1.410   3.888 -0.1650 -0.8136 -0.5331
  798MOL0     C 7656   6.226   1.521   3.888 -0.4838 -0.5185  0.0943
  798MOL0     C 7657   6.190   1.648   3.971 -0.5355 -0.1573  0.0218
  798MOL0     C 7658   6.266   1.776   3.940 -0.6343  0.4667 -0.7910
  798MOL0     C 7659   6.228   1.825   3.811  0.0988  0.9338 -0.3996
  798MOL0     C 7660   6.193   1.875   3.707  1.5182  0.0952  1.2834
  798MOL0     C 7661   5.943   1.188   3.866 -0.4382  0.5731 -0.3977
  798MOL0     C 7662   5.876   1.063   3.868  0.1959 -0.5088  0.8596
  798MOL0     H 7663   5.510   0.728   3.798 -0.0677  2.1154  1.6798
  798MOL0     H 7664   5.399   0.512   3.836 -1.2487 -4.1030  1.7067
  798MOL0     H 7665   5.597   0.185   3.818 -0.3411  3.1301  0.1178
  798MOL0     H 7666   5.636   0.172   3.988  3.7854  1.2764 -3.0890
  798MOL0     H 7667   5.351   0.125   3.983 -1.8537  0.2375 -1.7729
  798MOL0     H 7668   5.390   0.102   3.818 -2.8609  1.1672  0.9488
  798MOL0     H 7669   5.425  -0.126   3.903  1.1819 -1.7118  2.1424
  798MOL0     H 7670   5.580  -0.063   3.919 -0.7555 -1.0616 -3.0363
  798MOL0     H 7671   5.543  -0.053   4.171 -2.6187 -0.0441  3.1890
  798MOL0     H 7672   5.366  -0.032   4.141 -0.5744 -1.8020  0.2618
  798MOL0     H 7673   5.505  -0.292   4.105 -0.8894 -0.7998  1.7923
  798MOL0     H 7674   5.448  -0.246   4.258 -2.4738 -0.6740  0.1389
  798MOL0     H 7675   5.241  -0.186   4.054  2.3120  0.8197 -2.2590
  798MOL0     H 7676   5.308  -0.339   4.013  0.6779  2.1424 -2.3695
  798MOL0     H 7677   5.250  -0.436   4.232 -0.6621  1.0047  0.8551
  798MOL0     H 7678   5.197  -0.275   4.278 -1.1975 -1.3740  1.1426
  798MOL0     H 7679   5.004  -0.422   4.198  1.0378  1.1839  1.0480
  798MOL0     H 7680   5.083  -0.430   4.045 -0.8792 -0.1588 -0.3093
  798MOL0     H 7681   4.975  -0.254   3.884 -0.3855 -1.9245  0.7434
  798MOL0     H 7682   4.801  -0.052   3.800  0.8084 -0.6029 -0.5374
  798MOL0     H 7683   4.747   0.058   3.924 -0.3523 -0.9120 -0.5915
  798MOL0     H 7684   5.006   0.023   3.777 -0.2012 -0.9157 -0.1859
  798MOL0     H 7685   4.992   0.144   3.906  1.3801 -3.4947  0.2237
  798MOL0     H 7686   4.803   0.251   3.770  1.6976  3.9922 -0.7003
  798MOL0     H 7687   4.832   0.119   3.650 -3.5853 -1.8259  3.3832
  798MOL0     H 7688   5.060   0.292   3.735 -1.2680  0.4974  1.2015
  798MOL0     H 7689   4.931   0.347   3.610 -0.3990 -1.0793 -1.4181
  798MOL0     H 7690   5.013   0.067   3.325 -0.1643 -0.1243 -0.0625
  798MOL0     H 7691   5.098   0.083   3.014  0.4343 -0.7450 -0.1420
  798MOL0     H 7692   5.248   0.040   3.072  1.4093  1.8937 -0.2084
  798MOL0     H 7693   5.116  -0.018   3.170 -0.9203 -1.4168 -2.6928
  798MOL0     H 7694   5.450   0.698   3.120  0.9628  0.5722  0.4626
  798MOL0     H 7695   5.560   0.851   2.973  2.0604 -1.1587 -0.2589
  798MOL0     H 7696   5.651   0.901   2.551  0.0120  1.4999  1.7105
  798MOL0     H 7697   5.643   0.724   2.559  0.9467  1.5068  0.2577
  798MOL0     H 7698   5.506   0.836   2.397  0.5484 -2.3580  0.4992
  798MOL0     H 7699   5.380   0.757   2.498 -0.1450 -0.8421  0.7740
  798MOL0     H 7700   5.384   1.016   2.605  3.1066 -0.7174 -0.1990
  798MOL0     H 7701   5.270   0.919   2.505 -1.6259  1.3837 -0.9008
  798MOL0     H 7702   5.504   1.054   2.381 -1.1420 -0.3005 -1.4446
  798MOL0     H 7703   5.345   0.996   2.309 -0.2942 -0.8448  0.0404
  798MOL0     H 7704   5.361   1.240   2.492 -1.9207 -0.3802 -0.0793
  798MOL0     H 7705   5.222   1.155   2.397  0.7918 -1.6426 -2.3280
  798MOL0     H 7706   5.474   1.279   2.275  1.5537  0.3793  4.2969
  798MOL0     H 7707   5.328   1.209   2.195  0.0936 -0.6744  2.2231
  798MOL0     H 7708   5.383   1.486   2.281 -0.8754  0.4944 -0.7946
  798MOL0     H 7709   5.290   1.420   2.404 -1.2549 -2.0338 -0.1762
  798MOL0     H 7710   5.150   1.532   2.210  2.9148  0.6823  0.5209
  798MOL0     H 7711   5.095   1.369   2.257 -0.1468 -1.0417 -2.4366
  798MOL0     H 7712   5.485   0.597   2.641 -0.6678 -1.4019 -0.4657
  798MOL0     H 7713   5.369   0.431   2.789 -1.3893  1.1971 -1.8934
  798MOL0     H 7714   5.241   0.499   3.286 -3.6549  1.0690  1.4179
  798MOL0     H 7715   5.185   0.417   3.513  0.2168 -1.6577  1.6371
  798MOL0     H 7716   5.756   0.349   3.988  0.0036 -0.1631  0.3622
  798MOL0     H 7717   5.875   0.551   3.953  0.2732  0.9227 -0.5886
  798MOL0     H 7718   6.012   0.931   3.596 -0.9613 -0.8568  1.3563
  798MOL0     H 7719   6.141   1.127   3.605 -3.2412 -0.7430 -2.8199
  798MOL0     H 7720   6.019   1.453   3.894 -0.4347 -1.5858  1.1359
  798MOL0     H 7721   6.129   1.345   3.976 -0.8923  0.5959  0.6458
  798MOL0     H 7722   6.249   1.545   3.784  0.4241  1.1463  0.6521
  798MOL0     H 7723   6.318   1.471   3.919  0.2801  0.5918 -0.3174
  798MOL0     H 7724   6.190   1.636   4.079  1.0264  0.3846  0.0999
  798MOL0     H 7725   6.088   1.668   3.935  0.5468 -0.7260 -3.7983
  798MOL0     H 7726   6.375   1.767   3.951 -0.8118 -0.8432  0.1621
  798MOL0     H 7727   6.243   1.862   4.004  1.8587  0.3271  0.4413
  798MOL0     H 7728   6.162   1.921   3.616  0.8433  0.0781  1.4955
  798MOL0     H 7729   5.933   1.256   3.951  1.9919 -1.5039  1.6830
  798MOL0     H 7730   5.801   1.041   3.943  0.2533 -1.3264  0.6881
  799MOL0     O 7731   4.053   2.830   4.419  0.4192 -0.3796 -0.0239
  799MOL0     C 7732   3.972   2.881   4.349  0.7359 -0.3556 -0.1309
  799MOL0     O 7733   3.985   3.006   4.286  0.0883 -0.1345 -0.5702
  799MOL0     C 7734   4.087   3.099   4.315  0.2601  0.3152 -0.7793
  799MOL0     C 7735   4.070   3.230   4.261  1.4587  1.0105 -0.4762
  799MOL0     C 7736   4.170   3.325   4.263 -0.9097 -0.3125 -0.1216
  799MOL0     C 7737   4.292   3.293   4.323  1.5200 -0.8600 -0.6790
  799MOL0     O 7738   4.398   3.381   4.326  1.0643  0.1067  0.2895
  799MOL0     C 7739   4.387   3.521   4.312 -0.9925  0.0188 -0.0670
  799MOL0     C 7740   4.392   3.560   4.160  0.2235  0.5055  0.9834
  799MOL0     C 7741   4.459   3.690   4.119 -0.2581 -0.2836 -0.3186
  799MOL0     C 7742   4.412   3.750   3.981  0.3734  0.1720  0.7679
  799MOL0     C 7743   4.516   3.724   3.870  0.2104  0.1096 -0.0403
  799MOL0     C 7744   4.462   3.764   3.731 -1.1270  0.2663  0.1885
  799MOL0     C 7745   4.558   3.714   3.628 -0.1820  0.1349 -0.2693
  799MOL0     C 7746   4.699   3.786   3.643  0.6778  0.1526  0.5112
  799MOL0     N 7747   4.779   3.715   3.551  0.5363 -0.2756 -0.5939
  799MOL0     C 7748   4.809   3.750   3.425  0.4768  0.3944 -0.1569
  799MOL0     C 7749   4.882   3.646   3.377  0.5210 -0.6265 -0.1051
  799MOL0     C 7750   4.956   3.646   3.246  0.2921 -0.1096  0.3570
  799MOL0     C 7751   4.902   3.751   3.143  0.6413 -0.8940  1.3603
  799MOL0     C 7752   4.975   3.742   3.008 -0.1707 -0.1817 -1.3542
  799MOL0     C 7753   4.938   3.614   2.932 -0.1799  0.5179 -0.3264
  799MOL0     O 7754   4.800   3.610   2.916  0.6319 -0.4266  0.7523
  799MOL0     C 7755   4.726   3.496   2.888  0.2410  0.0236 -0.0943
  799MOL0     C 7756   4.777   3.365   2.905  0.2693  0.6781  0.2207
  799MOL0     C 7757   4.701   3.254   2.870 -0.4274  0.5693 -0.0943
  799MOL0     C 7758   4.782   3.121   2.884  0.0660  0.2073  0.1229
  799MOL0     C 7759   4.569   3.271   2.827  0.5017  0.6522  0.3978
  799MOL0     C 7760   4.473   3.159   2.794 -0.0737 -1.3523  0.4341
  799MOL0     O 7761   4.386   3.179   2.695 -0.3954 -0.7135 -0.1043
  799MOL0     C 7762   4.263   3.127   2.701 -0.7214  0.3861  0.8839
  799MOL0     C 7763   4.153   3.210   2.663  0.6404  0.0680  0.4404
  799MOL0     C 7764   4.025   3.160   2.648  0.7871  0.4371 -0.6873
  799MOL0     C 7765   4.012   3.025   2.678 -0.6342  0.5933  0.3987
  799MOL0     O 7766   3.883   2.975   2.673 -0.7260  0.1383  0.0999
  799MOL0     C 7767   3.859   2.840   2.664 -0.0227  0.6011  0.5755
  799MOL0     C 7768   3.707   2.824   2.622 -0.2920  0.2700 -0.8143
  799MOL0     C 7769   3.646   2.916   2.520 -0.3349  0.2460  0.3031
  799MOL0     C 7770   3.725   2.898   2.383  0.2894  0.1649  0.6176
  799MOL0     C 7771   3.709   3.013   2.284  0.4034 -0.3265 -0.3464
  799MOL0     C 7772   3.793   3.145   2.326 -0.7124  1.1958  0.3310
  799MOL0     C 7773   3.755   3.262   2.244  0.2183 -0.7142  0.2171
  799MOL0     C 7774   3.627   3.330   2.284 -0.0750  0.6841  0.3009
  799MOL0    Cl 7775   3.669   3.415   2.431  0.4879  0.1631 -0.4618
  799MOL0     C 7776   4.118   2.942   2.719  0.0478 -0.0236 -0.3180
  799MOL0     C 7777   4.245   2.990   2.717  0.1173 -0.0252 -1.0973
  799MOL0     O 7778   4.471   3.064   2.867  1.0692  0.0898 -0.1612
  799MOL0     C 7779   4.512   3.407   2.824 -0.2228 -0.1107 -0.0607
  799MOL0     C 7780   4.594   3.509   2.840  0.3030 -0.0236 -1.0172
  799MOL0     N 7781   4.902   3.550   3.476 -0.1177  0.2603  0.1152
  799MOL0     N 7782   4.829   3.590   3.576  1.2192  0.4984  0.3488
  799MOL0     C 7783   4.302   3.176   4.389 -0.3289  0.6738  0.5756
  799MOL0     C 7784   4.207   3.075   4.383 -0.7515  0.0760 -0.1424
  799MOL0     C 7785   3.848   2.813   4.314 -0.2512 -0.1675  0.1795
  799MOL0     C 7786   3.825   2.693   4.377  0.2418 -0.3372 -0.4218
  799MOL0     C 7787   3.707   2.619   4.352 -0.0078 -0.1851 -1.0832
  799MOL0     C 7788   3.601   2.663   4.270 -0.3743 -0.1261  1.2573
  799MOL0     O 7789   3.490   2.589   4.236 -0.0811  0.0528  0.0497
  799MOL0     C 7790   3.465   2.465   4.305 -0.0021 -0.7966  1.0291
  799MOL0     C 7791   3.416   2.499   4.448  0.0141  0.6485 -0.4765
  799MOL0     C 7792   3.331   2.390   4.511 -0.1479 -0.0332  0.4418
  799MOL0     C 7793   3.208   2.342   4.424 -0.6285 -0.0720 -0.1963
  799MOL0     C 7794   3.104   2.285   4.506  1.4303  0.6877  0.0475
  799MOL0     C 7795   3.007   2.242   4.575  0.0201 -0.4317  0.7817
  799MOL0     C 7796   3.630   2.783   4.205 -0.2659  0.4850  0.3647
  799MOL0     C 7797   3.748   2.861   4.229  0.8695 -0.5026 -1.0256
  799MOL0     H 7798   3.982   3.246   4.200  1.1225 -3.3702 -1.4145
  799MOL0     H 7799   4.153   3.416   4.207  4.3841  0.5839 -0.7953
  799MOL0     H 7800   4.293   3.554   4.357 -0.4345  3.0232 -0.8954
  799MOL0     H 7801   4.466   3.573   4.367  0.5910 -3.8034  1.7063
  799MOL0     H 7802   4.441   3.480   4.104 -2.9717 -0.5283 -0.5916
  799MOL0     H 7803   4.289   3.551   4.124  0.4333 -0.1148  0.5211
  799MOL0     H 7804   4.439   3.765   4.196 -1.8966 -5.0760  4.6544
  799MOL0     H 7805   4.567   3.678   4.118 -0.1926  0.0171 -3.0304
  799MOL0     H 7806   4.318   3.709   3.944 -0.6176  2.3687  0.7163
  799MOL0     H 7807   4.398   3.858   3.992 -2.3149  0.2783 -2.2403
  799MOL0     H 7808   4.584   3.808   3.888 -1.4030  1.6774 -0.8730
  799MOL0     H 7809   4.550   3.621   3.881  1.3003  0.6658  2.6258
  799MOL0     H 7810   4.367   3.711   3.715  0.2887 -1.6430 -2.6969
  799MOL0     H 7811   4.443   3.872   3.730 -0.9825  0.3385  1.9919
  799MOL0     H 7812   4.564   3.605   3.638  2.5743  0.1575 -0.6628
  799MOL0     H 7813   4.520   3.730   3.526 -2.0514  3.5669  0.8232
  799MOL0     H 7814   4.726   3.769   3.748 -1.6535  0.0460  1.1496
  799MOL0     H 7815   4.692   3.894   3.631 -0.2338 -0.1289 -1.8763
  799MOL0     H 7816   4.780   3.841   3.372  1.5319  1.0689  0.3948
  799MOL0     H 7817   5.064   3.659   3.258  0.2264 -0.5614  1.5669
  799MOL0     H 7818   4.938   3.544   3.209  1.9217 -0.6714  1.0455
  799MOL0     H 7819   4.909   3.847   3.195  0.7200 -2.2418  4.0144
  799MOL0     H 7820   4.798   3.746   3.110  0.4067  1.3547  1.6027
  799MOL0     H 7821   5.083   3.746   3.025 -0.4276  1.5758  0.1095
  799MOL0     H 7822   4.945   3.825   2.944  2.9666  2.1000 -0.1187
  799MOL0     H 7823   4.980   3.526   2.981  1.1100  1.6929  0.7829
  799MOL0     H 7824   4.985   3.614   2.833  0.5289 -2.6710 -0.0812
  799MOL0     H 7825   4.880   3.354   2.938  1.1899 -0.5305 -2.7460
  799MOL0     H 7826   4.747   3.050   2.808 -1.5935 -0.1764  1.1896
  799MOL0     H 7827   4.890   3.135   2.897  0.1206 -0.4783  0.4602
  799MOL0     H 7828   4.741   3.062   2.967  1.2296 -0.2313  0.4004
  799MOL0     H 7829   4.180   3.311   2.635 -0.4125  0.2851  0.1509
  799MOL0     H 7830   3.948   3.227   2.610 -0.3038  1.8621  3.5552
  799MOL0     H 7831   3.927   2.793   2.591 -2.5506  2.4434 -3.3198
  799MOL0     H 7832   3.881   2.788   2.758  0.4007  0.3275  0.3340
  799MOL0     H 7833   3.686   2.723   2.587 -0.4421 -0.0941  0.2995
  799MOL0     H 7834   3.644   2.849   2.708  0.6870  3.0808 -0.7946
  799MOL0     H 7835   3.646   3.019   2.557 -1.9607  0.1941  0.5310
  799MOL0     H 7836   3.539   2.897   2.504 -0.0755 -0.2161 -0.9463
  799MOL0     H 7837   3.831   2.890   2.411  0.6464  3.3056  0.5815
  799MOL0     H 7838   3.698   2.809   2.326 -2.0410  0.3150  1.3708
  799MOL0     H 7839   3.604   3.042   2.289  0.8181  1.0141  2.7024
  799MOL0     H 7840   3.731   2.973   2.184  0.2654 -4.5612  1.1051
  799MOL0     H 7841   3.779   3.162   2.433  0.2739  0.7368  0.5454
  799MOL0     H 7842   3.900   3.122   2.315 -0.8884  0.9603 -1.0372
  799MOL0     H 7843   3.757   3.244   2.136 -0.0349  1.5792 -0.2238
  799MOL0     H 7844   3.838   3.334   2.247  1.2178 -1.8435  0.2383
  799MOL0     H 7845   3.547   3.255   2.282  2.4827 -2.2810 -2.2178
  799MOL0     H 7846   3.597   3.412   2.217  1.3448  3.7702  3.1699
  799MOL0     H 7847   4.107   2.836   2.737  0.1437 -0.2485 -1.4929
  799MOL0     H 7848   4.327   2.922   2.740 -0.3787  0.0398  1.0543
  799MOL0     H 7849   4.408   3.422   2.797 -0.7144 -0.4576  1.4906
  799MOL0     H 7850   4.559   3.612   2.833 -1.4739 -0.3649  1.3659
  799MOL0     H 7851   4.399   3.143   4.427  0.1776  1.7762  0.2605
  799MOL0     H 7852   4.228   2.983   4.437 -3.9085 -0.0761  1.0264
  799MOL0     H 7853   3.884   2.651   4.458 -0.1910 -0.4352 -0.1532
  799MOL0     H 7854   3.707   2.527   4.410  3.1635  0.2274 -0.2038
  799MOL0     H 7855   3.385   2.419   4.246  1.0921  0.9170 -2.0355
  799MOL0     H 7856   3.550   2.396   4.303  1.5559  1.0418 -0.5221
  799MOL0     H 7857   3.359   2.590   4.430  0.5372  0.7916 -1.4605
  799MOL0     H 7858   3.501   2.520   4.513 -3.0548  1.3050  3.7327
  799MOL0     H 7859   3.294   2.411   4.611 -0.6067 -0.7194  0.4184
  799MOL0     H 7860   3.399   2.304   4.510  0.6840  0.5950  0.8848
  799MOL0     H 7861   3.256   2.263   4.365 -0.3492 -1.7456  2.1634
  799MOL0     H 7862   3.165   2.429   4.372  0.6659  0.4881 -0.3629
  799MOL0     H 7863   2.915   2.221   4.625 -2.6294 -0.8437 -3.7060
  799MOL0     H 7864   3.570   2.815   4.120 -0.9864 -1.2270  0.1951
  799MOL0     H 7865   3.763   2.954   4.175  1.6499 -0.9854 -1.6621
  800MOL0     O 7866  11.110   7.843   7.288  0.3268 -0.1961 -0.6661
  800MOL0     C 7867  11.167   7.811   7.185 -0.4442 -0.0511 -1.4331
  800MOL0     O 7868  11.254   7.700   7.166 -0.4053 -0.1431  0.8782
  800MOL0     C 7869  11.282   7.604   7.261 -0.6648 -0.3210 -0.2123
  800MOL0     C 7870  11.391   7.524   7.240 -0.4136  0.2576  0.3447
  800MOL0     C 7871  11.432   7.425   7.333  0.5052  0.4444 -0.0592
  800MOL0     C 7872  11.347   7.400   7.448 -0.1161 -0.3214 -0.1784
  800MOL0     O 7873  11.392   7.310   7.541  1.1030  0.6532 -0.5063
  800MOL0     C 7874  11.312   7.255   7.654  0.8724 -0.5819 -0.2520
  800MOL0     C 7875  11.340   7.343   7.773  0.7533 -0.7290 -0.1489
  800MOL0     C 7876  11.255   7.306   7.893 -0.1177  0.5818  0.1556
  800MOL0     C 7877  11.295   7.174   7.974  0.2978 -0.0622  1.0681
  800MOL0     C 7878  11.192   7.153   8.087 -1.2374 -0.6336 -0.0072
  800MOL0     C 7879  11.210   7.031   8.179 -0.4250  0.6017 -0.7895
  800MOL0     C 7880  11.328   7.049   8.282  0.1626  0.5303  1.0044
  800MOL0     C 7881  11.294   7.078   8.423  1.6025  0.2256  0.0102
  800MOL0     N 7882  11.214   6.956   8.473 -0.1834  0.9378  0.0746
  800MOL0     C 7883  11.265   6.828   8.492  0.2226 -1.0368 -1.0561
  800MOL0     C 7884  11.166   6.764   8.551 -0.6445 -0.9962 -0.2036
  800MOL0     C 7885  11.187   6.628   8.597  0.6964  0.0133 -0.1906
  800MOL0     C 7886  11.237   6.601   8.739 -0.5532  0.6666 -0.6239
  800MOL0     C 7887  11.129   6.647   8.846 -0.0703  0.1666 -0.0790
  800MOL0     C 7888  11.170   6.611   8.998  0.5422  0.0911  0.7063
  800MOL0     O 7889  11.282   6.679   9.047 -0.1645  0.8358  0.1048
  800MOL0     C 7890  11.273   6.811   9.053 -0.4979 -0.9600  0.2087
  800MOL0     C 7891  11.363   6.888   8.977  0.9057  1.1486 -0.6684
  800MOL0     C 7892  11.370   7.029   9.005 -0.8890  0.0841  0.2788
  800MOL0     C 7893  11.456   7.119   8.926 -0.7119 -0.5630  1.2886
  800MOL0     C 7894  11.278   7.088   9.100  1.1664 -0.4708  0.3213
  800MOL0     C 7895  11.271   7.242   9.124 -0.2666  0.8021 -0.5313
  800MOL0     O 7896  11.371   7.293   9.201 -0.1374  0.0647 -0.3233
  800MOL0     C 7897  11.369   7.428   9.220  0.1163 -0.8491  0.1591
  800MOL0     C 7898  11.481   7.506   9.212 -0.4740 -0.3785 -0.2309
  800MOL0     C 7899  11.486   7.645   9.242 -0.0367  0.3642  1.0800
  800MOL0     C 7900  11.372   7.718   9.271 -0.5670  0.0681 -0.2124
  800MOL0     O 7901  11.369   7.853   9.294  0.1934  0.5714 -0.3431
  800MOL0     C 7902  11.489   7.928   9.293 -0.7550  0.0869 -0.7706
  800MOL0     C 7903  11.569   7.909   9.420 -0.9182 -0.2845  1.4586
  800MOL0     C 7904  11.656   8.030   9.454 -0.1466 -0.3858 -0.9089
  800MOL0     C 7905  11.800   7.987   9.471 -0.2207 -0.0360 -0.4725
  800MOL0     C 7906  11.888   8.073   9.564  0.3152 -0.4204 -0.7823
  800MOL0     C 7907  11.911   8.226   9.521 -0.8751  0.0625 -0.6891
  800MOL0     C 7908  12.015   8.298   9.612 -0.0725 -1.2971 -0.6374
  800MOL0     C 7909  11.956   8.332   9.748 -0.1098 -0.1032  0.0909
  800MOL0    Cl 7910  11.817   8.442   9.740  0.0416  0.1900 -0.0370
  800MOL0     C 7911  11.250   7.648   9.275 -0.2444 -0.5382 -0.6760
  800MOL0     C 7912  11.250   7.504   9.253 -0.0659  0.1058  0.2475
  800MOL0     O 7913  11.174   7.300   9.070 -0.1568 -0.3325 -0.5356
  800MOL0     C 7914  11.192   7.013   9.170  0.4965 -0.1240  0.1777
  800MOL0     C 7915  11.199   6.876   9.158  0.6325  0.3639  0.8464
  800MOL0     N 7916  11.054   6.845   8.569 -0.3250 -0.6280  0.2302
  800MOL0     N 7917  11.085   6.957   8.518  0.6762  0.0364 -0.4247
  800MOL0     C 7918  11.244   7.485   7.467 -0.0454 -0.4739 -0.2758
  800MOL0     C 7919  11.199   7.577   7.372  0.0921  0.1566 -0.0840
  800MOL0     C 7920  11.153   7.904   7.071  0.0273 -0.0366 -0.1432
  800MOL0     C 7921  11.039   7.995   7.069 -1.3496  0.3640  0.0807
  800MOL0     C 7922  11.047   8.098   6.976  0.0915  0.7663  0.9820
  800MOL0     C 7923  11.144   8.104   6.867  0.8643 -0.3117 -0.9888
  800MOL0     O 7924  11.142   8.201   6.765 -0.3758  0.1021  0.2538
  800MOL0     C 7925  11.082   8.330   6.778  0.3301  0.1903  0.4158
  800MOL0     C 7926  11.099   8.406   6.648 -0.8426  1.0411  0.5630
  800MOL0     C 7927  11.013   8.340   6.536 -0.4883 -0.3768  0.7370
  800MOL0     C 7928  11.053   8.354   6.398 -0.7072  0.4563  0.0053
  800MOL0     C 7929  11.034   8.482   6.333  0.5827 -0.6012  0.3348
  800MOL0     C 7930  11.014   8.594   6.280 -0.7310  0.1520 -0.2348
  800MOL0     C 7931  11.250   8.013   6.876 -0.5201  0.0559  0.0540
  800MOL0     C 7932  11.258   7.919   6.977  0.8257 -0.8414  0.2528
  800MOL0     H 7933  11.446   7.554   7.151  0.8365 -0.8434  0.7220
  800MOL0     H 7934  11.524   7.371   7.313  1.6437  2.0984  0.4654
  800MOL0     H 7935  11.206   7.242   7.631  0.0595 -0.2934  2.9030
  800MOL0     H 7936  11.347   7.153   7.667 -2.8303 -1.8441  1.0042
  800MOL0     H 7937  11.444   7.327   7.801  0.8382 -1.7277 -0.9620
  800MOL0     H 7938  11.317   7.449   7.756 -0.2486 -1.0602 -0.9339
  800MOL0     H 7939  11.269   7.389   7.964 -1.2324  1.8759 -1.0795
  800MOL0     H 7940  11.147   7.302   7.877 -0.0382  2.4271 -1.1919
  800MOL0     H 7941  11.298   7.088   7.906 -0.5527  2.2991 -2.2336
  800MOL0     H 7942  11.399   7.176   8.008  1.1408 -3.6656 -0.8195
  800MOL0     H 7943  11.196   7.242   8.149 -5.7684  0.7298 -1.2534
  800MOL0     H 7944  11.095   7.140   8.037 -0.6788  0.6238 -1.4770
  800MOL0     H 7945  11.117   6.998   8.226 -1.3050  0.6643 -2.3862
  800MOL0     H 7946  11.240   6.955   8.106  2.0954  0.9045 -0.1472
  800MOL0     H 7947  11.397   6.965   8.273  1.0627  1.3894 -0.4766
  800MOL0     H 7948  11.392   7.126   8.237  0.8226  0.9144  2.5324
  800MOL0     H 7949  11.240   7.172   8.437 -0.0302 -0.6986  0.1211
  800MOL0     H 7950  11.384   7.072   8.485 -0.3627  2.9086  3.5010
  800MOL0     H 7951  11.365   6.788   8.485 -0.1128 -2.1921  0.2152
  800MOL0     H 7952  11.092   6.575   8.584  0.5158  0.2060  0.3209
  800MOL0     H 7953  11.256   6.584   8.524 -1.1975 -0.4399 -1.7985
  800MOL0     H 7954  11.333   6.650   8.757 -1.2135  0.9826  2.6191
  800MOL0     H 7955  11.255   6.493   8.749 -0.7856  0.7397  0.7441
  800MOL0     H 7956  11.039   6.586   8.832  0.0009 -0.1162  0.6462
  800MOL0     H 7957  11.093   6.750   8.836 -1.6150 -0.2777  0.5991
  800MOL0     H 7958  11.203   6.506   8.997  0.8283  0.1868 -0.0452
  800MOL0     H 7959  11.086   6.629   9.066  0.4663  0.6570  0.4628
  800MOL0     H 7960  11.418   6.850   8.892 -0.6005 -0.1740 -1.0922
  800MOL0     H 7961  11.404   7.213   8.908 -1.7176 -0.8632  2.5385
  800MOL0     H 7962  11.556   7.122   8.971  1.0343  2.3892 -2.2656
  800MOL0     H 7963  11.484   7.073   8.830  1.3077  0.3117  1.4035
  800MOL0     H 7964  11.571   7.447   9.204 -0.5306 -1.8158  5.4866
  800MOL0     H 7965  11.589   7.678   9.246  1.1123 -2.3524 -1.7007
  800MOL0     H 7966  11.551   7.909   9.205 -0.7004  0.9470 -0.9306
  800MOL0     H 7967  11.457   8.032   9.279  1.4688  2.1157  5.6834
  800MOL0     H 7968  11.488   7.899   9.492 -1.4856 -0.6133  0.7910
  800MOL0     H 7969  11.621   7.813   9.427  1.1460  0.8982  4.1870
  800MOL0     H 7970  11.625   8.066   9.552  1.1942 -1.1253 -0.1876
  800MOL0     H 7971  11.649   8.109   9.379  2.0708  3.0749  2.1979
  800MOL0     H 7972  11.795   7.889   9.520 -2.1501 -1.1547 -2.6955
  800MOL0     H 7973  11.849   7.966   9.375 -0.5078 -0.2228 -0.5798
  800MOL0     H 7974  11.981   8.016   9.562  1.3261  1.1811 -0.8725
  800MOL0     H 7975  11.849   8.061   9.666  3.6724 -0.0343  0.6495
  800MOL0     H 7976  11.942   8.214   9.417  2.2108 -0.1453  0.1435
  800MOL0     H 7977  11.814   8.277   9.520 -1.2965 -0.7150 -0.5318
  800MOL0     H 7978  12.059   8.392   9.576  3.4419 -2.3853  0.4761
  800MOL0     H 7979  12.104   8.236   9.623  2.0118  1.2563 -1.8834
  800MOL0     H 7980  12.042   8.377   9.799  0.4998 -0.8875 -0.2287
  800MOL0     H 7981  11.918   8.241   9.796  0.3612 -1.4845 -2.0085
  800MOL0     H 7982  11.157   7.700   9.295  0.2005  0.2295 -0.5532
  800MOL0     H 7983  11.167   7.442   9.283 -0.0135  1.0597  2.5287
  800MOL0     H 7984  11.111   7.058   9.228 -0.7443 -0.1413 -1.4692
  800MOL0     H 7985  11.126   6.828   9.223  1.1467  1.3439  2.2053
  800MOL0     H 7986  11.184   7.472   7.556  2.0622  0.1555  1.3179
  800MOL0     H 7987  11.104   7.623   7.394  0.7418  0.6330  1.9648
  800MOL0     H 7988  10.952   7.989   7.134 -3.8768 -2.4500 -3.1603
  800MOL0     H 7989  10.964   8.168   6.973 -1.6244 -1.1937 -0.2024
  800MOL0     H 7990  10.980   8.334   6.818  0.0875  0.9472 -0.2436
  800MOL0     H 7991  11.136   8.381   6.858  2.4805 -0.2705 -0.6569
  800MOL0     H 7992  11.205   8.395   6.624 -1.7179 -2.5813 -2.6194
  800MOL0     H 7993  11.080   8.513   6.658 -3.1769  1.1309 -2.9219
  800MOL0     H 7994  10.915   8.387   6.548 -0.3693  0.7334 -2.0869
  800MOL0     H 7995  11.006   8.231   6.541 -1.7082 -0.7416 -4.2987
  800MOL0     H 7996  11.003   8.282   6.332 -0.7318 -1.0802  1.6226
  800MOL0     H 7997  11.161   8.339   6.394 -0.7492 -2.3742  3.9080
  800MOL0     H 7998  11.023   8.688   6.230 -0.9486  0.3245  0.0428
  800MOL0     H 7999  11.330   8.032   6.804 -2.2726  0.4935 -1.8892
  800MOL0     H 8000  11.343   7.852   6.972  0.4399 -1.3934  0.9564
  801MOL0     O 8001   2.924   6.765   4.882  0.0843  0.3090 -0.2509
  801MOL0     C 8002   2.814   6.798   4.850  0.3260  0.1076 -0.2532
  801MOL0     O 8003   2.709   6.717   4.830  0.4199 -0.6570  1.4325
  801MOL0     C 8004   2.730   6.589   4.820  0.3130 -0.2682 -0.5122
  801MOL0     C 8005   2.752   6.524   4.945  0.8331 -0.4431 -0.2373
  801MOL0     C 8006   2.769   6.383   4.958  0.3215 -0.7705  0.5755
  801MOL0     C 8007   2.766   6.309   4.839 -0.4480  0.3396  0.7609
  801MOL0     O 8008   2.776   6.174   4.842 -0.0943 -0.3986 -0.4285
  801MOL0     C 8009   2.890   6.125   4.917 -0.5613 -0.1846  1.1927
  801MOL0     C 8010   2.856   5.982   4.957 -0.0709 -0.3240  0.4952
  801MOL0     C 8011   2.978   5.902   4.960  0.5885  1.1076  0.5348
  801MOL0     C 8012   3.076   5.966   5.056 -0.2798  1.3258  0.1900
  801MOL0     C 8013   3.201   5.880   5.084 -0.0909 -0.0145  0.5885
  801MOL0     C 8014   3.319   5.880   4.985  0.2153  0.3175 -0.3998
  801MOL0     C 8015   3.433   5.803   5.044 -0.7441  0.2432  0.9468
  801MOL0     C 8016   3.557   5.806   4.950  0.4166 -0.6038 -0.0949
  801MOL0     N 8017   3.625   5.932   4.966 -0.0940  0.7871  1.2380
  801MOL0     C 8018   3.706   5.948   5.078  0.5672  0.8072 -0.2404
  801MOL0     C 8019   3.743   6.079   5.058 -0.3486  0.9870 -1.4011
  801MOL0     C 8020   3.818   6.152   5.169 -0.5457 -0.4470 -0.6400
  801MOL0     C 8021   3.963   6.160   5.137 -1.0722  0.3233  0.6186
  801MOL0     C 8022   4.011   6.268   5.046 -0.3954  0.4504  0.3029
  801MOL0     C 8023   4.147   6.230   4.989 -0.3226  0.5483 -0.7436
  801MOL0     O 8024   4.122   6.125   4.888 -0.4599 -1.2821  0.2372
  801MOL0     C 8025   4.116   6.166   4.755 -0.4660  0.4831 -0.7306
  801MOL0     C 8026   4.149   6.067   4.658 -0.5576 -0.9721 -0.7077
  801MOL0     C 8027   4.145   6.101   4.519  0.0269 -0.0539  0.6171
  801MOL0     C 8028   4.181   5.990   4.422  0.5607 -0.7609  0.1083
  801MOL0     C 8029   4.085   6.222   4.482  0.6066  0.4128  0.6622
  801MOL0     C 8030   4.050   6.260   4.338  1.3195  0.8109 -0.6250
  801MOL0     O 8031   4.022   6.398   4.313 -0.4123  0.1195  0.8372
  801MOL0     C 8032   3.997   6.423   4.181  0.5086 -0.0362 -0.6593
  801MOL0     C 8033   3.883   6.494   4.138  0.2007  0.2072 -0.7764
  801MOL0     C 8034   3.859   6.523   4.001  0.9677 -0.2636 -0.9000
  801MOL0     C 8035   3.955   6.486   3.900 -0.2419 -0.2920 -0.2946
  801MOL0     O 8036   3.944   6.502   3.763 -0.7943 -0.2475 -1.4175
  801MOL0     C 8037   3.839   6.588   3.709 -0.3446  0.0069  0.4923
  801MOL0     C 8038   3.718   6.505   3.678 -0.5958  0.7140 -0.7117
  801MOL0     C 8039   3.585   6.579   3.662  0.1904 -0.5247 -0.3876
  801MOL0     C 8040   3.465   6.492   3.612 -0.5797  0.2003  0.9094
  801MOL0     C 8041   3.338   6.583   3.599  0.2120  0.0009  0.5406
  801MOL0     C 8042   3.215   6.490   3.616  0.1115  0.7798 -1.0653
  801MOL0     C 8043   3.186   6.439   3.763  0.4484  0.0785 -0.2056
  801MOL0     C 8044   3.032   6.460   3.796 -1.1182  0.5554 -0.5522
  801MOL0    Cl 8045   2.928   6.326   3.753 -0.0184 -0.2624  0.2237
  801MOL0     C 8046   4.069   6.426   3.939 -0.1474 -0.5469 -0.1481
  801MOL0     C 8047   4.087   6.407   4.077 -0.5103 -0.3994 -0.2732
  801MOL0     O 8048   4.017   6.164   4.255  0.3261 -0.8044  0.3031
  801MOL0     C 8049   4.046   6.316   4.577 -0.4103 -0.3885  0.3273
  801MOL0     C 8050   4.066   6.291   4.712 -0.7803 -0.7267 -0.0390
  801MOL0     N 8051   3.686   6.134   4.945 -0.0187  0.2250 -0.1670
  801MOL0     N 8052   3.630   6.037   4.888  0.6266 -0.3621 -0.2108
  801MOL0     C 8053   2.749   6.376   4.710 -0.1181  0.5854  0.4216
  801MOL0     C 8054   2.731   6.519   4.704 -0.2468  1.1010  1.0637
  801MOL0     C 8055   2.790   6.944   4.843 -0.4076 -0.5137 -0.7876
  801MOL0     C 8056   2.680   7.000   4.766 -0.6920  0.1583 -0.9011
  801MOL0     C 8057   2.661   7.133   4.741 -0.3594  0.6846  0.0668
  801MOL0     C 8058   2.762   7.227   4.780 -0.1988 -0.5917  0.1185
  801MOL0     O 8059   2.742   7.352   4.725 -0.5064 -0.2078  0.9214
  801MOL0     C 8060   2.843   7.451   4.752 -0.5992  0.3278 -0.7124
  801MOL0     C 8061   2.799   7.570   4.673  0.1203 -0.5248 -0.3219
  801MOL0     C 8062   2.847   7.703   4.735 -0.1234  0.4060  0.2666
  801MOL0     C 8063   2.761   7.814   4.680  0.0176 -0.0822  0.1276
  801MOL0     C 8064   2.821   7.938   4.725  0.7619 -0.3528 -0.6429
  801MOL0     C 8065   2.866   8.038   4.778  0.1616 -0.1044 -0.6987
  801MOL0     C 8066   2.869   7.186   4.865  0.1818  1.0139 -0.6513
  801MOL0     C 8067   2.882   7.043   4.890  0.9699 -0.2594  0.0467
  801MOL0     H 8068   2.744   6.576   5.040 -0.0349 -1.1792  0.1151
  801MOL0     H 8069   2.785   6.334   5.053  1.9216 -0.6782  0.3889
  801MOL0     H 8070   2.973   6.121   4.846 -0.2296 -2.0951  1.6394
  801MOL0     H 8071   2.907   6.192   5.002  0.4815 -2.0367  2.5270
  801MOL0     H 8072   2.800   5.974   5.050  1.5889  0.5522  1.6226
  801MOL0     H 8073   2.796   5.936   4.879  1.2138 -1.5897  0.1994
  801MOL0     H 8074   2.942   5.807   5.002 -0.5647  1.7063  0.9620
  801MOL0     H 8075   3.017   5.876   4.861 -3.4119 -0.5678 -0.8135
  801MOL0     H 8076   3.102   6.064   5.014 -1.3455  1.0340 -1.2152
  801MOL0     H 8077   3.036   5.979   5.157  0.4441 -1.2306  0.8820
  801MOL0     H 8078   3.236   5.920   5.180 -0.8785  1.1660  0.3938
  801MOL0     H 8079   3.179   5.774   5.099  1.2886 -0.5202 -0.7263
  801MOL0     H 8080   3.287   5.843   4.887 -0.8508 -2.1818  0.7890
  801MOL0     H 8081   3.369   5.977   4.977  2.7472 -1.0120 -1.5897
  801MOL0     H 8082   3.461   5.852   5.138 -0.9190  1.3840  0.4162
  801MOL0     H 8083   3.405   5.701   5.073  0.8038  0.7805  4.9293
  801MOL0     H 8084   3.528   5.774   4.850  0.1072 -2.2612  0.4935
  801MOL0     H 8085   3.625   5.727   4.983 -1.5804 -1.6686  1.6783
  801MOL0     H 8086   3.707   5.900   5.175 -2.8175 -1.9712 -1.3900
  801MOL0     H 8087   3.784   6.255   5.182  2.9174  0.7519  0.0096
  801MOL0     H 8088   3.805   6.099   5.264  0.3208  0.6029  0.0859
  801MOL0     H 8089   4.006   6.064   5.109 -1.1813  0.5543 -0.3690
  801MOL0     H 8090   4.014   6.178   5.232 -1.8925 -1.4030  1.4265
  801MOL0     H 8091   4.037   6.361   5.097  0.0590 -0.0737  1.0491
  801MOL0     H 8092   3.933   6.276   4.969 -0.5118  3.1515  0.6293
  801MOL0     H 8093   4.207   6.191   5.072  3.5185  0.9278 -3.0734
  801MOL0     H 8094   4.207   6.315   4.957 -1.4605  1.0525 -1.5843
  801MOL0     H 8095   4.184   5.976   4.705 -0.8026 -0.5873  0.2606
  801MOL0     H 8096   4.264   6.027   4.361  1.2358 -0.0285  1.4355
  801MOL0     H 8097   4.216   5.903   4.479 -0.4298  0.6156  3.0016
  801MOL0     H 8098   4.101   5.950   4.357  0.7083 -1.3233  0.2637
  801MOL0     H 8099   3.810   6.513   4.217 -0.2723 -1.9009 -0.6443
  801MOL0     H 8100   3.764   6.572   3.984 -0.2957 -1.7412  1.5251
  801MOL0     H 8101   3.810   6.671   3.773 -0.4135 -1.5771  2.6378
  801MOL0     H 8102   3.878   6.637   3.619 -0.9888  0.2797  0.3583
  801MOL0     H 8103   3.727   6.430   3.599 -5.5278  0.1695 -1.0938
  801MOL0     H 8104   3.704   6.440   3.766  1.8926 -1.1936 -1.5975
  801MOL0     H 8105   3.603   6.660   3.590  0.3894 -0.1740  0.0555
  801MOL0     H 8106   3.563   6.621   3.760 -1.6600  0.0222 -0.9906
  801MOL0     H 8107   3.489   6.457   3.511  0.8271  1.6618  0.6874
  801MOL0     H 8108   3.440   6.408   3.677 -1.4067 -1.8130 -1.8326
  801MOL0     H 8109   3.339   6.618   3.495 -0.0368 -2.1047 -0.2053
  801MOL0     H 8110   3.338   6.669   3.667  1.4109 -1.3028  2.2600
  801MOL0     H 8111   3.128   6.540   3.572 -0.1205  1.1963 -0.1582
  801MOL0     H 8112   3.227   6.401   3.553  0.2480  0.9930 -1.3398
  801MOL0     H 8113   3.248   6.508   3.821  2.0667 -2.2748  1.0208
  801MOL0     H 8114   3.220   6.335   3.770  1.0827 -0.0365 -3.3310
  801MOL0     H 8115   3.004   6.550   3.741  0.4095  0.8226 -0.9435
  801MOL0     H 8116   3.022   6.472   3.905  1.8371 -0.9752  0.0147
  801MOL0     H 8117   4.142   6.400   3.863 -0.7948  0.2366 -1.0478
  801MOL0     H 8118   4.176   6.350   4.100 -1.9722 -2.3062  0.9030
  801MOL0     H 8119   3.990   6.405   4.551 -1.8545 -0.9030  1.5678
  801MOL0     H 8120   4.041   6.361   4.791 -1.5891 -2.7276  1.5720
  801MOL0     H 8121   2.760   6.305   4.629  1.5289  0.9849  0.2670
  801MOL0     H 8122   2.707   6.557   4.605  0.3443  0.8078  0.8000
  801MOL0     H 8123   2.599   6.941   4.724  0.0909 -1.3952 -0.2697
  801MOL0     H 8124   2.576   7.147   4.675 -0.3042  1.8624  0.2154
  801MOL0     H 8125   2.851   7.457   4.860  1.6880 -1.7478 -0.6659
  801MOL0     H 8126   2.941   7.416   4.720  1.5587  2.9950  2.3688
  801MOL0     H 8127   2.689   7.563   4.676  0.1972 -3.4404 -1.3466
  801MOL0     H 8128   2.833   7.563   4.569 -1.4918 -0.7081 -0.8768
  801MOL0     H 8129   2.951   7.726   4.710 -0.4320  0.5753 -0.9156
  801MOL0     H 8130   2.828   7.693   4.842 -0.1056  0.5987  0.2882
  801MOL0     H 8131   2.654   7.809   4.702  0.3426 -1.7277  1.5126
  801MOL0     H 8132   2.771   7.813   4.571 -2.1067 -0.6593 -0.0903
  801MOL0     H 8133   2.907   8.130   4.814  0.1570  0.0513 -1.0834
  801MOL0     H 8134   2.939   7.258   4.908 -0.3115  2.5184 -2.2869
  801MOL0     H 8135   2.965   7.001   4.945 -0.8154 -2.4417  1.2937
  802MOL0     O 8136   6.262   1.156   2.752 -0.0795 -0.0013 -0.1222
  802MOL0     C 8137   6.237   1.068   2.669  0.5633  0.6058 -1.0471
  802MOL0     O 8138   6.305   0.954   2.648  0.1596  0.0583 -0.3511
  802MOL0     C 8139   6.413   0.926   2.729  0.0257 -0.1057 -0.3338
  802MOL0     C 8140   6.433   0.791   2.755  0.0493 -0.3141  0.0033
  802MOL0     C 8141   6.543   0.755   2.833 -0.2141 -0.2273 -0.8338
  802MOL0     C 8142   6.636   0.851   2.879 -0.3894  1.7244  0.2826
  802MOL0     O 8143   6.745   0.796   2.961 -0.8166  0.1988 -0.0717
  802MOL0     C 8144   6.825   0.891   3.032  0.6062  0.2224  0.4002
  802MOL0     C 8145   6.921   0.816   3.132 -0.1478  0.1797  0.6024
  802MOL0     C 8146   6.961   0.684   3.080  0.3992  0.5094  0.4894
  802MOL0     C 8147   7.085   0.629   3.137 -0.9820  0.0229  0.2008
  802MOL0     C 8148   7.110   0.474   3.126  0.7837 -0.0076  0.2388
  802MOL0     C 8149   7.078   0.410   2.986  1.3844 -0.3921 -0.7361
  802MOL0     C 8150   7.196   0.386   2.890 -0.1860 -0.4050  0.8270
  802MOL0     C 8151   7.267   0.514   2.861 -0.0789 -0.5280  0.1382
  802MOL0     N 8152   7.354   0.488   2.750 -0.6529  0.1820 -0.1687
  802MOL0     C 8153   7.488   0.471   2.765 -0.2261 -0.3591  0.7345
  802MOL0     C 8154   7.530   0.406   2.657  0.1825 -0.3247 -0.0803
  802MOL0     C 8155   7.673   0.353   2.626  0.9489 -0.6028 -0.0763
  802MOL0     C 8156   7.700   0.209   2.665  0.6733  0.5037  0.5128
  802MOL0     C 8157   7.826   0.151   2.585  0.4753 -0.3532 -0.0324
  802MOL0     C 8158   7.855   0.008   2.619  0.0067  0.3622  0.4076
  802MOL0     O 8159   7.884   0.009   2.755  0.0185 -0.8777  0.8269
  802MOL0     C 8160   7.942  -0.097   2.820 -0.6631 -0.1907  0.0979
  802MOL0     C 8161   7.964  -0.085   2.951  0.3937  0.2057  0.2637
  802MOL0     C 8162   8.029  -0.194   3.024  0.2321 -0.0486 -1.1269
  802MOL0     C 8163   8.060  -0.165   3.166 -0.3172 -0.4813 -0.3264
  802MOL0     C 8164   8.064  -0.315   2.961 -0.2752  0.3389  0.0003
  802MOL0     C 8165   8.143  -0.430   3.015  0.5202 -0.0475  0.0354
  802MOL0     O 8166   8.183  -0.426   3.145  0.0289 -0.4937  0.0800
  802MOL0     C 8167   8.194  -0.548   3.221 -0.7331 -0.0242 -0.5231
  802MOL0     C 8168   8.170  -0.531   3.357  0.2459 -0.3077  0.3494
  802MOL0     C 8169   8.202  -0.636   3.443  0.1706 -0.2055 -0.6587
  802MOL0     C 8170   8.229  -0.770   3.397 -1.1110 -0.4204  0.3305
  802MOL0     O 8171   8.238  -0.876   3.495  0.1015 -0.1228  0.1532
  802MOL0     C 8172   8.242  -1.014   3.437  0.5399  0.2484 -0.7099
  802MOL0     C 8173   8.193  -1.111   3.539 -0.1213 -0.1126  0.5600
  802MOL0     C 8174   8.249  -1.246   3.515 -0.4501  0.1928 -0.2768
  802MOL0     C 8175   8.218  -1.334   3.632  0.0573 -0.1106  0.1813
  802MOL0     C 8176   8.219  -1.486   3.589 -0.8956 -0.5251 -0.1765
  802MOL0     C 8177   8.212  -1.564   3.722 -0.4432  0.7195 -0.1680
  802MOL0     C 8178   8.186  -1.708   3.693 -0.3326  0.5321 -0.7045
  802MOL0     C 8179   8.319  -1.788   3.681  0.0208  0.6893  0.8320
  802MOL0    Cl 8180   8.273  -1.953   3.659 -0.0732 -0.3735 -0.1049
  802MOL0     C 8181   8.258  -0.786   3.259  0.7236 -0.5209  0.2134
  802MOL0     C 8182   8.235  -0.673   3.179 -0.1150  0.5490 -0.2605
  802MOL0     O 8183   8.161  -0.523   2.941 -0.1335  0.5321  0.0280
  802MOL0     C 8184   8.036  -0.321   2.826 -0.0221 -0.2112 -0.0467
  802MOL0     C 8185   7.972  -0.216   2.749 -0.0124  0.3003 -0.0581
  802MOL0     N 8186   7.421   0.384   2.574 -0.1771  0.1548 -0.0995
  802MOL0     N 8187   7.324   0.434   2.635 -0.5459  1.0851 -0.0476
  802MOL0     C 8188   6.619   0.983   2.839  0.7523 -0.2029  0.0928
  802MOL0     C 8189   6.509   1.024   2.769  0.1948  0.0186  0.5695
  802MOL0     C 8190   6.114   1.077   2.595  0.0686  0.0895  0.2979
  802MOL0     C 8191   6.058   0.966   2.537 -0.7039 -0.7258  0.2097
  802MOL0     C 8192   5.942   0.962   2.464 -0.3698 -0.6362  0.0516
  802MOL0     C 8193   5.872   1.086   2.449 -0.3293 -1.1554 -0.0876
  802MOL0     O 8194   5.754   1.087   2.387 -0.0804 -0.0908 -0.7104
  802MOL0     C 8195   5.753   1.058   2.246  0.3939 -0.5900 -0.2591
  802MOL0     C 8196   5.844   1.147   2.156 -0.1835 -0.9981  0.1850
  802MOL0     C 8197   5.827   1.298   2.173  0.4871 -0.7241  0.1955
  802MOL0     C 8198   5.817   1.384   2.043  0.2591  0.0567  0.3343
  802MOL0     C 8199   5.682   1.364   1.980 -0.4509  0.3227  0.3834
  802MOL0     C 8200   5.571   1.347   1.927  0.4458 -0.6623 -0.2413
  802MOL0     C 8201   5.923   1.206   2.504 -0.3590 -1.2157  0.5907
  802MOL0     C 8202   6.046   1.205   2.577 -0.3066  0.0722  0.0242
  802MOL0     H 8203   6.356   0.726   2.714 -0.0448  0.0817 -0.4624
  802MOL0     H 8204   6.556   0.649   2.855  1.0352 -0.0467 -0.6581
  802MOL0     H 8205   6.885   0.952   2.964  0.1867 -1.3205 -1.4693
  802MOL0     H 8206   6.763   0.959   3.092  0.5045 -1.0411  1.7740
  802MOL0     H 8207   7.005   0.882   3.158 -2.4650  2.7346  2.1642
  802MOL0     H 8208   6.881   0.792   3.231  3.5296 -1.4420  1.8669
  802MOL0     H 8209   6.876   0.616   3.096  1.4122 -0.0937  4.4520
  802MOL0     H 8210   6.979   0.708   2.975 -1.6708 -0.3219 -0.1271
  802MOL0     H 8211   7.175   0.670   3.090 -0.2383 -1.4424  0.2773
  802MOL0     H 8212   7.092   0.661   3.241  0.2991  0.3405  0.0307
  802MOL0     H 8213   7.211   0.452   3.164  0.1337 -1.2498  1.3465
  802MOL0     H 8214   7.036   0.424   3.190  1.4123 -0.3584  0.7058
  802MOL0     H 8215   7.034   0.313   3.011 -2.2806  0.8817 -1.5739
  802MOL0     H 8216   6.992   0.456   2.936 -0.6966 -3.0240  0.2174
  802MOL0     H 8217   7.267   0.317   2.936  0.8378  1.9164  3.0012
  802MOL0     H 8218   7.156   0.348   2.796 -3.5614  1.7100  1.2114
  802MOL0     H 8219   7.314   0.544   2.955 -3.2829 -0.8146  2.0056
  802MOL0     H 8220   7.199   0.595   2.832  2.1015  1.7921  1.1741
  802MOL0     H 8221   7.546   0.494   2.854 -2.0142 -1.4944  2.2733
  802MOL0     H 8222   7.684   0.349   2.517  0.3630 -1.0241 -0.1256
  802MOL0     H 8223   7.742   0.420   2.678 -1.3490 -0.2501  2.7497
  802MOL0     H 8224   7.615   0.159   2.618 -0.0714  2.6220 -0.5122
  802MOL0     H 8225   7.706   0.187   2.772  2.2634 -3.9825 -0.2649
  802MOL0     H 8226   7.919   0.202   2.611  1.9655 -2.5222 -0.7606
  802MOL0     H 8227   7.818   0.168   2.477 -0.7273 -4.2229 -0.7330
  802MOL0     H 8228   7.938  -0.011   2.550 -0.6345  0.7780 -0.4860
  802MOL0     H 8229   7.779  -0.067   2.596  3.0384 -2.7545 -0.3038
  802MOL0     H 8230   7.940   0.013   2.992  1.3578  0.6017 -0.0969
  802MOL0     H 8231   7.987  -0.222   3.224 -0.3620  0.2945  0.3931
  802MOL0     H 8232   8.158  -0.197   3.202 -0.3590  0.1936  0.3999
  802MOL0     H 8233   8.056  -0.061   3.199  1.4746 -1.5566  3.9132
  802MOL0     H 8234   8.128  -0.433   3.380 -0.5313 -0.8068  1.0827
  802MOL0     H 8235   8.185  -0.622   3.549  4.1181 -2.9849  0.5992
  802MOL0     H 8236   8.169  -1.016   3.355  0.0599  0.6192 -0.3056
  802MOL0     H 8237   8.341  -1.035   3.398  0.3243 -0.0705 -1.0880
  802MOL0     H 8238   8.225  -1.068   3.634  3.3194  1.6444 -1.1984
  802MOL0     H 8239   8.084  -1.110   3.536 -0.2481 -1.8638  2.5946
  802MOL0     H 8240   8.357  -1.236   3.509 -0.0285 -3.7451 -1.9923
  802MOL0     H 8241   8.213  -1.289   3.421  1.4939 -0.2596 -0.8563
  802MOL0     H 8242   8.298  -1.315   3.705  1.9865  1.7607 -2.2648
  802MOL0     H 8243   8.123  -1.312   3.683  0.8878  2.7001  0.6979
  802MOL0     H 8244   8.312  -1.516   3.541 -1.2239 -1.1160 -0.4572
  802MOL0     H 8245   8.136  -1.513   3.523 -0.7698 -2.6229  0.4562
  802MOL0     H 8246   8.302  -1.549   3.784 -0.8928  1.8732  0.2402
  802MOL0     H 8247   8.133  -1.531   3.790  2.1370  2.2124  2.3545
  802MOL0     H 8248   8.134  -1.713   3.596 -0.7497  0.5416 -0.4839
  802MOL0     H 8249   8.129  -1.754   3.775  0.0906 -1.4057 -1.4407
  802MOL0     H 8250   8.379  -1.766   3.770 -1.6738  5.2454  1.0838
  802MOL0     H 8251   8.373  -1.756   3.592 -0.5799  0.3201  0.3334
  802MOL0     H 8252   8.260  -0.889   3.225 -0.6440 -1.2941  2.2563
  802MOL0     H 8253   8.262  -0.698   3.077  0.8925 -0.2781  0.1867
  802MOL0     H 8254   8.055  -0.414   2.774  2.4714 -0.0131  0.3827
  802MOL0     H 8255   7.951  -0.234   2.644 -0.8540 -2.1032  0.4573
  802MOL0     H 8256   6.683   1.058   2.884  1.0037 -1.3488  1.7353
  802MOL0     H 8257   6.505   1.127   2.735 -1.0647 -0.8525 -2.1996
  802MOL0     H 8258   6.121   0.877   2.538  3.6669  1.8773  4.2916
  802MOL0     H 8259   5.901   0.870   2.425 -3.1553  0.1368  0.9472
  802MOL0     H 8260   5.787   0.957   2.224  1.5883 -0.6829  1.7979
  802MOL0     H 8261   5.646   1.056   2.221 -0.6132 -1.8817  3.4902
  802MOL0     H 8262   5.827   1.127   2.050  0.6543  0.3188 -0.2147
  802MOL0     H 8263   5.945   1.117   2.185 -0.8733 -3.5873  0.1802
  802MOL0     H 8264   5.914   1.331   2.230  0.6996 -2.2012  0.7821
  802MOL0     H 8265   5.734   1.317   2.227  0.8597 -1.1140  0.9853
  802MOL0     H 8266   5.895   1.361   1.970 -0.5556 -2.2513  0.1177
  802MOL0     H 8267   5.825   1.492   2.061 -0.4628  0.3451 -0.9878
  802MOL0     H 8268   5.471   1.322   1.896 -0.3781 -1.2478  2.6076
  802MOL0     H 8269   5.877   1.302   2.484 -1.1767 -1.3335  1.7721
  802MOL0     H 8270   6.097   1.295   2.609  1.1159 -0.4782 -0.6266
  803MOL0     O 8271   7.414   8.412   2.064  0.2446  0.8082 -0.6419
  803MOL0     C 8272   7.392   8.369   2.177  0.0051 -0.3135 -0.5240
  803MOL0     O 8273   7.318   8.262   2.211  0.6327  0.3314 -0.5072
  803MOL0     C 8274   7.247   8.181   2.116 -0.1795 -0.5906  0.0831
  803MOL0     C 8275   7.249   8.041   2.138 -0.4229  0.1514 -0.5602
  803MOL0     C 8276   7.182   7.952   2.057  0.9218  0.4671 -0.7073
  803MOL0     C 8277   7.111   8.000   1.952 -0.1236  0.6989  0.5059
  803MOL0     O 8278   7.033   7.932   1.868  0.5925 -0.2802 -0.0500
  803MOL0     C 8279   7.055   7.801   1.830  0.0767 -0.6487 -1.4306
  803MOL0     C 8280   7.013   7.770   1.684  0.9408  0.9352 -0.9768
  803MOL0     C 8281   6.855   7.768   1.673  0.3606  0.5854 -0.0509
  803MOL0     C 8282   6.802   7.765   1.529  0.0743 -0.4957  0.9190
  803MOL0     C 8283   6.648   7.753   1.512 -0.4638 -0.2285  0.3464
  803MOL0     C 8284   6.603   7.738   1.366 -0.1241 -0.0460 -0.4229
  803MOL0     C 8285   6.664   7.838   1.275 -0.2276 -0.5817  0.5454
  803MOL0     C 8286   6.654   7.991   1.321 -0.1498 -0.3749  0.5090
  803MOL0     N 8287   6.519   8.041   1.354 -0.1205  0.0208 -1.0031
  803MOL0     C 8288   6.434   8.112   1.265  0.2159 -0.2246 -0.2540
  803MOL0     C 8289   6.341   8.176   1.341 -0.3155 -0.7089 -0.1130
  803MOL0     C 8290   6.240   8.280   1.293 -0.5134  0.2774 -0.3428
  803MOL0     C 8291   6.282   8.413   1.344 -0.1216 -0.1649  0.3250
  803MOL0     C 8292   6.170   8.520   1.353  0.2682 -0.6358 -0.0819
  803MOL0     C 8293   6.120   8.554   1.213  0.0732  1.4370 -0.6371
  803MOL0     O 8294   6.030   8.454   1.161 -0.5040  0.0913 -0.2948
  803MOL0     C 8295   5.966   8.481   1.041  0.4353 -1.3651 -0.6085
  803MOL0     C 8296   5.832   8.465   1.045 -0.3539 -0.5970 -0.2857
  803MOL0     C 8297   5.753   8.496   0.929 -0.1918  0.2603 -0.6617
  803MOL0     C 8298   5.605   8.474   0.942 -0.2208 -0.1690 -0.4152
  803MOL0     C 8299   5.812   8.566   0.822  0.0853 -0.2112 -0.5921
  803MOL0     C 8300   5.728   8.616   0.701 -0.5680 -0.1010 -0.5737
  803MOL0     O 8301   5.813   8.666   0.601  0.5730  0.5778  0.2209
  803MOL0     C 8302   5.750   8.691   0.481  0.7136  0.1159 -1.0748
  803MOL0     C 8303   5.712   8.829   0.448 -0.4891  0.5961 -0.4878
  803MOL0     C 8304   5.661   8.854   0.318  0.0618 -0.0234  0.1249
  803MOL0     C 8305   5.650   8.755   0.216 -0.4937  0.4220 -0.4379
  803MOL0     O 8306   5.608   8.780   0.085  0.0333  0.7811  0.1431
  803MOL0     C 8307   5.586   8.922   0.044  0.8795 -0.0156  0.4366
  803MOL0     C 8308   5.566   8.932  -0.106  0.8175  1.1175  0.1905
  803MOL0     C 8309   5.689   8.891  -0.186 -0.3638  0.1296  0.0680
  803MOL0     C 8310   5.656   8.847  -0.332 -0.0326  0.2120  0.3814
  803MOL0     C 8311   5.777   8.844  -0.428  0.2850 -0.0914 -0.1514
  803MOL0     C 8312   5.737   8.738  -0.538 -0.1427 -0.1473 -0.0710
  803MOL0     C 8313   5.846   8.745  -0.646 -0.1036 -0.2760  0.4048
  803MOL0     C 8314   5.811   8.668  -0.768  0.0770  0.5470  0.6572
  803MOL0    Cl 8315   5.871   8.502  -0.754 -0.3823 -0.1414  0.2158
  803MOL0     C 8316   5.689   8.624   0.255 -0.5962 -0.4642 -0.2900
  803MOL0     C 8317   5.731   8.593   0.382  0.8654 -0.2314 -0.3454
  803MOL0     O 8318   5.605   8.612   0.697  0.0340  0.0710 -0.3891
  803MOL0     C 8319   5.952   8.591   0.828 -0.4702  1.0802 -0.6844
  803MOL0     C 8320   6.025   8.541   0.928 -0.2250  0.8904  0.9092
  803MOL0     N 8321   6.364   8.143   1.475  0.5224 -0.2148  0.5200
  803MOL0     N 8322   6.467   8.058   1.482 -0.8974  0.1433  0.7682
  803MOL0     C 8323   7.095   8.140   1.928 -0.6710  0.3049 -0.6186
  803MOL0     C 8324   7.173   8.231   2.007  0.1491 -0.2321 -0.2391
  803MOL0     C 8325   7.461   8.444   2.291  0.1580  0.7141 -0.2489
  803MOL0     C 8326   7.454   8.398   2.426 -0.3469 -0.2554 -0.0536
  803MOL0     C 8327   7.513   8.464   2.536  0.4786  0.2540  0.0584
  803MOL0     C 8328   7.581   8.581   2.505  0.0556  0.5806 -0.1014
  803MOL0     O 8329   7.638   8.661   2.596 -0.2031 -0.1159 -0.9057
  803MOL0     C 8330   7.610   8.649   2.737  0.1379 -0.3101 -0.2816
  803MOL0     C 8331   7.673   8.780   2.790  0.3503  0.9324 -0.9028
  803MOL0     C 8332   7.592   8.905   2.753  0.6811 -0.0302 -0.1407
  803MOL0     C 8333   7.619   9.025   2.832 -0.7117 -0.4243 -0.3762
  803MOL0     C 8334   7.532   9.032   2.950 -0.1151  1.6427  0.6134
  803MOL0     C 8335   7.455   9.013   3.045  0.5419 -0.5859 -0.4430
  803MOL0     C 8336   7.598   8.619   2.376 -0.9810  0.2551 -0.3890
  803MOL0     C 8337   7.530   8.559   2.266  0.2599 -0.1204  0.5252
  803MOL0     H 8338   7.318   8.010   2.216 -2.3993 -1.2210  0.7339
  803MOL0     H 8339   7.194   7.847   2.081 -1.9333  0.0697 -0.7341
  803MOL0     H 8340   7.161   7.785   1.850 -0.5117  0.0264  3.7780
  803MOL0     H 8341   7.002   7.730   1.894  2.4030 -1.7132 -0.5816
  803MOL0     H 8342   7.058   7.852   1.627 -0.9342  1.2060 -2.1561
  803MOL0     H 8343   7.046   7.673   1.645  0.8744  0.5779 -0.1635
  803MOL0     H 8344   6.819   7.690   1.741  0.1373  1.0364  0.3553
  803MOL0     H 8345   6.817   7.857   1.723 -1.2414  1.1434 -2.1031
  803MOL0     H 8346   6.829   7.860   1.480 -1.6875 -2.6041 -5.0470
  803MOL0     H 8347   6.848   7.683   1.473  1.5689  2.4704 -2.6747
  803MOL0     H 8348   6.622   7.660   1.562 -3.5207 -0.6391 -1.7209
  803MOL0     H 8349   6.600   7.836   1.566 -1.0116 -0.0816 -0.3569
  803MOL0     H 8350   6.645   7.640   1.339 -1.0760 -0.4708 -0.4124
  803MOL0     H 8351   6.494   7.745   1.369 -0.0023  1.9162  0.6315
  803MOL0     H 8352   6.771   7.822   1.263  0.4968  1.0912  3.7281
  803MOL0     H 8353   6.623   7.823   1.175 -0.2170  1.5514  0.1762
  803MOL0     H 8354   6.695   8.050   1.238 -2.7672  4.2788  2.1566
  803MOL0     H 8355   6.707   8.014   1.414  0.5803 -0.6491  0.1685
  803MOL0     H 8356   6.444   8.133   1.159  1.1925  1.9394  0.2212
  803MOL0     H 8357   6.238   8.277   1.183  0.2219  0.7131 -0.3791
  803MOL0     H 8358   6.144   8.262   1.340  1.6069 -6.2669  2.6010
  803MOL0     H 8359   6.366   8.453   1.287 -0.1579 -1.7352 -0.8823
  803MOL0     H 8360   6.329   8.398   1.442  0.9837  1.8412  0.1620
  803MOL0     H 8361   6.214   8.613   1.391 -0.0728 -0.5764  0.1678
  803MOL0     H 8362   6.088   8.497   1.421  0.3986  1.6125  0.9178
  803MOL0     H 8363   6.207   8.563   1.147  0.6079  0.1315 -0.1566
  803MOL0     H 8364   6.085   8.655   1.234 -0.2070  0.8824  1.9199
  803MOL0     H 8365   5.783   8.450   1.140  1.6343 -0.1891  0.8605
  803MOL0     H 8366   5.587   8.411   1.030  1.6063 -3.0194 -1.9267
  803MOL0     H 8367   5.548   8.567   0.938 -1.2759 -0.5122  2.9180
  803MOL0     H 8368   5.571   8.407   0.862  2.1694 -3.7323  1.2612
  803MOL0     H 8369   5.717   8.910   0.520  0.6475 -0.9772  1.3062
  803MOL0     H 8370   5.636   8.959   0.311  1.1055  0.1756 -0.9544
  803MOL0     H 8371   5.487   8.954   0.077  0.3687 -0.2455 -0.7936
  803MOL0     H 8372   5.658   8.992   0.088  0.5072  1.3924 -1.0711
  803MOL0     H 8373   5.488   8.864  -0.140  1.4467 -1.6517  3.7574
  803MOL0     H 8374   5.524   9.030  -0.135 -0.4936  1.6052  3.3705
  803MOL0     H 8375   5.732   8.800  -0.144 -2.7157 -1.3682 -0.5591
  803MOL0     H 8376   5.769   8.966  -0.177  1.2267 -1.3802 -0.9268
  803MOL0     H 8377   5.594   8.757  -0.336 -0.8023  0.7755 -1.6466
  803MOL0     H 8378   5.593   8.923  -0.379  1.3968 -0.0590 -2.1657
  803MOL0     H 8379   5.876   8.829  -0.385  0.4473  2.6587  0.6053
  803MOL0     H 8380   5.774   8.946  -0.468 -0.1416  0.3353  0.9265
  803MOL0     H 8381   5.734   8.637  -0.497 -2.8252  0.1954  0.7894
  803MOL0     H 8382   5.639   8.765  -0.577 -0.4827 -1.4310 -0.1312
  803MOL0     H 8383   5.948   8.720  -0.614  1.3400  0.3793 -3.2381
  803MOL0     H 8384   5.842   8.851  -0.673  1.4474 -0.6016 -1.2433
  803MOL0     H 8385   5.870   8.720  -0.845  0.5168 -0.4014  0.3456
  803MOL0     H 8386   5.705   8.681  -0.787 -0.0084 -2.5502 -1.7143
  803MOL0     H 8387   5.696   8.536   0.192  0.0326 -0.7974  0.2358
  803MOL0     H 8388   5.757   8.491   0.409 -0.3835  0.0397  2.1937
  803MOL0     H 8389   6.000   8.643   0.746 -3.3344  1.6310 -2.1550
  803MOL0     H 8390   6.129   8.557   0.903 -0.7810  0.5500 -1.9118
  803MOL0     H 8391   7.037   8.168   1.840  0.9130 -0.6630 -2.0292
  803MOL0     H 8392   7.180   8.339   1.996  2.0416 -0.1298  1.2640
  803MOL0     H 8393   7.396   8.311   2.455 -0.4079  0.1407  1.0578
  803MOL0     H 8394   7.497   8.427   2.636  1.8375 -3.3470 -0.8951
  803MOL0     H 8395   7.502   8.652   2.754 -0.0433  2.3106 -1.3824
  803MOL0     H 8396   7.642   8.554   2.782 -1.0859  0.1241  1.5887
  803MOL0     H 8397   7.776   8.797   2.757  0.8127 -2.1344 -1.3600
  803MOL0     H 8398   7.675   8.772   2.899 -2.4101 -1.0811 -0.8863
  803MOL0     H 8399   7.483   8.903   2.750  0.6441  1.1457 -0.1900
  803MOL0     H 8400   7.623   8.923   2.649  1.7756  0.6590  0.2898
  803MOL0     H 8401   7.617   9.116   2.771  0.1045 -1.2817 -1.7176
  803MOL0     H 8402   7.721   9.023   2.869  1.3574 -1.9523 -5.3479
  803MOL0     H 8403   7.404   9.005   3.139 -0.0739 -1.0383 -0.8141
  803MOL0     H 8404   7.663   8.706   2.371 -2.1111  1.1945  0.6265
  803MOL0     H 8405   7.555   8.594   2.166 -1.1606  1.9162  0.8262
  804MOL0     O 8406   5.440   0.498   5.889  0.1251 -0.0334 -0.5862
  804MOL0     C 8407   5.407   0.554   5.786 -0.3572 -0.2805  0.8183
  804MOL0     O 8408   5.481   0.585   5.674  0.4915 -0.2858 -0.7915
  804MOL0     C 8409   5.617   0.551   5.659 -0.1266 -0.0082  0.0273
  804MOL0     C 8410   5.707   0.480   5.746 -0.0302 -0.4930 -0.0553
  804MOL0     C 8411   5.831   0.439   5.700 -0.3829  0.2121 -0.4513
  804MOL0     C 8412   5.880   0.472   5.567 -0.4449  1.3189  0.2350
  804MOL0     O 8413   6.001   0.431   5.537  0.0982  0.2594  0.2799
  804MOL0     C 8414   6.055   0.458   5.406 -0.3586  0.6232  0.1810
  804MOL0     C 8415   6.200   0.405   5.383  0.2144  0.8230 -0.1311
  804MOL0     C 8416   6.310   0.517   5.391  0.0369  1.3134 -0.0281
  804MOL0     C 8417   6.440   0.440   5.343 -0.5357  0.1869 -0.7035
  804MOL0     C 8418   6.544   0.553   5.324 -0.5892 -0.1325  0.1319
  804MOL0     C 8419   6.659   0.494   5.238  0.3182 -0.1795  0.1029
  804MOL0     C 8420   6.783   0.594   5.254  0.0924  0.2328 -0.2631
  804MOL0     C 8421   6.885   0.568   5.146  0.3900  0.4556 -0.1723
  804MOL0     N 8422   6.864   0.638   5.019 -0.9221  1.4910  0.2478
  804MOL0     C 8423   6.772   0.593   4.925  0.1735 -0.3536 -0.4595
  804MOL0     C 8424   6.765   0.694   4.838  0.1841 -0.4023 -0.0256
  804MOL0     C 8425   6.680   0.699   4.712  0.6622 -0.3831  0.3766
  804MOL0     C 8426   6.526   0.699   4.741  0.0437 -0.5348  0.2722
  804MOL0     C 8427   6.428   0.666   4.615  0.6132 -0.8505  0.6425
  804MOL0     C 8428   6.420   0.777   4.512  0.9280 -0.2538  0.0785
  804MOL0     O 8429   6.389   0.897   4.574  0.0459 -0.3439  0.5144
  804MOL0     C 8430   6.450   1.009   4.519  1.3154  0.3434 -0.5731
  804MOL0     C 8431   6.546   1.088   4.588  0.3977 -0.3729  0.1531
  804MOL0     C 8432   6.610   1.200   4.530 -0.0462 -0.2575  0.0130
  804MOL0     C 8433   6.709   1.279   4.614 -0.1889  0.5431 -0.3357
  804MOL0     C 8434   6.574   1.233   4.398 -0.0516  0.0200  0.5110
  804MOL0     C 8435   6.658   1.341   4.328 -1.4936 -0.4399 -0.0503
  804MOL0     O 8436   6.777   1.389   4.382 -0.3314 -0.0678  0.7588
  804MOL0     C 8437   6.839   1.495   4.318  0.2530  0.8392 -0.1266
  804MOL0     C 8438   6.804   1.620   4.335  0.1946 -0.5649 -0.9087
  804MOL0     C 8439   6.881   1.717   4.268  0.3057 -0.5715 -0.3864
  804MOL0     C 8440   6.993   1.697   4.186 -0.5535 -0.1402  0.7005
  804MOL0     O 8441   7.056   1.801   4.125 -0.1527 -0.2618  0.0104
  804MOL0     C 8442   7.197   1.796   4.113 -0.0366 -0.2665 -1.4918
  804MOL0     C 8443   7.246   1.917   4.036  0.3222 -0.0141  0.0195
  804MOL0     C 8444   7.332   2.014   4.121  0.9648 -0.3651  0.4060
  804MOL0     C 8445   7.348   2.152   4.042 -0.1560 -0.2226 -0.2790
  804MOL0     C 8446   7.425   2.243   4.133 -0.2890 -0.3975 -0.2862
  804MOL0     C 8447   7.464   2.379   4.073  0.7748 -0.4720  0.2589
  804MOL0     C 8448   7.349   2.470   4.010  0.4547  0.3922  0.6655
  804MOL0     C 8449   7.392   2.615   4.009 -0.7432 -0.1466  0.2425
  804MOL0    Cl 8450   7.398   2.700   4.174 -0.3180  0.8156 -0.0602
  804MOL0     C 8451   7.033   1.566   4.173 -0.8246 -0.2428 -0.4876
  804MOL0     C 8452   6.949   1.472   4.230  0.0359  0.2576 -0.8696
  804MOL0     O 8453   6.605   1.380   4.219 -0.1141 -0.5460 -0.7133
  804MOL0     C 8454   6.489   1.151   4.325  0.2487  0.5242  0.4305
  804MOL0     C 8455   6.418   1.045   4.391  0.0032 -0.2803  0.4451
  804MOL0     N 8456   6.854   0.795   4.863  0.0772  0.5695 -0.6232
  804MOL0     N 8457   6.909   0.762   4.981  0.3191  0.2365  0.8645
  804MOL0     C 8458   5.795   0.543   5.488  0.3261 -0.2883 -1.2556
  804MOL0     C 8459   5.664   0.575   5.534 -0.6068  0.3365 -0.4022
  804MOL0     C 8460   5.258   0.577   5.764 -1.3096  0.4085  0.7360
  804MOL0     C 8461   5.206   0.652   5.653  0.0647 -0.5291 -0.5391
  804MOL0     C 8462   5.072   0.691   5.651 -0.0902  0.1577 -0.3769
  804MOL0     C 8463   4.979   0.651   5.745  0.0029 -0.2633 -0.1422
  804MOL0     O 8464   4.846   0.697   5.759  0.6896  0.0303  0.4164
  804MOL0     C 8465   4.772   0.668   5.637  0.3047 -0.5405 -0.4516
  804MOL0     C 8466   4.624   0.650   5.678 -0.1798  0.1228 -0.3225
  804MOL0     C 8467   4.569   0.783   5.724  0.9389 -0.4743 -0.2415
  804MOL0     C 8468   4.416   0.794   5.758  0.1927  0.1260  0.2936
  804MOL0     C 8469   4.390   0.936   5.800 -0.0269  0.4381  0.1073
  804MOL0     C 8470   4.374   1.054   5.823 -0.4134  0.2971 -1.0731
  804MOL0     C 8471   5.022   0.573   5.851 -0.1400  1.3277  0.0544
  804MOL0     C 8472   5.162   0.548   5.868  0.4548 -0.4797  0.1448
  804MOL0     H 8473   5.680   0.440   5.843  3.4858 -1.7260  0.5543
  804MOL0     H 8474   5.905   0.378   5.751  1.8834 -2.2464 -5.9078
  804MOL0     H 8475   5.988   0.404   5.338  0.6295 -3.3676  2.0881
  804MOL0     H 8476   6.054   0.566   5.390  0.8136  0.7239  0.6935
  804MOL0     H 8477   6.216   0.328   5.458  2.3273  2.7132  1.4873
  804MOL0     H 8478   6.210   0.355   5.286 -2.1060 -1.1009  0.5207
  804MOL0     H 8479   6.287   0.606   5.332 -2.8599 -0.9722 -2.7578
  804MOL0     H 8480   6.316   0.551   5.494 -1.5868  0.2874  0.4367
  804MOL0     H 8481   6.468   0.362   5.414 -1.2323 -1.0328 -1.7242
  804MOL0     H 8482   6.424   0.391   5.246 -2.4270 -0.6768  0.0024
  804MOL0     H 8483   6.505   0.639   5.270  2.8282  3.0164  2.1829
  804MOL0     H 8484   6.563   0.586   5.426 -3.1521  0.1255  0.5778
  804MOL0     H 8485   6.678   0.398   5.287  1.0464  0.1627  0.5106
  804MOL0     H 8486   6.623   0.465   5.139 -1.4174  1.8315  0.0575
  804MOL0     H 8487   6.744   0.696   5.247  2.4511  1.4737  2.4874
  804MOL0     H 8488   6.842   0.591   5.346  2.8983  0.3719 -1.9466
  804MOL0     H 8489   6.890   0.461   5.124 -1.6150  0.2179  0.2875
  804MOL0     H 8490   6.981   0.602   5.186 -1.2691  0.8066  3.9914
  804MOL0     H 8491   6.724   0.496   4.911  2.1565 -1.1299 -2.4432
  804MOL0     H 8492   6.695   0.798   4.669 -2.4770  0.1701  0.2933
  804MOL0     H 8493   6.721   0.623   4.646 -2.2038 -0.9188 -0.9230
  804MOL0     H 8494   6.494   0.797   4.776 -1.3503 -0.4426 -1.1051
  804MOL0     H 8495   6.501   0.619   4.812 -1.1121 -1.6807 -1.3221
  804MOL0     H 8496   6.332   0.640   4.661  0.4051 -1.7463 -0.2712
  804MOL0     H 8497   6.470   0.582   4.560  0.1225  1.6280 -3.9875
  804MOL0     H 8498   6.342   0.742   4.444  1.9360 -2.2739 -0.1107
  804MOL0     H 8499   6.509   0.784   4.449  0.7516 -0.0452 -0.1539
  804MOL0     H 8500   6.581   1.063   4.687 -3.6414  1.4829  2.2864
  804MOL0     H 8501   6.807   1.240   4.584 -0.3206 -1.0901  1.1668
  804MOL0     H 8502   6.702   1.388   4.606 -0.4676  0.3977 -3.1828
  804MOL0     H 8503   6.699   1.254   4.720  1.2116  1.2692 -0.0043
  804MOL0     H 8504   6.723   1.653   4.400  1.3894  1.8817 -0.5247
  804MOL0     H 8505   6.855   1.822   4.279  0.7147 -0.2954 -1.8279
  804MOL0     H 8506   7.236   1.793   4.215 -0.8243 -1.6451 -1.2133
  804MOL0     H 8507   7.232   1.716   4.047 -1.6487  0.3598 -3.2051
  804MOL0     H 8508   7.296   1.883   3.945  0.2584  2.0522 -0.8623
  804MOL0     H 8509   7.156   1.972   4.004 -1.6076 -2.0544  1.5851
  804MOL0     H 8510   7.419   1.953   4.146 -0.1295 -1.3015  2.0900
  804MOL0     H 8511   7.288   2.043   4.217 -1.0895  0.3337 -0.6762
  804MOL0     H 8512   7.406   2.130   3.952  0.6493  0.5249  0.0466
  804MOL0     H 8513   7.247   2.184   4.015  0.4850  1.8807 -0.3912
  804MOL0     H 8514   7.517   2.189   4.157 -0.2292 -0.3322 -0.3652
  804MOL0     H 8515   7.386   2.254   4.234  2.3467  0.1026  0.7557
  804MOL0     H 8516   7.506   2.444   4.151  1.6876  1.9411 -2.0829
  804MOL0     H 8517   7.547   2.365   4.002  0.4519  0.7649 -0.3909
  804MOL0     H 8518   7.250   2.455   4.053 -0.2739  1.0149 -0.7211
  804MOL0     H 8519   7.320   2.452   3.906  0.8520  2.2046  0.1925
  804MOL0     H 8520   7.317   2.662   3.944  0.0581 -3.6480 -3.6475
  804MOL0     H 8521   7.491   2.613   3.963 -0.8552 -2.9728 -0.0256
  804MOL0     H 8522   7.125   1.529   4.128 -0.5169  0.5266 -0.5088
  804MOL0     H 8523   6.983   1.369   4.219  4.4012  1.3078  0.6079
  804MOL0     H 8524   6.475   1.161   4.217 -0.3786 -1.1871  0.3211
  804MOL0     H 8525   6.355   0.979   4.332  1.4709 -0.5546 -0.8624
  804MOL0     H 8526   5.823   0.564   5.385 -2.7398  1.5679 -1.8404
  804MOL0     H 8527   5.600   0.619   5.459  1.0933 -0.5575 -2.5059
  804MOL0     H 8528   5.278   0.684   5.578 -1.3055 -2.8351 -3.0520
  804MOL0     H 8529   5.018   0.726   5.563 -0.1097 -0.2015 -0.5103
  804MOL0     H 8530   4.794   0.736   5.555  3.9374 -0.6531  0.2584
  804MOL0     H 8531   4.799   0.570   5.598 -0.2489 -0.6161 -0.6574
  804MOL0     H 8532   4.631   0.584   5.765 -1.5241  0.7883  0.3357
  804MOL0     H 8533   4.554   0.608   5.606 -0.5891 -0.1810  0.2399
  804MOL0     H 8534   4.591   0.863   5.652 -1.0233 -0.6148 -1.0679
  804MOL0     H 8535   4.621   0.813   5.815  2.0332  0.5341 -1.1627
  804MOL0     H 8536   4.392   0.720   5.835 -1.2815 -2.4626 -2.4532
  804MOL0     H 8537   4.346   0.764   5.680 -1.5603 -0.2744  1.9247
  804MOL0     H 8538   4.361   1.156   5.853 -2.3564  0.4679 -2.2512
  804MOL0     H 8539   4.958   0.551   5.936 -0.6591 -0.8965 -0.8316
  804MOL0     H 8540   5.184   0.492   5.959  1.9936 -0.6298 -0.3001
  805MOL0     O 8541  10.427  10.486   9.152  0.0840 -0.0391  1.2441
  805MOL0     C 8542  10.370  10.598   9.163 -0.2182 -0.3219  0.9934
  805MOL0     O 8543  10.312  10.652   9.272  0.0116 -0.8877 -0.5313
  805MOL0     C 8544  10.248  10.581   9.372  0.7579  0.8191 -0.2596
  805MOL0     C 8545  10.189  10.667   9.465 -0.6861 -0.4523  0.5797
  805MOL0     C 8546  10.114  10.619   9.570  0.0332 -0.4390  0.0349
  805MOL0     C 8547  10.096  10.479   9.577  0.8159  0.5273 -0.2451
  805MOL0     O 8548  10.031  10.428   9.686  0.2050  0.0747 -0.5815
  805MOL0     C 8549  10.000  10.284   9.701  0.2206 -1.4352  0.0840
  805MOL0     C 8550   9.897  10.237   9.597 -0.9195  0.0235  0.3827
  805MOL0     C 8551   9.884  10.082   9.603 -0.5838  0.2751  0.5183
  805MOL0     C 8552   9.870  10.007   9.459  0.3642 -0.7469 -0.9058
  805MOL0     C 8553   9.792   9.879   9.466 -0.1189 -0.1990 -0.4814
  805MOL0     C 8554   9.814   9.784   9.348  0.7726 -0.2082 -0.8264
  805MOL0     C 8555   9.961   9.718   9.347  0.1938 -0.1927 -0.4788
  805MOL0     C 8556   9.997   9.670   9.206  0.3897  0.8827  0.3998
  805MOL0     N 8557  10.040   9.782   9.130  0.1175 -0.1050  1.1283
  805MOL0     C 8558  10.141   9.873   9.148 -0.0531  0.2681 -0.5915
  805MOL0     C 8559  10.103   9.990   9.090  0.6915  0.4703 -0.8928
  805MOL0     C 8560  10.187  10.119   9.101 -0.3079  0.6133  0.0768
  805MOL0     C 8561  10.273  10.121   8.960  0.4376  1.0645 -0.3445
  805MOL0     C 8562  10.389  10.210   8.984 -0.2163 -0.2426 -0.5211
  805MOL0     C 8563  10.478  10.228   8.856  0.0204  0.6365 -0.0289
  805MOL0     O 8564  10.537  10.102   8.827 -0.0874 -0.4023 -0.1361
  805MOL0     C 8565  10.648  10.055   8.874 -0.0937 -0.0904  0.5762
  805MOL0     C 8566  10.670   9.914   8.889 -0.4206 -0.6384  0.5290
  805MOL0     C 8567  10.778   9.849   8.948  0.4242  0.2794  0.8372
  805MOL0     C 8568  10.784   9.690   8.967 -0.8648  0.7448  0.4091
  805MOL0     C 8569  10.871   9.929   9.008  0.2046 -0.4447  0.6763
  805MOL0     C 8570  10.994   9.874   9.071 -0.0599  0.4374  0.2014
  805MOL0     O 8571  11.064   9.783   8.995  0.6003  0.1994 -0.3502
  805MOL0     C 8572  11.161   9.715   9.071  0.0028  0.6408 -0.7365
  805MOL0     C 8573  11.124   9.620   9.164  1.1619  0.2434 -1.0543
  805MOL0     C 8574  11.211   9.541   9.225 -0.7617 -0.4380 -0.5171
  805MOL0     C 8575  11.352   9.561   9.198  0.8282 -0.3973 -0.2420
  805MOL0     O 8576  11.452   9.491   9.263  0.5861  0.3740  0.1939
  805MOL0     C 8577  11.437   9.516   9.405 -0.0748 -0.3369 -0.2386
  805MOL0     C 8578  11.532   9.627   9.447  0.1897 -0.4455 -0.7811
  805MOL0     C 8579  11.519   9.634   9.593 -0.1319  0.0808 -0.1335
  805MOL0     C 8580  11.582   9.761   9.637 -0.5075 -1.3140  0.2532
  805MOL0     C 8581  11.546   9.799   9.781 -0.2575 -0.1484  0.2900
  805MOL0     C 8582  11.581   9.948   9.818  0.3207  0.2087 -0.4747
  805MOL0     C 8583  11.483  10.056   9.769 -0.0254 -0.3207 -0.0559
  805MOL0     C 8584  11.541  10.132   9.655  0.0803  0.1076  1.1371
  805MOL0    Cl 8585  11.691  10.218   9.704 -0.0713 -0.3100 -0.4133
  805MOL0     C 8586  11.398   9.664   9.117 -0.5700 -0.0465 -0.0693
  805MOL0     C 8587  11.303   9.737   9.048 -0.1369 -0.1497  0.2815
  805MOL0     O 8588  11.030   9.925   9.174  1.0655 -0.6683 -0.4417
  805MOL0     C 8589  10.856  10.066   8.999  0.4792 -0.7805 -0.8939
  805MOL0     C 8590  10.747  10.129   8.940  0.3733 -0.5028 -0.6899
  805MOL0     N 8591   9.985   9.964   9.028 -0.1328 -0.0843 -0.4018
  805MOL0     N 8592   9.955   9.846   9.048 -0.1211  0.4539 -0.7413
  805MOL0     C 8593  10.153  10.392   9.482  0.0820  0.0919 -0.4556
  805MOL0     C 8594  10.228  10.440   9.374 -0.6729 -0.4019  0.2324
  805MOL0     C 8595  10.377  10.692   9.040  0.4314  0.1135 -0.3126
  805MOL0     C 8596  10.299  10.811   9.037  0.1299 -0.1218  0.7809
  805MOL0     C 8597  10.294  10.899   8.928 -0.8299 -0.0404 -0.9126
  805MOL0     C 8598  10.389  10.886   8.817  1.1460 -0.5499 -0.4548
  805MOL0     O 8599  10.389  10.984   8.727 -0.1218  0.7716 -0.9902
  805MOL0     C 8600  10.461  10.976   8.604  0.3558  0.3830 -0.1680
  805MOL0     C 8601  10.403  11.073   8.504 -0.6059 -0.7421  0.3504
  805MOL0     C 8602  10.487  11.070   8.369 -0.5172  0.1975 -0.1800
  805MOL0     C 8603  10.630  11.101   8.385  0.3249 -0.0339  0.4678
  805MOL0     C 8604  10.627  11.239   8.437  0.1961 -0.8326  0.2533
  805MOL0     C 8605  10.638  11.346   8.478 -0.5293  0.6187  0.0175
  805MOL0     C 8606  10.468  10.770   8.819 -0.0119  0.4171 -0.7357
  805MOL0     C 8607  10.464  10.675   8.929  0.8792 -0.4610 -0.6100
  805MOL0     H 8608  10.190  10.774   9.447 -2.4364 -0.0571  2.5182
  805MOL0     H 8609  10.077  10.680   9.652  1.4281  1.6518 -0.7925
  805MOL0     H 8610  10.084  10.217   9.681  0.7274 -0.4010 -1.3327
  805MOL0     H 8611   9.974  10.257   9.804 -3.1180 -1.0250 -0.5359
  805MOL0     H 8612   9.805  10.296   9.608 -1.3798  0.1974 -3.1811
  805MOL0     H 8613   9.929  10.259   9.495  0.5414 -1.3590  0.4980
  805MOL0     H 8614   9.979  10.045   9.642 -1.3318 -0.7046  1.4801
  805MOL0     H 8615   9.807  10.062   9.678 -0.0083 -1.2968  0.7405
  805MOL0     H 8616   9.824  10.072   9.384  0.6501 -1.1007 -1.3928
  805MOL0     H 8617   9.974  10.001   9.426  0.7346  0.2350 -0.0055
  805MOL0     H 8618   9.835   9.823   9.550 -2.0915 -1.3259 -0.1595
  805MOL0     H 8619   9.686   9.895   9.487 -0.6677 -1.0867 -2.3414
  805MOL0     H 8620   9.738   9.706   9.340 -2.2990  2.7889 -4.5993
  805MOL0     H 8621   9.804   9.843   9.256  0.9448  0.1553 -0.6137
  805MOL0     H 8622  10.036   9.784   9.391  0.3806 -0.9725  0.3873
  805MOL0     H 8623   9.962   9.626   9.405  2.9646  0.0708  0.0330
  805MOL0     H 8624   9.915   9.622   9.152  0.5060 -0.4684  1.3876
  805MOL0     H 8625  10.086   9.606   9.208  1.2180  1.9625 -0.6741
  805MOL0     H 8626  10.221   9.854   9.219 -2.4977 -0.6130  2.1621
  805MOL0     H 8627  10.125  10.209   9.100 -1.4570 -0.1343 -2.1001
  805MOL0     H 8628  10.249  10.108   9.191  1.8126  0.9317 -1.2714
  805MOL0     H 8629  10.207  10.161   8.883 -1.1586 -0.2208  0.3119
  805MOL0     H 8630  10.311  10.022   8.931 -3.1699 -0.7248  0.4668
  805MOL0     H 8631  10.456  10.190   9.068 -0.6055  0.3530 -0.0652
  805MOL0     H 8632  10.334  10.300   9.012 -1.3067 -1.2091  0.5294
  805MOL0     H 8633  10.544  10.313   8.875  1.5373 -0.2347 -1.1396
  805MOL0     H 8634  10.415  10.263   8.774  1.0206  2.2320 -0.1630
  805MOL0     H 8635  10.587   9.851   8.859 -1.1991 -0.4253  2.1212
  805MOL0     H 8636  10.837   9.676   9.061  2.3085  0.5751 -1.2602
  805MOL0     H 8637  10.694   9.629   8.963  0.8381 -1.8941  0.0506
  805MOL0     H 8638  10.847   9.657   8.884  1.2932  1.7448  1.5670
  805MOL0     H 8639  11.024   9.578   9.163  1.1145 -0.1107  2.7152
  805MOL0     H 8640  11.178   9.445   9.263  0.6667 -0.9737 -0.5391
  805MOL0     H 8641  11.334   9.545   9.424 -0.2739 -0.0432 -1.6774
  805MOL0     H 8642  11.461   9.426   9.462 -2.1214  1.6916  4.2325
  805MOL0     H 8643  11.635   9.599   9.423  0.4472 -1.3354  1.1548
  805MOL0     H 8644  11.498   9.713   9.388 -0.7847  2.6932  3.8057
  805MOL0     H 8645  11.575   9.548   9.632 -1.0936 -1.2648 -1.6193
  805MOL0     H 8646  11.413   9.634   9.620 -1.1012  2.1862 -3.3715
  805MOL0     H 8647  11.689   9.781   9.622 -0.6767  1.4143  1.9843
  805MOL0     H 8648  11.538   9.848   9.588 -2.4794 -1.9393  0.7991
  805MOL0     H 8649  11.602   9.730   9.844  0.7327 -0.1161 -0.5225
  805MOL0     H 8650  11.442   9.779   9.807 -0.4532  0.4416 -0.0119
  805MOL0     H 8651  11.582   9.961   9.926  1.3154  1.7675 -0.6287
  805MOL0     H 8652  11.684   9.971   9.789  1.4140 -1.2153  2.0015
  805MOL0     H 8653  11.465  10.132   9.847 -1.0914 -1.4896  0.8771
  805MOL0     H 8654  11.385  10.012   9.748 -0.9354  0.7744  1.6386
  805MOL0     H 8655  11.472  10.213   9.629 -0.9392 -0.3184  2.4124
  805MOL0     H 8656  11.570  10.058   9.580 -2.2861  1.1828 -0.9813
  805MOL0     H 8657  11.504   9.678   9.103 -0.9598  0.5904 -3.1241
  805MOL0     H 8658  11.325   9.800   8.963 -1.6626  0.3421  0.2216
  805MOL0     H 8659  10.922  10.139   9.045  0.5003 -0.9249 -0.6922
  805MOL0     H 8660  10.742  10.237   8.945  1.6978 -0.3467 -1.8865
  805MOL0     H 8661  10.156  10.284   9.491  0.9715  0.0900 -0.6542
  805MOL0     H 8662  10.264  10.362   9.308 -1.8497 -1.5304  0.8894
  805MOL0     H 8663  10.231  10.825   9.120 -1.4404  1.0834 -0.6364
  805MOL0     H 8664  10.231  10.987   8.938  1.3918  1.3308  3.6826
  805MOL0     H 8665  10.570  10.986   8.615  0.5022 -0.7454 -0.5001
  805MOL0     H 8666  10.439  10.877   8.563 -0.7154  0.4718  0.1660
  805MOL0     H 8667  10.406  11.173   8.548  0.6797  0.7863 -2.8933
  805MOL0     H 8668  10.297  11.050   8.495 -0.6924 -0.8857  1.5473
  805MOL0     H 8669  10.441  11.132   8.292 -1.2484 -0.9528 -0.6995
  805MOL0     H 8670  10.478  10.970   8.327 -0.2057  1.0917 -2.4935
  805MOL0     H 8671  10.678  11.096   8.287 -0.3854 -0.0181  0.1148
  805MOL0     H 8672  10.682  11.038   8.457  1.1784  1.1133  0.8912
  805MOL0     H 8673  10.647  11.443   8.523 -2.0884  1.0210 -0.4537
  805MOL0     H 8674  10.541  10.751   8.741  1.0809 -0.0263  0.3550
  805MOL0     H 8675  10.527  10.586   8.921  0.8422 -0.5702  0.2171
  806MOL0     O 8676  10.384   4.252   5.690 -1.0648 -0.4916 -0.0190
  806MOL0     C 8677  10.390   4.367   5.639 -0.3851  0.0668  0.1838
  806MOL0     O 8678  10.437   4.482   5.695  0.0271  0.4230  0.0172
  806MOL0     C 8679  10.505   4.481   5.811 -0.3977 -0.2636 -0.4540
  806MOL0     C 8680  10.449   4.529   5.930 -0.2918  0.0101 -0.2984
  806MOL0     C 8681  10.526   4.521   6.045 -0.6244  0.6744  0.0686
  806MOL0     C 8682  10.651   4.474   6.044 -0.8839  0.3537  0.6858
  806MOL0     O 8683  10.722   4.493   6.160  0.2672  0.6413 -0.1531
  806MOL0     C 8684  10.814   4.399   6.207 -1.0460  0.7418 -0.8241
  806MOL0     C 8685  10.735   4.270   6.240  0.0648 -0.4437 -0.6338
  806MOL0     C 8686  10.687   4.167   6.139 -0.3614  0.0361 -0.4306
  806MOL0     C 8687  10.591   4.066   6.201  0.1045  0.3458 -0.3470
  806MOL0     C 8688  10.665   3.948   6.274  0.6043 -0.3664  0.1766
  806MOL0     C 8689  10.569   3.824   6.302 -0.2668  0.8909 -0.2021
  806MOL0     C 8690  10.606   3.740   6.431  0.6502  0.8555  0.3592
  806MOL0     C 8691  10.683   3.608   6.402  0.5084  0.2349  0.1631
  806MOL0     N 8692  10.633   3.491   6.478  0.5430 -0.7208 -0.3348
  806MOL0     C 8693  10.596   3.498   6.613 -0.3487 -0.4847 -0.4064
  806MOL0     C 8694  10.552   3.374   6.635 -0.2298  0.0929  0.2440
  806MOL0     C 8695  10.509   3.310   6.757 -1.1312  0.3187 -0.1077
  806MOL0     C 8696  10.622   3.259   6.852 -0.4633  0.7733 -0.1041
  806MOL0     C 8697  10.576   3.200   7.000 -0.1911  0.2282  0.9302
  806MOL0     C 8698  10.504   3.303   7.080  0.4180  0.0969 -0.4754
  806MOL0     O 8699  10.585   3.421   7.095  0.2075  0.7399 -0.4383
  806MOL0     C 8700  10.540   3.525   7.170  0.1595 -0.3623  0.4335
  806MOL0     C 8701  10.421   3.525   7.243  0.3022  0.4551 -0.8031
  806MOL0     C 8702  10.381   3.647   7.290  0.3894  0.2181 -0.1708
  806MOL0     C 8703  10.250   3.648   7.365 -0.3293 -0.3157  0.4220
  806MOL0     C 8704  10.461   3.768   7.274  1.0191  0.2799  0.3856
  806MOL0     C 8705  10.420   3.908   7.308 -0.5039 -0.8875  0.4146
  806MOL0     O 8706  10.516   3.999   7.298  0.7287  0.0155 -0.5081
  806MOL0     C 8707  10.487   4.122   7.358 -0.3924  0.7921  0.1265
  806MOL0     C 8708  10.481   4.128   7.494  0.7030  0.6669  0.2123
  806MOL0     C 8709  10.451   4.248   7.555  0.1413 -0.3232 -0.4025
  806MOL0     C 8710  10.438   4.365   7.475 -0.7038 -0.6267 -0.3088
  806MOL0     O 8711  10.401   4.489   7.529 -0.2603  0.8695 -0.3716
  806MOL0     C 8712  10.291   4.492   7.616 -0.1073 -0.8997 -0.1255
  806MOL0     C 8713  10.198   4.615   7.585  0.5534  0.2888  0.9341
  806MOL0     C 8714  10.080   4.626   7.680 -0.5194 -0.3926 -0.2435
  806MOL0     C 8715   9.990   4.504   7.671 -0.3114  0.1189 -0.7343
  806MOL0     C 8716   9.858   4.526   7.735  0.9956 -0.2067 -0.0155
  806MOL0     C 8717   9.770   4.614   7.639  0.0190 -0.0065  0.9861
  806MOL0     C 8718   9.624   4.638   7.687  0.1025 -0.5676  0.1706
  806MOL0     C 8719   9.550   4.752   7.617  0.8284 -0.7638 -0.7450
  806MOL0    Cl 8720   9.594   4.888   7.718  0.4552 -0.1448  0.4352
  806MOL0     C 8721  10.447   4.362   7.327  0.6417  1.2418 -0.1818
  806MOL0     C 8722  10.471   4.232   7.272 -0.0063 -0.1160  0.4645
  806MOL0     O 8723  10.304   3.931   7.337  0.9410  0.4095  0.3199
  806MOL0     C 8724  10.580   3.756   7.194  0.0151  0.2929 -0.2990
  806MOL0     C 8725  10.618   3.640   7.143  0.0051 -1.1204  0.3799
  806MOL0     N 8726  10.557   3.296   6.521 -0.4493 -0.2219  0.5793
  806MOL0     N 8727  10.606   3.368   6.430 -0.4886 -0.0805  0.0966
  806MOL0     C 8728  10.717   4.434   5.928 -0.5768  0.6039  0.8079
  806MOL0     C 8729  10.642   4.441   5.809  0.3649 -0.4130  0.1357
  806MOL0     C 8730  10.339   4.396   5.500 -0.1784 -0.3832 -0.0250
  806MOL0     C 8731  10.299   4.521   5.449 -0.3447 -0.2008 -0.2544
  806MOL0     C 8732  10.223   4.523   5.326  0.8473 -0.5307  0.4912
  806MOL0     C 8733  10.198   4.413   5.240  0.1616  0.9073  0.3213
  806MOL0     O 8734  10.142   4.414   5.118 -0.1062  0.0358  0.3930
  806MOL0     C 8735  10.209   4.482   5.012 -0.5424 -0.2248  0.0949
  806MOL0     C 8736  10.198   4.407   4.882  0.7992  0.2643  0.5327
  806MOL0     C 8737  10.314   4.299   4.875 -0.1499  0.3285  0.9493
  806MOL0     C 8738  10.464   4.350   4.871  0.1847 -0.9564 -0.7526
  806MOL0     C 8739  10.497   4.437   4.758 -0.7393 -0.5843 -0.7704
  806MOL0     C 8740  10.544   4.502   4.667 -0.1637 -0.3950  0.5157
  806MOL0     C 8741  10.250   4.294   5.295 -0.6341 -0.5191  0.6140
  806MOL0     C 8742  10.319   4.287   5.413  0.0248  0.3712  0.8825
  806MOL0     H 8743  10.348   4.566   5.946 -0.9915 -1.6411 -0.7527
  806MOL0     H 8744  10.490   4.544   6.144 -0.5147 -0.5316  0.4132
  806MOL0     H 8745  10.884   4.376   6.127  0.8513  1.4909  0.5309
  806MOL0     H 8746  10.868   4.442   6.292  1.8134 -1.8104 -1.1710
  806MOL0     H 8747  10.798   4.221   6.315  2.1257  1.4732 -0.9709
  806MOL0     H 8748  10.647   4.303   6.297  3.2558  1.7347  3.6663
  806MOL0     H 8749  10.645   4.218   6.052  4.0578  0.0963 -2.8096
  806MOL0     H 8750  10.782   4.120   6.114  0.7293  0.6394  2.2857
  806MOL0     H 8751  10.526   4.118   6.272  1.6906  2.5643 -0.4210
  806MOL0     H 8752  10.522   4.015   6.133  0.5010 -0.8582  0.1213
  806MOL0     H 8753  10.733   3.915   6.195 -1.0771  1.3468 -2.1171
  806MOL0     H 8754  10.728   3.982   6.356 -1.1062  1.3971  0.8260
  806MOL0     H 8755  10.466   3.860   6.310 -0.9060 -0.7998 -0.4842
  806MOL0     H 8756  10.579   3.763   6.212  0.8953  2.6905 -1.3731
  806MOL0     H 8757  10.652   3.802   6.509 -0.2614  1.3735  0.4893
  806MOL0     H 8758  10.512   3.710   6.476  1.6597 -2.5842  0.4685
  806MOL0     H 8759  10.785   3.628   6.437  0.0082  1.1800  1.1535
  806MOL0     H 8760  10.691   3.589   6.294  0.0649  1.2609 -0.0604
  806MOL0     H 8761  10.600   3.579   6.686  0.4247 -1.8494  1.1273
  806MOL0     H 8762  10.452   3.376   6.823 -1.8778 -2.3584  2.1623
  806MOL0     H 8763  10.439   3.229   6.733 -1.2303  0.2849  0.2746
  806MOL0     H 8764  10.702   3.334   6.857 -0.5590  1.0766 -2.2264
  806MOL0     H 8765  10.669   3.177   6.797 -1.2100 -0.7854  1.4920
  806MOL0     H 8766  10.669   3.176   7.053  1.0974 -3.3789 -2.4303
  806MOL0     H 8767  10.522   3.106   6.987  0.2966 -0.1563  1.6388
  806MOL0     H 8768  10.483   3.262   7.179 -1.0588  0.9355 -0.4124
  806MOL0     H 8769  10.412   3.334   7.031 -0.6152 -1.3261  0.4755
  806MOL0     H 8770  10.367   3.432   7.259  0.6903  0.1388 -1.3379
  806MOL0     H 8771  10.173   3.713   7.323 -0.5414 -0.4235  0.6424
  806MOL0     H 8772  10.203   3.549   7.365  0.9807 -1.0478 -2.4494
  806MOL0     H 8773  10.287   3.687   7.461  3.3701 -1.6109 -0.3087
  806MOL0     H 8774  10.506   4.040   7.553  0.4179  0.4970  0.0796
  806MOL0     H 8775  10.433   4.264   7.661  0.8260 -0.0953 -0.3141
  806MOL0     H 8776  10.236   4.398   7.627 -3.1580  0.8586  0.7546
  806MOL0     H 8777  10.328   4.512   7.717  0.4536 -1.3328 -0.2397
  806MOL0     H 8778  10.263   4.703   7.584  0.6752  0.2573  2.6163
  806MOL0     H 8779  10.156   4.612   7.484  0.4177  0.5515  0.9840
  806MOL0     H 8780  10.027   4.717   7.651 -0.4800 -0.6786 -1.2481
  806MOL0     H 8781  10.108   4.623   7.785  2.5587  1.1665 -0.9245
  806MOL0     H 8782   9.980   4.488   7.563  0.6075  1.1618 -0.9912
  806MOL0     H 8783  10.037   4.418   7.719  0.0530  1.0876  0.6973
  806MOL0     H 8784   9.866   4.558   7.839 -1.1266 -1.3895  0.5751
  806MOL0     H 8785   9.802   4.432   7.736 -1.8378  1.3233 -1.9707
  806MOL0     H 8786   9.818   4.711   7.623 -0.0700  0.6515  4.1397
  806MOL0     H 8787   9.764   4.562   7.543  1.1708 -0.9695  1.4189
  806MOL0     H 8788   9.610   4.645   7.796 -0.4842  1.0430  0.0141
  806MOL0     H 8789   9.574   4.550   7.645  2.4848 -1.1075 -1.7579
  806MOL0     H 8790   9.442   4.735   7.614  0.1747  2.7341 -1.1441
  806MOL0     H 8791   9.575   4.778   7.514 -2.6196  2.5463 -0.9522
  806MOL0     H 8792  10.426   4.452   7.269  0.5654 -0.0331 -2.2414
  806MOL0     H 8793  10.498   4.219   7.168  4.4002 -1.2344  1.5224
  806MOL0     H 8794  10.634   3.850   7.183 -0.2012  0.6434  1.3131
  806MOL0     H 8795  10.711   3.622   7.089  0.9296  1.1732  1.0591
  806MOL0     H 8796  10.809   4.376   5.932 -1.4003 -1.1291 -2.1965
  806MOL0     H 8797  10.671   4.415   5.707 -1.7042  0.3603 -0.7061
  806MOL0     H 8798  10.312   4.615   5.502  1.2918 -0.2825 -0.4757
  806MOL0     H 8799  10.174   4.614   5.291 -0.1928 -1.7950 -1.5398
  806MOL0     H 8800  10.158   4.578   5.004  0.7800  0.4438 -0.7016
  806MOL0     H 8801  10.311   4.504   5.043  0.4232 -5.6349  1.8025
  806MOL0     H 8802  10.221   4.478   4.801 -1.4783  2.0535  1.3406
  806MOL0     H 8803  10.096   4.368   4.870  0.5940  0.1343  2.4400
  806MOL0     H 8804  10.316   4.229   4.791 -0.6630  0.0860  1.1388
  806MOL0     H 8805  10.304   4.230   4.959  0.9006 -0.1679  0.6810
  806MOL0     H 8806  10.536   4.267   4.869  3.4483  1.5164  1.8922
  806MOL0     H 8807  10.484   4.408   4.962 -3.0390 -0.3069 -0.3376
  806MOL0     H 8808  10.575   4.561   4.583 -3.3896  0.1043 -0.4927
  806MOL0     H 8809  10.245   4.203   5.237  0.7840 -0.3007  0.1155
  806MOL0     H 8810  10.361   4.196   5.454  0.1663  0.6470  1.3554
  807MOL0     O 8811   1.089   9.771   4.082 -0.3940 -0.8149 -0.6558
  807MOL0     C 8812   1.066   9.685   3.992 -0.4190 -0.4438 -0.8503
  807MOL0     O 8813   1.088   9.547   3.999 -0.6704 -0.4483 -0.3509
  807MOL0     C 8814   1.207   9.513   4.072  0.2447 -0.2055  0.2694
  807MOL0     C 8815   1.334   9.584   4.067  0.1499 -0.1996 -0.3560
  807MOL0     C 8816   1.437   9.554   4.158  0.5830  0.4578 -0.0490
  807MOL0     C 8817   1.423   9.450   4.251 -0.0235 -0.0083  0.4517
  807MOL0     O 8818   1.524   9.431   4.343 -0.4174 -0.5841 -0.5617
  807MOL0     C 8819   1.523   9.323   4.438  0.6685  0.3176  0.1107
  807MOL0     C 8820   1.428   9.350   4.558 -0.1651 -0.6745  0.5309
  807MOL0     C 8821   1.474   9.307   4.695 -0.7373 -0.4354 -0.2307
  807MOL0     C 8822   1.437   9.166   4.733 -0.2798 -0.7413 -0.5846
  807MOL0     C 8823   1.451   9.133   4.883 -0.2774  0.3484  0.1014
  807MOL0     C 8824   1.593   9.124   4.941  0.0828  0.0107  0.7888
  807MOL0     C 8825   1.595   9.185   5.086  0.6748  0.0036 -0.5633
  807MOL0     C 8826   1.542   9.082   5.183 -0.6924 -0.2442  0.1876
  807MOL0     N 8827   1.396   9.046   5.180 -0.0642 -0.0413 -0.1515
  807MOL0     C 8828   1.287   9.135   5.194 -0.2978  0.0059  0.2597
  807MOL0     C 8829   1.171   9.053   5.188  0.6222 -0.3687  1.1386
  807MOL0     C 8830   1.032   9.114   5.176  0.6764  0.5378  0.4336
  807MOL0     C 8831   0.949   9.049   5.061  0.2777  0.3935 -0.3121
  807MOL0     C 8832   0.990   9.088   4.920  0.1060  0.0993  0.7064
  807MOL0     C 8833   1.033   8.975   4.831  0.1436 -0.5256 -0.6131
  807MOL0     O 8834   1.085   9.004   4.707 -0.5521 -0.2442 -0.2773
  807MOL0     C 8835   1.096   8.907   4.610 -0.1174 -0.0135  0.3458
  807MOL0     C 8836   1.136   8.953   4.489 -0.7247  0.2177 -0.5003
  807MOL0     C 8837   1.172   8.864   4.383 -0.3301 -0.2196 -0.0980
  807MOL0     C 8838   1.189   8.925   4.239  0.6394  0.3124 -0.2126
  807MOL0     C 8839   1.159   8.722   4.404 -0.7784 -0.2813  0.1296
  807MOL0     C 8840   1.174   8.624   4.303  0.0336 -0.1008 -0.9605
  807MOL0     O 8841   1.078   8.535   4.275  0.3578  0.3167 -0.2175
  807MOL0     C 8842   1.082   8.445   4.167  0.6051 -0.5618  0.3957
  807MOL0     C 8843   0.995   8.337   4.183 -0.0530  0.0905 -0.6713
  807MOL0     C 8844   0.978   8.242   4.081 -0.0125  0.3083 -0.1415
  807MOL0     C 8845   1.058   8.249   3.970  0.0244 -0.3240  0.2819
  807MOL0     O 8846   1.020   8.164   3.871  0.0187  0.4967  0.2183
  807MOL0     C 8847   1.098   8.143   3.751  1.0065 -0.0519 -0.4347
  807MOL0     C 8848   1.221   8.065   3.794 -0.4735  0.6068 -0.1485
  807MOL0     C 8849   1.320   8.040   3.670  0.0632 -0.3867 -0.7096
  807MOL0     C 8850   1.256   7.950   3.565 -0.3302  0.4213  0.3516
  807MOL0     C 8851   1.352   7.913   3.449  0.0254  0.0925 -0.4490
  807MOL0     C 8852   1.386   8.029   3.357  0.6261  0.1161  0.2685
  807MOL0     C 8853   1.257   8.095   3.312 -1.2355  0.1822  0.5443
  807MOL0     C 8854   1.283   8.201   3.197 -0.5684  0.4794 -1.5621
  807MOL0    Cl 8855   1.352   8.357   3.275  0.0396 -0.2238  0.4727
  807MOL0     C 8856   1.155   8.353   3.960 -0.0256 -0.0587  0.0083
  807MOL0     C 8857   1.163   8.460   4.048  0.5238  0.6113 -0.1769
  807MOL0     O 8858   1.286   8.626   4.258 -0.1925 -0.0302  0.6149
  807MOL0     C 8859   1.127   8.678   4.537  0.6583  0.4991  0.4357
  807MOL0     C 8860   1.099   8.773   4.639  0.2463 -0.3044  0.0498
  807MOL0     N 8861   1.218   8.918   5.190  0.0157  0.0194 -0.1185
  807MOL0     N 8862   1.346   8.912   5.182 -0.6673 -0.5967  0.3354
  807MOL0     C 8863   1.300   9.368   4.251 -0.2173 -0.2886  0.3994
  807MOL0     C 8864   1.202   9.408   4.163 -0.1881  0.3493  0.4154
  807MOL0     C 8865   0.979   9.739   3.884  0.7284  0.7034  0.3943
  807MOL0     C 8866   0.951   9.654   3.775  1.0734  0.3629  0.4129
  807MOL0     C 8867   0.859   9.700   3.680 -0.0080 -0.2167 -0.4456
  807MOL0     C 8868   0.822   9.839   3.670 -0.4631  1.0688 -0.1599
  807MOL0     O 8869   0.751   9.868   3.562  0.6594  0.9908  0.3340
  807MOL0     C 8870   0.609   9.856   3.582  0.2902 -0.5373 -0.8203
  807MOL0     C 8871   0.534   9.942   3.490  0.1777  0.1685  0.4329
  807MOL0     C 8872   0.566  10.093   3.514 -0.1405 -0.4862  0.4107
  807MOL0     C 8873   0.466  10.189   3.441  0.3143 -0.6553  0.2840
  807MOL0     C 8874   0.542  10.283   3.355 -0.1718 -0.0917 -0.0542
  807MOL0     C 8875   0.581  10.360   3.270  0.7332 -0.1998 -0.6379
  807MOL0     C 8876   0.854   9.917   3.780 -0.2128 -0.0516  0.7782
  807MOL0     C 8877   0.929   9.873   3.885  0.4045  0.1824 -0.2437
  807MOL0     H 8878   1.347   9.669   4.002 -0.9806  0.8351  0.7185
  807MOL0     H 8879   1.517   9.627   4.158 -1.2905  2.6628  0.3697
  807MOL0     H 8880   1.495   9.225   4.398 -0.1194  1.3374 -2.0086
  807MOL0     H 8881   1.627   9.325   4.473  0.7040  1.0330 -0.0034
  807MOL0     H 8882   1.419   9.459   4.569  0.3097 -0.8601  3.8350
  807MOL0     H 8883   1.333   9.299   4.541  0.9700 -2.2284 -1.5586
  807MOL0     H 8884   1.581   9.324   4.704 -0.9371  0.4199  0.5740
  807MOL0     H 8885   1.429   9.364   4.776  1.4150  0.5381  0.3481
  807MOL0     H 8886   1.329   9.154   4.716 -0.0081 -0.2998 -2.9762
  807MOL0     H 8887   1.488   9.098   4.665 -1.1004 -0.1318 -1.8645
  807MOL0     H 8888   1.391   9.207   4.936 -1.3267 -1.7331  1.9932
  807MOL0     H 8889   1.409   9.037   4.913  1.4727 -0.4898  0.0242
  807MOL0     H 8890   1.628   9.021   4.934 -1.0161 -0.3530  0.3366
  807MOL0     H 8891   1.665   9.181   4.881  0.1172 -0.7961  0.0346
  807MOL0     H 8892   1.696   9.202   5.124 -0.5876 -1.8660  4.3657
  807MOL0     H 8893   1.533   9.275   5.091 -0.7850 -1.0189  0.5251
  807MOL0     H 8894   1.571   9.122   5.281  1.2905  2.5470 -1.3914
  807MOL0     H 8895   1.600   8.990   5.173 -1.5818 -0.5557 -3.6539
  807MOL0     H 8896   1.290   9.243   5.194 -0.8773  0.2358 -4.7351
  807MOL0     H 8897   0.979   9.100   5.270  1.8256 -0.2052  0.9985
  807MOL0     H 8898   1.044   9.221   5.157  3.1238  0.1999 -0.2366
  807MOL0     H 8899   0.841   9.068   5.069 -0.6140 -2.4900 -3.1181
  807MOL0     H 8900   0.958   8.940   5.069  0.4222  0.5510  2.6684
  807MOL0     H 8901   1.073   9.159   4.916  0.2277  0.1407  2.8000
  807MOL0     H 8902   0.907   9.142   4.874  1.1508  1.8892  0.8470
  807MOL0     H 8903   0.947   8.912   4.809 -0.1636  0.8610 -3.9196
  807MOL0     H 8904   1.122   8.936   4.882  1.6578  2.2909 -0.8710
  807MOL0     H 8905   1.145   9.060   4.475  1.2791  0.8773  4.0684
  807MOL0     H 8906   1.290   8.902   4.202  0.1614 -0.6525 -0.9647
  807MOL0     H 8907   1.115   8.876   4.175 -0.5470  0.0841  1.2794
  807MOL0     H 8908   1.180   9.033   4.237 -1.8852  0.1568 -0.2103
  807MOL0     H 8909   0.926   8.327   4.266  1.1479  0.3827  0.4040
  807MOL0     H 8910   0.907   8.162   4.098 -1.0302  1.1819 -0.2048
  807MOL0     H 8911   1.040   8.087   3.677  0.5137  1.5838 -1.3319
  807MOL0     H 8912   1.123   8.238   3.704 -0.3781  0.1003 -0.9074
  807MOL0     H 8913   1.281   8.124   3.863  0.4692  0.8176 -1.1212
  807MOL0     H 8914   1.197   7.972   3.846 -0.0359  0.9178  0.6156
  807MOL0     H 8915   1.410   7.990   3.708 -0.1705  1.1626  2.1512
  807MOL0     H 8916   1.346   8.136   3.625 -1.1212 -0.4827 -1.6434
  807MOL0     H 8917   1.222   7.859   3.616  0.1576  0.9684  1.6985
  807MOL0     H 8918   1.162   7.991   3.527 -0.6604 -2.6513 -2.6484
  807MOL0     H 8919   1.308   7.832   3.391 -2.6501  1.6523 -0.7500
  807MOL0     H 8920   1.447   7.879   3.492  0.0734  0.2610 -0.4186
  807MOL0     H 8921   1.455   8.088   3.418  1.0625 -2.4365  2.4114
  807MOL0     H 8922   1.439   7.991   3.269  0.3800  1.3084 -0.4309
  807MOL0     H 8923   1.202   8.143   3.394 -1.5666  1.5763 -0.4554
  807MOL0     H 8924   1.203   8.009   3.270  4.2899 -2.3817 -2.3842
  807MOL0     H 8925   1.192   8.221   3.140 -1.7869  1.4566  0.5963
  807MOL0     H 8926   1.341   8.143   3.125 -0.1745 -0.3692 -0.5872
  807MOL0     H 8927   1.211   8.364   3.868  2.0921 -0.1131  1.2299
  807MOL0     H 8928   1.218   8.553   4.035 -0.8977  1.2098 -2.5846
  807MOL0     H 8929   1.134   8.573   4.562  3.2823  0.6352  0.5546
  807MOL0     H 8930   1.076   8.732   4.737  2.2123  0.1898  0.7649
  807MOL0     H 8931   1.298   9.284   4.319  0.5218 -1.4599 -0.9718
  807MOL0     H 8932   1.114   9.345   4.155  2.7100 -4.3941  1.7489
  807MOL0     H 8933   0.997   9.556   3.766 -3.0067 -1.9673  2.0684
  807MOL0     H 8934   0.820   9.628   3.609  2.4194 -3.0999  0.9541
  807MOL0     H 8935   0.583   9.751   3.571 -0.5242 -0.2924 -1.2673
  807MOL0     H 8936   0.574   9.884   3.682 -0.3069 -1.6203 -0.7113
  807MOL0     H 8937   0.430   9.937   3.525 -0.3427  2.1921 -0.6502
  807MOL0     H 8938   0.550   9.896   3.392  0.5208 -0.8585  0.9518
  807MOL0     H 8939   0.670  10.122   3.494  0.6150 -3.6599 -0.7964
  807MOL0     H 8940   0.565  10.102   3.623  1.2187 -2.0621  0.5923
  807MOL0     H 8941   0.392  10.238   3.504  0.9120 -3.0391  3.0351
  807MOL0     H 8942   0.399  10.133   3.375 -0.9654  2.7303 -1.5239
  807MOL0     H 8943   0.600  10.433   3.195 -0.8101  0.5552 -0.3354
  807MOL0     H 8944   0.820  10.020   3.774 -0.3341 -0.1117  0.3346
  807MOL0     H 8945   0.935   9.936   3.973 -1.0058  0.0981 -0.0539
  808MOL0     O 8946   7.238   1.155   5.096  0.0842  0.1692 -0.4686
  808MOL0     C 8947   7.300   1.075   5.033  0.7856 -0.7844 -0.4684
  808MOL0     O 8948   7.298   0.945   5.055 -0.1343 -0.3376  0.0433
  808MOL0     C 8949   7.232   0.895   5.171  0.6256  1.2716 -0.1483
  808MOL0     C 8950   7.098   0.936   5.211 -1.2424 -0.7568  0.2920
  808MOL0     C 8951   7.026   0.881   5.315 -0.3652  0.0347  0.2525
  808MOL0     C 8952   7.080   0.773   5.385 -0.7142 -0.5787  0.1997
  808MOL0     O 8953   7.011   0.720   5.490  0.4296  0.2046 -0.2083
  808MOL0     C 8954   7.080   0.680   5.612 -0.4794 -0.1038 -0.3495
  808MOL0     C 8955   7.019   0.728   5.746  0.3988  0.3789  0.0460
  808MOL0     C 8956   6.877   0.667   5.758  0.3473  0.5747 -0.3910
  808MOL0     C 8957   6.831   0.691   5.908  0.2911  0.4452  1.0972
  808MOL0     C 8958   6.677   0.674   5.906 -0.0419 -0.6603 -0.1652
  808MOL0     C 8959   6.612   0.542   5.880  0.5358 -0.1066  0.2080
  808MOL0     C 8960   6.678   0.421   5.958 -0.1206  0.1046 -0.0534
  808MOL0     C 8961   6.611   0.292   5.945 -0.7280  0.6729  0.1088
  808MOL0     N 8962   6.619   0.253   5.804  0.3235  0.6194  0.0752
  808MOL0     C 8963   6.738   0.214   5.745 -0.8813  0.5238  0.8853
  808MOL0     C 8964   6.712   0.157   5.632 -0.8138 -0.0337  0.4273
  808MOL0     C 8965   6.809   0.125   5.516  1.2301  0.3528  0.9672
  808MOL0     C 8966   6.782  -0.009   5.455 -0.3586  0.4983  0.0801
  808MOL0     C 8967   6.753  -0.120   5.558  0.4681  0.5334  0.2974
  808MOL0     C 8968   6.857  -0.128   5.685 -0.1597  0.1961 -0.3411
  808MOL0     O 8969   7.004  -0.129   5.630  0.0276  0.3013  0.0960
  808MOL0     C 8970   7.101  -0.107   5.723  0.0006 -0.5593 -0.1824
  808MOL0     C 8971   7.089  -0.125   5.858  0.4955  0.7446  0.1992
  808MOL0     C 8972   7.185  -0.110   5.938 -0.6064 -0.4179 -0.5632
  808MOL0     C 8973   7.176  -0.150   6.087  0.0969  0.0610  0.2887
  808MOL0     C 8974   7.310  -0.060   5.895 -0.3873 -0.6585  0.4665
  808MOL0     C 8975   7.436  -0.033   5.982 -0.5063 -0.3158 -0.5745
  808MOL0     O 8976   7.530   0.048   5.927 -0.7062 -0.3165 -0.1701
  808MOL0     C 8977   7.653   0.053   5.985  1.1619 -0.6280 -0.1548
  808MOL0     C 8978   7.758  -0.036   5.971  0.2141  0.0397 -0.2179
  808MOL0     C 8979   7.884  -0.026   6.031 -0.0654  0.1760 -1.0200
  808MOL0     C 8980   7.908   0.073   6.123  0.0202  0.5583 -0.8146
  808MOL0     O 8981   8.032   0.084   6.177  0.0353  0.1401 -1.4461
  808MOL0     C 8982   8.032   0.144   6.313 -0.3808 -0.1910 -0.1215
  808MOL0     C 8983   8.167   0.139   6.365  0.6334  0.8528 -0.0120
  808MOL0     C 8984   8.261   0.033   6.296 -0.0477  0.5937 -0.2164
  808MOL0     C 8985   8.392   0.023   6.372  0.0930  0.2062  0.6928
  808MOL0     C 8986   8.483  -0.095   6.344 -0.5444  0.0743  0.2727
  808MOL0     C 8987   8.628  -0.066   6.383  0.4299  0.0805 -0.8198
  808MOL0     C 8988   8.652  -0.059   6.528  0.9398  0.6439  0.9283
  808MOL0     C 8989   8.796  -0.048   6.577 -0.4691 -0.1414 -0.3578
  808MOL0    Cl 8990   8.800  -0.037   6.759 -0.1899  0.1183 -0.4826
  808MOL0     C 8991   7.805   0.177   6.135 -0.3897 -0.4444  0.2132
  808MOL0     C 8992   7.676   0.167   6.064 -0.3663 -0.2051  0.3753
  808MOL0     O 8993   7.460  -0.102   6.080  0.1992 -0.3504 -0.9888
  808MOL0     C 8994   7.322  -0.026   5.760 -0.0486  0.2533  0.1211
  808MOL0     C 8995   7.224  -0.063   5.668  0.9180  0.1956  0.1755
  808MOL0     N 8996   6.574   0.153   5.627  0.5791  0.2077 -0.4242
  808MOL0     N 8997   6.511   0.216   5.719 -0.0430  0.1125  0.0930
  808MOL0     C 8998   7.209   0.724   5.344  0.1761 -0.0431  0.5821
  808MOL0     C 8999   7.286   0.792   5.243 -0.7245  0.9290 -0.5330
  808MOL0     C 9000   7.359   1.126   4.909 -0.2605 -0.4134  0.8942
  808MOL0     C 9001   7.412   1.031   4.821 -0.0895  0.3323  0.0604
  808MOL0     C 9002   7.472   1.055   4.700 -0.5079 -0.1070  0.2917
  808MOL0     C 9003   7.469   1.193   4.649  0.4640 -0.2492 -0.7799
  808MOL0     O 9004   7.503   1.239   4.519 -0.2200  0.0754  0.2653
  808MOL0     C 9005   7.538   1.147   4.410 -0.7623  0.1524 -0.5175
  808MOL0     C 9006   7.572   1.223   4.283 -0.8189  0.5865  0.1001
  808MOL0     C 9007   7.440   1.294   4.239  0.6895 -0.6382  0.8739
  808MOL0     C 9008   7.456   1.376   4.115  0.2443 -0.1627 -0.1012
  808MOL0     C 9009   7.477   1.289   3.993 -0.2118  0.4993  0.5082
  808MOL0     C 9010   7.520   1.225   3.892 -0.4856 -0.7730  0.1981
  808MOL0     C 9011   7.440   1.293   4.751 -0.6293  0.3477 -0.4221
  808MOL0     C 9012   7.388   1.265   4.872 -0.1802  0.4486  0.4572
  808MOL0     H 9013   7.048   1.014   5.153 -0.9628  1.2664  2.5916
  808MOL0     H 9014   6.928   0.915   5.346 -0.0524  0.6087  0.6235
  808MOL0     H 9015   7.079   0.571   5.624 -0.1859 -0.0333  0.3608
  808MOL0     H 9016   7.187   0.703   5.607 -0.6881  0.6254 -2.3804
  808MOL0     H 9017   7.087   0.705   5.829 -0.1842 -2.0468 -0.0812
  808MOL0     H 9018   7.010   0.836   5.759 -1.1947  0.1655  1.0470
  808MOL0     H 9019   6.815   0.708   5.678 -0.2830  0.7209  0.1613
  808MOL0     H 9020   6.887   0.558   5.752  1.1386  0.7204 -2.7166
  808MOL0     H 9021   6.864   0.629   5.992 -1.6469  0.0729  1.6323
  808MOL0     H 9022   6.858   0.795   5.927  0.0084  0.4926  1.2368
  808MOL0     H 9023   6.630   0.718   5.995  2.1519  3.1229 -0.6329
  808MOL0     H 9024   6.638   0.746   5.834  0.2692  1.5960  1.7905
  808MOL0     H 9025   6.506   0.547   5.905  0.0696 -0.1151 -1.6432
  808MOL0     H 9026   6.613   0.513   5.775  1.6863 -0.8020  0.3839
  808MOL0     H 9027   6.786   0.413   5.937 -0.3675  1.1073 -1.9074
  808MOL0     H 9028   6.673   0.445   6.064 -1.1399  0.8126 -0.2520
  808MOL0     H 9029   6.504   0.293   5.970 -0.7282 -0.0178  0.1485
  808MOL0     H 9030   6.652   0.220   6.017 -1.0935 -0.8279 -1.1372
  808MOL0     H 9031   6.831   0.237   5.798 -0.2315 -0.0329 -0.0026
  808MOL0     H 9032   6.818   0.202   5.439 -2.3555 -0.5592 -0.5526
  808MOL0     H 9033   6.908   0.126   5.564  0.6006  4.0815  2.5232
  808MOL0     H 9034   6.863  -0.030   5.386  1.4558  3.5868  1.0810
  808MOL0     H 9035   6.690   0.012   5.400 -0.4656  1.0762  0.4735
  808MOL0     H 9036   6.764  -0.220   5.514 -1.3726 -0.0975  1.1664
  808MOL0     H 9037   6.653  -0.101   5.598  0.8913  3.1820  0.2744
  808MOL0     H 9038   6.835  -0.226   5.729 -3.3788  0.8368 -0.2292
  808MOL0     H 9039   6.832  -0.048   5.755  0.3272  0.2261 -0.1964
  808MOL0     H 9040   7.001  -0.169   5.904  4.0850 -4.0042  3.5632
  808MOL0     H 9041   7.205  -0.073   6.159 -2.0335  0.2051  1.0521
  808MOL0     H 9042   7.070  -0.168   6.104 -0.6111 -0.6804 -3.8013
  808MOL0     H 9043   7.232  -0.244   6.098 -0.6115 -0.3483  0.4681
  808MOL0     H 9044   7.729  -0.123   5.913 -0.8736  0.9553 -1.0680
  808MOL0     H 9045   7.963  -0.093   6.001  1.4022  1.7232 -0.7246
  808MOL0     H 9046   8.012   0.251   6.316  4.3614  0.8840  1.6767
  808MOL0     H 9047   7.973   0.096   6.392 -0.9344  3.5274  1.9630
  808MOL0     H 9048   8.218   0.231   6.334  2.6379  0.2770  1.3556
  808MOL0     H 9049   8.152   0.126   6.473 -2.3027  0.0925 -0.4315
  808MOL0     H 9050   8.272   0.058   6.190 -0.5199 -0.3382 -0.4990
  808MOL0     H 9051   8.223  -0.070   6.297  2.0841 -0.3757 -3.6724
  808MOL0     H 9052   8.461   0.107   6.359  0.6897  0.4650  4.3794
  808MOL0     H 9053   8.381   0.028   6.481 -1.4243  1.8897  0.5112
  808MOL0     H 9054   8.474  -0.135   6.242  0.2340 -0.8824  0.5708
  808MOL0     H 9055   8.445  -0.185   6.393 -0.1473 -1.2956 -1.7910
  808MOL0     H 9056   8.689  -0.143   6.334  3.6757  2.2652 -0.5096
  808MOL0     H 9057   8.650   0.033   6.342  1.1775  1.7945  3.3104
  808MOL0     H 9058   8.603  -0.141   6.583 -1.0175  1.1146 -0.0345
  808MOL0     H 9059   8.603   0.033   6.560  0.8143  0.4627  1.2662
  808MOL0     H 9060   8.840   0.046   6.542  0.0356  0.9622  2.9070
  808MOL0     H 9061   8.860  -0.123   6.531  2.3311  2.5541 -1.2443
  808MOL0     H 9062   7.824   0.261   6.201 -3.7255 -0.1405  0.9695
  808MOL0     H 9063   7.612   0.255   6.059 -2.9015 -1.9500  0.4941
  808MOL0     H 9064   7.412  -0.010   5.701 -0.5154 -2.6054 -1.5316
  808MOL0     H 9065   7.236  -0.048   5.562 -1.4763  4.1510  0.2665
  808MOL0     H 9066   7.252   0.632   5.384  0.0355 -0.2150  0.3387
  808MOL0     H 9067   7.384   0.756   5.214  0.1379  0.7528  2.2836
  808MOL0     H 9068   7.421   0.925   4.843 -0.0989 -0.1581 -2.0758
  808MOL0     H 9069   7.501   0.974   4.635  1.9447  1.4673 -0.7204
  808MOL0     H 9070   7.623   1.084   4.437  2.4802  3.4622 -2.2248
  808MOL0     H 9071   7.458   1.080   4.376 -0.6114  0.1822 -0.9364
  808MOL0     H 9072   7.602   1.157   4.201  1.0117 -0.8756  1.8391
  808MOL0     H 9073   7.643   1.302   4.307 -2.5997  2.3036 -0.0849
  808MOL0     H 9074   7.409   1.362   4.319  0.7588  2.7338 -1.7753
  808MOL0     H 9075   7.356   1.227   4.219 -1.2769  1.8924  0.0916
  808MOL0     H 9076   7.548   1.434   4.123 -0.5448  1.2181 -0.7793
  808MOL0     H 9077   7.375   1.447   4.099 -1.7383 -2.3995 -0.6870
  808MOL0     H 9078   7.556   1.169   3.808 -1.0712  0.9430 -1.2527
  808MOL0     H 9079   7.442   1.399   4.731  2.8574  0.2748 -1.1271
  808MOL0     H 9080   7.377   1.335   4.955 -1.8812 -3.3207  3.8080
  809MOL0     O 9081   5.983   7.383   1.178  0.8574 -0.1965 -0.0285
  809MOL0     C 9082   6.100   7.408   1.206  0.2113 -0.2243 -0.0518
  809MOL0     O 9083   6.187   7.478   1.123 -1.5570  0.4271  0.1366
  809MOL0     C 9084   6.143   7.505   0.999 -0.4911  0.0506  0.0241
  809MOL0     C 9085   6.127   7.405   0.906  0.4180  0.4874 -0.4032
  809MOL0     C 9086   6.054   7.435   0.784 -0.9867  0.3978 -1.2565
  809MOL0     C 9087   6.028   7.569   0.755 -0.0951  0.2557  0.2829
  809MOL0     O 9088   5.977   7.581   0.627  0.5223 -0.4489  0.2843
  809MOL0     C 9089   5.911   7.704   0.575 -0.2849  0.0051  1.1599
  809MOL0     C 9090   5.787   7.673   0.480  0.1999 -0.3583  0.4405
  809MOL0     C 9091   5.659   7.653   0.568  0.0092 -0.0886  0.8967
  809MOL0     C 9092   5.526   7.657   0.491 -0.4165  0.8879 -0.8828
  809MOL0     C 9093   5.412   7.620   0.582  0.7107  1.0082  0.6227
  809MOL0     C 9094   5.292   7.580   0.490  0.3130  0.9698 -0.9383
  809MOL0     C 9095   5.168   7.565   0.586 -0.7962 -0.1264  0.4297
  809MOL0     C 9096   5.066   7.479   0.512  0.4878 -0.5519 -0.3628
  809MOL0     N 9097   4.942   7.475   0.603 -0.5762 -0.0661  0.5954
  809MOL0     C 9098   4.934   7.412   0.725  0.2911 -0.0452  0.6371
  809MOL0     C 9099   4.798   7.417   0.762 -0.7477  1.0041 -0.0515
  809MOL0     C 9100   4.744   7.355   0.894 -0.3323 -0.7318 -0.0071
  809MOL0     C 9101   4.841   7.247   0.945  0.9015 -0.6412  1.1169
  809MOL0     C 9102   4.783   7.168   1.063 -0.3577  0.7686 -0.2813
  809MOL0     C 9103   4.883   7.085   1.136 -0.0183  0.2600  0.8784
  809MOL0     O 9104   4.861   6.945   1.110 -0.3825  0.1742 -0.2896
  809MOL0     C 9105   4.927   6.855   1.194  0.4526 -0.3751 -0.8831
  809MOL0     C 9106   4.974   6.883   1.321 -0.2855  1.1568 -0.4747
  809MOL0     C 9107   5.042   6.794   1.394  0.1638 -0.2306 -0.7062
  809MOL0     C 9108   5.076   6.825   1.535  0.5596 -0.2634 -0.3096
  809MOL0     C 9109   5.069   6.666   1.343  0.3109  0.6238 -0.5283
  809MOL0     C 9110   5.126   6.555   1.424 -0.2648 -0.1100  0.1487
  809MOL0     O 9111   5.092   6.426   1.399  0.4559 -0.0435 -0.4782
  809MOL0     C 9112   5.120   6.345   1.512 -0.4054  1.2550 -0.6461
  809MOL0     C 9113   5.249   6.287   1.535 -1.2499  0.0760 -0.2568
  809MOL0     C 9114   5.277   6.220   1.650 -0.2577 -0.1912 -0.8443
  809MOL0     C 9115   5.179   6.170   1.734  0.1886  0.4988 -0.3695
  809MOL0     O 9116   5.208   6.091   1.840  0.1971 -0.4489 -0.1827
  809MOL0     C 9117   5.341   6.036   1.851 -0.0400  0.4878 -0.5922
  809MOL0     C 9118   5.335   5.933   1.966 -0.4992  0.0461 -0.0742
  809MOL0     C 9119   5.294   5.989   2.108  0.1807 -0.1773  0.6990
  809MOL0     C 9120   5.150   5.966   2.146 -0.0881  0.1308 -0.4837
  809MOL0     C 9121   5.117   6.028   2.272  0.2398  0.7748 -1.3664
  809MOL0     C 9122   4.970   5.998   2.308  0.7485  0.0688  0.1332
  809MOL0     C 9123   4.904   6.099   2.402  0.9357 -0.3890  0.5196
  809MOL0     C 9124   4.753   6.072   2.410  0.5108  1.1108  0.0521
  809MOL0    Cl 9125   4.686   6.210   2.507 -0.0882 -0.4329 -0.3636
  809MOL0     C 9126   5.047   6.214   1.704  0.0304 -0.3981  0.5297
  809MOL0     C 9127   5.019   6.310   1.603 -0.1435 -0.5353 -0.1849
  809MOL0     O 9128   5.223   6.587   1.493  0.1056 -0.4193 -0.3706
  809MOL0     C 9129   5.020   6.634   1.213 -0.2473  0.1249  0.1940
  809MOL0     C 9130   4.957   6.731   1.140 -0.5173  0.1765 -0.0076
  809MOL0     N 9131   4.736   7.477   0.654  0.2404  1.1286 -0.5102
  809MOL0     N 9132   4.818   7.511   0.555 -1.2945 -0.2684  0.6241
  809MOL0     C 9133   6.055   7.672   0.851 -1.1142  0.1453 -0.0503
  809MOL0     C 9134   6.108   7.635   0.977  0.8200  0.0626 -0.0285
  809MOL0     C 9135   6.162   7.366   1.335  0.4851 -0.1231  0.2417
  809MOL0     C 9136   6.287   7.418   1.378  0.4377 -0.2048  0.5188
  809MOL0     C 9137   6.348   7.383   1.501 -0.6543 -0.2009  0.4950
  809MOL0     C 9138   6.271   7.298   1.588 -0.7893 -0.4983  0.0070
  809MOL0     O 9139   6.301   7.304   1.727 -0.3529 -0.3322 -0.1969
  809MOL0     C 9140   6.207   7.248   1.825 -0.6623  0.3295 -0.4581
  809MOL0     C 9141   6.285   7.240   1.964  0.3507  0.1049  0.4296
  809MOL0     C 9142   6.423   7.161   1.967  1.1275  0.0207 -0.0684
  809MOL0     C 9143   6.480   7.113   2.097 -0.0344  0.4489  0.3343
  809MOL0     C 9144   6.485   7.222   2.199 -1.0987  0.9342  0.5525
  809MOL0     C 9145   6.458   7.309   2.277  0.2413 -0.7342 -1.0766
  809MOL0     C 9146   6.153   7.247   1.543  0.2315  0.3608  0.5035
  809MOL0     C 9147   6.090   7.287   1.426  0.0337  0.4245  0.0302
  809MOL0     H 9148   6.143   7.300   0.929 -0.3264  0.4993  0.2097
  809MOL0     H 9149   6.047   7.353   0.714 -0.0266 -0.5003 -0.3246
  809MOL0     H 9150   5.887   7.772   0.657  0.9758 -0.7692  2.2102
  809MOL0     H 9151   5.983   7.767   0.523  0.3752 -1.0928  0.7098
  809MOL0     H 9152   5.764   7.746   0.402 -3.0325 -1.1160  0.5574
  809MOL0     H 9153   5.814   7.583   0.424  0.7088 -0.1176  0.2884
  809MOL0     H 9154   5.676   7.553   0.608 -3.2132 -0.3024  1.9712
  809MOL0     H 9155   5.672   7.728   0.646 -0.0109  0.8051  0.0565
  809MOL0     H 9156   5.526   7.761   0.459 -0.1718  1.3772  0.6168
  809MOL0     H 9157   5.526   7.588   0.406  1.1029 -0.9172  0.4873
  809MOL0     H 9158   5.427   7.531   0.643  2.1229  1.8658  1.5747
  809MOL0     H 9159   5.401   7.710   0.642  2.6040  2.0549 -0.5057
  809MOL0     H 9160   5.270   7.662   0.421 -4.4721  1.8809  1.2539
  809MOL0     H 9161   5.308   7.487   0.435 -2.6275  0.4164 -1.0159
  809MOL0     H 9162   5.187   7.498   0.671  1.3333 -2.3463 -1.6213
  809MOL0     H 9163   5.134   7.661   0.626 -2.5198 -1.6438  2.8915
  809MOL0     H 9164   5.102   7.378   0.493  0.6238 -0.4932 -0.4160
  809MOL0     H 9165   5.035   7.531   0.421  0.9237  2.3394  0.9997
  809MOL0     H 9166   5.010   7.362   0.784 -0.8844 -0.2502  2.0416
  809MOL0     H 9167   4.717   7.431   0.968  1.2501 -1.1328  1.0257
  809MOL0     H 9168   4.654   7.301   0.866  0.4518 -1.2944 -1.5418
  809MOL0     H 9169   4.928   7.308   0.970 -1.2908  2.0629  2.7181
  809MOL0     H 9170   4.872   7.180   0.864  0.8426  1.0558 -0.3840
  809MOL0     H 9171   4.692   7.115   1.035  1.5573 -2.1870 -1.3796
  809MOL0     H 9172   4.742   7.255   1.116 -0.6257  0.8429 -0.6047
  809MOL0     H 9173   4.860   7.112   1.239  1.2086  1.3303  0.8989
  809MOL0     H 9174   4.989   7.103   1.115 -0.1433 -0.0651 -0.0521
  809MOL0     H 9175   4.972   6.984   1.359  2.7086  1.3349 -0.6162
  809MOL0     H 9176   5.070   6.742   1.606  0.3611  1.4256  1.7486
  809MOL0     H 9177   5.175   6.869   1.544  0.0607  0.6604  0.9832
  809MOL0     H 9178   4.998   6.894   1.571  2.9338  1.9009  1.0074
  809MOL0     H 9179   5.332   6.314   1.470 -0.7112 -2.9306 -0.9603
  809MOL0     H 9180   5.384   6.211   1.668 -0.8389 -2.4107  2.4141
  809MOL0     H 9181   5.365   5.984   1.758 -0.0091  1.6040 -1.2237
  809MOL0     H 9182   5.420   6.110   1.868  0.7073 -0.6349  1.1635
  809MOL0     H 9183   5.280   5.841   1.945  0.4658 -0.3202 -1.0957
  809MOL0     H 9184   5.434   5.888   1.979 -1.7831 -3.1183 -0.3182
  809MOL0     H 9185   5.324   6.094   2.120  1.0612 -0.5007  1.4401
  809MOL0     H 9186   5.354   5.929   2.178 -1.3985 -0.1306  2.1704
  809MOL0     H 9187   5.084   6.014   2.073  3.5614  5.1847 -0.9810
  809MOL0     H 9188   5.122   5.860   2.151 -2.7955  0.8210  2.0089
  809MOL0     H 9189   5.131   6.137   2.281  2.6388  0.4428 -0.1746
  809MOL0     H 9190   5.188   5.982   2.341  0.7354  0.7772 -1.8664
  809MOL0     H 9191   4.915   5.988   2.214  1.8244 -1.2166 -0.3957
  809MOL0     H 9192   4.970   5.900   2.357  1.5435  0.4378  0.8966
  809MOL0     H 9193   4.914   6.193   2.348 -0.9074 -0.5343 -0.1424
  809MOL0     H 9194   4.964   6.086   2.492 -1.9102 -1.7523  2.3483
  809MOL0     H 9195   4.732   5.975   2.455  3.6230  0.4650  0.3426
  809MOL0     H 9196   4.694   6.079   2.318 -3.5100  0.1970  2.2994
  809MOL0     H 9197   4.966   6.177   1.766  1.5725 -3.3880  0.9438
  809MOL0     H 9198   4.924   6.360   1.585  0.0015 -0.2770 -0.2312
  809MOL0     H 9199   5.041   6.536   1.170  3.3876 -0.7552  3.3686
  809MOL0     H 9200   4.939   6.713   1.035 -1.9954  1.5074 -0.0144
  809MOL0     H 9201   6.033   7.776   0.830  0.4513  1.2525  3.1303
  809MOL0     H 9202   6.121   7.706   1.059  0.0149 -1.0123  1.0755
  809MOL0     H 9203   6.349   7.481   1.316  0.9229  1.1572  2.2927
  809MOL0     H 9204   6.443   7.421   1.536  0.3836 -0.2410 -2.0937
  809MOL0     H 9205   6.120   7.310   1.847  1.5816  2.7795  2.4421
  809MOL0     H 9206   6.170   7.149   1.794  0.1233  0.5877 -2.3428
  809MOL0     H 9207   6.215   7.199   2.037  0.6444  1.4426  1.5021
  809MOL0     H 9208   6.304   7.343   1.996  0.2062  1.6409 -3.7486
  809MOL0     H 9209   6.497   7.228   1.923  0.9448  1.7506  2.1194
  809MOL0     H 9210   6.419   7.076   1.898  1.8517  0.4210 -0.6214
  809MOL0     H 9211   6.584   7.085   2.079  0.7674  2.6434  1.1481
  809MOL0     H 9212   6.427   7.027   2.139  0.8292  0.8790  2.4449
  809MOL0     H 9213   6.428   7.389   2.342 -1.5892 -0.1423 -2.5687
  809MOL0     H 9214   6.100   7.178   1.608  0.8606 -1.1920 -0.5668
  809MOL0     H 9215   5.994   7.240   1.405 -0.1348  1.6914 -2.4795
  810MOL0     O 9216   4.099   9.586   7.968  0.3342 -0.0869  0.2231
  810MOL0     C 9217   4.085   9.666   7.873  0.1621 -0.3552  0.7991
  810MOL0     O 9218   3.977   9.747   7.852 -0.8347  0.0816 -0.4992
  810MOL0     C 9219   3.874   9.699   7.920  0.2700  0.1357 -0.4732
  810MOL0     C 9220   3.778   9.624   7.864  0.2213 -1.1767  0.4970
  810MOL0     C 9221   3.659   9.588   7.932  0.0405  0.5805 -0.0949
  810MOL0     C 9222   3.636   9.620   8.063 -0.2328 -0.1658  0.0142
  810MOL0     O 9223   3.520   9.589   8.127  0.3003  0.2148  0.1061
  810MOL0     C 9224   3.438   9.486   8.071 -0.4250  0.4679 -0.1371
  810MOL0     C 9225   3.305   9.468   8.145 -0.0526  0.4685  0.1897
  810MOL0     C 9226   3.216   9.372   8.054 -0.0831  0.0664  0.4373
  810MOL0     C 9227   3.100   9.323   8.131 -0.0377 -0.5155  0.4724
  810MOL0     C 9228   3.015   9.221   8.058 -0.0860 -1.3384  1.0340
  810MOL0     C 9229   2.898   9.201   8.152 -0.3671  0.4093 -0.3272
  810MOL0     C 9230   2.810   9.085   8.092 -0.0991  0.1141  0.1599
  810MOL0     C 9231   2.704   9.039   8.196  0.5534  0.6073 -1.0696
  810MOL0     N 9232   2.607   9.141   8.227  0.2239  0.9176  0.1978
  810MOL0     C 9233   2.624   9.252   8.309  0.4930  0.3251  0.7645
  810MOL0     C 9234   2.505   9.314   8.301 -1.0792  0.0057  0.1318
  810MOL0     C 9235   2.472   9.442   8.374  0.0175  0.3705  0.0553
  810MOL0     C 9236   2.344   9.420   8.465  0.1810 -0.1939 -0.3560
  810MOL0     C 9237   2.371   9.357   8.600 -0.4478 -0.9609  1.2349
  810MOL0     C 9238   2.258   9.380   8.705 -0.2654 -0.1335 -1.0437
  810MOL0     O 9239   2.317   9.353   8.835  0.1194  0.6474  0.2587
  810MOL0     C 9240   2.327   9.225   8.888 -0.0016 -0.4243  0.4600
  810MOL0     C 9241   2.371   9.189   9.015  0.4404 -0.9877  0.5991
  810MOL0     C 9242   2.392   9.058   9.063 -0.0783 -0.1060 -0.8521
  810MOL0     C 9243   2.456   9.030   9.199  1.5775  0.2777 -0.3623
  810MOL0     C 9244   2.358   8.944   8.980  0.9754  0.4504 -0.9811
  810MOL0     C 9245   2.362   8.798   9.035 -0.8954  1.2450 -0.7398
  810MOL0     O 9246   2.241   8.736   9.028 -0.6260  0.1269 -1.3177
  810MOL0     C 9247   2.227   8.599   9.038 -0.2264 -0.6066  0.7987
  810MOL0     C 9248   2.310   8.504   8.985  0.2808  0.6235  0.5931
  810MOL0     C 9249   2.265   8.372   8.984 -0.0858  0.2534  0.9691
  810MOL0     C 9250   2.140   8.325   9.033  0.5523 -0.0808  0.2872
  810MOL0     O 9251   2.095   8.190   9.045 -0.2759 -0.3486 -0.1586
  810MOL0     C 9252   2.176   8.089   8.995  0.5307 -0.2680 -0.3384
  810MOL0     C 9253   2.118   7.953   8.991  0.7702 -0.1496  0.5352
  810MOL0     C 9254   2.223   7.849   8.938  0.5794  0.7573  0.5316
  810MOL0     C 9255   2.169   7.768   8.819  0.0048 -0.1705  0.2624
  810MOL0     C 9256   2.076   7.653   8.862 -0.1070  0.0077  0.3894
  810MOL0     C 9257   1.954   7.693   8.927  0.1418 -0.0634  0.5736
  810MOL0     C 9258   1.870   7.571   8.945  0.6424  0.5894 -0.2156
  810MOL0     C 9259   1.730   7.591   9.004  0.2923 -0.0294 -0.6723
  810MOL0    Cl 9260   1.624   7.462   8.930  0.3764 -0.2394  0.5236
  810MOL0     C 9261   2.065   8.420   9.096  0.2707 -0.1922 -0.1006
  810MOL0     C 9262   2.104   8.558   9.097 -0.1927 -0.0808 -0.2199
  810MOL0     O 9263   2.474   8.743   9.051  0.4350  0.0589  0.3870
  810MOL0     C 9264   2.295   8.974   8.861  0.2348 -0.0419  0.4776
  810MOL0     C 9265   2.290   9.106   8.812  0.9985 -0.0258 -0.1272
  810MOL0     N 9266   2.427   9.242   8.216 -0.4468 -0.5359 -0.3509
  810MOL0     N 9267   2.497   9.150   8.151  0.7973 -0.1263 -0.7875
  810MOL0     C 9268   3.734   9.697   8.131 -0.2076  0.7947 -0.6096
  810MOL0     C 9269   3.846   9.734   8.055  0.1264 -0.7185 -0.3281
  810MOL0     C 9270   4.180   9.661   7.768  0.3034  0.7818  0.0966
  810MOL0     C 9271   4.137   9.699   7.644  0.6483 -0.6214  0.8614
  810MOL0     C 9272   4.228   9.686   7.535 -0.9388 -0.3216 -0.1534
  810MOL0     C 9273   4.359   9.651   7.554  0.8226  0.7060  0.4200
  810MOL0     O 9274   4.450   9.624   7.451  0.2675 -0.5983 -0.0222
  810MOL0     C 9275   4.596   9.659   7.483  0.1374 -0.0969 -0.4138
  810MOL0     C 9276   4.666   9.693   7.351  0.5601 -0.8984 -0.0186
  810MOL0     C 9277   4.818   9.669   7.357  1.1116 -0.5761 -0.2458
  810MOL0     C 9278   4.878   9.649   7.217 -0.2379 -0.6287  0.1094
  810MOL0     C 9279   4.891   9.780   7.148  0.0951  0.2479 -0.6915
  810MOL0     C 9280   4.905   9.889   7.093  0.2646 -0.2939  1.0344
  810MOL0     C 9281   4.404   9.614   7.685  0.0851  0.6308  0.1503
  810MOL0     C 9282   4.316   9.617   7.790  0.0214  1.1144  0.0655
  810MOL0     H 9283   3.782   9.619   7.756  2.6608  2.3423  0.2684
  810MOL0     H 9284   3.586   9.532   7.874  2.9041 -1.0956 -2.4056
  810MOL0     H 9285   3.417   9.520   7.969  1.1973  1.0182 -0.3186
  810MOL0     H 9286   3.471   9.382   8.057  1.2875  1.0384 -0.5539
  810MOL0     H 9287   3.328   9.424   8.242 -0.9464  1.7212  1.0082
  810MOL0     H 9288   3.254   9.562   8.170 -3.7583 -1.1133 -0.7779
  810MOL0     H 9289   3.182   9.429   7.966  0.1363 -1.7816 -0.9060
  810MOL0     H 9290   3.277   9.290   8.015 -0.3336 -0.5370  1.2908
  810MOL0     H 9291   3.131   9.269   8.220 -2.5946  0.5317  2.0987
  810MOL0     H 9292   3.045   9.411   8.166  1.1982  0.6311 -0.3305
  810MOL0     H 9293   2.967   9.247   7.963  0.0668 -1.8171  0.8216
  810MOL0     H 9294   3.073   9.130   8.039  0.0559 -0.6717 -2.5355
  810MOL0     H 9295   2.939   9.174   8.250 -1.1313 -0.2577 -0.1789
  810MOL0     H 9296   2.847   9.297   8.162 -1.0803 -0.1121  1.5366
  810MOL0     H 9297   2.751   9.112   8.004  2.9696  0.0918 -2.0602
  810MOL0     H 9298   2.884   9.008   8.071  1.5085  1.8955 -1.0480
  810MOL0     H 9299   2.756   9.015   8.289  0.6180 -1.5797 -1.5989
  810MOL0     H 9300   2.645   8.949   8.175  1.9429 -0.8230  0.8431
  810MOL0     H 9301   2.711   9.283   8.366  4.1593  0.2096 -4.0525
  810MOL0     H 9302   2.560   9.470   8.432 -0.5166  2.4361 -0.0417
  810MOL0     H 9303   2.450   9.512   8.292 -1.4228 -2.1877 -1.8993
  810MOL0     H 9304   2.280   9.355   8.406 -0.8267  1.4730 -1.1868
  810MOL0     H 9305   2.285   9.511   8.478 -0.8625 -0.9766  0.5719
  810MOL0     H 9306   2.464   9.407   8.629 -1.4158  1.8670 -0.1762
  810MOL0     H 9307   2.402   9.252   8.595 -0.2270 -0.8331 -1.3949
  810MOL0     H 9308   2.164   9.332   8.677 -0.8167  0.5577 -0.4270
  810MOL0     H 9309   2.235   9.487   8.713  2.6735  0.5483 -0.7710
  810MOL0     H 9310   2.390   9.276   9.077  0.6680 -2.7916  3.2557
  810MOL0     H 9311   2.385   8.975   9.262  0.6001  0.3632 -1.3566
  810MOL0     H 9312   2.541   8.961   9.192 -1.7375 -4.2775 -0.6279
  810MOL0     H 9313   2.483   9.128   9.239  0.0315  0.7151 -0.3262
  810MOL0     H 9314   2.404   8.526   8.935  0.1787  0.2046  0.2045
  810MOL0     H 9315   2.324   8.292   8.942 -2.0735 -1.0674  0.5344
  810MOL0     H 9316   2.207   8.108   8.891  0.6885  1.0323 -0.0655
  810MOL0     H 9317   2.267   8.097   9.056 -0.3460 -2.4796  1.3961
  810MOL0     H 9318   2.068   7.929   9.085 -0.0067 -2.2716 -0.3489
  810MOL0     H 9319   2.037   7.950   8.917  1.7074 -4.4783 -0.5384
  810MOL0     H 9320   2.262   7.804   9.030  3.8831  6.7041  2.5443
  810MOL0     H 9321   2.310   7.899   8.896 -1.2660  3.0056 -0.8599
  810MOL0     H 9322   2.110   7.837   8.757  1.5759  2.5516  1.5985
  810MOL0     H 9323   2.254   7.723   8.766 -0.0386  0.7938 -0.6783
  810MOL0     H 9324   2.134   7.595   8.935 -0.0002  0.7440  0.9036
  810MOL0     H 9325   2.050   7.587   8.779  3.2488 -0.4300 -0.4705
  810MOL0     H 9326   1.977   7.736   9.025  0.3968 -0.3115  0.6279
  810MOL0     H 9327   1.882   7.755   8.874  1.4607  1.2657  0.2651
  810MOL0     H 9328   1.917   7.498   9.013  1.9839  1.3999 -0.2381
  810MOL0     H 9329   1.856   7.518   8.851 -5.3808  1.0934  0.0221
  810MOL0     H 9330   1.689   7.689   8.977  2.4102  0.2965 -3.0445
  810MOL0     H 9331   1.731   7.592   9.113  1.3232  2.4240 -0.6298
  810MOL0     H 9332   1.973   8.394   9.148  0.2875 -2.5591 -1.1166
  810MOL0     H 9333   2.040   8.642   9.126  2.4309  1.9518  0.0564
  810MOL0     H 9334   2.265   8.884   8.808 -2.2987 -0.8237  2.9998
  810MOL0     H 9335   2.248   9.122   8.714  0.7592 -0.4049 -0.0888
  810MOL0     H 9336   3.724   9.738   8.231 -0.7198  1.9777 -1.1282
  810MOL0     H 9337   3.918   9.806   8.092 -0.3356  2.0789 -4.2384
  810MOL0     H 9338   4.032   9.716   7.619  0.9164 -1.1419 -0.6924
  810MOL0     H 9339   4.202   9.721   7.436  0.4864  4.0649  0.8141
  810MOL0     H 9340   4.602   9.743   7.554  1.9754 -0.7067  0.2130
  810MOL0     H 9341   4.640   9.572   7.531 -0.6300 -0.2296  0.0690
  810MOL0     H 9342   4.647   9.798   7.327  0.9374 -0.3256  2.0048
  810MOL0     H 9343   4.627   9.637   7.266 -3.0529  0.4887  0.5364
  810MOL0     H 9344   4.853   9.596   7.430  1.3383 -0.5358 -0.3134
  810MOL0     H 9345   4.853   9.760   7.406 -0.3907 -0.5737  0.8874
  810MOL0     H 9346   4.822   9.577   7.155 -0.0382  1.0265 -2.1242
  810MOL0     H 9347   4.977   9.602   7.216 -0.6070 -1.4459 -1.5169
  810MOL0     H 9348   4.919   9.982   7.043 -0.3356  0.6516  2.5825
  810MOL0     H 9349   4.501   9.573   7.712 -0.1201  1.0476  1.6160
  810MOL0     H 9350   4.355   9.597   7.889  0.5923 -0.4747 -0.4401
  811MOL0     O 9351   4.173   9.916   2.528 -0.4829  1.2523  0.3559
  811MOL0     C 9352   4.222   9.976   2.434 -0.2891  0.4573 -0.3681
  811MOL0     O 9353   4.249   9.933   2.304 -0.1994  0.3796 -0.8680
  811MOL0     C 9354   4.235   9.793   2.295 -0.0893  0.0356 -0.5326
  811MOL0     C 9355   4.355   9.713   2.316 -0.1675  0.3076  0.7695
  811MOL0     C 9356   4.341   9.575   2.325 -0.4732 -0.2979  0.0051
  811MOL0     C 9357   4.218   9.507   2.302 -0.0016 -1.4775  1.0668
  811MOL0     O 9358   4.196   9.377   2.310 -0.1903  0.2331  0.3418
  811MOL0     C 9359   4.319   9.297   2.307  0.0417 -0.4570 -0.9768
  811MOL0     C 9360   4.304   9.159   2.242 -0.5207  0.1154  0.0647
  811MOL0     C 9361   4.226   9.164   2.118 -0.1873 -0.1009  1.1198
  811MOL0     C 9362   4.245   9.045   2.033  0.8859  0.7928 -0.3643
  811MOL0     C 9363   4.161   9.055   1.904 -0.6025 -0.0707 -0.4490
  811MOL0     C 9364   4.007   9.054   1.928 -0.0721  0.5018 -0.4380
  811MOL0     C 9365   3.948   8.933   2.008  0.5359 -0.5752  0.8475
  811MOL0     C 9366   3.981   8.794   1.961  0.1697  0.1573 -0.1797
  811MOL0     N 9367   3.963   8.695   2.067  1.2028  0.0231  0.1148
  811MOL0     C 9368   4.064   8.677   2.155  1.0573  0.2868 -0.0216
  811MOL0     C 9369   4.025   8.564   2.214 -0.3752  0.0133  0.6647
  811MOL0     C 9370   4.098   8.506   2.320 -0.9323 -0.2691 -0.1694
  811MOL0     C 9371   4.023   8.513   2.462  0.0077  0.1412  1.3402
  811MOL0     C 9372   4.085   8.414   2.559 -0.8408  0.2912 -0.0428
  811MOL0     C 9373   4.010   8.441   2.694  0.2871  0.0479 -0.2550
  811MOL0     O 9374   3.994   8.314   2.767 -0.6379  0.0730  0.1535
  811MOL0     C 9375   3.928   8.317   2.892  0.7399  0.2625 -0.6243
  811MOL0     C 9376   3.901   8.195   2.952 -0.6422 -0.6124 -0.4701
  811MOL0     C 9377   3.819   8.186   3.065 -0.1105  0.2291 -0.9436
  811MOL0     C 9378   3.791   8.040   3.103  0.5141  0.5609 -0.0382
  811MOL0     C 9379   3.770   8.302   3.136 -0.3980  0.4257  0.0396
  811MOL0     C 9380   3.707   8.296   3.266 -0.6383  0.0892  0.4749
  811MOL0     O 9381   3.639   8.413   3.302  0.1696  0.5844  0.1710
  811MOL0     C 9382   3.547   8.401   3.405 -0.3559 -0.8450 -0.8357
  811MOL0     C 9383   3.561   8.480   3.521  0.2082 -0.1712  0.4358
  811MOL0     C 9384   3.474   8.478   3.629  1.2700 -0.1875 -0.2230
  811MOL0     C 9385   3.371   8.384   3.625 -0.8674 -0.3983  0.9475
  811MOL0     O 9386   3.301   8.360   3.735 -0.1427  0.4076 -0.5164
  811MOL0     C 9387   3.168   8.298   3.738 -0.0580  0.6094  0.2244
  811MOL0     C 9388   3.131   8.243   3.878 -0.6606 -0.0664 -0.3485
  811MOL0     C 9389   3.202   8.112   3.899 -0.6062  0.7932  0.0001
  811MOL0     C 9390   3.165   8.046   4.036 -0.2854 -0.4597  0.0834
  811MOL0     C 9391   3.168   7.894   4.040 -0.2911  0.4115 -0.0690
  811MOL0     C 9392   3.160   7.840   4.186 -0.7848 -0.1413  0.3319
  811MOL0     C 9393   3.024   7.854   4.253  0.3807 -0.9051  1.4960
  811MOL0     C 9394   3.037   7.815   4.396 -0.1831  0.5238 -0.9960
  811MOL0    Cl 9395   3.127   7.657   4.397  0.4037  0.3847  0.2566
  811MOL0     C 9396   3.358   8.305   3.513 -0.4248  1.4675 -0.6044
  811MOL0     C 9397   3.447   8.308   3.407  0.9179  0.0079 -0.0291
  811MOL0     O 9398   3.692   8.182   3.318  0.6149 -0.0519  0.1052
  811MOL0     C 9399   3.802   8.426   3.072 -0.5971 -0.0998 -0.6787
  811MOL0     C 9400   3.873   8.431   2.952  0.3378  0.3000  0.3094
  811MOL0     N 9401   3.890   8.526   2.177 -0.1839 -0.0261 -0.9976
  811MOL0     N 9402   3.861   8.608   2.087  0.1316  0.2456  0.1604
  811MOL0     C 9403   4.101   9.587   2.296 -0.8695 -0.3236  0.5790
  811MOL0     C 9404   4.112   9.731   2.292 -0.4775  0.1991  0.4476
  811MOL0     C 9405   4.265  10.117   2.465 -0.2026  1.2533  0.3659
  811MOL0     C 9406   4.187  10.203   2.531  0.9359 -0.1552 -0.4970
  811MOL0     C 9407   4.210  10.337   2.546  0.1138 -0.3755  0.8044
  811MOL0     C 9408   4.331  10.396   2.492 -0.2713 -0.6102 -0.3757
  811MOL0     O 9409   4.370  10.531   2.502  0.5677  0.3155 -0.0511
  811MOL0     C 9410   4.264  10.625   2.494  0.3283 -0.4676 -1.1133
  811MOL0     C 9411   4.202  10.640   2.343 -0.5322  0.6522  0.2588
  811MOL0     C 9412   4.056  10.583   2.331  0.6557 -0.2621  0.3199
  811MOL0     C 9413   4.038  10.522   2.190  1.0338 -0.3144 -0.1513
  811MOL0     C 9414   4.143  10.420   2.189  0.5114  0.3450  1.0251
  811MOL0     C 9415   4.232  10.338   2.187 -0.2536 -0.4498 -0.3992
  811MOL0     C 9416   4.419  10.300   2.443  0.1394 -0.3283  0.8292
  811MOL0     C 9417   4.384  10.170   2.420 -0.3731 -0.2535 -0.4340
  811MOL0     H 9418   4.453   9.757   2.331 -0.2582  0.8785 -0.2067
  811MOL0     H 9419   4.431   9.516   2.343 -0.5095 -0.6439 -0.8970
  811MOL0     H 9420   4.391   9.336   2.235 -1.5772 -0.5209 -2.6899
  811MOL0     H 9421   4.370   9.300   2.404  0.7750  1.8865 -1.3704
  811MOL0     H 9422   4.402   9.111   2.228  0.4970  2.6236 -2.4743
  811MOL0     H 9423   4.249   9.087   2.303 -0.4060 -1.2172 -1.3133
  811MOL0     H 9424   4.120   9.175   2.145 -0.1469  1.1549  0.8502
  811MOL0     H 9425   4.265   9.246   2.057 -1.0973 -1.2618 -1.1566
  811MOL0     H 9426   4.349   9.030   2.005  0.7443  1.1768 -1.1271
  811MOL0     H 9427   4.218   8.952   2.084  0.5152  0.9145 -0.3339
  811MOL0     H 9428   4.186   9.151   1.858 -1.2553 -0.2248 -1.1592
  811MOL0     H 9429   4.176   8.972   1.835  3.9681 -0.8555  1.1973
  811MOL0     H 9430   3.968   9.147   1.972 -2.2789 -0.0023 -1.1994
  811MOL0     H 9431   3.964   9.060   1.828  2.5879  0.9937 -1.6371
  811MOL0     H 9432   3.978   8.944   2.113  2.9720 -0.7201  0.2268
  811MOL0     H 9433   3.840   8.940   1.994  0.5522 -2.3517 -0.4426
  811MOL0     H 9434   4.087   8.793   1.931 -0.5479 -0.2235 -3.0096
  811MOL0     H 9435   3.931   8.764   1.869  0.0049  0.6019 -0.2367
  811MOL0     H 9436   4.157   8.730   2.172  2.7128 -2.6704  0.8768
  811MOL0     H 9437   4.131   8.403   2.299  1.4484  0.8476 -2.4443
  811MOL0     H 9438   4.193   8.560   2.321 -2.0975  1.8524  0.5367
  811MOL0     H 9439   3.919   8.484   2.448  1.0137 -2.5171 -1.8705
  811MOL0     H 9440   4.031   8.616   2.498 -0.0511  0.4580  0.4755
  811MOL0     H 9441   4.193   8.414   2.578 -1.4306 -0.5078  4.5669
  811MOL0     H 9442   4.054   8.315   2.524  3.4119 -0.4633 -2.2811
  811MOL0     H 9443   3.903   8.462   2.684 -0.2362 -2.1945  0.1158
  811MOL0     H 9444   4.066   8.511   2.756  0.3575 -1.8825  2.0191
  811MOL0     H 9445   3.936   8.105   2.902 -1.6729  0.1673 -2.6810
  811MOL0     H 9446   3.847   8.017   3.194  0.6258  1.5277  0.1416
  811MOL0     H 9447   3.686   8.015   3.123  1.0500 -3.0266 -0.8758
  811MOL0     H 9448   3.814   7.974   3.019 -1.4516  1.7973 -1.6269
  811MOL0     H 9449   3.645   8.548   3.526  0.9060 -0.9681 -0.1907
  811MOL0     H 9450   3.499   8.546   3.710 -1.4992  1.1874 -0.4139
  811MOL0     H 9451   3.105   8.382   3.709  1.2692  1.3765 -0.5688
  811MOL0     H 9452   3.165   8.211   3.672  1.0678 -1.0442  2.2188
  811MOL0     H 9453   3.162   8.320   3.949 -1.6186  0.7194 -0.7560
  811MOL0     H 9454   3.023   8.226   3.884 -0.5218 -2.8052 -3.0981
  811MOL0     H 9455   3.310   8.126   3.896 -0.2192 -1.6827 -2.4201
  811MOL0     H 9456   3.179   8.046   3.815  2.5577  0.9724 -1.1221
  811MOL0     H 9457   3.227   8.091   4.115 -0.2596  0.0735 -0.2407
  811MOL0     H 9458   3.071   8.084   4.077  0.6456  0.3439  1.6034
  811MOL0     H 9459   3.258   7.863   3.987  0.5177 -0.0035  1.4710
  811MOL0     H 9460   3.076   7.859   3.992 -0.1449  2.0051 -1.5883
  811MOL0     H 9461   3.174   7.732   4.176  2.1887 -0.3841  4.4655
  811MOL0     H 9462   3.244   7.879   4.245 -0.7853 -0.2075  0.3768
  811MOL0     H 9463   2.950   7.788   4.208 -0.8746 -0.3871  2.7363
  811MOL0     H 9464   2.973   7.949   4.236  1.0387 -0.8318 -0.2492
  811MOL0     H 9465   2.943   7.806   4.453  0.4314 -4.6905 -0.2920
  811MOL0     H 9466   3.097   7.889   4.449  0.0836 -0.2555 -0.1870
  811MOL0     H 9467   3.276   8.234   3.509 -0.1581  1.0791  0.4415
  811MOL0     H 9468   3.434   8.229   3.334 -0.9847 -0.6506  0.9702
  811MOL0     H 9469   3.774   8.520   3.118 -2.0760 -0.6246 -0.4763
  811MOL0     H 9470   3.891   8.529   2.908 -1.4223  0.2955 -0.5047
  811MOL0     H 9471   4.003   9.550   2.268 -1.3430  1.4617 -0.2671
  811MOL0     H 9472   4.026   9.794   2.270 -0.1418  0.7392  0.6787
  811MOL0     H 9473   4.095  10.166   2.575  2.0079 -0.3120  1.7919
  811MOL0     H 9474   4.136  10.403   2.590 -2.5593 -0.6728 -2.7361
  811MOL0     H 9475   4.174  10.617   2.555 -1.0905  2.5996 -2.5460
  811MOL0     H 9476   4.308  10.721   2.522 -1.7941  0.2320  0.0627
  811MOL0     H 9477   4.276  10.601   2.273 -1.8557  0.5618 -1.1476
  811MOL0     H 9478   4.189  10.746   2.319 -0.3349  0.1392 -2.5349
  811MOL0     H 9479   3.988  10.668   2.344  1.9312  0.8004  0.2919
  811MOL0     H 9480   4.026  10.501   2.397 -1.6809 -2.1762 -2.7887
  811MOL0     H 9481   4.062  10.598   2.115  1.7138 -3.7651 -3.7720
  811MOL0     H 9482   3.941  10.480   2.163  1.4301  0.1704 -2.4952
  811MOL0     H 9483   4.304  10.258   2.184  1.1538  0.7926 -1.3575
  811MOL0     H 9484   4.517  10.329   2.409 -0.8845  3.1165  0.4242
  811MOL0     H 9485   4.456  10.106   2.369 -1.9848 -3.2386  0.8498
  812MOL0     O 9486   9.583   9.631   6.996  0.7770 -0.9030 -0.1640
  812MOL0     C 9487   9.702   9.631   7.008 -0.2846  0.5239 -0.1592
  812MOL0     O 9488   9.792   9.706   6.936 -0.2868  0.1304  0.2951
  812MOL0     C 9489   9.751   9.787   6.833 -1.6354  0.7694  0.8084
  812MOL0     C 9490   9.825   9.780   6.714  0.0759  0.3785  0.4235
  812MOL0     C 9491   9.779   9.840   6.596  0.9977  0.3268 -0.6032
  812MOL0     C 9492   9.658   9.921   6.601 -0.0085  1.0111  0.7128
  812MOL0     O 9493   9.588   9.975   6.494  0.0120  0.0904  0.1816
  812MOL0     C 9494   9.651   9.991   6.364 -0.4328 -0.3332 -0.8273
  812MOL0     C 9495   9.570  10.092   6.272  0.5560 -0.4560  0.2841
  812MOL0     C 9496   9.617  10.238   6.278  0.5480 -0.6751 -0.2768
  812MOL0     C 9497   9.540  10.331   6.184 -0.0469 -0.3859  0.3067
  812MOL0     C 9498   9.568  10.479   6.211  0.6150 -0.4792  0.6612
  812MOL0     C 9499   9.572  10.552   6.080 -1.3623  0.9069 -0.1139
  812MOL0     C 9500   9.592  10.703   6.083 -0.6242 -0.2585 -0.2810
  812MOL0     C 9501   9.551  10.764   5.952 -0.1678 -0.6575 -0.4717
  812MOL0     N 9502   9.609  10.898   5.939 -0.0085  1.0152 -1.0482
  812MOL0     C 9503   9.636  10.969   5.827  0.3043  0.8511 -0.5325
  812MOL0     C 9504   9.678  11.091   5.860  0.1010  0.0553  0.7499
  812MOL0     C 9505   9.706  11.201   5.767 -0.5791 -0.2834  0.1719
  812MOL0     C 9506   9.731  11.151   5.617 -0.0421 -0.7103  0.7525
  812MOL0     C 9507   9.723  11.278   5.528 -0.0373  0.0221 -0.2456
  812MOL0     C 9508   9.702  11.251   5.375  0.5595 -0.6361  0.3055
  812MOL0     O 9509   9.737  11.371   5.304 -0.0295 -0.1598  0.2078
  812MOL0     C 9510   9.640  11.425   5.233  1.0813  0.1501  0.0359
  812MOL0     C 9511   9.520  11.464   5.289 -0.2348  0.2844 -1.0662
  812MOL0     C 9512   9.408  11.511   5.222 -0.1962 -0.8767 -0.2544
  812MOL0     C 9513   9.274  11.510   5.290  0.4310  0.4029  0.3088
  812MOL0     C 9514   9.420  11.535   5.079  1.0268 -0.8736  0.7001
  812MOL0     C 9515   9.312  11.606   4.996  0.3749 -0.1289  0.1509
  812MOL0     O 9516   9.310  11.587   4.860 -0.1810 -1.1822  0.1719
  812MOL0     C 9517   9.193  11.614   4.790 -0.6170  0.4505 -0.1567
  812MOL0     C 9518   9.093  11.518   4.788 -0.1195  0.6346 -0.2881
  812MOL0     C 9519   8.970  11.537   4.724  0.7053 -0.0220 -0.5961
  812MOL0     C 9520   8.941  11.661   4.665  1.1655  0.4262 -0.7356
  812MOL0     O 9521   8.821  11.671   4.597  0.9328 -0.9590 -0.1030
  812MOL0     C 9522   8.827  11.735   4.468 -0.3465  0.2826  0.4177
  812MOL0     C 9523   8.764  11.644   4.364  0.1156 -0.2744  0.6642
  812MOL0     C 9524   8.734  11.700   4.224 -0.2437 -0.4382 -0.1952
  812MOL0     C 9525   8.595  11.652   4.173 -0.1477  0.1472 -0.2548
  812MOL0     C 9526   8.481  11.721   4.251  0.9710 -1.1990 -0.7557
  812MOL0     C 9527   8.349  11.702   4.180  0.0490  0.6887 -0.1893
  812MOL0     C 9528   8.227  11.717   4.274 -0.2455 -1.0979  0.1621
  812MOL0     C 9529   8.094  11.730   4.192  0.5855  0.1152 -0.2051
  812MOL0    Cl 9530   8.051  11.580   4.112  0.3686 -0.0237  0.3160
  812MOL0     C 9531   9.048  11.762   4.670  0.5989 -0.4909  0.1011
  812MOL0     C 9532   9.175  11.739   4.733  0.5575  0.3941  0.2295
  812MOL0     O 9533   9.228  11.675   5.050 -0.4189 -0.4216  0.6138
  812MOL0     C 9534   9.540  11.489   5.016  0.2640 -0.6114 -0.1040
  812MOL0     C 9535   9.648  11.438   5.095  0.3521 -0.1900 -0.7093
  812MOL0     N 9536   9.685  11.097   6.000  0.4871 -1.1824  1.2449
  812MOL0     N 9537   9.636  10.983   6.045 -1.5534  0.8007  1.6010
  812MOL0     C 9538   9.589   9.933   6.722 -0.2389  0.1688  1.1459
  812MOL0     C 9539   9.639   9.865   6.832 -0.2150 -0.3717  0.2084
  812MOL0     C 9540   9.753   9.530   7.111 -0.3282 -0.1108  0.1674
  812MOL0     C 9541   9.890   9.522   7.137  0.0592 -0.0027 -0.0971
  812MOL0     C 9542   9.942   9.436   7.240 -0.0836 -0.2546  0.0685
  812MOL0     C 9543   9.860   9.374   7.339  0.0508  0.5479  0.1917
  812MOL0     O 9544   9.906   9.285   7.436  0.6026 -0.1460  0.3369
  812MOL0     C 9545  10.001   9.346   7.517 -0.3479  0.3225 -0.5798
  812MOL0     C 9546   9.971   9.308   7.662  0.9484 -0.1446  0.3252
  812MOL0     C 9547   9.969   9.159   7.676 -0.2578  0.2392  0.1241
  812MOL0     C 9548   9.993   9.107   7.815 -0.6366 -0.1051  0.0167
  812MOL0     C 9549  10.010   8.955   7.804  0.7599 -0.4355  1.0931
  812MOL0     C 9550  10.007   8.836   7.797  0.0991  0.6062 -1.7228
  812MOL0     C 9551   9.720   9.380   7.308 -0.6027 -0.0876 -0.5257
  812MOL0     C 9552   9.676   9.456   7.197  0.8798  0.3895  0.5417
  812MOL0     H 9553   9.904   9.706   6.711 -0.3475 -0.1025  0.8960
  812MOL0     H 9554   9.832   9.814   6.505 -1.1710 -0.8830 -1.5945
  812MOL0     H 9555   9.756  10.019   6.376 -0.9323  1.8893 -1.1609
  812MOL0     H 9556   9.657   9.888   6.329  0.0815 -0.9646  0.9851
  812MOL0     H 9557   9.578  10.053   6.170 -4.3914  2.9374 -1.7611
  812MOL0     H 9558   9.466  10.101   6.305  1.1578  4.1075  1.6826
  812MOL0     H 9559   9.598  10.267   6.381  1.8332  1.5830 -0.6104
  812MOL0     H 9560   9.724  10.238   6.254  0.7937 -0.8408  0.7650
  812MOL0     H 9561   9.575  10.303   6.084 -0.2712 -0.3291  0.2124
  812MOL0     H 9562   9.433  10.307   6.187  0.3861 -4.0169 -3.6329
  812MOL0     H 9563   9.494  10.531   6.273  1.4954 -0.6652  1.9120
  812MOL0     H 9564   9.664  10.490   6.262  1.1462 -1.3329 -0.1308
  812MOL0     H 9565   9.652  10.501   6.026 -3.4411  0.6642 -3.2214
  812MOL0     H 9566   9.479  10.532   6.026  0.2073 -3.7308 -1.5652
  812MOL0     H 9567   9.533  10.752   6.161 -0.8853  0.7044 -1.0680
  812MOL0     H 9568   9.697  10.721   6.110 -0.6117 -1.9462  0.9295
  812MOL0     H 9569   9.446  10.760   5.922  0.4968  0.4232 -3.3091
  812MOL0     H 9570   9.600  10.696   5.881 -0.4719 -0.7176 -0.6267
  812MOL0     H 9571   9.607  10.948   5.725  0.6397  1.1517 -0.6936
  812MOL0     H 9572   9.619  11.266   5.779 -0.9297 -0.4069 -1.4813
  812MOL0     H 9573   9.788  11.266   5.798 -1.3775 -0.3520  2.7157
  812MOL0     H 9574   9.654  11.085   5.575  1.1291 -2.8473  1.8002
  812MOL0     H 9575   9.824  11.095   5.606  0.0562 -0.3841 -0.2146
  812MOL0     H 9576   9.821  11.325   5.540 -0.5762  1.2296 -0.4190
  812MOL0     H 9577   9.653  11.351   5.571 -0.8704 -2.5836  3.3529
  812MOL0     H 9578   9.599  11.220   5.358 -1.0176  4.4540 -0.9816
  812MOL0     H 9579   9.758  11.162   5.345 -0.0075 -1.4519  1.5836
  812MOL0     H 9580   9.503  11.440   5.393  1.0154  3.3439 -0.0591
  812MOL0     H 9581   9.245  11.606   5.333  0.6729 -0.4828  2.5847
  812MOL0     H 9582   9.192  11.485   5.222  0.5892 -0.9700  0.5916
  812MOL0     H 9583   9.274  11.430   5.364  0.5688  2.1958  2.3355
  812MOL0     H 9584   9.122  11.430   4.844  2.0000  1.2817 -0.2734
  812MOL0     H 9585   8.904  11.452   4.710  0.5273 -0.0063  0.1121
  812MOL0     H 9586   8.781  11.834   4.473 -0.0679  0.5300 -1.3523
  812MOL0     H 9587   8.930  11.759   4.439 -0.2867 -2.1452 -1.7227
  812MOL0     H 9588   8.838  11.566   4.350  2.1011  1.8413 -1.5218
  812MOL0     H 9589   8.670  11.629   4.419  1.2191  3.3734  4.0644
  812MOL0     H 9590   8.810  11.680   4.148 -0.7439  0.8725 -1.0776
  812MOL0     H 9591   8.740  11.809   4.233  0.7123 -0.1735 -2.9985
  812MOL0     H 9592   8.590  11.680   4.068 -2.5346 -0.2175 -0.2771
  812MOL0     H 9593   8.582  11.545   4.194 -0.9629  0.2899  0.0114
  812MOL0     H 9594   8.502  11.826   4.272 -2.7066 -0.6913  1.1741
  812MOL0     H 9595   8.474  11.681   4.352  1.4776  1.5138  0.4312
  812MOL0     H 9596   8.345  11.775   4.099  0.2919 -0.1905 -1.0106
  812MOL0     H 9597   8.348  11.607   4.126 -0.5464  1.9139 -2.4339
  812MOL0     H 9598   8.234  11.812   4.328 -1.9524 -0.8789  0.0417
  812MOL0     H 9599   8.210  11.640   4.350 -1.5934 -0.0701  0.9496
  812MOL0     H 9600   8.093  11.816   4.124 -1.2387 -0.4400 -0.9332
  812MOL0     H 9601   8.021  11.767   4.264  0.3901  1.7258 -1.1800
  812MOL0     H 9602   9.053  11.862   4.629  0.6924 -1.0166 -1.2151
  812MOL0     H 9603   9.252  11.816   4.732  2.0661 -1.0151 -2.1340
  812MOL0     H 9604   9.567  11.489   4.911 -1.5113 -1.8940 -0.5965
  812MOL0     H 9605   9.740  11.428   5.038  0.4468  1.4472 -0.8837
  812MOL0     H 9606   9.489   9.973   6.716 -0.7513 -0.9540  1.9397
  812MOL0     H 9607   9.581   9.881   6.923  1.9879  1.1848  1.4578
  812MOL0     H 9608   9.959   9.579   7.077 -0.0419  0.5930  0.3473
  812MOL0     H 9609  10.049   9.437   7.253  0.3754  1.2768 -2.9832
  812MOL0     H 9610  10.096   9.309   7.477 -0.7109  1.2201 -2.4143
  812MOL0     H 9611   9.996   9.455   7.510 -0.0150  0.2287 -3.3911
  812MOL0     H 9612   9.882   9.356   7.703  1.3839  1.3632 -0.4111
  812MOL0     H 9613  10.051   9.348   7.724  1.8380  0.8555 -1.3965
  812MOL0     H 9614  10.041   9.126   7.601 -0.7364 -3.9270  1.2461
  812MOL0     H 9615   9.872   9.117   7.647  0.1218 -0.7118  0.1952
  812MOL0     H 9616   9.905   9.125   7.878  0.4236 -1.6599  2.0942
  812MOL0     H 9617  10.077   9.160   7.861  1.7026 -1.2803 -2.6218
  812MOL0     H 9618  10.018   8.729   7.804 -0.3578  0.5684 -1.5479
  812MOL0     H 9619   9.646   9.329   7.369  1.7395  0.6984  3.3110
  812MOL0     H 9620   9.568   9.457   7.185  0.6464  2.8393  2.1609
  813MOL0     O 9621   5.338   7.961   6.202  0.5294 -0.6895 -0.4815
  813MOL0     C 9622   5.292   7.859   6.249  1.0053 -0.4425 -1.4174
  813MOL0     O 9623   5.371   7.747   6.302 -0.3069 -0.1681  0.0924
  813MOL0     C 9624   5.492   7.712   6.257 -0.2027 -0.2136  0.3536
  813MOL0     C 9625   5.528   7.753   6.130  0.1925  1.3567 -0.1300
  813MOL0     C 9626   5.651   7.707   6.089 -0.4840  0.1362  0.2383
  813MOL0     C 9627   5.737   7.634   6.169  0.0470 -0.0850  0.3289
  813MOL0     O 9628   5.857   7.612   6.107 -0.1901 -0.6639 -0.4529
  813MOL0     C 9629   5.967   7.587   6.204  0.8922 -0.0332  0.1377
  813MOL0     C 9630   6.094   7.601   6.119  0.3925  0.6253  0.1409
  813MOL0     C 9631   6.220   7.633   6.207  0.3788 -0.5220  0.0989
  813MOL0     C 9632   6.256   7.517   6.301  0.4497  0.6603  0.2829
  813MOL0     C 9633   6.321   7.402   6.220 -0.1323  0.0381  0.5440
  813MOL0     C 9634   6.364   7.287   6.311  0.1526 -0.0624 -0.6902
  813MOL0     C 9635   6.260   7.247   6.426  0.7786 -0.0613  0.2795
  813MOL0     C 9636   6.122   7.188   6.378  1.1515 -0.1377 -0.7148
  813MOL0     N 9637   6.022   7.236   6.487  1.0238  0.1537  1.0013
  813MOL0     C 9638   5.996   7.166   6.603  0.9683 -0.5366  0.9854
  813MOL0     C 9639   5.900   7.236   6.658  0.8411  0.2950 -1.8959
  813MOL0     C 9640   5.828   7.210   6.796 -0.4149  0.5296 -0.5932
  813MOL0     C 9641   5.693   7.139   6.797  0.1449 -0.6082  0.5186
  813MOL0     C 9642   5.614   7.165   6.927  0.1881  0.1728 -0.6574
  813MOL0     C 9643   5.464   7.138   6.892 -0.1185 -0.3201  1.3595
  813MOL0     O 9644   5.474   6.998   6.883  0.3791 -0.3162 -0.1143
  813MOL0     C 9645   5.379   6.937   6.955 -0.0295 -0.3713 -0.0532
  813MOL0     C 9646   5.398   6.859   7.064 -0.1655  0.2114  0.5089
  813MOL0     C 9647   5.296   6.785   7.129  0.2025 -0.8213  1.3149
  813MOL0     C 9648   5.325   6.723   7.264  0.1173  0.1171 -0.0979
  813MOL0     C 9649   5.164   6.803   7.065  0.1738  0.0157 -0.0453
  813MOL0     C 9650   5.042   6.747   7.126  0.3088  0.1290 -0.4767
  813MOL0     O 9651   4.946   6.692   7.049  0.4967 -1.0208 -0.8694
  813MOL0     C 9652   4.847   6.633   7.110 -0.0767  0.1483 -0.3501
  813MOL0     C 9653   4.873   6.523   7.197 -0.8547  0.4282 -0.6077
  813MOL0     C 9654   4.762   6.458   7.255  0.6119  0.4232  0.7210
  813MOL0     C 9655   4.627   6.489   7.218 -0.9608 -0.0147 -0.6543
  813MOL0     O 9656   4.524   6.446   7.279 -0.1887 -0.3432  0.1063
  813MOL0     C 9657   4.546   6.354   7.384  0.6984  0.2509  0.1480
  813MOL0     C 9658   4.408   6.328   7.453  0.1343 -0.3436 -0.2097
  813MOL0     C 9659   4.292   6.291   7.357 -0.2025  0.3027 -0.9388
  813MOL0     C 9660   4.163   6.277   7.443  0.3068 -0.8292 -0.4522
  813MOL0     C 9661   4.046   6.280   7.351 -0.1338  0.1793  0.7399
  813MOL0     C 9662   3.989   6.143   7.321  0.2026 -0.1120 -0.4454
  813MOL0     C 9663   3.884   6.148   7.215 -0.0774  0.6742  0.3349
  813MOL0     C 9664   3.796   6.033   7.233 -0.0688 -0.0736  0.4815
  813MOL0    Cl 9665   3.713   6.011   7.078 -0.2114  0.3793  0.2454
  813MOL0     C 9666   4.616   6.587   7.129  0.9275 -0.8606  0.2953
  813MOL0     C 9667   4.722   6.661   7.075  0.0545 -0.2219 -0.7598
  813MOL0     O 9668   5.035   6.766   7.250  0.0544 -0.3319 -0.3158
  813MOL0     C 9669   5.140   6.886   6.957  0.0549  0.2447  0.0109
  813MOL0     C 9670   5.251   6.942   6.901 -0.2876 -0.1871 -0.3757
  813MOL0     N 9671   5.862   7.344   6.576  0.0220  0.0209 -0.3410
  813MOL0     N 9672   5.935   7.343   6.460  0.5765  0.2020 -0.3802
  813MOL0     C 9673   5.702   7.595   6.294  0.7458  0.0414 -0.4241
  813MOL0     C 9674   5.571   7.632   6.335 -0.5814 -0.5040 -0.0317
  813MOL0     C 9675   5.140   7.856   6.291 -0.2053  0.2987  0.9079
  813MOL0     C 9676   5.103   7.766   6.388 -0.6323 -0.2190  0.2385
  813MOL0     C 9677   4.963   7.735   6.393 -0.0638 -0.4471 -0.0592
  813MOL0     C 9678   4.868   7.812   6.314 -0.4689 -0.4698 -0.3046
  813MOL0     O 9679   4.736   7.800   6.311  0.0141 -1.2555 -0.2083
  813MOL0     C 9680   4.663   7.694   6.386 -0.2499 -0.5960  0.3539
  813MOL0     C 9681   4.513   7.699   6.386 -0.6475  0.0718 -0.1539
  813MOL0     C 9682   4.456   7.823   6.456 -1.4639  0.0105  0.8590
  813MOL0     C 9683   4.314   7.840   6.423  0.5477  0.4778 -0.1519
  813MOL0     C 9684   4.224   7.768   6.515  0.3043 -0.6298 -0.5344
  813MOL0     C 9685   4.141   7.725   6.592 -0.7786  0.1010 -0.0047
  813MOL0     C 9686   4.917   7.911   6.242  0.7497  0.3308  1.2981
  813MOL0     C 9687   5.049   7.932   6.220 -0.2283 -0.3691  1.0114
  813MOL0     H 9688   5.458   7.808   6.067 -1.2574  0.9350  1.0388
  813MOL0     H 9689   5.679   7.741   5.990 -2.8661  1.4748 -0.0494
  813MOL0     H 9690   5.972   7.678   6.265 -0.3977  2.7570 -3.4918
  813MOL0     H 9691   5.960   7.498   6.266 -0.5627  0.0171  0.0964
  813MOL0     H 9692   6.103   7.506   6.067 -2.8624 -0.4836  1.3485
  813MOL0     H 9693   6.070   7.687   6.057 -4.6375  1.3107  2.5290
  813MOL0     H 9694   6.308   7.664   6.150  0.4310  2.5282  1.6436
  813MOL0     H 9695   6.188   7.721   6.264 -0.2776  0.5092 -1.7632
  813MOL0     H 9696   6.324   7.563   6.373 -1.4054  2.2159  1.1545
  813MOL0     H 9697   6.161   7.500   6.354 -0.0539  0.4481 -0.6614
  813MOL0     H 9698   6.244   7.368   6.151 -0.4930 -0.4042  1.1593
  813MOL0     H 9699   6.396   7.453   6.158 -3.0603  1.8636 -1.7453
  813MOL0     H 9700   6.385   7.198   6.250  0.0101 -1.7042  1.5456
  813MOL0     H 9701   6.451   7.312   6.373 -1.3402  3.4181  0.2816
  813MOL0     H 9702   6.308   7.161   6.474  2.4152 -0.2247 -1.5497
  813MOL0     H 9703   6.252   7.330   6.498  1.9072 -0.3306  0.7338
  813MOL0     H 9704   6.137   7.080   6.380  1.4329 -0.1410 -2.2191
  813MOL0     H 9705   6.078   7.216   6.282  0.8665  3.0712  0.2175
  813MOL0     H 9706   6.048   7.077   6.636 -0.7861 -0.8364  3.1825
  813MOL0     H 9707   5.896   7.166   6.869  0.8433  1.9202 -0.8686
  813MOL0     H 9708   5.816   7.310   6.838 -0.7106 -0.2936  1.3615
  813MOL0     H 9709   5.710   7.031   6.782 -3.6226 -1.5832  2.2211
  813MOL0     H 9710   5.631   7.179   6.717  1.1461 -2.5016 -1.3285
  813MOL0     H 9711   5.622   7.271   6.950  0.1064 -0.5680  3.7193
  813MOL0     H 9712   5.654   7.116   7.017  1.9535  0.1309 -1.4133
  813MOL0     H 9713   5.443   7.189   6.797 -0.6306 -3.1575 -0.1626
  813MOL0     H 9714   5.392   7.177   6.964 -1.4301  0.2437 -0.1882
  813MOL0     H 9715   5.497   6.855   7.109  0.6347  0.0011 -1.1782
  813MOL0     H 9716   5.346   6.806   7.332  1.7253  0.0102 -0.4217
  813MOL0     H 9717   5.244   6.660   7.302  1.2773 -0.6610  1.1552
  813MOL0     H 9718   5.420   6.669   7.264  0.6491  1.0248  0.8773
  813MOL0     H 9719   4.973   6.499   7.232 -1.3080  1.2717  1.4060
  813MOL0     H 9720   4.790   6.379   7.324 -1.8164 -0.3628  0.8769
  813MOL0     H 9721   4.596   6.265   7.344  1.3512  2.5119 -4.7861
  813MOL0     H 9722   4.602   6.398   7.467  1.7280 -1.8438  0.6503
  813MOL0     H 9723   4.419   6.245   7.523 -0.9784  0.0780  0.5089
  813MOL0     H 9724   4.377   6.422   7.501 -1.3132 -0.4997 -0.7907
  813MOL0     H 9725   4.321   6.192   7.319  1.0925  0.6810 -0.9845
  813MOL0     H 9726   4.284   6.360   7.272  2.5869  0.7537 -0.9321
  813MOL0     H 9727   4.160   6.185   7.502 -2.0240 -1.7602 -1.8821
  813MOL0     H 9728   4.158   6.367   7.504  1.9490  0.1499 -1.6776
  813MOL0     H 9729   4.059   6.339   7.260  3.7900 -0.7197  0.5420
  813MOL0     H 9730   3.970   6.328   7.413 -1.0676 -2.6480  1.9704
  813MOL0     H 9731   4.081   6.101   7.280  1.1112 -1.4918  2.6846
  813MOL0     H 9732   3.961   6.089   7.412 -1.0944  0.0072 -0.7540
  813MOL0     H 9733   3.933   6.138   7.118 -0.8402 -3.8249  0.1943
  813MOL0     H 9734   3.825   6.240   7.214 -3.8456 -1.4958  0.4525
  813MOL0     H 9735   3.717   6.053   7.305  0.4254  1.4251  0.6319
  813MOL0     H 9736   3.846   5.941   7.265 -1.0788 -1.7822 -2.4190
  813MOL0     H 9737   4.521   6.634   7.106  1.1862  0.8989  2.5170
  813MOL0     H 9738   4.709   6.757   7.026  2.3401  1.2250  1.2232
  813MOL0     H 9739   5.041   6.921   6.929  0.3281 -0.2035 -1.6196
  813MOL0     H 9740   5.218   6.992   6.810  2.7823 -0.1763 -1.6035
  813MOL0     H 9741   5.774   7.533   6.346 -0.0374 -0.1731  0.4253
  813MOL0     H 9742   5.543   7.608   6.437  1.6820 -2.4742  0.2319
  813MOL0     H 9743   5.176   7.711   6.445 -1.4717 -0.7253  0.8407
  813MOL0     H 9744   4.935   7.651   6.456  0.7587  0.2955  1.3684
  813MOL0     H 9745   4.703   7.601   6.347  4.2008  0.3834  2.0160
  813MOL0     H 9746   4.701   7.690   6.489 -1.9494 -0.4726  1.0247
  813MOL0     H 9747   4.484   7.607   6.437  3.9571 -0.4710  1.9353
  813MOL0     H 9748   4.482   7.689   6.281  2.0553 -0.7279 -0.9588
  813MOL0     H 9749   4.513   7.906   6.414  0.7261 -0.7572  2.1956
  813MOL0     H 9750   4.463   7.801   6.563  2.4178 -2.0984  0.3625
  813MOL0     H 9751   4.290   7.788   6.330 -2.0053 -1.6962  1.5474
  813MOL0     H 9752   4.286   7.944   6.407  1.6153  1.1217  1.8680
  813MOL0     H 9753   4.074   7.698   6.671 -0.1806 -2.0961 -0.1768
  813MOL0     H 9754   4.842   7.970   6.190 -0.2705 -1.3180  0.8341
  813MOL0     H 9755   5.070   8.019   6.158  0.8174 -0.3967  1.3063
  814MOL0     O 9756   5.176   1.661   6.150 -0.5226  0.2783  0.3956
  814MOL0     C 9757   5.115   1.760   6.112  0.5789  0.7346  0.1401
  814MOL0     O 9758   5.050   1.779   5.996  0.0313  0.1339 -0.5911
  814MOL0     C 9759   5.089   1.696   5.898  0.1131 -0.8438  0.7818
  814MOL0     C 9760   5.217   1.646   5.870 -0.1665  0.0397  0.2358
  814MOL0     C 9761   5.242   1.577   5.751 -1.4664 -0.5117 -0.2513
  814MOL0     C 9762   5.138   1.560   5.660 -0.2930  0.3781 -0.6291
  814MOL0     O 9763   5.158   1.492   5.544 -0.4801 -0.6604  0.0488
  814MOL0     C 9764   5.284   1.420   5.518  0.8081 -0.6794 -1.2647
  814MOL0     C 9765   5.256   1.332   5.394  0.8830 -1.3860 -0.0019
  814MOL0     C 9766   5.291   1.405   5.262  0.1004  0.5075 -0.1220
  814MOL0     C 9767   5.308   1.313   5.137  0.4984 -0.4555 -0.7971
  814MOL0     C 9768   5.322   1.399   5.005  0.3649 -1.1024  0.2046
  814MOL0     C 9769   5.187   1.465   4.958 -0.2264  0.5198 -0.8038
  814MOL0     C 9770   5.205   1.566   4.836  0.2178 -0.8671 -0.9407
  814MOL0     C 9771   5.225   1.714   4.887 -0.7608 -0.2473  0.2015
  814MOL0     N 9772   5.260   1.796   4.765  0.6318  0.7352 -0.8150
  814MOL0     C 9773   5.177   1.844   4.670 -0.0327  0.2914 -0.9215
  814MOL0     C 9774   5.243   1.928   4.593 -1.2296 -0.6788 -0.6703
  814MOL0     C 9775   5.191   2.013   4.482 -0.0814  0.0082  0.2294
  814MOL0     C 9776   5.222   2.151   4.527 -0.6336 -0.5045  0.2909
  814MOL0     C 9777   5.193   2.244   4.410  0.1561  0.0283 -0.5624
  814MOL0     C 9778   5.208   2.386   4.449  0.7215  0.5602 -0.1624
  814MOL0     O 9779   5.097   2.434   4.520 -0.0520 -0.0160  1.0401
  814MOL0     C 9780   4.986   2.475   4.450 -0.1909 -0.5887  0.0215
  814MOL0     C 9781   4.991   2.568   4.345 -0.3900 -0.5311  0.4125
  814MOL0     C 9782   4.879   2.612   4.278 -0.4033 -0.9865  0.2368
  814MOL0     C 9783   4.890   2.711   4.172 -1.4647 -0.1662  0.5508
  814MOL0     C 9784   4.752   2.562   4.317  0.4684  0.2255 -0.9254
  814MOL0     C 9785   4.623   2.591   4.243  1.3326 -1.0743 -0.2105
  814MOL0     O 9786   4.515   2.577   4.324 -0.0350  0.1434 -0.2055
  814MOL0     C 9787   4.389   2.563   4.268 -0.6400  0.7136  0.1896
  814MOL0     C 9788   4.312   2.673   4.217 -0.1199 -0.2473 -0.1145
  814MOL0     C 9789   4.186   2.647   4.168  0.2339 -0.2484 -0.3563
  814MOL0     C 9790   4.117   2.521   4.182 -0.3422 -0.1579 -0.4925
  814MOL0     O 9791   3.983   2.510   4.146 -0.8570 -0.2144  0.6725
  814MOL0     C 9792   3.933   2.375   4.149  0.6232 -1.0161 -0.0094
  814MOL0     C 9793   3.798   2.357   4.075 -0.4195 -0.8443  0.4621
  814MOL0     C 9794   3.748   2.207   4.103  0.9834  0.0864  0.9039
  814MOL0     C 9795   3.609   2.181   4.048 -0.0171 -0.5007 -0.3091
  814MOL0     C 9796   3.553   2.030   4.071  0.2857 -0.7295  0.5970
  814MOL0     C 9797   3.408   2.039   4.024 -0.5634  0.7597  0.0703
  814MOL0     C 9798   3.322   1.918   4.067  0.4154  0.7856 -0.2603
  814MOL0     C 9799   3.173   1.953   4.080 -0.5711 -0.1676 -0.1750
  814MOL0    Cl 9800   3.143   2.059   4.226 -0.4567  0.1019  0.4099
  814MOL0     C 9801   4.198   2.407   4.223  0.2028 -0.7081 -0.5442
  814MOL0     C 9802   4.335   2.426   4.260  0.8388  0.1027  0.4403
  814MOL0     O 9803   4.615   2.627   4.126  0.0015  0.1065 -0.4293
  814MOL0     C 9804   4.748   2.478   4.438  0.3243  0.4879  0.0642
  814MOL0     C 9805   4.864   2.441   4.497  0.4678 -0.0830  0.2044
  814MOL0     N 9806   5.367   1.927   4.646  0.1906 -0.5737  0.7902
  814MOL0     N 9807   5.377   1.852   4.746 -0.4580 -0.0190  0.0682
  814MOL0     C 9808   5.008   1.611   5.687  0.9598 -0.1211  0.5586
  814MOL0     C 9809   4.985   1.674   5.808 -0.1226  0.1127  0.2203
  814MOL0     C 9810   5.099   1.864   6.217 -0.1404 -0.5060 -0.6421
  814MOL0     C 9811   5.203   1.867   6.323  0.4741  0.4897 -0.4571
  814MOL0     C 9812   5.214   1.973   6.412  0.3238  0.9000 -0.3516
  814MOL0     C 9813   5.130   2.089   6.402 -0.7929  0.8161 -0.8160
  814MOL0     O 9814   5.139   2.196   6.480  1.1634  0.0116 -0.6682
  814MOL0     C 9815   5.280   2.232   6.494 -1.6856 -0.7469 -0.2772
  814MOL0     C 9816   5.338   2.208   6.636  0.2860  0.5354 -0.4518
  814MOL0     C 9817   5.254   2.267   6.755  0.7024  0.1386 -0.0629
  814MOL0     C 9818   5.249   2.420   6.766 -0.1741  1.0873  0.4521
  814MOL0     C 9819   5.132   2.484   6.702 -0.6223  0.9513 -0.8331
  814MOL0     C 9820   5.023   2.519   6.666 -0.2422 -0.0451  0.2213
  814MOL0     C 9821   5.040   2.090   6.301  0.3840 -0.2782  0.3360
  814MOL0     C 9822   5.013   1.982   6.218 -0.5141  0.7403  0.1484
  814MOL0     H 9823   5.300   1.665   5.937 -0.3350  0.9149  0.2090
  814MOL0     H 9824   5.343   1.549   5.726 -0.8263 -0.3849  1.9483
  814MOL0     H 9825   5.361   1.494   5.497  0.9133  0.0026  1.2254
  814MOL0     H 9826   5.327   1.372   5.606  1.4551  3.1843  0.7198
  814MOL0     H 9827   5.325   1.249   5.407 -0.5152 -2.4623  0.8839
  814MOL0     H 9828   5.154   1.291   5.390 -0.8442  1.8739  3.4208
  814MOL0     H 9829   5.202   1.465   5.242 -0.6639 -1.4969 -3.5090
  814MOL0     H 9830   5.380   1.467   5.273  0.5127  0.1791 -1.4772
  814MOL0     H 9831   5.410   1.273   5.136 -0.2886 -2.6095 -0.1178
  814MOL0     H 9832   5.223   1.244   5.129 -0.2177  0.2551  0.3876
  814MOL0     H 9833   5.387   1.485   5.023 -0.1241  0.2303 -3.5027
  814MOL0     H 9834   5.370   1.347   4.922 -0.1542  1.8724 -2.1176
  814MOL0     H 9835   5.122   1.384   4.925  1.3565 -1.0337 -0.2588
  814MOL0     H 9836   5.146   1.516   5.045 -1.1681  0.0995 -0.9925
  814MOL0     H 9837   5.293   1.531   4.782  2.0710  0.2894  1.1426
  814MOL0     H 9838   5.121   1.574   4.766  0.8653 -1.8989 -1.8650
  814MOL0     H 9839   5.316   1.706   4.948  0.4734 -3.0796 -1.7583
  814MOL0     H 9840   5.142   1.763   4.938 -0.4839 -0.6872  1.0964
  814MOL0     H 9841   5.070   1.831   4.656  0.0375 -1.0575 -0.3404
  814MOL0     H 9842   5.235   1.971   4.391 -0.5774  1.4077 -0.6880
  814MOL0     H 9843   5.082   2.011   4.490  0.0013 -1.5887  1.7512
  814MOL0     H 9844   5.317   2.186   4.569  0.3892 -3.2099  0.4822
  814MOL0     H 9845   5.154   2.172   4.610 -2.0355 -0.0490 -0.9394
  814MOL0     H 9846   5.095   2.223   4.365 -0.4188  1.4350 -0.0297
  814MOL0     H 9847   5.268   2.234   4.331  2.4872 -1.4855  1.6727
  814MOL0     H 9848   5.222   2.448   4.360 -1.0654  0.9095 -0.2302
  814MOL0     H 9849   5.302   2.403   4.504  0.7909  0.1184 -0.1451
  814MOL0     H 9850   5.089   2.601   4.311  0.1301  0.9665  3.0816
  814MOL0     H 9851   4.862   2.671   4.074  0.9173 -3.5483  1.0638
  814MOL0     H 9852   4.825   2.797   4.189 -1.1469  0.2484 -0.2968
  814MOL0     H 9853   4.992   2.740   4.144 -0.6057 -0.3773  3.1516
  814MOL0     H 9854   4.359   2.769   4.198 -1.3517  0.2498 -0.7465
  814MOL0     H 9855   4.118   2.719   4.125  0.4572 -1.6757 -3.4082
  814MOL0     H 9856   3.992   2.300   4.095 -0.7377 -1.4142 -1.0128
  814MOL0     H 9857   3.915   2.346   4.253  0.1641 -0.3542  0.1052
  814MOL0     H 9858   3.729   2.427   4.124 -2.7923 -3.3608  1.0146
  814MOL0     H 9859   3.808   2.376   3.968  1.6992 -1.5522  0.4975
  814MOL0     H 9860   3.753   2.202   4.212  2.8051 -0.3206  0.8378
  814MOL0     H 9861   3.826   2.139   4.066  1.1375  1.8628 -2.4740
  814MOL0     H 9862   3.549   2.249   4.109  5.7797 -0.4590  6.7785
  814MOL0     H 9863   3.623   2.210   3.944  1.1875  2.1268  0.5085
  814MOL0     H 9864   3.540   2.011   4.178 -1.4939  1.8408  0.9392
  814MOL0     H 9865   3.609   1.957   4.014  1.0251  1.6452 -1.9276
  814MOL0     H 9866   3.354   2.130   4.048 -0.3119  2.0261 -3.5177
  814MOL0     H 9867   3.410   2.041   3.914  0.0155 -1.5688 -0.0099
  814MOL0     H 9868   3.361   1.880   4.161 -1.4884 -0.5694  0.0329
  814MOL0     H 9869   3.319   1.835   3.996 -0.6853  0.4319  0.1846
  814MOL0     H 9870   3.119   1.859   4.096 -1.1290 -0.1200 -1.6198
  814MOL0     H 9871   3.141   2.012   3.994  3.4526  3.2471  0.3580
  814MOL0     H 9872   4.157   2.308   4.240  2.1160 -1.2848  1.0928
  814MOL0     H 9873   4.405   2.358   4.308  1.5280  1.4888  1.4858
  814MOL0     H 9874   4.652   2.443   4.473  0.6875 -0.2833  0.2937
  814MOL0     H 9875   4.864   2.379   4.586 -1.2988  0.6474  0.7622
  814MOL0     H 9876   4.927   1.604   5.614  2.4784  1.0627 -1.3451
  814MOL0     H 9877   4.889   1.725   5.817  0.2852  0.9598 -0.1162
  814MOL0     H 9878   5.277   1.788   6.332  0.9271  1.0783  1.4681
  814MOL0     H 9879   5.283   1.954   6.493  1.0532 -0.5706 -1.2827
  814MOL0     H 9880   5.343   2.167   6.432  1.0049  0.9897  0.4676
  814MOL0     H 9881   5.301   2.332   6.456  2.6306 -2.1570 -2.3365
  814MOL0     H 9882   5.443   2.237   6.645  0.4925 -0.6743  2.0700
  814MOL0     H 9883   5.331   2.101   6.661 -4.3909  1.2846  2.8686
  814MOL0     H 9884   5.291   2.238   6.853 -2.8053 -2.0761  0.8119
  814MOL0     H 9885   5.154   2.222   6.756  0.4616  0.5755  2.1971
  814MOL0     H 9886   5.339   2.466   6.723 -0.0291  0.3715 -0.0202
  814MOL0     H 9887   5.240   2.436   6.874  0.2391 -0.0906  0.6771
  814MOL0     H 9888   4.927   2.555   6.634  0.3124 -0.1361 -1.6879
  814MOL0     H 9889   4.982   2.182   6.298  1.0768  0.1734 -2.8947
  814MOL0     H 9890   4.936   1.985   6.142 -0.3818 -1.0305 -0.1146
  815MOL0     O 9891   5.527   0.880   5.460 -0.1990 -0.4557  1.0853
  815MOL0     C 9892   5.571   0.972   5.528 -0.2572 -0.5220  0.7594
  815MOL0     O 9893   5.695   1.025   5.524 -0.1411  0.9368 -0.0975
  815MOL0     C 9894   5.791   0.980   5.437 -0.6068 -0.5447 -0.9745
  815MOL0     C 9895   5.805   1.038   5.302 -1.1445 -0.0874 -0.5499
  815MOL0     C 9896   5.909   0.994   5.207  0.7076 -0.2440  1.1697
  815MOL0     C 9897   6.007   0.905   5.249 -0.2832  0.0399 -1.2432
  815MOL0     O 9898   6.120   0.869   5.183  0.9238  0.5257  0.8832
  815MOL0     C 9899   6.172   0.961   5.085  0.8698 -0.0770 -0.1745
  815MOL0     C 9900   6.287   0.893   5.007 -0.2296  0.6131  0.1738
  815MOL0     C 9901   6.422   0.877   5.086  0.3356 -0.9490 -0.4620
  815MOL0     C 9902   6.499   1.009   5.101  0.2300 -0.9058  1.3380
  815MOL0     C 9903   6.637   0.979   5.142 -0.6687 -0.0193  0.1222
  815MOL0     C 9904   6.720   1.102   5.171  1.0062  0.2064  0.1949
  815MOL0     C 9905   6.761   1.190   5.050 -0.2674 -0.0679  0.4449
  815MOL0     C 9906   6.844   1.311   5.112  0.5448 -0.4605  0.5713
  815MOL0     N 9907   6.873   1.395   5.000  1.0515 -0.6674  0.8003
  815MOL0     C 9908   6.995   1.397   4.940 -0.9478 -0.0379  0.0875
  815MOL0     C 9909   6.977   1.494   4.842 -0.2235 -0.2835 -0.9511
  815MOL0     C 9910   7.078   1.556   4.747  0.6586 -1.3377  0.2247
  815MOL0     C 9911   7.081   1.450   4.633  0.1253  0.1210 -0.4217
  815MOL0     C 9912   7.190   1.475   4.532 -0.1194 -0.6498  0.1488
  815MOL0     C 9913   7.188   1.616   4.476  0.2283 -0.3065  0.1126
  815MOL0     O 9914   7.284   1.710   4.537 -0.0018 -0.1996  0.0211
  815MOL0     C 9915   7.260   1.846   4.522 -0.4890 -0.0318  0.0625
  815MOL0     C 9916   7.154   1.903   4.451  0.1472  0.3143 -0.0061
  815MOL0     C 9917   7.139   2.042   4.451 -1.0734 -0.4269  0.3534
  815MOL0     C 9918   7.040   2.101   4.353  0.0955  0.1735  0.6967
  815MOL0     C 9919   7.234   2.126   4.521 -0.2148  0.7782  0.4827
  815MOL0     C 9920   7.230   2.279   4.521  0.4388 -0.6426  0.7649
  815MOL0     O 9921   7.335   2.353   4.564  0.5470  0.9087 -0.2294
  815MOL0     C 9922   7.311   2.484   4.599 -0.1941 -0.0372 -0.3520
  815MOL0     C 9923   7.354   2.583   4.508 -0.8979 -0.2982 -0.1131
  815MOL0     C 9924   7.350   2.714   4.553 -0.2062  0.9418  0.0363
  815MOL0     C 9925   7.301   2.737   4.687 -0.0449  1.2903  0.1033
  815MOL0     O 9926   7.272   2.866   4.731  0.3347 -0.6671 -0.2612
  815MOL0     C 9927   7.384   2.959   4.731 -0.0251  0.2613 -0.3750
  815MOL0     C 9928   7.348   3.093   4.784 -0.5556 -0.4773  0.1060
  815MOL0     C 9929   7.275   3.096   4.924  0.2142 -0.6551  0.1511
  815MOL0     C 9930   7.303   3.238   4.989  0.2279  0.1620  0.2587
  815MOL0     C 9931   7.219   3.268   5.120 -0.4116 -0.1452  0.2820
  815MOL0     C 9932   7.199   3.427   5.141 -0.0185 -0.6666  0.0723
  815MOL0     C 9933   7.128   3.466   5.271 -0.6367  0.3788 -0.2083
  815MOL0     C 9934   6.989   3.407   5.288  0.8080  0.8016 -1.0797
  815MOL0    Cl 9935   6.922   3.467   5.453  0.2402  0.1034 -0.7987
  815MOL0     C 9936   7.263   2.630   4.770 -0.0064  0.0573 -0.0815
  815MOL0     C 9937   7.271   2.500   4.732  0.5184  0.4352  0.3960
  815MOL0     O 9938   7.123   2.331   4.505  0.7959  0.1836  0.0864
  815MOL0     C 9939   7.339   2.059   4.588 -0.4276 -0.3535  0.1888
  815MOL0     C 9940   7.362   1.917   4.583 -0.3219 -0.6209 -0.2053
  815MOL0     N 9941   6.844   1.522   4.843  0.6989 -0.0949 -0.7670
  815MOL0     N 9942   6.780   1.472   4.937 -0.9714 -0.5096 -1.0799
  815MOL0     C 9943   5.997   0.861   5.389  0.1830 -0.1651  0.2452
  815MOL0     C 9944   5.895   0.897   5.474  1.3369  0.1800  0.7760
  815MOL0     C 9945   5.494   1.015   5.642 -0.2950  0.2541 -1.0274
  815MOL0     C 9946   5.385   0.950   5.691 -0.3322  0.4908  0.7932
  815MOL0     C 9947   5.317   0.993   5.804  0.1166 -0.6166 -0.3271
  815MOL0     C 9948   5.353   1.106   5.880  0.9374 -0.1083 -0.4117
  815MOL0     O 9949   5.287   1.135   5.998  0.3969 -0.3278 -0.5481
  815MOL0     C 9950   5.187   1.043   6.062  0.2540  0.4630  0.4338
  815MOL0     C 9951   5.268   0.931   6.146 -0.0029 -0.0804  0.0728
  815MOL0     C 9952   5.314   0.990   6.283 -0.4255 -0.7950  0.5198
  815MOL0     C 9953   5.402   0.890   6.355  0.3879  0.5418  0.8895
  815MOL0     C 9954   5.459   0.952   6.482  0.6140 -0.0101 -0.3694
  815MOL0     C 9955   5.513   1.004   6.584  1.6961  0.1793  0.1378
  815MOL0     C 9956   5.472   1.171   5.848  0.8448  0.1047  0.6613
  815MOL0     C 9957   5.538   1.115   5.739 -0.4589 -0.1389  0.5978
  815MOL0     H 9958   5.735   1.119   5.284 -0.7011  0.5022  0.3145
  815MOL0     H 9959   5.909   1.025   5.103 -1.9578 -0.9663  0.8825
  815MOL0     H 9960   6.096   0.984   5.010 -2.2035 -1.1086  2.4165
  815MOL0     H 9961   6.213   1.045   5.141 -3.4392  1.9888  0.2259
  815MOL0     H 9962   6.256   0.791   4.983 -0.7385  0.6312  0.7197
  815MOL0     H 9963   6.312   0.948   4.915  1.6453  0.3054  0.4644
  815MOL0     H 9964   6.406   0.823   5.180  0.0701  0.7662  0.5194
  815MOL0     H 9965   6.481   0.808   5.024 -0.2097 -4.4150  2.4845
  815MOL0     H 9966   6.509   1.058   5.003  0.3602 -2.2189  0.6674
  815MOL0     H 9967   6.442   1.064   5.177  0.1161 -3.9888  3.6782
  815MOL0     H 9968   6.623   0.922   5.234  3.4010  2.7843  2.8158
  815MOL0     H 9969   6.690   0.909   5.077 -0.9149  0.0615 -0.1663
  815MOL0     H 9970   6.666   1.170   5.239 -2.0518 -3.2816  1.6425
  815MOL0     H 9971   6.811   1.064   5.218  1.8521  0.7203 -0.9908
  815MOL0     H 9972   6.827   1.139   4.979  1.7288  0.3117  1.9762
  815MOL0     H 9973   6.674   1.231   4.998  2.7234  2.5321 -2.9680
  815MOL0     H 9974   6.940   1.288   5.159  2.5908  1.6530 -2.2501
  815MOL0     H 9975   6.781   1.368   5.181  2.4591  2.0814  0.3670
  815MOL0     H 9976   7.086   1.346   4.971  1.1094  2.5704 -1.3010
  815MOL0     H 9977   7.047   1.653   4.706 -1.1470 -2.1539 -0.4206
  815MOL0     H 9978   7.176   1.580   4.790 -0.5093  2.5442  1.0980
  815MOL0     H 9979   6.976   1.458   4.600  0.0160  0.4068 -0.0193
  815MOL0     H 9980   7.101   1.352   4.677 -2.2470 -0.7117 -1.0495
  815MOL0     H 9981   7.179   1.400   4.454  1.8917 -1.5877  0.6854
  815MOL0     H 9982   7.293   1.467   4.570  0.0203  2.7026  0.8601
  815MOL0     H 9983   7.085   1.651   4.467  0.3669 -0.3314 -2.1865
  815MOL0     H 9984   7.222   1.607   4.372 -2.7220 -3.2889 -0.7730
  815MOL0     H 9985   7.078   1.843   4.403 -2.4889  1.9773  1.8215
  815MOL0     H 9986   7.087   2.140   4.263 -2.0408  1.7785  0.1806
  815MOL0     H 9987   6.964   2.028   4.326 -0.0569  1.1989 -1.8888
  815MOL0     H 9988   6.976   2.176   4.401  0.2391 -1.4111  3.5770
  815MOL0     H 9989   7.394   2.570   4.408  0.6277  3.8149 -0.2158
  815MOL0     H 9990   7.363   2.793   4.480 -1.9923  2.4392  1.2424
  815MOL0     H 9991   7.455   2.918   4.804 -1.1977  0.6411  1.0359
  815MOL0     H 9992   7.431   2.971   4.633 -0.0233  0.3834 -0.3584
  815MOL0     H 9993   7.431   3.163   4.795 -0.7210 -0.1421 -0.7786
  815MOL0     H 9994   7.284   3.145   4.713 -1.0823 -1.9825 -0.5640
  815MOL0     H 9995   7.300   3.012   4.988  3.7354  1.4238  1.7683
  815MOL0     H 9996   7.167   3.103   4.908  0.0749  0.6337  1.4320
  815MOL0     H 9997   7.408   3.244   5.020  0.2840  0.6429 -0.0054
  815MOL0     H 9998   7.299   3.318   4.915  0.5077  1.2290  1.3501
  815MOL0     H 9999   7.271   3.221   5.205  4.7669 -3.4231 -4.0254
  815MOL0     H10000   7.121   3.221   5.116 -0.3631 -0.4776  2.0148
  815MOL0     H10001   7.294   3.479   5.127 -1.7399  3.0021  0.7331
  815MOL0     H10002   7.132   3.456   5.059  0.1023 -0.3426  0.0869
  815MOL0     H10003   7.136   3.575   5.279 -0.6528  0.2603  1.9093
  815MOL0     H10004   7.183   3.428   5.357 -2.8354 -1.5112  0.4627
  815MOL0     H10005   6.999   3.298   5.299 -1.1760  0.6562 -0.2792
  815MOL0     H10006   6.919   3.435   5.209 -2.1985  0.2758  1.2255
  815MOL0     H10007   7.213   2.651   4.864 -0.4375 -0.2409 -0.2410
  815MOL0     H10008   7.237   2.418   4.794  0.4495 -0.4099 -0.7119
  815MOL0     H10009   7.413   2.111   4.648  0.9052 -0.4735 -1.2786
  815MOL0     H10010   7.430   1.863   4.647  0.1107 -3.9042 -3.1639
  815MOL0     H10011   6.071   0.792   5.429  3.5464  2.8509 -0.3008
  815MOL0     H10012   5.891   0.858   5.575  1.2701 -1.6565  0.1041
  815MOL0     H10013   5.353   0.865   5.633 -2.3465  1.4987  0.3565
  815MOL0     H10014   5.244   0.922   5.843  1.5722 -0.3757  3.2030
  815MOL0     H10015   5.113   1.092   6.126 -1.3615 -0.6364 -0.5028
  815MOL0     H10016   5.128   0.998   5.982 -0.1800  0.4947  0.7313
  815MOL0     H10017   5.350   0.898   6.081 -2.8916 -1.0619 -3.3522
  815MOL0     H10018   5.204   0.845   6.165 -0.2905 -0.1156 -0.9889
  815MOL0     H10019   5.231   1.018   6.347  1.2713  1.7643  1.7805
  815MOL0     H10020   5.378   1.077   6.265  0.0156 -1.3707 -0.9045
  815MOL0     H10021   5.484   0.858   6.290 -1.1129  0.0006 -0.8261
  815MOL0     H10022   5.348   0.803   6.392 -0.5350  1.6274  2.2001
  815MOL0     H10023   5.547   1.032   6.681 -0.6340  0.2555  0.9982
  815MOL0     H10024   5.498   1.252   5.916 -3.9051  0.1065  2.9011
  815MOL0     H10025   5.638   1.152   5.720  0.0041 -0.9585  1.3475
  816MOL0     O10026   1.915   4.644   1.778  0.2071 -0.0315  0.9184
  816MOL0     C10027   1.939   4.603   1.664 -0.2012 -0.2014  0.3814
  816MOL0     O10028   1.867   4.643   1.554 -0.5967 -0.1423 -0.0777
  816MOL0     C10029   1.745   4.709   1.547 -0.3280 -0.6321  0.0781
  816MOL0     C10030   1.715   4.803   1.646  0.8413 -0.1727 -0.7465
  816MOL0     C10031   1.593   4.876   1.637 -0.0256  0.7600 -0.2229
  816MOL0     C10032   1.508   4.849   1.528  0.9333  0.2928 -0.2339
  816MOL0     O10033   1.389   4.919   1.536  0.9350 -0.4383 -0.9578
  816MOL0     C10034   1.298   4.910   1.429  0.3442  0.1375  0.0423
  816MOL0     C10035   1.177   4.997   1.450  0.1934 -0.3923 -0.4698
  816MOL0     C10036   1.123   4.959   1.584  0.0183  1.4245 -0.3577
  816MOL0     C10037   1.004   5.040   1.627 -0.5353  0.3514 -0.3577
  816MOL0     C10038   0.960   5.012   1.772 -0.2137 -0.1436  0.4905
  816MOL0     C10039   1.040   5.093   1.873 -0.6936 -0.0047 -0.3081
  816MOL0     C10040   0.992   5.075   2.017 -0.4252 -1.7150 -0.2966
  816MOL0     C10041   0.876   5.181   2.043 -0.3057  0.4265  0.2376
  816MOL0     N10042   0.754   5.121   2.082 -0.1840 -1.0372 -0.2764
  816MOL0     C10043   0.756   5.025   2.171  0.0724 -0.5137  0.4287
  816MOL0     C10044   0.624   4.989   2.168 -0.1678 -1.1584  0.0136
  816MOL0     C10045   0.560   4.869   2.230  1.2567 -0.3980  0.6714
  816MOL0     C10046   0.445   4.893   2.335 -0.2447  0.7286  0.2960
  816MOL0     C10047   0.312   4.906   2.269  0.1627  0.1672  0.0302
  816MOL0     C10048   0.225   4.979   2.363 -0.7527  0.1414  0.8451
  816MOL0     O10049   0.098   4.975   2.309  0.5853  0.0026 -0.0962
  816MOL0     C10050   0.014   5.054   2.382  0.1596  0.4744  1.1440
  816MOL0     C10051  -0.069   5.000   2.478 -0.5487 -0.7726 -0.1548
  816MOL0     C10052  -0.159   5.081   2.544  0.6028 -0.4779 -1.1463
  816MOL0     C10053  -0.228   5.006   2.655  0.3955 -0.8406 -0.2691
  816MOL0     C10054  -0.192   5.213   2.503  0.6557  0.6361  0.0394
  816MOL0     C10055  -0.281   5.306   2.571 -0.2240  0.6075  0.1674
  816MOL0     O10056  -0.320   5.415   2.506  0.2665 -0.0486  0.1839
  816MOL0     C10057  -0.428   5.492   2.530 -0.4348  0.6344  0.8441
  816MOL0     C10058  -0.470   5.528   2.654  0.3815  0.1494  0.0616
  816MOL0     C10059  -0.589   5.609   2.666  1.0560 -0.2401  0.6285
  816MOL0     C10060  -0.661   5.651   2.546  0.5074  0.4095  0.4623
  816MOL0     O10061  -0.768   5.731   2.551  0.6777  0.2017 -0.4026
  816MOL0     C10062  -0.867   5.688   2.462  0.0275  0.5543 -0.6428
  816MOL0     C10063  -1.001   5.744   2.507  0.0633  0.7423 -1.1644
  816MOL0     C10064  -1.120   5.705   2.411 -0.9358  0.1591 -0.4752
  816MOL0     C10065  -1.235   5.793   2.447  0.7466  0.0611 -0.0412
  816MOL0     C10066  -1.352   5.734   2.372  0.2773  0.1180 -0.4527
  816MOL0     C10067  -1.471   5.829   2.398  0.7371  1.1760  1.0140
  816MOL0     C10068  -1.603   5.786   2.320  0.0320  0.1857  0.0856
  816MOL0     C10069  -1.721   5.881   2.332 -0.8998 -0.7012 -0.0570
  816MOL0    Cl10070  -1.673   6.032   2.260  0.1669  0.4155 -0.2852
  816MOL0     C10071  -0.608   5.608   2.424  0.0362 -0.9901 -0.0207
  816MOL0     C10072  -0.486   5.534   2.416 -1.0268  0.2367 -0.9026
  816MOL0     O10073  -0.305   5.273   2.684 -0.0831  0.0652  0.4326
  816MOL0     C10074  -0.114   5.259   2.406  0.5179 -0.1612 -0.1268
  816MOL0     C10075  -0.014   5.178   2.348 -1.1334 -1.3400  0.6197
  816MOL0     N10076   0.554   5.061   2.074  0.7580  0.0226 -0.0638
  816MOL0     N10077   0.632   5.155   2.029  0.6501  0.2984  0.0971
  816MOL0     C10078   1.537   4.751   1.432  0.0224 -0.6672 -0.5128
  816MOL0     C10079   1.660   4.683   1.443  0.6240  0.1261  0.1335
  816MOL0     C10080   2.034   4.487   1.650  0.4450 -0.3144 -0.0462
  816MOL0     C10081   2.050   4.413   1.531 -1.6356 -0.3540  0.6694
  816MOL0     C10082   2.141   4.303   1.532  0.8397 -0.2815 -0.4376
  816MOL0     C10083   2.213   4.261   1.644 -0.2273 -0.6507  0.8241
  816MOL0     O10084   2.284   4.149   1.649 -0.0274  0.5384 -0.6199
  816MOL0     C10085   2.357   4.125   1.533 -0.1216  0.6638 -0.0501
  816MOL0     C10086   2.472   4.027   1.544 -0.3010 -0.3637 -0.3587
  816MOL0     C10087   2.429   3.893   1.515 -0.3998 -0.6836 -0.7226
  816MOL0     C10088   2.522   3.791   1.582  0.2629 -0.6325 -0.2824
  816MOL0     C10089   2.477   3.650   1.568  0.4409 -1.0253  0.5547
  816MOL0     C10090   2.416   3.542   1.559 -1.0819 -0.3130 -0.2750
  816MOL0     C10091   2.200   4.336   1.761  0.6981 -0.1149  0.3621
  816MOL0     C10092   2.113   4.449   1.760 -0.0920  0.5025 -0.9304
  816MOL0     H10093   1.779   4.831   1.729  0.9135  1.6811 -1.3796
  816MOL0     H10094   1.569   4.956   1.707 -1.7863  0.0785  0.0203
  816MOL0     H10095   1.343   4.939   1.334 -0.2137  4.6125  0.8925
  816MOL0     H10096   1.255   4.810   1.420  0.4423  0.0006  0.9715
  816MOL0     H10097   1.193   5.105   1.444  2.4741 -0.7547 -2.6497
  816MOL0     H10098   1.110   4.979   1.366 -0.5096  2.2994 -0.5710
  816MOL0     H10099   1.083   4.858   1.573 -1.3693  2.1295 -2.3162
  816MOL0     H10100   1.192   4.954   1.668 -0.9552 -1.7013  0.3725
  816MOL0     H10101   1.033   5.145   1.626 -0.9262  0.6774  3.8904
  816MOL0     H10102   0.930   5.012   1.551  2.3549  0.8389 -3.5636
  816MOL0     H10103   0.856   5.046   1.770 -0.2030 -0.1257 -0.7244
  816MOL0     H10104   0.960   4.905   1.798 -0.3953 -0.6186 -1.3441
  816MOL0     H10105   1.145   5.062   1.869 -1.5780 -3.2688 -1.8397
  816MOL0     H10106   1.036   5.198   1.844  1.7199 -0.0005 -0.8908
  816MOL0     H10107   0.944   4.978   2.032 -3.3897 -0.4930 -1.1925
  816MOL0     H10108   1.072   5.091   2.089 -0.6842 -1.5458 -0.0440
  816MOL0     H10109   0.851   5.238   1.953 -0.0896 -0.3089 -0.2978
  816MOL0     H10110   0.914   5.237   2.128  1.5587 -1.8063  0.9609
  816MOL0     H10111   0.838   4.983   2.228  2.0298  2.2755 -0.1268
  816MOL0     H10112   0.526   4.812   2.143  0.2565  0.7030  0.3148
  816MOL0     H10113   0.634   4.815   2.288 -0.9712 -2.2192  1.9548
  816MOL0     H10114   0.469   4.984   2.392 -1.9321  1.1671  0.3497
  816MOL0     H10115   0.446   4.803   2.397  1.2291  2.0557  2.3575
  816MOL0     H10116   0.262   4.809   2.258 -1.6642  1.1367 -0.5953
  816MOL0     H10117   0.313   4.953   2.170 -2.7397  0.7580  0.2105
  816MOL0     H10118   0.256   5.084   2.363 -2.7215  0.7627  1.1204
  816MOL0     H10119   0.217   4.937   2.464  0.3705 -4.3236 -0.6859
  816MOL0     H10120  -0.045   4.899   2.508  2.7154 -0.0852 -0.0748
  816MOL0     H10121  -0.198   5.055   2.748  0.9199 -1.6832  0.0163
  816MOL0     H10122  -0.335   5.022   2.638 -0.2011 -3.1414  0.9395
  816MOL0     H10123  -0.209   4.899   2.667  1.2946 -0.6651 -0.0296
  816MOL0     H10124  -0.411   5.519   2.745  1.7653 -1.5086 -0.9401
  816MOL0     H10125  -0.621   5.642   2.765  1.1006 -0.6707  0.7918
  816MOL0     H10126  -0.832   5.727   2.366  1.6351  1.6259  0.3412
  816MOL0     H10127  -0.872   5.578   2.466 -1.7712  0.5331  4.4345
  816MOL0     H10128  -1.027   5.717   2.609  1.0641  0.3918 -0.9882
  816MOL0     H10129  -0.988   5.853   2.505 -1.3202  1.0419  1.7550
  816MOL0     H10130  -1.146   5.599   2.412  2.2051 -0.6987 -0.1871
  816MOL0     H10131  -1.095   5.716   2.305 -0.3093  0.2691 -0.3233
  816MOL0     H10132  -1.239   5.770   2.553 -0.8238  0.1636 -0.0611
  816MOL0     H10133  -1.204   5.893   2.415  0.7386  0.3680  0.8788
  816MOL0     H10134  -1.361   5.638   2.424 -0.3118  0.9412  1.0268
  816MOL0     H10135  -1.332   5.732   2.265 -1.2078 -1.8061 -0.7542
  816MOL0     H10136  -1.502   5.838   2.502 -2.7439 -1.7795  0.4100
  816MOL0     H10137  -1.432   5.924   2.359  0.8526 -0.4093 -3.2425
  816MOL0     H10138  -1.642   5.695   2.367 -1.8266  1.2803  0.7627
  816MOL0     H10139  -1.586   5.769   2.213  3.1386  0.3395  0.4600
  816MOL0     H10140  -1.739   5.909   2.436  4.0110 -0.7065  1.0348
  816MOL0     H10141  -1.816   5.848   2.290 -1.5632 -1.8120  2.1613
  816MOL0     H10142  -0.656   5.643   2.333 -1.0088  0.7486  1.1169
  816MOL0     H10143  -0.440   5.503   2.323 -1.4258 -1.4893 -0.5456
  816MOL0     H10144  -0.115   5.366   2.384  2.9876  0.3155  1.6762
  816MOL0     H10145   0.060   5.213   2.277 -1.2417 -0.0057  1.1255
  816MOL0     H10146   1.477   4.736   1.342  1.1296  1.6241 -1.7115
  816MOL0     H10147   1.688   4.601   1.378  0.4762  1.2310 -1.3765
  816MOL0     H10148   1.991   4.443   1.444 -0.4006 -3.6317 -1.4964
  816MOL0     H10149   2.146   4.248   1.439  1.0312  0.1582 -0.6886
  816MOL0     H10150   2.313   4.102   1.435  1.9325 -0.7005 -0.7261
  816MOL0     H10151   2.411   4.218   1.511 -0.1509  0.4436 -1.1319
  816MOL0     H10152   2.514   4.043   1.643 -3.3403 -0.5737  1.0893
  816MOL0     H10153   2.543   4.060   1.467 -1.0548  0.7502 -0.6077
  816MOL0     H10154   2.453   3.886   1.408 -3.0932  0.2874 -1.4685
  816MOL0     H10155   2.326   3.867   1.539 -0.4101  2.1002  3.0349
  816MOL0     H10156   2.534   3.814   1.688  4.1873 -0.4530 -0.6236
  816MOL0     H10157   2.623   3.799   1.540  0.5429 -2.4223 -0.0288
  816MOL0     H10158   2.375   3.444   1.549 -1.9198 -0.0326  0.3439
  816MOL0     H10159   2.230   4.286   1.853  0.5163 -0.0239  0.4707
  816MOL0     H10160   2.109   4.487   1.861  2.9545  2.6714 -1.4716
  817MOL0     O10161   4.475   6.465   2.732  0.2183  0.8706 -0.6858
  817MOL0     C10162   4.572   6.479   2.811 -0.0465 -0.3748 -0.1631
  817MOL0     O10163   4.608   6.407   2.925  0.4014 -0.0057  0.1611
  817MOL0     C10164   4.510   6.321   2.987 -0.6925 -0.1487  0.2673
  817MOL0     C10165   4.566   6.260   3.101 -0.6527  0.3756  0.8503
  817MOL0     C10166   4.487   6.170   3.174  0.5605 -0.9214  0.0823
  817MOL0     C10167   4.350   6.149   3.145 -0.0964  0.7984  0.5354
  817MOL0     O10168   4.269   6.076   3.229  0.2799  0.3212 -0.1602
  817MOL0     C10169   4.327   5.952   3.278  0.2802  0.2580 -0.3839
  817MOL0     C10170   4.238   5.865   3.367  0.3587  1.2711 -0.1589
  817MOL0     C10171   4.222   5.921   3.512  0.0331  0.4642  0.0660
  817MOL0     C10172   4.108   5.837   3.577 -0.6411  0.3304  0.3894
  817MOL0     C10173   4.054   5.875   3.711  0.4655 -0.5063  0.2908
  817MOL0     C10174   3.956   5.996   3.715  0.9010 -0.3565  1.0897
  817MOL0     C10175   3.964   6.072   3.845 -0.1092  1.0318 -0.0941
  817MOL0     C10176   3.870   6.178   3.877  0.8005  0.4111  0.6506
  817MOL0     N10177   3.731   6.126   3.882 -0.3894 -0.2165 -0.2780
  817MOL0     C10178   3.680   6.027   3.968 -0.5287 -0.1530  0.0358
  817MOL0     C10179   3.548   6.015   3.930  0.2010 -0.3703 -0.1961
  817MOL0     C10180   3.447   5.917   3.976 -0.2141 -0.3051  0.0842
  817MOL0     C10181   3.485   5.774   3.968  0.1262 -1.0656 -0.2043
  817MOL0     C10182   3.576   5.741   3.844 -0.3119 -0.0161  0.2471
  817MOL0     C10183   3.628   5.598   3.844 -0.1023  0.1083 -0.0529
  817MOL0     O10184   3.696   5.577   3.714 -0.1748  0.3899 -0.1589
  817MOL0     C10185   3.795   5.478   3.720  0.7520 -0.4516  0.5691
  817MOL0     C10186   3.766   5.351   3.777 -0.8592 -0.1396  0.1883
  817MOL0     C10187   3.868   5.257   3.779  0.1500 -1.2115  0.4940
  817MOL0     C10188   3.843   5.124   3.837  0.4550 -0.4241 -0.0986
  817MOL0     C10189   4.004   5.286   3.728  0.4404  0.7175 -0.0162
  817MOL0     C10190   4.113   5.184   3.716 -0.5656 -0.0108  0.2288
  817MOL0     O10191   4.247   5.223   3.715 -0.0967 -0.3002  0.4360
  817MOL0     C10192   4.351   5.133   3.693  1.0574  0.2186 -0.1889
  817MOL0     C10193   4.476   5.190   3.680  0.0996  0.0724 -0.6459
  817MOL0     C10194   4.589   5.110   3.665  0.4787  0.2820 -0.1141
  817MOL0     C10195   4.586   4.968   3.661  0.1867 -0.2018 -0.7508
  817MOL0     O10196   4.683   4.872   3.652 -0.2857 -0.3898  0.1731
  817MOL0     C10197   4.774   4.884   3.539  0.3613  0.6711  0.3906
  817MOL0     C10198   4.728   4.807   3.413 -0.3765  0.1851  0.9433
  817MOL0     C10199   4.611   4.879   3.350 -0.4640  0.0994  0.2065
  817MOL0     C10200   4.598   4.858   3.201  0.4447 -0.0918  0.7262
  817MOL0     C10201   4.485   4.946   3.136 -0.2476  0.2377 -0.0545
  817MOL0     C10202   4.351   4.917   3.189 -0.1213 -0.1074 -0.4275
  817MOL0     C10203   4.249   5.009   3.126  0.0199 -0.0270  1.1256
  817MOL0     C10204   4.115   4.988   3.194 -0.3697  0.0412 -0.0627
  817MOL0    Cl10205   3.998   5.096   3.124 -0.2474 -0.6603  0.2633
  817MOL0     C10206   4.462   4.916   3.675  0.6538  1.4762 -0.6778
  817MOL0     C10207   4.347   4.994   3.697 -0.2554  0.6464 -0.1684
  817MOL0     O10208   4.075   5.068   3.695 -0.5433  0.0045  0.2107
  817MOL0     C10209   4.027   5.418   3.684  0.2078  0.0767 -0.0357
  817MOL0     C10210   3.926   5.514   3.681 -0.3819 -0.1142  0.2977
  817MOL0     N10211   3.525   6.093   3.824 -0.1426  0.5523  0.6694
  817MOL0     N10212   3.631   6.166   3.801  0.4734  0.6378 -0.4719
  817MOL0     C10213   4.300   6.209   3.031  0.8747 -0.2496  0.7930
  817MOL0     C10214   4.375   6.289   2.950  0.3781  0.1526  0.0140
  817MOL0     C10215   4.673   6.583   2.773 -0.3986  0.2719 -0.3096
  817MOL0     C10216   4.689   6.622   2.640 -0.2600 -0.3964  0.2537
  817MOL0     C10217   4.796   6.712   2.604  0.8162  0.7873  0.2069
  817MOL0     C10218   4.878   6.785   2.696  1.0362  0.5886  0.1545
  817MOL0     O10219   4.969   6.866   2.635  0.8799  0.0492 -0.2456
  817MOL0     C10220   5.076   6.902   2.730 -0.5178  0.5982 -0.1766
  817MOL0     C10221   5.041   7.022   2.817 -0.0587  0.4636 -0.4024
  817MOL0     C10222   5.146   7.073   2.920 -0.3326 -0.2510 -0.5361
  817MOL0     C10223   5.192   6.952   3.001  0.6145  0.1077  0.9821
  817MOL0     C10224   5.275   6.973   3.111  0.0952 -0.0871  0.4276
  817MOL0     C10225   5.344   6.992   3.203  0.1289 -1.0446 -0.2818
  817MOL0     C10226   4.853   6.742   2.827 -0.5680 -0.2802  0.4590
  817MOL0     C10227   4.758   6.649   2.862  0.7423  0.0381 -0.1130
  817MOL0     H10228   4.667   6.292   3.123 -0.3544 -0.8690  1.3467
  817MOL0     H10229   4.522   6.130   3.268 -0.4125 -0.6734  0.5629
  817MOL0     H10230   4.352   5.895   3.188 -0.1591  0.1968 -0.4688
  817MOL0     H10231   4.419   5.969   3.335  0.4759  0.1045 -0.6544
  817MOL0     H10232   4.138   5.843   3.330 -0.7106 -0.2291  3.2058
  817MOL0     H10233   4.294   5.772   3.374 -1.3796  0.3031  3.1766
  817MOL0     H10234   4.317   5.924   3.566 -1.3745  2.2614  2.6584
  817MOL0     H10235   4.194   6.026   3.501  2.7348  1.1454 -1.0442
  817MOL0     H10236   4.017   5.829   3.516 -1.0271 -1.4207  1.1143
  817MOL0     H10237   4.135   5.731   3.581 -0.6671  0.2952 -0.1960
  817MOL0     H10238   4.000   5.785   3.742 -0.6466  0.5382  1.4991
  817MOL0     H10239   4.140   5.885   3.778  1.9000 -3.3844 -0.9520
  817MOL0     H10240   4.005   6.061   3.642  1.7345  0.4344  2.3087
  817MOL0     H10241   3.854   5.960   3.700  1.0530 -0.1450 -0.5778
  817MOL0     H10242   3.942   6.000   3.925 -1.1735  1.2441 -0.1812
  817MOL0     H10243   4.066   6.107   3.859 -0.6621  3.4914 -1.7469
  817MOL0     H10244   3.871   6.265   3.811 -1.2209 -1.0123 -1.4197
  817MOL0     H10245   3.901   6.219   3.974 -0.6559 -0.0385  1.3381
  817MOL0     H10246   3.732   5.969   4.043  0.3667 -1.7521 -1.7499
  817MOL0     H10247   3.420   5.935   4.080  0.6633 -1.5578  0.5416
  817MOL0     H10248   3.357   5.931   3.914  1.0437 -1.3732 -2.1129
  817MOL0     H10249   3.393   5.715   3.960 -1.4552  1.4583 -2.3946
  817MOL0     H10250   3.525   5.756   4.068 -0.6081 -0.3216  0.2451
  817MOL0     H10251   3.662   5.809   3.838  0.5346 -0.7018  2.9104
  817MOL0     H10252   3.508   5.753   3.760  0.5727 -0.4088 -0.5410
  817MOL0     H10253   3.542   5.530   3.845 -0.8056  0.9341 -1.6405
  817MOL0     H10254   3.697   5.578   3.926 -1.6705 -2.1546  0.8195
  817MOL0     H10255   3.663   5.330   3.805 -1.2054 -0.1924 -1.0519
  817MOL0     H10256   3.855   5.040   3.768  0.6534  3.4247 -5.4074
  817MOL0     H10257   3.891   5.118   3.935 -0.0692 -0.2599  0.1702
  817MOL0     H10258   3.739   5.109   3.869  0.2930  1.1254  0.1749
  817MOL0     H10259   4.486   5.296   3.698 -3.1969  0.0304  2.5174
  817MOL0     H10260   4.689   5.152   3.661  0.2619  1.3153  2.9058
  817MOL0     H10261   4.819   4.983   3.526  1.8944  0.6130  3.9934
  817MOL0     H10262   4.863   4.823   3.559 -0.0970 -1.0512 -2.3481
  817MOL0     H10263   4.815   4.820   3.348 -1.2579 -2.0517 -0.8099
  817MOL0     H10264   4.725   4.698   3.423  1.3366  0.0517  0.2306
  817MOL0     H10265   4.642   4.981   3.371  0.8751 -0.1629 -0.3638
  817MOL0     H10266   4.521   4.852   3.406 -0.2248  0.5021  0.7851
  817MOL0     H10267   4.688   4.877   3.141 -2.0159  1.6707 -2.8257
  817MOL0     H10268   4.584   4.752   3.180  1.5110 -0.0926 -0.0414
  817MOL0     H10269   4.488   4.942   3.027  0.0061  3.2775 -0.2284
  817MOL0     H10270   4.507   5.052   3.154  1.7347 -0.3859  1.6116
  817MOL0     H10271   4.323   4.812   3.174 -2.7754 -0.0132  2.7459
  817MOL0     H10272   4.353   4.930   3.297 -0.0863 -4.4036  0.2647
  817MOL0     H10273   4.241   4.993   3.019 -2.5665  1.5893  0.9845
  817MOL0     H10274   4.273   5.113   3.152  0.2987 -0.3663  2.3204
  817MOL0     H10275   4.133   5.012   3.299  1.5477  2.5222 -0.8376
  817MOL0     H10276   4.087   4.883   3.197  1.8229 -0.5689  1.9766
  817MOL0     H10277   4.463   4.808   3.673  2.8883  1.4463 -0.1326
  817MOL0     H10278   4.257   4.936   3.716 -0.6905  0.5778 -2.2022
  817MOL0     H10279   4.127   5.450   3.655 -1.0963  3.2849 -1.3573
  817MOL0     H10280   3.942   5.612   3.637 -0.5226 -0.2325 -0.0255
  817MOL0     H10281   4.196   6.184   3.010  0.8539  0.1430  0.3966
  817MOL0     H10282   4.329   6.328   2.860 -1.3936 -0.3173  0.6757
  817MOL0     H10283   4.614   6.589   2.569  1.1742 -0.6666 -1.1886
  817MOL0     H10284   4.798   6.735   2.498 -0.0759  1.4234  0.3163
  817MOL0     H10285   5.088   6.809   2.785 -0.0916  0.5602 -0.3304
  817MOL0     H10286   5.168   6.918   2.674 -2.4653 -0.1853 -3.9738
  817MOL0     H10287   4.954   6.996   2.878 -1.3842  1.9788 -1.5824
  817MOL0     H10288   5.014   7.103   2.750 -0.8981 -1.2823 -2.2817
  817MOL0     H10289   5.096   7.147   2.983 -0.4711  0.1339 -1.0960
  817MOL0     H10290   5.229   7.125   2.871  2.8927 -1.1493  3.4297
  817MOL0     H10291   5.245   6.892   2.926 -2.7488 -0.6672 -0.9687
  817MOL0     H10292   5.113   6.882   3.029  1.3857 -1.6996 -1.0875
  817MOL0     H10293   5.402   7.009   3.291 -2.2956  1.3093  1.0175
  817MOL0     H10294   4.920   6.769   2.908  0.3748 -1.1496 -0.0147
  817MOL0     H10295   4.752   6.617   2.966 -1.7318  2.5404  0.6549
  818MOL0     O10296   1.650  10.465   4.484 -0.1855 -0.1334 -0.1651
  818MOL0     C10297   1.564  10.555   4.463  0.1387 -0.7918  0.0173
  818MOL0     O10298   1.587  10.681   4.403 -0.0617 -0.1274 -0.1470
  818MOL0     C10299   1.714  10.732   4.381 -0.2978 -0.3145  0.4609
  818MOL0     C10300   1.727  10.826   4.283  0.3620  0.5700 -0.4495
  818MOL0     C10301   1.854  10.871   4.244 -0.6606 -0.7955  0.7772
  818MOL0     C10302   1.973  10.821   4.303  0.3596 -0.3669 -0.1399
  818MOL0     O10303   2.099  10.870   4.262  0.3255  0.2668  0.4392
  818MOL0     C10304   2.194  10.868   4.367 -0.5501 -0.0053 -0.3461
  818MOL0     C10305   2.296  10.981   4.356 -0.0883 -0.7204  1.0768
  818MOL0     C10306   2.228  11.124   4.338 -0.8969 -0.5568 -0.3321
  818MOL0     C10307   2.099  11.170   4.404 -0.0551 -0.4954 -0.9412
  818MOL0     C10308   2.097  11.124   4.549  0.4856  0.2825 -0.4656
  818MOL0     C10309   2.012  11.206   4.642  0.0986  0.5776 -0.2563
  818MOL0     C10310   1.862  11.223   4.589 -0.4244 -0.7495 -0.6392
  818MOL0     C10311   1.789  11.093   4.596  0.0528  0.7106 -0.0686
  818MOL0     N10312   1.640  11.102   4.581 -0.5676 -0.4973 -1.2638
  818MOL0     C10313   1.577  11.153   4.471 -0.0720  0.2411 -0.3596
  818MOL0     C10314   1.450  11.121   4.493  0.4789  0.8209 -0.5921
  818MOL0     C10315   1.342  11.144   4.395 -0.6248  0.5305  0.1583
  818MOL0     C10316   1.376  11.135   4.246 -0.1572 -0.0876  0.1134
  818MOL0     C10317   1.265  11.173   4.144 -0.2794  0.0552  0.3585
  818MOL0     C10318   1.306  11.128   3.999  0.3269 -0.2255  0.2531
  818MOL0     O10319   1.319  10.986   3.998 -0.2215  0.0004  0.2079
  818MOL0     C10320   1.414  10.936   3.908 -0.4866 -0.5447 -0.1920
  818MOL0     C10321   1.517  10.847   3.954 -0.7649 -0.8518 -0.5329
  818MOL0     C10322   1.609  10.792   3.868 -0.2074 -0.3244  0.0218
  818MOL0     C10323   1.724  10.706   3.927 -0.2952 -0.1208 -0.1246
  818MOL0     C10324   1.604  10.827   3.733  0.1725 -0.1730 -0.0992
  818MOL0     C10325   1.689  10.763   3.635 -0.1253  0.4321  0.7745
  818MOL0     O10326   1.797  10.686   3.666  0.7723 -0.1343 -0.3161
  818MOL0     C10327   1.865  10.612   3.568  0.0639 -0.7012  0.0597
  818MOL0     C10328   1.802  10.549   3.461 -0.2438  1.1529 -0.0589
  818MOL0     C10329   1.883  10.457   3.389 -0.4157 -0.0520  0.2891
  818MOL0     C10330   2.016  10.420   3.423 -0.6030  0.6601  0.6189
  818MOL0     O10331   2.089  10.319   3.354 -0.2887 -0.1196  0.5064
  818MOL0     C10332   2.044  10.280   3.222  0.3144 -0.6838 -0.8871
  818MOL0     C10333   2.134  10.181   3.158 -0.7595  0.4835  0.3984
  818MOL0     C10334   2.153  10.068   3.250 -0.4753 -0.0830  0.4846
  818MOL0     C10335   2.024  10.007   3.292  0.4052 -0.1913 -0.9775
  818MOL0     C10336   2.041   9.866   3.335 -0.2455  0.5996 -0.4087
  818MOL0     C10337   2.052   9.773   3.217 -0.5808 -0.0457 -1.1201
  818MOL0     C10338   2.088   9.638   3.269  0.9751 -0.3588  0.1211
  818MOL0     C10339   2.093   9.535   3.155 -0.1170 -0.8782  0.4646
  818MOL0    Cl10340   2.213   9.584   3.029 -0.5174 -0.0311  0.1427
  818MOL0     C10341   2.073  10.489   3.529  0.2905 -0.8513 -0.0074
  818MOL0     C10342   1.993  10.577   3.604 -0.3086 -0.2103 -0.7727
  818MOL0     O10343   1.667  10.792   3.523  0.4599  0.1755  0.3249
  818MOL0     C10344   1.509  10.921   3.686 -0.3444 -0.2213 -1.0462
  818MOL0     C10345   1.410  10.973   3.776  0.3853  1.7047  0.5951
  818MOL0     N10346   1.436  11.083   4.626 -0.2069  0.9372  0.2101
  818MOL0     N10347   1.551  11.072   4.682 -0.0608 -0.0480 -0.5002
  818MOL0     C10348   1.950  10.728   4.408 -0.0008 -0.9772  0.3823
  818MOL0     C10349   1.829  10.689   4.451 -0.3570  0.1476  0.9108
  818MOL0     C10350   1.424  10.531   4.509  0.5259 -0.7266 -1.3885
  818MOL0     C10351   1.328  10.640   4.520 -1.3607 -0.2863 -0.2272
  818MOL0     C10352   1.192  10.620   4.553  0.3331 -0.0736 -0.4684
  818MOL0     C10353   1.139  10.492   4.587 -1.1608  1.0008  0.0682
  818MOL0     O10354   1.007  10.476   4.619  0.2243  0.3435 -1.0160
  818MOL0     C10355   0.968  10.346   4.659 -0.0344 -0.2622  0.1169
  818MOL0     C10356   0.820  10.329   4.688 -0.8511 -0.6756 -0.3775
  818MOL0     C10357   0.730  10.365   4.564 -0.2056 -0.2420 -0.3262
  818MOL0     C10358   0.586  10.319   4.574  0.6993  0.3725  0.6593
  818MOL0     C10359   0.518  10.390   4.686  0.3071 -0.4958  0.7625
  818MOL0     C10360   0.450  10.440   4.775  0.4558 -0.9686  0.4354
  818MOL0     C10361   1.239  10.383   4.578  0.1380  0.8798  0.5800
  818MOL0     C10362   1.377  10.403   4.539 -0.0208 -0.5295 -0.4673
  818MOL0     H10363   1.634  10.865   4.243 -0.7114 -3.1291 -1.9822
  818MOL0     H10364   1.867  10.948   4.168 -2.8319 -0.0867  1.0391
  818MOL0     H10365   2.152  10.864   4.468 -1.4271 -0.1396 -0.7078
  818MOL0     H10366   2.252  10.777   4.350  1.2402  0.7311  1.4643
  818MOL0     H10367   2.352  10.975   4.449 -3.7381 -0.1592  3.5346
  818MOL0     H10368   2.351  10.962   4.263 -0.2445  1.6982  0.4073
  818MOL0     H10369   2.300  11.205   4.354 -0.1102 -1.4652  0.8754
  818MOL0     H10370   2.207  11.135   4.231  2.8882  2.6518 -0.9457
  818MOL0     H10371   2.092  11.279   4.402  1.2146 -0.0948  4.3605
  818MOL0     H10372   2.013  11.137   4.344  0.3987  0.4444 -2.1572
  818MOL0     H10373   2.052  11.024   4.550  1.0936 -0.0292 -1.8964
  818MOL0     H10374   2.197  11.110   4.592 -0.1830 -1.1561  0.7366
  818MOL0     H10375   2.004  11.148   4.734  0.7881  0.0234 -0.5414
  818MOL0     H10376   2.069  11.299   4.654  2.7128 -1.1172  1.5824
  818MOL0     H10377   1.807  11.293   4.652 -1.1811 -5.1625  4.2555
  818MOL0     H10378   1.864  11.263   4.487  3.6127  1.8982  0.2652
  818MOL0     H10379   1.807  11.047   4.694  0.7435  0.9506 -0.0775
  818MOL0     H10380   1.827  11.036   4.510 -0.8700 -0.2335  0.1280
  818MOL0     H10381   1.618  11.199   4.381 -2.1251  2.3768 -0.3070
  818MOL0     H10382   1.261  11.080   4.429 -3.5557  1.7471 -3.8270
  818MOL0     H10383   1.302  11.246   4.397  2.3926  1.8645 -0.8051
  818MOL0     H10384   1.420  11.036   4.229 -0.4406 -0.5318  1.8463
  818MOL0     H10385   1.456  11.209   4.238  2.5937 -2.2115  4.3570
  818MOL0     H10386   1.267  11.282   4.143 -0.7027  0.0707  1.0008
  818MOL0     H10387   1.168  11.134   4.177 -1.1987  0.9378 -1.1737
  818MOL0     H10388   1.397  11.180   3.970 -0.2516  0.7720  0.1638
  818MOL0     H10389   1.227  11.164   3.932  1.7936  0.0928 -1.3658
  818MOL0     H10390   1.527  10.823   4.059  3.4889 -3.2123 -1.2502
  818MOL0     H10391   1.733  10.603   3.893  1.3985  0.3225 -1.1385
  818MOL0     H10392   1.817  10.752   3.891  0.0460  0.4326  1.3632
  818MOL0     H10393   1.735  10.709   4.036  0.2826  0.4429 -0.1890
  818MOL0     H10394   1.698  10.566   3.433 -1.0065 -3.1672 -0.6790
  818MOL0     H10395   1.833  10.420   3.300 -1.9203  1.5611  0.4174
  818MOL0     H10396   1.941  10.242   3.227  1.1144 -2.8671  0.0356
  818MOL0     H10397   2.035  10.373   3.163 -0.0420  1.0014  1.6637
  818MOL0     H10398   2.086  10.132   3.072 -0.6167 -1.0842  1.1782
  818MOL0     H10399   2.229  10.229   3.132 -0.2120 -0.7145  0.1060
  818MOL0     H10400   2.217  10.101   3.332  3.2464 -1.2039 -1.7340
  818MOL0     H10401   2.224   9.992   3.217 -0.1655 -1.8615  4.5800
  818MOL0     H10402   1.977  10.063   3.373  0.0949 -0.4598 -0.9682
  818MOL0     H10403   1.959  10.007   3.204  0.8198 -3.7589 -1.4691
  818MOL0     H10404   1.957   9.835   3.396 -1.8440  1.6930 -1.9537
  818MOL0     H10405   2.131   9.859   3.398  0.4078  2.3944 -1.0697
  818MOL0     H10406   1.954   9.776   3.169 -1.0638  2.3760 -0.1341
  818MOL0     H10407   2.127   9.810   3.146  2.3695  2.0616  2.7017
  818MOL0     H10408   2.010   9.617   3.343 -0.6392 -1.3680 -1.7535
  818MOL0     H10409   2.180   9.622   3.327 -0.0866 -5.1426  0.8757
  818MOL0     H10410   1.999   9.508   3.106  0.5533 -1.6451 -0.4315
  818MOL0     H10411   2.122   9.440   3.200 -2.7663 -1.6169  0.8071
  818MOL0     H10412   2.177  10.463   3.546  0.0746 -0.1784  2.8341
  818MOL0     H10413   2.043  10.632   3.683 -1.7170  0.5979 -0.3953
  818MOL0     H10414   1.490  10.946   3.582 -2.4762  0.6748 -0.4828
  818MOL0     H10415   1.336  11.035   3.726  0.0924  0.6962 -0.2404
  818MOL0     H10416   2.031  10.685   4.466 -0.4430 -1.5930  0.5492
  818MOL0     H10417   1.824  10.611   4.526 -3.1479 -0.8863 -0.2023
  818MOL0     H10418   1.366  10.738   4.491 -1.1638 -1.2566 -3.6442
  818MOL0     H10419   1.134  10.712   4.549  0.4744 -0.0187 -1.3287
  818MOL0     H10420   0.990  10.272   4.582 -1.6033  3.5889 -4.5443
  818MOL0     H10421   1.024  10.322   4.750 -0.1676  1.9713  0.8555
  818MOL0     H10422   0.786  10.385   4.776 -2.5282  0.3078 -1.6074
  818MOL0     H10423   0.815  10.222   4.713  2.2619 -1.2467 -1.7438
  818MOL0     H10424   0.766  10.325   4.469 -1.7287  2.6736 -2.2883
  818MOL0     H10425   0.727  10.473   4.546  0.1346  0.0019  0.9943
  818MOL0     H10426   0.593  10.214   4.602 -0.9895 -0.5755 -2.0457
  818MOL0     H10427   0.531  10.317   4.480 -0.2229 -0.3524  1.1886
  818MOL0     H10428   0.405  10.483   4.863 -2.4297  0.7193 -1.6744
  818MOL0     H10429   1.211  10.281   4.601  0.5808 -0.4576 -3.8664
  818MOL0     H10430   1.439  10.315   4.537  0.5857 -0.2354  1.8920
  819MOL0     O10431   2.609   3.136  10.101  0.2202  0.3316 -0.0008
  819MOL0     C10432   2.681   3.226  10.131  0.7042 -0.1212 -0.6407
  819MOL0     O10433   2.653   3.366  10.124 -0.4513  0.7578  0.3277
  819MOL0     C10434   2.542   3.423  10.063 -0.1065 -0.1877  0.3813
  819MOL0     C10435   2.518   3.553  10.103  0.6406  0.6838  0.4740
  819MOL0     C10436   2.420   3.630  10.044 -0.3696 -0.8506  0.3049
  819MOL0     C10437   2.342   3.584   9.943  0.5213  0.5693 -0.4746
  819MOL0     O10438   2.243   3.669   9.904 -0.2927 -0.0570  0.3134
  819MOL0     C10439   2.159   3.728  10.006 -1.5141  0.8490  0.8456
  819MOL0     C10440   2.037   3.789   9.945  0.8602 -0.4802  0.6768
  819MOL0     C10441   2.057   3.920   9.874 -0.3345 -0.2139 -0.3580
  819MOL0     C10442   2.075   4.041   9.968 -0.2983  0.0741 -0.1604
  819MOL0     C10443   2.096   4.185   9.905 -0.6189  0.4203  0.8338
  819MOL0     C10444   2.240   4.241   9.931 -0.4163  0.3017  0.8248
  819MOL0     C10445   2.344   4.146   9.868  0.2795 -0.3190 -0.7578
  819MOL0     C10446   2.336   4.121   9.712 -0.4945 -0.5995  0.2309
  819MOL0     N10447   2.464   4.049   9.679 -0.6663 -0.7489  0.4370
  819MOL0     C10448   2.491   3.921   9.717  0.4955 -0.1063 -0.0605
  819MOL0     C10449   2.611   3.887   9.662  0.0652 -0.9541 -0.4229
  819MOL0     C10450   2.678   3.757   9.674  0.3498 -0.6500  0.1966
  819MOL0     C10451   2.693   3.703   9.820  0.3019 -0.0148  0.5652
  819MOL0     C10452   2.806   3.595   9.816 -0.1985 -0.2892  0.7244
  819MOL0     C10453   2.782   3.477   9.718 -0.6957  0.6619  0.2247
  819MOL0     O10454   2.821   3.490   9.589 -0.0064 -0.8899  0.0047
  819MOL0     C10455   2.943   3.539   9.563 -0.0899 -0.3396 -0.0159
  819MOL0     C10456   2.968   3.630   9.452  0.0504 -0.5808 -0.1336
  819MOL0     C10457   3.084   3.697   9.429 -0.4565  0.3825 -0.8722
  819MOL0     C10458   3.082   3.791   9.308  0.1257 -0.6378 -0.6217
  819MOL0     C10459   3.191   3.666   9.517 -0.5649 -0.7562 -0.8175
  819MOL0     C10460   3.322   3.737   9.515  0.3869 -0.4548 -0.0374
  819MOL0     O10461   3.426   3.674   9.579  0.8102  0.1987 -0.1012
  819MOL0     C10462   3.531   3.761   9.604 -0.0382  0.1985 -0.5604
  819MOL0     C10463   3.562   3.789   9.738  0.5462 -0.8667  0.0913
  819MOL0     C10464   3.667   3.878   9.771 -0.6751 -0.5020 -0.2410
  819MOL0     C10465   3.756   3.926   9.672  0.0608  0.3783 -0.0798
  819MOL0     O10466   3.866   3.998   9.701 -0.4215 -0.8105  0.1324
  819MOL0     C10467   3.822   4.132   9.739  0.6900 -0.0330  0.8942
  819MOL0     C10468   3.950   4.229   9.740 -0.5991 -0.2178  0.1561
  819MOL0     C10469   4.055   4.185   9.842  0.4855  0.8472 -0.1724
  819MOL0     C10470   4.166   4.282   9.846 -0.1451 -0.0281  0.0810
  819MOL0     C10471   4.252   4.261   9.966  0.1375  1.2935  0.5837
  819MOL0     C10472   4.388   4.338   9.961  0.0084  0.8953  0.3776
  819MOL0     C10473   4.470   4.300  10.078 -0.4955 -0.2301 -0.2648
  819MOL0     C10474   4.618   4.335  10.082  0.3448  0.5933  0.0539
  819MOL0    Cl10475   4.724   4.198  10.030  0.3821 -0.1590 -0.1433
  819MOL0     C10476   3.718   3.897   9.545 -1.0651 -0.2330  0.6318
  819MOL0     C10477   3.611   3.817   9.511  0.3775 -0.0097  0.0135
  819MOL0     O10478   3.318   3.853   9.478 -0.5819 -0.3180 -0.0922
  819MOL0     C10479   3.187   3.556   9.602 -0.2123 -0.6344 -0.0076
  819MOL0     C10480   3.060   3.508   9.637 -0.3567  0.7440  0.6202
  819MOL0     N10481   2.658   4.005   9.596 -0.5892  0.0412  0.5419
  819MOL0     N10482   2.574   4.095   9.604  0.4463 -0.4110  0.6419
  819MOL0     C10483   2.360   3.449   9.906 -0.3515  0.2888 -0.6214
  819MOL0     C10484   2.453   3.367   9.961  0.2585  0.7997 -0.6299
  819MOL0     C10485   2.804   3.197  10.199 -0.0896  0.1242 -0.4748
  819MOL0     C10486   2.843   3.069  10.241 -0.2838 -1.2652 -0.7030
  819MOL0     C10487   2.966   3.051  10.306  0.0451  0.2156  0.3926
  819MOL0     C10488   3.050   3.160  10.331 -0.8099  0.5001 -0.3080
  819MOL0     O10489   3.160   3.151  10.407 -0.1885  0.4714  1.3154
  819MOL0     C10490   3.147   3.124  10.546  0.9072 -0.9469 -0.4663
  819MOL0     C10491   3.072   3.240  10.633  0.2754 -0.8904 -0.6584
  819MOL0     C10492   3.139   3.377  10.640 -0.4985 -0.4358 -0.5269
  819MOL0     C10493   3.042   3.491  10.694 -0.1234  0.3716  0.7664
  819MOL0     C10494   2.979   3.550  10.577 -0.5954 -0.1748  0.4116
  819MOL0     C10495   2.945   3.602  10.473  0.0086 -0.1440  0.3594
  819MOL0     C10496   3.015   3.276  10.286  0.0373  0.2664 -0.0352
  819MOL0     C10497   2.888   3.302  10.232 -0.1962  0.4471  0.0978
  819MOL0     H10498   2.579   3.605  10.175 -1.0034  1.3315  1.4444
  819MOL0     H10499   2.415   3.737  10.062 -2.9838  0.1183 -4.3313
  819MOL0     H10500   2.123   3.655  10.079 -0.2868  1.0486  1.6846
  819MOL0     H10501   2.212   3.806  10.061  1.2799  0.1037 -0.6103
  819MOL0     H10502   1.999   3.716   9.873  0.1066 -0.1319  0.7065
  819MOL0     H10503   1.956   3.790  10.018  0.6649 -2.5912  0.5620
  819MOL0     H10504   2.138   3.917   9.801  0.2873 -1.1439  0.3554
  819MOL0     H10505   1.961   3.940   9.825  0.3915  0.8507 -1.3925
  819MOL0     H10506   1.984   4.045  10.027  1.6077 -1.0972  3.1628
  819MOL0     H10507   2.144   3.999  10.042 -1.5341  0.6546  1.3710
  819MOL0     H10508   2.068   4.173   9.799 -1.5224  0.2693  1.0779
  819MOL0     H10509   2.024   4.252   9.952 -0.4851  0.3193  1.1844
  819MOL0     H10510   2.253   4.337   9.880  3.0450 -0.8916 -0.8912
  819MOL0     H10511   2.259   4.255  10.037  1.1975  3.3539  0.2453
  819MOL0     H10512   2.443   4.183   9.899  0.0969 -2.1329  2.3712
  819MOL0     H10513   2.331   4.045   9.907 -0.7534  0.9917  2.6137
  819MOL0     H10514   2.326   4.217   9.661  1.1061 -0.7097 -0.3406
  819MOL0     H10515   2.252   4.056   9.684 -0.1397 -0.5315 -1.1018
  819MOL0     H10516   2.435   3.861   9.788 -1.8792 -0.0885 -1.8045
  819MOL0     H10517   2.631   3.686   9.606 -0.5235 -1.8601  1.9876
  819MOL0     H10518   2.778   3.778   9.637 -1.0736  3.5766 -1.9368
  819MOL0     H10519   2.598   3.662   9.854  0.0573  0.8142  0.9049
  819MOL0     H10520   2.724   3.786   9.884  0.8553 -0.4604  0.8910
  819MOL0     H10521   2.819   3.559   9.918 -1.4299 -1.6712  0.4232
  819MOL0     H10522   2.904   3.638   9.795 -0.0056  0.4431  2.9093
  819MOL0     H10523   2.679   3.441   9.726  0.0434 -1.8523 -0.5554
  819MOL0     H10524   2.840   3.390   9.753  0.7402  1.9139  1.0928
  819MOL0     H10525   2.882   3.631   9.387  0.7102 -2.3187 -1.0896
  819MOL0     H10526   3.048   3.883   9.357  0.7750  0.7517 -2.6840
  819MOL0     H10527   3.177   3.823   9.264  0.4162 -0.8756 -0.1753
  819MOL0     H10528   3.007   3.765   9.233  0.6928  0.5723 -1.6518
  819MOL0     H10529   3.502   3.755   9.822  1.0095  3.5467  2.5476
  819MOL0     H10530   3.673   3.906   9.875 -0.1327 -2.4574  0.2946
  819MOL0     H10531   3.757   4.172   9.661 -2.5990 -1.8794  2.4990
  819MOL0     H10532   3.781   4.143   9.839 -0.3518  1.9764  0.2884
  819MOL0     H10533   3.982   4.236   9.636 -4.1504  1.7834 -0.9664
  819MOL0     H10534   3.918   4.331   9.760  0.7707  0.2286  0.1491
  819MOL0     H10535   4.095   4.087   9.815 -0.1297  1.4618 -3.8756
  819MOL0     H10536   4.011   4.191   9.942  3.4113  2.8211  1.1186
  819MOL0     H10537   4.219   4.258   9.753 -0.0396  0.9980 -0.1281
  819MOL0     H10538   4.127   4.383   9.839 -2.5228 -0.9577 -1.0939
  819MOL0     H10539   4.284   4.156   9.971 -3.3243  0.1539  3.8910
  819MOL0     H10540   4.198   4.274  10.060  3.1334  0.9316  2.5074
  819MOL0     H10541   4.433   4.314   9.864 -2.5513  0.9083 -0.9198
  819MOL0     H10542   4.361   4.444   9.965 -0.8980  0.7226 -0.5937
  819MOL0     H10543   4.461   4.192  10.090 -1.4864 -0.0166  1.2713
  819MOL0     H10544   4.433   4.344  10.171  0.3074 -0.2201  0.0606
  819MOL0     H10545   4.630   4.357  10.189  0.3469  3.0246 -0.3888
  819MOL0     H10546   4.633   4.433  10.037  0.6683 -0.1898 -1.6021
  819MOL0     H10547   3.776   3.935   9.461  0.5841 -1.4146  1.1912
  819MOL0     H10548   3.588   3.786   9.410 -0.0866  0.6915 -0.1096
  819MOL0     H10549   3.276   3.523   9.654  0.3062  0.8682  0.0956
  819MOL0     H10550   3.047   3.429   9.710  1.6419 -1.4864 -1.2982
  819MOL0     H10551   2.280   3.428   9.835 -1.0095 -2.4144  0.7780
  819MOL0     H10552   2.455   3.262   9.932 -3.8433 -0.0603  1.5567
  819MOL0     H10553   2.775   2.990  10.212 -1.1591 -1.1864  0.9939
  819MOL0     H10554   2.992   2.946  10.316  0.7373  0.0770 -2.2421
  819MOL0     H10555   3.098   3.028  10.564 -3.8031  1.0798 -0.9728
  819MOL0     H10556   3.246   3.120  10.593  1.4216  0.6135 -1.3303
  819MOL0     H10557   3.055   3.213  10.737  0.3947  3.0585  0.5772
  819MOL0     H10558   2.972   3.257  10.591 -1.5037  0.9843  3.6707
  819MOL0     H10559   3.183   3.403  10.543  2.5716 -0.2366  0.7856
  819MOL0     H10560   3.221   3.372  10.713 -1.3490  0.0236  0.4849
  819MOL0     H10561   3.100   3.572  10.739 -1.7275  0.5482  2.6571
  819MOL0     H10562   2.962   3.443  10.753  0.0407 -1.1102 -0.1718
  819MOL0     H10563   2.914   3.670  10.396  3.2600  1.3597  0.2236
  819MOL0     H10564   3.078   3.360  10.314 -0.4615  0.3459  0.8950
  819MOL0     H10565   2.872   3.402  10.193  3.9704  0.8840 -1.0225
  820MOL0     O10566   2.210   6.939   4.718 -0.2910  0.4203 -1.5078
  820MOL0     C10567   2.284   6.984   4.627 -0.3187  0.2284 -0.5028
  820MOL0     O10568   2.294   7.113   4.594  0.0584  0.7228 -0.3402
  820MOL0     C10569   2.195   7.189   4.639  0.1199  0.1717  0.2786
  820MOL0     C10570   2.222   7.256   4.756 -0.6729 -0.0477  0.1155
  820MOL0     C10571   2.141   7.361   4.794 -0.0129 -0.6271 -0.6424
  820MOL0     C10572   2.019   7.387   4.723 -0.3989 -0.4779 -0.8009
  820MOL0     O10573   1.929   7.481   4.759  0.3186  0.1920 -0.2538
  820MOL0     C10574   1.904   7.502   4.896  0.3814  0.5297  0.0585
  820MOL0     C10575   1.790   7.597   4.919  0.6612 -0.2549 -0.4989
  820MOL0     C10576   1.664   7.564   4.832 -0.1157 -0.1014  0.0689
  820MOL0     C10577   1.531   7.606   4.908 -1.4298 -0.5068  0.1827
  820MOL0     C10578   1.420   7.603   4.814  0.7269 -0.1223 -0.0704
  820MOL0     C10579   1.281   7.552   4.868  0.0983  0.4681  0.1232
  820MOL0     C10580   1.235   7.615   4.992 -0.4599  0.2910  0.1669
  820MOL0     C10581   1.104   7.688   4.980 -0.9059 -0.0903 -0.1735
  820MOL0     N10582   1.058   7.765   5.093  1.1410 -0.5921 -0.1132
  820MOL0     C10583   1.030   7.721   5.224  0.6675  0.3173  0.9642
  820MOL0     C10584   0.968   7.824   5.277 -0.1871 -0.7559  0.4046
  820MOL0     C10585   0.918   7.844   5.419  0.2024  0.1626 -1.1411
  820MOL0     C10586   1.036   7.900   5.502  0.1687  0.1769 -0.1282
  820MOL0     C10587   0.998   7.909   5.653  0.3545 -0.4823 -0.6578
  820MOL0     C10588   1.098   7.983   5.740 -0.8780 -0.7326  0.0734
  820MOL0     O10589   1.225   7.911   5.741  0.0935  1.0990 -0.3063
  820MOL0     C10590   1.342   7.988   5.731  0.5269  0.0866 -0.3811
  820MOL0     C10591   1.463   7.927   5.693  0.1350  0.2543 -0.1402
  820MOL0     C10592   1.587   7.987   5.697  0.4237  0.1187  0.4450
  820MOL0     C10593   1.708   7.910   5.646 -0.7658 -0.6378  0.1947
  820MOL0     C10594   1.595   8.122   5.743  0.2365 -0.1264 -0.2836
  820MOL0     C10595   1.725   8.207   5.737  1.1866  0.1996  0.5906
  820MOL0     O10596   1.751   8.307   5.829  0.1896 -0.4139 -0.7384
  820MOL0     C10597   1.875   8.356   5.820  1.2334 -1.0754 -0.5693
  820MOL0     C10598   1.919   8.458   5.731 -0.3661 -0.0165 -0.3180
  820MOL0     C10599   2.060   8.495   5.731  0.1711 -0.2876 -0.1869
  820MOL0     C10600   2.158   8.445   5.823  0.8427 -0.2290  0.4862
  820MOL0     O10601   2.279   8.495   5.826  0.0565  0.1990 -0.8796
  820MOL0     C10602   2.377   8.412   5.777 -0.1079 -0.4378 -0.1328
  820MOL0     C10603   2.506   8.483   5.809  0.1552 -0.4268 -0.4936
  820MOL0     C10604   2.633   8.420   5.730  0.8073  0.8456 -1.0959
  820MOL0     C10605   2.763   8.483   5.794  0.3603 -0.4871  0.2082
  820MOL0     C10606   2.873   8.481   5.699 -0.0684  0.1140 -0.3112
  820MOL0     C10607   2.991   8.565   5.734 -1.1501  0.1605  0.9333
  820MOL0     C10608   2.971   8.704   5.797 -0.0583 -0.5003  1.0569
  820MOL0     C10609   2.889   8.790   5.704 -0.0850 -0.2923 -0.4355
  820MOL0    Cl10610   2.972   8.850   5.571  0.1704 -0.2570  0.2850
  820MOL0     C10611   2.111   8.353   5.919  0.5143 -0.3774  0.3028
  820MOL0     C10612   1.974   8.314   5.910  0.3381  0.2306  0.6917
  820MOL0     O10613   1.800   8.175   5.646  0.1212 -0.2178  0.1311
  820MOL0     C10614   1.483   8.183   5.788  0.8783  0.2529  0.2004
  820MOL0     C10615   1.356   8.122   5.773  0.9227  0.5817 -0.9530
  820MOL0     N10616   0.953   7.931   5.181  0.3534 -0.4176  0.0671
  820MOL0     N10617   1.006   7.894   5.076 -0.5451  0.0388  0.0083
  820MOL0     C10618   1.988   7.316   4.613  0.6224 -1.3401 -0.5491
  820MOL0     C10619   2.076   7.217   4.567  0.8980 -0.8078 -0.2318
  820MOL0     C10620   2.369   6.882   4.562  0.0866  0.0152  0.5301
  820MOL0     C10621   2.449   6.924   4.458  0.0167 -0.4203 -0.1795
  820MOL0     C10622   2.531   6.832   4.400  0.0946  0.1566  0.0321
  820MOL0     C10623   2.520   6.694   4.435  0.9763  0.8022 -0.2225
  820MOL0     O10624   2.593   6.594   4.379  0.4214 -0.1276  0.0965
  820MOL0     C10625   2.713   6.617   4.312  0.1913  1.5622  0.0752
  820MOL0     C10626   2.791   6.486   4.311 -0.2152  0.7133 -0.0217
  820MOL0     C10627   2.736   6.378   4.222 -0.3323  0.1357  0.8500
  820MOL0     C10628   2.856   6.284   4.198 -0.2008  0.2590 -0.2847
  820MOL0     C10629   2.817   6.149   4.156 -1.0003  1.6022  0.1249
  820MOL0     C10630   2.779   6.032   4.129 -1.0279 -0.3024 -0.5990
  820MOL0     C10631   2.427   6.645   4.525 -0.0241 -0.4425  0.8286
  820MOL0     C10632   2.366   6.740   4.600 -0.3292 -0.1947  0.8653
  820MOL0     H10633   2.320   7.241   4.802 -1.7723 -2.7439  1.8299
  820MOL0     H10634   2.163   7.425   4.879  1.4831  1.9624 -2.8177
  820MOL0     H10635   1.868   7.407   4.938  0.9229 -0.4989 -1.6864
  820MOL0     H10636   1.995   7.527   4.952 -0.7126  0.6156  1.9020
  820MOL0     H10637   1.754   7.580   5.021 -1.7869 -1.6118 -1.5135
  820MOL0     H10638   1.827   7.699   4.903  1.3177 -0.8815 -3.5797
  820MOL0     H10639   1.667   7.602   4.729 -3.2464  1.2911  0.3732
  820MOL0     H10640   1.658   7.457   4.812 -1.1697  0.0178 -0.3478
  820MOL0     H10641   1.515   7.540   4.994  0.3081  1.7170  2.3666
  820MOL0     H10642   1.541   7.709   4.945 -0.4740 -0.6414  0.3262
  820MOL0     H10643   1.406   7.700   4.765 -1.0625 -0.3062 -0.0168
  820MOL0     H10644   1.441   7.531   4.734  1.4529  0.1178 -0.1008
  820MOL0     H10645   1.206   7.579   4.793  0.9465  0.6974 -0.6568
  820MOL0     H10646   1.287   7.443   4.875 -3.9308 -0.2399 -3.2443
  820MOL0     H10647   1.223   7.527   5.056  2.5175  0.5850  1.2848
  820MOL0     H10648   1.317   7.673   5.035 -0.6633  1.2793 -0.7337
  820MOL0     H10649   1.027   7.610   4.977 -0.6610 -0.3777  0.8901
  820MOL0     H10650   1.101   7.756   4.894 -1.7687  1.2110  0.8510
  820MOL0     H10651   1.056   7.630   5.276  0.0002 -0.5234 -0.1502
  820MOL0     H10652   0.823   7.899   5.418  0.6127  1.0033  0.9571
  820MOL0     H10653   0.902   7.743   5.458 -0.6252  0.6798 -0.0521
  820MOL0     H10654   1.061   8.001   5.468 -3.2114  1.2350  0.2125
  820MOL0     H10655   1.111   7.822   5.485  0.3528  0.6362 -1.5465
  820MOL0     H10656   0.997   7.809   5.698  0.9651 -0.8968 -1.5480
  820MOL0     H10657   0.899   7.955   5.657  0.3666 -0.5121  0.3964
  820MOL0     H10658   1.060   7.981   5.843  1.0762  3.8613  1.1866
  820MOL0     H10659   1.114   8.085   5.703 -1.2122 -0.7551 -0.1342
  820MOL0     H10660   1.463   7.829   5.647 -0.7217 -1.0744  2.4776
  820MOL0     H10661   1.686   7.803   5.654  0.5941 -1.3078 -3.1603
  820MOL0     H10662   1.741   7.940   5.546  0.1804  0.0861  0.7114
  820MOL0     H10663   1.800   7.910   5.705 -0.3357 -4.2859 -0.2000
  820MOL0     H10664   1.861   8.510   5.656  3.8397  2.2858 -2.3086
  820MOL0     H10665   2.090   8.565   5.654  0.6560 -0.3355 -0.0473
  820MOL0     H10666   2.382   8.315   5.827  1.2123  0.5211  1.7120
  820MOL0     H10667   2.357   8.392   5.672 -2.4280  1.5283 -0.1615
  820MOL0     H10668   2.497   8.590   5.790 -2.4303 -0.1452  1.7526
  820MOL0     H10669   2.514   8.467   5.917 -1.1764  3.0613  0.2407
  820MOL0     H10670   2.630   8.454   5.626  0.7330  4.0477 -0.1488
  820MOL0     H10671   2.633   8.311   5.733  0.0312  0.8563 -0.3220
  820MOL0     H10672   2.743   8.585   5.826  1.6576 -0.9498  2.7364
  820MOL0     H10673   2.785   8.433   5.888 -0.9759 -3.1569 -0.7747
  820MOL0     H10674   2.841   8.499   5.596 -2.9782 -2.4485 -0.0075
  820MOL0     H10675   2.909   8.378   5.690 -2.8428 -0.8407 -1.6420
  820MOL0     H10676   3.049   8.512   5.810 -0.9462  2.1943  2.2738
  820MOL0     H10677   3.047   8.560   5.641 -1.3943  0.6281  0.7594
  820MOL0     H10678   3.059   8.763   5.826 -1.8123  3.2716 -0.6001
  820MOL0     H10679   2.920   8.708   5.893 -3.8937  2.8437 -0.8093
  820MOL0     H10680   2.849   8.874   5.761 -0.9621 -1.5355  0.8797
  820MOL0     H10681   2.800   8.733   5.676  0.7950 -1.4428 -1.0111
  820MOL0     H10682   2.188   8.312   5.983  1.3195  1.9029  0.8793
  820MOL0     H10683   1.943   8.240   5.983  1.2745 -0.4483  0.4247
  820MOL0     H10684   1.495   8.285   5.824  4.6301  0.9741 -2.4519
  820MOL0     H10685   1.263   8.162   5.814 -1.8213 -5.3344 -0.2876
  820MOL0     H10686   1.892   7.333   4.565  1.9796  1.3440 -2.5683
  820MOL0     H10687   2.047   7.170   4.473 -0.0922 -3.6667  1.3930
  820MOL0     H10688   2.457   7.029   4.432  0.0227 -0.7644 -1.6178
  820MOL0     H10689   2.602   6.859   4.323  0.9772 -1.5669  0.1882
  820MOL0     H10690   2.696   6.646   4.208  5.1453 -1.8253 -2.0960
  820MOL0     H10691   2.774   6.696   4.358  0.7296  3.0074 -2.8737
  820MOL0     H10692   2.809   6.429   4.403 -2.0413 -0.3648 -0.2643
  820MOL0     H10693   2.891   6.511   4.275  0.0745  0.6605  0.7190
  820MOL0     H10694   2.706   6.418   4.124 -0.7979  2.6893  1.9452
  820MOL0     H10695   2.649   6.325   4.261 -2.3750  0.6150 -2.6438
  820MOL0     H10696   2.915   6.273   4.289 -1.8513  1.9203  1.0850
  820MOL0     H10697   2.923   6.325   4.122 -0.7379  3.9941  1.0233
  820MOL0     H10698   2.730   5.942   4.097 -2.5962 -0.5777  2.2038
  820MOL0     H10699   2.418   6.540   4.551  0.6079 -0.6615  0.1909
  820MOL0     H10700   2.294   6.706   4.673  0.2062  0.5979  1.7819
  821MOL0     O10701   1.507   1.027   8.074  0.3249 -0.1771 -0.7610
  821MOL0     C10702   1.606   0.985   8.017 -0.2603  0.2655  0.0612
  821MOL0     O10703   1.607   0.907   7.904 -0.0837 -0.1620 -0.2541
  821MOL0     C10704   1.500   0.844   7.848  0.5627  0.0175 -0.0917
  821MOL0     C10705   1.526   0.735   7.771  0.3644  0.1782  0.6079
  821MOL0     C10706   1.424   0.666   7.704  0.2143 -0.2046 -1.2410
  821MOL0     C10707   1.283   0.706   7.708 -0.0189 -0.4625  0.2761
  821MOL0     O10708   1.182   0.649   7.642 -0.0670 -0.8110 -0.4519
  821MOL0     C10709   1.206   0.541   7.553 -0.6344  0.9557  0.3862
  821MOL0     C10710   1.084   0.514   7.471 -1.0332  0.6849  0.2895
  821MOL0     C10711   0.968   0.466   7.547  0.1542  0.0012 -0.4024
  821MOL0     C10712   0.845   0.451   7.466  0.2212 -0.6085 -0.3540
  821MOL0     C10713   0.727   0.398   7.536 -0.6471  0.4893 -0.9714
  821MOL0     C10714   0.601   0.412   7.434 -0.0554 -1.1088 -0.0990
  821MOL0     C10715   0.541   0.272   7.429 -0.0919  0.2769  0.7836
  821MOL0     C10716   0.424   0.279   7.332 -0.4596 -0.0370 -0.8456
  821MOL0     N10717   0.470   0.301   7.198  0.8153  0.3189  0.2682
  821MOL0     C10718   0.499   0.202   7.102  0.2840 -0.0762 -0.4958
  821MOL0     C10719   0.510   0.255   6.982  0.3150  0.1386 -0.9678
  821MOL0     C10720   0.542   0.201   6.848  0.9272  0.3927  0.1452
  821MOL0     C10721   0.697   0.183   6.847 -0.5803  0.7109 -0.0467
  821MOL0     C10722   0.746   0.051   6.913 -0.7897  0.8492 -0.5022
  821MOL0     C10723   0.891   0.065   6.973 -0.6006 -0.8575  0.7572
  821MOL0     O10724   0.987   0.113   6.873 -0.3674 -0.3082  0.2361
  821MOL0     C10725   1.101   0.182   6.911  0.6734  0.1611 -0.0926
  821MOL0     C10726   1.173   0.209   6.806 -1.2103 -0.0621 -0.1968
  821MOL0     C10727   1.293   0.267   6.826 -0.7250 -0.1293 -0.9872
  821MOL0     C10728   1.377   0.280   6.704 -0.8709 -0.1889 -0.0817
  821MOL0     C10729   1.337   0.307   6.958  0.7099 -0.6748 -0.3138
  821MOL0     C10730   1.466   0.383   6.984  0.7255 -0.1676  0.6378
  821MOL0     O10731   1.470   0.466   7.093 -0.0757 -0.4111  0.3100
  821MOL0     C10732   1.577   0.518   7.163 -0.2835 -0.2319  0.7180
  821MOL0     C10733   1.572   0.548   7.302 -0.2365 -1.3865 -1.0940
  821MOL0     C10734   1.662   0.619   7.376  0.4006  0.7373  0.2339
  821MOL0     C10735   1.783   0.636   7.311 -0.0055  0.5515 -0.4343
  821MOL0     O10736   1.901   0.683   7.366  0.5624 -0.1255  0.5667
  821MOL0     C10737   1.892   0.800   7.437 -0.5793 -0.3663 -0.6281
  821MOL0     C10738   1.860   0.918   7.355  0.2759  0.0481  0.0926
  821MOL0     C10739   1.917   1.050   7.401 -0.7514  0.4002  0.1739
  821MOL0     C10740   1.903   1.078   7.551 -0.3801  0.0909  0.0495
  821MOL0     C10741   1.883   1.226   7.592 -0.6142 -0.0646  0.1015
  821MOL0     C10742   1.905   1.250   7.743 -0.0424 -0.6594 -0.6480
  821MOL0     C10743   1.866   1.396   7.785 -0.1620  0.2632  0.2269
  821MOL0     C10744   1.852   1.414   7.935  0.2142 -0.1534 -0.1188
  821MOL0    Cl10745   1.845   1.594   7.960 -0.5445  0.1588  0.3714
  821MOL0     C10746   1.804   0.596   7.177 -0.4623 -0.4636 -0.0688
  821MOL0     C10747   1.701   0.543   7.099  0.3002 -0.7534  0.8223
  821MOL0     O10748   1.561   0.360   6.918 -0.3454  0.5351 -0.2593
  821MOL0     C10749   1.253   0.290   7.072 -0.6037  0.4492 -0.0866
  821MOL0     C10750   1.138   0.213   7.046 -0.1089  0.0900  0.1280
  821MOL0     N10751   0.501   0.396   7.006  0.8593  0.2642  0.5498
  821MOL0     N10752   0.476   0.422   7.127  0.2622 -0.5756 -0.3679
  821MOL0     C10753   1.261   0.815   7.790 -0.3207  0.3378 -0.5101
  821MOL0     C10754   1.362   0.883   7.853  0.6112 -0.6511  0.1358
  821MOL0     C10755   1.736   1.052   8.060 -0.8133  0.7252 -0.4423
  821MOL0     C10756   1.762   1.154   8.156  1.1657 -0.4145  0.4484
  821MOL0     C10757   1.896   1.191   8.187  0.4444 -0.4404 -0.7457
  821MOL0     C10758   2.009   1.134   8.124  0.9620 -0.7630  0.1151
  821MOL0     O10759   2.141   1.142   8.151 -0.5344  0.1769  0.2206
  821MOL0     C10760   2.181   1.203   8.273  0.5516 -0.4660  0.3297
  821MOL0     C10761   2.236   1.120   8.384  0.2500  0.4710  0.1696
  821MOL0     C10762   2.329   1.012   8.332  0.0952 -0.2298 -0.1547
  821MOL0     C10763   2.473   1.051   8.368 -0.1360 -0.8165 -0.5928
  821MOL0     C10764   2.575   0.955   8.330 -0.3481  0.4237 -0.9579
  821MOL0     C10765   2.668   0.881   8.284 -0.2636 -1.0317  0.4206
  821MOL0     C10766   1.980   1.044   8.022 -1.3655 -0.1271 -0.6142
  821MOL0     C10767   1.850   0.997   7.990 -0.2749  0.0397 -0.9397
  821MOL0     H10768   1.631   0.708   7.763  1.1008  2.7243  0.5965
  821MOL0     H10769   1.466   0.584   7.648  2.9355  0.9254 -1.0110
  821MOL0     H10770   1.288   0.561   7.484 -1.4247  1.6209 -0.3798
  821MOL0     H10771   1.230   0.449   7.608  0.4470  0.7672 -0.3710
  821MOL0     H10772   1.065   0.607   7.416 -0.1984  0.8210  0.2181
  821MOL0     H10773   1.103   0.425   7.410 -1.9496  1.3463 -1.0192
  821MOL0     H10774   0.981   0.372   7.603 -2.5627 -1.3056 -1.7451
  821MOL0     H10775   0.945   0.541   7.623  2.0241  0.3087 -0.0866
  821MOL0     H10776   0.822   0.553   7.436  1.6437  0.2620  1.3219
  821MOL0     H10777   0.846   0.383   7.379 -3.5434 -0.7552 -0.4405
  821MOL0     H10778   0.748   0.298   7.575 -1.7138  0.7971  0.4840
  821MOL0     H10779   0.702   0.460   7.623  1.3084  0.7631 -0.5792
  821MOL0     H10780   0.528   0.490   7.454  1.8174  1.9000 -3.7499
  821MOL0     H10781   0.648   0.436   7.338 -1.8656  2.4812 -0.2352
  821MOL0     H10782   0.616   0.200   7.397 -1.7460 -2.1870  2.1418
  821MOL0     H10783   0.510   0.237   7.528  2.6573  0.5722  1.8289
  821MOL0     H10784   0.371   0.374   7.348  0.5169  1.3318 -4.6916
  821MOL0     H10785   0.362   0.189   7.340  0.5371 -0.5815  1.4914
  821MOL0     H10786   0.510   0.101   7.142  0.3910 -0.5027 -1.5688
  821MOL0     H10787   0.489   0.106   6.836 -2.2354  2.1007 -0.3433
  821MOL0     H10788   0.511   0.272   6.771 -2.6546  0.5127  1.5262
  821MOL0     H10789   0.733   0.270   6.904 -0.1956 -0.3946  1.4707
  821MOL0     H10790   0.739   0.188   6.746 -0.1835  1.3172  0.1400
  821MOL0     H10791   0.743  -0.029   6.839  1.2931  1.4364 -1.2858
  821MOL0     H10792   0.685   0.013   6.996 -0.7414  0.0697 -0.8169
  821MOL0     H10793   0.922  -0.039   6.985  1.2090 -0.2719  1.5222
  821MOL0     H10794   0.881   0.135   7.057 -2.9404  1.0734 -0.9691
  821MOL0     H10795   1.138   0.177   6.709 -4.1064  0.0118  0.7037
  821MOL0     H10796   1.420   0.380   6.689 -0.9151  0.0524  1.2793
  821MOL0     H10797   1.460   0.209   6.711 -0.5332  0.3374  1.8692
  821MOL0     H10798   1.320   0.285   6.611  1.8528  1.3374 -1.8058
  821MOL0     H10799   1.477   0.513   7.341 -0.5831  0.0379 -0.6022
  821MOL0     H10800   1.648   0.625   7.484  1.1575 -0.7644  0.4529
  821MOL0     H10801   1.822   0.797   7.520  0.4580 -0.8237  0.2616
  821MOL0     H10802   1.991   0.816   7.480 -0.6503  0.7531 -0.8589
  821MOL0     H10803   1.882   0.905   7.249 -0.4818  3.0050 -0.5040
  821MOL0     H10804   1.751   0.923   7.369  0.4184 -0.4787  1.6875
  821MOL0     H10805   1.873   1.127   7.336 -1.4853 -2.2533 -2.7488
  821MOL0     H10806   2.024   1.049   7.379 -0.8474 -0.6949 -0.3101
  821MOL0     H10807   1.826   1.013   7.594  0.4286 -1.3087 -0.5598
  821MOL0     H10808   2.000   1.046   7.589 -0.8296 -1.8546 -0.3210
  821MOL0     H10809   1.781   1.259   7.570 -0.8448  0.2901  1.6024
  821MOL0     H10810   1.955   1.283   7.533  0.7260 -3.2252 -1.5400
  821MOL0     H10811   1.848   1.180   7.806  1.2383 -0.9019  0.2710
  821MOL0     H10812   2.008   1.238   7.776 -0.5746  0.6528  1.7017
  821MOL0     H10813   1.767   1.422   7.746  0.0485  1.5609  0.5162
  821MOL0     H10814   1.935   1.467   7.741 -1.4776  0.6818 -1.2283
  821MOL0     H10815   1.935   1.366   7.989 -1.0349 -0.8331  1.2647
  821MOL0     H10816   1.761   1.366   7.972  0.9265 -3.3828 -2.1324
  821MOL0     H10817   1.901   0.619   7.135 -0.4669  0.1272  0.2328
  821MOL0     H10818   1.723   0.509   6.999 -1.7344 -0.8166  0.3487
  821MOL0     H10819   1.280   0.306   7.176  0.5819 -0.4425 -0.2279
  821MOL0     H10820   1.072   0.182   7.126 -2.9120 -1.1451 -2.4329
  821MOL0     H10821   1.159   0.850   7.798 -0.5435 -0.7042  2.7147
  821MOL0     H10822   1.344   0.977   7.904 -0.2432 -1.4268  1.3022
  821MOL0     H10823   1.673   1.193   8.205  0.2032 -2.8342  0.7387
  821MOL0     H10824   1.906   1.270   8.261 -0.3581 -0.6916 -0.3657
  821MOL0     H10825   2.261   1.272   8.247  1.1562 -2.2103 -3.1200
  821MOL0     H10826   2.099   1.269   8.302  0.0196 -1.2431  0.6412
  821MOL0     H10827   2.153   1.061   8.424 -0.4917 -0.5366 -2.6198
  821MOL0     H10828   2.271   1.178   8.469 -0.5556 -0.9264  1.5000
  821MOL0     H10829   2.309   0.988   8.228  2.9173  3.6680 -1.8586
  821MOL0     H10830   2.304   0.922   8.389  2.0197 -1.1102 -0.6333
  821MOL0     H10831   2.471   1.069   8.476  1.9102 -1.8893 -0.3265
  821MOL0     H10832   2.502   1.145   8.321 -1.3804  1.2852  2.4922
  821MOL0     H10833   2.744   0.826   8.233  1.3699  0.7914  0.7799
  821MOL0     H10834   2.059   0.995   7.966 -0.8260  0.2245 -0.1668
  821MOL0     H10835   1.838   0.927   7.908 -0.0159  0.1660 -1.0854
  822MOL0     O10836   9.572   7.134  11.432 -0.0379  0.6918  0.4208
  822MOL0     C10837   9.688   7.167  11.409 -0.1385 -1.0714 -0.1927
  822MOL0     O10838   9.757   7.152  11.295  0.3494  0.2284 -0.3056
  822MOL0     C10839   9.714   7.078  11.190 -0.1231  0.4250 -0.3396
  822MOL0     C10840   9.799   6.966  11.150  0.4231 -0.1073 -0.4946
  822MOL0     C10841   9.763   6.871  11.058 -0.9493 -0.1900 -0.6600
  822MOL0     C10842   9.647   6.886  10.988 -0.7455  0.4080  0.6629
  822MOL0     O10843   9.605   6.800  10.891 -0.2337 -0.9808  0.2771
  822MOL0     C10844   9.491   6.814  10.811  0.1878 -0.6488  1.1519
  822MOL0     C10845   9.518   6.911  10.692 -0.7521  0.0920  0.2571
  822MOL0     C10846   9.536   7.053  10.727 -0.6860 -0.0711  0.2514
  822MOL0     C10847   9.566   7.151  10.622  0.2693 -0.1535 -0.4293
  822MOL0     C10848   9.563   7.291  10.685  0.1836 -0.7760  0.1645
  822MOL0     C10849   9.548   7.405  10.576 -0.8744 -0.2094 -1.0171
  822MOL0     C10850   9.603   7.537  10.616  0.7935 -0.0403 -0.4090
  822MOL0     C10851   9.757   7.560  10.614  0.0508 -0.2151  0.1881
  822MOL0     N10852   9.789   7.692  10.673 -0.0118 -0.0825 -1.0447
  822MOL0     C10853   9.813   7.711  10.806  0.4559 -0.3314  0.1352
  822MOL0     C10854   9.846   7.842  10.816 -0.0695  0.2335  0.4343
  822MOL0     C10855   9.851   7.909  10.956  0.0526  0.4039  0.2408
  822MOL0     C10856   9.711   7.964  10.985  0.0734 -0.1151 -0.3008
  822MOL0     C10857   9.702   8.022  11.123 -0.4478 -0.1467 -0.4730
  822MOL0     C10858   9.557   8.046  11.162 -0.0598 -0.1078  0.0380
  822MOL0     O10859   9.585   8.081  11.302 -0.0131  0.1313  0.0710
  822MOL0     C10860   9.485   8.097  11.393  0.2346  0.6226 -0.0752
  822MOL0     C10861   9.520   8.154  11.509 -0.6690  0.4307 -0.6365
  822MOL0     C10862   9.440   8.162  11.619  0.2621  0.6169  0.3380
  822MOL0     C10863   9.500   8.235  11.736 -0.0097  0.1179 -0.0202
  822MOL0     C10864   9.304   8.123  11.609  0.3776  0.4106 -0.1152
  822MOL0     C10865   9.215   8.116  11.728  0.7643  0.5194  0.1559
  822MOL0     O10866   9.078   8.100  11.694 -0.2257 -0.9136 -0.6797
  822MOL0     C10867   8.982   8.130  11.793 -0.2697  0.2128  0.2132
  822MOL0     C10868   8.885   8.029  11.798 -0.2732 -0.5855 -0.5630
  822MOL0     C10869   8.775   8.044  11.886 -1.6200  0.3449 -0.4347
  822MOL0     C10870   8.773   8.152  11.972  0.6160 -0.8785  0.5625
  822MOL0     O10871   8.666   8.184  12.058  0.0396  0.2144 -0.3039
  822MOL0     C10872   8.547   8.095  12.062 -0.3404  0.1823 -0.1513
  822MOL0     C10873   8.440   8.143  12.161  0.2245 -0.6129 -0.1782
  822MOL0     C10874   8.308   8.163  12.089  0.3459 -1.2279 -0.2312
  822MOL0     C10875   8.247   8.041  12.044  0.2419  0.9457  0.2973
  822MOL0     C10876   8.105   8.073  11.977 -0.9884  0.1993 -0.5991
  822MOL0     C10877   7.984   8.110  12.068  0.0343 -0.8183  0.5333
  822MOL0     C10878   7.926   7.992  12.147  0.3384  0.2400 -0.1423
  822MOL0     C10879   7.820   8.023  12.252  0.4528  0.6908  0.6430
  822MOL0    Cl10880   7.889   8.115  12.396 -0.1037  0.6455  0.2289
  822MOL0     C10881   8.878   8.240  11.974  0.6230 -0.0320  0.0147
  822MOL0     C10882   8.978   8.237  11.883  0.4710 -0.1458 -0.6033
  822MOL0     O10883   9.268   8.118  11.835  0.6402 -0.1744  0.1517
  822MOL0     C10884   9.258   8.085  11.481  0.3784  0.2252 -0.7141
  822MOL0     C10885   9.350   8.067  11.383 -0.0351 -0.8737  0.2188
  822MOL0     N10886   9.842   7.901  10.687  0.1588 -0.4138  0.7153
  822MOL0     N10887   9.805   7.810  10.608  0.6958  0.2232 -0.5038
  822MOL0     C10888   9.561   6.991  11.031  0.9799 -0.6444 -0.7907
  822MOL0     C10889   9.594   7.082  11.137  0.4655  0.8844 -0.2763
  822MOL0     C10890   9.755   7.259  11.511  0.0200  0.2437  0.2169
  822MOL0     C10891   9.685   7.289  11.628  0.3676 -1.5879 -0.2406
  822MOL0     C10892   9.736   7.395  11.710  1.1400  1.0177 -0.1398
  822MOL0     C10893   9.861   7.448  11.698  1.0403 -1.1691 -0.9893
  822MOL0     O10894   9.890   7.556  11.779  0.2812  0.2924  0.0325
  822MOL0     C10895  10.023   7.612  11.763 -0.1711 -0.0347  0.4229
  822MOL0     C10896  10.053   7.715  11.875 -0.0623  1.0325  0.8281
  822MOL0     C10897  10.199   7.765  11.881  0.4963  0.4491  0.4117
  822MOL0     C10898  10.208   7.915  11.917 -0.7735  0.5687 -0.4258
  822MOL0     C10899  10.147   7.933  12.051 -0.6782 -0.3593 -0.0197
  822MOL0     C10900  10.083   7.944  12.152  0.4598  0.1229 -0.1192
  822MOL0     C10901   9.939   7.399  11.592  0.5012 -0.3966 -0.0176
  822MOL0     C10902   9.888   7.312  11.498  0.5591 -0.9583  0.1088
  822MOL0     H10903   9.882   6.959  11.220 -2.4094  0.2024  3.1800
  822MOL0     H10904   9.836   6.796  11.029  0.3523  1.0326 -0.6571
  822MOL0     H10905   9.478   6.721  10.755  0.3055 -1.6032  2.6437
  822MOL0     H10906   9.402   6.839  10.869 -0.1566 -0.4390  0.5367
  822MOL0     H10907   9.613   6.881  10.647 -0.5009 -0.4317  1.1069
  822MOL0     H10908   9.434   6.906  10.623 -0.0828  3.5289 -1.0022
  822MOL0     H10909   9.441   7.085  10.771  0.7412  1.2363  2.5863
  822MOL0     H10910   9.610   7.068  10.806 -0.1282 -1.6591  0.0662
  822MOL0     H10911   9.664   7.121  10.583  0.7212 -0.0903  0.6278
  822MOL0     H10912   9.486   7.156  10.547 -0.8604  0.3155  0.7763
  822MOL0     H10913   9.491   7.313  10.765  0.3534 -3.0607  1.0282
  822MOL0     H10914   9.659   7.314  10.732  1.0993  2.2598 -2.7861
  822MOL0     H10915   9.599   7.367  10.486  0.4696  1.0020 -0.8043
  822MOL0     H10916   9.446   7.405  10.536 -1.2517 -0.3699 -0.0731
  822MOL0     H10917   9.567   7.609  10.542  4.4292 -0.1669 -2.4899
  822MOL0     H10918   9.560   7.551  10.716 -2.8908 -4.2296 -1.0579
  822MOL0     H10919   9.793   7.560  10.511 -0.6946 -2.5946 -0.1264
  822MOL0     H10920   9.803   7.475  10.666  0.9209 -0.6735 -1.3017
  822MOL0     H10921   9.799   7.645  10.890 -1.7367  2.5493  2.2418
  822MOL0     H10922   9.877   7.834  11.031 -1.7705  1.0326  1.5752
  822MOL0     H10923   9.928   7.986  10.941  1.3301 -0.8597  0.0356
  822MOL0     H10924   9.644   7.878  10.993  2.0294 -1.4694  3.3896
  822MOL0     H10925   9.681   8.026  10.899  3.3139  0.3057 -1.2875
  822MOL0     H10926   9.758   8.115  11.126 -1.4319  0.4352  1.7772
  822MOL0     H10927   9.750   7.955  11.194 -1.0969  0.7107  0.8050
  822MOL0     H10928   9.481   7.968  11.150 -0.6461  0.7292 -2.2313
  822MOL0     H10929   9.521   8.134  11.108 -1.2197 -0.0067  0.9287
  822MOL0     H10930   9.623   8.182  11.530  0.3640 -1.6633 -2.5629
  822MOL0     H10931   9.588   8.299  11.725  0.7896 -0.8107  0.7205
  822MOL0     H10932   9.426   8.309  11.765 -2.7133 -2.2078 -0.5908
  822MOL0     H10933   9.524   8.167  11.818  1.0082  0.5830  0.0854
  822MOL0     H10934   8.877   7.941  11.734 -0.8492 -1.6577  0.9397
  822MOL0     H10935   8.700   7.966  11.888 -1.1070 -0.1627  1.6335
  822MOL0     H10936   8.513   8.076  11.960 -2.4203 -3.5251  1.0298
  822MOL0     H10937   8.589   8.000  12.097 -0.8612 -0.5497 -1.4624
  822MOL0     H10938   8.431   8.060  12.231  2.4531  1.2148  2.4679
  822MOL0     H10939   8.477   8.231  12.214  1.9350 -0.2842 -1.8332
  822MOL0     H10940   8.317   8.237  12.009  2.7752 -0.1016  0.9796
  822MOL0     H10941   8.239   8.207  12.162 -0.4427 -2.4260 -0.2326
  822MOL0     H10942   8.320   7.995  11.975 -2.1172 -0.1143 -1.6540
  822MOL0     H10943   8.238   7.967  12.123 -0.3256 -1.6386 -2.0108
  822MOL0     H10944   8.073   7.983  11.924  0.1811 -1.1273  0.8828
  822MOL0     H10945   8.118   8.153  11.903 -3.3669  0.6424 -0.6079
  822MOL0     H10946   7.998   8.190  12.140 -0.5684  0.9389 -1.2066
  822MOL0     H10947   7.903   8.137  11.999 -0.7322  1.7359  2.3187
  822MOL0     H10948   8.004   7.930  12.192 -0.9970 -0.5474  1.1726
  822MOL0     H10949   7.888   7.924  12.070 -3.2879  0.7583  1.0376
  822MOL0     H10950   7.774   7.929  12.283 -0.7013  0.7295 -0.8207
  822MOL0     H10951   7.737   8.059  12.191 -1.9839 -4.2480  0.6393
  822MOL0     H10952   8.882   8.319  12.048  0.6922  1.0726 -1.1233
  822MOL0     H10953   9.063   8.303  11.895  1.2523 -1.6269  3.6949
  822MOL0     H10954   9.156   8.068  11.450  0.6849 -1.6715 -0.7883
  822MOL0     H10955   9.294   8.047  11.292 -0.2148 -0.6907  0.2866
  822MOL0     H10956   9.454   6.983  11.011 -0.0340  0.9657  2.9849
  822MOL0     H10957   9.507   7.137  11.171 -0.0718  1.3713 -2.3339
  822MOL0     H10958   9.582   7.261  11.649 -0.7852  3.1812  2.0714
  822MOL0     H10959   9.681   7.425  11.799 -0.6056  1.0699 -1.1774
  822MOL0     H10960  10.091   7.527  11.758  1.3049  1.1493 -2.5549
  822MOL0     H10961  10.020   7.656  11.663 -2.1856  2.8377  1.5759
  822MOL0     H10962  10.030   7.666  11.970 -1.7301 -0.2118 -0.1473
  822MOL0     H10963   9.984   7.798  11.858  0.3287  1.0570 -0.8303
  822MOL0     H10964  10.242   7.735  11.784 -1.5812 -1.0915 -0.1185
  822MOL0     H10965  10.247   7.698  11.952 -0.0953 -2.2211 -1.5446
  822MOL0     H10966  10.151   7.969  11.841 -0.6343 -0.6763 -1.4466
  822MOL0     H10967  10.315   7.937  11.910 -0.1448 -1.8635  0.6356
  822MOL0     H10968  10.020   7.966  12.235 -2.5543 -2.0809 -1.6318
  822MOL0     H10969  10.040   7.435  11.578  0.5482 -0.7771 -0.7319
  822MOL0     H10970   9.955   7.286  11.416  1.1749 -2.4493  1.0492
  823MOL0     O10971  10.137  10.184   5.452 -0.3744 -0.7645  0.3132
  823MOL0     C10972  10.081  10.083   5.401 -0.0671  0.2666 -0.2401
  823MOL0     O10973  10.108   9.949   5.431  0.5015  0.1762  0.7917
  823MOL0     C10974  10.211   9.915   5.514  0.7503  0.2894  0.2856
  823MOL0     C10975  10.336   9.977   5.518 -0.9555  1.0452  0.9543
  823MOL0     C10976  10.430   9.932   5.613 -0.6912  1.4604  0.2800
  823MOL0     C10977  10.392   9.842   5.709 -0.5372  0.0178  0.5972
  823MOL0     O10978  10.473   9.823   5.812 -0.4791  0.7601  0.2971
  823MOL0     C10979  10.416   9.794   5.943 -0.1351 -0.5599 -0.5449
  823MOL0     C10980  10.532   9.808   6.051 -0.2555 -0.7573 -0.8239
  823MOL0     C10981  10.498   9.729   6.171 -0.1323  0.0755  0.9670
  823MOL0     C10982  10.601   9.623   6.203 -0.3229  0.1850  0.4968
  823MOL0     C10983  10.579   9.543   6.326  0.0373 -1.0513 -0.0901
  823MOL0     C10984  10.664   9.606   6.437  0.2359  0.0467  0.1559
  823MOL0     C10985  10.689   9.504   6.559 -0.7458 -0.5843 -0.0337
  823MOL0     C10986  10.771   9.385   6.509 -0.1803  0.6029 -0.7482
  823MOL0     N10987  10.805   9.299   6.618 -0.1399 -0.1859 -1.2253
  823MOL0     C10988  10.922   9.303   6.684  0.1060 -0.6986 -0.0485
  823MOL0     C10989  10.911   9.213   6.789  0.7924  0.5391 -0.9813
  823MOL0     C10990  11.015   9.179   6.899 -0.3134  0.5208 -0.4901
  823MOL0     C10991  11.096   9.056   6.872 -0.4895  0.8248 -0.0074
  823MOL0     C10992  11.219   9.047   6.958  0.7616 -0.5973 -0.1888
  823MOL0     C10993  11.267   8.905   6.966 -0.4283 -1.1748  0.9106
  823MOL0     O10994  11.325   8.872   6.835 -0.7538 -0.5066 -0.0162
  823MOL0     C10995  11.364   8.743   6.810 -0.3175 -1.1414  1.1252
  823MOL0     C10996  11.387   8.644   6.904  0.1550 -0.0626  0.0419
  823MOL0     C10997  11.433   8.513   6.866 -0.3436 -0.4864  0.7400
  823MOL0     C10998  11.456   8.424   6.984 -0.4551 -0.6245  0.2159
  823MOL0     C10999  11.457   8.485   6.733 -0.0859  0.0497 -0.3211
  823MOL0     C11000  11.532   8.356   6.686 -0.1407 -0.3695 -0.2160
  823MOL0     O11001  11.588   8.357   6.563 -0.0373 -0.0610  0.3891
  823MOL0     C11002  11.640   8.244   6.521  0.1053 -1.0303 -0.6395
  823MOL0     C11003  11.574   8.157   6.439  0.7935 -0.3427 -0.5550
  823MOL0     C11004  11.636   8.049   6.384 -0.4589 -0.1330 -0.1973
  823MOL0     C11005  11.771   8.032   6.399 -0.4297  0.4851  0.4447
  823MOL0     O11006  11.829   7.930   6.319  0.1102 -0.4098 -0.2569
  823MOL0     C11007  11.972   7.954   6.296  1.0457  0.3901  0.6465
  823MOL0     C11008  12.005   7.847   6.195  0.2832 -0.1544  0.3346
  823MOL0     C11009  12.157   7.871   6.152 -0.1162  0.5655  0.0116
  823MOL0     C11010  12.199   7.773   6.033  0.1019 -1.0597  0.6869
  823MOL0     C11011  12.121   7.808   5.899  0.0406 -0.0689  0.2256
  823MOL0     C11012  12.172   7.735   5.772  0.9447 -0.3290  0.0661
  823MOL0     C11013  12.165   7.579   5.778 -0.1526  0.4463 -0.4767
  823MOL0     C11014  12.019   7.542   5.765 -0.4550  0.1511  0.2842
  823MOL0    Cl11015  12.023   7.370   5.759  0.1723  0.2401  0.1211
  823MOL0     C11016  11.840   8.102   6.499 -0.4955  1.3723 -0.2526
  823MOL0     C11017  11.778   8.210   6.552  0.3182 -0.5857 -0.0594
  823MOL0     O11018  11.529   8.253   6.756 -0.1514 -0.3672  0.1261
  823MOL0     C11019  11.446   8.589   6.639 -0.5794  0.5704 -0.1811
  823MOL0     C11020  11.392   8.714   6.680 -0.6761  0.0826 -0.3303
  823MOL0     N11021  10.786   9.161   6.784  0.0446  0.3086 -0.1278
  823MOL0     N11022  10.727   9.201   6.681  0.4433  0.7899  0.5680
  823MOL0     C11023  10.274   9.768   5.688 -0.1641  0.3469 -1.0542
  823MOL0     C11024  10.183   9.800   5.594 -0.4594 -0.4331  0.2281
  823MOL0     C11025   9.972  10.115   5.302 -0.0086  0.1463 -0.6923
  823MOL0     C11026   9.909  10.019   5.224  0.1498  0.3320 -0.2427
  823MOL0     C11027   9.810  10.048   5.131 -0.5780  0.4154  0.1689
  823MOL0     C11028   9.773  10.178   5.106 -0.7273 -0.3017 -1.0177
  823MOL0     O11029   9.677  10.193   5.006  0.0820 -0.0575  0.6973
  823MOL0     C11030   9.598  10.312   5.017  0.4001 -0.1093 -0.1188
  823MOL0     C11031   9.479  10.310   5.120 -0.0466 -0.6005  0.6958
  823MOL0     C11032   9.366  10.215   5.069  0.4336  1.4195 -0.2519
  823MOL0     C11033   9.263  10.222   5.186 -0.4921 -0.5218 -0.4479
  823MOL0     C11034   9.179  10.103   5.201  0.6806  0.5246  0.5636
  823MOL0     C11035   9.101  10.007   5.190  0.0458  0.3964 -0.0620
  823MOL0     C11036   9.838  10.282   5.185  0.4933 -0.7807 -0.0058
  823MOL0     C11037   9.946  10.252   5.277  0.9329 -0.1638 -0.4341
  823MOL0     H11038  10.348  10.061   5.450 -1.3075  0.1857 -0.2064
  823MOL0     H11039  10.528   9.977   5.622  0.9197 -0.8084 -3.3877
  823MOL0     H11040  10.343   9.869   5.975  1.5383  0.6112  0.6766
  823MOL0     H11041  10.386   9.689   5.952  2.5102 -1.2825  1.0193
  823MOL0     H11042  10.631   9.788   6.010  0.5328 -5.5007  2.5280
  823MOL0     H11043  10.542   9.912   6.084 -1.3095 -1.5777  2.4411
  823MOL0     H11044  10.472   9.798   6.252 -3.2050 -0.0906  0.2539
  823MOL0     H11045  10.399   9.682   6.164 -0.7862  1.2501  2.0155
  823MOL0     H11046  10.607   9.547   6.125 -2.0473  1.1098 -0.5846
  823MOL0     H11047  10.699   9.672   6.213 -1.4225  2.2697  1.9593
  823MOL0     H11048  10.475   9.556   6.357  1.2192  2.9817  3.0976
  823MOL0     H11049  10.606   9.438   6.308 -0.0423 -1.2724  0.9517
  823MOL0     H11050  10.764   9.628   6.398 -0.3049 -0.3520 -1.5197
  823MOL0     H11051  10.613   9.698   6.465  3.4686  2.5548 -1.4774
  823MOL0     H11052  10.750   9.555   6.635  4.3482 -1.4909 -3.0081
  823MOL0     H11053  10.589   9.475   6.592 -2.4982  2.4401 -2.2565
  823MOL0     H11054  10.866   9.414   6.462  1.4259  1.9090  2.9557
  823MOL0     H11055  10.717   9.325   6.435 -0.4877 -1.2595  0.9237
  823MOL0     H11056  11.003   9.371   6.660  0.2027 -0.8901 -0.2695
  823MOL0     H11057  11.091   9.258   6.909  2.7782 -2.4758  1.9882
  823MOL0     H11058  10.966   9.165   6.995  1.8314 -1.5902  0.3875
  823MOL0     H11059  11.142   9.079   6.775  3.9891  0.2671  1.7555
  823MOL0     H11060  11.032   8.967   6.874 -1.0135  1.1337  3.3896
  823MOL0     H11061  11.189   9.079   7.058  1.3350  0.5055 -0.3523
  823MOL0     H11062  11.298   9.119   6.934 -2.0288  1.8774 -3.0617
  823MOL0     H11063  11.177   8.844   6.981 -0.6870 -0.7796  0.9839
  823MOL0     H11064  11.345   8.896   7.042  2.6130 -1.4823 -2.0391
  823MOL0     H11065  11.362   8.666   7.007 -1.5112  1.0800 -0.5744
  823MOL0     H11066  11.400   8.333   6.962  2.0282 -1.8781 -1.4312
  823MOL0     H11067  11.560   8.390   6.987 -0.2199  0.0156 -0.3564
  823MOL0     H11068  11.425   8.469   7.079  1.8332  2.4632 -0.3319
  823MOL0     H11069  11.473   8.177   6.404  0.4088  0.2290  0.8202
  823MOL0     H11070  11.589   7.978   6.317 -1.3202  1.8179 -1.7872
  823MOL0     H11071  11.997   8.055   6.264  1.5238 -0.4394 -1.8675
  823MOL0     H11072  12.031   7.944   6.387  0.9724  5.1281  1.4828
  823MOL0     H11073  11.996   7.746   6.235 -0.5108  0.2380  1.1961
  823MOL0     H11074  11.938   7.849   6.109 -2.0680  1.6763  2.0773
  823MOL0     H11075  12.227   7.840   6.231  0.7961  0.2004 -0.9228
  823MOL0     H11076  12.170   7.972   6.112  2.2223 -0.0129 -0.8858
  823MOL0     H11077  12.307   7.787   6.025  0.1805 -1.9409  0.1386
  823MOL0     H11078  12.169   7.672   6.060 -3.5272 -0.1515  0.6497
  823MOL0     H11079  12.141   7.913   5.873  0.5626  0.2126  1.6296
  823MOL0     H11080  12.012   7.803   5.907 -0.2270  3.8187  1.2790
  823MOL0     H11081  12.120   7.759   5.679 -0.9043 -2.1370  0.5682
  823MOL0     H11082  12.274   7.774   5.760 -0.3208  3.8169  1.2122
  823MOL0     H11083  12.208   7.536   5.869 -4.2110  0.1352  1.5227
  823MOL0     H11084  12.223   7.542   5.693  1.3406  0.2060  0.5931
  823MOL0     H11085  11.974   7.583   5.674  0.2435  3.8877  1.4612
  823MOL0     H11086  11.958   7.577   5.849 -0.4442 -0.4149  0.5305
  823MOL0     H11087  11.944   8.093   6.529 -0.9008 -1.2809  0.6396
  823MOL0     H11088  11.827   8.279   6.620  0.0654 -0.8638  0.4103
  823MOL0     H11089  11.458   8.566   6.534 -1.1667 -0.1004 -0.1033
  823MOL0     H11090  11.389   8.799   6.613  0.3671  0.4360  0.0490
  823MOL0     H11091  10.265   9.673   5.740  3.1548 -0.2300 -1.2858
  823MOL0     H11092  10.094   9.740   5.578  1.1061 -3.3094  1.4663
  823MOL0     H11093   9.928   9.912   5.228 -4.8609 -0.7927 -0.6671
  823MOL0     H11094   9.756   9.970   5.077  0.1594 -0.2111  0.3166
  823MOL0     H11095   9.663  10.397   5.037  0.3149  0.1699 -0.9972
  823MOL0     H11096   9.546  10.318   4.921 -0.1309 -0.5939  0.1267
  823MOL0     H11097   9.432  10.409   5.118  2.4378  0.6991  2.0500
  823MOL0     H11098   9.509  10.294   5.224 -1.5960  4.2995  2.1618
  823MOL0     H11099   9.388  10.110   5.049  1.6162  1.8274 -1.2005
  823MOL0     H11100   9.312  10.259   4.985 -1.4270 -1.3477 -0.6568
  823MOL0     H11101   9.191  10.300   5.158  0.1946  0.6019  0.8313
  823MOL0     H11102   9.310  10.242   5.283 -3.2012 -1.3648  1.1578
  823MOL0     H11103   9.028   9.932   5.165 -0.0891 -0.4738  2.6629
  823MOL0     H11104   9.805  10.383   5.168 -0.4138 -1.2161 -0.9323
  823MOL0     H11105   9.980  10.341   5.328 -0.2008  0.2812 -0.4311
  824MOL0     O11106   2.089   5.054   5.562 -1.1501  0.7680  0.1580
  824MOL0     C11107   2.205   5.099   5.541  0.1039  0.8504  0.2954
  824MOL0     O11108   2.327   5.030   5.573  0.2107  0.5238  0.1309
  824MOL0     C11109   2.326   4.929   5.663 -0.6232  0.5846  0.3353
  824MOL0     C11110   2.423   4.829   5.644 -0.2995 -0.2008 -0.9077
  824MOL0     C11111   2.423   4.709   5.713  0.7374  0.8281 -0.0611
  824MOL0     C11112   2.339   4.692   5.821 -0.4483  0.4701 -0.5718
  824MOL0     O11113   2.354   4.565   5.882  0.4784 -0.1497  0.1255
  824MOL0     C11114   2.231   4.496   5.926 -0.7345 -0.7535  0.4576
  824MOL0     C11115   2.263   4.343   5.928 -0.2650 -0.8740  0.5649
  824MOL0     C11116   2.235   4.278   5.791 -1.3417 -1.1604 -0.3395
  824MOL0     C11117   2.334   4.325   5.679 -1.4911  0.1285 -0.4512
  824MOL0     C11118   2.264   4.357   5.546  0.2498 -0.3090  0.5768
  824MOL0     C11119   2.158   4.477   5.551 -0.7743  0.6886 -0.3859
  824MOL0     C11120   2.080   4.480   5.423  0.8809 -0.1329  0.0077
  824MOL0     C11121   1.997   4.610   5.398  0.5294  0.4100 -1.1035
  824MOL0     N11122   1.891   4.607   5.294 -0.4471  0.2762 -0.4699
  824MOL0     C11123   1.776   4.532   5.300 -0.8816 -0.0635 -0.0810
  824MOL0     C11124   1.725   4.555   5.176 -0.3260  0.6060  0.6669
  824MOL0     C11125   1.594   4.501   5.131  0.5717  0.5079  0.8658
  824MOL0     C11126   1.464   4.588   5.163 -0.0933 -0.1174  0.3528
  824MOL0     C11127   1.481   4.736   5.110  0.3765 -0.1927 -0.1920
  824MOL0     C11128   1.509   4.763   4.968  0.3675 -0.1068  0.7645
  824MOL0     O11129   1.423   4.692   4.874 -0.1335  0.4252  0.3950
  824MOL0     C11130   1.474   4.616   4.765 -0.1328  0.3637 -0.7502
  824MOL0     C11131   1.610   4.603   4.742  0.3467  0.4711 -0.5098
  824MOL0     C11132   1.658   4.521   4.634 -1.5639 -0.6254  0.8207
  824MOL0     C11133   1.814   4.524   4.618  0.5801  0.0909 -0.4977
  824MOL0     C11134   1.568   4.448   4.556 -0.0190  0.2269  0.1557
  824MOL0     C11135   1.606   4.360   4.441 -0.0512  0.6581  0.2206
  824MOL0     O11136   1.512   4.351   4.340  0.9218 -0.4667 -0.3055
  824MOL0     C11137   1.564   4.305   4.219  0.1133  0.1641 -0.2765
  824MOL0     C11138   1.503   4.192   4.159  0.3580  0.3260 -0.5245
  824MOL0     C11139   1.553   4.147   4.035  0.2903  0.3537  0.0573
  824MOL0     C11140   1.635   4.222   3.951  0.4696  0.2041 -0.7396
  824MOL0     O11141   1.678   4.185   3.826  0.3570  0.5671 -0.1252
  824MOL0     C11142   1.638   4.058   3.781 -0.2477  0.0730 -0.1151
  824MOL0     C11143   1.690   4.029   3.633 -0.2128  0.7702  0.7086
  824MOL0     C11144   1.629   4.135   3.531 -0.0629 -0.4602 -0.6045
  824MOL0     C11145   1.684   4.125   3.395  0.7619  0.4757  0.9975
  824MOL0     C11146   1.821   4.201   3.360 -0.5123  0.7583 -0.1010
  824MOL0     C11147   1.787   4.349   3.359 -0.0788  0.1266 -0.7145
  824MOL0     C11148   1.907   4.433   3.302  0.4437  0.6544  0.5300
  824MOL0     C11149   2.042   4.415   3.379  0.5249  0.8240  0.6019
  824MOL0    Cl11150   2.010   4.396   3.558  0.8474  0.2296  0.0993
  824MOL0     C11151   1.687   4.332   4.012  0.0935  0.3286  0.4600
  824MOL0     C11152   1.657   4.375   4.140  0.6174 -0.1684 -0.7225
  824MOL0     O11153   1.720   4.306   4.436  0.5073 -0.6773  0.0756
  824MOL0     C11154   1.428   4.456   4.581 -0.4281  0.0098  1.2542
  824MOL0     C11155   1.387   4.541   4.680  0.6601  0.0198 -0.8878
  824MOL0     N11156   1.803   4.645   5.103  0.7560  1.0511  0.5395
  824MOL0     N11157   1.906   4.661   5.175 -0.4424 -0.5231 -0.4658
  824MOL0     C11158   2.253   4.792   5.850 -0.7329 -0.8622 -0.1123
  824MOL0     C11159   2.236   4.912   5.779  0.1353 -0.1530 -0.0346
  824MOL0     C11160   2.201   5.226   5.472 -0.2027 -0.2856 -0.3574
  824MOL0     C11161   2.094   5.269   5.394 -0.9319 -0.7123 -0.7529
  824MOL0     C11162   2.101   5.394   5.332 -1.6315 -0.8444 -0.0178
  824MOL0     C11163   2.204   5.485   5.361 -0.8446  0.1778  0.9913
  824MOL0     O11164   2.196   5.604   5.291  0.7295 -0.0024 -0.0545
  824MOL0     C11165   2.207   5.724   5.371 -0.0318 -0.3404  0.3984
  824MOL0     C11166   2.081   5.752   5.450 -0.5109 -0.2921  1.1385
  824MOL0     C11167   1.941   5.765   5.374 -0.2847  0.1458  0.7277
  824MOL0     C11168   1.934   5.871   5.259 -0.0887 -0.4841  0.8579
  824MOL0     C11169   1.800   5.877   5.191  0.3171 -0.7475 -0.0526
  824MOL0     C11170   1.691   5.888   5.137  0.4324 -0.3929  0.1415
  824MOL0     C11171   2.308   5.446   5.438  0.6599  0.6952 -0.8973
  824MOL0     C11172   2.308   5.323   5.495  0.4403  0.0747 -0.4325
  824MOL0     H11173   2.501   4.830   5.569  4.0902  2.0583  3.1283
  824MOL0     H11174   2.476   4.623   5.673 -2.8816 -1.4890 -0.2816
  824MOL0     H11175   2.191   4.532   6.021 -3.2246 -1.6412 -0.1843
  824MOL0     H11176   2.139   4.516   5.871 -0.4550 -2.5924 -0.7696
  824MOL0     H11177   2.368   4.342   5.959  1.5761  2.6384 -4.2230
  824MOL0     H11178   2.207   4.292   6.007  0.6162 -1.6445  0.7208
  824MOL0     H11179   2.239   4.169   5.802  1.8993 -1.0118  1.4093
  824MOL0     H11180   2.131   4.294   5.764 -0.5137  0.7542 -2.6998
  824MOL0     H11181   2.392   4.415   5.703 -3.7756  1.4483  0.4579
  824MOL0     H11182   2.396   4.238   5.661  0.4217  0.9092  1.8212
  824MOL0     H11183   2.339   4.391   5.474 -0.7754  0.6166 -0.0805
  824MOL0     H11184   2.212   4.273   5.499  0.7675  1.5648 -3.8232
  824MOL0     H11185   2.082   4.481   5.630 -0.7114  1.4197 -0.3598
  824MOL0     H11186   2.224   4.563   5.568 -0.0670 -0.1935  1.6082
  824MOL0     H11187   2.148   4.490   5.338  0.2652  2.2573 -0.2779
  824MOL0     H11188   2.017   4.391   5.421 -0.9793  1.0247  1.9312
  824MOL0     H11189   2.074   4.686   5.380 -0.2425  0.8901 -2.4756
  824MOL0     H11190   1.953   4.643   5.493  2.0498  3.7577 -1.3976
  824MOL0     H11191   1.724   4.475   5.376  0.7614  0.2229  1.3133
  824MOL0     H11192   1.599   4.481   5.023  3.3479  1.0261  0.8338
  824MOL0     H11193   1.576   4.407   5.184  0.2893  0.1267  0.1132
  824MOL0     H11194   1.444   4.594   5.270  1.8051 -0.0022  0.7337
  824MOL0     H11195   1.386   4.526   5.117  0.7465 -1.9705  1.2834
  824MOL0     H11196   1.553   4.782   5.179 -2.3628  0.3424  2.5436
  824MOL0     H11197   1.390   4.794   5.128  1.7082  2.1264 -0.5595
  824MOL0     H11198   1.614   4.734   4.962 -0.2422 -2.2727 -1.0488
  824MOL0     H11199   1.493   4.869   4.946 -0.2537  0.2626  2.8489
  824MOL0     H11200   1.688   4.656   4.796  0.2939 -1.3233  1.4682
  824MOL0     H11201   1.872   4.576   4.694  0.2018 -3.1731  2.2523
  824MOL0     H11202   1.858   4.425   4.632  0.3402 -0.4596 -3.0261
  824MOL0     H11203   1.841   4.560   4.518 -0.3468  0.9038 -0.4696
  824MOL0     H11204   1.416   4.145   4.203  1.0733 -1.3407 -0.8177
  824MOL0     H11205   1.498   4.058   4.007 -1.7449  0.4224  3.3417
  824MOL0     H11206   1.689   3.983   3.842  0.6089  0.3138 -0.5090
  824MOL0     H11207   1.529   4.049   3.781 -0.3657  1.1161  1.2476
  824MOL0     H11208   1.799   4.028   3.637 -0.2199 -0.3365  0.7058
  824MOL0     H11209   1.664   3.930   3.596 -0.9297  0.6316  1.5410
  824MOL0     H11210   1.656   4.230   3.579  0.5021 -1.0872  0.3515
  824MOL0     H11211   1.521   4.127   3.515 -0.2980  1.6918 -0.4946
  824MOL0     H11212   1.692   4.022   3.358 -0.1221  1.8956 -3.9280
  824MOL0     H11213   1.617   4.170   3.320 -0.5615 -1.3238  1.0339
  824MOL0     H11214   1.862   4.166   3.265 -1.0717 -1.2458  0.3487
  824MOL0     H11215   1.903   4.175   3.428  0.5013 -0.9841 -1.8893
  824MOL0     H11216   1.703   4.372   3.292 -1.0258 -0.0888  0.3759
  824MOL0     H11217   1.746   4.376   3.457 -1.0624 -1.2453 -0.7190
  824MOL0     H11218   1.879   4.539   3.313 -0.4894  0.3858  0.8990
  824MOL0     H11219   1.931   4.416   3.197  0.9321 -2.3595  1.0576
  824MOL0     H11220   2.113   4.495   3.358  0.1642  0.9389 -0.2200
  824MOL0     H11221   2.092   4.330   3.333 -3.5113  0.3114 -3.6352
  824MOL0     H11222   1.766   4.389   3.964 -0.2966 -0.1397 -0.7663
  824MOL0     H11223   1.700   4.466   4.179 -2.6703  0.8080  0.9812
  824MOL0     H11224   1.359   4.406   4.514  1.2759  0.3105 -0.8360
  824MOL0     H11225   1.280   4.543   4.696  0.5185 -2.7029 -1.0142
  824MOL0     H11226   2.202   4.773   5.944 -0.0642 -2.3006 -0.0108
  824MOL0     H11227   2.160   4.985   5.804 -3.0324 -2.8997 -0.7681
  824MOL0     H11228   2.005   5.213   5.369 -2.1014  0.5069  0.4591
  824MOL0     H11229   2.022   5.421   5.262 -3.1525 -0.4606  1.7714
  824MOL0     H11230   2.290   5.716   5.442 -0.2541  0.2702  0.7360
  824MOL0     H11231   2.232   5.814   5.315  0.2752  0.5852  1.9598
  824MOL0     H11232   2.089   5.847   5.504 -1.9204  0.7319 -0.3701
  824MOL0     H11233   2.055   5.685   5.533 -0.4420  0.2902  1.6367
  824MOL0     H11234   1.862   5.783   5.447  1.6315  5.1205  1.9562
  824MOL0     H11235   1.921   5.668   5.328  3.2713 -0.4819  0.1931
  824MOL0     H11236   2.027   5.862   5.201  1.4276 -1.8934  3.3183
  824MOL0     H11237   1.947   5.968   5.307  3.1104 -1.2168  1.7271
  824MOL0     H11238   1.598   5.903   5.085  2.4914  5.3543 -2.7531
  824MOL0     H11239   2.394   5.511   5.448  1.8539 -0.7793 -1.3065
  824MOL0     H11240   2.390   5.295   5.561  0.2634 -3.1614 -1.4160
  825MOL0     O11241   0.314   0.824   9.503 -0.6571  0.1191 -0.7690
  825MOL0     C11242   0.206   0.878   9.487 -0.4444  0.4955 -0.3433
  825MOL0     O11243   0.078   0.810   9.463  0.4236 -0.5412 -0.3151
  825MOL0     C11244   0.079   0.684   9.422 -0.3142  0.4172  0.2417
  825MOL0     C11245   0.109   0.669   9.288 -0.5691 -0.3693 -0.3515
  825MOL0     C11246   0.112   0.549   9.219  0.0865 -0.4824  0.2867
  825MOL0     C11247   0.084   0.434   9.279  0.1055  0.1086  0.3561
  825MOL0     O11248   0.081   0.307   9.220  0.8565 -0.2587  0.0052
  825MOL0     C11249   0.085   0.293   9.073  0.7260  0.0598  0.4720
  825MOL0     C11250   0.081   0.153   9.025  0.5809  0.6526 -0.4248
  825MOL0     C11251  -0.030   0.075   9.101 -0.5202  0.3921  0.5354
  825MOL0     C11252  -0.076  -0.059   9.030 -0.6774 -0.7065  0.3977
  825MOL0     C11253  -0.165  -0.128   9.129  0.6106  0.4526  0.2613
  825MOL0     C11254  -0.196  -0.267   9.074  0.9112  0.0525 -0.7538
  825MOL0     C11255  -0.243  -0.355   9.184 -0.8058 -0.4499 -0.3285
  825MOL0     C11256  -0.315  -0.478   9.118  0.0520 -1.0106  0.6620
  825MOL0     N11257  -0.325  -0.580   9.223 -0.1877 -0.6106 -0.4414
  825MOL0     C11258  -0.422  -0.581   9.318  0.2767  0.6742  0.3189
  825MOL0     C11259  -0.435  -0.710   9.352  0.0907 -0.4527 -0.7382
  825MOL0     C11260  -0.546  -0.781   9.437  0.6017  0.3262  1.2714
  825MOL0     C11261  -0.584  -0.742   9.586  0.0905  0.0123  0.4758
  825MOL0     C11262  -0.459  -0.776   9.662 -0.6644  0.0592 -1.2845
  825MOL0     C11263  -0.471  -0.737   9.815  0.2141  0.1033 -0.0426
  825MOL0     O11264  -0.380  -0.831   9.891 -0.5638  0.2158  0.1553
  825MOL0     C11265  -0.248  -0.786   9.895  1.1757  0.2716  0.6891
  825MOL0     C11266  -0.155  -0.889   9.900 -0.1627 -0.2880  0.8244
  825MOL0     C11267  -0.022  -0.868   9.909 -0.0682 -0.7673  0.0563
  825MOL0     C11268   0.062  -0.997   9.933 -0.8664  0.0507 -0.5669
  825MOL0     C11269   0.022  -0.733   9.911 -0.5024 -0.3436 -0.2473
  825MOL0     C11270   0.165  -0.708   9.915  0.5625  0.7833 -0.1061
  825MOL0     O11271   0.206  -0.580   9.947 -0.2595  0.4808  0.2054
  825MOL0     C11272   0.344  -0.556   9.949  0.0948  0.2412  1.0498
  825MOL0     C11273   0.391  -0.481  10.049 -0.5704  1.1076  0.0256
  825MOL0     C11274   0.530  -0.445  10.062  0.0426  0.0189  0.6406
  825MOL0     C11275   0.614  -0.478   9.957  0.1190 -0.3834 -0.0315
  825MOL0     O11276   0.746  -0.444   9.954  0.0095 -0.0311  0.4097
  825MOL0     C11277   0.846  -0.512   9.868  0.1018 -0.4207 -0.8014
  825MOL0     C11278   0.986  -0.449   9.881 -0.4696  0.5646  0.3324
  825MOL0     C11279   1.090  -0.540   9.805  0.5139  0.1801 -0.1031
  825MOL0     C11280   1.232  -0.493   9.829  0.7059 -0.5299  0.4940
  825MOL0     C11281   1.326  -0.593   9.760  0.1826  1.0303  0.7859
  825MOL0     C11282   1.472  -0.565   9.787 -1.1988  0.3713  0.5253
  825MOL0     C11283   1.528  -0.563   9.937 -0.1412 -1.1665  0.6580
  825MOL0     C11284   1.675  -0.566   9.953  0.4276  0.4858  0.3000
  825MOL0    Cl11285   1.744  -0.725   9.900 -0.0158  0.2874  0.2878
  825MOL0     C11286   0.562  -0.552   9.855 -0.5670 -1.0019 -0.2039
  825MOL0     C11287   0.433  -0.596   9.857 -0.3903  0.1015  0.4075
  825MOL0     O11288   0.239  -0.805   9.898  0.6025  0.6138  0.0646
  825MOL0     C11289  -0.068  -0.629   9.915  0.6300  0.2573  0.0839
  825MOL0     C11290  -0.206  -0.657   9.907 -0.5024 -0.2379 -0.0835
  825MOL0     N11291  -0.337  -0.780   9.286 -0.2305 -0.2140 -0.0154
  825MOL0     N11292  -0.272  -0.707   9.200  1.3633 -0.1858 -0.3248
  825MOL0     C11293   0.032   0.440   9.412 -0.9237  0.9184  0.7853
  825MOL0     C11294   0.030   0.562   9.484 -0.2472  0.3169  0.1162
  825MOL0     C11295   0.203   1.023   9.498 -0.1358 -0.0314 -0.4181
  825MOL0     C11296   0.321   1.091   9.491  0.5411 -0.5710  0.3864
  825MOL0     C11297   0.318   1.230   9.483  0.7307  0.1369  1.2497
  825MOL0     C11298   0.198   1.304   9.488 -0.4770  0.1406 -1.3753
  825MOL0     O11299   0.198   1.437   9.473  0.9363 -0.4464 -0.1046
  825MOL0     C11300   0.319   1.523   9.498 -0.6056 -1.1220  0.2126
  825MOL0     C11301   0.278   1.662   9.540  0.2034  0.3459  0.4014
  825MOL0     C11302   0.196   1.657   9.669 -0.0804 -0.7271 -0.1760
  825MOL0     C11303   0.265   1.667   9.800  0.9490 -0.8087  0.0063
  825MOL0     C11304   0.373   1.569   9.818  0.6172 -0.4458  0.3355
  825MOL0     C11305   0.458   1.492   9.837 -0.2811 -0.2830 -0.9574
  825MOL0     C11306   0.079   1.229   9.512 -0.8435 -0.1204  0.4197
  825MOL0     C11307   0.081   1.095   9.504 -0.3628  0.3246 -1.1468
  825MOL0     H11308   0.109   0.767   9.241 -2.2059  0.3944  1.1024
  825MOL0     H11309   0.138   0.550   9.113  0.7162 -1.0151  0.4253
  825MOL0     H11310  -0.001   0.347   9.031  0.8853 -0.2649 -0.2806
  825MOL0     H11311   0.185   0.330   9.047  1.9261 -0.1731  4.1737
  825MOL0     H11312   0.064   0.165   8.917  0.2608  1.1279 -0.3228
  825MOL0     H11313   0.178   0.117   9.061  1.4597  4.2506  1.2587
  825MOL0     H11314   0.009   0.064   9.202  1.1817 -0.7249 -0.1968
  825MOL0     H11315  -0.123   0.131   9.085 -0.9837  0.2143  2.3838
  825MOL0     H11316  -0.116  -0.035   8.931 -0.8783 -0.4488  0.5414
  825MOL0     H11317   0.017  -0.117   9.023  0.9609  1.8866 -0.6659
  825MOL0     H11318  -0.108  -0.137   9.222 -0.5871  0.5443  1.0270
  825MOL0     H11319  -0.251  -0.067   9.160 -0.6158 -1.7296  1.4158
  825MOL0     H11320  -0.283  -0.252   9.009  2.1572  0.5978 -2.3515
  825MOL0     H11321  -0.117  -0.316   9.017 -0.3143  0.1019 -2.5937
  825MOL0     H11322  -0.157  -0.388   9.242  1.2051  0.5892 -2.5665
  825MOL0     H11323  -0.312  -0.300   9.250 -0.0531  1.1900 -0.8468
  825MOL0     H11324  -0.249  -0.517   9.041 -1.3506 -0.8932 -0.6392
  825MOL0     H11325  -0.403  -0.441   9.065 -0.0231  1.7636  2.4979
  825MOL0     H11326  -0.513  -0.523   9.330 -0.5351 -0.2591 -1.1101
  825MOL0     H11327  -0.629  -0.767   9.367 -0.4843  0.2186  2.4789
  825MOL0     H11328  -0.515  -0.886   9.445 -0.0831  0.0088  0.0183
  825MOL0     H11329  -0.668  -0.804   9.620  1.7844 -2.5548  0.2389
  825MOL0     H11330  -0.603  -0.634   9.579  3.6152  0.6426 -1.8757
  825MOL0     H11331  -0.370  -0.730   9.620 -0.7963  0.3751 -1.2209
  825MOL0     H11332  -0.446  -0.884   9.652  0.8411  0.2483 -1.4709
  825MOL0     H11333  -0.571  -0.759   9.853  0.5378 -0.6265  0.4117
  825MOL0     H11334  -0.449  -0.630   9.824  0.5299 -0.0763  1.8978
  825MOL0     H11335  -0.196  -0.989   9.891  1.6625 -0.9013 -1.8512
  825MOL0     H11336   0.110  -0.999   9.835 -2.8926  1.7225 -1.6725
  825MOL0     H11337   0.127  -0.981  10.020  0.3334  0.2668 -1.4733
  825MOL0     H11338   0.002  -1.084   9.961  1.0404  0.1970  5.3270
  825MOL0     H11339   0.318  -0.445  10.121 -0.6877 -0.2118  0.5894
  825MOL0     H11340   0.576  -0.397  10.148  0.5639 -0.4739  0.6477
  825MOL0     H11341   0.848  -0.620   9.883 -0.0965 -0.4576 -1.0086
  825MOL0     H11342   0.810  -0.512   9.764 -2.5726 -4.2830 -0.0715
  825MOL0     H11343   0.997  -0.344   9.855  0.3818  0.2612 -0.5950
  825MOL0     H11344   0.999  -0.463   9.989  1.6006  0.8412  0.1608
  825MOL0     H11345   1.069  -0.550   9.698  1.6035 -1.8701 -0.1781
  825MOL0     H11346   1.076  -0.632   9.862 -3.1159  0.5161 -0.2632
  825MOL0     H11347   1.241  -0.390   9.794  0.3440 -0.0645  1.7143
  825MOL0     H11348   1.246  -0.500   9.938 -0.8023 -0.6942  0.6906
  825MOL0     H11349   1.314  -0.583   9.652  2.6419  3.2912  0.6206
  825MOL0     H11350   1.294  -0.694   9.785 -0.7491  0.9884 -0.4865
  825MOL0     H11351   1.530  -0.642   9.735 -1.0725 -2.0790  3.9515
  825MOL0     H11352   1.500  -0.465   9.753 -1.8630  0.6648  0.8217
  825MOL0     H11353   1.487  -0.646   9.994 -3.2954  0.1950  0.5682
  825MOL0     H11354   1.485  -0.471   9.977  0.8330 -0.6051  0.4595
  825MOL0     H11355   1.693  -0.572  10.060  2.1878  0.3349  0.0297
  825MOL0     H11356   1.725  -0.482   9.904 -0.9753  0.1886 -1.7998
  825MOL0     H11357   0.621  -0.569   9.765  0.3914 -1.3336  0.4689
  825MOL0     H11358   0.403  -0.666   9.779 -2.6359  0.6196  0.7314
  825MOL0     H11359  -0.033  -0.527   9.920 -3.4943  1.8802 -0.5260
  825MOL0     H11360  -0.279  -0.576   9.902 -0.8191 -0.3894  1.5765
  825MOL0     H11361   0.006   0.350   9.467  0.2365 -0.9621 -1.5205
  825MOL0     H11362  -0.004   0.556   9.587  0.7662 -0.4498  0.4199
  825MOL0     H11363   0.416   1.039   9.481  0.3470 -0.5010 -2.7019
  825MOL0     H11364   0.408   1.287   9.461 -0.6331  1.3560 -1.6383
  825MOL0     H11365   0.387   1.479   9.572  0.9008 -1.3771 -1.2736
  825MOL0     H11366   0.374   1.539   9.405  0.7488 -0.5119  1.0847
  825MOL0     H11367   0.219   1.694   9.454  0.6204 -4.6618 -2.1622
  825MOL0     H11368   0.362   1.732   9.550 -1.4455  2.1534  2.4093
  825MOL0     H11369   0.125   1.573   9.673  2.5966 -3.1199  0.0667
  825MOL0     H11370   0.129   1.743   9.679 -3.0807 -3.1635  4.1477
  825MOL0     H11371   0.202   1.645   9.886  1.8173 -0.2181  0.8225
  825MOL0     H11372   0.299   1.771   9.797  0.4625 -0.6142  0.8389
  825MOL0     H11373   0.521   1.408   9.857  1.9980  1.4424 -0.6130
  825MOL0     H11374  -0.015   1.283   9.515 -1.0539 -0.5371  2.1747
  825MOL0     H11375  -0.016   1.046   9.501  0.2670 -0.9884 -0.8904
  826MOL0     O11376   6.900   4.699   4.343  0.6085  0.0339 -0.9874
  826MOL0     C11377   6.812   4.705   4.253  0.1371  0.3428  0.0637
  826MOL0     O11378   6.814   4.799   4.153  0.3953  0.4012  0.5409
  826MOL0     C11379   6.908   4.902   4.161 -0.2826  0.4747  0.7084
  826MOL0     C11380   7.002   4.929   4.064  0.2112  0.0904  0.5254
  826MOL0     C11381   7.097   5.030   4.071  0.6214 -0.0234 -0.1249
  826MOL0     C11382   7.103   5.106   4.187  0.0561  0.6698 -0.2379
  826MOL0     O11383   7.211   5.198   4.186  0.1075  0.5609 -0.5449
  826MOL0     C11384   7.223   5.292   4.287 -0.2616  0.0987 -0.4516
  826MOL0     C11385   7.361   5.356   4.279 -0.2197  0.2286 -0.3904
  826MOL0     C11386   7.474   5.259   4.325 -0.0128  0.1517  0.4348
  826MOL0     C11387   7.597   5.331   4.324 -0.0823 -0.4708 -0.3107
  826MOL0     C11388   7.609   5.425   4.442  0.1645 -0.7139 -0.8061
  826MOL0     C11389   7.757   5.468   4.450  1.5347  0.8299  0.1941
  826MOL0     C11390   7.848   5.360   4.500 -0.3736  0.2285  0.0544
  826MOL0     C11391   7.969   5.412   4.586  0.1155 -0.7820  0.7276
  826MOL0     N11392   8.060   5.499   4.505 -0.1849 -0.1971  0.3592
  826MOL0     C11393   8.034   5.635   4.484  0.8350  0.3682  0.4722
  826MOL0     C11394   8.123   5.683   4.389 -0.0481  0.9975 -0.2151
  826MOL0     C11395   8.139   5.809   4.306  0.9935 -0.7817  0.0273
  826MOL0     C11396   8.043   5.842   4.182 -0.0619  0.6804 -0.8769
  826MOL0     C11397   8.045   5.992   4.135 -0.1960  0.1844  0.6187
  826MOL0     C11398   7.916   6.032   4.067  0.0767  0.1423  0.8160
  826MOL0     O11399   7.889   5.950   3.959 -1.3315 -0.5643 -0.0021
  826MOL0     C11400   7.807   5.973   3.860  0.0449  0.1876 -0.4103
  826MOL0     C11401   7.708   6.078   3.857  0.3342  0.0493 -0.6413
  826MOL0     C11402   7.621   6.099   3.742  0.1825  0.0873  0.5029
  826MOL0     C11403   7.515   6.206   3.749  0.0043  0.6525 -0.1282
  826MOL0     C11404   7.644   6.011   3.628  1.2841 -0.5426 -0.1257
  826MOL0     C11405   7.562   6.009   3.509  0.3849  0.2216 -0.2996
  826MOL0     O11406   7.516   6.120   3.452 -0.8615 -0.4192  0.4030
  826MOL0     C11407   7.443   6.111   3.341  0.5129 -0.2253  1.3486
  826MOL0     C11408   7.478   6.191   3.230 -1.0396 -0.3504 -1.1604
  826MOL0     C11409   7.398   6.191   3.112  0.4713  0.9907 -0.5858
  826MOL0     C11410   7.291   6.104   3.095  0.0943  0.2776 -0.3013
  826MOL0     O11411   7.218   6.124   2.984  0.4618 -0.3420  0.0482
  826MOL0     C11412   7.267   6.037   2.879  0.3404 -1.0507 -0.2331
  826MOL0     C11413   7.195   6.062   2.749 -0.1749 -0.6338  0.4973
  826MOL0     C11414   7.212   6.218   2.723  0.1890  0.7102  0.0547
  826MOL0     C11415   7.185   6.249   2.581 -0.3655 -0.7561  0.2892
  826MOL0     C11416   7.206   6.400   2.536  0.5821 -0.5357 -0.2552
  826MOL0     C11417   7.148   6.428   2.396 -0.6250  0.8940 -0.9597
  826MOL0     C11418   7.205   6.561   2.335 -0.5293  0.5351 -1.0741
  826MOL0     C11419   7.105   6.644   2.255 -0.8001 -0.2416  0.3973
  826MOL0    Cl11420   7.154   6.663   2.092  0.4270  0.1442  0.1004
  826MOL0     C11421   7.248   6.033   3.209 -0.8696 -0.9749  0.2954
  826MOL0     C11422   7.328   6.030   3.322  0.0906 -0.0873  0.4274
  826MOL0     O11423   7.557   5.896   3.463 -0.4293  0.2004  0.4607
  826MOL0     C11424   7.752   5.920   3.630  0.2709 -0.8735  0.9934
  826MOL0     C11425   7.833   5.908   3.744  0.6174  0.1572 -0.3493
  826MOL0     N11426   8.202   5.569   4.361 -0.7123 -0.7155 -0.8467
  826MOL0     N11427   8.164   5.466   4.423 -0.3258  0.0297  0.4452
  826MOL0     C11428   7.000   5.084   4.284 -1.3971  0.1454 -0.5672
  826MOL0     C11429   6.909   4.982   4.269  0.3722 -0.9819 -0.6360
  826MOL0     C11430   6.688   4.623   4.267  0.7414 -0.4694  0.6209
  826MOL0     C11431   6.586   4.634   4.174  0.0942 -0.4666  0.0700
  826MOL0     C11432   6.467   4.567   4.187  0.8083  0.6577  0.0371
  826MOL0     C11433   6.447   4.475   4.294 -0.3046  0.5394  0.2257
  826MOL0     O11434   6.340   4.394   4.328  0.2294 -0.5402  0.0300
  826MOL0     C11435   6.227   4.401   4.240 -1.2045  0.3042 -0.3899
  826MOL0     C11436   6.137   4.277   4.252 -0.3561  0.0646 -0.3450
  826MOL0     C11437   6.192   4.150   4.192  0.3689  1.0464 -0.0652
  826MOL0     C11438   6.306   4.093   4.284 -0.6171 -0.6274 -0.1555
  826MOL0     C11439   6.250   4.025   4.404  0.0760  0.3985  0.9273
  826MOL0     C11440   6.204   3.971   4.499 -0.7308  1.2510 -0.5487
  826MOL0     C11441   6.551   4.459   4.377  0.3263  0.5331 -0.8099
  826MOL0     C11442   6.671   4.532   4.377  0.4120  0.3439 -0.0347
  826MOL0     H11443   6.994   4.864   3.978 -1.4977 -2.1057  2.1963
  826MOL0     H11444   7.174   5.043   3.995  1.3900 -0.7449  0.5136
  826MOL0     H11445   7.150   5.371   4.267 -0.2974  0.7468  1.8892
  826MOL0     H11446   7.215   5.253   4.389  1.9500  2.7776  0.8989
  826MOL0     H11447   7.375   5.386   4.175  1.8379  1.6442  0.2286
  826MOL0     H11448   7.379   5.445   4.340  0.5587 -0.3144  0.1940
  826MOL0     H11449   7.459   5.208   4.420 -1.0211 -1.5792 -0.6028
  826MOL0     H11450   7.488   5.184   4.247 -2.1728  1.5120 -1.4113
  826MOL0     H11451   7.673   5.252   4.336  0.3194 -0.3424 -1.8001
  826MOL0     H11452   7.620   5.379   4.228  1.2419 -2.2494 -0.9416
  826MOL0     H11453   7.542   5.510   4.427  1.1951 -0.1280 -2.3897
  826MOL0     H11454   7.577   5.370   4.531  2.8137 -1.4194 -0.2031
  826MOL0     H11455   7.790   5.503   4.352 -1.0824  1.9461 -0.3802
  826MOL0     H11456   7.758   5.552   4.520 -2.1544  0.9138  0.3111
  826MOL0     H11457   7.791   5.298   4.570  4.1919 -4.8003 -0.0029
  826MOL0     H11458   7.876   5.298   4.414  1.0271  0.9492 -0.0395
  826MOL0     H11459   8.022   5.326   4.627  2.7087 -0.9562 -2.6008
  826MOL0     H11460   7.918   5.469   4.664  0.9291  3.0334 -1.2542
  826MOL0     H11461   7.950   5.689   4.527  2.9587  3.6871  0.8333
  826MOL0     H11462   8.139   5.890   4.379  4.1676  0.0635 -0.7437
  826MOL0     H11463   8.240   5.815   4.265  0.0693  3.6259 -2.2017
  826MOL0     H11464   7.941   5.806   4.199  1.4072 -3.5376  0.1476
  826MOL0     H11465   8.068   5.783   4.093 -2.1941  2.6266 -2.9137
  826MOL0     H11466   8.126   6.025   4.070  0.3448  1.2035  1.7765
  826MOL0     H11467   8.054   6.053   4.225  2.6738  2.2051 -0.8867
  826MOL0     H11468   7.923   6.139   4.045 -2.5082  0.4347  1.1548
  826MOL0     H11469   7.839   6.020   4.144 -0.2831  0.9129  0.5884
  826MOL0     H11470   7.682   6.138   3.942 -2.1882 -2.6435  0.6605
  826MOL0     H11471   7.514   6.257   3.845  1.7237  0.8012 -0.1435
  826MOL0     H11472   7.545   6.275   3.669  0.5933 -1.6637 -2.0292
  826MOL0     H11473   7.411   6.181   3.728 -0.3316  3.0731 -1.7749
  826MOL0     H11474   7.564   6.257   3.235 -0.3108 -1.3451  2.6441
  826MOL0     H11475   7.442   6.239   3.025  1.6576  1.1515  0.0891
  826MOL0     H11476   7.375   6.050   2.869  0.3073 -1.0866 -0.6633
  826MOL0     H11477   7.238   5.933   2.897  2.4255 -2.2282 -2.9745
  826MOL0     H11478   7.251   6.014   2.668  1.3003 -0.0691  1.1457
  826MOL0     H11479   7.088   6.037   2.749 -0.5395  0.8194 -0.4677
  826MOL0     H11480   7.311   6.251   2.758  0.4437  1.9745 -1.7386
  826MOL0     H11481   7.131   6.259   2.784  0.5498 -0.6317  1.5194
  826MOL0     H11482   7.249   6.183   2.522 -1.5499 -2.4207  0.7726
  826MOL0     H11483   7.087   6.213   2.547 -1.6739 -0.3329  3.3271
  826MOL0     H11484   7.311   6.428   2.530  0.1978  0.8237 -1.3763
  826MOL0     H11485   7.169   6.463   2.618  0.9972 -1.2756  0.5124
  826MOL0     H11486   7.185   6.342   2.339  3.4103  1.2867  0.7145
  826MOL0     H11487   7.040   6.444   2.407 -0.1795  3.9549 -0.0638
  826MOL0     H11488   7.293   6.535   2.276  1.9792  3.5949  0.9522
  826MOL0     H11489   7.249   6.626   2.411 -1.3284  0.3296 -0.4132
  826MOL0     H11490   7.086   6.745   2.292  3.0707  1.3745 -1.5127
  826MOL0     H11491   7.005   6.598   2.252 -0.9089  0.0388 -1.5295
  826MOL0     H11492   7.154   5.982   3.193 -0.7618 -0.7725 -1.0935
  826MOL0     H11493   7.290   5.967   3.402  1.1722 -2.6824 -0.9696
  826MOL0     H11494   7.780   5.858   3.546  0.4462  0.2881  0.1752
  826MOL0     H11495   7.920   5.842   3.739  0.7268  0.1679  1.1621
  826MOL0     H11496   7.005   5.140   4.377 -1.4070  1.0649 -1.1036
  826MOL0     H11497   6.829   4.977   4.343  0.5407 -0.5703 -0.4236
  826MOL0     H11498   6.602   4.699   4.089 -2.8229 -0.2643 -0.4171
  826MOL0     H11499   6.387   4.569   4.114 -0.8735 -2.2596  1.6223
  826MOL0     H11500   6.171   4.493   4.257  1.1612  2.0996 -1.6437
  826MOL0     H11501   6.262   4.405   4.136 -4.8432  2.7301 -1.7268
  826MOL0     H11502   6.042   4.295   4.200 -0.6122  1.8043  0.6639
  826MOL0     H11503   6.103   4.261   4.355 -1.5708 -0.8283 -0.8519
  826MOL0     H11504   6.225   4.164   4.089 -0.7690 -0.5123 -0.6838
  826MOL0     H11505   6.114   4.075   4.174  1.8641  0.0650 -3.1584
  826MOL0     H11506   6.388   4.161   4.310  0.0472 -1.6514  0.4979
  826MOL0     H11507   6.355   4.015   4.224  1.0726  0.0336  0.2947
  826MOL0     H11508   6.139   3.915   4.563 -0.0132  0.9803 -0.0549
  826MOL0     H11509   6.534   4.382   4.452 -2.5838  0.4427 -1.4470
  826MOL0     H11510   6.742   4.539   4.459 -0.3430  0.6159  0.6107
  827MOL0     O11511   2.816   2.461   2.683 -0.3762 -0.0169 -0.0848
  827MOL0     C11512   2.720   2.441   2.756  0.1531 -0.9869  0.0179
  827MOL0     O11513   2.615   2.527   2.779  0.0323 -0.5613 -0.6226
  827MOL0     C11514   2.608   2.639   2.702 -0.3108  0.0219 -0.5366
  827MOL0     C11515   2.489   2.653   2.629  0.6265 -0.3050 -0.3586
  827MOL0     C11516   2.468   2.771   2.559  0.1538  0.3236 -1.3673
  827MOL0     C11517   2.558   2.874   2.566 -1.1290 -0.4219  0.1581
  827MOL0     O11518   2.544   2.994   2.493  0.2483 -0.2755 -0.3725
  827MOL0     C11519   2.565   2.965   2.354  0.7013  0.1871 -0.4722
  827MOL0     C11520   2.647   3.074   2.292  0.5763 -0.5614  1.6155
  827MOL0     C11521   2.582   3.207   2.284  0.8529 -0.1233 -0.1117
  827MOL0     C11522   2.685   3.320   2.259  0.1977  0.1407  0.2166
  827MOL0     C11523   2.610   3.452   2.296  1.3154  0.1240 -0.5180
  827MOL0     C11524   2.679   3.569   2.222 -1.0564  0.4198 -0.2703
  827MOL0     C11525   2.612   3.706   2.242  0.2079 -0.2952 -0.7948
  827MOL0     C11526   2.616   3.756   2.385 -0.4269 -0.2413 -0.1626
  827MOL0     N11527   2.531   3.877   2.381 -0.4977  0.6334  0.7139
  827MOL0     C11528   2.396   3.881   2.373 -0.0940  0.2534  0.7934
  827MOL0     C11529   2.374   4.006   2.335 -0.3814  0.3522  0.4168
  827MOL0     C11530   2.233   4.052   2.297 -0.2284 -0.2688 -0.3925
  827MOL0     C11531   2.179   4.179   2.357  0.5277  0.1303 -0.0369
  827MOL0     C11532   2.028   4.189   2.351 -0.1540  0.2026  0.4250
  827MOL0     C11533   1.977   4.190   2.202 -0.6253 -0.2776 -0.1879
  827MOL0     O11534   1.848   4.241   2.191 -0.2244 -0.6290 -0.2905
  827MOL0     C11535   1.801   4.263   2.064 -0.3071  0.0706 -0.1685
  827MOL0     C11536   1.667   4.283   2.062 -0.0379  0.9370 -0.0833
  827MOL0     C11537   1.598   4.321   1.943 -0.1360  0.3801  0.5021
  827MOL0     C11538   1.452   4.347   1.938  1.0270  1.0316  0.3742
  827MOL0     C11539   1.673   4.346   1.826 -0.2888  0.0000 -0.0865
  827MOL0     C11540   1.625   4.375   1.686 -0.0291  0.2997 -0.7607
  827MOL0     O11541   1.541   4.471   1.676  0.3586 -0.4394  0.5249
  827MOL0     C11542   1.410   4.451   1.629 -0.4866  0.9447  0.0050
  827MOL0     C11543   1.323   4.557   1.636 -0.1135 -0.1634  0.0576
  827MOL0     C11544   1.186   4.542   1.621 -0.3081 -0.2427 -0.2569
  827MOL0     C11545   1.134   4.413   1.592 -0.1583  0.4708  0.4872
  827MOL0     O11546   1.003   4.394   1.581 -0.5518  0.2060 -0.2198
  827MOL0     C11547   0.919   4.482   1.657  0.0192  0.3921 -0.1412
  827MOL0     C11548   0.780   4.415   1.671  0.5013 -0.7735 -0.3371
  827MOL0     C11549   0.698   4.504   1.762  0.2631 -0.7648  0.1201
  827MOL0     C11550   0.553   4.483   1.774 -0.3079 -0.0604  0.2252
  827MOL0     C11551   0.486   4.577   1.874  0.1267  0.0669 -0.8489
  827MOL0     C11552   0.337   4.575   1.837 -0.0281  0.1733 -0.3570
  827MOL0     C11553   0.252   4.631   1.946 -0.8125 -0.5637 -0.0496
  827MOL0     C11554   0.107   4.603   1.899  0.2370  0.5436 -0.7070
  827MOL0    Cl11555  -0.007   4.669   2.026  0.4116  0.0506  0.0444
  827MOL0     C11556   1.228   4.315   1.571  0.7167 -0.1602  0.1844
  827MOL0     C11557   1.357   4.328   1.596  0.5989  0.0980  0.2725
  827MOL0     O11558   1.653   4.302   1.600 -0.2920  0.1468  0.9274
  827MOL0     C11559   1.817   4.313   1.827 -0.1983  0.3590 -0.8445
  827MOL0     C11560   1.879   4.268   1.949 -0.0027 -0.4218 -0.5828
  827MOL0     N11561   2.490   4.086   2.330 -0.4830 -0.4277 -0.3012
  827MOL0     N11562   2.582   4.003   2.360 -0.5735  0.3886 -0.5077
  827MOL0     C11563   2.664   2.863   2.661  0.9531  0.2533 -0.7666
  827MOL0     C11564   2.694   2.745   2.725  1.0216  0.2927 -0.2008
  827MOL0     C11565   2.693   2.305   2.816 -0.6514 -0.2568  0.7546
  827MOL0     C11566   2.589   2.278   2.907 -0.0981  0.8681 -0.1960
  827MOL0     C11567   2.567   2.146   2.943  0.1174  0.3289 -0.0370
  827MOL0     C11568   2.637   2.035   2.883  0.7083 -0.5561 -1.1041
  827MOL0     O11569   2.613   1.903   2.923 -1.1731  0.1361 -0.6947
  827MOL0     C11570   2.478   1.866   2.958  0.6828  0.4806  0.4821
  827MOL0     C11571   2.426   1.746   2.872 -0.0655  0.4700  0.6714
  827MOL0     C11572   2.524   1.623   2.860  0.1067 -0.7102  0.7159
  827MOL0     C11573   2.635   1.638   2.746  0.6853  0.0633 -0.0326
  827MOL0     C11574   2.736   1.538   2.771  0.2223 -0.3416  0.2913
  827MOL0     C11575   2.824   1.465   2.816  0.0989  0.3281 -0.1521
  827MOL0     C11576   2.741   2.059   2.804 -0.5212 -0.2644  0.5226
  827MOL0     C11577   2.776   2.198   2.774  0.3447  0.3064 -0.8819
  827MOL0     H11578   2.407   2.581   2.627 -0.8645  1.2250  1.2441
  827MOL0     H11579   2.372   2.796   2.514 -0.9297  1.7457  1.5123
  827MOL0     H11580   2.605   2.865   2.337 -0.2112 -1.2731  4.3336
  827MOL0     H11581   2.462   2.973   2.316 -0.6701 -3.4504  1.9879
  827MOL0     H11582   2.743   3.084   2.344  1.7078  2.3353 -0.7216
  827MOL0     H11583   2.665   3.057   2.185  0.5542  6.5586 -0.0613
  827MOL0     H11584   2.488   3.220   2.229  0.4338  2.4639  1.0876
  827MOL0     H11585   2.558   3.222   2.390  0.5932 -1.8473  0.1060
  827MOL0     H11586   2.774   3.296   2.318  0.3608  1.6833  0.6202
  827MOL0     H11587   2.716   3.313   2.154  3.0865  0.0767  0.9671
  827MOL0     H11588   2.503   3.454   2.275  1.3668 -0.3251 -0.8367
  827MOL0     H11589   2.624   3.468   2.403 -0.2079 -0.8761 -0.1414
  827MOL0     H11590   2.780   3.582   2.261 -0.6916 -1.8227 -0.2991
  827MOL0     H11591   2.683   3.538   2.117 -2.8032 -0.3639 -0.1444
  827MOL0     H11592   2.655   3.787   2.182 -2.1961  0.8499 -1.0653
  827MOL0     H11593   2.506   3.697   2.218 -0.6459  3.0982  1.0509
  827MOL0     H11594   2.715   3.783   2.423 -1.0193  2.3001 -0.2313
  827MOL0     H11595   2.570   3.691   2.460 -0.3487  0.9713  0.9715
  827MOL0     H11596   2.322   3.805   2.397 -1.0242  1.4281  1.7757
  827MOL0     H11597   2.230   4.068   2.189  0.4836  0.3289 -0.3348
  827MOL0     H11598   2.161   3.973   2.320 -3.4663  2.6780  0.4919
  827MOL0     H11599   2.219   4.262   2.298 -0.0518  0.5790  0.1887
  827MOL0     H11600   2.215   4.190   2.460 -2.3102  0.6739  1.0034
  827MOL0     H11601   2.013   4.280   2.409  1.8312 -2.5962  6.0221
  827MOL0     H11602   1.973   4.114   2.409 -0.3922 -0.0032 -0.0597
  827MOL0     H11603   1.987   4.091   2.157  1.9635 -0.5905  0.8852
  827MOL0     H11604   2.046   4.255   2.148 -1.7146  2.2835  1.2949
  827MOL0     H11605   1.624   4.257   2.158  0.9109  1.0761  0.3814
  827MOL0     H11606   1.403   4.298   2.022 -0.8830 -0.7045 -1.6082
  827MOL0     H11607   1.442   4.455   1.945 -0.6423  1.2485 -3.1786
  827MOL0     H11608   1.392   4.310   1.854 -0.0776 -0.6871  1.8509
  827MOL0     H11609   1.356   4.654   1.671  0.1335  1.3884 -3.9574
  827MOL0     H11610   1.128   4.633   1.631  0.8477  0.6534 -1.4593
  827MOL0     H11611   0.954   4.505   1.758  0.8060  0.5645 -0.4439
  827MOL0     H11612   0.916   4.572   1.595  1.2649  0.6295  0.1094
  827MOL0     H11613   0.742   4.403   1.569 -0.3930 -1.4355  0.0610
  827MOL0     H11614   0.800   4.316   1.713  1.5497 -0.0035  1.0661
  827MOL0     H11615   0.709   4.600   1.711  2.3738 -1.6636 -1.2560
  827MOL0     H11616   0.749   4.489   1.858  2.4353 -1.6410 -1.1099
  827MOL0     H11617   0.525   4.513   1.673 -1.9141 -1.4103  0.2308
  827MOL0     H11618   0.528   4.377   1.784 -0.9545  0.0889  0.2523
  827MOL0     H11619   0.520   4.677   1.845 -2.7355  0.5372 -2.9462
  827MOL0     H11620   0.520   4.552   1.975  1.0830 -2.7591 -1.7761
  827MOL0     H11621   0.322   4.629   1.743  0.8629  0.5441 -0.2928
  827MOL0     H11622   0.306   4.472   1.817 -0.9337  0.6227 -1.3431
  827MOL0     H11623   0.273   4.738   1.959  0.2118 -0.8827  1.1578
  827MOL0     H11624   0.285   4.585   2.040  2.4376 -0.9501 -1.2279
  827MOL0     H11625   0.112   4.494   1.892  1.7138  0.5257  0.1191
  827MOL0     H11626   0.103   4.646   1.798  2.0610  0.0356 -1.0331
  827MOL0     H11627   1.179   4.226   1.533 -1.5628  1.1843 -0.2144
  827MOL0     H11628   1.412   4.236   1.585 -3.4362 -2.4518 -0.6538
  827MOL0     H11629   1.871   4.319   1.734 -0.7506  0.0509 -1.1941
  827MOL0     H11630   1.985   4.247   1.955  0.1544 -0.2678 -2.2545
  827MOL0     H11631   2.729   2.947   2.683 -1.7928  1.5756  3.6933
  827MOL0     H11632   2.783   2.734   2.786 -0.7373  1.0264  2.6788
  827MOL0     H11633   2.536   2.359   2.957 -1.7114  0.2710 -0.8794
  827MOL0     H11634   2.500   2.114   3.021 -0.7059 -0.6970 -1.1377
  827MOL0     H11635   2.468   1.860   3.067  2.1937 -1.5298  0.5763
  827MOL0     H11636   2.421   1.954   2.929  2.1162  1.7004  1.2545
  827MOL0     H11637   2.417   1.770   2.766  2.1036  0.7196  0.5071
  827MOL0     H11638   2.329   1.720   2.916 -0.4270  1.8193  0.7078
  827MOL0     H11639   2.471   1.531   2.832  1.8959 -0.7408 -3.3042
  827MOL0     H11640   2.576   1.610   2.955  0.5031 -0.2556  0.5669
  827MOL0     H11641   2.684   1.735   2.738 -0.6144  0.5978 -2.3041
  827MOL0     H11642   2.587   1.624   2.649  0.8864 -0.3554 -0.0753
  827MOL0     H11643   2.905   1.403   2.847  2.1142  3.0714  0.3963
  827MOL0     H11644   2.799   1.981   2.756 -0.3639  1.3244 -2.0426
  827MOL0     H11645   2.856   2.221   2.705  0.7160  0.4042 -0.4202
  828MOL0     O11646   2.074   7.232   7.594 -0.1550  0.1158  0.1969
  828MOL0     C11647   2.039   7.265   7.708 -0.5730 -0.3527 -0.7424
  828MOL0     O11648   2.130   7.287   7.812  0.4576  0.2348  0.3840
  828MOL0     C11649   2.268   7.277   7.781  0.6637  0.4056  0.2390
  828MOL0     C11650   2.315   7.158   7.733  0.3719 -1.0259  0.7204
  828MOL0     C11651   2.444   7.135   7.702 -1.7114 -0.7084 -0.5368
  828MOL0     C11652   2.543   7.230   7.730 -0.9278  0.2012 -0.0331
  828MOL0     O11653   2.680   7.192   7.707  0.5472 -0.0926  0.2148
  828MOL0     C11654   2.765   7.278   7.626  0.6767 -0.6169  0.8401
  828MOL0     C11655   2.865   7.190   7.557  1.0232  0.6899  0.1115
  828MOL0     C11656   2.944   7.271   7.460  0.2147 -0.4357 -0.1593
  828MOL0     C11657   2.856   7.293   7.323  0.0222 -0.0055  0.3923
  828MOL0     C11658   2.937   7.357   7.213 -1.4144  0.2579 -0.5372
  828MOL0     C11659   2.965   7.501   7.235 -0.5786  0.6497 -1.3229
  828MOL0     C11660   3.076   7.550   7.145  0.4402 -0.0016 -0.6774
  828MOL0     C11661   3.222   7.524   7.206 -0.6481  1.0219 -0.7485
  828MOL0     N11662   3.327   7.538   7.104 -0.7902 -1.1899  0.0523
  828MOL0     C11663   3.455   7.485   7.103 -0.1658 -0.9907 -0.7860
  828MOL0     C11664   3.521   7.541   7.006 -1.0202 -0.5419  0.3885
  828MOL0     C11665   3.669   7.533   6.980 -0.5371 -0.2333  0.2848
  828MOL0     C11666   3.723   7.396   7.028  0.1452 -0.0147 -0.1491
  828MOL0     C11667   3.878   7.373   7.024  0.0452  0.1916 -0.2953
  828MOL0     C11668   3.947   7.409   6.892  0.0318 -0.6466  0.1197
  828MOL0     O11669   4.082   7.426   6.923  0.3212 -0.8587  0.4097
  828MOL0     C11670   4.182   7.404   6.838 -1.1822  0.3431  0.2251
  828MOL0     C11671   4.313   7.407   6.879  0.3338 -0.2112 -0.2257
  828MOL0     C11672   4.419   7.416   6.791  0.3873  0.9547  0.3500
  828MOL0     C11673   4.552   7.448   6.850 -0.3338 -0.1553 -0.3127
  828MOL0     C11674   4.401   7.384   6.652  0.2644  0.6677  0.5621
  828MOL0     C11675   4.509   7.376   6.552 -0.9363  0.1037  0.5602
  828MOL0     O11676   4.467   7.318   6.438 -0.9831 -0.3335  0.0437
  828MOL0     C11677   4.551   7.219   6.394 -0.2539  0.3295 -0.2801
  828MOL0     C11678   4.498   7.089   6.385  0.2891  0.3583  0.1674
  828MOL0     C11679   4.576   6.977   6.341  0.8363 -0.5266 -0.8208
  828MOL0     C11680   4.696   6.997   6.290 -0.6421 -0.5008 -1.1477
  828MOL0     O11681   4.761   6.895   6.233  0.4986  0.1000  0.4793
  828MOL0     C11682   4.723   6.860   6.105  0.1344 -0.2146  0.6881
  828MOL0     C11683   4.830   6.775   6.040  0.8226 -0.7349 -0.1417
  828MOL0     C11684   4.830   6.624   6.083 -0.3083  0.2770 -0.0947
  828MOL0     C11685   4.913   6.543   5.995  0.7712 -0.1277 -0.8385
  828MOL0     C11686   4.848   6.517   5.857  0.0564 -0.1273  0.0440
  828MOL0     C11687   4.920   6.397   5.769  0.1611 -0.8657 -0.1685
  828MOL0     C11688   4.936   6.261   5.835 -0.2344  0.4994  0.1188
  828MOL0     C11689   5.009   6.150   5.763  0.3654  0.2291  0.4666
  828MOL0    Cl11690   5.058   6.022   5.868 -0.3375 -0.3805  0.6067
  828MOL0     C11691   4.751   7.129   6.290  0.6784 -0.2551  0.5611
  828MOL0     C11692   4.682   7.231   6.346 -0.2332 -0.1378 -0.8652
  828MOL0     O11693   4.620   7.434   6.565  0.0109  0.6777 -0.6555
  828MOL0     C11694   4.262   7.373   6.613  0.8933  1.0904  0.5456
  828MOL0     C11695   4.157   7.382   6.699  0.0027 -0.6661 -0.0005
  828MOL0     N11696   3.429   7.614   6.936 -0.4280  0.4180  0.0839
  828MOL0     N11697   3.317   7.616   6.996  0.1962  0.3028 -1.4452
  828MOL0     C11698   2.503   7.353   7.769  0.9755 -0.5680 -0.3993
  828MOL0     C11699   2.367   7.378   7.799  0.3704 -0.5274  0.6609
  828MOL0     C11700   1.901   7.300   7.749 -0.6082  0.4714 -0.5303
  828MOL0     C11701   1.858   7.296   7.878 -0.0826 -0.0682 -0.8511
  828MOL0     C11702   1.731   7.343   7.917 -0.0585  1.1860  0.4980
  828MOL0     C11703   1.646   7.399   7.808 -0.1931  0.2062  0.0781
  828MOL0     O11704   1.520   7.450   7.832  0.4526 -0.0644  0.0029
  828MOL0     C11705   1.468   7.463   7.971 -0.1102 -0.4527  0.3197
  828MOL0     C11706   1.320   7.492   7.975 -1.0543 -0.0157 -0.5334
  828MOL0     C11707   1.229   7.383   7.911  0.7708 -0.3548 -0.2511
  828MOL0     C11708   1.215   7.259   7.998  0.9094 -0.5541  0.2713
  828MOL0     C11709   1.310   7.157   7.945 -0.7846  0.0892  0.2646
  828MOL0     C11710   1.377   7.068   7.908  0.5619  0.5308  0.8215
  828MOL0     C11711   1.682   7.376   7.676  0.0184 -0.2110 -0.4345
  828MOL0     C11712   1.810   7.337   7.645 -0.3540 -0.1438 -1.1119
  828MOL0     H11713   2.247   7.073   7.735  1.0294 -1.5790  0.0327
  828MOL0     H11714   2.475   7.035   7.673  0.4752 -0.2172 -0.1061
  828MOL0     H11715   2.691   7.331   7.565  0.2937  2.4652  3.6993
  828MOL0     H11716   2.812   7.355   7.687 -0.9151  0.3297  0.9410
  828MOL0     H11717   2.933   7.148   7.632  0.9649  1.0448  0.3636
  828MOL0     H11718   2.813   7.106   7.508 -0.3014  0.4239  1.8492
  828MOL0     H11719   2.956   7.371   7.503  0.3413 -0.4736 -0.1077
  828MOL0     H11720   3.049   7.244   7.446  1.5975  2.9839  2.2554
  828MOL0     H11721   2.820   7.199   7.282 -0.7353  0.8053 -0.8576
  828MOL0     H11722   2.773   7.361   7.345  0.4473  0.3390  0.9612
  828MOL0     H11723   3.027   7.297   7.204  0.1010  2.0162  1.7609
  828MOL0     H11724   2.889   7.353   7.115  2.2021  0.0565 -2.4672
  828MOL0     H11725   2.877   7.563   7.214 -0.9825  0.5660  0.0525
  828MOL0     H11726   2.989   7.518   7.340  2.5878 -2.2383 -1.4261
  828MOL0     H11727   3.046   7.510   7.048 -0.4805  1.1922 -0.9165
  828MOL0     H11728   3.071   7.658   7.134  2.6281  0.2222  0.1384
  828MOL0     H11729   3.218   7.422   7.246 -1.4818  1.5325  0.5309
  828MOL0     H11730   3.258   7.587   7.287  3.9537  0.8086 -2.3681
  828MOL0     H11731   3.492   7.426   7.186  4.6173  1.8647 -0.4562
  828MOL0     H11732   3.701   7.551   6.877  0.7752  4.0367  1.2812
  828MOL0     H11733   3.710   7.610   7.045 -0.9919 -0.2329  0.5710
  828MOL0     H11734   3.674   7.314   6.974 -4.6698  1.4079  1.5807
  828MOL0     H11735   3.705   7.392   7.136 -1.4467 -2.8639 -0.4094
  828MOL0     H11736   3.900   7.270   7.054 -0.7088  0.3652  0.9215
  828MOL0     H11737   3.923   7.439   7.098  2.4272  1.3730 -2.6213
  828MOL0     H11738   3.903   7.501   6.851  0.4056  0.1974  1.5597
  828MOL0     H11739   3.945   7.329   6.818  0.5081 -0.5094 -0.0444
  828MOL0     H11740   4.332   7.410   6.985  2.5197  3.7789 -0.5654
  828MOL0     H11741   4.608   7.354   6.854 -1.0643 -0.5729  0.6132
  828MOL0     H11742   4.590   7.533   6.792 -0.5751  0.6294  0.6446
  828MOL0     H11743   4.545   7.471   6.957  0.5025 -2.5112  0.2992
  828MOL0     H11744   4.396   7.083   6.422 -0.6618  4.8929 -1.0712
  828MOL0     H11745   4.530   6.879   6.339  0.7324 -0.6379  2.1770
  828MOL0     H11746   4.631   6.799   6.102 -0.9231  1.2855  1.3142
  828MOL0     H11747   4.717   6.945   6.037  0.1489 -1.2574 -0.6574
  828MOL0     H11748   4.823   6.791   5.932 -0.6495  0.9173  0.1428
  828MOL0     H11749   4.928   6.816   6.067 -0.2228 -0.0034  3.0421
  828MOL0     H11750   4.730   6.579   6.085 -0.0501 -0.3067  0.6273
  828MOL0     H11751   4.868   6.616   6.186  1.7521 -2.3141 -0.9320
  828MOL0     H11752   5.010   6.588   5.976  0.0939  2.4424  1.1778
  828MOL0     H11753   4.929   6.447   6.044 -2.6768 -0.8614 -0.8915
  828MOL0     H11754   4.858   6.613   5.804  2.2870  0.3706  1.2357
  828MOL0     H11755   4.746   6.493   5.885  0.2872  0.3564  1.4018
  828MOL0     H11756   4.868   6.374   5.676 -0.0470 -2.8750  0.3898
  828MOL0     H11757   5.026   6.417   5.751  0.5812 -3.0837 -0.4122
  828MOL0     H11758   4.840   6.212   5.851 -0.0378 -0.6322 -1.7426
  828MOL0     H11759   4.973   6.262   5.937 -1.0202  0.0406  0.4147
  828MOL0     H11760   5.097   6.199   5.721  0.6690 -1.1672 -0.6186
  828MOL0     H11761   4.957   6.110   5.674  1.9530  1.5254 -1.1094
  828MOL0     H11762   4.851   7.156   6.257  0.2238  1.9533  0.8533
  828MOL0     H11763   4.729   7.329   6.355 -0.3820 -0.2136  1.2196
  828MOL0     H11764   4.237   7.348   6.510 -0.4012 -2.1865  1.5283
  828MOL0     H11765   4.059   7.357   6.660  0.2759 -3.4095  0.8657
  828MOL0     H11766   2.573   7.436   7.771  1.2409 -0.7877  1.7633
  828MOL0     H11767   2.325   7.476   7.820 -1.1423 -0.1561 -3.2278
  828MOL0     H11768   1.917   7.258   7.961 -2.0810 -3.1676 -0.7012
  828MOL0     H11769   1.708   7.344   8.023  0.1888 -0.6330  0.5915
  828MOL0     H11770   1.491   7.365   8.012  3.2880 -0.9359 -2.2928
  828MOL0     H11771   1.534   7.535   8.021  0.1264 -0.9444  0.7201
  828MOL0     H11772   1.295   7.584   7.921 -3.3514 -0.0629  0.3135
  828MOL0     H11773   1.302   7.513   8.081 -2.2126  1.8441 -1.0441
  828MOL0     H11774   1.267   7.349   7.814  1.8181 -0.2891  0.1191
  828MOL0     H11775   1.127   7.417   7.891  0.8906 -0.6669 -1.4945
  828MOL0     H11776   1.115   7.217   7.985  0.8494  0.1652 -1.9783
  828MOL0     H11777   1.236   7.260   8.106 -0.6820 -1.5710  0.6239
  828MOL0     H11778   1.438   6.990   7.866  0.7160  0.3176  1.4396
  828MOL0     H11779   1.613   7.404   7.597  0.4037 -0.6868 -0.9513
  828MOL0     H11780   1.838   7.326   7.541 -0.1345 -0.6057 -1.0058
  829MOL0     O11781   0.010   5.366  11.058 -1.0546  0.4636  0.5714
  829MOL0     C11782  -0.055   5.399  11.153  0.3007  0.7843 -0.7089
  829MOL0     O11783  -0.186   5.446  11.153  0.4109  0.0196 -0.6599
  829MOL0     C11784  -0.262   5.437  11.032  0.8504  0.4328 -0.7451
  829MOL0     C11785  -0.220   5.442  10.904 -0.3606 -0.5919  0.2359
  829MOL0     C11786  -0.308   5.456  10.799 -0.4702 -0.0960  1.9510
  829MOL0     C11787  -0.440   5.455  10.821  0.1641 -0.4999  0.0765
  829MOL0     O11788  -0.537   5.464  10.726 -0.0620 -0.3653  0.5794
  829MOL0     C11789  -0.622   5.346  10.718 -0.7641  0.0518 -0.4066
  829MOL0     C11790  -0.694   5.357  10.580  0.4277 -0.2082  0.6938
  829MOL0     C11791  -0.770   5.232  10.544  0.6731  0.0519  0.4875
  829MOL0     C11792  -0.844   5.245  10.405  0.4229 -0.2426  0.3753
  829MOL0     C11793  -0.920   5.123  10.359  0.3925  0.0722 -0.1309
  829MOL0     C11794  -0.999   5.148  10.224  0.5218  0.1776 -0.9902
  829MOL0     C11795  -1.079   5.028  10.176  0.3653 -0.6971  0.7220
  829MOL0     C11796  -1.192   5.075  10.088 -0.4573 -0.1766  0.1349
  829MOL0     N11797  -1.269   4.961  10.032  0.6326  0.5450  0.3763
  829MOL0     C11798  -1.341   4.873  10.111  0.2490  0.4550  0.2489
  829MOL0     C11799  -1.413   4.805  10.018  0.0665  0.3203  0.1021
  829MOL0     C11800  -1.539   4.727  10.050  0.5614 -0.5392 -0.3601
  829MOL0     C11801  -1.521   4.577  10.045 -0.0238  0.8789  0.4955
  829MOL0     C11802  -1.643   4.505  10.111  0.7404 -0.2187  0.2080
  829MOL0     C11803  -1.650   4.344  10.111 -0.1563 -0.2039  0.3340
  829MOL0     O11804  -1.740   4.289  10.211 -0.0632  0.6675 -0.9975
  829MOL0     C11805  -1.683   4.251  10.335  0.5750  0.1687 -0.3089
  829MOL0     C11806  -1.559   4.299  10.384 -0.4247  0.1564 -0.5846
  829MOL0     C11807  -1.516   4.262  10.517 -0.1951  0.7009  0.7007
  829MOL0     C11808  -1.379   4.310  10.549 -0.5723 -0.5013 -0.9950
  829MOL0     C11809  -1.592   4.177  10.604 -0.0010  0.4024 -0.2150
  829MOL0     C11810  -1.539   4.115  10.724 -0.2680 -0.1655  0.4082
  829MOL0     O11811  -1.591   4.151  10.837 -0.1748  0.2709 -0.8852
  829MOL0     C11812  -1.587   4.075  10.952 -0.7354 -0.8324  0.7773
  829MOL0     C11813  -1.613   3.937  10.950 -0.1961  0.1919 -0.2597
  829MOL0     C11814  -1.617   3.868  11.066  0.1706 -0.6455 -1.0308
  829MOL0     C11815  -1.592   3.932  11.194 -0.3549  0.5828 -0.6152
  829MOL0     O11816  -1.591   3.856  11.310 -0.1931 -0.2835 -0.8598
  829MOL0     C11817  -1.671   3.904  11.420  0.0191 -1.2353 -1.2800
  829MOL0     C11818  -1.816   3.918  11.379  0.1892 -0.1453  0.5345
  829MOL0     C11819  -1.881   3.784  11.335  0.2782 -0.2054 -0.2498
  829MOL0     C11820  -1.886   3.675  11.443  0.4137  0.2709  0.2333
  829MOL0     C11821  -1.954   3.546  11.397  1.2094  0.6407  0.3277
  829MOL0     C11822  -2.013   3.448  11.508 -0.3811 -0.4222 -0.2974
  829MOL0     C11823  -2.109   3.336  11.459  0.1946 -0.9395 -0.0677
  829MOL0     C11824  -2.257   3.387  11.422 -0.0030 -0.2722 -0.1598
  829MOL0    Cl11825  -2.349   3.417  11.574 -0.5132  0.0025 -0.1165
  829MOL0     C11826  -1.571   4.068  11.201  0.2590  0.3812 -1.0928
  829MOL0     C11827  -1.576   4.133  11.079 -0.0263  0.1046 -0.1135
  829MOL0     O11828  -1.452   4.034  10.700  0.4827 -0.1527  0.1694
  829MOL0     C11829  -1.703   4.116  10.540  0.7985 -0.6628  0.2993
  829MOL0     C11830  -1.747   4.156  10.418  0.1830  0.6145 -0.3879
  829MOL0     N11831  -1.388   4.856   9.896  0.3083 -0.3745  0.0293
  829MOL0     N11832  -1.299   4.941   9.901 -0.0484 -0.4450 -0.7397
  829MOL0     C11833  -0.483   5.432  10.952  0.3089 -0.2457  0.0151
  829MOL0     C11834  -0.393   5.412  11.057  0.8429  0.3054  0.4955
  829MOL0     C11835   0.020   5.428  11.280  0.8090 -0.0247 -0.8607
  829MOL0     C11836  -0.052   5.447  11.401 -0.3447  0.2386 -0.3577
  829MOL0     C11837   0.016   5.472  11.516  0.1297 -0.6035  0.8503
  829MOL0     C11838   0.152   5.460  11.524 -0.0435  0.3079 -0.6327
  829MOL0     O11839   0.207   5.486  11.644 -0.0421 -0.6638  0.1529
  829MOL0     C11840   0.353   5.494  11.665  0.2928  0.0198 -0.1943
  829MOL0     C11841   0.419   5.617  11.600 -0.5022  0.6131 -1.2663
  829MOL0     C11842   0.572   5.624  11.631  0.2691  0.7452 -0.0717
  829MOL0     C11843   0.659   5.566  11.517 -0.4933  0.2907  0.3793
  829MOL0     C11844   0.622   5.428  11.490 -0.3656  0.5506 -0.5941
  829MOL0     C11845   0.584   5.313  11.467  0.9813  0.2773  0.7487
  829MOL0     C11846   0.216   5.430  11.407 -0.1814 -1.0533  0.4009
  829MOL0     C11847   0.159   5.418  11.285  0.4435 -0.0031 -0.3773
  829MOL0     H11848  -0.115   5.461  10.885  0.0563 -2.6519  0.2404
  829MOL0     H11849  -0.270   5.462  10.698  0.1216  0.7850  2.2186
  829MOL0     H11850  -0.560   5.256  10.724 -2.1210 -0.8812  0.0600
  829MOL0     H11851  -0.700   5.351  10.795  1.2250  1.4854  1.6205
  829MOL0     H11852  -0.770   5.435  10.569  0.9267 -0.0192 -2.3093
  829MOL0     H11853  -0.620   5.368  10.500  2.6098 -3.1249  2.1550
  829MOL0     H11854  -0.703   5.145  10.540  0.3743 -0.1547 -0.0513
  829MOL0     H11855  -0.837   5.199  10.623  2.0953 -1.2967  1.2060
  829MOL0     H11856  -0.901   5.338  10.403 -0.7080 -0.8963 -2.3131
  829MOL0     H11857  -0.771   5.273  10.330  0.8663  3.3725  1.9571
  829MOL0     H11858  -0.848   5.040  10.347 -2.5759 -2.8198  0.6404
  829MOL0     H11859  -0.990   5.099  10.440  2.1423  2.5375  2.3186
  829MOL0     H11860  -1.068   5.232  10.241 -4.1549 -2.8444 -3.0751
  829MOL0     H11861  -0.930   5.184  10.147  0.6521  0.7894 -0.5930
  829MOL0     H11862  -0.999   4.965  10.136 -1.2021 -2.5839  0.4196
  829MOL0     H11863  -1.132   4.982  10.260 -4.6215 -2.4167 -2.8799
  829MOL0     H11864  -1.143   5.133  10.009  2.7412  0.6530  2.5174
  829MOL0     H11865  -1.246   5.143  10.156  1.9839  0.9412  1.0969
  829MOL0     H11866  -1.355   4.860  10.217  1.7073 -0.2522  0.3869
  829MOL0     H11867  -1.569   4.760  10.149 -0.2658 -1.9047 -0.1363
  829MOL0     H11868  -1.617   4.749   9.976 -1.8059  1.7961  2.5802
  829MOL0     H11869  -1.439   4.538  10.106 -1.1256  3.3945  3.8475
  829MOL0     H11870  -1.507   4.540   9.942 -3.1655  1.3651 -0.2231
  829MOL0     H11871  -1.723   4.539  10.044  0.0872 -2.0327  0.0203
  829MOL0     H11872  -1.656   4.529  10.216  1.4872  0.2620  0.2004
  829MOL0     H11873  -1.548   4.306  10.121 -1.1636 -4.9860 -3.4969
  829MOL0     H11874  -1.681   4.301  10.015  3.2827  0.7952 -1.4015
  829MOL0     H11875  -1.484   4.353  10.326  1.6983 -0.4559  1.4417
  829MOL0     H11876  -1.372   4.345  10.653  1.9777 -1.3522 -0.8112
  829MOL0     H11877  -1.314   4.226  10.526  0.1996 -0.0828 -0.3910
  829MOL0     H11878  -1.347   4.404  10.503 -2.6027  1.1949  0.7932
  829MOL0     H11879  -1.622   3.898  10.849  3.0777  0.1067 -0.6047
  829MOL0     H11880  -1.635   3.761  11.070 -1.8467 -0.3111  1.3365
  829MOL0     H11881  -1.654   3.824  11.492  2.2066  1.2532  1.2331
  829MOL0     H11882  -1.629   3.999  11.457 -3.0125 -1.2209  2.7834
  829MOL0     H11883  -1.885   3.970  11.447 -0.0946  1.3164 -0.8199
  829MOL0     H11884  -1.824   3.995  11.302 -1.3730  0.3448  1.1340
  829MOL0     H11885  -1.844   3.741  11.242  0.2901  0.6604 -0.6557
  829MOL0     H11886  -1.985   3.815  11.319  0.0296 -0.0613  1.4176
  829MOL0     H11887  -1.789   3.648  11.484  1.2639 -0.0898 -1.8665
  829MOL0     H11888  -1.947   3.703  11.530 -0.3744 -0.5177 -0.0537
  829MOL0     H11889  -1.892   3.474  11.342 -1.1152 -0.7757 -0.5959
  829MOL0     H11890  -2.031   3.564  11.321  0.7964  0.8486  0.7882
  829MOL0     H11891  -1.920   3.404  11.544  2.7252  2.8472 -3.4434
  829MOL0     H11892  -2.061   3.500  11.591  0.4725  1.3123 -0.8215
  829MOL0     H11893  -2.116   3.259  11.536  1.3019 -0.6677  0.3149
  829MOL0     H11894  -2.059   3.276  11.382  1.1280 -1.4212  0.8746
  829MOL0     H11895  -2.313   3.315  11.361  1.7857 -0.5013 -1.6303
  829MOL0     H11896  -2.258   3.468  11.348 -1.0569  2.4744  2.6310
  829MOL0     H11897  -1.549   4.112  11.298 -2.4703 -0.5201  0.0463
  829MOL0     H11898  -1.563   4.241  11.073  3.3644 -0.2587 -2.5809
  829MOL0     H11899  -1.744   4.037  10.602 -0.1466 -4.4553 -4.5006
  829MOL0     H11900  -1.842   4.114  10.387 -0.2921  1.0238  0.4772
  829MOL0     H11901  -0.591   5.427  10.964  0.0644  1.1889 -1.1674
  829MOL0     H11902  -0.417   5.405  11.163  1.0094  2.3578  0.7230
  829MOL0     H11903  -0.160   5.437  11.403 -0.1778 -3.1886 -2.0924
  829MOL0     H11904  -0.040   5.481  11.609  0.0172  0.5513  0.6923
  829MOL0     H11905   0.368   5.496  11.773 -2.4140  1.3327  0.2621
  829MOL0     H11906   0.388   5.397  11.628 -1.0111 -0.2583 -0.7551
  829MOL0     H11907   0.380   5.707  11.649  1.7569  0.5350  0.9077
  829MOL0     H11908   0.400   5.607  11.493 -1.0132 -3.1104 -0.9732
  829MOL0     H11909   0.591   5.564  11.721  1.7004 -0.7974 -1.3373
  829MOL0     H11910   0.598   5.728  11.651  0.3660  0.4473  1.5045
  829MOL0     H11911   0.762   5.572  11.551 -1.1525  3.8351  2.2741
  829MOL0     H11912   0.642   5.621  11.424 -2.8190  0.9050  1.0846
  829MOL0     H11913   0.531   5.224  11.438  1.2591  0.2623  0.2794
  829MOL0     H11914   0.324   5.443  11.412 -0.3335 -0.0466  3.3731
  829MOL0     H11915   0.216   5.405  11.194 -0.6578  0.0710 -1.0971
  830MOL0     O11916   7.122   9.996  10.827 -0.7908  0.2966  0.5512
  830MOL0     C11917   7.004   9.993  10.842  0.1405 -0.7682 -0.2495
  830MOL0     O11918   6.914  10.097  10.821  0.8898 -0.6823  0.3438
  830MOL0     C11919   6.953  10.216  10.768 -0.1182 -0.5966 -0.1910
  830MOL0     C11920   6.848  10.283  10.699 -0.3587  0.8236 -0.0251
  830MOL0     C11921   6.871  10.407  10.633 -0.5826 -0.5134 -0.0018
  830MOL0     C11922   7.001  10.472  10.635 -0.1660  0.7123  0.6300
  830MOL0     O11923   7.041  10.578  10.574 -0.7659  0.8455  0.6363
  830MOL0     C11924   6.963  10.700  10.603 -0.2296 -0.1042  0.5343
  830MOL0     C11925   7.060  10.808  10.577 -1.0904 -0.3807 -0.2106
  830MOL0     C11926   7.029  10.958  10.571 -0.7768 -0.4520 -1.0655
  830MOL0     C11927   6.938  10.998  10.693 -1.1252 -0.0382  0.2715
  830MOL0     C11928   6.879  11.140  10.678  0.2793 -0.7994 -0.8050
  830MOL0     C11929   6.730  11.158  10.703  0.1008  1.2411  0.2326
  830MOL0     C11930   6.692  11.303  10.690  0.6137 -0.0552  0.0516
  830MOL0     C11931   6.744  11.391  10.799  0.8339 -0.1902 -0.6338
  830MOL0     N11932   6.635  11.423  10.898  0.4253  0.4221  0.1214
  830MOL0     C11933   6.614  11.362  11.019  0.4645  0.3069  0.2465
  830MOL0     C11934   6.488  11.399  11.051 -0.4000 -0.4971 -0.6291
  830MOL0     C11935   6.412  11.337  11.167 -0.7972 -0.5834 -0.5661
  830MOL0     C11936   6.443  11.363  11.317  1.5172  0.6601 -0.8805
  830MOL0     C11937   6.354  11.469  11.385  0.0192  0.2971  0.0085
  830MOL0     C11938   6.401  11.500  11.524  0.1488 -0.4932 -0.8327
  830MOL0     O11939   6.312  11.606  11.560 -0.1362 -0.7498 -0.0336
  830MOL0     C11940   6.359  11.688  11.656  0.4620  0.0881 -0.0210
  830MOL0     C11941   6.434  11.647  11.767 -0.7034 -1.0244  0.2225
  830MOL0     C11942   6.476  11.743  11.858  0.2007  0.8241 -0.0235
  830MOL0     C11943   6.587  11.698  11.951  0.3727  0.0745  0.5882
  830MOL0     C11944   6.449  11.877  11.832 -0.0686 -0.4871 -0.0701
  830MOL0     C11945   6.500  11.997  11.915 -0.6414  0.2801 -0.8511
  830MOL0     O11946   6.517  12.115  11.855 -1.0904 -0.0952  0.9838
  830MOL0     C11947   6.522  12.234  11.924 -0.6353  0.4628 -0.2281
  830MOL0     C11948   6.433  12.267  12.027 -0.1419 -0.1337  0.6632
  830MOL0     C11949   6.461  12.377  12.111  0.7835 -0.5968  1.0313
  830MOL0     C11950   6.577  12.456  12.094  0.0193  0.5247  0.1962
  830MOL0     O11951   6.575  12.569  12.178 -0.5061 -0.4978 -0.4132
  830MOL0     C11952   6.638  12.690  12.147 -0.4334  0.0469  1.5918
  830MOL0     C11953   6.579  12.798  12.219  0.9002  0.2943 -0.2909
  830MOL0     C11954   6.664  12.917  12.232  0.1542 -0.7289 -0.3507
  830MOL0     C11955   6.666  12.997  12.101 -0.0060  0.0741 -0.0121
  830MOL0     C11956   6.727  13.138  12.120 -0.1412 -0.4883  0.1138
  830MOL0     C11957   6.884  13.144  12.136 -0.4713  0.8351  0.3148
  830MOL0     C11958   6.942  13.291  12.142  0.5476  0.6654  0.1297
  830MOL0     C11959   7.074  13.284  12.205  0.4976  0.0387  0.1398
  830MOL0    Cl11960   7.111  13.460  12.237 -0.3615  0.0237  0.1353
  830MOL0     C11961   6.660  12.427  11.991 -0.1074 -0.3478 -0.2044
  830MOL0     C11962   6.639  12.314  11.905  0.5121  0.4131 -0.7057
  830MOL0     O11963   6.543  11.974  12.028 -0.1231  0.1875 -0.0484
  830MOL0     C11964   6.363  11.916  11.730 -1.3114  0.3030  0.0498
  830MOL0     C11965   6.312  11.821  11.647 -0.3709  1.0886 -0.2748
  830MOL0     N11966   6.441  11.481  10.951 -0.2173 -0.2574  0.0147
  830MOL0     N11967   6.529  11.488  10.848 -0.2715 -0.1870 -0.6303
  830MOL0     C11968   7.096  10.408  10.714 -0.7404 -0.4531  1.2175
  830MOL0     C11969   7.073  10.287  10.787  0.2752  0.9337  1.2724
  830MOL0     C11970   6.939   9.868  10.901  1.0118 -0.4889  0.5447
  830MOL0     C11971   6.808   9.870  10.956  0.0224  0.1529  0.5218
  830MOL0     C11972   6.736   9.755  10.996 -0.4792  0.7291  0.4250
  830MOL0     C11973   6.802   9.627  10.978  1.5466  0.0561  0.8821
  830MOL0     O11974   6.732   9.515  11.015  0.0178  0.8505 -0.3897
  830MOL0     C11975   6.710   9.412  10.906 -0.6258 -0.6380 -0.5457
  830MOL0     C11976   6.829   9.308  10.931 -0.5273 -0.4661  0.4679
  830MOL0     C11977   6.912   9.293  10.804 -0.2396  0.7474 -0.0731
  830MOL0     C11978   7.036   9.198  10.831  1.2445 -0.0742  0.4943
  830MOL0     C11979   7.144   9.275  10.902  0.4690  0.9752 -0.3537
  830MOL0     C11980   7.223   9.340  10.969  0.7858  0.3574 -0.1202
  830MOL0     C11981   6.933   9.618  10.932 -0.2053 -0.4696  0.1004
  830MOL0     C11982   7.003   9.738  10.888  0.6886  0.0486 -0.9170
  830MOL0     H11983   6.754  10.232  10.683 -1.2661  2.2646  0.5568
  830MOL0     H11984   6.789  10.460  10.585 -1.1095  0.7178  2.1258
  830MOL0     H11985   6.881  10.721  10.534  1.2505 -0.3385 -1.4037
  830MOL0     H11986   6.921  10.710  10.703  0.6437 -0.4549  0.9505
  830MOL0     H11987   7.121  10.797  10.668 -1.3635  3.2148  0.5645
  830MOL0     H11988   7.125  10.783  10.493 -2.2989  1.1874 -1.6830
  830MOL0     H11989   7.113  11.026  10.586 -3.2833  2.4393  0.9263
  830MOL0     H11990   6.981  10.983  10.476  0.7357 -3.4380 -2.7740
  830MOL0     H11991   6.853  10.931  10.709 -1.2571 -0.0962 -0.6000
  830MOL0     H11992   7.007  10.983  10.776 -1.2929  0.4838  0.5078
  830MOL0     H11993   6.935  11.199  10.751  0.3893  0.8912 -2.1729
  830MOL0     H11994   6.892  11.191  10.582  0.7057 -0.2191 -0.4495
  830MOL0     H11995   6.669  11.104  10.630 -2.2133  1.3129  1.9967
  830MOL0     H11996   6.702  11.123  10.803 -0.6685  1.1465 -0.0038
  830MOL0     H11997   6.742  11.338  10.599 -1.0136 -0.4260 -1.0478
  830MOL0     H11998   6.584  11.310  10.676  0.5494 -0.5364  0.2647
  830MOL0     H11999   6.779  11.485  10.757  1.5606 -0.3051 -0.3076
  830MOL0     H12000   6.826  11.342  10.853 -0.8890 -2.0576  0.4395
  830MOL0     H12001   6.678  11.299  11.080  1.5978  1.3269  0.1658
  830MOL0     H12002   6.308  11.369  11.150  0.2083  2.0685 -2.3298
  830MOL0     H12003   6.414  11.228  11.162  1.9003 -0.7037  1.0903
  830MOL0     H12004   6.547  11.395  11.324  1.4642  1.0113 -1.5865
  830MOL0     H12005   6.452  11.272  11.377  1.2703 -0.6369 -2.7336
  830MOL0     H12006   6.255  11.422  11.388  0.0285  0.3193  3.2271
  830MOL0     H12007   6.351  11.560  11.325  0.6759  0.3485  0.0432
  830MOL0     H12008   6.508  11.522  11.517  0.3809 -0.8288  1.0623
  830MOL0     H12009   6.386  11.429  11.605  1.0898 -1.2177 -1.2784
  830MOL0     H12010   6.469  11.545  11.763 -1.4993 -1.3135  0.3544
  830MOL0     H12011   6.614  11.592  11.943 -2.9640 -1.1983  3.4834
  830MOL0     H12012   6.679  11.750  11.922  1.2679 -1.9865 -0.5436
  830MOL0     H12013   6.566  11.709  12.058  0.1478  1.9521  0.3772
  830MOL0     H12014   6.339  12.212  12.028 -1.5410  2.0082 -1.3846
  830MOL0     H12015   6.401  12.423  12.188 -0.1845 -0.3041  0.1246
  830MOL0     H12016   6.744  12.676  12.173 -0.0290  0.5441  0.2928
  830MOL0     H12017   6.635  12.726  12.044  1.5270  3.2232  2.4825
  830MOL0     H12018   6.478  12.816  12.179  0.8090 -3.9961 -2.5984
  830MOL0     H12019   6.557  12.762  12.321  4.3434  0.3421  0.5943
  830MOL0     H12020   6.767  12.882  12.247  0.4645 -0.0944 -0.9667
  830MOL0     H12021   6.634  12.966  12.325 -1.4707  0.8298 -1.6405
  830MOL0     H12022   6.730  12.934  12.039 -2.1218 -2.6428  0.3757
  830MOL0     H12023   6.565  13.008  12.062  0.0030  1.1577  0.2192
  830MOL0     H12024   6.686  13.189  12.208  0.7609  0.4642  0.0036
  830MOL0     H12025   6.698  13.191  12.029 -1.4538 -1.0627  0.1754
  830MOL0     H12026   6.916  13.088  12.225  3.5249 -0.1138 -1.4987
  830MOL0     H12027   6.932  13.086  12.057 -1.5102 -2.8635  2.1359
  830MOL0     H12028   6.873  13.350  12.203 -1.4149 -0.8446 -0.5055
  830MOL0     H12029   6.958  13.332  12.042 -0.1467 -1.9423 -1.1322
  830MOL0     H12030   7.146  13.249  12.131 -0.8924  1.6890 -2.1074
  830MOL0     H12031   7.062  13.216  12.290 -0.6481 -1.6506 -1.2883
  830MOL0     H12032   6.751  12.485  11.975 -0.2332 -0.3891 -1.1182
  830MOL0     H12033   6.718  12.288  11.835 -1.4554 -3.2039 -1.8273
  830MOL0     H12034   6.338  12.021  11.723  1.5604  1.4595  3.9469
  830MOL0     H12035   6.239  11.841  11.569  1.7586 -1.9740 -3.3336
  830MOL0     H12036   7.183  10.465  10.744 -1.2154  2.0322 -1.7207
  830MOL0     H12037   7.149  10.242  10.849  0.1367 -3.4299 -1.2992
  830MOL0     H12038   6.746   9.959  10.947  0.2125  0.0756 -2.6866
  830MOL0     H12039   6.633   9.762  11.030 -0.0153 -1.1035  2.3701
  830MOL0     H12040   6.611   9.367  10.915 -1.5974  1.3142 -0.9876
  830MOL0     H12041   6.721   9.461  10.809  2.7045  2.1061  0.9606
  830MOL0     H12042   6.781   9.212  10.951  0.7517 -1.3269 -0.3930
  830MOL0     H12043   6.886   9.334  11.020 -0.0162 -1.5269  0.4719
  830MOL0     H12044   6.934   9.389  10.756  0.6977  0.3071 -0.5640
  830MOL0     H12045   6.849   9.248  10.727 -1.3250  0.6042  0.8769
  830MOL0     H12046   7.078   9.167  10.734  5.2203  0.5235  1.8247
  830MOL0     H12047   7.005   9.117  10.898 -2.2081  1.4720  0.9685
  830MOL0     H12048   7.292   9.391  11.034  0.6003  1.0616 -0.4689
  830MOL0     H12049   6.973   9.518  10.929  2.5247  0.5681 -0.6297
  830MOL0     H12050   7.096   9.718  10.837  0.4482 -0.7761 -1.0458
  831MOL0     O12051   7.009  10.669   8.932 -0.0213 -0.4133  0.7261
  831MOL0     C12052   7.026  10.792   8.922  0.7902  0.4804  0.0562
  831MOL0     O12053   7.115  10.860   8.995  0.5318 -0.6759 -0.4518
  831MOL0     C12054   7.201  10.810   9.095  0.1481 -0.5354  0.5982
  831MOL0     C12055   7.222  10.885   9.213 -1.0273  0.2904  0.0732
  831MOL0     C12056   7.294  10.833   9.326  0.1267  0.0624  0.3404
  831MOL0     C12057   7.365  10.710   9.316  0.0446 -0.4302  0.3330
  831MOL0     O12058   7.450  10.656   9.402 -0.6297 -0.0551  0.4571
  831MOL0     C12059   7.496  10.743   9.504 -0.0009 -1.2311 -1.0192
  831MOL0     C12060   7.599  10.680   9.597  0.9868  1.0156  0.2501
  831MOL0     C12061   7.611  10.754   9.734  0.4769 -0.7952  0.6931
  831MOL0     C12062   7.694  10.656   9.829  0.3156 -0.8376  0.6369
  831MOL0     C12063   7.713  10.731   9.958  0.4050 -0.2711  0.4600
  831MOL0     C12064   7.775  10.629  10.061  0.8017  0.4020  0.3415
  831MOL0     C12065   7.693  10.506  10.088  0.0417 -0.7045 -0.5269
  831MOL0     C12066   7.746  10.426  10.204  0.7760 -0.2364  0.5203
  831MOL0     N12067   7.753  10.479  10.337 -0.2316 -0.0914 -0.5160
  831MOL0     C12068   7.672  10.452  10.450 -0.2247 -0.7651 -0.3111
  831MOL0     C12069   7.712  10.532  10.550  1.0412  1.0183  0.0591
  831MOL0     C12070   7.664  10.525  10.689  0.1387  0.1071 -0.4889
  831MOL0     C12071   7.508  10.546  10.700 -0.3275  0.2162 -0.0050
  831MOL0     C12072   7.459  10.564  10.847 -0.4754 -0.5543  0.5826
  831MOL0     C12073   7.416  10.704  10.879  0.5557  0.3720  0.2839
  831MOL0     O12074   7.520  10.797  10.825  0.5015  0.2577 -0.4215
  831MOL0     C12075   7.501  10.930  10.823 -0.3785 -0.2475  0.2926
  831MOL0     C12076   7.378  10.997  10.829  0.1471  0.7598  0.1247
  831MOL0     C12077   7.367  11.141  10.818 -0.3075  0.2488  1.1228
  831MOL0     C12078   7.231  11.203  10.848 -0.1375 -0.0095  0.1738
  831MOL0     C12079   7.489  11.215  10.793  1.1342  0.2312 -0.4642
  831MOL0     C12080   7.497  11.358  10.776 -0.7616  0.5478 -0.0499
  831MOL0     O12081   7.376  11.423  10.755  0.0354 -0.4239 -0.1233
  831MOL0     C12082   7.375  11.536  10.672  0.4154 -0.7613 -1.2690
  831MOL0     C12083   7.474  11.583  10.584 -0.0905  0.0274  0.7868
  831MOL0     C12084   7.465  11.696  10.503  0.6444 -0.5982 -1.2886
  831MOL0     C12085   7.349  11.779  10.507  0.0406  0.4432 -0.2994
  831MOL0     O12086   7.324  11.891  10.434 -0.4709 -0.2488 -0.0174
  831MOL0     C12087   7.435  11.963  10.367  0.7152  0.6034 -0.7128
  831MOL0     C12088   7.379  12.069  10.277  0.4453  0.9191  0.0348
  831MOL0     C12089   7.318  12.177  10.356  0.0369  0.0434  0.9337
  831MOL0     C12090   7.299  12.302  10.275  0.0937 -0.0455  0.5832
  831MOL0     C12091   7.211  12.286  10.149  0.6119 -0.7198  0.5521
  831MOL0     C12092   7.194  12.408  10.069  0.1140 -0.4002  0.2443
  831MOL0     C12093   7.077  12.420   9.965  0.0412  0.5418  0.0028
  831MOL0     C12094   7.077  12.565   9.925 -0.2722 -0.4771  0.4772
  831MOL0    Cl12095   6.930  12.596   9.827 -0.2243  0.0399  0.6221
  831MOL0     C12096   7.251  11.729  10.592  0.7552 -0.3695  0.4318
  831MOL0     C12097   7.258  11.614  10.673 -0.3381  0.1230 -0.4297
  831MOL0     O12098   7.605  11.412  10.794 -0.0062 -0.3654 -0.1862
  831MOL0     C12099   7.607  11.138  10.773 -0.5220 -0.4511 -0.1401
  831MOL0     C12100   7.613  10.998  10.786 -0.6504 -0.3069 -0.4448
  831MOL0     N12101   7.826  10.613  10.506  0.2875  0.2277 -0.5816
  831MOL0     N12102   7.845  10.574  10.386 -0.0278  0.1192  0.5695
  831MOL0     C12103   7.339  10.630   9.198  0.8646  0.8257  0.3910
  831MOL0     C12104   7.258  10.681   9.090 -1.1253 -0.5246 -0.1732
  831MOL0     C12105   6.954  10.867   8.806 -0.4100  0.8754 -0.4739
  831MOL0     C12106   6.903  10.797   8.697 -0.5266 -0.2204  0.2447
  831MOL0     C12107   6.837  10.874   8.590 -0.0168 -0.1674 -0.6912
  831MOL0     C12108   6.835  11.009   8.594  0.8727 -0.2797  0.4170
  831MOL0     O12109   6.784  11.081   8.483 -0.4409  0.8834 -0.1730
  831MOL0     C12110   6.773  11.024   8.351  0.2101  0.1997  0.0430
  831MOL0     C12111   6.732  11.125   8.247 -0.1269 -0.1387  1.2314
  831MOL0     C12112   6.816  11.252   8.258 -0.1768 -0.5792 -0.1986
  831MOL0     C12113   6.768  11.345   8.144  0.7501  0.2392  0.3210
  831MOL0     C12114   6.633  11.397   8.172 -0.8913  1.2872 -0.0821
  831MOL0     C12115   6.525  11.452   8.194  0.0678 -0.2497  0.7723
  831MOL0     C12116   6.868  11.066   8.707 -0.9570 -0.3024 -0.2222
  831MOL0     C12117   6.923  11.004   8.814 -0.5621  0.2528 -0.0352
  831MOL0     H12118   7.194  10.989   9.210 -0.2917  0.4724 -1.2476
  831MOL0     H12119   7.296  10.892   9.417 -1.8581  0.7879 -0.0366
  831MOL0     H12120   7.539  10.838   9.469  2.0496 -1.8468 -0.2872
  831MOL0     H12121   7.401  10.767   9.553  0.6284  2.7017 -1.3977
  831MOL0     H12122   7.566  10.576   9.600 -2.0022  1.8613  0.6797
  831MOL0     H12123   7.698  10.686   9.552 -0.2766 -1.7820 -3.4246
  831MOL0     H12124   7.660  10.849   9.709 -1.2831 -0.5843 -2.5820
  831MOL0     H12125   7.513  10.773   9.779  0.9508  1.2281  0.9709
  831MOL0     H12126   7.636  10.564   9.842 -2.9477  0.9906 -0.0134
  831MOL0     H12127   7.793  10.637   9.785  2.3594  0.3481  4.3247
  831MOL0     H12128   7.771  10.822   9.941 -1.3903  1.4526  2.9001
  831MOL0     H12129   7.614  10.767   9.987  1.3630  2.4355  0.6277
  831MOL0     H12130   7.881  10.618  10.035  0.5686  2.8734 -2.1952
  831MOL0     H12131   7.776  10.682  10.157  0.6754 -3.1070  2.4167
  831MOL0     H12132   7.587  10.526  10.107 -0.4641 -3.1588 -0.3815
  831MOL0     H12133   7.692  10.444   9.998  0.8647 -1.5699  0.0326
  831MOL0     H12134   7.851  10.406  10.180  1.5544 -2.6507  4.8412
  831MOL0     H12135   7.696  10.329  10.201  0.2875 -0.0193 -3.5827
  831MOL0     H12136   7.591  10.381  10.465 -0.4541  0.1045  3.6428
  831MOL0     H12137   7.695  10.425  10.723 -1.1073 -0.5621 -1.2709
  831MOL0     H12138   7.712  10.604  10.748  2.0998 -1.8296  0.6448
  831MOL0     H12139   7.457  10.463  10.650  1.4552 -0.2253 -1.1647
  831MOL0     H12140   7.484  10.641  10.651 -0.6368  1.0311  1.6429
  831MOL0     H12141   7.544  10.541  10.912 -1.0041 -1.4368  0.9789
  831MOL0     H12142   7.381  10.493  10.875  0.5955 -0.8301  3.1826
  831MOL0     H12143   7.407  10.719  10.987 -1.1294 -3.2749  0.7860
  831MOL0     H12144   7.316  10.713  10.836  0.6117  0.0124  0.0810
  831MOL0     H12145   7.294  10.929  10.829  2.3172 -2.0899 -0.8477
  831MOL0     H12146   7.251  11.285  10.918  1.0055  0.0659 -0.2173
  831MOL0     H12147   7.193  11.250  10.757  2.0943 -2.7370 -2.3874
  831MOL0     H12148   7.159  11.125  10.875  2.1113 -2.0536  0.6526
  831MOL0     H12149   7.558  11.518  10.564 -0.6241 -0.0406 -1.5258
  831MOL0     H12150   7.535  11.721  10.423 -1.0214  4.0863 -1.6055
  831MOL0     H12151   7.502  12.004  10.443  2.8420 -2.5563 -0.6794
  831MOL0     H12152   7.498  11.893  10.311  2.2387  0.2863  1.2988
  831MOL0     H12153   7.458  12.112  10.214 -2.3821  2.6787 -2.6165
  831MOL0     H12154   7.308  12.021  10.208 -2.2532  1.3200  2.3353
  831MOL0     H12155   7.385  12.188  10.442  2.4487 -0.8549 -0.7366
  831MOL0     H12156   7.220  12.155  10.399 -1.3343 -1.3443 -2.5423
  831MOL0     H12157   7.255  12.372  10.347 -2.3222  0.4624 -1.2656
  831MOL0     H12158   7.397  12.336  10.241 -0.2774  0.4996  0.0560
  831MOL0     H12159   7.111  12.262  10.185 -0.2273 -0.0167 -1.1804
  831MOL0     H12160   7.223  12.203  10.078 -1.4104 -0.7847  0.2213
  831MOL0     H12161   7.174  12.484  10.145  1.7685 -0.3693  0.6877
  831MOL0     H12162   7.292  12.429  10.025 -1.0616  2.7808 -1.1548
  831MOL0     H12163   6.979  12.383   9.997 -0.4815  2.2521  0.5256
  831MOL0     H12164   7.105  12.366   9.874 -3.5817 -1.5677 -0.0474
  831MOL0     H12165   7.160  12.590   9.858 -0.3208  1.5183  1.0945
  831MOL0     H12166   7.059  12.640  10.002 -2.9949  0.2251 -0.7382
  831MOL0     H12167   7.161  11.787  10.580 -0.2089 -2.2127 -2.1071
  831MOL0     H12168   7.172  11.577  10.728  0.9994  2.4215  3.6982
  831MOL0     H12169   7.704  11.176  10.742  0.1278 -2.5417 -0.8685
  831MOL0     H12170   7.707  10.948  10.766 -1.3720 -2.1795  0.5820
  831MOL0     H12171   7.378  10.531   9.177 -1.4468 -0.5395  2.0112
  831MOL0     H12172   7.246  10.617   9.003 -0.1660  1.3342 -1.7276
  831MOL0     H12173   6.927  10.694   8.673  1.2744  0.4283 -0.9549
  831MOL0     H12174   6.813  10.817   8.501 -1.7358 -1.2233  0.4053
  831MOL0     H12175   6.868  10.984   8.316  0.3373 -0.7216  1.3549
  831MOL0     H12176   6.695  10.948   8.361  1.4241 -0.7747  4.0527
  831MOL0     H12177   6.627  11.149   8.265 -0.1002  0.5809  0.5376
  831MOL0     H12178   6.741  11.075   8.150 -0.3669  1.4301  0.3498
  831MOL0     H12179   6.921  11.225   8.242  0.2863  1.5023 -0.9973
  831MOL0     H12180   6.809  11.317   8.345  2.7446 -2.2032  1.3746
  831MOL0     H12181   6.757  11.291   8.050  2.2221  0.7301 -0.1538
  831MOL0     H12182   6.840  11.424   8.120  1.2026  0.1189  1.2625
  831MOL0     H12183   6.430  11.500   8.208 -0.1550 -0.1042 -0.9534
  831MOL0     H12184   6.859  11.174   8.716  0.3412 -0.0621 -1.4633
  831MOL0     H12185   6.953  11.064   8.900 -2.1026  0.6813  0.2368
  832MOL0     O12186   9.185   8.280   4.094 -0.8789  0.3571  0.5825
  832MOL0     C12187   9.134   8.385   4.048  0.0874 -0.5305 -0.0462
  832MOL0     O12188   9.149   8.514   4.100  0.2800  0.5672 -0.0952
  832MOL0     C12189   9.228   8.532   4.214  0.0803  0.1145  0.9213
  832MOL0     C12190   9.244   8.445   4.323  0.3065 -0.1700  0.3751
  832MOL0     C12191   9.324   8.486   4.427 -0.2446 -0.2705 -0.1651
  832MOL0     C12192   9.374   8.614   4.422  0.2312  0.6089  0.3850
  832MOL0     O12193   9.458   8.649   4.528 -0.2345 -0.8333 -0.1583
  832MOL0     C12194   9.484   8.573   4.649 -0.1261 -0.6713  0.1785
  832MOL0     C12195   9.591   8.654   4.728  0.8087  0.8895 -0.5429
  832MOL0     C12196   9.582   8.605   4.879 -0.0173 -0.0847  0.4741
  832MOL0     C12197   9.610   8.723   4.972 -0.8055  0.3212 -0.4644
  832MOL0     C12198   9.615   8.687   5.120  0.3550  0.3949  0.9866
  832MOL0     C12199   9.678   8.793   5.212  0.1980  0.2884  1.4491
  832MOL0     C12200   9.658   8.765   5.353  0.3441  0.3927  0.7350
  832MOL0     C12201   9.725   8.859   5.439  0.6270 -0.4722  0.0014
  832MOL0     N12202   9.875   8.871   5.418  0.4150 -0.6201 -0.4451
  832MOL0     C12203   9.956   8.813   5.513 -0.1237 -0.3784 -0.4104
  832MOL0     C12204  10.077   8.829   5.456 -0.5439  0.2801  0.0022
  832MOL0     C12205  10.223   8.790   5.514  0.8120 -0.6174  0.4804
  832MOL0     C12206  10.225   8.697   5.623 -0.6747 -0.3469 -0.1281
  832MOL0     C12207  10.382   8.668   5.657  1.1584 -0.5067 -0.8263
  832MOL0     C12208  10.390   8.561   5.764 -0.6496  1.6924  0.5902
  832MOL0     O12209  10.519   8.568   5.820 -1.1356  0.0642 -0.4999
  832MOL0     C12210  10.561   8.462   5.902  0.0341 -0.8991 -0.3534
  832MOL0     C12211  10.477   8.351   5.940  0.1991  0.6176  0.3693
  832MOL0     C12212  10.527   8.244   6.015 -0.2248  0.1860  0.4283
  832MOL0     C12213  10.426   8.133   6.041  0.0104  0.0987 -0.2929
  832MOL0     C12214  10.660   8.235   6.053  0.0547 -0.1240  0.3345
  832MOL0     C12215  10.705   8.130   6.141 -0.1525 -0.1240  1.0861
  832MOL0     O12216  10.802   8.054   6.090  0.0341 -0.2762  0.5647
  832MOL0     C12217  10.849   7.971   6.187 -0.2197 -0.6903  0.0058
  832MOL0     C12218  10.958   7.993   6.277 -0.0704  0.5078 -0.8628
  832MOL0     C12219  10.983   7.908   6.379  1.7178 -0.3104  0.3010
  832MOL0     C12220  10.897   7.795   6.415 -0.3472 -1.3620 -0.8047
  832MOL0     O12221  10.921   7.706   6.525  0.1825 -0.2587  0.0868
  832MOL0     C12222  11.018   7.726   6.625 -0.9754  0.1637 -0.0483
  832MOL0     C12223  10.986   7.649   6.752 -0.2307 -0.1187  0.0684
  832MOL0     C12224  11.111   7.609   6.826 -0.4717  0.5341  0.1191
  832MOL0     C12225  11.177   7.483   6.770  0.0415  0.6655  0.3673
  832MOL0     C12226  11.312   7.461   6.838 -0.3539  0.3116 -0.2171
  832MOL0     C12227  11.415   7.559   6.781  0.2421  0.6659  0.4307
  832MOL0     C12228  11.422   7.582   6.630  0.5132  0.2213 -1.1578
  832MOL0     C12229  11.532   7.686   6.606 -0.3879 -0.0950 -0.5199
  832MOL0    Cl12230  11.567   7.688   6.433  0.1003  0.1533 -0.1059
  832MOL0     C12231  10.789   7.774   6.324 -1.0696 -0.0030  0.3200
  832MOL0     C12232  10.776   7.856   6.206 -0.1136  1.6117 -1.1548
  832MOL0     O12233  10.649   8.122   6.248 -0.2124  0.0122 -0.1106
  832MOL0     C12234  10.741   8.345   6.023  0.5465 -0.8921  0.4794
  832MOL0     C12235  10.693   8.455   5.945  0.1955 -0.1998  0.1946
  832MOL0     N12236  10.069   8.899   5.341  0.5680  0.7360 -0.3092
  832MOL0     N12237   9.945   8.930   5.321 -1.4495 -0.3102 -0.8055
  832MOL0     C12238   9.334   8.709   4.330 -0.2009  0.7972  0.3868
  832MOL0     C12239   9.269   8.666   4.218 -0.0632 -0.3662 -0.0031
  832MOL0     C12240   9.064   8.380   3.919  0.3341 -0.5273 -1.0307
  832MOL0     C12241   9.029   8.261   3.855  0.3586  0.6874 -0.1416
  832MOL0     C12242   8.980   8.254   3.727  0.9820  1.0926 -0.9483
  832MOL0     C12243   8.950   8.370   3.664  0.3171 -0.9925  0.2114
  832MOL0     O12244   8.899   8.377   3.542 -0.0808  0.0071  0.3731
  832MOL0     C12245   8.881   8.260   3.451  0.1381 -0.2984 -0.6828
  832MOL0     C12246   8.872   8.287   3.301 -0.1837 -1.2367 -0.2783
  832MOL0     C12247   8.726   8.293   3.261 -0.0633  0.6145 -0.0784
  832MOL0     C12248   8.682   8.337   3.125 -0.5362  0.3955  0.6126
  832MOL0     C12249   8.757   8.253   3.026  1.0762  0.7452  0.3879
  832MOL0     C12250   8.825   8.173   2.962 -0.8846  0.6320  0.6200
  832MOL0     C12251   8.966   8.493   3.719  0.1792  1.1214 -0.4890
  832MOL0     C12252   9.025   8.496   3.850 -0.1277  0.1261  0.3654
  832MOL0     H12253   9.210   8.341   4.326  0.7346 -0.3987 -1.4180
  832MOL0     H12254   9.361   8.414   4.498  2.2871  1.9589  0.9464
  832MOL0     H12255   9.402   8.547   4.716  1.6188 -3.3256  1.4652
  832MOL0     H12256   9.531   8.478   4.623  0.9166 -0.4517  1.1561
  832MOL0     H12257   9.690   8.638   4.684 -0.0866 -0.5299 -2.1655
  832MOL0     H12258   9.552   8.756   4.729  0.0070  0.6712 -2.6779
  832MOL0     H12259   9.482   8.571   4.908 -0.6162  1.2597  0.0478
  832MOL0     H12260   9.650   8.521   4.894 -0.6411 -0.4266  1.5187
  832MOL0     H12261   9.707   8.758   4.937  0.9647 -2.2720  1.5161
  832MOL0     H12262   9.532   8.799   4.958 -0.7706  0.3974 -0.2427
  832MOL0     H12263   9.515   8.665   5.158  0.3542 -3.2339 -0.6881
  832MOL0     H12264   9.682   8.605   5.146  2.0676  0.6446 -2.2100
  832MOL0     H12265   9.783   8.806   5.186 -0.3983  2.2877 -0.2451
  832MOL0     H12266   9.627   8.886   5.184  0.9457 -0.0718 -1.4358
  832MOL0     H12267   9.557   8.756   5.392 -0.2627  0.4622 -0.7402
  832MOL0     H12268   9.692   8.662   5.368 -0.7506  0.0027  0.6048
  832MOL0     H12269   9.706   8.816   5.537  1.0911  0.0945  0.3476
  832MOL0     H12270   9.678   8.958   5.432  1.0739 -0.0856  1.9850
  832MOL0     H12271   9.934   8.766   5.608  0.9869 -0.7436 -0.3247
  832MOL0     H12272  10.282   8.743   5.435  1.2608  0.5003  0.1260
  832MOL0     H12273  10.268   8.888   5.534  1.4568 -0.2426 -2.3526
  832MOL0     H12274  10.180   8.599   5.602 -0.1733 -1.2384  2.4649
  832MOL0     H12275  10.172   8.729   5.714 -2.6732 -2.7520 -0.3331
  832MOL0     H12276  10.420   8.763   5.695 -0.2748  0.0017 -0.5832
  832MOL0     H12277  10.439   8.638   5.569 -0.8898 -2.3618 -1.6063
  832MOL0     H12278  10.360   8.462   5.728 -2.6528  1.6956  2.1012
  832MOL0     H12279  10.314   8.572   5.842 -0.5675 -1.2777  1.2187
  832MOL0     H12280  10.377   8.344   5.898  1.4216 -0.4442 -2.6690
  832MOL0     H12281  10.380   8.158   6.137  3.5102  1.0374  1.3043
  832MOL0     H12282  10.348   8.146   5.965 -1.5695  1.9881  1.5421
  832MOL0     H12283  10.469   8.034   6.021  0.6800  0.3012  0.1117
  832MOL0     H12284  11.030   8.073   6.267 -0.2275  0.9363  1.0328
  832MOL0     H12285  11.083   7.917   6.421  2.2390  1.0576 -1.1390
  832MOL0     H12286  11.111   7.690   6.582 -0.3102 -0.8677  2.1143
  832MOL0     H12287  11.039   7.832   6.644 -1.6771  0.4833 -0.9910
  832MOL0     H12288  10.913   7.709   6.807  2.1905  4.1120 -0.9713
  832MOL0     H12289  10.934   7.561   6.712 -0.0155  1.0808 -3.0835
  832MOL0     H12290  11.100   7.612   6.935  1.9269 -0.2442  0.4349
  832MOL0     H12291  11.174   7.697   6.811  0.8230 -0.3989 -0.0726
  832MOL0     H12292  11.119   7.392   6.783 -2.2419  2.1068  0.8060
  832MOL0     H12293  11.175   7.511   6.664 -2.0427 -2.5546 -0.5576
  832MOL0     H12294  11.349   7.363   6.808  3.4028  1.1797  1.0189
  832MOL0     H12295  11.303   7.470   6.946 -0.8290  0.0572 -0.2359
  832MOL0     H12296  11.387   7.654   6.829 -0.4449 -0.0070  1.4003
  832MOL0     H12297  11.512   7.527   6.820 -0.0866 -2.3759 -0.9846
  832MOL0     H12298  11.334   7.625   6.581  1.0763  2.4267 -0.3677
  832MOL0     H12299  11.447   7.493   6.572 -0.7753 -1.4304  0.6522
  832MOL0     H12300  11.623   7.659   6.660 -0.0258  0.3700 -0.8956
  832MOL0     H12301  11.505   7.789   6.630  1.0503 -0.2353  2.1132
  832MOL0     H12302  10.725   7.687   6.337  1.8233 -2.5043 -0.9447
  832MOL0     H12303  10.711   7.817   6.129  0.9604 -1.9405 -0.4370
  832MOL0     H12304  10.840   8.348   6.068  0.3813 -0.9379  0.8481
  832MOL0     H12305  10.755   8.542   5.927  0.9503  0.0055  3.2251
  832MOL0     H12306   9.361   8.813   4.350  0.6173  1.1216 -2.0436
  832MOL0     H12307   9.263   8.736   4.135 -1.3277  3.2815  2.8830
  832MOL0     H12308   9.055   8.169   3.907  0.5974  1.2802  0.8182
  832MOL0     H12309   8.962   8.161   3.674  1.7771  3.1947 -5.3887
  832MOL0     H12310   8.962   8.191   3.480 -1.0585 -0.6215  2.2248
  832MOL0     H12311   8.786   8.224   3.492  0.5219 -0.8894 -0.2995
  832MOL0     H12312   8.920   8.206   3.245 -1.5243 -1.0381 -1.8095
  832MOL0     H12313   8.914   8.383   3.269 -0.9647 -1.4747 -2.1620
  832MOL0     H12314   8.672   8.364   3.324  1.4285  3.1251 -1.4512
  832MOL0     H12315   8.676   8.201   3.292 -4.6432  2.8719  0.0957
  832MOL0     H12316   8.715   8.441   3.127 -4.8926  1.9920  2.4477
  832MOL0     H12317   8.574   8.344   3.108 -0.6288 -1.0261  0.5367
  832MOL0     H12318   8.901   8.106   2.927 -1.3356 -0.2798  1.3406
  832MOL0     H12319   8.928   8.577   3.662 -3.0847 -2.2234 -3.7835
  832MOL0     H12320   9.030   8.596   3.891 -1.1640 -0.0311  0.9009
  833MOL0     O12321   2.125   3.168   8.205 -0.1680  0.3710  0.2181
  833MOL0     C12322   2.193   3.236   8.281 -0.7713  0.0249  0.4179
  833MOL0     O12323   2.323   3.207   8.320 -0.2861  0.4684 -0.0357
  833MOL0     C12324   2.362   3.076   8.307 -0.8484  0.0637  0.1120
  833MOL0     C12325   2.409   3.003   8.415  0.0634  0.7156  0.2185
  833MOL0     C12326   2.467   2.869   8.400  0.2831 -0.3997 -0.0391
  833MOL0     C12327   2.477   2.811   8.270  0.4350 -0.1272 -0.1728
  833MOL0     O12328   2.543   2.694   8.285  1.1706  0.0284  0.3489
  833MOL0     C12329   2.527   2.585   8.194 -0.0280  0.7464  0.0123
  833MOL0     C12330   2.557   2.454   8.265 -0.1912  0.6443 -0.5942
  833MOL0     C12331   2.684   2.441   8.363 -0.0468 -0.3506 -0.1284
  833MOL0     C12332   2.672   2.305   8.440 -0.3182 -0.8042 -0.5894
  833MOL0     C12333   2.800   2.292   8.531  0.3437  0.2411 -1.4233
  833MOL0     C12334   2.771   2.339   8.677  0.6509  0.0129  0.1516
  833MOL0     C12335   2.879   2.296   8.791  0.1772  0.3676  0.3067
  833MOL0     C12336   2.818   2.338   8.926 -0.7081  0.1215  0.2269
  833MOL0     N12337   2.916   2.327   9.039  0.6493 -0.6133  0.0127
  833MOL0     C12338   2.965   2.208   9.076 -0.5080 -0.3795 -1.0106
  833MOL0     C12339   3.039   2.238   9.189  0.3469 -0.2323  0.1797
  833MOL0     C12340   3.120   2.130   9.264  0.1350  0.4701  0.7337
  833MOL0     C12341   3.274   2.139   9.260 -0.4058  0.4808 -0.6197
  833MOL0     C12342   3.318   2.050   9.379 -0.6060 -1.0061 -0.1737
  833MOL0     C12343   3.466   2.085   9.400  0.5367 -0.4315  0.6823
  833MOL0     O12344   3.483   2.225   9.431  0.4018 -0.8401  0.4491
  833MOL0     C12345   3.469   2.250   9.565 -0.0277 -1.0514  0.4461
  833MOL0     C12346   3.582   2.229   9.640  0.4704 -0.0709  0.3974
  833MOL0     C12347   3.593   2.288   9.768 -0.4185  1.0231  0.3360
  833MOL0     C12348   3.726   2.265   9.845 -0.1375  0.4577 -1.0285
  833MOL0     C12349   3.482   2.360   9.828  0.7401  0.4765  0.1277
  833MOL0     C12350   3.486   2.442   9.951  0.6051  0.5447 -0.2262
  833MOL0     O12351   3.602   2.440  10.029  1.0019  0.3176 -0.9828
  833MOL0     C12352   3.614   2.539  10.121  0.4329  0.3011  0.8107
  833MOL0     C12353   3.540   2.548  10.242 -0.0547  0.9051  0.1182
  833MOL0     C12354   3.576   2.642  10.339  0.7685  0.1289  0.6513
  833MOL0     C12355   3.679   2.726  10.315  0.2494 -0.6940  0.0194
  833MOL0     O12356   3.716   2.822  10.393  0.4885 -0.7484  0.9785
  833MOL0     C12357   3.613   2.897  10.470  0.0229 -0.8562  0.0363
  833MOL0     C12358   3.687   3.005  10.553 -0.3528 -0.9347 -0.0281
  833MOL0     C12359   3.612   3.061  10.680  0.2585 -0.4297 -1.5846
  833MOL0     C12360   3.696   3.165  10.760  0.4414 -0.1146 -1.3289
  833MOL0     C12361   3.655   3.308  10.730  0.5195 -0.2437 -0.4484
  833MOL0     C12362   3.751   3.405  10.810 -0.2847  1.4509  0.2792
  833MOL0     C12363   3.731   3.547  10.779 -0.3314 -0.0524  0.0546
  833MOL0     C12364   3.828   3.641  10.858  0.1758 -1.0002  0.6351
  833MOL0    Cl12365   3.802   3.640  11.026 -0.1333  0.2137  0.4577
  833MOL0     C12366   3.754   2.705  10.196  0.0997 -0.6835 -1.1906
  833MOL0     C12367   3.720   2.617  10.103 -0.5178 -0.4357  0.2611
  833MOL0     O12368   3.387   2.506   9.981 -0.4466 -0.6513 -0.7549
  833MOL0     C12369   3.364   2.366   9.749  0.1036  0.6274  0.1307
  833MOL0     C12370   3.358   2.314   9.615  0.3680 -0.3924 -0.2108
  833MOL0     N12371   3.025   2.374   9.218  0.5466  0.0386  0.4826
  833MOL0     N12372   2.945   2.418   9.129 -0.7396  0.1724 -0.6379
  833MOL0     C12373   2.425   2.881   8.155 -1.3501 -0.6985 -0.0307
  833MOL0     C12374   2.364   3.007   8.176  0.2771 -0.1798  0.0992
  833MOL0     C12375   2.139   3.359   8.319 -0.0445  0.1065  0.0811
  833MOL0     C12376   2.005   3.380   8.316  1.1254 -0.3744 -1.5093
  833MOL0     C12377   1.955   3.505   8.353  0.5211 -0.8427 -0.4309
  833MOL0     C12378   2.042   3.609   8.378  0.9102  0.3013 -0.3542
  833MOL0     O12379   1.993   3.730   8.419  0.3173 -0.3262  0.2187
  833MOL0     C12380   1.855   3.772   8.405 -0.2469  0.1015  0.3200
  833MOL0     C12381   1.857   3.925   8.437  0.2680  0.0702 -0.3397
  833MOL0     C12382   1.711   3.989   8.443 -1.2699  0.1879  0.4773
  833MOL0     C12383   1.715   4.134   8.398  0.5809 -0.1886 -0.3455
  833MOL0     C12384   1.819   4.216   8.463 -0.1892  0.1284 -0.0407
  833MOL0     C12385   1.906   4.278   8.520  0.1725 -0.2529 -0.5883
  833MOL0     C12386   2.182   3.593   8.391  1.4395  0.6575 -0.8514
  833MOL0     C12387   2.227   3.465   8.360  0.2438 -0.0054  0.1159
  833MOL0     H12388   2.420   3.069   8.501 -1.0510  0.2497  0.7345
  833MOL0     H12389   2.509   2.808   8.479  0.5439  0.1193  0.2212
  833MOL0     H12390   2.435   2.583   8.136  0.3156 -0.4786 -0.5247
  833MOL0     H12391   2.599   2.600   8.113 -0.8784  4.0291 -0.2595
  833MOL0     H12392   2.474   2.449   8.335  2.1786 -0.3567  2.3896
  833MOL0     H12393   2.556   2.383   8.182  1.1352  0.5175 -0.5268
  833MOL0     H12394   2.775   2.450   8.303 -1.5604 -0.1844 -2.5195
  833MOL0     H12395   2.682   2.523   8.436 -2.3818 -0.8688  0.4854
  833MOL0     H12396   2.586   2.293   8.506 -0.0943  1.4232  0.1967
  833MOL0     H12397   2.672   2.224   8.366 -1.9733 -1.1349 -0.2502
  833MOL0     H12398   2.814   2.183   8.529 -1.0191  0.0517 -2.0436
  833MOL0     H12399   2.887   2.339   8.485  1.5516 -0.9753 -0.4764
  833MOL0     H12400   2.759   2.447   8.684 -0.1534 -0.1431  5.1533
  833MOL0     H12401   2.676   2.295   8.708 -0.6868  2.8134  0.2684
  833MOL0     H12402   2.901   2.190   8.775  3.7025  0.8417  1.2688
  833MOL0     H12403   2.976   2.344   8.776  1.1924 -1.7761 -0.4517
  833MOL0     H12404   2.726   2.282   8.945 -0.9250  0.3765 -0.0553
  833MOL0     H12405   2.786   2.442   8.916  1.6363  1.2211  2.9250
  833MOL0     H12406   2.961   2.120   9.011 -1.7389  1.0023 -2.9090
  833MOL0     H12407   3.076   2.128   9.364  1.1321  1.1386  1.1980
  833MOL0     H12408   3.089   2.044   9.203 -1.3549  0.2711  1.7077
  833MOL0     H12409   3.299   2.245   9.268  0.4113  0.1413  2.7319
  833MOL0     H12410   3.320   2.098   9.170  0.1218  1.2798 -0.7264
  833MOL0     H12411   3.310   1.944   9.355 -1.5640 -1.1790  0.8174
  833MOL0     H12412   3.254   2.066   9.466 -4.2888 -2.7640 -2.2982
  833MOL0     H12413   3.525   2.067   9.309  3.4456  0.2324  2.3016
  833MOL0     H12414   3.508   2.023   9.479 -0.1795 -0.2669  1.1993
  833MOL0     H12415   3.650   2.160   9.591  0.3942  1.7434 -2.4837
  833MOL0     H12416   3.802   2.203   9.798  1.0420  2.3612 -1.7452
  833MOL0     H12417   3.778   2.361   9.844  0.5494  0.1443  0.5853
  833MOL0     H12418   3.713   2.238   9.950 -2.6926  0.6578 -1.2338
  833MOL0     H12419   3.456   2.482  10.262  0.2213  0.3209 -0.5987
  833MOL0     H12420   3.532   2.654  10.437  1.2119  0.7109  0.7882
  833MOL0     H12421   3.541   2.941  10.400  0.6966 -0.3303 -0.3370
  833MOL0     H12422   3.547   2.840  10.536  0.0513 -0.5863  0.3017
  833MOL0     H12423   3.779   2.973  10.604 -0.4708  0.6130  1.2762
  833MOL0     H12424   3.719   3.090  10.492 -1.5428 -0.4177  0.0347
  833MOL0     H12425   3.582   2.978  10.744  0.2782 -0.9943 -2.2868
  833MOL0     H12426   3.518   3.115  10.664  0.9317  2.2350  2.1265
  833MOL0     H12427   3.680   3.132  10.863  0.9168 -0.4802 -1.3655
  833MOL0     H12428   3.797   3.138  10.728  1.5977  0.2639  1.6773
  833MOL0     H12429   3.551   3.326  10.759  0.6713 -0.8684  0.5397
  833MOL0     H12430   3.665   3.329  10.623  1.5756  1.4204 -0.0666
  833MOL0     H12431   3.738   3.395  10.918 -3.6635  1.6768  0.0192
  833MOL0     H12432   3.854   3.373  10.795 -1.3057 -1.5486 -1.3714
  833MOL0     H12433   3.628   3.569  10.807 -0.7598 -2.1919  0.3888
  833MOL0     H12434   3.741   3.576  10.674 -3.1902  1.9589  0.2305
  833MOL0     H12435   3.808   3.744  10.829 -1.3067 -0.9552  1.6998
  833MOL0     H12436   3.928   3.615  10.823 -0.0246 -1.3471  0.3063
  833MOL0     H12437   3.835   2.775  10.178  0.9704 -1.3579 -0.0208
  833MOL0     H12438   3.786   2.610  10.017  0.9724  0.1615  1.3269
  833MOL0     H12439   3.283   2.428   9.786 -0.1173  1.6821 -1.9107
  833MOL0     H12440   3.275   2.323   9.545  0.1078 -2.2649 -0.1902
  833MOL0     H12441   2.436   2.830   8.059 -0.5693 -3.6619  1.4839
  833MOL0     H12442   2.325   3.062   8.090  1.0269 -0.9079 -0.7272
  833MOL0     H12443   1.938   3.298   8.290  0.3120  0.7406 -3.0850
  833MOL0     H12444   1.848   3.519   8.344  0.5178  1.6201  2.1471
  833MOL0     H12445   1.823   3.750   8.303  1.0557  0.3052 -0.1450
  833MOL0     H12446   1.791   3.717   8.475  0.3975  1.3732  1.9793
  833MOL0     H12447   1.905   3.973   8.351 -2.7316  2.1831 -1.0286
  833MOL0     H12448   1.914   3.940   8.529  0.7794 -0.2760 -0.5987
  833MOL0     H12449   1.672   3.977   8.544  0.4808  3.3851  1.6911
  833MOL0     H12450   1.647   3.934   8.374 -1.9347 -1.2103  2.1370
  833MOL0     H12451   1.618   4.182   8.414  0.4015 -1.0174  1.2575
  833MOL0     H12452   1.721   4.137   8.288 -1.6421  0.0820 -0.5210
  833MOL0     H12453   1.975   4.347   8.564  1.1313 -0.9524 -0.9730
  833MOL0     H12454   2.246   3.679   8.405 -0.4938  1.8603  1.4254
  833MOL0     H12455   2.334   3.454   8.356  0.1322 -0.9861 -2.5981
  834MOL0     O12456   2.119   9.337   3.504 -0.2789  0.7145 -0.0401
  834MOL0     C12457   2.012   9.284   3.485  0.5842 -1.3531 -0.2679
  834MOL0     O12458   1.890   9.353   3.493 -0.5987  0.5964 -0.0724
  834MOL0     C12459   1.881   9.476   3.556 -0.8619  0.1165 -0.0549
  834MOL0     C12460   1.960   9.521   3.662  0.6583 -0.8719  0.2167
  834MOL0     C12461   1.933   9.639   3.734  0.9901  0.1916 -0.5597
  834MOL0     C12462   1.820   9.721   3.703 -0.3971 -0.4045  1.4696
  834MOL0     O12463   1.784   9.828   3.782  0.0315 -0.3335 -0.3433
  834MOL0     C12464   1.879   9.882   3.871  0.1613  0.4506  1.1968
  834MOL0     C12465   1.887  10.034   3.874 -0.0096  0.2295 -0.2384
  834MOL0     C12466   1.783  10.081   3.969 -1.1860 -0.0336 -0.1323
  834MOL0     C12467   1.786  10.237   3.962  0.0767  0.7236 -0.3428
  834MOL0     C12468   1.693  10.292   4.069 -0.7303 -0.0615 -0.5452
  834MOL0     C12469   1.732  10.265   4.216  0.2234 -0.8197 -0.2045
  834MOL0     C12470   1.858  10.332   4.269 -0.4651  0.6610  0.1099
  834MOL0     C12471   1.897  10.284   4.409 -0.1061 -0.1139 -0.3947
  834MOL0     N12472   2.022  10.338   4.461  0.0587  0.3041  0.1766
  834MOL0     C12473   2.102  10.428   4.394 -0.8179 -0.7706 -0.9969
  834MOL0     C12474   2.221  10.426   4.482  0.4412 -0.6132  0.0221
  834MOL0     C12475   2.335  10.521   4.484 -0.4129  0.3227 -0.1302
  834MOL0     C12476   2.438  10.503   4.373  0.8867 -0.0221 -0.0674
  834MOL0     C12477   2.524  10.621   4.355 -0.7125 -0.0630  0.0233
  834MOL0     C12478   2.668  10.593   4.319 -0.4386  0.6894 -0.1405
  834MOL0     O12479   2.677  10.536   4.190 -0.0234 -0.6056 -0.0040
  834MOL0     C12480   2.674  10.620   4.081  1.6312  0.2125  0.2082
  834MOL0     C12481   2.647  10.758   4.084 -0.0439 -0.1111 -0.2810
  834MOL0     C12482   2.635  10.838   3.978  0.2105  0.1816  1.2428
  834MOL0     C12483   2.641  10.991   3.991  0.6845 -1.2670 -0.4285
  834MOL0     C12484   2.640  10.775   3.848  0.4990  0.3251  0.0174
  834MOL0     C12485   2.619  10.845   3.719  0.9212 -0.5256  0.4161
  834MOL0     O12486   2.663  10.787   3.610  0.3131 -0.2132  0.4377
  834MOL0     C12487   2.650  10.868   3.498  0.7233  0.4429  0.8122
  834MOL0     C12488   2.767  10.923   3.432  0.5235 -0.2706 -0.5819
  834MOL0     C12489   2.768  10.997   3.319  0.0973  0.3466  0.8723
  834MOL0     C12490   2.650  11.015   3.244 -0.1477  0.1296  0.1391
  834MOL0     O12491   2.632  11.083   3.130  0.0497 -0.4750  0.6340
  834MOL0     C12492   2.755  11.118   3.058  0.1311 -0.2149 -0.1367
  834MOL0     C12493   2.732  11.205   2.942  0.1812  0.4069 -0.5676
  834MOL0     C12494   2.717  11.127   2.810  0.0400  0.5700 -0.1206
  834MOL0     C12495   2.711  11.236   2.693  0.2145 -0.1876 -0.5787
  834MOL0     C12496   2.720  11.174   2.552 -0.0416  0.1090 -0.5722
  834MOL0     C12497   2.860  11.132   2.507 -0.5574  0.1517  0.4121
  834MOL0     C12498   2.976  11.229   2.522 -0.1608  0.2365  0.3413
  834MOL0     C12499   3.093  11.202   2.419 -0.0066  0.2586  0.5540
  834MOL0    Cl12500   3.028  11.251   2.260 -0.5202  0.2370 -0.0197
  834MOL0     C12501   2.531  10.953   3.303 -0.0758 -0.0317  0.2947
  834MOL0     C12502   2.530  10.884   3.423 -0.0681  0.4646  0.7489
  834MOL0     O12503   2.567  10.955   3.718 -0.0058 -0.3272 -0.5209
  834MOL0     C12504   2.664  10.635   3.845  0.6530  1.2094 -0.1431
  834MOL0     C12505   2.683  10.554   3.956 -0.5150 -0.0008  1.0482
  834MOL0     N12506   2.198  10.335   4.580  0.6846 -0.5743  0.7735
  834MOL0     N12507   2.080  10.283   4.576  0.5525 -0.2884  0.1890
  834MOL0     C12508   1.733   9.675   3.607 -0.0875  0.2648  0.3326
  834MOL0     C12509   1.762   9.562   3.542 -0.5071  0.3135  1.0072
  834MOL0     C12510   1.998   9.156   3.446 -0.2087  0.6849  0.4954
  834MOL0     C12511   1.890   9.073   3.483 -0.1103  0.5361  0.0720
  834MOL0     C12512   1.882   8.937   3.454 -0.1979 -0.2587 -0.3770
  834MOL0     C12513   1.993   8.869   3.403 -0.3537 -0.7472 -0.6413
  834MOL0     O12514   1.997   8.735   3.387  0.4509  0.6441 -0.2258
  834MOL0     C12515   1.954   8.643   3.491  0.0740  0.0735  0.7776
  834MOL0     C12516   1.821   8.587   3.432  0.5952 -0.0121 -0.1433
  834MOL0     C12517   1.759   8.473   3.513 -0.2980 -0.1599 -0.8364
  834MOL0     C12518   1.634   8.420   3.441  0.5838  0.4516  0.0139
  834MOL0     C12519   1.656   8.325   3.334 -0.5195  0.3801  0.4075
  834MOL0     C12520   1.657   8.237   3.251 -0.7896 -0.0424 -0.2440
  834MOL0     C12521   2.102   8.945   3.357  0.8766 -1.2236  0.1718
  834MOL0     C12522   2.100   9.085   3.371  0.2717  0.4197  0.5021
  834MOL0     H12523   2.048   9.462   3.687  0.2099 -2.4271 -1.5593
  834MOL0     H12524   1.993   9.655   3.823  0.8567  1.1593 -0.6335
  834MOL0     H12525   1.869   9.831   3.967 -0.3380 -3.2060 -0.6304
  834MOL0     H12526   1.981   9.867   3.834 -0.4546  0.3160 -0.5033
  834MOL0     H12527   1.986  10.075   3.897 -1.1387  1.5345  2.8257
  834MOL0     H12528   1.870  10.064   3.770  4.8757 -2.5164 -2.2197
  834MOL0     H12529   1.687  10.053   3.925 -0.3310 -1.4052 -1.2090
  834MOL0     H12530   1.786  10.044   4.072  0.8604 -1.3289 -0.6076
  834MOL0     H12531   1.892  10.252   3.986  0.9226 -3.7271 -0.5020
  834MOL0     H12532   1.751  10.272   3.864  1.2170  0.0664 -1.0090
  834MOL0     H12533   1.706  10.401   4.061  1.2052 -0.1497  0.6758
  834MOL0     H12534   1.589  10.271   4.043 -0.9629  1.9292 -1.4540
  834MOL0     H12535   1.650  10.308   4.274 -0.0664 -1.1756 -0.3527
  834MOL0     H12536   1.734  10.159   4.243 -0.6950 -1.1354 -1.3098
  834MOL0     H12537   1.939  10.318   4.197 -0.6373  1.6228 -0.2913
  834MOL0     H12538   1.852  10.441   4.279  0.2459  0.6705  0.5210
  834MOL0     H12539   1.910  10.175   4.412  1.5669 -0.0705  5.2397
  834MOL0     H12540   1.824  10.312   4.485  0.3338  2.5753 -0.8508
  834MOL0     H12541   2.088  10.488   4.305  0.9510 -0.6214 -1.1914
  834MOL0     H12542   2.288  10.619   4.471  0.9029  0.6770 -2.9918
  834MOL0     H12543   2.392  10.519   4.578 -0.7951  1.4744  0.1386
  834MOL0     H12544   2.383  10.491   4.279  0.1402  0.4045  0.3052
  834MOL0     H12545   2.486  10.407   4.395 -1.4285 -0.2268  5.7138
  834MOL0     H12546   2.526  10.682   4.446 -1.1292  0.9761 -0.6405
  834MOL0     H12547   2.474  10.677   4.275  1.1568  2.5799  0.5592
  834MOL0     H12548   2.702  10.516   4.390  0.8730  0.8951 -0.5124
  834MOL0     H12549   2.734  10.679   4.334  1.0020 -0.5874  1.2467
  834MOL0     H12550   2.628  10.799   4.182 -3.3171 -4.2806  1.1164
  834MOL0     H12551   2.556  11.035   3.937 -1.6792 -1.0640  3.1088
  834MOL0     H12552   2.624  11.004   4.098 -0.2082 -1.1868 -0.5660
  834MOL0     H12553   2.741  11.027   3.968  2.2203 -1.8674  4.2527
  834MOL0     H12554   2.864  10.902   3.476 -0.4994 -1.5230  1.2262
  834MOL0     H12555   2.856  11.043   3.276  0.1923 -0.3091  0.3650
  834MOL0     H12556   2.821  11.174   3.125 -2.5430  3.2203 -0.0767
  834MOL0     H12557   2.806  11.025   3.032 -0.1696 -0.7339  1.0292
  834MOL0     H12558   2.654  11.281   2.950  1.1684  1.5327 -1.1937
  834MOL0     H12559   2.824  11.261   2.919  0.8006 -1.1478 -2.0393
  834MOL0     H12560   2.631  11.060   2.805  0.6524 -0.2205 -0.4224
  834MOL0     H12561   2.805  11.062   2.799 -1.4132 -1.0904 -3.0183
  834MOL0     H12562   2.612  11.281   2.679  0.0594 -1.2394 -3.5007
  834MOL0     H12563   2.789  11.312   2.704 -0.3094  0.0840  1.7753
  834MOL0     H12564   2.698  11.257   2.484 -0.9335  2.4263  2.2717
  834MOL0     H12565   2.647  11.095   2.534 -1.2310  1.6404 -2.8851
  834MOL0     H12566   2.881  11.036   2.556  1.4385 -0.1387 -0.8758
  834MOL0     H12567   2.853  11.099   2.403 -0.8990 -1.6198  0.9545
  834MOL0     H12568   3.022  11.235   2.621  0.2915  1.6391  0.0756
  834MOL0     H12569   2.940  11.330   2.502  1.6289  0.5107 -2.0360
  834MOL0     H12570   3.119  11.096   2.411  1.1430  0.5194  0.7581
  834MOL0     H12571   3.183  11.264   2.426 -2.3054  3.8150  1.6676
  834MOL0     H12572   2.435  10.957   3.253  0.5593 -1.4794 -1.1058
  834MOL0     H12573   2.444  10.847   3.477 -0.2638  0.9172  0.7530
  834MOL0     H12574   2.670  10.598   3.743  0.1947  2.7446 -0.7468
  834MOL0     H12575   2.702  10.449   3.941 -0.7162  0.1882 -0.6396
  834MOL0     H12576   1.650   9.738   3.576 -0.1408  2.3170  4.0119
  834MOL0     H12577   1.682   9.531   3.475  0.8049  1.6559 -1.3129
  834MOL0     H12578   1.813   9.117   3.547 -0.7037  1.4190 -1.2064
  834MOL0     H12579   1.800   8.877   3.493  0.8117 -2.6602 -1.7603
  834MOL0     H12580   2.029   8.564   3.496 -1.2126 -1.3053 -0.6151
  834MOL0     H12581   1.935   8.701   3.582 -0.4086  0.1480  0.6360
  834MOL0     H12582   1.848   8.537   3.338 -1.6571 -5.6608  1.7703
  834MOL0     H12583   1.745   8.663   3.414 -3.8235 -3.4370  2.0962
  834MOL0     H12584   1.729   8.503   3.614 -0.2886 -3.8920  0.4281
  834MOL0     H12585   1.827   8.390   3.531 -0.2650 -0.0695 -0.5410
  834MOL0     H12586   1.573   8.507   3.416 -0.8776 -0.8887 -1.3593
  834MOL0     H12587   1.572   8.355   3.504  2.2899 -3.3258 -1.8177
  834MOL0     H12588   1.654   8.161   3.175 -0.2434 -1.4300  1.0584
  834MOL0     H12589   2.193   8.905   3.316  2.8224  1.3164  1.6742
  834MOL0     H12590   2.187   9.133   3.327 -2.0895  2.1763 -2.6832
  835MOL0     O12591   3.315  10.672   2.404 -0.2120  0.2784 -0.4809
  835MOL0     C12592   3.399  10.727   2.335  0.3743  0.2945 -0.2215
  835MOL0     O12593   3.498  10.811   2.372  0.0558 -0.9491 -0.7716
  835MOL0     C12594   3.502  10.846   2.502  0.2641  0.2936 -1.1513
  835MOL0     C12595   3.397  10.926   2.554 -1.1588 -0.2448  0.0457
  835MOL0     C12596   3.411  10.973   2.690  0.1989  0.4820  0.2604
  835MOL0     C12597   3.527  10.936   2.765 -0.2012  0.1215  0.6618
  835MOL0     O12598   3.547  10.948   2.903  0.0252  0.6448 -0.1515
  835MOL0     C12599   3.448  10.992   2.981  0.1232 -0.2209 -0.6622
  835MOL0     C12600   3.495  10.994   3.129  0.4943 -0.6865  0.8523
  835MOL0     C12601   3.598  11.123   3.131 -0.6668  0.1982  0.1411
  835MOL0     C12602   3.707  11.102   3.236  0.0576 -0.0236  1.4252
  835MOL0     C12603   3.777  11.243   3.243 -0.0730  0.0745 -0.2617
  835MOL0     C12604   3.906  11.217   3.323  0.4524  0.2594 -0.1625
  835MOL0     C12605   4.005  11.334   3.333  0.3736 -0.1493 -0.1331
  835MOL0     C12606   3.935  11.431   3.426 -0.5036  0.0168  0.0068
  835MOL0     N12607   4.007  11.563   3.423 -0.7660  0.2272  0.3202
  835MOL0     C12608   4.026  11.632   3.308 -0.4498 -0.2622 -0.1530
  835MOL0     C12609   4.108  11.733   3.335 -1.2018 -0.1371 -0.3631
  835MOL0     C12610   4.158  11.837   3.242  0.2734 -0.1781  0.2449
  835MOL0     C12611   4.311  11.838   3.226 -0.1184  0.0937 -1.3887
  835MOL0     C12612   4.366  11.966   3.164 -0.0512 -0.7668 -0.3488
  835MOL0     C12613   4.441  11.938   3.036  0.1426 -0.2388  0.1398
  835MOL0     O12614   4.343  11.898   2.939 -0.3817  0.3299  0.9417
  835MOL0     C12615   4.396  11.875   2.815  0.1825  0.2191 -0.9963
  835MOL0     C12616   4.302  11.838   2.724 -0.3996  0.2737  0.5141
  835MOL0     C12617   4.329  11.833   2.585  0.1089 -0.6505  0.3380
  835MOL0     C12618   4.212  11.833   2.496  0.0327 -0.0734  0.5678
  835MOL0     C12619   4.463  11.856   2.537  0.0476 -0.1573  0.5263
  835MOL0     C12620   4.492  11.881   2.393 -0.1611 -0.0530 -0.4514
  835MOL0     O12621   4.595  11.970   2.382 -0.8351 -0.0026  0.6777
  835MOL0     C12622   4.631  12.027   2.260  0.6407  0.2774  0.3597
  835MOL0     C12623   4.754  11.993   2.197  0.9528  0.0509 -0.1659
  835MOL0     C12624   4.794  12.038   2.073  0.3380 -1.1608  0.2601
  835MOL0     C12625   4.708  12.130   2.008  0.7446  0.3776  0.7147
  835MOL0     O12626   4.744  12.188   1.891 -0.7012  0.3189  0.2239
  835MOL0     C12627   4.826  12.108   1.791 -0.3784 -0.6846 -1.2800
  835MOL0     C12628   4.864  12.197   1.669 -0.2602 -0.4375 -0.6681
  835MOL0     C12629   4.962  12.308   1.705 -0.2987 -0.6294  0.0961
  835MOL0     C12630   4.974  12.402   1.589 -0.5176 -0.3511 -0.3421
  835MOL0     C12631   5.070  12.518   1.611  0.2902  0.4654  0.0658
  835MOL0     C12632   5.219  12.470   1.590  1.1598 -0.2920 -0.6212
  835MOL0     C12633   5.299  12.589   1.640 -0.1133  0.0481 -0.0304
  835MOL0     C12634   5.447  12.561   1.667 -0.6052 -0.4922 -0.0667
  835MOL0    Cl12635   5.527  12.513   1.514 -0.1002  0.0070  0.1285
  835MOL0     C12636   4.583  12.162   2.063 -0.0278  0.1470 -0.0602
  835MOL0     C12637   4.549  12.115   2.191  0.4867 -0.1161 -0.4164
  835MOL0     O12638   4.424  11.834   2.303  0.0775  0.2474 -0.0333
  835MOL0     C12639   4.551  11.882   2.636 -1.0957 -0.0234 -1.1095
  835MOL0     C12640   4.524  11.894   2.775 -0.4453 -0.2288  0.5170
  835MOL0     N12641   4.137  11.734   3.471  0.5910  0.2165 -0.3281
  835MOL0     N12642   4.076  11.631   3.524  0.4135  0.5104 -0.9279
  835MOL0     C12643   3.632  10.849   2.712  0.1069 -1.5795 -0.5062
  835MOL0     C12644   3.613  10.798   2.583  0.1601 -1.4274 -0.0429
  835MOL0     C12645   3.398  10.694   2.185 -0.4811  0.5747  0.1419
  835MOL0     C12646   3.282  10.635   2.131 -1.2449  0.2079 -0.3766
  835MOL0     C12647   3.268  10.594   1.995 -0.8262  0.9419 -0.7460
  835MOL0     C12648   3.378  10.604   1.915 -0.1734 -0.7061 -0.4061
  835MOL0     O12649   3.377  10.572   1.787 -0.2183  0.0494  0.9180
  835MOL0     C12650   3.271  10.500   1.721  0.6175  0.4964 -0.2808
  835MOL0     C12651   3.317  10.431   1.582  0.3889  0.1828  0.8521
  835MOL0     C12652   3.366  10.532   1.475 -0.7462 -0.0013  0.0665
  835MOL0     C12653   3.266  10.649   1.448 -0.4724 -0.1763  0.7440
  835MOL0     C12654   3.285  10.717   1.323 -1.1723 -0.3337  0.1940
  835MOL0     C12655   3.320  10.765   1.218  0.0741  0.1197  0.0297
  835MOL0     C12656   3.495  10.657   1.964  0.7268 -0.1964 -0.3172
  835MOL0     C12657   3.509  10.704   2.101  0.4889  0.7052 -1.2352
  835MOL0     H12658   3.314  10.966   2.497 -0.6722 -0.1752 -0.6173
  835MOL0     H12659   3.320  11.006   2.740 -1.8940 -2.5948 -1.1922
  835MOL0     H12660   3.416  11.089   2.943  1.7248  0.8713  0.6638
  835MOL0     H12661   3.360  10.926   2.979 -1.0345  1.2253  0.3781
  835MOL0     H12662   3.417  11.017   3.202  0.0649 -2.8409  1.1312
  835MOL0     H12663   3.542  10.899   3.156  2.4116 -0.7938 -2.2974
  835MOL0     H12664   3.648  11.126   3.035  2.8758 -1.6085  1.7360
  835MOL0     H12665   3.548  11.220   3.138 -2.5567 -0.5936 -1.3422
  835MOL0     H12666   3.676  11.061   3.332  2.4655 -0.0482  2.2561
  835MOL0     H12667   3.783  11.030   3.204 -0.6213 -0.1736  0.0570
  835MOL0     H12668   3.793  11.286   3.144 -1.8253  1.5468  0.0293
  835MOL0     H12669   3.706  11.307   3.296  0.3067 -0.8170  1.3780
  835MOL0     H12670   3.874  11.188   3.423 -1.0757  0.9517 -0.4250
  835MOL0     H12671   3.960  11.142   3.265 -1.3358 -1.0927 -0.1602
  835MOL0     H12672   4.105  11.311   3.371  0.9006 -0.7773 -1.8185
  835MOL0     H12673   4.017  11.372   3.232  1.4343  2.8841  1.0314
  835MOL0     H12674   3.946  11.381   3.522  1.4247 -1.7283 -1.0437
  835MOL0     H12675   3.830  11.451   3.400 -1.2671 -0.8071  2.2378
  835MOL0     H12676   3.979  11.613   3.212 -0.6707 -3.5304  0.5013
  835MOL0     H12677   4.122  11.828   3.139  2.0592 -0.4833 -0.3818
  835MOL0     H12678   4.126  11.935   3.279  2.3441  0.7541 -0.2984
  835MOL0     H12679   4.341  11.752   3.166 -1.5983  0.8279 -3.2429
  835MOL0     H12680   4.354  11.834   3.327 -1.4475 -0.0240 -0.8118
  835MOL0     H12681   4.433  12.011   3.238 -1.2165 -1.7562  1.3717
  835MOL0     H12682   4.291  12.043   3.144 -2.7291 -3.0110  0.4339
  835MOL0     H12683   4.517  11.859   3.037 -0.8081 -1.1857 -1.0476
  835MOL0     H12684   4.479  12.034   2.999 -0.3284 -1.3836 -3.6506
  835MOL0     H12685   4.201  11.828   2.764 -1.2658  0.9991 -1.3411
  835MOL0     H12686   4.212  11.936   2.459  3.1002 -0.2195 -0.0625
  835MOL0     H12687   4.220  11.755   2.420  3.6809  1.1686 -0.5143
  835MOL0     H12688   4.121  11.822   2.557  0.3154  0.2122  1.0465
  835MOL0     H12689   4.808  11.918   2.254 -0.9316 -1.9086 -0.8242
  835MOL0     H12690   4.882  11.990   2.031  0.3206 -1.1896  0.2557
  835MOL0     H12691   4.913  12.060   1.837 -1.7463 -2.4638 -0.4102
  835MOL0     H12692   4.750  12.033   1.769 -3.1237  1.2930  0.8180
  835MOL0     H12693   4.919  12.140   1.593  0.2817  0.8767 -1.2998
  835MOL0     H12694   4.776  12.244   1.626 -0.6981 -2.0999 -1.6799
  835MOL0     H12695   5.057  12.270   1.743  0.2195  1.8784  1.5672
  835MOL0     H12696   4.914  12.363   1.787 -2.4189 -0.8324 -0.9326
  835MOL0     H12697   5.001  12.357   1.493  2.5438  1.1485 -0.3233
  835MOL0     H12698   4.880  12.457   1.580  1.1622  3.4166  2.5164
  835MOL0     H12699   5.053  12.569   1.706 -0.9791 -0.5857  0.4481
  835MOL0     H12700   5.039  12.598   1.542 -2.4746 -0.3052  0.2739
  835MOL0     H12701   5.244  12.385   1.653  3.6804  1.1917  0.5515
  835MOL0     H12702   5.230  12.450   1.483 -2.0227  2.6501 -1.6834
  835MOL0     H12703   5.253  12.623   1.734 -0.3513  2.3515 -0.9250
  835MOL0     H12704   5.290  12.675   1.573 -0.7669  0.0904  0.1080
  835MOL0     H12705   5.453  12.483   1.743 -2.4942  2.2710  3.2358
  835MOL0     H12706   5.498  12.649   1.707  1.4925 -0.8955 -1.6465
  835MOL0     H12707   4.523  12.239   2.016  0.6236  0.6843 -0.0217
  835MOL0     H12708   4.448  12.129   2.228  1.0531  2.6840  0.3160
  835MOL0     H12709   4.653  11.901   2.603 -1.1407  1.7807 -0.3296
  835MOL0     H12710   4.612  11.917   2.835  1.5779 -1.0915 -1.9423
  835MOL0     H12711   3.714  10.828   2.779  0.9833  2.9715  0.1413
  835MOL0     H12712   3.701  10.750   2.542  1.7855  1.6076 -0.4034
  835MOL0     H12713   3.194  10.613   2.190  0.7829 -2.6338  1.9105
  835MOL0     H12714   3.177  10.540   1.971 -0.7487  1.2784 -1.8426
  835MOL0     H12715   3.240  10.418   1.786  0.9608  0.0049 -0.7338
  835MOL0     H12716   3.189  10.572   1.709  2.4738  2.6942 -0.5201
  835MOL0     H12717   3.235  10.373   1.539 -0.9375  1.3802  1.6928
  835MOL0     H12718   3.394  10.354   1.590 -0.0551 -0.4357 -0.4346
  835MOL0     H12719   3.380  10.478   1.380 -0.9553  0.0021  0.0349
  835MOL0     H12720   3.466  10.552   1.515 -0.1809 -2.6840  0.1840
  835MOL0     H12721   3.286  10.727   1.522 -0.9861 -1.6253  2.4758
  835MOL0     H12722   3.163  10.613   1.449 -0.8999  1.0043  1.5411
  835MOL0     H12723   3.343  10.830   1.136 -0.6121  1.0155  0.5292
  835MOL0     H12724   3.585  10.662   1.903 -0.3874  1.6612 -1.9191
  835MOL0     H12725   3.601  10.755   2.127  1.7486 -2.6252  1.7263
  836MOL0     O12726   8.564   3.238   9.458 -0.4850 -0.0128 -0.7080
  836MOL0     C12727   8.633   3.291   9.540 -0.2020 -0.1270 -0.4135
  836MOL0     O12728   8.620   3.424   9.577 -0.4807  0.7037  0.1544
  836MOL0     C12729   8.524   3.486   9.496  0.1157 -0.9977 -0.5436
  836MOL0     C12730   8.538   3.495   9.356  0.4283 -1.0633  0.7650
  836MOL0     C12731   8.441   3.549   9.280  0.2290  0.0677  1.2481
  836MOL0     C12732   8.330   3.610   9.334  0.3457 -0.7940 -0.6251
  836MOL0     O12733   8.256   3.675   9.245 -0.4339 -1.3456 -0.6899
  836MOL0     C12734   8.144   3.763   9.294 -1.0253 -0.2864  0.0644
  836MOL0     C12735   8.212   3.893   9.342 -0.5541  0.6527  0.6444
  836MOL0     C12736   8.119   3.993   9.409 -0.0531  0.5830  0.8313
  836MOL0     C12737   8.203   4.118   9.438  0.9517  0.1007 -0.4430
  836MOL0     C12738   8.118   4.248   9.452  0.1012  0.5995 -0.0895
  836MOL0     C12739   8.215   4.364   9.491 -0.6730  0.4453 -0.4808
  836MOL0     C12740   8.140   4.489   9.479 -0.5714  0.2370 -0.9248
  836MOL0     C12741   8.235   4.606   9.513  0.9530 -0.1067 -1.3655
  836MOL0     N12742   8.181   4.727   9.463 -0.3977 -1.2880  0.1397
  836MOL0     C12743   8.150   4.757   9.335 -0.0835  0.0293 -0.2481
  836MOL0     C12744   8.140   4.885   9.328  0.0376 -0.4683 -0.5476
  836MOL0     C12745   8.100   4.970   9.208  0.0267  0.2881  0.2768
  836MOL0     C12746   7.979   4.910   9.139  0.1886  0.0432 -0.1993
  836MOL0     C12747   7.931   5.013   9.031  0.5464 -1.0127  0.7865
  836MOL0     C12748   7.814   4.942   8.953  0.2566  0.1422  0.2254
  836MOL0     O12749   7.761   5.033   8.854  0.4037 -0.8251  0.3751
  836MOL0     C12750   7.732   4.981   8.729  0.7375 -0.8622  1.0320
  836MOL0     C12751   7.662   4.870   8.708 -0.6739 -0.0519  0.7983
  836MOL0     C12752   7.661   4.804   8.582  0.9363  0.4770  1.1394
  836MOL0     C12753   7.586   4.671   8.565 -0.1904 -1.1825 -0.1252
  836MOL0     C12754   7.735   4.857   8.476  0.1802  1.3078  0.5939
  836MOL0     C12755   7.748   4.794   8.345  0.3214 -0.6554  0.2984
  836MOL0     O12756   7.868   4.792   8.291  0.3447  1.3965 -0.2157
  836MOL0     C12757   7.902   4.763   8.163  0.6771 -0.0890 -0.7819
  836MOL0     C12758   7.827   4.787   8.059 -1.2106  0.1917  0.2070
  836MOL0     C12759   7.873   4.771   7.916 -0.6165  0.1120 -0.3797
  836MOL0     C12760   8.011   4.731   7.907 -0.5780 -0.3332  0.6097
  836MOL0     O12761   8.048   4.712   7.776  0.4723  0.6393 -0.4789
  836MOL0     C12762   8.136   4.609   7.739 -0.1771  0.4266  0.1612
  836MOL0     C12763   8.111   4.580   7.590  1.2723  0.0339  1.4290
  836MOL0     C12764   7.987   4.488   7.566  0.3638  1.6451  0.2483
  836MOL0     C12765   8.027   4.343   7.615 -0.1203 -0.5937 -0.2656
  836MOL0     C12766   7.936   4.228   7.576 -0.5707  0.2006 -0.8983
  836MOL0     C12767   7.790   4.248   7.611 -0.0881  0.0965  0.1068
  836MOL0     C12768   7.701   4.131   7.560 -0.3072  0.9685  0.4520
  836MOL0     C12769   7.568   4.100   7.645 -0.9553  0.6943 -0.1946
  836MOL0    Cl12770   7.430   4.204   7.600 -0.4480 -0.3255  0.3690
  836MOL0     C12771   8.086   4.721   8.016  0.5338 -0.1028 -0.2602
  836MOL0     C12772   8.037   4.727   8.145  0.3470 -0.0923 -0.4388
  836MOL0     O12773   7.649   4.751   8.292  0.9543 -0.1517 -0.2185
  836MOL0     C12774   7.813   4.974   8.501 -0.3221 -0.6083 -0.0898
  836MOL0     C12775   7.808   5.041   8.625 -0.8670  0.1870 -0.0718
  836MOL0     N12776   8.162   4.941   9.452 -0.8787 -0.0295  0.6298
  836MOL0     N12777   8.180   4.845   9.533  0.5459  0.1231  0.9612
  836MOL0     C12778   8.309   3.600   9.471  1.0430  0.7312  0.1619
  836MOL0     C12779   8.409   3.544   9.553 -1.1853  0.4654 -0.1901
  836MOL0     C12780   8.759   3.220   9.575  0.2794  0.0676 -1.0794
  836MOL0     C12781   8.865   3.276   9.647 -0.4090 -0.6125 -0.1845
  836MOL0     C12782   8.976   3.208   9.696  0.1021 -0.0361 -0.3453
  836MOL0     C12783   9.001   3.077   9.658  0.3263  1.1636 -0.8859
  836MOL0     O12784   9.125   3.023   9.681  0.1913  0.7000 -0.2376
  836MOL0     C12785   9.126   2.883   9.691 -0.4477 -0.2051 -0.0295
  836MOL0     C12786   9.236   2.842   9.789  0.3407  0.2897 -0.2799
  836MOL0     C12787   9.244   2.688   9.806 -0.6277  0.5826 -0.3559
  836MOL0     C12788   9.385   2.640   9.845  0.1736  0.3923 -0.1461
  836MOL0     C12789   9.438   2.519   9.781 -0.4129 -1.2647  0.0364
  836MOL0     C12790   9.475   2.425   9.713  0.1095 -0.0107 -0.2881
  836MOL0     C12791   8.898   3.016   9.582  0.1770  0.4444  0.3298
  836MOL0     C12792   8.779   3.082   9.543  0.1950  0.1969  0.5131
  836MOL0     H12793   8.629   3.457   9.311 -0.3549 -0.8018 -1.1204
  836MOL0     H12794   8.456   3.551   9.173  1.5610 -0.1834  1.4113
  836MOL0     H12795   8.072   3.791   9.216 -2.3323  2.8639  2.1817
  836MOL0     H12796   8.090   3.706   9.370 -2.1342  1.0437  0.3194
  836MOL0     H12797   8.297   3.867   9.406  2.0723  2.4110 -1.8649
  836MOL0     H12798   8.260   3.935   9.253  1.8992 -2.1854  0.4486
  836MOL0     H12799   8.042   4.027   9.338 -0.9141  0.1200  1.5382
  836MOL0     H12800   8.073   3.956   9.500 -0.3589  0.3451  0.5812
  836MOL0     H12801   8.264   4.109   9.529 -2.2165 -1.8716  1.7091
  836MOL0     H12802   8.274   4.129   9.355 -0.3009  1.2674 -1.4014
  836MOL0     H12803   8.066   4.259   9.357 -2.5615 -1.6917  0.9766
  836MOL0     H12804   8.039   4.231   9.525  2.1635 -0.1774  2.1218
  836MOL0     H12805   8.241   4.329   9.592 -0.7531  0.4411 -0.4611
  836MOL0     H12806   8.298   4.363   9.420 -0.8428  2.8603 -0.7866
  836MOL0     H12807   8.096   4.501   9.380 -0.5799  0.0603 -0.9428
  836MOL0     H12808   8.054   4.497   9.547  0.9926 -0.5276  1.2606
  836MOL0     H12809   8.328   4.596   9.457  1.4807  0.8490 -0.6647
  836MOL0     H12810   8.249   4.607   9.621  0.0500  0.1665 -1.2435
  836MOL0     H12811   8.118   4.695   9.252 -1.3866 -0.8070  0.8219
  836MOL0     H12812   8.075   5.074   9.231  2.7846  1.0432  0.2370
  836MOL0     H12813   8.174   4.973   9.127 -2.7175 -2.3237 -2.6110
  836MOL0     H12814   7.906   4.867   9.207  0.6685 -2.0912 -0.9390
  836MOL0     H12815   8.005   4.818   9.085  1.9351 -0.6925  1.7463
  836MOL0     H12816   8.008   5.025   8.954 -1.2403 -4.8989 -1.9537
  836MOL0     H12817   7.899   5.109   9.072  1.2201  0.4532 -1.8415
  836MOL0     H12818   7.733   4.928   9.026  0.8498 -0.5486  0.7644
  836MOL0     H12819   7.847   4.851   8.903  2.0365  0.6247  0.4625
  836MOL0     H12820   7.608   4.822   8.789 -2.3038  0.4815  0.0677
  836MOL0     H12821   7.527   4.658   8.657 -1.7845 -0.1458 -0.9619
  836MOL0     H12822   7.521   4.683   8.478  3.2165  4.3719 -2.3987
  836MOL0     H12823   7.650   4.584   8.546  0.2427 -0.8622 -0.1357
  836MOL0     H12824   7.730   4.835   8.052  0.0017  2.8818  0.6817
  836MOL0     H12825   7.820   4.802   7.827  2.4417  2.3309 -1.6035
  836MOL0     H12826   8.238   4.646   7.757  0.7630 -1.9396 -0.0029
  836MOL0     H12827   8.125   4.521   7.803 -1.8438  1.8348  1.9056
  836MOL0     H12828   8.106   4.675   7.537  3.8948 -0.0271  0.9282
  836MOL0     H12829   8.193   4.521   7.547  1.4880  1.7136 -0.5810
  836MOL0     H12830   7.959   4.472   7.462 -1.9640 -0.8203  1.1365
  836MOL0     H12831   7.906   4.519   7.632  1.4776 -1.0963  3.1573
  836MOL0     H12832   8.129   4.319   7.585  0.2121  0.1536  0.2401
  836MOL0     H12833   8.025   4.351   7.725  2.4839  1.6508 -0.2911
  836MOL0     H12834   7.958   4.140   7.637  1.3123  1.3001  0.1028
  836MOL0     H12835   7.945   4.207   7.469 -0.7691 -0.6288 -0.7545
  836MOL0     H12836   7.780   4.254   7.719  0.4307  0.6662  0.1267
  836MOL0     H12837   7.750   4.342   7.572  0.7190 -0.8336 -3.3211
  836MOL0     H12838   7.766   4.043   7.566 -1.1516  0.4145  2.6739
  836MOL0     H12839   7.663   4.139   7.458  0.3748 -0.3920  0.0743
  836MOL0     H12840   7.588   4.112   7.752  0.0018 -2.4897  0.1037
  836MOL0     H12841   7.541   3.994   7.637 -0.2204  0.2652  2.1723
  836MOL0     H12842   8.190   4.696   7.995  0.2027 -0.0863 -2.1705
  836MOL0     H12843   8.108   4.713   8.227  1.3260  0.0291 -1.2428
  836MOL0     H12844   7.848   5.031   8.416 -2.0058  0.1825 -0.3063
  836MOL0     H12845   7.864   5.135   8.623 -3.5473  1.9248  0.9019
  836MOL0     H12846   8.221   3.644   9.516  0.9227 -1.6478  2.5559
  836MOL0     H12847   8.396   3.547   9.661 -0.3093  2.3342 -0.1013
  836MOL0     H12848   8.859   3.383   9.669 -4.5409 -0.9815  1.5060
  836MOL0     H12849   9.060   3.243   9.755  1.4192 -2.4781 -0.6407
  836MOL0     H12850   9.033   2.843   9.733 -0.2854 -1.6787 -1.0165
  836MOL0     H12851   9.143   2.841   9.592 -0.7402 -2.3673  0.7959
  836MOL0     H12852   9.199   2.863   9.890  1.1377 -0.7110  0.2334
  836MOL0     H12853   9.330   2.877   9.747 -0.9124  1.0652 -2.6304
  836MOL0     H12854   9.201   2.629   9.725  0.3807 -3.3810  1.7218
  836MOL0     H12855   9.170   2.665   9.884 -2.7652  0.2871 -2.3788
  836MOL0     H12856   9.393   2.629   9.954  0.2627 -1.5110 -0.3160
  836MOL0     H12857   9.457   2.721   9.829  1.7508 -1.1625 -1.4739
  836MOL0     H12858   9.505   2.343   9.652  0.7480 -1.2275  1.5712
  836MOL0     H12859   8.920   2.919   9.539 -3.2435  0.0001 -0.7662
  836MOL0     H12860   8.705   3.023   9.490  1.6561 -2.1356  0.9410
  837MOL0     O12861  11.187   6.173  10.844  0.6333  0.7955  0.2829
  837MOL0     C12862  11.296   6.216  10.807 -0.1365  0.9937 -0.6247
  837MOL0     O12863  11.385   6.290  10.885  0.0240 -0.6089  0.6797
  837MOL0     C12864  11.337   6.337  11.008 -0.4653 -0.4136  0.7401
  837MOL0     C12865  11.310   6.240  11.107 -0.4439  0.7464 -0.6034
  837MOL0     C12866  11.260   6.277  11.235  0.1248 -0.5444  0.2845
  837MOL0     C12867  11.246   6.414  11.253 -1.2088 -0.7756 -0.1152
  837MOL0     O12868  11.198   6.465  11.373  0.0229  0.2011  0.2071
  837MOL0     C12869  11.174   6.387  11.497  0.2299 -0.3853 -0.2033
  837MOL0     C12870  11.092   6.476  11.592 -0.4596  0.0099 -0.6599
  837MOL0     C12871  11.081   6.434  11.738 -0.2957 -0.3106  0.8043
  837MOL0     C12872  11.014   6.549  11.822  0.5365  0.1285  0.3595
  837MOL0     C12873  11.034   6.544  11.971 -0.0321  0.2889 -0.9149
  837MOL0     C12874  10.996   6.670  12.040 -0.6928  0.9773 -0.1420
  837MOL0     C12875  11.051   6.688  12.180  0.5856  0.0297 -0.4594
  837MOL0     C12876  11.013   6.804  12.266  0.1089 -0.3326  0.4927
  837MOL0     N12877  11.000   6.923  12.180 -0.5329 -0.8402  0.4357
  837MOL0     C12878  10.897   6.969  12.100  0.0607 -0.1436  0.0870
  837MOL0     C12879  10.939   7.096  12.067  0.0292  1.1299 -0.2589
  837MOL0     C12880  10.872   7.179  11.963  0.3282 -0.6357 -0.7818
  837MOL0     C12881  10.885   7.134  11.818 -0.3942 -0.1520 -0.4109
  837MOL0     C12882  10.821   6.995  11.795  0.6620 -0.0031 -0.5559
  837MOL0     C12883  10.767   6.961  11.655  0.0383 -0.1610 -0.5849
  837MOL0     O12884  10.645   7.036  11.623 -0.5596 -0.3871  0.2984
  837MOL0     C12885  10.595   7.008  11.501  0.4279 -0.8090  0.4471
  837MOL0     C12886  10.474   7.076  11.476 -0.0778 -0.0324 -0.6563
  837MOL0     C12887  10.383   7.025  11.377  0.7081 -0.3217 -0.5889
  837MOL0     C12888  10.248   7.102  11.364 -0.4261 -0.0499 -0.4858
  837MOL0     C12889  10.436   6.929  11.290  0.4964  0.1461 -0.3989
  837MOL0     C12890  10.357   6.888  11.170 -0.0331 -0.1459  0.8981
  837MOL0     O12891  10.407   6.799  11.079 -0.0469  0.4724 -0.6407
  837MOL0     C12892  10.357   6.781  10.953  0.8140  0.2252 -0.3040
  837MOL0     C12893  10.228   6.728  10.924 -0.6666 -0.9042 -0.0545
  837MOL0     C12894  10.197   6.693  10.793 -0.2045 -0.1700  0.0727
  837MOL0     C12895  10.286   6.698  10.695 -0.6086 -0.0303 -0.1529
  837MOL0     O12896  10.253   6.650  10.574 -0.0633 -0.1941 -0.0257
  837MOL0     C12897  10.284   6.512  10.569  0.4429  1.5281 -0.3223
  837MOL0     C12898  10.185   6.455  10.465 -0.3697  0.5933  0.9144
  837MOL0     C12899  10.231   6.332  10.392 -0.7174  0.3894 -0.3640
  837MOL0     C12900  10.119   6.236  10.350 -0.1101  0.5764 -0.8277
  837MOL0     C12901  10.091   6.256  10.201  0.0449  0.5913  0.7749
  837MOL0     C12902   9.971   6.170  10.161  0.4048  0.0756 -0.0461
  837MOL0     C12903   9.951   6.199  10.013 -0.1158  0.2773  0.1622
  837MOL0     C12904   9.819   6.157   9.964  0.6183  1.0744  0.3201
  837MOL0    Cl12905   9.685   6.249  10.034  0.0790  0.2154 -0.7008
  837MOL0     C12906  10.411   6.755  10.717 -0.7071 -0.3463 -0.8617
  837MOL0     C12907  10.450   6.788  10.843  0.1469  0.1573  0.2162
  837MOL0     O12908  10.246   6.937  11.154 -0.0729 -0.3351  0.0723
  837MOL0     C12909  10.564   6.873  11.306 -0.6201  0.5428  1.4264
  837MOL0     C12910  10.641   6.907  11.406 -0.0453  0.4951 -0.6932
  837MOL0     N12911  11.068   7.123  12.107  0.3259 -0.7359 -0.5035
  837MOL0     N12912  11.105   7.018  12.172 -0.0911  1.2618  0.4371
  837MOL0     C12913  11.273   6.506  11.157  0.5660  0.3048 -0.1788
  837MOL0     C12914  11.318   6.468  11.035 -0.5967  0.0482 -0.1896
  837MOL0     C12915  11.354   6.165  10.680  0.5371  0.3944  0.6302
  837MOL0     C12916  11.487   6.167  10.667 -0.2066  0.3137  0.3714
  837MOL0     C12917  11.543   6.134  10.542  0.3150  0.6764  0.5418
  837MOL0     C12918  11.463   6.091  10.431  0.7477 -0.2199 -0.1457
  837MOL0     O12919  11.498   6.040  10.315 -0.1826  0.1487  0.2024
  837MOL0     C12920  11.635   6.045  10.269 -1.1975 -0.3272 -0.3256
  837MOL0     C12921  11.666   6.166  10.182  0.3047 -1.0771 -0.1324
  837MOL0     C12922  11.795   6.154  10.108  0.4443  0.5450 -0.4293
  837MOL0     C12923  11.831   6.278  10.026 -0.1142 -0.2682  0.5309
  837MOL0     C12924  11.746   6.277   9.910  1.2276  0.4712 -0.5591
  837MOL0     C12925  11.680   6.277   9.809  0.0414  0.3348  0.5719
  837MOL0     C12926  11.323   6.089  10.453 -0.1438 -0.4915  0.3344
  837MOL0     C12927  11.268   6.123  10.573 -0.0421  0.1961 -0.1726
  837MOL0     H12928  11.328   6.135  11.085  1.0977  1.2690 -1.9909
  837MOL0     H12929  11.228   6.206  11.311  0.3411  2.0711  2.9961
  837MOL0     H12930  11.109   6.299  11.488 -0.3591 -0.8145  5.0940
  837MOL0     H12931  11.271   6.358  11.540 -0.0249  0.5189  1.0299
  837MOL0     H12932  11.140   6.574  11.600  1.7442 -1.1063  0.8008
  837MOL0     H12933  10.991   6.488  11.552 -1.7766 -2.4093  1.6429
  837MOL0     H12934  11.017   6.345  11.736  0.4777 -0.8774 -0.4006
  837MOL0     H12935  11.183   6.419  11.776 -0.4836  0.3762  1.6019
  837MOL0     H12936  11.047   6.648  11.787  2.3802 -0.4661  0.3360
  837MOL0     H12937  10.908   6.541  11.799 -0.0598  0.3635  2.7480
  837MOL0     H12938  10.991   6.462  12.030  1.0074  1.3514  1.4738
  837MOL0     H12939  11.141   6.528  11.988 -0.6612 -1.2419  2.4024
  837MOL0     H12940  11.039   6.748  11.975  3.6739 -0.1719  1.0307
  837MOL0     H12941  10.887   6.678  12.046 -0.5220  2.8165  2.0949
  837MOL0     H12942  11.043   6.594  12.236  0.2909  0.4566  0.2280
  837MOL0     H12943  11.159   6.700  12.163  0.4246  2.7910  0.0649
  837MOL0     H12944  11.078   6.821  12.353 -2.1519 -0.6041  2.3369
  837MOL0     H12945  10.910   6.803  12.302 -0.0710 -0.3411 -0.0233
  837MOL0     H12946  10.801   6.928  12.069 -0.1671  0.0214  0.5624
  837MOL0     H12947  10.767   7.175  11.991 -0.1144  0.8561 -2.0515
  837MOL0     H12948  10.916   7.279  11.970  0.8134 -0.8337 -0.9650
  837MOL0     H12949  10.987   7.133  11.781 -0.5453 -0.2517 -0.8342
  837MOL0     H12950  10.840   7.209  11.752  3.6596  1.9560 -1.0686
  837MOL0     H12951  10.730   6.992  11.856  0.2515 -0.7366 -1.1810
  837MOL0     H12952  10.890   6.919  11.833 -0.9072 -0.9134  0.6177
  837MOL0     H12953  10.746   6.853  11.651  2.1902 -0.6457 -0.2216
  837MOL0     H12954  10.852   6.969  11.586  2.2046 -2.9548  1.5117
  837MOL0     H12955  10.440   7.159  11.536 -0.1404 -1.1646  0.9262
  837MOL0     H12956  10.168   7.032  11.341 -1.6825  1.7441 -1.8147
  837MOL0     H12957  10.219   7.163  11.450 -0.3842  0.7848 -1.0561
  837MOL0     H12958  10.262   7.175  11.284 -0.0863 -1.5923 -1.9048
  837MOL0     H12959  10.165   6.719  11.011  0.3745  1.0195  0.9794
  837MOL0     H12960  10.099   6.649  10.779  1.0675 -3.8365  1.2567
  837MOL0     H12961  10.386   6.499  10.533  0.1069 -3.0125 -0.1138
  837MOL0     H12962  10.273   6.453  10.660  3.7377 -2.0970 -2.0094
  837MOL0     H12963  10.092   6.428  10.518 -1.2794  1.2152 -0.3256
  837MOL0     H12964  10.143   6.532  10.400 -0.5517 -1.2795 -1.3005
  837MOL0     H12965  10.310   6.283  10.449 -1.1253  0.2421  0.0874
  837MOL0     H12966  10.288   6.367  10.306  2.6179 -0.0413  1.5258
  837MOL0     H12967  10.135   6.132  10.380  0.8159  1.1700  0.8367
  837MOL0     H12968  10.030   6.264  10.409 -0.9898 -0.3364 -1.6715
  837MOL0     H12969  10.167   6.212  10.136 -1.2767  2.4828 -2.2770
  837MOL0     H12970  10.076   6.362  10.179 -2.2652  0.5131  1.7360
  837MOL0     H12971   9.985   6.063  10.179 -3.6930 -0.8730 -1.4103
  837MOL0     H12972   9.882   6.209  10.211 -0.7781 -1.0595 -1.1740
  837MOL0     H12973  10.026   6.143   9.957 -0.2436  0.1116  0.1535
  837MOL0     H12974   9.959   6.307  10.001  4.6873  0.0329 -0.7272
  837MOL0     H12975   9.810   6.053   9.997 -3.4174  0.9659 -0.7061
  837MOL0     H12976   9.814   6.161   9.855  0.1824  0.8358  0.3300
  837MOL0     H12977  10.489   6.760  10.643  0.3340 -1.2700  0.1426
  837MOL0     H12978  10.549   6.825  10.865 -0.3299  1.9491 -0.4897
  837MOL0     H12979  10.599   6.802  11.232 -3.7077 -0.9362  1.2144
  837MOL0     H12980  10.733   6.854  11.427 -0.5432  0.1120  0.6499
  837MOL0     H12981  11.252   6.608  11.187  0.3646 -0.2596  1.7238
  837MOL0     H12982  11.333   6.542  10.958  0.9551  2.1175  1.9427
  837MOL0     H12983  11.553   6.188  10.750 -0.2062 -0.3648  0.5477
  837MOL0     H12984  11.649   6.129  10.523 -0.1363 -0.4513 -2.2357
  837MOL0     H12985  11.695   6.032  10.360 -1.7390  1.5045  0.3396
  837MOL0     H12986  11.652   5.960  10.202 -0.9275 -0.7291  0.2380
  837MOL0     H12987  11.656   6.258  10.240  0.3576 -1.1410 -0.0214
  837MOL0     H12988  11.587   6.172  10.107 -1.8720 -1.0759  2.0083
  837MOL0     H12989  11.785   6.065  10.044  4.5592 -0.0697 -0.4793
  837MOL0     H12990  11.881   6.137  10.174  1.8616  2.4187 -1.6737
  837MOL0     H12991  11.931   6.269   9.982 -1.3240  0.6114 -2.6324
  837MOL0     H12992  11.838   6.367  10.089  0.0318 -2.1912  3.4537
  837MOL0     H12993  11.628   6.268   9.715  1.5288 -0.4355 -0.2206
  837MOL0     H12994  11.260   6.063  10.368  0.9985 -1.5949 -0.1957
  837MOL0     H12995  11.159   6.123  10.578  0.0075 -0.1554  2.6378
  838MOL0     O12996   1.735   4.538   7.207  0.1688 -0.3459  0.2796
  838MOL0     C12997   1.716   4.581   7.089  1.1325  1.0585 -0.7366
  838MOL0     O12998   1.610   4.651   7.043 -0.4487  0.0925 -0.0787
  838MOL0     C12999   1.515   4.704   7.128 -0.2880 -0.1474 -0.2082
  838MOL0     C13000   1.496   4.841   7.137 -0.5459 -0.0507  0.1253
  838MOL0     C13001   1.411   4.909   7.230  0.0749 -0.2414  0.0611
  838MOL0     C13002   1.346   4.835   7.327  0.3460 -0.9666  0.7575
  838MOL0     O13003   1.240   4.895   7.400 -0.8611  0.1881  0.7458
  838MOL0     C13004   1.119   4.816   7.414 -0.4580  0.4847  0.5653
  838MOL0     C13005   1.010   4.914   7.433  0.3960 -0.6787 -0.1913
  838MOL0     C13006   1.014   4.996   7.568  1.6192 -0.4025  0.1019
  838MOL0     C13007   0.976   4.913   7.690 -0.3830 -0.2029 -0.8284
  838MOL0     C13008   0.977   4.991   7.820 -0.3575 -0.2623 -0.0770
  838MOL0     C13009   0.846   5.056   7.845  0.0290  0.6056  0.1323
  838MOL0     C13010   0.827   5.107   7.986 -0.4758  0.1158 -1.3921
  838MOL0     C13011   0.871   5.252   8.015  0.6154  0.1551 -0.1673
  838MOL0     N13012   0.787   5.358   7.963  0.0271  0.0137 -0.4713
  838MOL0     C13013   0.699   5.344   7.856 -0.0297 -0.4318  0.0558
  838MOL0     C13014   0.666   5.474   7.823  1.1685 -0.1656 -0.2087
  838MOL0     C13015   0.574   5.512   7.712 -0.4833  1.1114 -0.7546
  838MOL0     C13016   0.528   5.662   7.739  0.2696  0.4516 -0.5100
  838MOL0     C13017   0.432   5.708   7.621  0.1942 -0.6128 -0.6100
  838MOL0     C13018   0.452   5.859   7.613 -0.6582 -0.3518 -0.3409
  838MOL0     O13019   0.584   5.903   7.586 -0.3086  0.0226 -0.0844
  838MOL0     C13020   0.645   5.901   7.459 -0.2073  0.2907  0.5773
  838MOL0     C13021   0.574   5.904   7.340 -0.5097  0.1867 -1.3007
  838MOL0     C13022   0.629   5.877   7.213  0.6075  0.2309  0.0128
  838MOL0     C13023   0.541   5.901   7.081  0.4183 -0.7153 -0.1901
  838MOL0     C13024   0.772   5.856   7.205 -0.6101  1.2079  0.0327
  838MOL0     C13025   0.837   5.801   7.079  0.0144  0.7881  0.1363
  838MOL0     O13026   0.971   5.760   7.109  0.5227  0.0489 -0.5488
  838MOL0     C13027   1.067   5.714   7.022  0.2108  0.8765  0.5011
  838MOL0     C13028   1.084   5.751   6.883  0.3829 -0.1676 -0.3940
  838MOL0     C13029   1.162   5.678   6.797 -0.7382  0.6635 -0.3856
  838MOL0     C13030   1.235   5.561   6.839 -0.1292 -0.4695 -0.9753
  838MOL0     O13031   1.300   5.478   6.758 -0.3125  0.3165 -0.4133
  838MOL0     C13032   1.333   5.523   6.623 -0.0549  0.2785 -0.6666
  838MOL0     C13033   1.447   5.431   6.589 -0.5290  1.0616 -0.7017
  838MOL0     C13034   1.537   5.493   6.477  0.2391  0.6870 -0.3127
  838MOL0     C13035   1.675   5.419   6.472 -0.5720  0.4018  0.3397
  838MOL0     C13036   1.763   5.442   6.339 -0.5648  0.4589 -0.4111
  838MOL0     C13037   1.861   5.564   6.362  0.2924 -0.1591 -0.5587
  838MOL0     C13038   1.795   5.695   6.335 -0.1801  0.2045 -0.1505
  838MOL0     C13039   1.903   5.803   6.333  0.5791  0.6180 -0.3416
  838MOL0    Cl13040   1.845   5.947   6.245 -0.0694  0.1035 -0.3423
  838MOL0     C13041   1.233   5.530   6.982  0.9672 -0.4033  0.8771
  838MOL0     C13042   1.142   5.600   7.061 -1.3848 -0.2336  0.4772
  838MOL0     O13043   0.786   5.797   6.967  0.5142 -0.2427 -0.4053
  838MOL0     C13044   0.839   5.843   7.326  0.6134 -0.8362 -0.4362
  838MOL0     C13045   0.779   5.865   7.453  0.3070  0.0997  0.1231
  838MOL0     N13046   0.745   5.559   7.902 -0.3621 -0.4008 -0.5722
  838MOL0     N13047   0.815   5.491   7.986  0.3701  0.2769  0.7391
  838MOL0     C13048   1.359   4.695   7.315 -0.1446  0.7127  0.2210
  838MOL0     C13049   1.445   4.628   7.219 -0.0593  0.7417 -0.0104
  838MOL0     C13050   1.806   4.530   6.991  0.4289 -0.8310 -0.0167
  838MOL0     C13051   1.798   4.572   6.863  0.1928  0.2804 -0.2063
  838MOL0     C13052   1.868   4.510   6.762  0.0516 -1.0865 -0.0791
  838MOL0     C13053   1.962   4.405   6.784 -0.1884 -0.1338 -0.0823
  838MOL0     O13054   2.029   4.357   6.671  0.1017 -0.1683 -0.1680
  838MOL0     C13055   2.075   4.221   6.686  0.7468 -0.1413 -0.3477
  838MOL0     C13056   2.056   4.149   6.558  0.1460  0.3859 -0.1714
  838MOL0     C13057   2.141   4.207   6.447 -0.4008  0.6976 -0.6253
  838MOL0     C13058   2.156   4.122   6.321  0.9050  0.0685 -0.9246
  838MOL0     C13059   2.234   4.004   6.344 -0.9941  0.3617  0.3939
  838MOL0     C13060   2.289   3.901   6.368 -0.3389 -0.0265  0.5417
  838MOL0     C13061   1.975   4.368   6.923  0.1430  0.6757  0.2600
  838MOL0     C13062   1.899   4.431   7.025 -0.8060 -0.2411  0.2481
  838MOL0     H13063   1.540   4.903   7.059  1.3073  0.1260  1.2568
  838MOL0     H13064   1.396   5.017   7.232  0.1138 -0.2015 -0.9657
  838MOL0     H13065   1.099   4.742   7.335 -1.0788  1.7283 -0.4813
  838MOL0     H13066   1.130   4.757   7.506  2.1113  0.6135  0.4082
  838MOL0     H13067   0.993   4.982   7.349  0.3304 -1.1568 -0.5689
  838MOL0     H13068   0.920   4.854   7.449  1.4416 -1.4894  3.4967
  838MOL0     H13069   1.101   5.061   7.579  0.5292  0.6794  3.5621
  838MOL0     H13070   0.922   5.054   7.569  0.2124 -2.5034  1.6706
  838MOL0     H13071   0.880   4.864   7.680 -0.0247 -0.8947 -0.9017
  838MOL0     H13072   1.060   4.845   7.705  0.0974  0.8686  2.1009
  838MOL0     H13073   0.992   4.913   7.895 -1.3446  0.3403  0.7674
  838MOL0     H13074   1.059   5.063   7.826  0.4738 -1.2929  2.4804
  838MOL0     H13075   0.836   5.139   7.774 -0.4072  0.9323  0.5762
  838MOL0     H13076   0.776   4.977   7.817  1.1974 -0.0880 -0.9728
  838MOL0     H13077   0.723   5.090   8.015 -0.3026 -2.9583 -2.2312
  838MOL0     H13078   0.888   5.039   8.047  0.6661  1.0109 -1.4911
  838MOL0     H13079   0.972   5.265   7.973  0.3494  1.0054 -0.5564
  838MOL0     H13080   0.891   5.265   8.122  0.5051  1.4599 -0.2949
  838MOL0     H13081   0.653   5.254   7.816 -0.2326  0.3269 -1.5098
  838MOL0     H13082   0.623   5.501   7.615 -1.4997  1.6603 -1.3524
  838MOL0     H13083   0.487   5.447   7.721  0.7372 -0.4487  0.4388
  838MOL0     H13084   0.624   5.714   7.744  3.0298 -4.1025  0.0490
  838MOL0     H13085   0.483   5.672   7.838  2.2778 -2.2920  0.8039
  838MOL0     H13086   0.330   5.673   7.639 -1.6772  3.6340 -1.6956
  838MOL0     H13087   0.471   5.672   7.525 -1.7632  0.3229 -1.8141
  838MOL0     H13088   0.414   5.901   7.706 -0.6132 -3.3648  1.1656
  838MOL0     H13089   0.386   5.896   7.533  0.0608 -0.1586 -0.8577
  838MOL0     H13090   0.478   5.955   7.330 -0.0046  0.8914 -2.8000
  838MOL0     H13091   0.591   5.972   7.016 -0.9578  0.7203  0.2653
  838MOL0     H13092   0.517   5.807   7.031 -4.4829 -1.2392  2.5266
  838MOL0     H13093   0.447   5.950   7.106  1.0544  0.0835  0.7403
  838MOL0     H13094   1.028   5.829   6.832  0.7920 -0.8134 -1.9033
  838MOL0     H13095   1.173   5.710   6.693  1.9550  1.4706  0.0533
  838MOL0     H13096   1.247   5.496   6.560  0.0417 -1.0173 -0.2789
  838MOL0     H13097   1.359   5.628   6.612  0.0900  0.2665 -0.4383
  838MOL0     H13098   1.515   5.421   6.674  2.5215  2.4032 -2.8074
  838MOL0     H13099   1.407   5.335   6.556 -0.6637  1.8659 -3.0661
  838MOL0     H13100   1.567   5.595   6.502  1.3973  0.0374  1.0975
  838MOL0     H13101   1.483   5.479   6.383 -0.4831  0.0865  0.1878
  838MOL0     H13102   1.743   5.449   6.552 -0.5397  4.1491 -0.8939
  838MOL0     H13103   1.658   5.312   6.485  1.7511  0.2838  3.7617
  838MOL0     H13104   1.693   5.447   6.255  1.5431 -1.1407 -2.3998
  838MOL0     H13105   1.823   5.353   6.316  0.7365  0.6875  1.7961
  838MOL0     H13106   1.894   5.560   6.466 -2.2782  1.1532  0.4177
  838MOL0     H13107   1.937   5.538   6.289 -0.6514  1.5666 -2.2613
  838MOL0     H13108   1.724   5.719   6.415  0.8895 -0.6258  1.0912
  838MOL0     H13109   1.729   5.682   6.248 -2.8275 -1.5367  1.9618
  838MOL0     H13110   1.991   5.777   6.274 -0.4298 -2.2793 -0.7234
  838MOL0     H13111   1.931   5.837   6.433  1.4673  1.9714 -1.0105
  838MOL0     H13112   1.281   5.439   7.018  2.8275  0.3061  0.2945
  838MOL0     H13113   1.123   5.563   7.161  1.0594 -0.1639  1.0343
  838MOL0     H13114   0.941   5.808   7.331  0.3161 -2.4501 -3.2536
  838MOL0     H13115   0.833   5.866   7.547  0.8835 -0.7764 -0.1814
  838MOL0     H13116   1.308   4.635   7.390  0.4334 -0.6176 -0.4122
  838MOL0     H13117   1.450   4.520   7.209 -1.4200  0.5643  0.9629
  838MOL0     H13118   1.730   4.648   6.827 -1.3158 -1.1966 -0.5725
  838MOL0     H13119   1.860   4.535   6.656  1.8067  1.3454  0.2767
  838MOL0     H13120   2.181   4.211   6.711  0.5728 -0.7052  0.1868
  838MOL0     H13121   2.009   4.163   6.751  0.5940 -1.6565 -1.7926
  838MOL0     H13122   1.949   4.140   6.535 -0.1391 -0.7238  1.4007
  838MOL0     H13123   2.090   4.047   6.576  3.9388  1.3539 -0.9936
  838MOL0     H13124   2.244   4.228   6.474  1.0274 -0.8955 -4.1130
  838MOL0     H13125   2.091   4.303   6.429 -0.2995  2.4240  5.9912
  838MOL0     H13126   2.205   4.171   6.237  1.4341 -0.9891 -1.2504
  838MOL0     H13127   2.068   4.077   6.274 -0.1611  1.0133  0.1187
  838MOL0     H13128   2.354   3.816   6.366  3.9023  2.7850 -3.3448
  838MOL0     H13129   2.052   4.298   6.955 -0.7807  0.7098  2.7675
  838MOL0     H13130   1.911   4.393   7.126 -0.1435 -5.1052 -1.3528
  839MOL0     O13131   7.740   0.920   9.036  0.6828 -1.0487  0.3532
  839MOL0     C13132   7.759   0.844   8.937 -0.1336 -0.2811  0.1386
  839MOL0     O13133   7.811   0.882   8.816  0.5859  0.1223  0.5015
  839MOL0     C13134   7.849   1.011   8.788 -0.3369 -0.9185  0.6989
  839MOL0     C13135   7.977   1.061   8.818 -0.2257  0.3631  0.7154
  839MOL0     C13136   8.024   1.191   8.788  0.3987  0.0638  1.0740
  839MOL0     C13137   7.932   1.271   8.719  0.3112  0.1989 -0.3070
  839MOL0     O13138   7.983   1.392   8.690 -0.3242 -0.1106  0.6318
  839MOL0     C13139   8.022   1.414   8.550  0.1471 -0.1942  0.0002
  839MOL0     C13140   7.979   1.543   8.484  1.7887 -0.1014 -0.0900
  839MOL0     C13141   7.872   1.531   8.378  0.1429 -0.4428 -0.1436
  839MOL0     C13142   7.885   1.646   8.280 -1.2650 -0.5680  0.5459
  839MOL0     C13143   7.767   1.648   8.187 -0.9295  0.3490 -0.7196
  839MOL0     C13144   7.761   1.770   8.088 -0.9109  0.5134 -0.4126
  839MOL0     C13145   7.858   1.756   7.967 -0.3127  0.4840  0.4086
  839MOL0     C13146   7.830   1.630   7.890 -0.0885  0.6672 -0.0011
  839MOL0     N13147   7.911   1.612   7.771  0.3009  0.6173 -0.8457
  839MOL0     C13148   7.886   1.673   7.648 -0.2604  0.2771 -1.2019
  839MOL0     C13149   7.975   1.624   7.567 -0.0045 -0.3828 -0.3703
  839MOL0     C13150   7.964   1.640   7.421 -1.5068 -0.5170 -0.6034
  839MOL0     C13151   7.844   1.558   7.358  0.1703  0.2422  0.1874
  839MOL0     C13152   7.782   1.579   7.215 -1.0190  0.4561 -0.5261
  839MOL0     C13153   7.733   1.722   7.202  0.0090  0.6859 -0.4735
  839MOL0     O13154   7.622   1.744   7.125  0.0268  0.0963  0.2725
  839MOL0     C13155   7.637   1.786   6.994 -0.0684 -0.6864  0.1887
  839MOL0     C13156   7.540   1.863   6.935  0.5368  0.4047 -0.3171
  839MOL0     C13157   7.563   1.922   6.810 -0.2096  0.4060  1.2031
  839MOL0     C13158   7.445   2.008   6.771  0.2994 -1.0081  0.5020
  839MOL0     C13159   7.683   1.907   6.742 -0.4592  1.1002 -0.7033
  839MOL0     C13160   7.723   1.974   6.616  0.7855  0.2164 -0.1924
  839MOL0     O13161   7.826   1.917   6.537 -0.2033 -0.3993 -0.0866
  839MOL0     C13162   7.897   2.010   6.469 -0.9241  0.1842  0.8548
  839MOL0     C13163   8.000   2.085   6.525  0.4652 -0.0252 -0.1513
  839MOL0     C13164   8.080   2.183   6.443  0.2157  0.1764 -0.2876
  839MOL0     C13165   8.058   2.190   6.303 -1.5037  0.6486  0.6016
  839MOL0     O13166   8.139   2.283   6.235  0.5006  0.1592 -0.1205
  839MOL0     C13167   8.134   2.265   6.094 -0.0316  0.1567  0.3799
  839MOL0     C13168   8.249   2.350   6.038  0.0801  0.0868 -0.4388
  839MOL0     C13169   8.259   2.331   5.890 -0.3351  0.0875 -0.7017
  839MOL0     C13170   8.146   2.393   5.809  0.0305 -0.2342  0.6160
  839MOL0     C13171   8.173   2.412   5.660  0.6626  0.4129  1.2498
  839MOL0     C13172   8.262   2.526   5.620 -0.8507  0.4437 -0.3351
  839MOL0     C13173   8.352   2.494   5.502  0.6677  0.2064 -0.1407
  839MOL0     C13174   8.473   2.591   5.497 -0.3181  0.6353 -0.4445
  839MOL0    Cl13175   8.412   2.758   5.488  0.0212 -0.0695  0.2943
  839MOL0     C13176   7.965   2.096   6.237  0.0599  0.4340 -0.3890
  839MOL0     C13177   7.887   2.016   6.318  0.2614 -0.1191  0.7022
  839MOL0     O13178   7.666   2.081   6.598 -0.4420  0.0139  0.0307
  839MOL0     C13179   7.783   1.824   6.800  0.1419  0.3585  0.8753
  839MOL0     C13180   7.761   1.771   6.929 -0.9016 -0.0092  0.7462
  839MOL0     N13181   8.061   1.537   7.634  0.8057 -0.8056  0.1190
  839MOL0     N13182   8.021   1.526   7.753 -0.6280 -1.0225 -0.6925
  839MOL0     C13183   7.801   1.234   8.691 -0.0244 -0.4315  0.7874
  839MOL0     C13184   7.765   1.103   8.712  0.5663 -0.5699 -0.5408
  839MOL0     C13185   7.727   0.702   8.964 -0.9592 -0.0851 -0.5785
  839MOL0     C13186   7.683   0.664   9.083  0.4409  1.0058 -1.1638
  839MOL0     C13187   7.641   0.531   9.101 -0.0388 -0.4291 -0.0567
  839MOL0     C13188   7.658   0.431   9.001  0.4443 -0.6984  0.6008
  839MOL0     O13189   7.629   0.299   9.019  0.8134  0.3255  0.5735
  839MOL0     C13190   7.521   0.266   9.106  0.2930 -0.1480  0.2481
  839MOL0     C13191   7.446   0.152   9.060  0.1055  0.6751 -0.3618
  839MOL0     C13192   7.352   0.098   9.161  0.1638 -0.8228 -0.8758
  839MOL0     C13193   7.249  -0.018   9.113 -0.3485 -0.0824 -0.0726
  839MOL0     C13194   7.213  -0.103   9.233  0.3094  0.2582 -0.7887
  839MOL0     C13195   7.191  -0.174   9.326  0.2349  0.6347  0.0127
  839MOL0     C13196   7.708   0.473   8.878 -0.3583  0.7820 -0.1052
  839MOL0     C13197   7.742   0.607   8.861 -0.1029  0.2905 -0.0946
  839MOL0     H13198   8.040   0.983   8.860 -0.7369 -2.2757 -2.9470
  839MOL0     H13199   8.126   1.213   8.816  1.0337 -1.5116  0.1215
  839MOL0     H13200   8.130   1.404   8.541  0.1527  0.4770 -0.7534
  839MOL0     H13201   7.984   1.329   8.492 -2.2419  1.1009 -0.4957
  839MOL0     H13202   7.944   1.620   8.553  1.7075  0.1651 -0.4234
  839MOL0     H13203   8.067   1.583   8.432  0.5270  0.1303 -2.2026
  839MOL0     H13204   7.884   1.438   8.322  4.2529  0.6462 -1.3770
  839MOL0     H13205   7.770   1.535   8.419  1.5957  1.1730  3.8193
  839MOL0     H13206   7.884   1.739   8.337  3.0513 -0.8751  1.4226
  839MOL0     H13207   7.977   1.644   8.222 -0.1902  1.7540  2.0279
  839MOL0     H13208   7.757   1.547   8.147 -0.5203 -0.7435  1.8011
  839MOL0     H13209   7.680   1.664   8.252  0.7134  0.8874  1.4395
  839MOL0     H13210   7.661   1.782   8.044 -0.2588 -0.0446 -2.1541
  839MOL0     H13211   7.799   1.861   8.135 -0.3640  1.0507 -1.8295
  839MOL0     H13212   7.857   1.838   7.895  2.9523  2.0697  1.9148
  839MOL0     H13213   7.960   1.745   8.004  0.1443 -0.8682 -1.1319
  839MOL0     H13214   7.722   1.620   7.875 -1.3422  1.6348  5.9742
  839MOL0     H13215   7.856   1.542   7.950 -1.5065  1.4477  1.8433
  839MOL0     H13216   7.798   1.730   7.618 -0.8065  0.5935  0.8313
  839MOL0     H13217   7.949   1.748   7.407 -0.0326  0.2606  2.7815
  839MOL0     H13218   8.062   1.633   7.373 -0.1459  4.9317  0.6414
  839MOL0     H13219   7.753   1.564   7.418 -0.3196 -2.5636 -0.1320
  839MOL0     H13220   7.878   1.455   7.370  1.9020  0.9704  2.3081
  839MOL0     H13221   7.697   1.511   7.219  1.8920 -3.5398  0.6114
  839MOL0     H13222   7.845   1.545   7.132 -0.4088  1.8427 -0.6581
  839MOL0     H13223   7.817   1.787   7.177 -0.0396  0.1816 -2.0111
  839MOL0     H13224   7.697   1.742   7.304 -1.4691  0.6790 -0.9671
  839MOL0     H13225   7.442   1.865   6.982  0.0805  1.3346 -1.2580
  839MOL0     H13226   7.388   1.957   6.693 -1.0546  0.5482  0.4143
  839MOL0     H13227   7.387   2.026   6.862 -1.2973  1.2822 -0.8498
  839MOL0     H13228   7.472   2.110   6.741 -0.7351 -0.1368  2.3420
  839MOL0     H13229   8.027   2.072   6.629  2.0426 -2.5615 -0.8119
  839MOL0     H13230   8.152   2.249   6.490  1.2516 -2.3543  1.9251
  839MOL0     H13231   8.138   2.159   6.068 -3.2371 -0.1445  0.6980
  839MOL0     H13232   8.042   2.302   6.048  1.4833  0.4194 -2.6884
  839MOL0     H13233   8.242   2.458   6.053  2.3356  0.0103  2.0266
  839MOL0     H13234   8.345   2.319   6.081  0.4332  1.9252  0.2068
  839MOL0     H13235   8.275   2.228   5.857 -0.0996 -0.5343  1.1975
  839MOL0     H13236   8.351   2.385   5.866 -0.4814  0.8597  0.3728
  839MOL0     H13237   8.058   2.333   5.831  2.5216 -4.6034 -0.1414
  839MOL0     H13238   8.120   2.490   5.852  0.3348 -0.1098  0.5248
  839MOL0     H13239   8.091   2.432   5.591  2.5886 -1.8689 -2.0271
  839MOL0     H13240   8.222   2.319   5.630  0.8918  1.5814 -2.5232
  839MOL0     H13241   8.197   2.614   5.617  0.3080  1.3307 -0.2321
  839MOL0     H13242   8.329   2.545   5.705  1.2803 -2.0553 -1.3409
  839MOL0     H13243   8.290   2.505   5.412 -0.1335 -2.7859 -0.0678
  839MOL0     H13244   8.384   2.389   5.495 -1.4570 -0.3922 -3.9424
  839MOL0     H13245   8.533   2.572   5.407  1.9685  0.1275  1.0942
  839MOL0     H13246   8.550   2.572   5.572  1.9396 -0.0926 -2.7976
  839MOL0     H13247   7.950   2.098   6.130  1.6788  1.1419 -0.6326
  839MOL0     H13248   7.818   1.946   6.274  2.2590 -1.4184 -0.5384
  839MOL0     H13249   7.884   1.819   6.761  0.1917  1.9104  0.7400
  839MOL0     H13250   7.843   1.716   6.975  0.0459 -0.2467 -1.1155
  839MOL0     H13251   7.727   1.307   8.659 -4.0921 -2.7671  3.8903
  839MOL0     H13252   7.665   1.062   8.705 -0.1568  0.1174  3.2834
  839MOL0     H13253   7.690   0.720   9.175 -0.1652  0.2357 -0.6343
  839MOL0     H13254   7.612   0.503   9.202  0.1199  2.0810  0.7407
  839MOL0     H13255   7.555   0.253   9.209  2.0425  0.8903 -0.1548
  839MOL0     H13256   7.449   0.348   9.114  1.2752  0.6923  0.8902
  839MOL0     H13257   7.505   0.062   9.040 -2.8278 -1.1639 -1.4102
  839MOL0     H13258   7.404   0.169   8.960  0.2729 -1.8058 -0.9194
  839MOL0     H13259   7.304   0.188   9.201 -2.2390 -2.4513  0.1456
  839MOL0     H13260   7.419   0.052   9.235  0.5605  1.8314  0.5187
  839MOL0     H13261   7.291  -0.089   9.041 -0.1512  0.5510 -0.5897
  839MOL0     H13262   7.163   0.024   9.060  1.5472  1.1083 -2.4195
  839MOL0     H13263   7.163  -0.230   9.413 -1.9200  0.2662 -0.8814
  839MOL0     H13264   7.739   0.396   8.808 -0.9088  0.2268  0.2535
  839MOL0     H13265   7.763   0.633   8.758 -1.6168  1.4137 -0.1591
  840MOL0     O13266   5.740  11.327   8.620 -0.3106 -0.6682  0.0454
  840MOL0     C13267   5.700  11.226   8.572  1.0788 -0.9528  0.4033
  840MOL0     O13268   5.576  11.215   8.515  0.8154 -0.2007 -0.3393
  840MOL0     C13269   5.517  11.322   8.450 -0.3663  0.1975 -0.4050
  840MOL0     C13270   5.564  11.452   8.433 -0.3732 -0.1369 -1.1699
  840MOL0     C13271   5.478  11.549   8.367 -0.2213 -0.0581 -0.1552
  840MOL0     C13272   5.349  11.513   8.321  1.0129 -0.1345 -0.1938
  840MOL0     O13273   5.272  11.623   8.288 -0.8727  0.9153  0.2261
  840MOL0     C13274   5.140  11.605   8.238 -0.5938  1.0938 -1.3978
  840MOL0     C13275   5.075  11.719   8.162  0.3427  0.6358 -0.0502
  840MOL0     C13276   5.078  11.848   8.233 -0.2532  1.1219  0.3256
  840MOL0     C13277   4.961  11.938   8.181  0.3698  0.6000  0.6394
  840MOL0     C13278   4.839  11.907   8.279  0.3081 -1.2810 -0.3680
  840MOL0     C13279   4.722  11.997   8.243  0.4377 -0.2608  0.6663
  840MOL0     C13280   4.594  11.941   8.309  0.7323 -0.1948  1.3242
  840MOL0     C13281   4.600  11.925   8.465  0.6720 -0.2398 -0.4581
  840MOL0     N13282   4.614  12.046   8.546 -0.4101 -0.2982  0.2293
  840MOL0     C13283   4.536  12.161   8.556 -0.0110 -0.5080 -0.5100
  840MOL0     C13284   4.598  12.226   8.659 -0.6268 -0.5345 -0.4940
  840MOL0     C13285   4.544  12.354   8.721  0.2398 -0.0551  0.7989
  840MOL0     C13286   4.469  12.324   8.853  0.5781  0.6889  1.2877
  840MOL0     C13287   4.558  12.260   8.956  0.4428 -0.1085 -0.9034
  840MOL0     C13288   4.691  12.330   8.984 -0.0202  0.1847 -0.1661
  840MOL0     O13289   4.659  12.450   9.062  0.2858  0.0453 -0.1637
  840MOL0     C13290   4.757  12.544   9.078  0.3574 -0.1790  0.0781
  840MOL0     C13291   4.875  12.548   9.000 -0.4343 -0.0452  1.3268
  840MOL0     C13292   4.959  12.662   9.013  0.4587 -0.5043 -0.0668
  840MOL0     C13293   5.081  12.666   8.920  0.8151 -0.0284  0.6950
  840MOL0     C13294   4.933  12.752   9.118  0.2294 -0.0630  0.2486
  840MOL0     C13295   5.030  12.852   9.144  0.6069  0.4713 -0.7457
  840MOL0     O13296   4.986  12.982   9.145 -0.3572  0.1152 -1.0083
  840MOL0     C13297   5.063  13.089   9.176  0.2987  0.2878  0.2087
  840MOL0     C13298   5.074  13.195   9.086 -1.3600 -0.4348  1.0834
  840MOL0     C13299   5.134  13.314   9.105  1.2063 -0.8355 -0.7820
  840MOL0     C13300   5.200  13.340   9.226  1.2277  0.1991  0.4786
  840MOL0     O13301   5.250  13.467   9.243  0.4487  0.2617 -1.3965
  840MOL0     C13302   5.381  13.470   9.302 -1.5153  0.0836 -0.3287
  840MOL0     C13303   5.409  13.603   9.366 -0.2022  1.1347 -0.8267
  840MOL0     C13304   5.364  13.624   9.510 -0.4473 -0.5706 -0.9892
  840MOL0     C13305   5.440  13.556   9.625 -1.0217  0.1030 -0.0926
  840MOL0     C13306   5.382  13.616   9.756  0.5214  0.5771  0.1820
  840MOL0     C13307   5.443  13.541   9.871 -0.0567 -0.3668  0.0024
  840MOL0     C13308   5.414  13.608  10.001  0.5661 -0.1500 -0.0392
  840MOL0     C13309   5.482  13.544  10.122 -0.4899  0.1176 -0.6532
  840MOL0    Cl13310   5.468  13.660  10.270  0.5814 -0.2967  0.5613
  840MOL0     C13311   5.188  13.228   9.313 -0.5345 -0.1308  0.2177
  840MOL0     C13312   5.118  13.108   9.296 -0.1286 -0.2824 -0.4858
  840MOL0     O13313   5.144  12.824   9.159  0.0945  0.2664  0.0587
  840MOL0     C13314   4.807  12.752   9.181  0.0142 -0.1043 -0.3604
  840MOL0     C13315   4.726  12.645   9.160 -0.2677 -0.5860 -0.3563
  840MOL0     N13316   4.724  12.172   8.681  0.4216 -0.9575  0.0323
  840MOL0     N13317   4.730  12.064   8.629  0.0557  0.0171  0.2326
  840MOL0     C13318   5.304  11.384   8.337 -1.1429  0.3963 -0.8905
  840MOL0     C13319   5.396  11.288   8.402  0.1861 -0.1786  0.7850
  840MOL0     C13320   5.765  11.101   8.597  0.1846 -0.4271 -0.3938
  840MOL0     C13321   5.687  10.988   8.591  0.4211 -0.3547 -0.2601
  840MOL0     C13322   5.740  10.858   8.610 -0.0602 -0.1254 -0.9565
  840MOL0     C13323   5.879  10.848   8.650 -1.0090  0.3179  0.7065
  840MOL0     O13324   5.922  10.724   8.685 -0.4941  0.2872  1.0413
  840MOL0     C13325   6.066  10.697   8.703 -0.6531 -0.1675  0.8823
  840MOL0     C13326   6.149  10.683   8.579  0.3430 -0.3230 -0.5781
  840MOL0     C13327   6.280  10.613   8.610  0.8171 -0.3390 -0.6067
  840MOL0     C13328   6.392  10.663   8.520 -0.6377 -0.3522 -1.1554
  840MOL0     C13329   6.439  10.799   8.565 -0.2093  0.2612 -0.4955
  840MOL0     C13330   6.460  10.905   8.619 -0.1861 -0.4290 -0.5279
  840MOL0     C13331   5.956  10.968   8.661  0.1244  0.3839 -0.6665
  840MOL0     C13332   5.900  11.092   8.639  0.9983  0.1020 -0.5882
  840MOL0     H13333   5.661  11.480   8.473 -1.6573  0.5000  1.7186
  840MOL0     H13334   5.509  11.651   8.348  0.7322 -0.1246  0.8977
  840MOL0     H13335   5.128  11.514   8.180  1.7721  1.5438 -2.7486
  840MOL0     H13336   5.081  11.597   8.329  1.1101  0.6821 -0.2707
  840MOL0     H13337   5.128  11.725   8.067  1.2017  1.8704  0.4781
  840MOL0     H13338   4.977  11.677   8.138  0.2152  0.6105  0.4932
  840MOL0     H13339   5.073  11.832   8.341  4.0609 -2.8708  0.2161
  840MOL0     H13340   5.180  11.887   8.221  0.8472 -2.0108 -1.5819
  840MOL0     H13341   4.983  12.045   8.187  1.8828  0.3949 -0.6667
  840MOL0     H13342   4.946  11.926   8.074  0.1900  2.4953  0.4119
  840MOL0     H13343   4.814  11.801   8.264  1.0661 -1.3221 -1.4960
  840MOL0     H13344   4.863  11.921   8.385  1.2877 -2.4152 -0.4143
  840MOL0     H13345   4.736  12.103   8.267 -1.1906 -0.4490  2.7752
  840MOL0     H13346   4.701  11.999   8.136  1.6183  0.0109  0.4198
  840MOL0     H13347   4.503  11.998   8.286 -0.7794 -1.2914  4.1824
  840MOL0     H13348   4.572  11.844   8.263  0.4486  0.5496 -0.1772
  840MOL0     H13349   4.688  11.867   8.494  0.1206 -0.5533  0.6813
  840MOL0     H13350   4.509  11.874   8.500  0.7706 -1.2986 -1.6707
  840MOL0     H13351   4.445  12.190   8.506  2.0763  1.5230 -3.4916
  840MOL0     H13352   4.625  12.426   8.733 -1.2537  2.5313 -2.9134
  840MOL0     H13353   4.485  12.409   8.648  3.4792  2.2760 -0.2558
  840MOL0     H13354   4.385  12.258   8.829 -0.4492  3.2895 -3.5376
  840MOL0     H13355   4.416  12.412   8.890 -4.1024 -1.2512 -0.0405
  840MOL0     H13356   4.574  12.155   8.930 -3.0770 -0.9918 -0.0209
  840MOL0     H13357   4.511  12.252   9.054  2.1608  0.1096 -0.0192
  840MOL0     H13358   4.745  12.336   8.889 -1.1161 -3.0544 -1.1278
  840MOL0     H13359   4.765  12.263   9.030  1.0628  0.0794 -1.9470
  840MOL0     H13360   4.899  12.470   8.929  1.9802  3.3093 -1.9178
  840MOL0     H13361   5.082  12.771   8.888 -3.7950 -1.4016 -5.9584
  840MOL0     H13362   5.169  12.642   8.980  0.6907  1.1001  1.3610
  840MOL0     H13363   5.073  12.601   8.833  1.9254 -0.8267  1.1658
  840MOL0     H13364   5.031  13.175   8.988  0.2804  1.6376 -0.1415
  840MOL0     H13365   5.130  13.385   9.023  1.2215 -0.3628 -0.3796
  840MOL0     H13366   5.411  13.393   9.374 -2.3822 -0.4768 -0.5561
  840MOL0     H13367   5.458  13.459   9.224 -1.0806  1.2086 -0.0756
  840MOL0     H13368   5.516  13.628   9.363 -0.7937  4.3280  0.9980
  840MOL0     H13369   5.352  13.677   9.309  0.5516  1.9440 -0.5587
  840MOL0     H13370   5.259  13.604   9.535  0.3952 -0.6248  3.1143
  840MOL0     H13371   5.376  13.726   9.547 -2.8578  0.3378 -2.4505
  840MOL0     H13372   5.410  13.451   9.617 -0.4903  0.0298 -1.4794
  840MOL0     H13373   5.548  13.571   9.622 -0.8478 -0.1517  2.4349
  840MOL0     H13374   5.273  13.622   9.760  0.5245  2.5093 -0.8840
  840MOL0     H13375   5.412  13.721   9.768  1.1256  0.5491 -0.9342
  840MOL0     H13376   5.419  13.435   9.887 -1.6834  0.0230  0.2966
  840MOL0     H13377   5.546  13.565   9.844 -1.7205  4.6461 -3.3376
  840MOL0     H13378   5.307  13.603  10.022  0.5747 -1.6130 -0.2676
  840MOL0     H13379   5.438  13.714   9.990 -2.1503  0.4805 -0.7094
  840MOL0     H13380   5.588  13.518  10.110 -0.4582 -1.7880  2.4590
  840MOL0     H13381   5.428  13.451  10.141 -0.5232 -0.1050 -1.8028
  840MOL0     H13382   5.253  13.235   9.399  0.9728  1.0637 -0.9524
  840MOL0     H13383   5.124  13.040   9.380  0.1178  3.5760  2.9361
  840MOL0     H13384   4.768  12.837   9.236 -1.6265 -1.3127  0.4472
  840MOL0     H13385   4.625  12.640   9.199 -0.7485 -0.1315 -1.5068
  840MOL0     H13386   5.202  11.359   8.308 -1.0763  0.9621 -1.6151
  840MOL0     H13387   5.360  11.189   8.427 -2.8154 -1.0299 -5.0664
  840MOL0     H13388   5.585  10.993   8.555 -1.2600  2.6651  4.0903
  840MOL0     H13389   5.696  10.764   8.580 -0.9265 -0.3645  0.9643
  840MOL0     H13390   6.118  10.769   8.767  0.1923  0.1427 -0.1276
  840MOL0     H13391   6.073  10.599   8.752  1.3801  0.0806  1.1803
  840MOL0     H13392   6.167  10.784   8.541  0.4445 -0.2779 -0.4123
  840MOL0     H13393   6.090  10.642   8.497 -0.1043 -1.3202  0.2104
  840MOL0     H13394   6.264  10.508   8.584 -0.3199 -0.2916 -0.1299
  840MOL0     H13395   6.318  10.621   8.712 -0.4630 -2.5857  0.0993
  840MOL0     H13396   6.371  10.660   8.413 -2.4714 -0.5574 -0.8215
  840MOL0     H13397   6.464  10.584   8.543 -3.4845 -2.1072  2.8986
  840MOL0     H13398   6.466  10.996   8.674  0.0339  0.4674 -1.9788
  840MOL0     H13399   6.063  10.961   8.678 -0.0382 -6.7770  0.7627
  840MOL0     H13400   5.953  11.186   8.654  0.1568  0.3552  1.0042
  841MOL0     O13401   0.966  11.103   5.528  0.7474 -0.4997  0.2145
  841MOL0     C13402   0.875  11.138   5.602 -0.0579  0.0020 -1.6190
  841MOL0     O13403   0.803  11.051   5.684 -0.3438 -0.7116 -0.1102
  841MOL0     C13404   0.845  10.915   5.691  0.4483  0.0900 -1.3431
  841MOL0     C13405   0.802  10.826   5.597 -0.5134 -0.2652  0.3598
  841MOL0     C13406   0.828  10.687   5.604 -0.5395  0.0059 -0.7714
  841MOL0     C13407   0.908  10.641   5.710  0.2270  0.0963 -0.4991
  841MOL0     O13408   0.932  10.508   5.719 -0.5032  0.2860  0.7811
  841MOL0     C13409   0.952  10.459   5.855 -0.7502  0.7144  0.1894
  841MOL0     C13410   0.945  10.310   5.878 -1.2729  0.6552 -0.1356
  841MOL0     C13411   1.063  10.224   5.817 -0.1346  0.0856 -0.4331
  841MOL0     C13412   1.083  10.092   5.895  0.2991  0.5074  0.6673
  841MOL0     C13413   1.191  10.008   5.836  0.0742 -0.5243  0.2159
  841MOL0     C13414   1.239   9.894   5.927  1.1614 -0.2048 -0.0053
  841MOL0     C13415   1.300   9.774   5.853 -0.5747 -0.0177 -0.0657
  841MOL0     C13416   1.225   9.675   5.748 -0.6784 -0.2555  0.7366
  841MOL0     N13417   1.079   9.664   5.773 -0.0858  0.2476 -0.0726
  841MOL0     C13418   1.006   9.611   5.883 -0.5972  1.1229 -0.0780
  841MOL0     C13419   0.879   9.630   5.856 -0.5086  0.7639  0.2217
  841MOL0     C13420   0.759   9.578   5.933  0.1168 -1.0659 -0.2419
  841MOL0     C13421   0.718   9.688   6.039 -0.3255  0.8389 -0.0102
  841MOL0     C13422   0.581   9.657   6.102  0.1821 -0.0316  0.7080
  841MOL0     C13423   0.573   9.518   6.178 -0.4777  0.0635 -0.3080
  841MOL0     O13424   0.465   9.513   6.269 -0.7432 -0.0532 -0.3453
  841MOL0     C13425   0.340   9.488   6.238  1.0399 -0.8763  0.6066
  841MOL0     C13426   0.225   9.494   6.326 -1.1658 -0.2865 -0.3593
  841MOL0     C13427   0.091   9.480   6.289 -0.3197 -0.6457 -0.5396
  841MOL0     C13428  -0.022   9.470   6.402 -0.3904 -0.5415 -0.6348
  841MOL0     C13429   0.069   9.437   6.158 -0.6351 -0.2275 -1.1867
  841MOL0     C13430  -0.048   9.386   6.114  0.1596  0.1826 -0.2793
  841MOL0     O13431  -0.169   9.452   6.167 -0.2436  0.5683  0.6166
  841MOL0     C13432  -0.299   9.427   6.125 -1.0127  0.1314 -0.7406
  841MOL0     C13433  -0.333   9.368   6.002  0.3635 -1.0349  1.1412
  841MOL0     C13434  -0.471   9.371   5.958 -0.5995 -0.0286 -0.2386
  841MOL0     C13435  -0.562   9.430   6.037  0.7288  1.1861  1.1230
  841MOL0     O13436  -0.694   9.411   5.999  0.0720 -0.5839  0.0252
  841MOL0     C13437  -0.717   9.496   5.880 -0.3683  0.1391 -0.3158
  841MOL0     C13438  -0.852   9.483   5.812  0.4833 -0.5427 -0.3618
  841MOL0     C13439  -0.866   9.592   5.698 -0.3342 -0.3640  0.0351
  841MOL0     C13440  -0.792   9.550   5.570 -0.8320  0.1428 -0.3841
  841MOL0     C13441  -0.828   9.640   5.447  0.4404  0.0390 -0.2542
  841MOL0     C13442  -0.797   9.593   5.310  0.2797 -0.6774  0.6989
  841MOL0     C13443  -0.884   9.669   5.202 -0.0708  0.6711  0.6231
  841MOL0     C13444  -0.799   9.684   5.073  0.7379  0.4571 -0.8184
  841MOL0    Cl13445  -0.745   9.513   5.005 -0.2769  0.3853  0.3921
  841MOL0     C13446  -0.532   9.477   6.166  0.0072  0.1588  0.8812
  841MOL0     C13447  -0.394   9.479   6.208  0.9265 -0.0124  0.2695
  841MOL0     O13448  -0.048   9.276   6.051 -0.1127  0.4253  0.4536
  841MOL0     C13449   0.181   9.419   6.071 -0.5526  0.1499 -0.0027
  841MOL0     C13450   0.311   9.445   6.111  0.0761  0.2207  0.6424
  841MOL0     N13451   0.872   9.696   5.734 -1.1732 -0.4836  0.3752
  841MOL0     N13452   0.985   9.715   5.683 -0.3106  0.0239  0.1679
  841MOL0     C13453   0.967  10.734   5.798 -0.2226  0.0342  0.1915
  841MOL0     C13454   0.929  10.864   5.792  1.1580 -0.1733  0.0088
  841MOL0     C13455   0.835  11.285   5.602 -0.2793  0.1803 -0.6868
  841MOL0     C13456   0.879  11.365   5.504  0.5708 -0.8508 -0.4205
  841MOL0     C13457   0.843  11.500   5.502  0.2179 -0.2358  0.1463
  841MOL0     C13458   0.753  11.553   5.603  0.0088 -0.3816 -0.1693
  841MOL0     O13459   0.740  11.686   5.609 -0.3620 -0.7840 -0.2826
  841MOL0     C13460   0.633  11.740   5.529 -0.6003  1.8394  0.4210
  841MOL0     C13461   0.507  11.751   5.615 -0.8559  1.2042  0.0070
  841MOL0     C13462   0.384  11.741   5.524  0.3247 -0.7738 -0.7936
  841MOL0     C13463   0.243  11.760   5.594  0.1199  0.0856  1.0304
  841MOL0     C13464   0.243  11.682   5.716 -0.3748  0.0484  0.4065
  841MOL0     C13465   0.251  11.602   5.808 -0.6690 -0.4788 -0.5516
  841MOL0     C13466   0.710  11.466   5.704  0.4969  0.0511  0.4641
  841MOL0     C13467   0.753  11.333   5.709 -0.5336 -0.1862 -0.4288
  841MOL0     H13468   0.746  10.873   5.517 -3.6676 -1.9937  1.3673
  841MOL0     H13469   0.798  10.623   5.521 -1.6835  0.1117 -0.4423
  841MOL0     H13470   1.052  10.480   5.895 -0.8719 -2.4751  2.5267
  841MOL0     H13471   0.879  10.500   5.926  0.1719  2.9668 -0.0748
  841MOL0     H13472   0.933  10.295   5.985  1.4731  3.2516  0.6746
  841MOL0     H13473   0.846  10.277   5.845 -2.7059  0.9425  3.4801
  841MOL0     H13474   1.020  10.201   5.719  0.3984 -2.4978 -0.1413
  841MOL0     H13475   1.159  10.274   5.805 -1.2835  2.3171 -0.7514
  841MOL0     H13476   1.123  10.118   5.993  1.8424 -0.6994  0.3831
  841MOL0     H13477   0.989  10.038   5.906 -0.5465  1.3162 -1.7196
  841MOL0     H13478   1.156   9.967   5.741 -2.2527  0.6099  0.4978
  841MOL0     H13479   1.282  10.063   5.812 -0.2779  0.4060  0.9323
  841MOL0     H13480   1.305   9.935   6.004  1.6847 -1.1793  0.0895
  841MOL0     H13481   1.156   9.845   5.979  0.5779  0.1531 -0.5967
  841MOL0     H13482   1.378   9.811   5.786 -1.1249 -0.7750 -1.1576
  841MOL0     H13483   1.357   9.707   5.919  2.4702 -0.0558 -2.4571
  841MOL0     H13484   1.271   9.578   5.769  2.2621  0.6333 -1.0574
  841MOL0     H13485   1.233   9.692   5.640  0.2792 -1.1859  0.6448
  841MOL0     H13486   1.040   9.554   5.969 -1.6462 -1.2069 -1.0927
  841MOL0     H13487   0.674   9.570   5.864  1.3027 -1.0589 -1.7701
  841MOL0     H13488   0.770   9.488   5.994 -1.1790 -1.8438 -1.0986
  841MOL0     H13489   0.701   9.779   5.980 -1.3952 -1.2057 -3.1273
  841MOL0     H13490   0.792   9.705   6.117 -0.8121  0.9939  0.4230
  841MOL0     H13491   0.509   9.668   6.021 -2.0879  1.7752  2.7971
  841MOL0     H13492   0.561   9.742   6.168 -2.1268 -0.7631  1.0228
  841MOL0     H13493   0.663   9.516   6.240  1.3430 -0.2847 -2.7886
  841MOL0     H13494   0.567   9.429   6.114 -0.3254 -2.3728  2.8223
  841MOL0     H13495   0.239   9.503   6.433 -3.1214 -0.1623 -0.0799
  841MOL0     H13496  -0.081   9.563   6.404  1.2059  0.4988  0.4852
  841MOL0     H13497  -0.077   9.377   6.392  0.1450 -0.6982 -2.3891
  841MOL0     H13498   0.026   9.472   6.500  0.8344 -2.0063 -1.1779
  841MOL0     H13499  -0.254   9.325   5.941  1.4431  1.2456  0.8318
  841MOL0     H13500  -0.498   9.327   5.862 -1.2757 -2.2354  0.9011
  841MOL0     H13501  -0.710   9.600   5.915  0.9496 -0.0182 -0.0513
  841MOL0     H13502  -0.645   9.488   5.798 -1.8525  1.9005 -1.8779
  841MOL0     H13503  -0.853   9.384   5.766  2.2399  0.5182 -2.8782
  841MOL0     H13504  -0.929   9.499   5.888  0.6247  2.5307 -0.7350
  841MOL0     H13505  -0.821   9.684   5.735  2.2112 -2.0244  1.3324
  841MOL0     H13506  -0.974   9.594   5.677 -0.1763 -2.9915 -1.4154
  841MOL0     H13507  -0.683   9.547   5.581 -0.7665 -0.1322 -1.0334
  841MOL0     H13508  -0.826   9.446   5.566  1.1162 -0.6408  1.5355
  841MOL0     H13509  -0.802   9.744   5.471  1.9941 -0.2996 -0.3943
  841MOL0     H13510  -0.937   9.639   5.458  0.4005  0.3734 -0.5610
  841MOL0     H13511  -0.692   9.604   5.282 -0.1721  0.9657 -0.5211
  841MOL0     H13512  -0.822   9.488   5.292 -0.1644 -0.2756 -1.2734
  841MOL0     H13513  -0.918   9.766   5.238  0.6039  1.6657 -1.2842
  841MOL0     H13514  -0.972   9.608   5.180 -1.1837  3.1052 -2.3516
  841MOL0     H13515  -0.710   9.746   5.082  0.1633  1.1251  0.4709
  841MOL0     H13516  -0.865   9.718   4.993 -1.3222 -1.2585  0.0482
  841MOL0     H13517  -0.610   9.511   6.234 -0.9487 -0.1522 -0.0378
  841MOL0     H13518  -0.370   9.514   6.308 -0.4772  0.8626  0.3286
  841MOL0     H13519   0.174   9.371   5.974 -3.5587  1.8578 -0.7729
  841MOL0     H13520   0.385   9.442   6.031 -0.8455  1.9588 -0.3460
  841MOL0     H13521   1.040  10.698   5.870  0.6267 -2.8094 -1.9048
  841MOL0     H13522   0.975  10.931   5.864  0.9822 -1.5485  1.4431
  841MOL0     H13523   0.951  11.330   5.431  2.8202  1.6274  0.4124
  841MOL0     H13524   0.884  11.552   5.417  1.6129 -1.6301 -0.0849
  841MOL0     H13525   0.644  11.838   5.483 -1.2675  1.1977 -1.1673
  841MOL0     H13526   0.612  11.666   5.451  1.4032  0.8631  0.7333
  841MOL0     H13527   0.510  11.848   5.665  2.3027  1.1278  0.1716
  841MOL0     H13528   0.508  11.682   5.700  4.3511  1.7736  0.7457
  841MOL0     H13529   0.390  11.645   5.472 -2.0531 -0.3129 -2.0302
  841MOL0     H13530   0.389  11.822   5.451 -0.4364  1.5464  1.5498
  841MOL0     H13531   0.171  11.733   5.516  0.4780  2.1538 -0.0993
  841MOL0     H13532   0.238  11.866   5.621 -5.0029  0.8075 -1.5097
  841MOL0     H13533   0.248  11.526   5.883 -0.5539  1.1759  1.1945
  841MOL0     H13534   0.642  11.505   5.779 -1.3665 -0.3676 -0.9421
  841MOL0     H13535   0.723  11.271   5.793 -1.2533  3.1650  2.0484
  842MOL0     O13536   3.732   9.441   2.320  0.9428 -0.5479 -0.1145
  842MOL0     C13537   3.633   9.503   2.277  0.1558  0.4343 -0.6665
  842MOL0     O13538   3.505   9.511   2.337  0.3694  0.8458  0.1156
  842MOL0     C13539   3.475   9.417   2.432  0.2524 -0.2738  0.7538
  842MOL0     C13540   3.392   9.462   2.535  0.5856  0.9289  0.6863
  842MOL0     C13541   3.341   9.376   2.632 -0.1354 -0.7782 -0.5613
  842MOL0     C13542   3.358   9.232   2.614 -0.1175 -0.1417 -0.5761
  842MOL0     O13543   3.286   9.151   2.697 -0.4818  0.0610 -0.5267
  842MOL0     C13544   3.307   9.012   2.684  0.5882  1.1052 -0.7190
  842MOL0     C13545   3.222   8.914   2.782 -0.2119  0.1428  0.6903
  842MOL0     C13546   3.070   8.945   2.791  0.2982 -0.5969  0.3291
  842MOL0     C13547   2.980   8.852   2.706  0.5816  0.0194 -0.4172
  842MOL0     C13548   2.959   8.716   2.773  0.1067  0.3187  0.0509
  842MOL0     C13549   2.835   8.638   2.711 -1.0542  0.3308  0.2126
  842MOL0     C13550   2.805   8.506   2.785  0.3084 -0.5060 -0.0421
  842MOL0     C13551   2.671   8.493   2.858 -0.2090 -0.4477  0.0471
  842MOL0     N13552   2.658   8.371   2.933  0.5926  0.5418 -0.2770
  842MOL0     C13553   2.638   8.253   2.873  0.5854 -0.0037  0.3435
  842MOL0     C13554   2.657   8.164   2.976  0.3271  0.7238  0.6477
  842MOL0     C13555   2.627   8.022   2.955 -0.3831 -0.9053 -0.0403
  842MOL0     C13556   2.500   7.976   3.012  0.2001 -0.4597 -0.7099
  842MOL0     C13557   2.373   8.040   2.959 -0.4065 -0.7173  0.1338
  842MOL0     C13558   2.346   7.983   2.812  0.7271  0.0677  0.2958
  842MOL0     O13559   2.215   8.030   2.765  0.4362 -0.2441  0.2117
  842MOL0     C13560   2.203   8.149   2.695 -0.8634 -0.5468  0.2913
  842MOL0     C13561   2.093   8.157   2.614  0.6805  0.3123 -0.0907
  842MOL0     C13562   2.076   8.276   2.540 -0.2594 -0.3145  0.1483
  842MOL0     C13563   1.944   8.282   2.466  0.3098  0.2804 -1.1596
  842MOL0     C13564   2.165   8.385   2.540 -0.7304 -0.0301 -0.1802
  842MOL0     C13565   2.155   8.495   2.440  0.4498  0.0466 -0.9141
  842MOL0     O13566   2.220   8.601   2.482 -0.7144  0.1408 -0.9294
  842MOL0     C13567   2.186   8.721   2.422  0.8633  0.2971 -0.2448
  842MOL0     C13568   2.271   8.777   2.331 -0.4018 -1.0770 -0.5402
  842MOL0     C13569   2.230   8.896   2.276 -0.5879  0.3617  0.2642
  842MOL0     C13570   2.115   8.961   2.302 -0.3373  0.6878  0.5884
  842MOL0     O13571   2.103   9.084   2.239 -0.2893 -0.2888 -0.5821
  842MOL0     C13572   2.049   9.191   2.317 -0.5681  0.2927  0.4303
  842MOL0     C13573   2.073   9.316   2.244 -0.5232 -0.2951 -0.1566
  842MOL0     C13574   2.214   9.362   2.239 -0.7412  0.2446  0.5443
  842MOL0     C13575   2.260   9.441   2.115 -0.2379  0.1259 -0.3885
  842MOL0     C13576   2.412   9.482   2.121 -0.8972  0.9597 -0.4939
  842MOL0     C13577   2.441   9.571   2.002  0.3314  0.5813  0.5047
  842MOL0     C13578   2.588   9.557   1.975  0.6408 -1.6108  0.7583
  842MOL0     C13579   2.631   9.653   1.863 -0.6005  0.1631  0.2001
  842MOL0    Cl13580   2.805   9.666   1.852 -0.6932  0.3568 -0.3851
  842MOL0     C13581   2.017   8.899   2.379  0.8558  0.1330  0.6732
  842MOL0     C13582   2.055   8.775   2.439 -0.5402 -0.6652 -0.2586
  842MOL0     O13583   2.085   8.493   2.338 -0.3279 -0.0461 -0.3992
  842MOL0     C13584   2.276   8.374   2.623 -0.0180  0.4524  0.2644
  842MOL0     C13585   2.293   8.261   2.703  0.4556  0.1732  0.1344
  842MOL0     N13586   2.691   8.223   3.093  0.4516 -0.1422  0.0966
  842MOL0     N13587   2.695   8.348   3.060  0.7592 -0.1857  0.1679
  842MOL0     C13588   3.428   9.180   2.503 -0.4707 -0.5612 -1.4468
  842MOL0     C13589   3.494   9.275   2.411 -0.3775  1.1542  0.8317
  842MOL0     C13590   3.653   9.581   2.155 -0.0955  0.2211  0.1004
  842MOL0     C13591   3.579   9.700   2.143  0.0613 -0.4316  0.2389
  842MOL0     C13592   3.592   9.779   2.030  0.4484  0.2287 -0.8284
  842MOL0     C13593   3.684   9.750   1.929 -0.4219  0.0889 -0.2271
  842MOL0     O13594   3.673   9.818   1.805 -0.6408 -0.0705 -1.1063
  842MOL0     C13595   3.757   9.774   1.708 -0.2733  0.8654 -0.3194
  842MOL0     C13596   3.747   9.855   1.584  0.1107  0.0057 -0.1875
  842MOL0     C13597   3.867   9.813   1.498  0.7494  0.1201  0.7643
  842MOL0     C13598   3.847   9.864   1.355 -0.1348 -0.0740 -0.8232
  842MOL0     C13599   3.942   9.794   1.268  0.0165 -0.6492 -0.1105
  842MOL0     C13600   4.013   9.740   1.181 -0.3711 -0.0428  0.0263
  842MOL0     C13601   3.760   9.633   1.946  0.0293 -0.8563 -0.4316
  842MOL0     C13602   3.747   9.543   2.056  0.8051 -0.0332  0.6714
  842MOL0     H13603   3.369   9.567   2.529  0.0067  0.9686  2.7539
  842MOL0     H13604   3.289   9.420   2.716  1.3668  1.4388 -0.7274
  842MOL0     H13605   3.287   8.966   2.588 -1.7715 -0.9461  0.6348
  842MOL0     H13606   3.407   8.989   2.720  1.4662  1.1836 -2.9641
  842MOL0     H13607   3.235   8.814   2.738  1.3118  0.8699 -0.6123
  842MOL0     H13608   3.254   8.909   2.886 -0.3671  1.5798  0.8240
  842MOL0     H13609   3.046   8.939   2.897  1.3857  1.2906  0.7372
  842MOL0     H13610   3.059   9.050   2.762 -3.1766 -0.3775  1.9243
  842MOL0     H13611   2.888   8.910   2.695  0.6560  0.1054 -0.5897
  842MOL0     H13612   3.021   8.836   2.605 -1.5168 -0.0709 -1.2909
  842MOL0     H13613   3.047   8.652   2.765 -1.3510 -2.1711  2.3072
  842MOL0     H13614   2.934   8.737   2.878  3.3134  4.7474  0.2076
  842MOL0     H13615   2.752   8.708   2.722 -0.3739  0.8535  2.6736
  842MOL0     H13616   2.848   8.624   2.603 -1.0775 -1.1443  0.3810
  842MOL0     H13617   2.806   8.423   2.714  2.4335  0.3672 -1.1430
  842MOL0     H13618   2.883   8.471   2.853 -0.9037 -0.1743  1.5841
  842MOL0     H13619   2.606   8.486   2.769  3.4156 -2.3214 -2.7303
  842MOL0     H13620   2.654   8.583   2.918  0.8899  0.9968 -1.6657
  842MOL0     H13621   2.623   8.230   2.768  1.5812  3.0197 -0.5504
  842MOL0     H13622   2.611   8.007   2.848  0.5380  1.0711 -0.4876
  842MOL0     H13623   2.714   7.974   3.003  0.5026  0.2677 -0.4424
  842MOL0     H13624   2.499   7.989   3.120 -1.8544 -0.5581 -0.6798
  842MOL0     H13625   2.492   7.867   3.002  1.1935 -0.5642 -0.5626
  842MOL0     H13626   2.382   8.149   2.962  0.4370 -0.8065  2.0571
  842MOL0     H13627   2.288   8.006   3.019 -0.2487 -0.6067  0.4224
  842MOL0     H13628   2.338   7.874   2.824 -2.4863  0.2287  0.3539
  842MOL0     H13629   2.414   8.013   2.732 -0.7023 -1.7796 -1.7102
  842MOL0     H13630   2.017   8.082   2.599 -2.2898  2.3174  3.4123
  842MOL0     H13631   1.964   8.250   2.364 -1.8746 -4.4920 -0.3416
  842MOL0     H13632   1.865   8.217   2.505  0.3410  0.0897 -1.4117
  842MOL0     H13633   1.903   8.384   2.459  3.6416  1.8714  0.2905
  842MOL0     H13634   2.373   8.742   2.319  0.4926  0.2430  2.2598
  842MOL0     H13635   2.297   8.944   2.204 -0.8954 -1.3328 -1.2273
  842MOL0     H13636   1.942   9.184   2.336 -0.3316 -0.1904  1.6931
  842MOL0     H13637   2.101   9.184   2.413 -0.0339  1.0620  0.2077
  842MOL0     H13638   2.033   9.305   2.143  2.8059 -0.3758 -1.6182
  842MOL0     H13639   2.018   9.400   2.288  0.3216  1.1889 -1.7825
  842MOL0     H13640   2.276   9.272   2.250 -2.3646 -0.6262  3.5543
  842MOL0     H13641   2.240   9.410   2.334  1.7925 -3.4296  1.9603
  842MOL0     H13642   2.248   9.374   2.029 -2.7386  1.0815 -0.8911
  842MOL0     H13643   2.196   9.528   2.095 -1.1905 -0.2474  0.8614
  842MOL0     H13644   2.478   9.395   2.125 -0.2031  1.3637 -2.4257
  842MOL0     H13645   2.430   9.543   2.210  1.0866  1.2595 -1.0432
  842MOL0     H13646   2.388   9.553   1.908  1.9300  0.7038 -0.4580
  842MOL0     H13647   2.417   9.672   2.034  0.7961  0.5667  0.9193
  842MOL0     H13648   2.614   9.456   1.944  0.0005 -1.7607  0.6915
  842MOL0     H13649   2.631   9.589   2.071 -3.2863  2.4169  1.5212
  842MOL0     H13650   2.590   9.752   1.883  0.6877  0.6017  0.7275
  842MOL0     H13651   2.589   9.619   1.768 -2.1307 -2.1949  1.5982
  842MOL0     H13652   1.922   8.952   2.373  1.0774  0.5303  0.6226
  842MOL0     H13653   1.984   8.728   2.506 -0.4382  0.7724  0.9019
  842MOL0     H13654   2.344   8.457   2.637  0.0739  1.0643 -3.0759
  842MOL0     H13655   2.380   8.262   2.768  1.1399  0.5261 -0.7755
  842MOL0     H13656   3.435   9.073   2.492  1.3123 -0.6414 -0.0235
  842MOL0     H13657   3.542   9.245   2.319 -2.9802 -0.7824 -0.0202
  842MOL0     H13658   3.521   9.740   2.225 -2.0507  3.5185 -2.8363
  842MOL0     H13659   3.527   9.866   2.028 -0.1666 -0.2131 -3.2561
  842MOL0     H13660   3.857   9.752   1.744 -0.0855  2.9576  0.5405
  842MOL0     H13661   3.712   9.675   1.690  1.5406 -0.6410  2.6881
  842MOL0     H13662   3.736   9.963   1.593  1.0626  0.3692 -2.6130
  842MOL0     H13663   3.666   9.829   1.515  1.2919  2.6539 -2.8020
  842MOL0     H13664   3.852   9.706   1.483 -0.6135  0.6336 -2.2788
  842MOL0     H13665   3.962   9.837   1.546  1.3123 -0.7724  0.1309
  842MOL0     H13666   3.858   9.972   1.339 -0.0497  0.0559  0.0635
  842MOL0     H13667   3.746   9.847   1.316 -0.8734  1.8902  0.1036
  842MOL0     H13668   4.085   9.690   1.120  0.1112 -1.5463  1.7515
  842MOL0     H13669   3.824   9.598   1.866  1.0957 -0.6197  0.2966
  842MOL0     H13670   3.801   9.450   2.066  1.2028  0.4000  3.8639
  843MOL0     O13671   8.648   7.735   6.312  0.3845 -0.8836  0.3679
  843MOL0     C13672   8.614   7.615   6.338 -0.2551 -0.1738 -0.1147
  843MOL0     O13673   8.533   7.542   6.256 -0.2715 -0.2394 -0.1387
  843MOL0     C13674   8.494   7.583   6.139  0.0012 -0.4875  0.4321
  843MOL0     C13675   8.493   7.492   6.029 -0.1495  0.8230 -0.2408
  843MOL0     C13676   8.437   7.537   5.910 -0.1989 -1.2765  0.1563
  843MOL0     C13677   8.381   7.665   5.903 -0.5584 -0.6691  0.0222
  843MOL0     O13678   8.309   7.700   5.792  0.0375 -0.5517  0.2304
  843MOL0     C13679   8.334   7.643   5.659 -0.5191 -0.6003 -0.3296
  843MOL0     C13680   8.255   7.713   5.549  0.5643  0.1522  0.6020
  843MOL0     C13681   8.338   7.840   5.520 -0.8067  0.8189  0.5879
  843MOL0     C13682   8.281   7.894   5.384 -0.2972  0.1407 -0.2043
  843MOL0     C13683   8.358   8.023   5.337  0.2067  0.5342  0.1504
  843MOL0     C13684   8.492   7.984   5.277 -0.6077  0.2542 -0.7295
  843MOL0     C13685   8.559   8.110   5.232 -0.8525 -0.5303 -0.0558
  843MOL0     C13686   8.711   8.101   5.218 -1.2359  0.1204 -0.5070
  843MOL0     N13687   8.784   8.091   5.346 -0.3283 -0.6059  0.2785
  843MOL0     C13688   8.799   8.196   5.428 -0.4440 -0.0708 -0.0537
  843MOL0     C13689   8.889   8.153   5.521 -0.1054  0.8782  1.0681
  843MOL0     C13690   8.956   8.223   5.636 -0.0657 -0.1645 -0.9348
  843MOL0     C13691   8.906   8.155   5.767 -0.0575 -0.2701  0.3400
  843MOL0     C13692   8.945   8.247   5.883 -0.0295  0.6518  1.4612
  843MOL0     C13693   9.092   8.226   5.925 -0.1787 -0.6075 -0.5268
  843MOL0     O13694   9.186   8.273   5.831  0.5913  0.5954  0.2436
  843MOL0     C13695   9.221   8.405   5.820 -0.4163  0.4000 -0.0643
  843MOL0     C13696   9.303   8.440   5.713  0.3102  0.2152 -0.0489
  843MOL0     C13697   9.329   8.575   5.678  0.0383 -0.5351  1.0176
  843MOL0     C13698   9.395   8.583   5.540  0.7613 -0.3137 -0.3431
  843MOL0     C13699   9.290   8.682   5.763  0.1927  0.1278 -0.4482
  843MOL0     C13700   9.332   8.825   5.739 -0.4949  0.7108  0.3438
  843MOL0     O13701   9.268   8.919   5.824 -0.7291  0.1388  0.4182
  843MOL0     C13702   9.278   9.049   5.780 -2.0026 -0.0541 -0.2367
  843MOL0     C13703   9.347   9.130   5.869 -0.7473  0.2082 -0.6302
  843MOL0     C13704   9.370   9.262   5.833  0.1291 -0.3531  0.3741
  843MOL0     C13705   9.307   9.320   5.717  0.2879  0.1052 -0.5672
  843MOL0     O13706   9.320   9.452   5.673 -0.3982 -0.3827  0.6463
  843MOL0     C13707   9.408   9.528   5.754  0.1544 -0.0599  0.7666
  843MOL0     C13708   9.385   9.674   5.728 -1.3740  1.0832  0.5877
  843MOL0     C13709   9.254   9.707   5.787  0.3637 -0.0477 -0.5268
  843MOL0     C13710   9.224   9.852   5.782  0.7836 -0.5747  0.2743
  843MOL0     C13711   9.286   9.932   5.904 -0.2882  1.0723  1.0873
  843MOL0     C13712   9.206  10.046   5.953 -0.2330  0.1508  0.4802
  843MOL0     C13713   9.274  10.116   6.066  0.2663 -0.3526  0.0121
  843MOL0     C13714   9.184  10.235   6.106 -0.2480 -0.6389  0.8608
  843MOL0    Cl13715   9.213  10.388   5.999 -0.5074 -0.3304 -0.1357
  843MOL0     C13716   9.237   9.234   5.634 -0.0716  0.3846  0.4014
  843MOL0     C13717   9.223   9.093   5.660  0.1305  0.1889 -0.3110
  843MOL0     O13718   9.406   8.853   5.644  0.7736  0.3136  0.1420
  843MOL0     C13719   9.213   8.642   5.876 -0.5561  0.0025 -0.1218
  843MOL0     C13720   9.178   8.507   5.902 -0.0931 -0.9660 -0.1813
  843MOL0     N13721   8.925   8.018   5.489 -0.5342 -1.2115 -0.4436
  843MOL0     N13722   8.870   7.989   5.371 -0.0094 -0.0942  0.3034
  843MOL0     C13723   8.371   7.738   6.014 -0.2004  0.3701  0.1124
  843MOL0     C13724   8.425   7.697   6.134 -0.2434 -0.2440 -0.2704
  843MOL0     C13725   8.668   7.554   6.463 -0.4671 -0.6012 -0.9443
  843MOL0     C13726   8.777   7.611   6.530  0.5066 -0.6937 -0.1505
  843MOL0     C13727   8.837   7.553   6.644 -0.9435 -0.4952  0.6803
  843MOL0     C13728   8.802   7.429   6.686  0.1270 -0.1823 -0.3786
  843MOL0     O13729   8.860   7.373   6.799  0.3192  0.6501  0.9430
  843MOL0     C13730   8.883   7.224   6.806 -0.3795 -1.2317  0.3899
  843MOL0     C13731   9.009   7.199   6.732 -0.5810 -0.5813 -0.1028
  843MOL0     C13732   9.129   7.251   6.811  0.8204 -0.1662 -0.0328
  843MOL0     C13733   9.259   7.187   6.757  0.3727 -0.3657  0.1115
  843MOL0     C13734   9.381   7.246   6.817  0.1158  0.6914  0.0784
  843MOL0     C13735   9.476   7.304   6.870 -0.6817  0.6374 -0.3288
  843MOL0     C13736   8.698   7.369   6.612  0.5319 -0.2143  0.0809
  843MOL0     C13737   8.633   7.429   6.510 -0.4730  0.6727  0.3895
  843MOL0     H13738   8.553   7.404   6.048 -0.2739  0.6963 -0.4470
  843MOL0     H13739   8.437   7.474   5.822 -1.2369  1.2007 -1.7137
  843MOL0     H13740   8.439   7.639   5.628 -1.7873 -4.4067 -5.6695
  843MOL0     H13741   8.301   7.539   5.669  0.6268 -1.1959 -2.2138
  843MOL0     H13742   8.236   7.650   5.462 -1.4204 -4.0818  3.7486
  843MOL0     H13743   8.155   7.739   5.587  1.5827 -0.5913  4.2035
  843MOL0     H13744   8.327   7.920   5.595 -0.9776  1.4908 -0.1353
  843MOL0     H13745   8.442   7.815   5.497 -1.0413  3.4648 -4.9991
  843MOL0     H13746   8.277   7.814   5.310 -4.7692 -0.5119  0.4820
  843MOL0     H13747   8.176   7.921   5.403 -0.5171 -0.5975 -0.3449
  843MOL0     H13748   8.309   8.066   5.249  0.3841  2.7591  1.0878
  843MOL0     H13749   8.362   8.100   5.414  0.5701  0.2927  0.3801
  843MOL0     H13750   8.552   7.936   5.355 -1.3890 -1.7972 -1.3175
  843MOL0     H13751   8.484   7.922   5.188 -2.3028  0.0683 -0.4798
  843MOL0     H13752   8.528   8.135   5.130 -0.0315 -2.5765 -0.8744
  843MOL0     H13753   8.527   8.192   5.297  2.2500  0.3138  0.5589
  843MOL0     H13754   8.735   8.199   5.176  3.9613 -0.1526  1.0887
  843MOL0     H13755   8.757   8.030   5.149  2.0486  2.1381 -0.5730
  843MOL0     H13756   8.753   8.295   5.429  0.4490  0.3943 -1.7034
  843MOL0     H13757   9.063   8.204   5.623  0.0635  0.0843 -0.2564
  843MOL0     H13758   8.943   8.331   5.627  2.8849  0.1871 -1.9028
  843MOL0     H13759   8.945   8.053   5.779 -0.3186 -0.2847  1.1500
  843MOL0     H13760   8.797   8.148   5.764 -0.1827 -0.9056  3.2002
  843MOL0     H13761   8.873   8.225   5.963 -0.0476  2.9513  2.1568
  843MOL0     H13762   8.931   8.348   5.843  0.4885 -1.3989 -5.0995
  843MOL0     H13763   9.107   8.119   5.942 -0.0147 -0.8187 -1.8786
  843MOL0     H13764   9.110   8.277   6.020  1.1466  0.8262 -1.5027
  843MOL0     H13765   9.348   8.358   5.658  1.3021  1.9797 -2.0173
  843MOL0     H13766   9.500   8.557   5.559  0.8071  1.8861  3.1251
  843MOL0     H13767   9.344   8.507   5.480 -1.5017  1.4370 -0.7900
  843MOL0     H13768   9.369   8.676   5.488 -1.0682 -0.7768 -0.3182
  843MOL0     H13769   9.400   9.085   5.953 -2.8797  1.3194  1.4128
  843MOL0     H13770   9.433   9.330   5.890  1.3218  1.4779 -2.8924
  843MOL0     H13771   9.385   9.515   5.861 -0.4076 -4.4009  0.3345
  843MOL0     H13772   9.505   9.487   5.724  0.3515  0.7197  0.3414
  843MOL0     H13773   9.461   9.745   5.764  1.6166 -0.4459 -2.1729
  843MOL0     H13774   9.384   9.686   5.619 -0.4870 -3.3650 -0.0955
  843MOL0     H13775   9.255   9.677   5.893 -1.6077  1.3784 -0.0349
  843MOL0     H13776   9.172   9.646   5.748  0.5172 -1.7659  1.6467
  843MOL0     H13777   9.268   9.885   5.687 -1.2482  1.1616 -0.1268
  843MOL0     H13778   9.116   9.866   5.776  1.1907  3.0625 -0.9357
  843MOL0     H13779   9.382   9.977   5.878 -0.0517  1.3616  2.3666
  843MOL0     H13780   9.284   9.861   5.988 -0.4762  1.6528  1.5817
  843MOL0     H13781   9.194  10.120   5.873 -1.8192  0.1503  0.6845
  843MOL0     H13782   9.111  10.010   5.992 -0.3655  0.0579  0.0711
  843MOL0     H13783   9.371  10.144   6.024 -0.5963  0.9330 -1.2491
  843MOL0     H13784   9.285  10.048   6.151 -2.1870 -0.3741  0.3941
  843MOL0     H13785   9.211  10.259   6.209 -0.4023 -1.7019  1.1642
  843MOL0     H13786   9.078  10.208   6.103 -0.7496  1.1049  1.6120
  843MOL0     H13787   9.209   9.253   5.531 -1.6548 -5.7270 -0.6638
  843MOL0     H13788   9.169   9.029   5.591 -1.9868  2.4938 -0.9662
  843MOL0     H13789   9.195   8.709   5.961  0.9143 -0.9972  1.0240
  843MOL0     H13790   9.118   8.493   5.991 -1.6305  0.3285 -0.9756
  843MOL0     H13791   8.310   7.828   6.012  0.2690  0.7054  0.6408
  843MOL0     H13792   8.425   7.772   6.212  1.4429  0.2819 -0.7282
  843MOL0     H13793   8.832   7.692   6.485 -1.3420  1.9471  2.0174
  843MOL0     H13794   8.914   7.607   6.698  2.5379 -2.3150 -2.0326
  843MOL0     H13795   8.899   7.201   6.912  3.2718 -2.3331 -0.2545
  843MOL0     H13796   8.803   7.170   6.756 -1.6125  1.2573 -0.4943
  843MOL0     H13797   9.012   7.251   6.636 -3.3604 -0.8522 -0.4157
  843MOL0     H13798   9.015   7.091   6.717  1.5193 -0.4733 -0.3467
  843MOL0     H13799   9.130   7.223   6.916  0.3679 -0.4724 -0.1078
  843MOL0     H13800   9.128   7.360   6.816 -2.6878 -0.0943  0.0770
  843MOL0     H13801   9.272   7.211   6.652  0.4742 -1.4328 -0.1370
  843MOL0     H13802   9.249   7.078   6.771  2.9188 -0.3419  3.2343
  843MOL0     H13803   9.564   7.344   6.916  2.1183 -3.6906 -1.3362
  843MOL0     H13804   8.668   7.270   6.644 -1.8329 -0.1108 -1.5535
  843MOL0     H13805   8.560   7.371   6.453 -1.7048  1.6790  0.8934
  844MOL0     O13806   5.290   1.282   2.878  0.0956  0.2235  0.4807
  844MOL0     C13807   5.304   1.397   2.838  0.0183 -1.0961  0.8982
  844MOL0     O13808   5.210   1.497   2.863 -0.7115 -0.8654  0.1958
  844MOL0     C13809   5.093   1.473   2.923  0.2181  1.2140  0.2742
  844MOL0     C13810   4.979   1.552   2.884 -0.4015  0.4357  0.9983
  844MOL0     C13811   4.857   1.546   2.951  0.6460 -1.0551 -0.3841
  844MOL0     C13812   4.827   1.439   3.036 -1.1599  0.6247  0.1582
  844MOL0     O13813   4.708   1.423   3.105 -0.3180  0.9208 -0.1789
  844MOL0     C13814   4.611   1.349   3.028 -1.0865 -0.4989 -0.3631
  844MOL0     C13815   4.484   1.388   3.109 -0.4055 -0.1178  0.3712
  844MOL0     C13816   4.348   1.327   3.064  0.2139 -0.1244 -0.7309
  844MOL0     C13817   4.340   1.275   2.916  0.2608 -0.0249 -0.6984
  844MOL0     C13818   4.193   1.225   2.888  0.0839 -0.6799 -1.0974
  844MOL0     C13819   4.181   1.199   2.737  0.4844 -0.1328  0.6593
  844MOL0     C13820   4.156   1.338   2.666  0.2649  0.4558  0.2368
  844MOL0     C13821   4.092   1.321   2.533  0.2182 -0.1954 -0.3497
  844MOL0     N13822   4.080   1.448   2.458  0.9337 -0.3648 -0.3560
  844MOL0     C13823   3.993   1.482   2.358 -0.7334  0.0079  0.0606
  844MOL0     C13824   4.023   1.613   2.333  0.3303 -0.5888  0.4998
  844MOL0     C13825   3.929   1.697   2.249  0.3838 -0.2246 -0.9505
  844MOL0     C13826   3.915   1.844   2.293 -0.4862  1.6823  0.4835
  844MOL0     C13827   3.838   1.931   2.196  0.0475  0.7933 -0.0588
  844MOL0     C13828   3.714   1.870   2.150 -0.4755  0.0629 -0.0437
  844MOL0     O13829   3.634   1.843   2.261  0.3354 -0.1365 -0.4226
  844MOL0     C13830   3.506   1.788   2.245  0.4060 -0.2434 -1.7764
  844MOL0     C13831   3.402   1.862   2.194  0.0126  0.2959  0.6422
  844MOL0     C13832   3.270   1.820   2.177  0.9250  0.3465 -0.1315
  844MOL0     C13833   3.170   1.907   2.097 -0.4318  1.1804  0.7567
  844MOL0     C13834   3.242   1.689   2.229 -0.3253 -0.7079  0.1778
  844MOL0     C13835   3.122   1.612   2.214 -1.6466  0.1696 -0.3891
  844MOL0     O13836   3.107   1.502   2.295 -0.2120 -0.1983 -0.2599
  844MOL0     C13837   2.988   1.444   2.285  1.1310 -1.2278  0.5115
  844MOL0     C13838   2.906   1.447   2.395  0.6578 -0.0617 -0.4558
  844MOL0     C13839   2.776   1.394   2.381 -0.4164  0.1036 -0.2887
  844MOL0     C13840   2.728   1.354   2.259  0.7822  0.1979  0.5059
  844MOL0     O13841   2.593   1.321   2.234 -0.0510  0.0053 -1.1883
  844MOL0     C13842   2.477   1.375   2.303 -0.4470  0.0937 -0.5033
  844MOL0     C13843   2.351   1.319   2.238  0.4873  0.0121  0.0893
  844MOL0     C13844   2.321   1.168   2.257 -0.9135  0.3364 -0.1331
  844MOL0     C13845   2.284   1.140   2.404  1.1661  0.0689 -0.9230
  844MOL0     C13846   2.248   0.988   2.418  0.3907  0.5578  0.7072
  844MOL0     C13847   2.137   0.947   2.518  0.5994 -0.0795  0.3425
  844MOL0     C13848   1.992   0.911   2.466  1.0158  0.3108 -1.5781
  844MOL0     C13849   1.934   1.008   2.357  0.0679 -1.0114 -0.0561
  844MOL0    Cl13850   1.926   1.165   2.409  0.1786  0.2347 -0.4304
  844MOL0     C13851   2.813   1.338   2.154 -0.2910 -0.2615  0.6525
  844MOL0     C13852   2.947   1.377   2.168 -1.0058 -0.1667  0.4208
  844MOL0     O13853   3.045   1.647   2.127  0.9990  0.1776  1.1254
  844MOL0     C13854   3.349   1.617   2.299  0.7194 -0.3390  0.2024
  844MOL0     C13855   3.480   1.662   2.293  0.0640 -0.3548 -0.2956
  844MOL0     N13856   4.135   1.646   2.395  0.3215 -0.2748  0.2693
  844MOL0     N13857   4.160   1.551   2.480  0.6259  0.3569 -0.3327
  844MOL0     C13858   4.938   1.352   3.070 -0.4518 -0.4181  0.9788
  844MOL0     C13859   5.066   1.379   3.020  0.6612  0.3253 -0.0303
  844MOL0     C13860   5.419   1.430   2.755  0.7876  0.2750 -0.3033
  844MOL0     C13861   5.506   1.327   2.705  0.0329 -0.9079  0.6123
  844MOL0     C13862   5.603   1.340   2.607 -0.5339 -0.6066  0.4854
  844MOL0     C13863   5.632   1.474   2.574 -0.3701  0.6804  1.3025
  844MOL0     O13864   5.742   1.490   2.495 -0.1830 -0.1393  0.2599
  844MOL0     C13865   5.769   1.616   2.437  0.4889 -1.2430 -0.0224
  844MOL0     C13866   5.672   1.654   2.322  0.2914 -0.0827 -0.2051
  844MOL0     C13867   5.721   1.773   2.240 -0.1516  0.2961 -0.8531
  844MOL0     C13868   5.609   1.857   2.182 -0.1695 -0.4905  0.0410
  844MOL0     C13869   5.500   1.779   2.132  0.2025  0.5778  0.7738
  844MOL0     C13870   5.432   1.689   2.097  0.2618  0.7396  0.4945
  844MOL0     C13871   5.549   1.580   2.618  0.3058  0.3641 -0.0847
  844MOL0     C13872   5.446   1.555   2.713 -0.0360  1.1777  0.2383
  844MOL0     H13873   5.000   1.611   2.796 -1.8468 -0.9320 -0.3200
  844MOL0     H13874   4.776   1.615   2.926  1.6721  0.1009 -0.6329
  844MOL0     H13875   4.604   1.388   2.926  2.9896 -0.2035 -0.6962
  844MOL0     H13876   4.623   1.241   3.043  1.9931 -0.1816 -0.0234
  844MOL0     H13877   4.497   1.363   3.215  0.3051  0.3639  0.4088
  844MOL0     H13878   4.471   1.497   3.102  0.6459 -0.0981 -2.1611
  844MOL0     H13879   4.336   1.237   3.125  1.6390  0.7206  0.8820
  844MOL0     H13880   4.272   1.402   3.084  0.0170 -0.6447  0.6126
  844MOL0     H13881   4.362   1.362   2.854  0.9791  0.1442 -0.2132
  844MOL0     H13882   4.417   1.198   2.904  0.6605 -0.0200  1.5615
  844MOL0     H13883   4.186   1.130   2.942  0.7493  0.7804  1.7322
  844MOL0     H13884   4.116   1.292   2.926 -1.0927 -2.8265  0.5006
  844MOL0     H13885   4.265   1.138   2.703 -1.4885 -2.4417 -0.4011
  844MOL0     H13886   4.091   1.139   2.716  0.4342 -0.1774  0.9914
  844MOL0     H13887   4.087   1.403   2.721  1.9820  0.7606  2.1722
  844MOL0     H13888   4.253   1.387   2.654 -0.2420  1.3538 -0.3246
  844MOL0     H13889   3.988   1.289   2.546  0.3905 -0.2130  1.0640
  844MOL0     H13890   4.140   1.242   2.475 -2.4879 -1.2873 -1.2907
  844MOL0     H13891   3.902   1.438   2.318 -0.1647 -1.7608  0.6048
  844MOL0     H13892   3.976   1.703   2.150  1.0710 -1.2367 -0.6945
  844MOL0     H13893   3.836   1.640   2.246  0.3465 -0.5158  2.3720
  844MOL0     H13894   4.013   1.882   2.323 -0.0619 -0.8831  2.7943
  844MOL0     H13895   3.852   1.848   2.383  0.8291 -0.5118  1.6083
  844MOL0     H13896   3.896   1.949   2.105 -2.7596 -0.8890 -2.3406
  844MOL0     H13897   3.816   2.023   2.251  2.1324  0.3514  1.6576
  844MOL0     H13898   3.723   1.779   2.091 -2.1801 -1.0553  1.2963
  844MOL0     H13899   3.663   1.946   2.089  2.2147  1.8044 -0.2974
  844MOL0     H13900   3.425   1.959   2.151 -0.6182  0.2313  0.1382
  844MOL0     H13901   3.213   2.006   2.086 -0.0735  1.3305  2.9578
  844MOL0     H13902   3.153   1.860   2.000 -1.0103  1.0824  0.8994
  844MOL0     H13903   3.072   1.928   2.142 -0.6449 -1.1661  1.5356
  844MOL0     H13904   2.931   1.487   2.493  0.1418  0.4628 -0.5362
  844MOL0     H13905   2.703   1.422   2.457  0.1686 -0.1782  0.3875
  844MOL0     H13906   2.480   1.361   2.412 -2.7631 -0.1871 -0.4264
  844MOL0     H13907   2.485   1.482   2.285  0.6533  0.0596 -0.2735
  844MOL0     H13908   2.262   1.373   2.272 -0.4971 -1.9563  0.8283
  844MOL0     H13909   2.361   1.340   2.131  0.0137  1.3275  0.2806
  844MOL0     H13910   2.410   1.129   2.205  0.2647  1.1226  1.2214
  844MOL0     H13911   2.228   1.138   2.208 -2.0095 -0.0709  2.0401
  844MOL0     H13912   2.366   1.161   2.473  2.1575 -2.1193 -1.3512
  844MOL0     H13913   2.198   1.202   2.432  2.1015  1.0650 -0.1568
  844MOL0     H13914   2.340   0.936   2.447  0.3696 -1.2370 -2.0549
  844MOL0     H13915   2.238   0.943   2.319 -0.5220 -6.2656  3.3404
  844MOL0     H13916   2.171   0.856   2.570  2.2898 -0.6957 -1.6804
  844MOL0     H13917   2.129   1.011   2.606  0.2882  1.0088 -0.4664
  844MOL0     H13918   1.921   0.910   2.550 -1.1520  2.1491 -3.2494
  844MOL0     H13919   2.002   0.806   2.439  1.0305 -0.7991  2.2290
  844MOL0     H13920   1.840   0.969   2.319 -0.6826 -0.7568  1.4571
  844MOL0     H13921   2.014   1.019   2.283  1.2338 -0.9117  1.1630
  844MOL0     H13922   2.776   1.312   2.056  0.3623  0.6991  0.1309
  844MOL0     H13923   3.021   1.352   2.094 -3.2544 -1.3809 -1.5436
  844MOL0     H13924   3.337   1.520   2.345  0.2971 -0.2113  0.3658
  844MOL0     H13925   3.565   1.605   2.330  0.9978 -0.0191 -1.8781
  844MOL0     H13926   4.916   1.273   3.141  2.0753 -1.8257  0.2984
  844MOL0     H13927   5.133   1.304   3.062 -1.6146 -1.6731  0.2578
  844MOL0     H13928   5.473   1.227   2.731 -1.2424 -1.4233 -2.5198
  844MOL0     H13929   5.665   1.257   2.574  0.0498 -0.5332  1.3456
  844MOL0     H13930   5.750   1.700   2.505  1.2225 -2.6278  1.9483
  844MOL0     H13931   5.869   1.614   2.394  0.3642  0.0760 -0.4457
  844MOL0     H13932   5.577   1.682   2.368  0.0518  0.9096 -1.2713
  844MOL0     H13933   5.651   1.564   2.263 -3.6783 -1.4861  2.8565
  844MOL0     H13934   5.782   1.737   2.157 -0.1122 -0.6700 -0.4214
  844MOL0     H13935   5.781   1.841   2.302  0.2493 -1.5452  0.8869
  844MOL0     H13936   5.642   1.908   2.091  1.2806 -1.6578 -0.1154
  844MOL0     H13937   5.569   1.925   2.259  0.6281  0.1927 -0.1350
  844MOL0     H13938   5.358   1.617   2.070  0.6725  0.2031  0.7954
  844MOL0     H13939   5.566   1.684   2.592 -4.6072  1.3017 -0.4225
  844MOL0     H13940   5.387   1.642   2.739 -0.2457  1.2287 -0.3905
  845MOL0     O13941  10.105   2.559   9.729 -0.0800 -0.0967  0.7475
  845MOL0     C13942  10.024   2.482   9.674  0.3898  0.2828  0.6239
  845MOL0     O13943   9.923   2.418   9.740  0.2174 -0.0218 -0.0780
  845MOL0     C13944   9.899   2.402   9.876 -0.1453  0.0060  0.1154
  845MOL0     C13945   9.777   2.332   9.910 -0.5499 -0.5144 -0.2297
  845MOL0     C13946   9.736   2.326  10.044  1.3801  0.6314 -0.6147
  845MOL0     C13947   9.810   2.376  10.146 -0.1080 -0.9437 -1.2329
  845MOL0     O13948   9.782   2.357  10.279  0.6992  0.1126 -0.6925
  845MOL0     C13949   9.638   2.350  10.310 -0.1447  0.4197  0.1892
  845MOL0     C13950   9.607   2.358  10.454  0.3072 -0.8277 -0.6948
  845MOL0     C13951   9.652   2.236  10.539 -0.0673 -0.1723  0.4134
  845MOL0     C13952   9.623   2.252  10.692 -0.7485  0.1881  0.3751
  845MOL0     C13953   9.658   2.132  10.784 -0.5709 -0.4304 -0.5640
  845MOL0     C13954   9.637   2.162  10.928 -0.0686  0.2327 -0.3368
  845MOL0     C13955   9.487   2.158  10.969  0.8791  0.0993  0.1003
  845MOL0     C13956   9.457   2.191  11.115 -0.0368 -0.5057 -1.3287
  845MOL0     N13957   9.539   2.109  11.208  0.2310  0.3465 -0.0807
  845MOL0     C13958   9.533   1.972  11.224  0.3320  0.9017  0.3197
  845MOL0     C13959   9.637   1.944  11.309 -0.1538 -0.0727  0.0655
  845MOL0     C13960   9.674   1.809  11.363 -0.7423  0.4949 -0.8011
  845MOL0     C13961   9.634   1.799  11.512 -0.2939 -0.9018 -0.1282
  845MOL0     C13962   9.703   1.679  11.586 -0.2078 -0.2022  0.8196
  845MOL0     C13963   9.697   1.542  11.523 -1.2156 -0.0856  0.9751
  845MOL0     O13964   9.802   1.528  11.422  1.4541 -0.3251 -0.1979
  845MOL0     C13965   9.929   1.489  11.460 -1.1488  0.3851  0.7176
  845MOL0     C13966  10.016   1.577  11.402 -0.6849  0.0117 -0.0949
  845MOL0     C13967  10.143   1.585  11.450 -0.6910  0.5206 -0.6999
  845MOL0     C13968  10.252   1.689  11.401 -0.3297  0.1095  0.1693
  845MOL0     C13969  10.183   1.496  11.552 -0.3027  0.2526  0.0133
  845MOL0     C13970  10.315   1.499  11.616 -0.9495  0.3848  0.1241
  845MOL0     O13971  10.428   1.471  11.535 -0.0368  0.2880  0.8038
  845MOL0     C13972  10.552   1.486  11.593  0.4450  1.0999 -0.2119
  845MOL0     C13973  10.637   1.590  11.558  0.6221  1.2976 -0.5640
  845MOL0     C13974  10.759   1.603  11.625 -0.5113 -0.4526  0.5437
  845MOL0     C13975  10.802   1.520  11.721  0.0915  0.1252 -0.4636
  845MOL0     O13976  10.921   1.544  11.783 -0.3566  0.0537 -0.1378
  845MOL0     C13977  10.989   1.432  11.865 -1.1078 -0.9108  0.3705
  845MOL0     C13978  11.139   1.478  11.903 -0.1580  0.0425 -0.5439
  845MOL0     C13979  11.183   1.392  12.020  0.7492  0.4625  0.8420
  845MOL0     C13980  11.309   1.446  12.094  0.0464 -0.0946  0.0539
  845MOL0     C13981  11.432   1.416  12.006 -1.0730 -0.5537 -0.7588
  845MOL0     C13982  11.556   1.507  12.053 -0.1027  0.6023  1.1761
  845MOL0     C13983  11.627   1.432  12.166  0.4335 -0.0648 -0.0188
  845MOL0     C13984  11.771   1.468  12.181  1.0073  0.2219  0.0531
  845MOL0    Cl13985  11.788   1.630  12.246  0.0706  0.0572  0.1038
  845MOL0     C13986  10.722   1.416  11.761 -0.8738 -0.8296 -0.5712
  845MOL0     C13987  10.594   1.398  11.701  0.1288 -0.2322  0.6888
  845MOL0     O13988  10.323   1.535  11.735 -0.3890 -0.2753 -0.2693
  845MOL0     C13989  10.097   1.395  11.598 -0.4031 -0.3563 -0.6430
  845MOL0     C13990   9.967   1.403  11.556  1.3791 -0.5593  0.2717
  845MOL0     N13991   9.711   2.061  11.324  0.5321 -0.2707 -0.4041
  845MOL0     N13992   9.654   2.159  11.257 -0.2319  0.6481 -0.4042
  845MOL0     C13993   9.938   2.431  10.108 -0.6710  0.0312  0.6773
  845MOL0     C13994   9.976   2.453   9.974 -0.1107 -0.2992  0.0169
  845MOL0     C13995  10.030   2.475   9.525 -0.6761  0.4111  0.2334
  845MOL0     C13996  10.148   2.496   9.453 -0.1502  0.2083 -0.0970
  845MOL0     C13997  10.156   2.497   9.311 -0.1328 -0.7259 -0.1306
  845MOL0     C13998  10.042   2.474   9.238  0.2030 -0.1499 -0.7408
  845MOL0     O13999  10.037   2.481   9.103 -0.2248 -0.4106 -0.4080
  845MOL0     C14000  10.155   2.483   9.020 -0.3966  0.5393  0.6476
  845MOL0     C14001  10.125   2.542   8.888  0.5583  0.1416 -0.4234
  845MOL0     C14002  10.113   2.438   8.772  0.2059  0.7549  0.3960
  845MOL0     C14003  10.004   2.332   8.800 -0.2385 -0.2252 -0.5346
  845MOL0     C14004   9.870   2.396   8.781 -0.0792 -0.8178 -0.4171
  845MOL0     C14005   9.758   2.447   8.798 -1.0241 -0.3069  1.1774
  845MOL0     C14006   9.922   2.468   9.301 -0.1498 -0.0935 -0.8668
  845MOL0     C14007   9.924   2.464   9.445  0.5701 -0.3070  0.4629
  845MOL0     H14008   9.711   2.285   9.837 -0.8092  0.1882 -0.4485
  845MOL0     H14009   9.634   2.290  10.057  1.8440 -0.2653  0.6968
  845MOL0     H14010   9.603   2.440  10.258  2.4665  1.8429  0.7316
  845MOL0     H14011   9.590   2.261  10.267 -1.8460  1.9415 -1.2244
  845MOL0     H14012   9.637   2.455  10.495 -3.1549  1.1125 -2.3481
  845MOL0     H14013   9.499   2.348  10.467  0.6796 -1.9452  2.3610
  845MOL0     H14014   9.594   2.149  10.506 -3.3209  1.1755  2.0632
  845MOL0     H14015   9.759   2.225  10.521 -0.7132 -2.3199 -3.0452
  845MOL0     H14016   9.666   2.348  10.721 -0.2409  0.3608 -0.9021
  845MOL0     H14017   9.515   2.268  10.699 -0.8764  0.7964 -2.1595
  845MOL0     H14018   9.600   2.042  10.764  0.4625 -1.1993 -0.1913
  845MOL0     H14019   9.762   2.116  10.755  0.5808  0.7306  2.5168
  845MOL0     H14020   9.700   2.086  10.976  0.5186  0.2016 -1.1343
  845MOL0     H14021   9.675   2.262  10.949 -1.6629  0.9637 -0.7568
  845MOL0     H14022   9.427   2.233  10.917 -0.5376  2.5284  4.6847
  845MOL0     H14023   9.446   2.060  10.942  0.5027  0.2106  0.2607
  845MOL0     H14024   9.354   2.161  11.133  0.7305 -1.8647  1.2918
  845MOL0     H14025   9.471   2.298  11.131  1.7833 -0.4624 -2.8596
  845MOL0     H14026   9.457   1.906  11.184  0.2252  0.1643  1.6751
  845MOL0     H14027   9.613   1.737  11.308 -2.2496  1.4999 -0.5006
  845MOL0     H14028   9.777   1.779  11.342 -0.6888  1.2748 -1.7105
  845MOL0     H14029   9.525   1.796  11.523 -0.4056 -2.8944 -1.3444
  845MOL0     H14030   9.670   1.883  11.572 -0.2449 -1.6662  0.9444
  845MOL0     H14031   9.663   1.670  11.688 -1.0527  1.9409  0.7363
  845MOL0     H14032   9.802   1.722  11.599  0.1086 -0.3013 -0.9691
  845MOL0     H14033   9.600   1.522  11.477 -0.6656  0.3093 -0.4067
  845MOL0     H14034   9.713   1.468  11.602 -0.3612 -1.6292 -0.5619
  845MOL0     H14035   9.980   1.646  11.325  0.1098  0.4866 -0.0490
  845MOL0     H14036  10.294   1.738  11.489  3.7334  0.8613 -1.9430
  845MOL0     H14037  10.333   1.638  11.350 -1.5056  0.4720 -2.2098
  845MOL0     H14038  10.202   1.763  11.338 -0.9863  0.1505  0.7255
  845MOL0     H14039  10.605   1.642  11.468 -0.9127 -0.1315 -0.8788
  845MOL0     H14040  10.832   1.674  11.588 -1.3455 -0.2208 -0.7472
  845MOL0     H14041  10.927   1.410  11.952  0.8236  1.0675  2.3687
  845MOL0     H14042  10.986   1.332  11.822 -1.0856  0.2722 -2.6133
  845MOL0     H14043  11.204   1.472  11.816  1.1603 -1.7721  0.4998
  845MOL0     H14044  11.124   1.582  11.936 -2.0846 -0.6011  0.8443
  845MOL0     H14045  11.199   1.291  11.982 -1.0546  0.5253 -0.2046
  845MOL0     H14046  11.098   1.391  12.088 -0.8745  1.8594 -1.0423
  845MOL0     H14047  11.293   1.551  12.123  1.3589 -0.9201  4.5626
  845MOL0     H14048  11.318   1.398  12.191 -0.9840 -1.4692 -0.4952
  845MOL0     H14049  11.410   1.438  11.901  1.2882  4.2716 -0.5203
  845MOL0     H14050  11.446   1.309  12.018 -1.9140 -0.5480  0.4227
  845MOL0     H14051  11.623   1.504  11.967  2.1898 -2.3156  2.8703
  845MOL0     H14052  11.540   1.610  12.086  0.7214  1.0875  0.1131
  845MOL0     H14053  11.620   1.325  12.143 -2.3455 -0.1059  0.6304
  845MOL0     H14054  11.587   1.457  12.265  2.1253  1.0005  0.4357
  845MOL0     H14055  11.829   1.446  12.091  1.0497 -4.3348  0.9523
  845MOL0     H14056  11.821   1.399  12.249  0.4202 -0.7317 -0.4681
  845MOL0     H14057  10.750   1.348  11.841 -0.2371 -0.0114 -0.0849
  845MOL0     H14058  10.530   1.321  11.743 -4.3815  2.4615 -0.5372
  845MOL0     H14059  10.133   1.317  11.665  0.4759  2.3049  2.1866
  845MOL0     H14060   9.897   1.336  11.605 -3.4484  4.5422  1.3110
  845MOL0     H14061  10.011   2.459  10.183  2.5770  1.7959 -2.7700
  845MOL0     H14062  10.076   2.485   9.947  0.2409 -0.0997  1.4660
  845MOL0     H14063  10.230   2.525   9.519 -1.6617  3.8418  0.3973
  845MOL0     H14064  10.253   2.495   9.263 -0.5551 -0.0843 -1.0635
  845MOL0     H14065  10.242   2.537   9.057  2.4513 -2.1397 -1.6551
  845MOL0     H14066  10.187   2.380   9.003 -2.4063 -0.1109  0.4786
  845MOL0     H14067  10.206   2.610   8.861  1.2270  0.8571  2.9304
  845MOL0     H14068  10.033   2.601   8.901  0.7714  0.0709  1.6864
  845MOL0     H14069  10.206   2.380   8.767  0.9083  1.8585  0.2760
  845MOL0     H14070  10.098   2.485   8.674 -0.6540  1.6996  0.9610
  845MOL0     H14071  10.035   2.290   8.896 -0.5299 -1.2882 -0.8914
  845MOL0     H14072  10.017   2.253   8.725 -2.7812 -1.9415  0.6869
  845MOL0     H14073   9.663   2.494   8.785 -1.3017 -1.2546 -0.4268
  845MOL0     H14074   9.824   2.470   9.253 -0.9326 -3.8513  0.1820
  845MOL0     H14075   9.823   2.470   9.483  0.5834  1.7211  0.2906
  846MOL0     O14076   3.560   5.008   2.526  1.0860 -0.3535 -0.0610
  846MOL0     C14077   3.650   4.938   2.564 -0.2372  0.8556  0.1617
  846MOL0     O14078   3.773   4.967   2.599 -0.4811  0.6583 -1.2163
  846MOL0     C14079   3.818   5.097   2.566 -0.3036 -0.4656 -0.1881
  846MOL0     C14080   3.861   5.116   2.433 -1.7233  0.0208 -0.4498
  846MOL0     C14081   3.930   5.234   2.405 -0.3443 -0.6405 -0.3467
  846MOL0     C14082   3.937   5.342   2.490  0.9716  0.6157 -0.8428
  846MOL0     O14083   3.992   5.456   2.428  0.2646  0.3799 -0.4225
  846MOL0     C14084   3.948   5.585   2.473 -0.0422 -0.4518  0.4426
  846MOL0     C14085   4.027   5.680   2.378 -0.0168 -0.9445  0.4614
  846MOL0     C14086   3.964   5.815   2.376 -0.7791  0.1130 -0.1461
  846MOL0     C14087   4.052   5.920   2.306  0.4130  0.3738 -0.4956
  846MOL0     C14088   3.948   6.019   2.258 -0.5636 -0.9008  0.3183
  846MOL0     C14089   4.027   6.147   2.208  0.3151  1.2963  0.9699
  846MOL0     C14090   3.920   6.241   2.168 -0.3476  1.5298 -0.8658
  846MOL0     C14091   3.968   6.368   2.104  0.3049  0.6410 -0.0806
  846MOL0     N14092   3.867   6.449   2.035  0.2031  0.7258  0.0239
  846MOL0     C14093   3.791   6.561   2.083 -0.0233  1.2869  0.5616
  846MOL0     C14094   3.718   6.602   1.973 -0.5307 -1.4729 -0.2170
  846MOL0     C14095   3.620   6.716   1.964  0.1946 -0.5141 -0.1088
  846MOL0     C14096   3.484   6.662   2.014 -0.8001  1.0749  0.1159
  846MOL0     C14097   3.399   6.750   2.095 -0.9407 -0.0384 -0.2089
  846MOL0     C14098   3.266   6.692   2.134  0.9933 -0.7260 -0.9526
  846MOL0     O14099   3.193   6.798   2.208 -0.3861 -0.6086  0.3827
  846MOL0     C14100   3.061   6.787   2.219 -0.2215  0.7982 -0.9270
  846MOL0     C14101   2.981   6.894   2.258  0.6131 -0.8820 -0.1745
  846MOL0     C14102   2.840   6.896   2.244 -1.1517  0.0135 -0.1799
  846MOL0     C14103   2.768   7.020   2.285 -0.8330 -0.5281  0.3733
  846MOL0     C14104   2.774   6.777   2.204  0.2220  0.1176  0.9785
  846MOL0     C14105   2.627   6.752   2.187 -0.4557  0.3221 -0.1013
  846MOL0     O14106   2.594   6.653   2.099  0.0196 -0.0045  0.0468
  846MOL0     C14107   2.463   6.620   2.079 -0.2204  0.7068 -0.4156
  846MOL0     C14108   2.444   6.488   2.036  0.0541  0.1279  0.4388
  846MOL0     C14109   2.314   6.440   2.000  0.2723 -0.4366  0.4750
  846MOL0     C14110   2.205   6.522   1.990  0.3577  0.7002  0.0816
  846MOL0     O14111   2.069   6.490   1.952 -0.5955  0.0145 -0.9485
  846MOL0     C14112   2.062   6.369   1.867  0.1300  0.0473 -0.5486
  846MOL0     C14113   1.937   6.356   1.786  0.5901 -0.2023 -0.2825
  846MOL0     C14114   1.816   6.302   1.861  0.0472 -0.0059 -0.3207
  846MOL0     C14115   1.730   6.407   1.937  0.2764 -1.0261 -0.2878
  846MOL0     C14116   1.624   6.335   2.022 -0.2100 -0.5002 -0.9330
  846MOL0     C14117   1.561   6.432   2.128  0.2684 -0.0157  0.2125
  846MOL0     C14118   1.486   6.537   2.058  0.2661  0.4030 -0.4784
  846MOL0     C14119   1.372   6.488   1.971  0.2669  0.1233 -1.2688
  846MOL0    Cl14120   1.250   6.408   2.056 -0.3561 -0.2419 -0.0725
  846MOL0     C14121   2.224   6.646   2.047 -0.1725  0.4217 -0.5199
  846MOL0     C14122   2.347   6.693   2.094  0.0844 -0.9817 -0.7420
  846MOL0     O14123   2.553   6.818   2.253  0.1994 -0.3355  0.3134
  846MOL0     C14124   2.862   6.669   2.151  0.4373 -0.2185 -0.5443
  846MOL0     C14125   2.998   6.676   2.162  0.7727  0.4983  0.1139
  846MOL0     N14126   3.744   6.519   1.869 -0.5787  0.5383 -1.0099
  846MOL0     N14127   3.839   6.431   1.903  0.1695 -0.5799  0.1579
  846MOL0     C14128   3.882   5.335   2.615 -0.4629  0.9644 -0.4002
  846MOL0     C14129   3.820   5.210   2.659 -0.1274 -0.5019  1.0688
  846MOL0     C14130   3.610   4.789   2.566 -0.1086 -0.0820 -0.3080
  846MOL0     C14131   3.480   4.749   2.572 -0.0508  0.0427  1.4573
  846MOL0     C14132   3.440   4.618   2.564  0.8716 -0.1984  0.8122
  846MOL0     C14133   3.537   4.518   2.555 -0.0309  0.0285  0.1964
  846MOL0     O14134   3.488   4.386   2.553  0.1244 -0.0215  0.2055
  846MOL0     C14135   3.556   4.289   2.471 -0.4404 -0.4377 -0.1841
  846MOL0     C14136   3.487   4.288   2.336  0.4706 -0.3997  1.1577
  846MOL0     C14137   3.342   4.240   2.339  0.7227 -0.5396  0.1973
  846MOL0     C14138   3.238   4.355   2.322 -0.1206  0.2012 -0.8146
  846MOL0     C14139   3.252   4.417   2.186 -0.2154  0.3468 -0.4802
  846MOL0     C14140   3.241   4.464   2.072 -0.0541  0.2371 -0.1385
  846MOL0     C14141   3.674   4.558   2.549  0.1998  0.3389  1.0489
  846MOL0     C14142   3.710   4.692   2.572 -0.2497  0.4325 -0.6067
  846MOL0     H14143   3.856   5.029   2.367 -2.5617  0.3550 -0.8438
  846MOL0     H14144   3.980   5.247   2.310  2.1825 -0.6842  0.8976
  846MOL0     H14145   3.842   5.589   2.446  0.4625 -1.7769 -2.0005
  846MOL0     H14146   3.964   5.610   2.579  1.4282  0.1252  0.1093
  846MOL0     H14147   4.122   5.700   2.428  0.8168 -0.2222 -1.3059
  846MOL0     H14148   4.052   5.644   2.278  1.6433 -0.2636  0.5991
  846MOL0     H14149   3.868   5.804   2.324 -1.1351 -0.0175  0.5279
  846MOL0     H14150   3.946   5.848   2.479  0.6855 -3.7915  1.5462
  846MOL0     H14151   4.121   5.966   2.378 -2.2392  1.6271  1.4199
  846MOL0     H14152   4.097   5.885   2.213 -2.3285  1.1203 -2.2073
  846MOL0     H14153   3.884   5.983   2.177 -0.3443  0.0720 -0.3121
  846MOL0     H14154   3.874   6.051   2.331  1.0326 -0.0232  1.6325
  846MOL0     H14155   4.104   6.183   2.278  1.2695 -1.4008  1.4129
  846MOL0     H14156   4.082   6.121   2.117 -1.6274  1.5108 -0.3207
  846MOL0     H14157   3.867   6.193   2.084 -4.0346  1.8439  1.0969
  846MOL0     H14158   3.854   6.263   2.252 -0.1755 -0.7204 -0.0546
  846MOL0     H14159   4.047   6.333   2.037  0.1874 -1.4264  0.7848
  846MOL0     H14160   4.022   6.428   2.179 -2.8092 -0.8471  3.7111
  846MOL0     H14161   3.789   6.586   2.188  1.5777 -2.3141  1.6123
  846MOL0     H14162   3.666   6.800   2.017  1.0170  0.7770 -2.6780
  846MOL0     H14163   3.619   6.751   1.860  0.3050  0.3754  0.1821
  846MOL0     H14164   3.494   6.564   2.062  0.1397  0.3980 -1.4080
  846MOL0     H14165   3.423   6.634   1.927 -0.4635 -1.4485  0.6306
  846MOL0     H14166   3.390   6.836   2.028  1.7936 -0.7879 -1.6678
  846MOL0     H14167   3.458   6.783   2.181  2.1442 -4.6443 -0.2000
  846MOL0     H14168   3.261   6.602   2.197  0.1951 -1.1412 -1.5906
  846MOL0     H14169   3.223   6.661   2.039  0.7737  0.2966 -1.1922
  846MOL0     H14170   3.035   6.985   2.280  0.6839 -1.4217  2.1416
  846MOL0     H14171   2.697   6.993   2.363  0.6426 -0.4401  1.8139
  846MOL0     H14172   2.841   7.098   2.312  3.2606 -2.3772 -3.9629
  846MOL0     H14173   2.719   7.048   2.192  0.9969  2.2733  0.1344
  846MOL0     H14174   2.528   6.422   2.018  0.9202  2.0322 -3.6364
  846MOL0     H14175   2.319   6.333   1.980  1.9411 -0.5651  1.4212
  846MOL0     H14176   2.151   6.357   1.805  2.7601  0.4424  2.8444
  846MOL0     H14177   2.060   6.283   1.935 -0.3700  0.5534  0.0964
  846MOL0     H14178   1.913   6.444   1.726  0.1680 -1.1881 -1.6106
  846MOL0     H14179   1.958   6.280   1.711  2.5370 -0.9105  0.9060
  846MOL0     H14180   1.856   6.236   1.939  2.6645 -0.4023 -1.8710
  846MOL0     H14181   1.753   6.240   1.797 -0.5130 -0.4754  0.6588
  846MOL0     H14182   1.794   6.467   2.002 -1.8004 -0.5067  1.3729
  846MOL0     H14183   1.686   6.476   1.864  1.6418 -0.5906 -0.7443
  846MOL0     H14184   1.662   6.257   2.089  0.3802  1.1718  0.7602
  846MOL0     H14185   1.563   6.286   1.945 -1.5324 -2.3914  1.1961
  846MOL0     H14186   1.485   6.376   2.184 -2.3187  2.7791 -0.2161
  846MOL0     H14187   1.639   6.472   2.193 -0.7781  1.6650  0.4848
  846MOL0     H14188   1.541   6.606   1.993 -4.2342  2.7027 -2.2866
  846MOL0     H14189   1.440   6.605   2.130 -0.9129  0.9765 -1.7200
  846MOL0     H14190   1.395   6.414   1.893 -0.1150 -2.7684  1.1748
  846MOL0     H14191   1.339   6.573   1.911 -1.0612  0.6846  0.2029
  846MOL0     H14192   2.142   6.713   2.072 -1.4385 -1.9900  2.6097
  846MOL0     H14193   2.346   6.798   2.119 -1.6907 -0.5188 -2.5032
  846MOL0     H14194   2.826   6.575   2.110  2.6648 -2.3068  1.8390
  846MOL0     H14195   3.052   6.588   2.129 -2.0886 -1.1767 -0.4839
  846MOL0     H14196   3.885   5.426   2.675  1.2888  1.5047 -1.2451
  846MOL0     H14197   3.787   5.197   2.762  0.7478 -3.6646  1.0440
  846MOL0     H14198   3.400   4.822   2.585  0.3221  1.4396 -2.7007
  846MOL0     H14199   3.336   4.605   2.594  1.3804 -1.6516  2.0721
  846MOL0     H14200   3.661   4.309   2.447 -0.1360 -3.7001 -2.2009
  846MOL0     H14201   3.550   4.200   2.534  0.0047  0.0386  0.5552
  846MOL0     H14202   3.538   4.217   2.270 -1.7032 -1.4462  0.5105
  846MOL0     H14203   3.502   4.384   2.287  0.1270 -1.9289 -2.2001
  846MOL0     H14204   3.313   4.189   2.431  1.4242 -2.1905 -0.4685
  846MOL0     H14205   3.338   4.157   2.267  3.0422 -1.0763  0.6232
  846MOL0     H14206   3.253   4.426   2.404  0.0630  0.4081 -1.0249
  846MOL0     H14207   3.140   4.307   2.324  1.0413 -2.3672  2.5550
  846MOL0     H14208   3.226   4.501   1.972 -2.2489 -0.1141 -0.0021
  846MOL0     H14209   3.765   4.502   2.533  2.4773  4.3890 -1.8346
  846MOL0     H14210   3.813   4.726   2.571 -0.7276  2.0053  0.4176
  847MOL0     O14211   0.736   1.217   1.067  0.3917  0.0177 -0.8136
  847MOL0     C14212   0.649   1.199   1.148  0.1612 -0.3024  0.4531
  847MOL0     O14213   0.659   1.110   1.253  0.1328 -0.0179 -0.8895
  847MOL0     C14214   0.776   1.036   1.286 -0.6372 -0.0253 -0.0452
  847MOL0     C14215   0.911   1.075   1.250  0.1336  0.6805  0.0686
  847MOL0     C14216   1.017   0.992   1.294  0.5981  0.8642  0.7355
  847MOL0     C14217   0.989   0.876   1.368 -0.3291  0.4303  0.8878
  847MOL0     O14218   1.089   0.793   1.429  0.4823 -0.0242  0.8903
  847MOL0     C14219   1.224   0.807   1.395  0.7904 -0.2964  0.4506
  847MOL0     C14220   1.306   0.695   1.449 -0.1561  1.0149 -1.1666
  847MOL0     C14221   1.458   0.686   1.414  0.1024 -0.0361  1.0415
  847MOL0     C14222   1.527   0.820   1.439 -0.0005 -0.1204 -0.4177
  847MOL0     C14223   1.673   0.816   1.402 -0.0159  0.1438 -0.4089
  847MOL0     C14224   1.764   0.706   1.459 -0.3919  0.6956  0.0715
  847MOL0     C14225   1.919   0.705   1.415  0.9885  0.5387  0.2635
  847MOL0     C14226   1.944   0.668   1.264  0.7633 -0.0297 -0.3630
  847MOL0     N14227   2.085   0.648   1.241  0.2538  0.0201 -0.8426
  847MOL0     C14228   2.165   0.524   1.255  0.1986 -0.5514  0.1468
  847MOL0     C14229   2.292   0.563   1.236  0.7363  0.0043 -0.4482
  847MOL0     C14230   2.412   0.481   1.249 -0.5439  0.2111  0.4815
  847MOL0     C14231   2.420   0.409   1.115 -0.7339 -0.5114 -0.7307
  847MOL0     C14232   2.531   0.304   1.119  0.1412 -1.0409  0.3453
  847MOL0     C14233   2.549   0.228   0.995 -0.3054  0.2439 -0.2213
  847MOL0     O14234   2.663   0.153   1.018  0.6790 -0.2550  0.8004
  847MOL0     C14235   2.714   0.073   0.922 -0.7209  0.1414  0.1898
  847MOL0     C14236   2.642   0.019   0.816  0.5853 -0.8226 -0.9022
  847MOL0     C14237   2.697  -0.074   0.736 -0.4246  0.1058  0.0702
  847MOL0     C14238   2.592  -0.134   0.647 -0.4730 -0.1041 -1.1556
  847MOL0     C14239   2.835  -0.115   0.738  0.1162  0.0980  0.5933
  847MOL0     C14240   2.900  -0.212   0.635 -0.1056  0.5327  0.1497
  847MOL0     O14241   2.852  -0.209   0.504 -0.7485  0.7698 -0.2179
  847MOL0     C14242   2.928  -0.277   0.410  0.5433  0.0240 -2.2732
  847MOL0     C14243   3.015  -0.209   0.327  1.1162 -0.0074  0.3077
  847MOL0     C14244   3.090  -0.271   0.224 -0.0113  0.6813 -0.3874
  847MOL0     C14245   3.083  -0.414   0.216 -0.5678 -0.0108  0.3934
  847MOL0     O14246   3.154  -0.463   0.105 -0.5857 -0.0259 -0.6486
  847MOL0     C14247   3.094  -0.562   0.030 -0.9368  0.2722  0.4546
  847MOL0     C14248   3.180  -0.581  -0.089 -0.2421 -0.2706  0.5659
  847MOL0     C14249   3.195  -0.449  -0.171  1.2164  0.1435 -0.3157
  847MOL0     C14250   3.288  -0.461  -0.284  0.5285 -0.0645 -0.3984
  847MOL0     C14251   3.255  -0.358  -0.398  0.2532  0.1544  0.0995
  847MOL0     C14252   3.252  -0.210  -0.358  0.2135  0.1614 -0.2462
  847MOL0     C14253   3.261  -0.118  -0.482  1.2038  0.5933 -0.2393
  847MOL0     C14254   3.128  -0.062  -0.530  0.8985  0.3386  0.5953
  847MOL0    Cl14255   3.021  -0.201  -0.594 -0.7566 -0.5436 -0.1578
  847MOL0     C14256   2.997  -0.488   0.298  0.4699 -0.0939 -0.2311
  847MOL0     C14257   2.919  -0.423   0.394 -0.2604  0.0676  1.3862
  847MOL0     O14258   2.997  -0.274   0.671 -0.4695 -0.3650 -0.5546
  847MOL0     C14259   2.907  -0.059   0.848 -1.6999  0.0040 -0.4768
  847MOL0     C14260   2.850   0.039   0.941  0.4180  0.3062  0.0925
  847MOL0     N14261   2.296   0.696   1.199  0.6731  0.1360 -0.6436
  847MOL0     N14262   2.177   0.746   1.205  0.1694 -0.5410  0.2318
  847MOL0     C14263   0.857   0.847   1.415 -0.8115  0.0283 -0.4003
  847MOL0     C14264   0.758   0.927   1.374  0.2979 -0.2864 -0.3244
  847MOL0     C14265   0.542   1.288   1.144  0.7386 -0.1271  0.1967
  847MOL0     C14266   0.440   1.281   1.247 -0.9993  0.2177  0.0781
  847MOL0     C14267   0.329   1.368   1.253  0.6425  0.1142 -0.0397
  847MOL0     C14268   0.328   1.471   1.155  0.0621  0.4094 -0.5981
  847MOL0     O14269   0.228   1.561   1.175 -0.4383  0.0399 -0.4050
  847MOL0     C14270   0.277   1.695   1.191  0.0794  0.4751 -0.4656
  847MOL0     C14271   0.304   1.735   1.342 -0.7657  0.2884 -0.3646
  847MOL0     C14272   0.186   1.704   1.424  0.3616  0.3851  0.2281
  847MOL0     C14273   0.052   1.760   1.377 -0.0577  0.8921  0.1352
  847MOL0     C14274   0.043   1.907   1.352 -0.7602 -1.0007  0.0936
  847MOL0     C14275   0.038   2.028   1.330  0.9689 -0.2050  0.2055
  847MOL0     C14276   0.425   1.476   1.049  0.4526  0.5399 -0.2512
  847MOL0     C14277   0.531   1.390   1.051 -0.4221 -0.1491  0.3657
  847MOL0     H14278   0.938   1.170   1.204 -0.9956  1.5070  1.0578
  847MOL0     H14279   1.118   1.020   1.265  1.9381 -2.3384  1.8369
  847MOL0     H14280   1.240   0.832   1.290 -0.3104  1.5148  0.6774
  847MOL0     H14281   1.230   0.895   1.460 -2.9310 -0.7028  1.5949
  847MOL0     H14282   1.290   0.696   1.557  2.4952  1.7034 -0.7118
  847MOL0     H14283   1.275   0.596   1.415 -0.1472  0.5431  0.1206
  847MOL0     H14284   1.525   0.616   1.464  1.0242  0.7745  0.9799
  847MOL0     H14285   1.464   0.645   1.313  4.1634  0.4638  0.9008
  847MOL0     H14286   1.473   0.902   1.391  1.1278  0.0145 -1.4790
  847MOL0     H14287   1.504   0.828   1.546  0.0496  0.7356 -0.4645
  847MOL0     H14288   1.676   0.806   1.294  2.6024  0.7726 -0.4685
  847MOL0     H14289   1.721   0.907   1.441 -0.2025 -0.7669  2.1885
  847MOL0     H14290   1.762   0.707   1.569 -2.3946 -2.1714  0.1518
  847MOL0     H14291   1.725   0.611   1.424  0.4313  1.0796 -2.0242
  847MOL0     H14292   1.970   0.800   1.435  1.6189  0.0625  0.9604
  847MOL0     H14293   1.968   0.630   1.478 -1.3362  0.3489  1.9698
  847MOL0     H14294   1.915   0.755   1.204  0.9497  1.5094  1.6638
  847MOL0     H14295   1.880   0.585   1.234  0.1819  0.1267  0.4264
  847MOL0     H14296   2.141   0.424   1.291  1.1722 -0.6433  0.5761
  847MOL0     H14297   2.500   0.544   1.265  0.7618 -1.5857  0.7283
  847MOL0     H14298   2.403   0.411   1.332 -0.5500 -1.1514 -0.6294
  847MOL0     H14299   2.441   0.490   1.045 -1.8903  0.7972  0.3695
  847MOL0     H14300   2.321   0.367   1.094 -0.9078 -1.3410  1.4837
  847MOL0     H14301   2.505   0.243   1.206 -1.9665  1.9407  1.9750
  847MOL0     H14302   2.628   0.351   1.139 -0.9249  0.1941  3.0137
  847MOL0     H14303   2.560   0.303   0.916  2.1893  1.6877  1.3869
  847MOL0     H14304   2.461   0.165   0.977 -1.0183  1.5437 -1.4470
  847MOL0     H14305   2.538   0.048   0.805  0.8535  0.0810 -1.1034
  847MOL0     H14306   2.580  -0.069   0.560  1.6455  4.0160  1.3479
  847MOL0     H14307   2.609  -0.238   0.618 -1.9893 -0.3875 -1.1280
  847MOL0     H14308   2.494  -0.143   0.694 -0.1106  0.2855 -0.3004
  847MOL0     H14309   3.026  -0.101   0.328  0.8343  0.0316 -0.3048
  847MOL0     H14310   3.150  -0.211   0.156  1.5846  0.0051  0.3801
  847MOL0     H14311   3.098  -0.660   0.080  0.6367  0.5122  0.8471
  847MOL0     H14312   2.995  -0.540  -0.011 -0.6798 -0.5938 -0.7063
  847MOL0     H14313   3.281  -0.610  -0.060 -0.6026 -1.1062  1.0233
  847MOL0     H14314   3.145  -0.645  -0.171  0.1897  0.9464 -0.5963
  847MOL0     H14315   3.226  -0.370  -0.102 -0.0341  0.0902  0.3427
  847MOL0     H14316   3.096  -0.414  -0.202  0.1279 -2.6333 -0.1839
  847MOL0     H14317   3.390  -0.449  -0.246  0.3520  1.4446 -0.3251
  847MOL0     H14318   3.283  -0.565  -0.317 -0.9654 -1.2181  3.0302
  847MOL0     H14319   3.160  -0.391  -0.441  1.6716  0.2870 -3.4300
  847MOL0     H14320   3.317  -0.363  -0.488 -1.9642  2.8801 -1.7387
  847MOL0     H14321   3.160  -0.187  -0.303  0.1964 -3.1683  1.3726
  847MOL0     H14322   3.343  -0.192  -0.300  0.2953 -0.1120 -0.2892
  847MOL0     H14323   3.322  -0.167  -0.559 -0.3837 -1.1652 -0.4514
  847MOL0     H14324   3.304  -0.025  -0.445 -1.1310  1.1945  1.1282
  847MOL0     H14325   3.150   0.010  -0.609 -0.6299  0.5803  0.3508
  847MOL0     H14326   3.080  -0.008  -0.449 -3.2088 -1.7725 -0.1594
  847MOL0     H14327   2.980  -0.595   0.287  0.7144 -0.2413  0.6789
  847MOL0     H14328   2.847  -0.486   0.443 -1.0343  1.4019  2.0171
  847MOL0     H14329   3.007  -0.098   0.861 -0.1187  2.7780 -3.0015
  847MOL0     H14330   2.904   0.082   1.025 -1.4998  0.2729  1.4275
  847MOL0     H14331   0.840   0.760   1.478  0.0898 -0.3918 -0.7110
  847MOL0     H14332   0.656   0.913   1.410  0.2504  4.0797  1.8628
  847MOL0     H14333   0.471   1.222   1.332 -0.0435 -0.0313 -0.4362
  847MOL0     H14334   0.267   1.375   1.342 -0.8688 -0.1727 -1.0335
  847MOL0     H14335   0.364   1.717   1.128  0.1489 -0.1472 -0.5993
  847MOL0     H14336   0.207   1.763   1.142  2.3813  1.5279 -2.4719
  847MOL0     H14337   0.319   1.842   1.351  1.7267 -0.1299  1.4515
  847MOL0     H14338   0.395   1.681   1.371 -0.4250  1.1387  0.1618
  847MOL0     H14339   0.211   1.739   1.525 -2.7100 -0.4551  1.4172
  847MOL0     H14340   0.184   1.595   1.436  1.2156  0.3607  0.1455
  847MOL0     H14341  -0.012   1.733   1.461 -4.1188  3.3712 -1.8477
  847MOL0     H14342   0.018   1.714   1.284 -0.4338  3.0270 -0.8449
  847MOL0     H14343   0.048   2.128   1.292 -1.5081 -0.5445 -1.5441
  847MOL0     H14344   0.420   1.555   0.975 -2.0716 -3.0853 -4.4765
  847MOL0     H14345   0.601   1.397   0.968 -0.8943  3.4688  0.1160
  848MOL0     O14346   2.246   0.844   9.378  0.1818 -0.1980  0.8851
  848MOL0     C14347   2.255   0.729   9.342 -0.2388 -0.7224 -0.1925
  848MOL0     O14348   2.212   0.681   9.219 -0.4134  0.0624 -0.3254
  848MOL0     C14349   2.126   0.748   9.131 -1.1100 -0.6197  0.0169
  848MOL0     C14350   2.029   0.850   9.153  0.1303  0.4138 -0.4664
  848MOL0     C14351   1.954   0.896   9.044 -1.2124 -0.1553 -0.1429
  848MOL0     C14352   1.969   0.831   8.921 -0.1420 -0.6835  0.9314
  848MOL0     O14353   1.892   0.874   8.809  0.3882 -0.3118 -0.0096
  848MOL0     C14354   1.907   0.813   8.682  0.5455 -0.5395  0.5091
  848MOL0     C14355   1.851   0.894   8.562 -0.6943 -0.0435  0.1238
  848MOL0     C14356   1.702   0.879   8.532  0.7699 -0.0384  0.0580
  848MOL0     C14357   1.610   0.885   8.659  0.1116  0.0154 -0.3853
  848MOL0     C14358   1.464   0.870   8.614 -0.6345 -0.2558 -1.0468
  848MOL0     C14359   1.391   0.882   8.746 -0.6716  0.5695 -0.5393
  848MOL0     C14360   1.251   0.923   8.730 -0.8773  0.7659 -0.0386
  848MOL0     C14361   1.172   0.925   8.856 -0.0137  0.5204  0.6713
  848MOL0     N14362   1.136   0.794   8.912  0.6401 -0.4463 -0.5406
  848MOL0     C14363   1.018   0.711   8.889 -0.2410  0.0325 -0.5793
  848MOL0     C14364   1.039   0.582   8.942 -0.9314 -0.3836 -0.3569
  848MOL0     C14365   0.943   0.466   8.947 -0.2837  0.0492  0.5331
  848MOL0     C14366   0.990   0.353   8.849 -0.2661  0.7090  0.1859
  848MOL0     C14367   0.919   0.212   8.888  0.4216  0.1223  0.1305
  848MOL0     C14368   0.942   0.118   8.759  0.4897 -0.4341  0.3535
  848MOL0     O14369   0.886  -0.011   8.755 -0.1084 -0.3465  0.4101
  848MOL0     C14370   0.923  -0.090   8.649 -0.5077 -0.0014 -0.3033
  848MOL0     C14371   0.842  -0.088   8.543  0.3198 -0.4019  0.3278
  848MOL0     C14372   0.878  -0.157   8.424 -0.1649  0.9079 -0.1400
  848MOL0     C14373   0.805  -0.142   8.293  0.0042  0.3481 -0.7897
  848MOL0     C14374   0.987  -0.250   8.427  1.1089  0.2799 -0.4434
  848MOL0     C14375   1.031  -0.347   8.318  1.4175  0.1505 -0.8710
  848MOL0     O14376   1.094  -0.456   8.347 -0.5733  1.3164 -1.1032
  848MOL0     C14377   1.120  -0.538   8.249  0.2230  0.1386  0.7067
  848MOL0     C14378   1.021  -0.617   8.188  0.1305 -0.6247 -0.4266
  848MOL0     C14379   1.059  -0.713   8.097 -0.3186  1.4531  0.3445
  848MOL0     C14380   1.188  -0.743   8.060  0.2430 -0.4124  0.0048
  848MOL0     O14381   1.225  -0.833   7.971  0.7940  0.9378  0.4329
  848MOL0     C14382   1.353  -0.910   7.959  0.4538  0.8279 -0.3619
  848MOL0     C14383   1.327  -1.062   7.936  0.2266  1.4804  0.0791
  848MOL0     C14384   1.325  -1.095   7.777 -0.1891 -0.8641 -0.2942
  848MOL0     C14385   1.471  -1.111   7.728  1.0231  0.4871  0.5273
  848MOL0     C14386   1.473  -1.130   7.576  0.0375 -0.6932 -0.8409
  848MOL0     C14387   1.421  -1.259   7.527  0.1297 -1.1203  0.9697
  848MOL0     C14388   1.456  -1.293   7.383 -0.1134  0.2966 -1.0017
  848MOL0     C14389   1.607  -1.307   7.356  0.2915 -0.2711  0.1723
  848MOL0    Cl14390   1.685  -1.442   7.421 -0.0669  0.2081 -0.3622
  848MOL0     C14391   1.287  -0.657   8.123  0.1651  0.9480 -0.3489
  848MOL0     C14392   1.254  -0.547   8.206  0.4269  1.1940  0.2831
  848MOL0     O14393   1.021  -0.300   8.208 -0.3415  0.3912 -0.6384
  848MOL0     C14394   1.061  -0.251   8.545  1.3036  0.8523 -0.0826
  848MOL0     C14395   1.033  -0.174   8.659 -0.4217 -0.4329  0.3923
  848MOL0     N14396   1.165   0.581   8.997  0.0896 -0.3239  1.1265
  848MOL0     N14397   1.216   0.708   8.978  0.4005 -0.6687  0.7293
  848MOL0     C14398   2.063   0.737   8.903  0.0852  0.7016  0.1103
  848MOL0     C14399   2.139   0.702   9.005  0.5663 -0.5743 -0.2486
  848MOL0     C14400   2.325   0.628   9.438 -1.0630  0.1595  0.8102
  848MOL0     C14401   2.314   0.490   9.419  0.3312  0.4978  0.2200
  848MOL0     C14402   2.359   0.400   9.515 -0.4858  1.2845 -0.4873
  848MOL0     C14403   2.438   0.438   9.627 -1.0440 -0.2147  0.3406
  848MOL0     O14404   2.484   0.341   9.713 -0.0024 -0.0973  0.9195
  848MOL0     C14405   2.470   0.370   9.854 -0.8780  0.4055 -1.1058
  848MOL0     C14406   2.371   0.275   9.924 -0.3591 -0.6252 -0.3320
  848MOL0     C14407   2.408   0.127   9.902 -0.0696 -0.2334 -0.1115
  848MOL0     C14408   2.359   0.048  10.012  0.0460  0.3815 -0.4542
  848MOL0     C14409   2.394  -0.096   9.987  0.9270  0.7084  0.7642
  848MOL0     C14410   2.413  -0.215   9.968 -0.6010 -0.1706 -0.1422
  848MOL0     C14411   2.464   0.571   9.636 -0.3531  0.5501  0.4480
  848MOL0     C14412   2.398   0.670   9.556 -0.2350  0.1787 -0.0182
  848MOL0     H14413   2.025   0.888   9.254  1.5815 -2.3115  0.7139
  848MOL0     H14414   1.878   0.971   9.060 -0.3617  0.1894  3.0629
  848MOL0     H14415   2.013   0.806   8.660  0.1192  1.7615 -3.0780
  848MOL0     H14416   1.848   0.721   8.688 -2.7112  1.3900  0.6449
  848MOL0     H14417   1.875   0.998   8.585 -0.2580 -0.2411  0.5592
  848MOL0     H14418   1.911   0.863   8.475  0.8267 -1.5341  1.6270
  848MOL0     H14419   1.665   0.961   8.469 -2.6165 -1.9157 -0.6636
  848MOL0     H14420   1.672   0.785   8.484 -1.4889 -0.6426  2.4052
  848MOL0     H14421   1.645   0.808   8.727  2.1037  1.8444  0.7923
  848MOL0     H14422   1.629   0.979   8.711  0.6009 -0.9167  1.1708
  848MOL0     H14423   1.435   0.955   8.552 -0.2457  0.8033  0.1758
  848MOL0     H14424   1.459   0.771   8.568  2.4182 -0.4634 -1.1877
  848MOL0     H14425   1.386   0.787   8.800 -1.1942 -0.5261 -2.4277
  848MOL0     H14426   1.437   0.956   8.813  0.5778 -1.1296  0.5738
  848MOL0     H14427   1.249   1.020   8.680  1.2394  0.9829  0.2253
  848MOL0     H14428   1.205   0.844   8.669 -0.4733  0.9695 -0.6129
  848MOL0     H14429   1.071   0.964   8.837 -0.6562 -1.5487 -0.5985
  848MOL0     H14430   1.218   0.980   8.937 -2.1452  0.7776  1.7765
  848MOL0     H14431   0.930   0.737   8.832 -0.3040 -0.8134 -0.8818
  848MOL0     H14432   0.926   0.424   9.047 -2.4359 -2.7938 -0.8814
  848MOL0     H14433   0.842   0.494   8.917 -1.2350 -3.3067  0.1992
  848MOL0     H14434   1.098   0.339   8.859  0.0733  2.5482 -0.4956
  848MOL0     H14435   0.978   0.384   8.745  3.0315  1.3006 -0.1223
  848MOL0     H14436   0.813   0.230   8.902  0.2996 -0.2866 -0.2352
  848MOL0     H14437   0.955   0.164   8.980  1.0730 -3.5483 -1.8313
  848MOL0     H14438   1.049   0.102   8.747  0.3777 -0.4285 -0.7452
  848MOL0     H14439   0.902   0.190   8.687  2.4328  0.6109  0.2430
  848MOL0     H14440   0.754  -0.024   8.544  1.2442  0.9255 -0.6595
  848MOL0     H14441   0.789  -0.232   8.234  1.9635 -1.0409  0.6786
  848MOL0     H14442   0.705  -0.111   8.325 -0.2471 -2.6569  1.8261
  848MOL0     H14443   0.849  -0.068   8.226  2.0174  0.0510  0.1521
  848MOL0     H14444   0.915  -0.605   8.209 -0.5031 -3.0330 -1.8120
  848MOL0     H14445   0.986  -0.779   8.051  0.7147  0.3088  0.2842
  848MOL0     H14446   1.398  -0.872   7.867 -2.8330  0.8457 -2.1302
  848MOL0     H14447   1.409  -0.897   8.052  0.4597 -0.8749 -0.0894
  848MOL0     H14448   1.409  -1.127   7.967 -0.3874  0.6124 -0.0875
  848MOL0     H14449   1.237  -1.098   7.985  1.4650  1.9333  2.8689
  848MOL0     H14450   1.265  -1.032   7.710 -0.3684  0.3193  0.9485
  848MOL0     H14451   1.291  -1.199   7.776  0.8421 -1.2698  1.8570
  848MOL0     H14452   1.529  -1.019   7.740  0.7427  0.4461  2.4048
  848MOL0     H14453   1.533  -1.196   7.757 -0.1510 -0.0477  1.5628
  848MOL0     H14454   1.576  -1.121   7.541 -0.5998 -0.7934 -2.8734
  848MOL0     H14455   1.425  -1.047   7.523  2.0605 -0.0090 -1.6963
  848MOL0     H14456   1.452  -1.340   7.594 -1.9550 -1.0058  2.1712
  848MOL0     H14457   1.313  -1.243   7.534  0.4981  1.3236  2.0414
  848MOL0     H14458   1.423  -1.213   7.317  2.6490  1.7793 -0.6980
  848MOL0     H14459   1.407  -1.384   7.346 -0.9497  0.4392 -0.3049
  848MOL0     H14460   1.660  -1.213   7.378 -1.7453  1.7014 -2.6509
  848MOL0     H14461   1.624  -1.323   7.249  2.1372  0.6123  0.2779
  848MOL0     H14462   1.384  -0.702   8.107 -0.9373 -1.5090 -0.6632
  848MOL0     H14463   1.336  -0.484   8.238  2.6502 -1.4642  0.2103
  848MOL0     H14464   1.143  -0.322   8.554  1.4253  0.9059 -0.7124
  848MOL0     H14465   1.089  -0.172   8.752 -0.9051  2.4348  0.7246
  848MOL0     H14466   2.064   0.679   8.812  1.9122  1.4189 -0.3674
  848MOL0     H14467   2.217   0.627   8.995  1.0289  0.0503 -1.4500
  848MOL0     H14468   2.270   0.448   9.329  1.1731 -0.5539  0.2719
  848MOL0     H14469   2.348   0.293   9.504  0.4083  1.2824 -1.6247
  848MOL0     H14470   2.565   0.345   9.903 -1.8084  2.0392  1.7897
  848MOL0     H14471   2.451   0.475   9.877  1.3898  0.7002 -0.3081
  848MOL0     H14472   2.269   0.297   9.892 -0.4199  0.1051  0.3168
  848MOL0     H14473   2.381   0.293  10.032  3.8424 -0.6019 -0.5471
  848MOL0     H14474   2.517   0.119   9.899  0.0712  1.4158 -0.2269
  848MOL0     H14475   2.375   0.079   9.809  1.0489  2.5165 -2.1004
  848MOL0     H14476   2.251   0.059  10.021 -0.1596 -1.0973 -0.9388
  848MOL0     H14477   2.397   0.077  10.110 -1.9977  0.7229  0.2892
  848MOL0     H14478   2.427  -0.321   9.965 -3.6136 -0.6808 -3.7520
  848MOL0     H14479   2.540   0.601   9.707 -0.0675 -0.6035  0.6422
  848MOL0     H14480   2.407   0.776   9.580  2.0183  0.1367 -0.4662
  849MOL0     O14481   7.967   2.647   2.363 -0.3455 -0.5880  0.8561
  849MOL0     C14482   8.029   2.538   2.360  0.5773 -0.2570 -0.0435
  849MOL0     O14483   8.168   2.522   2.375 -0.5433 -0.5404  0.3575
  849MOL0     C14484   8.231   2.639   2.415  0.9167 -0.2988 -0.4557
  849MOL0     C14485   8.197   2.718   2.520  0.0622 -1.1767  0.5906
  849MOL0     C14486   8.248   2.854   2.534 -0.1641  0.0880  0.1608
  849MOL0     C14487   8.349   2.894   2.448  0.5170  0.3267 -0.8696
  849MOL0     O14488   8.403   3.019   2.461 -0.2112  0.2742  0.4242
  849MOL0     C14489   8.400   3.094   2.590 -1.1840  0.0650  0.0199
  849MOL0     C14490   8.529   3.182   2.583  0.6119 -0.2154 -0.4391
  849MOL0     C14491   8.509   3.297   2.489  0.0164  0.0253  0.3909
  849MOL0     C14492   8.597   3.414   2.518  0.0457 -0.8929  0.4305
  849MOL0     C14493   8.573   3.527   2.402 -0.7556 -0.1429 -0.4644
  849MOL0     C14494   8.452   3.621   2.421 -0.1691  0.3656  0.1497
  849MOL0     C14495   8.435   3.724   2.309  0.0200  0.6457 -0.6168
  849MOL0     C14496   8.320   3.814   2.337 -0.6180 -0.3191  0.3652
  849MOL0     N14497   8.362   3.937   2.409  0.7077  0.3012 -0.5052
  849MOL0     C14498   8.363   4.070   2.372 -0.4352  0.5844 -0.4577
  849MOL0     C14499   8.400   4.133   2.481  0.1877 -0.0303 -0.0503
  849MOL0     C14500   8.444   4.276   2.470 -0.3084 -0.2240 -0.1599
  849MOL0     C14501   8.582   4.279   2.530 -0.2942  0.1957 -1.2070
  849MOL0     C14502   8.647   4.411   2.513  0.6985  0.0333  0.3295
  849MOL0     C14503   8.615   4.521   2.621  0.0360 -0.5666  0.7624
  849MOL0     O14504   8.652   4.645   2.549  0.0378  0.1790  1.0019
  849MOL0     C14505   8.599   4.752   2.606 -0.1192  0.0747 -0.2889
  849MOL0     C14506   8.552   4.761   2.740  0.1126 -0.9863 -0.4945
  849MOL0     C14507   8.493   4.871   2.790  0.1133 -0.9593 -0.9923
  849MOL0     C14508   8.432   4.861   2.933  0.9153 -0.7312  0.1589
  849MOL0     C14509   8.469   4.976   2.699  0.9954  0.7815  1.2416
  849MOL0     C14510   8.381   5.085   2.731 -0.4916 -0.1018 -0.1536
  849MOL0     O14511   8.328   5.149   2.623 -0.6670 -0.2134  0.3748
  849MOL0     C14512   8.244   5.265   2.646 -0.3243  0.1708  0.2820
  849MOL0     C14513   8.121   5.263   2.715  0.3091 -0.2768  0.1730
  849MOL0     C14514   8.032   5.373   2.721  0.1920  0.2167  1.0458
  849MOL0     C14515   8.071   5.489   2.650 -0.6949 -0.1372  0.8748
  849MOL0     O14516   7.990   5.601   2.636 -0.9781  1.0343  0.9420
  849MOL0     C14517   7.853   5.580   2.597  0.4141 -0.4251 -0.4809
  849MOL0     C14518   7.812   5.665   2.475 -0.4260  0.3820 -0.4653
  849MOL0     C14519   7.814   5.815   2.483 -0.4610  0.4110 -0.4099
  849MOL0     C14520   7.737   5.872   2.595  0.0432 -0.0386 -0.3981
  849MOL0     C14521   7.722   6.024   2.570  0.7476  0.0980  0.0244
  849MOL0     C14522   7.630   6.092   2.681 -0.0484 -0.2681  0.5835
  849MOL0     C14523   7.667   6.240   2.693  0.1326  0.7392  1.2068
  849MOL0     C14524   7.610   6.327   2.567  0.4754  0.2258  0.0557
  849MOL0    Cl14525   7.594   6.490   2.632  0.1539 -0.2470  0.2536
  849MOL0     C14526   8.193   5.491   2.580  0.3439 -0.6431 -0.2592
  849MOL0     C14527   8.271   5.374   2.572 -0.3364 -0.6015  0.4661
  849MOL0     O14528   8.349   5.117   2.845  0.0815  1.0116 -1.3647
  849MOL0     C14529   8.517   4.974   2.562 -0.2987  0.0023 -0.0068
  849MOL0     C14530   8.581   4.863   2.520 -0.3976  0.1859  0.4002
  849MOL0     N14531   8.414   4.053   2.589 -0.4031  0.3948 -0.7528
  849MOL0     N14532   8.386   3.936   2.545  0.4905  0.8705 -0.0010
  849MOL0     C14533   8.384   2.813   2.340 -0.3933  0.2605 -0.3957
  849MOL0     C14534   8.317   2.690   2.322  0.1254 -0.4496 -0.2586
  849MOL0     C14535   7.935   2.416   2.362 -0.0951 -0.9300  0.1969
  849MOL0     C14536   7.796   2.406   2.338 -0.1240 -0.9595  0.0370
  849MOL0     C14537   7.722   2.288   2.332 -0.5548 -0.7792  0.3569
  849MOL0     C14538   7.789   2.162   2.354 -0.2257 -0.6011 -0.0501
  849MOL0     O14539   7.717   2.049   2.372  0.3853  0.4417 -0.3998
  849MOL0     C14540   7.774   1.921   2.358 -0.3699  0.5135 -0.1547
  849MOL0     C14541   7.817   1.897   2.213  0.1155  0.4520  0.7076
  849MOL0     C14542   7.713   1.818   2.129 -0.4709 -0.7915 -0.4215
  849MOL0     C14543   7.580   1.888   2.097 -0.1468 -0.0608 -0.2584
  849MOL0     C14544   7.495   1.777   2.045  0.2422  0.1631  0.3298
  849MOL0     C14545   7.425   1.689   2.009 -0.1364 -0.4102  0.6158
  849MOL0     C14546   7.929   2.166   2.363 -0.3911  0.2150 -0.7158
  849MOL0     C14547   7.996   2.293   2.376 -0.0430 -0.0855 -0.1150
  849MOL0     H14548   8.118   2.684   2.586 -0.6250  0.2304  0.5347
  849MOL0     H14549   8.215   2.912   2.620 -0.3978 -2.1609  1.6868
  849MOL0     H14550   8.311   3.157   2.593 -1.1943  0.0656 -0.3378
  849MOL0     H14551   8.397   3.034   2.682  1.0012 -0.5099 -0.2190
  849MOL0     H14552   8.549   3.210   2.687 -3.2243  1.1875  0.0757
  849MOL0     H14553   8.613   3.125   2.541  1.7650 -0.6261  2.1947
  849MOL0     H14554   8.525   3.269   2.385 -1.8889 -1.2525  0.3962
  849MOL0     H14555   8.404   3.326   2.504 -1.2177 -2.6644 -2.0155
  849MOL0     H14556   8.558   3.446   2.615 -2.6961 -1.4965 -0.3812
  849MOL0     H14557   8.701   3.386   2.538  0.0357  0.1460  2.1248
  849MOL0     H14558   8.664   3.587   2.409 -0.1154 -1.2329  1.1551
  849MOL0     H14559   8.577   3.494   2.298  2.0016 -1.7890  0.0585
  849MOL0     H14560   8.360   3.563   2.431  0.7109 -1.3605 -1.1110
  849MOL0     H14561   8.465   3.681   2.511  0.9269  0.2700  0.0754
  849MOL0     H14562   8.534   3.769   2.304  1.3037 -2.0665 -1.7217
  849MOL0     H14563   8.416   3.672   2.215 -0.9215  0.6071 -0.4154
  849MOL0     H14564   8.244   3.759   2.393 -0.1702  0.0936  1.3988
  849MOL0     H14565   8.268   3.833   2.242 -0.2014 -2.1170 -0.2557
  849MOL0     H14566   8.360   4.104   2.268 -0.2450 -0.0783 -0.6850
  849MOL0     H14567   8.443   4.306   2.364 -0.3685  1.9388  0.4113
  849MOL0     H14568   8.374   4.327   2.536 -0.2492 -3.4143  2.6602
  849MOL0     H14569   8.648   4.207   2.482  0.8370  0.1010  0.4134
  849MOL0     H14570   8.572   4.255   2.637 -0.6678  0.7696 -1.1097
  849MOL0     H14571   8.625   4.455   2.415 -2.1230  1.4749  1.4871
  849MOL0     H14572   8.754   4.390   2.515  1.3456  2.9169  1.7773
  849MOL0     H14573   8.674   4.508   2.712  0.3687 -0.4049  0.5700
  849MOL0     H14574   8.507   4.531   2.640 -0.2748  3.8410 -2.0508
  849MOL0     H14575   8.562   4.678   2.809 -0.8325 -0.4909  0.2576
  849MOL0     H14576   8.453   4.956   2.983  1.0977 -1.0256  0.6493
  849MOL0     H14577   8.324   4.843   2.930  0.8316 -0.1015 -1.4281
  849MOL0     H14578   8.488   4.780   2.982  2.9704  0.8143  0.4716
  849MOL0     H14579   8.088   5.172   2.764  1.1502 -1.9109 -2.1280
  849MOL0     H14580   7.934   5.363   2.768 -0.9181  2.3857 -0.6131
  849MOL0     H14581   7.826   5.477   2.574 -0.3351 -0.8683  1.9972
  849MOL0     H14582   7.795   5.611   2.685 -1.2983  1.3517 -2.1456
  849MOL0     H14583   7.886   5.649   2.396 -0.3151  0.6319 -0.4110
  849MOL0     H14584   7.713   5.631   2.445 -1.5140  0.1306  2.9666
  849MOL0     H14585   7.779   5.845   2.384 -2.7446 -0.2718  0.1335
  849MOL0     H14586   7.914   5.859   2.487 -1.7596  3.8201 -2.0750
  849MOL0     H14587   7.641   5.822   2.609  0.7534 -2.3411 -2.7926
  849MOL0     H14588   7.794   5.864   2.688  0.6049 -2.6113 -0.8731
  849MOL0     H14589   7.670   6.036   2.474  0.7205  0.7250  0.1131
  849MOL0     H14590   7.821   6.070   2.558  1.1234 -0.5655  0.5233
  849MOL0     H14591   7.522   6.090   2.663 -0.2650 -0.6806  1.8201
  849MOL0     H14592   7.652   6.044   2.777 -0.2593 -2.1178 -0.2703
  849MOL0     H14593   7.776   6.238   2.706 -0.1068 -2.0722  4.0441
  849MOL0     H14594   7.630   6.284   2.786 -0.4898  4.5487 -0.6439
  849MOL0     H14595   7.519   6.292   2.517 -0.4228  2.5661 -0.0437
  849MOL0     H14596   7.685   6.324   2.487  0.9426 -2.0272  0.5035
  849MOL0     H14597   8.203   5.576   2.513  1.9420 -1.4087 -1.0587
  849MOL0     H14598   8.364   5.349   2.521  0.3019  0.4321  1.0881
  849MOL0     H14599   8.509   5.054   2.489  2.1550 -0.5771 -1.0332
  849MOL0     H14600   8.623   4.870   2.420 -0.2801  0.7123  0.4826
  849MOL0     H14601   8.460   2.852   2.274  1.6202 -1.1143  1.0071
  849MOL0     H14602   8.348   2.624   2.242 -0.6583 -0.7193 -0.3495
  849MOL0     H14603   7.752   2.505   2.327  1.8415  0.1847  1.6751
  849MOL0     H14604   7.616   2.290   2.312 -0.6781  3.1212  0.7055
  849MOL0     H14605   7.862   1.911   2.422 -0.3865 -2.4713 -0.4602
  849MOL0     H14606   7.696   1.848   2.381 -0.4733 -0.1867 -2.4615
  849MOL0     H14607   7.908   1.838   2.211  0.7138  1.2620  2.2589
  849MOL0     H14608   7.841   1.994   2.170 -0.5275  0.1320 -0.4353
  849MOL0     H14609   7.695   1.729   2.190  2.2580 -1.1507 -0.0010
  849MOL0     H14610   7.757   1.781   2.036  1.0474  1.1784 -0.5541
  849MOL0     H14611   7.614   1.956   2.018  1.5496  2.5502  2.5047
  849MOL0     H14612   7.545   1.944   2.184 -1.0286  0.7219 -1.0899
  849MOL0     H14613   7.345   1.626   1.976 -0.1951 -0.7647  1.3936
  849MOL0     H14614   8.001   2.085   2.367 -0.6277 -0.1472 -2.7014
  849MOL0     H14615   8.104   2.291   2.390  0.2621 -0.2268 -2.1906
  850MOL0     O14616  10.761   7.804  11.324  0.0018  0.1722  0.2436
  850MOL0     C14617  10.764   7.931  11.305 -0.2243 -0.4127 -0.6305
  850MOL0     O14618  10.691   8.013  11.221  0.0557  0.7647 -0.2777
  850MOL0     C14619  10.600   7.953  11.136 -0.5486 -0.0444 -0.3311
  850MOL0     C14620  10.483   7.904  11.181 -0.9678  0.7376 -0.9446
  850MOL0     C14621  10.382   7.858  11.096  0.0447  1.1813 -1.3359
  850MOL0     C14622  10.383   7.871  10.957 -0.3302  0.3829 -0.2495
  850MOL0     O14623  10.303   7.831  10.851 -0.2161 -0.7376 -0.4834
  850MOL0     C14624  10.188   7.751  10.877  0.0176  0.3597  0.0717
  850MOL0     C14625  10.182   7.630  10.779  0.4990  0.1898 -0.6740
  850MOL0     C14626  10.177   7.681  10.634 -0.3218  0.4034  0.3955
  850MOL0     C14627  10.177   7.569  10.521  0.2411  0.1607  0.1878
  850MOL0     C14628  10.106   7.620  10.391  1.3843 -0.2961 -0.2141
  850MOL0     C14629  10.190   7.736  10.330 -0.5315  0.2799 -0.8941
  850MOL0     C14630  10.164   7.774  10.186 -0.6262 -0.8590  0.0766
  850MOL0     C14631  10.052   7.883  10.179  0.2684 -0.0357 -0.6655
  850MOL0     N14632  10.019   7.921  10.036  0.5320  0.9415 -0.5539
  850MOL0     C14633  10.120   7.946   9.940  0.3896 -0.4303 -0.6466
  850MOL0     C14634  10.050   7.961   9.826 -0.1207  0.0626  0.2007
  850MOL0     C14635  10.118   7.967   9.693 -0.4043 -0.3510 -0.8054
  850MOL0     C14636  10.110   8.095   9.612 -0.2555  0.2302 -1.2130
  850MOL0     C14637  10.176   8.214   9.683  0.7410 -0.2429 -0.6759
  850MOL0     C14638  10.197   8.333   9.585  0.8017  0.5371  0.5435
  850MOL0     O14639  10.317   8.414   9.604  0.8733  0.7719 -0.2114
  850MOL0     C14640  10.343   8.473   9.722 -0.7732 -0.5297 -0.1481
  850MOL0     C14641  10.474   8.516   9.736 -0.6793 -0.2336  0.8231
  850MOL0     C14642  10.509   8.591   9.848 -0.0504  0.6243 -0.4256
  850MOL0     C14643  10.641   8.661   9.841  0.3184  0.1443  0.3404
  850MOL0     C14644  10.421   8.594   9.960 -1.1916 -0.7031  0.1672
  850MOL0     C14645  10.466   8.641  10.096  0.5409  0.2376 -0.1535
  850MOL0     O14646  10.361   8.660  10.199  0.5774  0.4498 -0.4123
  850MOL0     C14647  10.393   8.689  10.333 -0.3402 -0.2406 -0.4709
  850MOL0     C14648  10.343   8.606  10.437 -0.4850  0.6338 -0.5725
  850MOL0     C14649  10.352   8.639  10.572 -0.6326 -0.3851  0.3864
  850MOL0     C14650  10.407   8.758  10.608 -0.2574 -0.0928 -0.1878
  850MOL0     O14651  10.422   8.799  10.741  0.0282  0.6770  0.1007
  850MOL0     C14652  10.372   8.929  10.780  0.9603 -0.4481 -0.6978
  850MOL0     C14653  10.357   8.931  10.934  1.0292 -0.1315 -0.1389
  850MOL0     C14654  10.229   9.013  10.968 -0.0840 -0.6109 -0.8387
  850MOL0     C14655  10.187   9.005  11.119  0.5993 -0.5691 -0.5385
  850MOL0     C14656  10.044   9.062  11.137 -0.4587  0.2917 -0.7773
  850MOL0     C14657  10.022   9.217  11.099  0.4593  0.0941  0.3203
  850MOL0     C14658   9.977   9.232  10.949 -0.0944 -0.3716 -0.6290
  850MOL0     C14659   9.825   9.247  10.923 -1.0796 -0.4851 -0.2467
  850MOL0    Cl14660   9.770   9.404  10.995 -0.5489  0.0368  0.0396
  850MOL0     C14661  10.463   8.842  10.514  0.4474  0.4356  0.3477
  850MOL0     C14662  10.462   8.813  10.375 -0.7943  0.0778  0.8667
  850MOL0     O14663  10.578   8.663  10.121  0.5631 -0.7245  0.6130
  850MOL0     C14664  10.299   8.543   9.944 -0.0574  0.5882 -0.5455
  850MOL0     C14665  10.251   8.487   9.829  0.6897 -0.0538 -0.1444
  850MOL0     N14666   9.910   7.961   9.848 -0.0989 -0.8658  1.0379
  850MOL0     N14667   9.894   7.932   9.978  0.8549 -0.8519  0.7069
  850MOL0     C14668  10.511   7.912  10.914  0.2662  0.5001 -0.3751
  850MOL0     C14669  10.616   7.955  10.993 -0.4137 -0.8143 -0.8888
  850MOL0     C14670  10.868   8.002  11.381  0.4691 -0.2503  0.3999
  850MOL0     C14671  10.963   7.935  11.470 -0.0685  0.3379 -0.3196
  850MOL0     C14672  11.068   7.997  11.541 -1.2783  0.8077  0.0136
  850MOL0     C14673  11.072   8.140  11.536 -0.4177 -0.2943 -1.0499
  850MOL0     O14674  11.156   8.213  11.619 -0.0217 -0.0662  0.1716
  850MOL0     C14675  11.298   8.184  11.613  0.2755 -0.5031 -0.1697
  850MOL0     C14676  11.358   8.223  11.474 -0.5603  0.4128 -0.6175
  850MOL0     C14677  11.365   8.379  11.449  0.2595  0.8891 -0.0537
  850MOL0     C14678  11.385   8.479  11.563  0.6690 -0.8466 -0.5224
  850MOL0     C14679  11.521   8.463  11.614 -0.3527  0.0691  0.2271
  850MOL0     C14680  11.636   8.457  11.647  0.3625 -0.3149  0.4837
  850MOL0     C14681  10.982   8.205  11.452 -0.3041  0.0020 -0.0127
  850MOL0     C14682  10.889   8.135  11.373 -0.7882 -1.3138  0.2685
  850MOL0     H14683  10.471   7.899  11.288 -1.0827 -0.4387 -0.9931
  850MOL0     H14684  10.290   7.815  11.136  1.8256 -1.2460  0.4612
  850MOL0     H14685  10.193   7.713  10.980 -0.6248  1.7815  0.6558
  850MOL0     H14686  10.100   7.815  10.869  0.3475  0.6874 -1.0859
  850MOL0     H14687  10.273   7.572  10.800  0.9216  0.8492 -0.6559
  850MOL0     H14688  10.093   7.572  10.803  1.5984 -1.2658  0.0658
  850MOL0     H14689  10.079   7.725  10.614 -0.2776  0.1987 -0.3214
  850MOL0     H14690  10.252   7.760  10.623  1.5765 -0.8131  3.3899
  850MOL0     H14691  10.275   7.532  10.493  0.6799  1.1204  0.4265
  850MOL0     H14692  10.119   7.483  10.555 -2.8293  1.4718 -1.2926
  850MOL0     H14693  10.080   7.539  10.323  0.3315 -0.4849  0.3978
  850MOL0     H14694  10.007   7.662  10.412 -0.0662 -2.6728 -1.8764
  850MOL0     H14695  10.200   7.821  10.398  1.4372 -0.2217 -0.5094
  850MOL0     H14696  10.293   7.701  10.335 -0.5382  0.4586  1.4636
  850MOL0     H14697  10.255   7.820  10.147  0.6832 -0.9231  2.7770
  850MOL0     H14698  10.146   7.684  10.127  0.3845  0.2574 -2.0115
  850MOL0     H14699  10.084   7.983  10.212 -1.4011  0.9480 -1.8769
  850MOL0     H14700   9.965   7.841  10.229  1.6332 -2.5940 -0.2920
  850MOL0     H14701  10.227   7.940   9.956  0.5139 -3.2385 -1.9289
  850MOL0     H14702  10.224   7.958   9.718  0.1311  3.7546 -0.8115
  850MOL0     H14703  10.081   7.881   9.637  0.1176 -0.0745 -1.6034
  850MOL0     H14704  10.005   8.118   9.592 -0.9774 -1.9126 -0.2144
  850MOL0     H14705  10.160   8.073   9.518 -1.3184  1.4044 -2.0888
  850MOL0     H14706  10.272   8.189   9.728  1.4733  1.6247 -1.0957
  850MOL0     H14707  10.108   8.243   9.764 -2.0941  0.3777 -3.1235
  850MOL0     H14708  10.100   8.383   9.585 -0.8603 -2.4643  0.6572
  850MOL0     H14709  10.221   8.297   9.484  0.7565  3.5532 -0.6404
  850MOL0     H14710  10.536   8.496   9.649 -1.7941 -0.3285  0.0260
  850MOL0     H14711  10.625   8.760   9.885 -1.0997  0.4169 -0.6867
  850MOL0     H14712  10.723   8.618   9.898  1.2180  1.6641  0.2370
  850MOL0     H14713  10.668   8.685   9.737 -0.7311 -1.7567 -0.4334
  850MOL0     H14714  10.285   8.517  10.415 -1.9100  1.2901  0.3605
  850MOL0     H14715  10.302   8.574  10.643 -3.6077 -0.2370 -1.4361
  850MOL0     H14716  10.448   9.007  10.765  1.4009 -1.1307 -2.1710
  850MOL0     H14717  10.281   8.956  10.726 -0.4151 -1.8743  0.8093
  850MOL0     H14718  10.339   8.828  10.966  1.0064  0.3163  1.3701
  850MOL0     H14719  10.439   8.984  10.983 -0.6576  1.1043  1.4756
  850MOL0     H14720  10.150   8.968  10.907 -0.2686  0.9425 -1.7980
  850MOL0     H14721  10.237   9.118  10.939  1.2261 -0.1455  1.0592
  850MOL0     H14722  10.187   8.899  11.144  0.2394 -0.1116  1.6683
  850MOL0     H14723  10.259   9.063  11.179  1.9636  1.4211 -3.8368
  850MOL0     H14724  10.016   9.051  11.243  3.0611  0.6877  0.3331
  850MOL0     H14725   9.965   9.009  11.084 -1.1033 -1.1488  1.4589
  850MOL0     H14726   9.951   9.272  11.162 -1.5778  1.2269 -2.7336
  850MOL0     H14727  10.114   9.274  11.113 -0.3936  3.3028 -4.6801
  850MOL0     H14728   9.998   9.144  10.888 -2.1229  0.4873 -2.6962
  850MOL0     H14729  10.024   9.310  10.888 -2.9072  0.8236 -1.4099
  850MOL0     H14730   9.779   9.163  10.976 -1.9430  1.0274  1.5127
  850MOL0     H14731   9.812   9.226  10.817 -0.7953 -1.1751 -0.1530
  850MOL0     H14732  10.506   8.937  10.544  1.8204 -0.3162  0.8454
  850MOL0     H14733  10.526   8.865  10.304 -0.1852 -1.9467 -0.1293
  850MOL0     H14734  10.243   8.533  10.037  1.2139  0.8619  0.2703
  850MOL0     H14735  10.156   8.439   9.813  0.3397  0.0449  1.4556
  850MOL0     H14736  10.512   7.921  10.806 -0.4360  0.6890 -0.3728
  850MOL0     H14737  10.695   8.016  10.950 -0.3047 -0.3612 -0.0760
  850MOL0     H14738  10.955   7.827  11.476  1.5298  0.1176 -1.4292
  850MOL0     H14739  11.123   7.932  11.608 -1.4620 -1.0107 -1.4950
  850MOL0     H14740  11.347   8.227  11.701 -1.6083 -0.8679  1.1118
  850MOL0     H14741  11.316   8.076  11.621  1.3363 -0.3468 -0.2335
  850MOL0     H14742  11.334   8.162  11.387  1.9756 -2.6014  0.5899
  850MOL0     H14743  11.461   8.189  11.492 -1.1468 -0.3145  1.7290
  850MOL0     H14744  11.266   8.417  11.422  0.7088  2.2743  0.1635
  850MOL0     H14745  11.443   8.397  11.374  1.1421 -3.5596 -0.4821
  850MOL0     H14746  11.296   8.465  11.625  0.4466 -1.7768 -1.0269
  850MOL0     H14747  11.395   8.580  11.523  0.0698 -0.8253 -0.6291
  850MOL0     H14748  11.735   8.442  11.685 -0.3406 -0.0919  2.5343
  850MOL0     H14749  10.983   8.313  11.462  0.4754 -0.0686  0.8714
  850MOL0     H14750  10.829   8.199  11.309  2.9815  0.9113 -1.4172
  851MOL0     O14751   7.644   2.511   6.865  0.1372  0.0896  0.8423
  851MOL0     C14752   7.642   2.635   6.828  0.9401 -0.2053  0.1767
  851MOL0     O14753   7.617   2.737   6.902  0.5057 -0.0387 -0.7727
  851MOL0     C14754   7.557   2.699   7.031  0.2165 -0.1010 -0.0941
  851MOL0     C14755   7.631   2.656   7.145  0.0164 -0.2241 -0.4415
  851MOL0     C14756   7.570   2.651   7.273  0.1610  1.8694  0.8003
  851MOL0     C14757   7.428   2.660   7.284 -0.2937 -0.1248  0.4612
  851MOL0     O14758   7.368   2.660   7.412  0.5044  0.3438  0.2579
  851MOL0     C14759   7.416   2.553   7.500  0.5688  0.9086  0.5245
  851MOL0     C14760   7.304   2.521   7.595  0.7180 -0.1501  0.1041
  851MOL0     C14761   7.257   2.627   7.685  0.2297  0.1385  0.1803
  851MOL0     C14762   7.137   2.573   7.775  0.2777 -0.7109 -0.4686
  851MOL0     C14763   7.095   2.672   7.885 -0.4058 -0.0652  0.8124
  851MOL0     C14764   7.035   2.800   7.828 -0.2552  0.3738  0.3593
  851MOL0     C14765   6.929   2.776   7.727  0.5550 -0.5378  0.4939
  851MOL0     C14766   6.873   2.917   7.669  0.0047  0.8001 -0.9271
  851MOL0     N14767   6.729   2.924   7.638 -0.0367 -0.3457  0.0130
  851MOL0     C14768   6.675   2.849   7.535 -0.1171  0.2886 -0.7023
  851MOL0     C14769   6.539   2.864   7.557  0.5248  0.6544 -0.4621
  851MOL0     C14770   6.424   2.800   7.486  0.2956 -0.7462  0.2128
  851MOL0     C14771   6.369   2.686   7.560  0.3636 -0.1554 -0.4573
  851MOL0     C14772   6.477   2.581   7.554  0.6088  1.8425 -0.7581
  851MOL0     C14773   6.418   2.455   7.617  0.0344  0.5720  0.1731
  851MOL0     O14774   6.534   2.365   7.643  0.1324 -0.1251  0.4618
  851MOL0     C14775   6.540   2.305   7.770 -0.4294 -1.0681  0.3064
  851MOL0     C14776   6.654   2.338   7.842 -0.0572 -0.1501 -0.6627
  851MOL0     C14777   6.681   2.282   7.965  0.1481  1.5482 -0.2627
  851MOL0     C14778   6.819   2.308   8.026 -0.1180 -0.2932 -0.3557
  851MOL0     C14779   6.589   2.191   8.022  0.5058 -0.2992 -0.1285
  851MOL0     C14780   6.609   2.119   8.147  0.1509  0.4832 -0.9118
  851MOL0     O14781   6.700   2.158   8.242  0.0592 -0.1234 -0.2697
  851MOL0     C14782   6.710   2.098   8.366 -0.8718  0.3298 -0.0527
  851MOL0     C14783   6.694   2.178   8.482  0.2894 -0.1779  0.0854
  851MOL0     C14784   6.737   2.136   8.608  0.8880 -1.1677 -0.0712
  851MOL0     C14785   6.800   2.008   8.618  0.2783  1.2431 -0.2064
  851MOL0     O14786   6.850   1.973   8.739 -0.2366 -0.7996  0.8470
  851MOL0     C14787   6.953   1.865   8.741  0.4565 -0.3773 -0.1725
  851MOL0     C14788   7.018   1.859   8.871  0.6278 -0.0022 -0.6353
  851MOL0     C14789   7.095   1.985   8.894  0.4841 -0.5882 -0.4146
  851MOL0     C14790   7.165   1.982   9.032  0.4563  0.3855 -0.7299
  851MOL0     C14791   7.243   2.118   9.068  0.0310 -0.2328 -0.5298
  851MOL0     C14792   7.283   2.125   9.215 -0.1182  0.0921 -0.4947
  851MOL0     C14793   7.393   2.032   9.280  0.2726  0.1470  0.2575
  851MOL0     C14794   7.529   2.076   9.222  0.0821  0.3719 -0.2394
  851MOL0    Cl14795   7.579   2.014   9.054 -0.0289 -0.1789 -0.4590
  851MOL0     C14796   6.785   1.921   8.511 -1.0228  0.6807 -0.3575
  851MOL0     C14797   6.753   1.964   8.382 -0.1603 -0.0682 -0.2226
  851MOL0     O14798   6.546   2.017   8.164 -0.2477  0.0761  0.7119
  851MOL0     C14799   6.478   2.164   7.940  0.4855 -1.3275  0.5046
  851MOL0     C14800   6.445   2.213   7.819  0.4881 -0.2229  0.1698
  851MOL0     N14801   6.527   2.948   7.665  0.5152  0.2823  0.2229
  851MOL0     N14802   6.636   2.994   7.708 -0.0626 -0.0654  0.4961
  851MOL0     C14803   7.352   2.680   7.169 -0.0728 -0.2082 -0.4208
  851MOL0     C14804   7.414   2.701   7.050 -0.1586 -0.0590  0.3496
  851MOL0     C14805   7.717   2.658   6.702 -0.1517 -0.9409  1.1781
  851MOL0     C14806   7.772   2.558   6.626  0.1235  0.0580  0.0410
  851MOL0     C14807   7.866   2.569   6.517 -0.4157  0.0552 -0.4609
  851MOL0     C14808   7.890   2.701   6.465 -0.2411  0.1808  0.6534
  851MOL0     O14809   7.974   2.738   6.356  0.0364 -0.3944 -0.9752
  851MOL0     C14810   8.072   2.642   6.316 -0.8238 -1.0167 -0.7826
  851MOL0     C14811   8.200   2.673   6.395  0.3820 -0.4959  0.3985
  851MOL0     C14812   8.330   2.603   6.347  0.6861  0.6347  0.8646
  851MOL0     C14813   8.448   2.679   6.405 -0.7742 -0.7821  0.2782
  851MOL0     C14814   8.576   2.643   6.333 -0.1613 -0.7961 -0.3737
  851MOL0     C14815   8.678   2.620   6.270  0.4603 -0.4444  0.0203
  851MOL0     C14816   7.824   2.808   6.523  0.2021  0.3674 -0.3107
  851MOL0     C14817   7.752   2.786   6.650 -0.3346 -0.5370 -0.2188
  851MOL0     H14818   7.736   2.631   7.138 -0.0793 -0.1665 -2.5183
  851MOL0     H14819   7.623   2.637   7.366 -2.0174 -1.5678  1.7255
  851MOL0     H14820   7.454   2.467   7.444  3.4596  2.3764  0.0227
  851MOL0     H14821   7.503   2.585   7.559 -1.0769  1.2313  2.9089
  851MOL0     H14822   7.223   2.485   7.531  0.6160  0.2940 -0.0193
  851MOL0     H14823   7.337   2.444   7.665 -0.8591 -0.4686  0.5321
  851MOL0     H14824   7.339   2.651   7.754  0.2462  1.1694 -0.1812
  851MOL0     H14825   7.224   2.718   7.634 -3.0381  0.4573  2.5313
  851MOL0     H14826   7.053   2.529   7.721  0.4037 -1.2480 -0.2317
  851MOL0     H14827   7.178   2.491   7.834  2.1440  0.1508 -0.5149
  851MOL0     H14828   7.024   2.618   7.948 -0.9902 -0.4862 -0.1810
  851MOL0     H14829   7.189   2.695   7.935 -1.3677  3.0698  1.4156
  851MOL0     H14830   7.000   2.869   7.905 -1.2608  0.9660 -0.6035
  851MOL0     H14831   7.106   2.872   7.785  0.4915  0.4831  1.6904
  851MOL0     H14832   6.963   2.715   7.643  1.8317  0.6931  0.0620
  851MOL0     H14833   6.847   2.728   7.781 -1.1319  1.7311  0.1049
  851MOL0     H14834   6.920   2.936   7.572 -0.6250 -1.9328 -1.8590
  851MOL0     H14835   6.898   2.994   7.743  1.7286 -0.9516  0.3933
  851MOL0     H14836   6.729   2.801   7.454  1.1793 -0.0965  0.3582
  851MOL0     H14837   6.345   2.875   7.474 -0.9013 -2.1921 -1.5798
  851MOL0     H14838   6.451   2.764   7.386 -0.3366 -2.5583  0.6621
  851MOL0     H14839   6.281   2.640   7.514  0.7749 -0.7909 -0.6166
  851MOL0     H14840   6.337   2.714   7.661 -0.1175  1.4883 -1.0307
  851MOL0     H14841   6.572   2.595   7.607  0.6420 -3.7682  1.3262
  851MOL0     H14842   6.496   2.557   7.449 -3.0347 -3.6526 -0.5814
  851MOL0     H14843   6.334   2.412   7.563 -1.0211  4.4278 -1.5449
  851MOL0     H14844   6.380   2.488   7.714  1.1562  2.7912 -0.0860
  851MOL0     H14845   6.724   2.396   7.784 -0.0760 -2.2608 -2.9478
  851MOL0     H14846   6.886   2.368   7.964  0.8903  0.8073  1.6734
  851MOL0     H14847   6.807   2.356   8.124 -1.3211 -1.2643  0.0038
  851MOL0     H14848   6.866   2.209   8.034 -0.4160 -0.3486  0.9316
  851MOL0     H14849   6.644   2.274   8.473  2.0452  0.7638 -0.1812
  851MOL0     H14850   6.720   2.211   8.685 -1.8847 -0.2907 -1.3897
  851MOL0     H14851   6.903   1.770   8.722 -4.9603  1.5874  2.2107
  851MOL0     H14852   7.022   1.893   8.661  3.7034 -1.4520  2.0603
  851MOL0     H14853   6.957   1.841   8.960  2.4886  1.1145  0.9440
  851MOL0     H14854   7.084   1.774   8.851 -0.9508 -0.7131 -3.3679
  851MOL0     H14855   7.035   2.075   8.880  1.2839 -0.1350 -1.0363
  851MOL0     H14856   7.179   2.005   8.827 -0.7542  1.4624 -1.4339
  851MOL0     H14857   7.086   1.981   9.108  0.5987  2.7616 -0.4895
  851MOL0     H14858   7.233   1.896   9.039  1.6457  1.2263 -1.4451
  851MOL0     H14859   7.164   2.190   9.047 -1.2851 -0.7742  2.1612
  851MOL0     H14860   7.328   2.134   9.001  1.4968 -2.5055  0.6646
  851MOL0     H14861   7.308   2.229   9.237 -1.2690 -0.1155  2.2093
  851MOL0     H14862   7.186   2.109   9.263  0.3601  0.0533  0.4766
  851MOL0     H14863   7.381   1.924   9.266 -0.8701  0.3573 -0.5968
  851MOL0     H14864   7.389   2.061   9.385 -1.6313  0.7488  0.0516
  851MOL0     H14865   7.592   2.028   9.298 -0.2738  0.7148  0.2743
  851MOL0     H14866   7.547   2.183   9.229  1.8689  0.0789  0.1242
  851MOL0     H14867   6.814   1.817   8.519 -0.5205  0.9149  1.0699
  851MOL0     H14868   6.774   1.902   8.296  0.6818 -0.3647  0.1894
  851MOL0     H14869   6.397   2.095   7.961  0.1205 -1.2343 -0.5178
  851MOL0     H14870   6.360   2.182   7.759  1.7988  2.2603 -3.3148
  851MOL0     H14871   7.245   2.685   7.190  0.4553  2.0591  2.3801
  851MOL0     H14872   7.350   2.712   6.963  0.0285 -0.3348  0.1776
  851MOL0     H14873   7.758   2.455   6.657  1.5587 -0.0059  0.5479
  851MOL0     H14874   7.907   2.477   6.475 -1.0047 -0.8255  0.8259
  851MOL0     H14875   8.037   2.538   6.315 -1.0577 -0.9427 -0.4935
  851MOL0     H14876   8.093   2.649   6.209  3.0594 -1.4408 -0.1855
  851MOL0     H14877   8.181   2.637   6.497 -2.7128 -3.8914 -1.1440
  851MOL0     H14878   8.212   2.781   6.393 -2.4460 -0.1328 -1.6662
  851MOL0     H14879   8.312   2.595   6.239 -2.7801 -2.6896  1.4480
  851MOL0     H14880   8.329   2.503   6.390  2.5136  0.2400  0.0480
  851MOL0     H14881   8.466   2.641   6.506 -1.2314 -1.1513  0.2272
  851MOL0     H14882   8.427   2.787   6.406  0.4841 -0.3504 -3.4669
  851MOL0     H14883   8.776   2.617   6.228  1.0795  3.4267  0.8357
  851MOL0     H14884   7.840   2.908   6.484  1.0831  0.0444 -0.8023
  851MOL0     H14885   7.705   2.878   6.681 -0.8997 -1.5329  2.1068
  852MOL0     O14886  11.282   8.787   3.505 -0.3614  0.1005  0.2567
  852MOL0     C14887  11.293   8.890   3.451 -0.7756  0.1108  0.6352
  852MOL0     O14888  11.346   8.904   3.324  0.2546 -0.5601  0.1937
  852MOL0     C14889  11.325   8.803   3.220 -0.2188  0.0059 -0.9065
  852MOL0     C14890  11.258   8.678   3.235  0.9332 -0.6550 -0.0830
  852MOL0     C14891  11.262   8.589   3.124  0.2325 -0.6281 -0.1379
  852MOL0     C14892  11.318   8.629   3.002  0.3038  0.4128 -0.2674
  852MOL0     O14893  11.315   8.564   2.883 -0.0713  0.3603 -0.2077
  852MOL0     C14894  11.212   8.469   2.846 -0.0757  0.0601 -0.0782
  852MOL0     C14895  11.233   8.405   2.714  0.7399 -0.6887 -0.1180
  852MOL0     C14896  11.110   8.314   2.691 -0.1493  0.3637 -0.4577
  852MOL0     C14897  11.108   8.272   2.541 -0.1911 -0.3851 -0.1256
  852MOL0     C14898  11.005   8.164   2.506  0.1858 -0.3826 -0.1748
  852MOL0     C14899  10.989   8.064   2.616  0.5809 -0.4483  0.0849
  852MOL0     C14900  10.933   7.930   2.559 -0.0943  1.1571  0.1165
  852MOL0     C14901  11.042   7.839   2.492 -0.9804 -0.0189  0.1335
  852MOL0     N14902  11.151   7.818   2.577 -0.1731  0.3509 -1.0297
  852MOL0     C14903  11.149   7.788   2.714 -0.6643  1.2382  0.0849
  852MOL0     C14904  11.284   7.804   2.751  0.4386 -0.0932  0.8904
  852MOL0     C14905  11.336   7.768   2.890  0.3942 -0.0253  1.0099
  852MOL0     C14906  11.349   7.891   2.974 -0.6609 -1.0861  0.7499
  852MOL0     C14907  11.418   7.867   3.092 -0.5323  0.4142 -1.0076
  852MOL0     C14908  11.349   7.774   3.195  0.1495 -0.4558 -0.0374
  852MOL0     O14909  11.208   7.804   3.209 -0.5059  0.6565 -0.6092
  852MOL0     C14910  11.126   7.708   3.262  0.6658  0.9504  0.1558
  852MOL0     C14911  10.984   7.727   3.246 -0.8460 -0.4479  1.0168
  852MOL0     C14912  10.888   7.650   3.309  0.3022  0.9966  0.4112
  852MOL0     C14913  10.750   7.679   3.279  0.4556 -0.3751  0.1940
  852MOL0     C14914  10.922   7.553   3.406 -0.1996  0.3068 -0.3080
  852MOL0     C14915  10.832   7.457   3.484  0.3504  0.4598  0.3419
  852MOL0     O14916  10.695   7.452   3.458 -0.1911  0.3650  0.4780
  852MOL0     C14917  10.612   7.365   3.525  0.7017 -0.2040 -0.3740
  852MOL0     C14918  10.652   7.245   3.582  0.8312 -0.0157  0.6701
  852MOL0     C14919  10.551   7.161   3.642 -0.3700 -0.7331 -0.9334
  852MOL0     C14920  10.419   7.197   3.643  0.0144 -0.0787 -0.2958
  852MOL0     O14921  10.322   7.123   3.707  0.0988 -0.9794  0.3292
  852MOL0     C14922  10.299   6.986   3.670 -0.1097  0.3178 -0.8049
  852MOL0     C14923  10.268   6.907   3.793 -0.4282 -0.3684 -0.8884
  852MOL0     C14924  10.383   6.852   3.875 -0.9385 -0.4968  0.2597
  852MOL0     C14925  10.320   6.779   3.995 -0.6235  0.6213  0.1858
  852MOL0     C14926  10.426   6.732   4.096  0.7502 -0.5701  0.0292
  852MOL0     C14927  10.504   6.609   4.054  0.1781 -0.3056  0.3869
  852MOL0     C14928  10.578   6.558   4.172 -0.4485  0.0232 -0.3370
  852MOL0     C14929  10.724   6.550   4.136  0.0755  0.5390 -0.1802
  852MOL0    Cl14930  10.795   6.703   4.102  0.4163  0.0625 -0.2679
  852MOL0     C14931  10.379   7.325   3.592 -0.1633  0.6400 -0.2057
  852MOL0     C14932  10.477   7.399   3.528 -0.1177  1.2361 -0.0978
  852MOL0     O14933  10.886   7.405   3.582 -0.0845 -0.2214 -0.8882
  852MOL0     C14934  11.063   7.533   3.418  0.0440  0.8564 -0.4214
  852MOL0     C14935  11.158   7.596   3.348 -0.3395 -0.5772 -1.2708
  852MOL0     N14936  11.353   7.819   2.634  0.0708 -0.7903 -0.2728
  852MOL0     N14937  11.269   7.839   2.531  0.2814 -0.1890  0.2392
  852MOL0     C14938  11.384   8.755   2.991  0.9033 -0.2131 -0.1029
  852MOL0     C14939  11.384   8.837   3.099  0.6629 -0.2854  0.4496
  852MOL0     C14940  11.251   9.016   3.511 -0.0422  0.2776  0.2051
  852MOL0     C14941  11.264   9.136   3.442  0.4798 -0.9340 -0.2505
  852MOL0     C14942  11.238   9.254   3.506  0.8691 -0.1010  0.1564
  852MOL0     C14943  11.208   9.258   3.641  0.7321  0.4551  0.2666
  852MOL0     O14944  11.205   9.376   3.708 -0.3268  0.2835 -0.3162
  852MOL0     C14945  11.073   9.402   3.761 -0.5041 -0.2797  0.4510
  852MOL0     C14946  11.082   9.478   3.890  0.3834 -0.3556 -0.3035
  852MOL0     C14947  11.110   9.378   4.008  1.0276  0.1033 -0.2062
  852MOL0     C14948  11.128   9.428   4.156 -0.4291  0.3476 -0.2373
  852MOL0     C14949  11.022   9.524   4.200 -0.1727  0.7218 -0.1535
  852MOL0     C14950  10.932   9.589   4.239 -0.5374 -0.2709  0.4322
  852MOL0     C14951  11.188   9.136   3.714  0.0683 -1.3186 -0.5814
  852MOL0     C14952  11.209   9.013   3.647 -0.1519 -0.3600  0.7909
  852MOL0     H14953  11.207   8.655   3.328  0.2214 -0.8816 -0.5305
  852MOL0     H14954  11.227   8.486   3.127  1.2737 -0.9846  0.0533
  852MOL0     H14955  11.204   8.393   2.924  0.2735 -0.4313 -0.5132
  852MOL0     H14956  11.123   8.533   2.848  0.7520  1.2508 -0.0841
  852MOL0     H14957  11.233   8.485   2.639 -0.0029 -2.2004 -1.7913
  852MOL0     H14958  11.329   8.357   2.692  0.9952 -1.3606  2.1807
  852MOL0     H14959  11.121   8.226   2.754  0.3648  1.0357  0.4095
  852MOL0     H14960  11.018   8.363   2.724  0.2540  1.0270 -0.3027
  852MOL0     H14961  11.108   8.361   2.477  0.5690  1.7128  2.5756
  852MOL0     H14962  11.196   8.208   2.534  0.3763  0.3235  0.3388
  852MOL0     H14963  10.913   8.211   2.471  0.9688 -1.7137 -4.5533
  852MOL0     H14964  11.051   8.106   2.426 -0.2816 -1.2745  0.1837
  852MOL0     H14965  11.086   8.051   2.666 -1.3087 -3.0463  3.4682
  852MOL0     H14966  10.908   8.111   2.672 -0.1769  0.7839 -1.9482
  852MOL0     H14967  10.895   7.875   2.646  1.2633  2.2353  1.4520
  852MOL0     H14968  10.840   7.937   2.503  1.0875 -0.2823 -2.1571
  852MOL0     H14969  11.078   7.893   2.403 -0.5080 -1.2196 -0.4173
  852MOL0     H14970  11.009   7.738   2.465 -1.5831  0.4816 -1.0821
  852MOL0     H14971  11.059   7.774   2.773 -2.6105 -1.8983 -3.1767
  852MOL0     H14972  11.273   7.699   2.945  1.5464 -0.5038  1.7529
  852MOL0     H14973  11.427   7.711   2.870 -0.5247 -0.5392 -2.5132
  852MOL0     H14974  11.252   7.934   3.001 -0.6803 -0.5574 -0.1359
  852MOL0     H14975  11.394   7.970   2.913 -0.4107 -1.6138  0.2442
  852MOL0     H14976  11.430   7.966   3.137  0.7729  0.3714 -1.2070
  852MOL0     H14977  11.512   7.818   3.065 -1.1922  0.3373 -3.3622
  852MOL0     H14978  11.405   7.794   3.287 -1.4602  0.3125  0.8166
  852MOL0     H14979  11.372   7.672   3.162  1.0504  0.6508 -3.2015
  852MOL0     H14980  10.972   7.812   3.180  4.6198 -1.1012 -1.3601
  852MOL0     H14981  10.705   7.594   3.226 -0.3571  2.0373 -3.3832
  852MOL0     H14982  10.684   7.683   3.366 -1.5797 -2.1529 -1.1586
  852MOL0     H14983  10.749   7.768   3.216  1.4769 -1.8881 -2.1151
  852MOL0     H14984  10.753   7.206   3.592  0.1833 -1.2350  3.1722
  852MOL0     H14985  10.581   7.063   3.676  3.1454 -0.6114 -3.2502
  852MOL0     H14986  10.209   6.994   3.608 -2.3376  2.5805  2.3998
  852MOL0     H14987  10.370   6.936   3.604 -0.1961 -0.9097 -0.0165
  852MOL0     H14988  10.205   6.961   3.865  2.4036 -2.5145  3.5677
  852MOL0     H14989  10.210   6.819   3.764  0.6252 -0.6913 -2.0981
  852MOL0     H14990  10.435   6.936   3.921 -0.1730  0.7810 -2.7337
  852MOL0     H14991  10.448   6.784   3.820 -0.4161 -0.0947  0.3818
  852MOL0     H14992  10.241   6.836   4.046 -0.4225 -1.1040  2.6531
  852MOL0     H14993  10.272   6.694   3.946  2.6710 -0.9973 -0.5424
  852MOL0     H14994  10.367   6.713   4.186  2.2112  2.4929  1.7932
  852MOL0     H14995  10.490   6.817   4.123 -1.2788  0.6613  1.2741
  852MOL0     H14996  10.449   6.534   3.996  2.1017 -1.3677 -0.1486
  852MOL0     H14997  10.571   6.656   3.981 -1.5267 -2.9440 -3.2123
  852MOL0     H14998  10.562   6.457   4.211 -2.0686  0.9695  1.6650
  852MOL0     H14999  10.574   6.616   4.265 -2.0709 -0.0189 -0.3505
  852MOL0     H15000  10.732   6.475   4.057 -2.7981 -2.3466  2.0236
  852MOL0     H15001  10.777   6.507   4.222 -1.0891  1.9083  1.2786
  852MOL0     H15002  10.274   7.354   3.596 -1.1108 -2.1335 -2.1757
  852MOL0     H15003  10.444   7.492   3.481 -1.1337  1.2783  0.6749
  852MOL0     H15004  11.091   7.461   3.494 -1.2617 -2.8734 -3.1901
  852MOL0     H15005  11.264   7.577   3.364 -0.5806 -0.6905  0.3720
  852MOL0     H15006  11.426   8.782   2.895 -0.4546 -1.6233 -1.1517
  852MOL0     H15007  11.433   8.930   3.073  1.7380 -1.5240 -2.3558
  852MOL0     H15008  11.283   9.150   3.336 -1.0929 -1.3114 -0.6136
  852MOL0     H15009  11.244   9.346   3.449  2.5386 -0.5454 -0.4543
  852MOL0     H15010  11.029   9.473   3.690  2.2620  2.8398  1.6486
  852MOL0     H15011  11.011   9.316   3.790 -0.8832 -0.5313 -1.0105
  852MOL0     H15012  10.990   9.535   3.902  0.0901 -0.4961 -1.7530
  852MOL0     H15013  11.162   9.552   3.878 -1.7762  1.7206 -3.9408
  852MOL0     H15014  11.194   9.318   3.973 -0.4710  0.0625 -4.2816
  852MOL0     H15015  11.024   9.311   4.006  0.7130  0.5039 -1.7632
  852MOL0     H15016  11.227   9.474   4.155  0.3303 -1.2078 -0.8421
  852MOL0     H15017  11.132   9.346   4.229  0.1545 -0.7262 -1.4318
  852MOL0     H15018  10.847   9.644   4.274 -2.0990 -1.0342 -1.8751
  852MOL0     H15019  11.173   9.143   3.821  5.0511 -1.2329  0.3551
  852MOL0     H15020  11.197   8.925   3.710 -0.6956 -1.4732 -0.7937
  853MOL0     O15021   1.477   9.363  10.219  0.0419 -0.1277  0.0729
  853MOL0     C15022   1.498   9.480  10.184  0.9881 -0.3565  1.0623
  853MOL0     O15023   1.478   9.584  10.257 -0.1492 -0.1326 -0.4587
  853MOL0     C15024   1.407   9.564  10.375  0.3148  0.9110  0.6828
  853MOL0     C15025   1.451   9.483  10.475 -0.4135 -0.0915 -0.0515
  853MOL0     C15026   1.375   9.478  10.592 -0.5758 -0.4809  0.0839
  853MOL0     C15027   1.264   9.557  10.613  0.4110 -0.3087  0.3703
  853MOL0     O15028   1.204   9.540  10.737 -0.5092 -0.2781 -0.1406
  853MOL0     C15029   1.098   9.626  10.759  0.7030 -0.2960  0.4025
  853MOL0     C15030   1.066   9.629  10.910 -0.8830 -0.2487  0.5665
  853MOL0     C15031   0.927   9.675  10.943 -0.0340 -0.4167  0.5132
  853MOL0     C15032   0.816   9.584  10.892  0.1091  0.3699  0.2935
  853MOL0     C15033   0.823   9.434  10.912 -1.2795  0.5657 -1.2242
  853MOL0     C15034   0.774   9.409  11.063 -0.3996  0.6872  0.4000
  853MOL0     C15035   0.759   9.256  11.095  1.2545 -0.2902  0.1631
  853MOL0     C15036   0.755   9.229  11.244  0.1394  0.4368  0.4555
  853MOL0     N15037   0.628   9.256  11.318 -0.8977  0.6281  0.1951
  853MOL0     C15038   0.594   9.373  11.384  0.2894 -1.0248 -0.6747
  853MOL0     C15039   0.480   9.341  11.457 -0.2661 -0.3634 -0.1468
  853MOL0     C15040   0.409   9.450  11.529  0.5188  0.3580  0.6407
  853MOL0     C15041   0.257   9.448  11.474  1.0017 -0.1493  0.4359
  853MOL0     C15042   0.237   9.500  11.329 -0.6592 -0.4192  0.0846
  853MOL0     C15043   0.304   9.623  11.282  0.9641  0.3987 -0.3210
  853MOL0     O15044   0.429   9.588  11.233 -0.1677  0.4289  0.1191
  853MOL0     C15045   0.436   9.570  11.097  1.3830 -0.2607  0.2095
  853MOL0     C15046   0.465   9.679  11.023  0.2922 -0.1856 -0.8425
  853MOL0     C15047   0.482   9.662  10.887 -0.1567 -0.8194  0.5164
  853MOL0     C15048   0.522   9.791  10.810 -0.6145 -0.1542  0.0084
  853MOL0     C15049   0.477   9.535  10.825 -0.3149 -0.1455 -0.2246
  853MOL0     C15050   0.477   9.516  10.681 -0.2746  0.3917  0.2398
  853MOL0     O15051   0.599   9.540  10.611 -0.0182 -0.4806 -0.0420
  853MOL0     C15052   0.623   9.521  10.481  0.6332 -0.7389  0.3604
  853MOL0     C15053   0.540   9.447  10.397 -0.4555  0.8140  0.5200
  853MOL0     C15054   0.557   9.433  10.263  0.3702  0.0014 -0.5875
  853MOL0     C15055   0.661   9.503  10.207 -0.1557  0.1226 -1.5072
  853MOL0     O15056   0.679   9.479  10.076 -0.5432  0.1487 -0.0134
  853MOL0     C15057   0.781   9.527   9.999 -0.6788  0.3997  0.3360
  853MOL0     C15058   0.744   9.469   9.863 -0.3089 -0.2041 -0.2024
  853MOL0     C15059   0.842   9.512   9.753  0.5424 -0.2215 -0.3594
  853MOL0     C15060   0.842   9.416   9.639 -0.2892 -1.0135 -0.7676
  853MOL0     C15061   0.958   9.455   9.540  0.2555  0.1155 -0.4349
  853MOL0     C15062   0.945   9.388   9.401 -0.4428 -0.5194  0.5876
  853MOL0     C15063   1.082   9.426   9.327 -0.2049 -0.5535 -0.5537
  853MOL0     C15064   1.070   9.389   9.179 -0.4222 -0.1690 -0.5728
  853MOL0    Cl15065   1.230   9.429   9.083  0.0561 -0.0472  0.0890
  853MOL0     C15066   0.745   9.587  10.283  0.0189  0.1215 -1.6445
  853MOL0     C15067   0.717   9.606  10.422 -0.3442 -0.9182  0.4325
  853MOL0     O15068   0.373   9.480  10.632  0.0615  0.1597 -0.4450
  853MOL0     C15069   0.429   9.435  10.891  0.3314  0.6204 -0.6533
  853MOL0     C15070   0.409   9.445  11.029 -0.1404  0.1808 -1.1012
  853MOL0     N15071   0.458   9.210  11.434 -0.5777 -0.5831  0.0063
  853MOL0     N15072   0.551   9.153  11.365 -0.0325  0.9759 -0.3897
  853MOL0     C15073   1.220   9.638  10.510 -0.4827 -0.1339  0.1365
  853MOL0     C15074   1.290   9.640  10.390 -0.1067  0.3690 -0.6129
  853MOL0     C15075   1.556   9.500  10.053  0.1367 -0.3412 -0.0406
  853MOL0     C15076   1.595   9.395   9.973  0.3835 -0.2923  0.0789
  853MOL0     C15077   1.665   9.412   9.852  0.2704  0.0620  0.0355
  853MOL0     C15078   1.690   9.536   9.798  0.0079  0.1872  0.4138
  853MOL0     O15079   1.733   9.548   9.667  0.6585  0.0896  0.3992
  853MOL0     C15080   1.765   9.681   9.617  1.6174 -0.6037 -0.5404
  853MOL0     C15081   1.825   9.689   9.480  0.6527 -0.3976 -0.0565
  853MOL0     C15082   1.969   9.607   9.485 -0.2668  0.0686 -0.4965
  853MOL0     C15083   2.058   9.641   9.368  0.0346 -0.7988 -0.5132
  853MOL0     C15084   2.064   9.551   9.248  0.1581  0.2652  0.1479
  853MOL0     C15085   2.090   9.475   9.151 -0.3688 -1.1233  0.3958
  853MOL0     C15086   1.651   9.638   9.876 -0.0153  1.0636  0.5730
  853MOL0     C15087   1.577   9.626   9.995  0.1968 -0.0065  1.4108
  853MOL0     H15088   1.545   9.428  10.469 -1.7230 -2.4477 -0.3486
  853MOL0     H15089   1.400   9.428  10.685  0.9184  1.3119  0.7080
  853MOL0     H15090   1.119   9.729  10.726  0.7114 -1.2987 -3.1539
  853MOL0     H15091   1.009   9.596  10.703 -0.7551  0.4374  2.2353
  853MOL0     H15092   1.067   9.527  10.948  2.3922 -1.1022 -1.3884
  853MOL0     H15093   1.142   9.687  10.964  0.8014  0.4088 -2.2584
  853MOL0     H15094   0.918   9.674  11.052  1.8598  1.0107  0.7415
  853MOL0     H15095   0.906   9.778  10.913 -1.2137 -0.8386 -0.1619
  853MOL0     H15096   0.730   9.609  10.954  0.0367 -0.4249  0.5145
  853MOL0     H15097   0.799   9.603  10.785 -0.0700  0.4747  0.3392
  853MOL0     H15098   0.765   9.371  10.843 -0.1743 -2.6616  0.5794
  853MOL0     H15099   0.924   9.393  10.919 -1.3018  0.7649  3.6109
  853MOL0     H15100   0.847   9.441  11.138  0.0392 -0.0058  0.2769
  853MOL0     H15101   0.682   9.464  11.086 -1.5742 -0.9005 -0.3634
  853MOL0     H15102   0.674   9.214  11.039  3.0669 -0.2605 -2.7970
  853MOL0     H15103   0.846   9.208  11.050  0.2372  0.1869 -2.5133
  853MOL0     H15104   0.839   9.289  11.280  0.2383  2.7084 -3.1308
  853MOL0     H15105   0.801   9.130  11.255  1.0135  0.3879 -2.7200
  853MOL0     H15106   0.637   9.473  11.376  1.5150 -1.1622  2.4750
  853MOL0     H15107   0.405   9.433  11.636 -0.6587  1.0334  0.7194
  853MOL0     H15108   0.453   9.547  11.502 -0.4798  0.6281 -0.0852
  853MOL0     H15109   0.202   9.513  11.543  0.3825  0.3002 -0.4464
  853MOL0     H15110   0.206   9.352  11.483 -0.3737  0.1602 -2.7733
  853MOL0     H15111   0.133   9.534  11.319 -0.7448 -0.6120  0.2928
  853MOL0     H15112   0.245   9.422  11.253  0.4078  0.0298 -0.2797
  853MOL0     H15113   0.305   9.703  11.357 -0.3183 -0.5170  0.7048
  853MOL0     H15114   0.243   9.665  11.202  0.8712  3.6484  1.2809
  853MOL0     H15115   0.487   9.778  11.063 -2.2602  1.3904 -2.9972
  853MOL0     H15116   0.630   9.796  10.801 -0.5744 -2.0346 -0.9322
  853MOL0     H15117   0.473   9.779  10.713 -0.7433  0.8873 -0.0698
  853MOL0     H15118   0.481   9.885  10.849 -3.3859  1.2105 -5.1958
  853MOL0     H15119   0.461   9.387  10.441  0.2845  1.6360  3.1585
  853MOL0     H15120   0.481   9.386  10.200 -1.1692  1.0085  0.4439
  853MOL0     H15121   0.779   9.636  10.000 -0.6973  0.4148 -0.3990
  853MOL0     H15122   0.879   9.499  10.040 -1.5366 -0.1809  2.0507
  853MOL0     H15123   0.743   9.360   9.872  4.0399 -0.6269 -1.9847
  853MOL0     H15124   0.644   9.504   9.834  0.5240  1.1216 -1.6614
  853MOL0     H15125   0.942   9.523   9.795 -0.6730  1.7159  2.3274
  853MOL0     H15126   0.818   9.610   9.711 -0.8120 -0.7700 -0.9381
  853MOL0     H15127   0.854   9.321   9.691 -4.2654 -0.8964  0.7197
  853MOL0     H15128   0.741   9.416   9.598 -0.6128  0.6689 -0.0542
  853MOL0     H15129   1.054   9.430   9.586  0.7138  0.6035 -1.1081
  853MOL0     H15130   0.956   9.565   9.535 -0.6587  0.2119  1.2209
  853MOL0     H15131   0.953   9.279   9.407  1.1834 -0.7787 -3.4944
  853MOL0     H15132   0.849   9.421   9.360 -1.5587 -2.8668  1.1308
  853MOL0     H15133   1.167   9.371   9.369  1.4119  1.8312 -0.4998
  853MOL0     H15134   1.122   9.527   9.341  1.3746 -1.3420  1.2051
  853MOL0     H15135   0.981   9.444   9.147  1.7461  2.0772 -3.3335
  853MOL0     H15136   1.064   9.280   9.177 -1.5641 -0.1847  1.3432
  853MOL0     H15137   0.832   9.636  10.239  2.5044 -1.4306  1.1679
  853MOL0     H15138   0.773   9.680  10.478 -0.6492  0.7743 -1.3779
  853MOL0     H15139   0.418   9.335  10.851 -0.3977  0.2492  0.4461
  853MOL0     H15140   0.378   9.363  11.093  1.5732 -0.7266 -1.3632
  853MOL0     H15141   1.135   9.704  10.520  0.4088  1.1898 -0.6557
  853MOL0     H15142   1.255   9.697  10.304 -0.1164  0.9447 -0.2349
  853MOL0     H15143   1.564   9.295  10.002  2.1241 -0.9889 -0.3375
  853MOL0     H15144   1.694   9.341   9.775  1.0335  2.3987 -1.9626
  853MOL0     H15145   1.671   9.737   9.608  0.8279 -1.8109  0.0583
  853MOL0     H15146   1.820   9.739   9.692  1.5725 -2.4173  0.9512
  853MOL0     H15147   1.845   9.795   9.464 -0.4942  0.1075  1.6557
  853MOL0     H15148   1.755   9.652   9.404 -1.8495 -1.6041  2.6623
  853MOL0     H15149   1.961   9.502   9.512  1.9864 -0.5309 -1.8954
  853MOL0     H15150   2.032   9.643   9.567  2.4099 -0.6346 -2.1007
  853MOL0     H15151   2.161   9.647   9.403 -0.1801 -3.4782  0.8535
  853MOL0     H15152   2.029   9.744   9.347 -1.9039 -1.0049  0.8607
  853MOL0     H15153   2.102   9.412   9.065  0.6481  2.4753 -2.4048
  853MOL0     H15154   1.656   9.738   9.836 -0.3419  1.6891  2.0592
  853MOL0     H15155   1.551   9.714  10.053 -0.2942 -0.3300  1.6823
  854MOL0     O15156   7.121   6.365   9.057 -0.4444 -0.3810 -0.8444
  854MOL0     C15157   7.102   6.257   9.118  0.8941  0.1570 -1.2968
  854MOL0     O15158   7.148   6.227   9.248  0.3820  0.4783 -0.9501
  854MOL0     C15159   7.234   6.316   9.313 -0.5929 -0.3811  0.0847
  854MOL0     C15160   7.186   6.394   9.420 -0.6166  0.3486  1.1716
  854MOL0     C15161   7.274   6.494   9.480 -0.0486  0.8449  0.3356
  854MOL0     C15162   7.409   6.491   9.454  0.0409 -0.3790  0.3132
  854MOL0     O15163   7.492   6.571   9.529 -0.1876  0.4631  0.7315
  854MOL0     C15164   7.639   6.558   9.514  1.0298  0.3016 -0.1189
  854MOL0     C15165   7.711   6.647   9.606 -0.4660 -1.2765 -0.3114
  854MOL0     C15166   7.859   6.640   9.625 -0.1893 -0.3555 -1.0181
  854MOL0     C15167   7.910   6.752   9.726 -0.8338  0.1825  0.0539
  854MOL0     C15168   8.062   6.738   9.780  0.9956  1.0524  0.6716
  854MOL0     C15169   8.132   6.873   9.795 -0.4570 -0.1924 -0.5254
  854MOL0     C15170   8.269   6.853   9.868  0.5955  0.0490 -0.0444
  854MOL0     C15171   8.321   6.994   9.911  0.8302 -0.1013 -0.1457
  854MOL0     N15172   8.450   6.974   9.973 -0.5495  0.6364 -0.1445
  854MOL0     C15173   8.470   6.927  10.101 -0.5487 -1.5026 -0.3025
  854MOL0     C15174   8.600   6.923  10.117  0.0743  0.6467  0.7746
  854MOL0     C15175   8.670   6.893  10.245 -0.5745 -1.0107 -0.1914
  854MOL0     C15176   8.707   7.016  10.326  0.0105  0.8728  0.1948
  854MOL0     C15177   8.856   7.069  10.299  0.4778 -0.6388 -0.1935
  854MOL0     C15178   8.868   7.183  10.391 -0.5136  0.0971  0.4514
  854MOL0     O15179   8.896   7.125  10.517 -0.2133  0.2688  0.6992
  854MOL0     C15180   8.960   7.212  10.604  0.0443 -0.0645  0.5285
  854MOL0     C15181   8.913   7.345  10.618  0.5188 -0.2195 -0.2361
  854MOL0     C15182   8.992   7.438  10.677 -0.1306  0.6338 -0.2314
  854MOL0     C15183   8.939   7.583  10.672 -0.3024 -0.4475 -0.8546
  854MOL0     C15184   9.116   7.405  10.737 -0.7448  0.0933 -0.0019
  854MOL0     C15185   9.208   7.499  10.815  0.0417 -0.5699  0.0762
  854MOL0     O15186   9.319   7.440  10.887  0.2799 -0.0369 -0.3173
  854MOL0     C15187   9.381   7.497  10.997 -0.3116 -0.2241  0.7014
  854MOL0     C15188   9.504   7.448  11.032 -0.1403 -0.3028  0.4826
  854MOL0     C15189   9.569   7.495  11.148 -0.4907  2.3682  0.5574
  854MOL0     C15190   9.506   7.575  11.250 -0.6456  0.9842  0.2645
  854MOL0     O15191   9.589   7.619  11.356 -0.1458 -0.2333 -0.1914
  854MOL0     C15192   9.530   7.715  11.447 -0.0659 -0.0109  0.2766
  854MOL0     C15193   9.642   7.764  11.543  0.9672  0.1555 -0.2949
  854MOL0     C15194   9.609   7.817  11.687 -0.8755  0.5519  0.1514
  854MOL0     C15195   9.586   7.697  11.785  0.2779 -0.2841  0.3279
  854MOL0     C15196   9.590   7.740  11.932 -0.3240 -0.6993 -0.2511
  854MOL0     C15197   9.527   7.654  12.037  0.5335  0.3751  0.4034
  854MOL0     C15198   9.389   7.707  12.078  0.4447  1.3756 -0.1428
  854MOL0     C15199   9.295   7.737  11.964 -0.4228 -0.6643  0.5862
  854MOL0    Cl15200   9.251   7.589  11.864  0.1120 -0.1585  0.4068
  854MOL0     C15201   9.374   7.612  11.214 -0.7262  0.9831  0.6444
  854MOL0     C15202   9.312   7.572  11.095  0.6860 -0.3819  0.2911
  854MOL0     O15203   9.184   7.619  10.822  0.0201  0.3659 -0.1922
  854MOL0     C15204   9.154   7.265  10.740  0.9547 -0.3694 -1.2468
  854MOL0     C15205   9.077   7.169  10.671  0.2547 -0.2919 -0.5147
  854MOL0     N15206   8.657   6.982  10.004  0.5175 -0.5318  0.2447
  854MOL0     N15207   8.567   7.013   9.925  0.0955  0.4330  0.1401
  854MOL0     C15208   7.458   6.407   9.345  0.1388  0.1685 -0.4566
  854MOL0     C15209   7.370   6.328   9.275 -0.1543 -0.1822  0.3320
  854MOL0     C15210   7.028   6.154   9.053  0.8133  0.7567  1.1094
  854MOL0     C15211   6.951   6.175   8.934  0.3393  0.1254 -0.0794
  854MOL0     C15212   6.860   6.082   8.893  0.6057  0.0986 -0.0439
  854MOL0     C15213   6.836   5.959   8.961 -0.7912  0.2443  0.0829
  854MOL0     O15214   6.723   5.882   8.931 -0.0260 -0.2308  0.5423
  854MOL0     C15215   6.683   5.767   9.009 -0.7951  0.0150 -0.0363
  854MOL0     C15216   6.578   5.796   9.125  0.0917  0.2455 -0.1686
  854MOL0     C15217   6.452   5.869   9.075  0.1715 -0.0202  0.5609
  854MOL0     C15218   6.440   6.022   9.074  0.4017  0.5466  0.6572
  854MOL0     C15219   6.457   6.075   9.209 -0.4380 -0.1881 -1.0655
  854MOL0     C15220   6.473   6.109   9.330  0.1155  0.1081  1.1689
  854MOL0     C15221   6.923   5.931   9.065  0.2193  0.1096 -0.1848
  854MOL0     C15222   7.009   6.033   9.110 -0.6870  0.2455  0.4680
  854MOL0     H15223   7.079   6.382   9.436 -1.4064  1.7679 -2.1505
  854MOL0     H15224   7.234   6.548   9.566 -0.4098 -1.2102  1.5397
  854MOL0     H15225   7.659   6.455   9.542 -3.2872 -0.3633  1.3868
  854MOL0     H15226   7.663   6.589   9.412 -1.2747  0.4826 -0.6665
  854MOL0     H15227   7.695   6.752   9.578  0.7027 -1.6186 -2.4764
  854MOL0     H15228   7.667   6.620   9.702  3.2191  0.4768  2.1267
  854MOL0     H15229   7.871   6.539   9.666 -1.0691 -0.0666 -0.0009
  854MOL0     H15230   7.917   6.647   9.533 -0.4180 -0.4622 -1.1690
  854MOL0     H15231   7.920   6.849   9.678  0.6479 -0.0369 -0.1416
  854MOL0     H15232   7.840   6.761   9.810 -1.5354 -1.9248 -0.2405
  854MOL0     H15233   8.045   6.689   9.877 -1.2810 -2.9714 -1.4932
  854MOL0     H15234   8.124   6.674   9.716 -0.3744  2.2335 -1.9891
  854MOL0     H15235   8.146   6.916   9.695 -1.1712 -0.1846 -0.6277
  854MOL0     H15236   8.066   6.943   9.847 -1.1742 -1.4888  0.3761
  854MOL0     H15237   8.273   6.786   9.954  0.3155 -0.7483 -0.6471
  854MOL0     H15238   8.339   6.815   9.794  0.4402  0.1076 -0.2241
  854MOL0     H15239   8.261   7.053   9.981  2.5633 -0.6857  1.9245
  854MOL0     H15240   8.330   7.051   9.818  1.5725  0.3903  0.2190
  854MOL0     H15241   8.402   6.907  10.184  1.4574  0.1503  1.8602
  854MOL0     H15242   8.609   6.829  10.309  0.5054 -0.7993  1.1031
  854MOL0     H15243   8.762   6.837  10.224  1.0020  0.5443  1.9549
  854MOL0     H15244   8.700   6.999  10.434 -1.0564  0.4180  0.0625
  854MOL0     H15245   8.630   7.088  10.298 -1.3400 -0.2928  0.8048
  854MOL0     H15246   8.863   7.114  10.200  0.7861 -3.1945 -1.3913
  854MOL0     H15247   8.933   6.995  10.320 -1.6644 -2.5659  1.4182
  854MOL0     H15248   8.778   7.244  10.390 -0.1256  0.6925  0.8016
  854MOL0     H15249   8.963   7.233  10.366  0.0641 -0.3581  1.6239
  854MOL0     H15250   8.815   7.371  10.581  0.1722  0.6753  1.2296
  854MOL0     H15251   8.999   7.650  10.610 -1.1924 -0.2713 -1.5436
  854MOL0     H15252   8.835   7.585  10.638 -0.6126  1.8849  0.0540
  854MOL0     H15253   8.944   7.625  10.773  0.9848 -0.5057 -0.8732
  854MOL0     H15254   9.560   7.380  10.968  1.1808  0.4945  0.7698
  854MOL0     H15255   9.665   7.447  11.167 -1.6503 -1.7553 -2.5951
  854MOL0     H15256   9.479   7.803  11.407  0.1718  0.5103  1.0842
  854MOL0     H15257   9.460   7.659  11.510 -0.8072 -0.8547 -1.2508
  854MOL0     H15258   9.693   7.670  11.569 -3.8796 -2.1871  2.0131
  854MOL0     H15259   9.708   7.833  11.490 -0.3415  2.8656  1.3656
  854MOL0     H15260   9.524   7.886  11.689 -1.4724 -0.0753 -1.7938
  854MOL0     H15261   9.691   7.880  11.722 -1.7747  1.3908  0.8063
  854MOL0     H15262   9.485   7.659  11.769  0.4737  0.2032 -2.4965
  854MOL0     H15263   9.654   7.612  11.773 -0.3641 -1.0590  1.8555
  854MOL0     H15264   9.563   7.845  11.947 -2.0365 -1.3180  1.3628
  854MOL0     H15265   9.698   7.749  11.949 -0.4892  0.2944  0.3496
  854MOL0     H15266   9.529   7.548  12.010 -0.9384  0.0986  1.2774
  854MOL0     H15267   9.590   7.664  12.126  1.4060 -0.4175 -0.1014
  854MOL0     H15268   9.399   7.787  12.152  1.3226  0.3009  0.9389
  854MOL0     H15269   9.336   7.633  12.138  1.3172  1.2305  0.4721
  854MOL0     H15270   9.345   7.804  11.893 -0.3101 -0.4338  0.8830
  854MOL0     H15271   9.210   7.785  12.011  0.7560  1.1998  0.9036
  854MOL0     H15272   9.320   7.687  11.272 -4.6997  0.4536 -2.0069
  854MOL0     H15273   9.210   7.605  11.079  0.7951 -0.5685 -0.8167
  854MOL0     H15274   9.241   7.230  10.794 -1.4093 -1.5098  2.1641
  854MOL0     H15275   9.107   7.065  10.672 -0.5670 -0.5459  0.7697
  854MOL0     H15276   7.562   6.410   9.316  1.3560 -0.0424  3.3817
  854MOL0     H15277   7.406   6.268   9.192  2.5134 -1.7274  2.4467
  854MOL0     H15278   6.940   6.269   8.881 -0.3418  2.4139  3.8209
  854MOL0     H15279   6.796   6.110   8.810 -0.8703 -1.1050  0.6489
  854MOL0     H15280   6.632   5.692   8.948  0.6981 -0.7600 -0.3729
  854MOL0     H15281   6.768   5.710   9.047 -0.7392  2.1554  3.4794
  854MOL0     H15282   6.619   5.857   9.206  0.7768  2.4810 -2.0620
  854MOL0     H15283   6.553   5.694   9.153  1.6204 -0.5707 -1.6406
  854MOL0     H15284   6.379   5.833   9.148  1.5993 -1.7631  1.2189
  854MOL0     H15285   6.436   5.836   8.971  2.2595  2.3442 -0.6077
  854MOL0     H15286   6.338   6.046   9.041 -0.6200 -2.7605  1.0965
  854MOL0     H15287   6.511   6.063   9.001  1.7919  1.2094  2.3189
  854MOL0     H15288   6.503   6.152   9.423  1.4915  1.6971  0.0462
  854MOL0     H15289   6.913   5.843   9.128 -0.0696 -0.1873 -0.6355
  854MOL0     H15290   7.064   6.002   9.199  0.3995  1.4728  0.2663
  855MOL0     O15291   2.050   0.703   4.859 -0.0570 -0.5765  0.0677
  855MOL0     C15292   1.965   0.700   4.773  0.6286  0.2513  0.0735
  855MOL0     O15293   1.917   0.802   4.693 -0.2858 -0.8969  0.5210
  855MOL0     C15294   1.991   0.915   4.666 -0.0339  0.0090 -0.0459
  855MOL0     C15295   1.938   1.006   4.570 -0.1192 -0.4673 -0.5093
  855MOL0     C15296   1.996   1.122   4.529  0.3123 -0.2267 -0.6476
  855MOL0     C15297   2.113   1.157   4.584  0.4964 -0.1667  0.1286
  855MOL0     O15298   2.167   1.275   4.548  0.0464 -1.0131 -0.2057
  855MOL0     C15299   2.232   1.361   4.650 -0.1731 -0.0803  0.3972
  855MOL0     C15300   2.238   1.510   4.613  0.1042 -0.7261 -0.9171
  855MOL0     C15301   2.349   1.542   4.508  0.4537 -0.0019 -0.6887
  855MOL0     C15302   2.472   1.592   4.584 -0.0361 -0.3265 -0.1905
  855MOL0     C15303   2.591   1.592   4.483 -0.0949 -0.4905  0.7103
  855MOL0     C15304   2.558   1.651   4.343  0.3168  0.1781 -0.5601
  855MOL0     C15305   2.680   1.648   4.241  0.1743 -0.8554  0.3822
  855MOL0     C15306   2.634   1.713   4.111 -0.3138 -0.4436 -0.1519
  855MOL0     N15307   2.746   1.742   4.018  0.4536 -0.4357 -0.9343
  855MOL0     C15308   2.799   1.658   3.913  0.0764  0.0841  0.5784
  855MOL0     C15309   2.884   1.739   3.840  0.4811  0.3400 -0.5581
  855MOL0     C15310   2.938   1.706   3.709  0.4303  0.3074 -0.5242
  855MOL0     C15311   3.022   1.811   3.644  0.1276  0.3631 -0.9497
  855MOL0     C15312   2.943   1.932   3.599  0.2605  0.0052 -0.1018
  855MOL0     C15313   3.034   2.046   3.553  0.6222  0.7047  0.0172
  855MOL0     O15314   3.103   2.105   3.667 -0.0566 -0.2452 -0.0536
  855MOL0     C15315   3.184   2.215   3.654  0.6822  0.0863  0.0020
  855MOL0     C15316   3.231   2.269   3.778  0.8245 -0.3499 -0.0874
  855MOL0     C15317   3.311   2.389   3.776  0.5780  0.7723 -0.8100
  855MOL0     C15318   3.324   2.453   3.913 -1.1968 -0.0440 -0.5419
  855MOL0     C15319   3.352   2.441   3.658 -0.0672 -0.1153 -0.0416
  855MOL0     C15320   3.433   2.564   3.654  0.1979  0.0383  0.0476
  855MOL0     O15321   3.566   2.555   3.692  0.5691 -0.3942  0.3188
  855MOL0     C15322   3.642   2.660   3.721 -0.2175 -0.2921 -0.1424
  855MOL0     C15323   3.647   2.785   3.662 -0.2707  0.0174 -0.0845
  855MOL0     C15324   3.757   2.876   3.681  0.4233  0.4401 -0.1469
  855MOL0     C15325   3.859   2.841   3.775  0.2764  0.1794  0.3826
  855MOL0     O15326   3.956   2.933   3.802  0.0879 -0.4522 -0.1395
  855MOL0     C15327   4.074   2.898   3.889  0.9561 -0.0252  0.0773
  855MOL0     C15328   4.165   3.023   3.913  0.7526 -0.0060  0.1155
  855MOL0     C15329   4.231   3.065   3.789  0.3997  0.3072  1.4568
  855MOL0     C15330   4.323   3.197   3.812  0.7171  0.7513 -0.8039
  855MOL0     C15331   4.472   3.165   3.764 -1.1498  0.6945  0.1247
  855MOL0     C15332   4.573   3.273   3.804 -0.3466 -0.1492  0.3889
  855MOL0     C15333   4.586   3.280   3.952 -0.4624 -0.1095 -0.7038
  855MOL0     C15334   4.704   3.368   3.996  1.1891  0.6482  0.0710
  855MOL0    Cl15335   4.725   3.337   4.164  0.2852 -0.1356 -0.1545
  855MOL0     C15336   3.838   2.734   3.863  0.0528 -0.2249 -0.3448
  855MOL0     C15337   3.729   2.641   3.838 -0.2220 -0.1516 -0.9044
  855MOL0     O15338   3.376   2.672   3.628 -0.4939  0.7773  0.4619
  855MOL0     C15339   3.309   2.387   3.537 -0.9229  0.9019  0.0452
  855MOL0     C15340   3.223   2.278   3.536  0.2640 -0.3508  0.2655
  855MOL0     N15341   2.885   1.859   3.903  1.0387  0.0738  0.9115
  855MOL0     N15342   2.813   1.858   4.013 -0.0976 -0.1952  0.0775
  855MOL0     C15343   2.176   1.076   4.671  0.2073  0.7614  0.0654
  855MOL0     C15344   2.119   0.950   4.716  0.6363  1.0986  0.2237
  855MOL0     C15345   1.898   0.561   4.753  0.9403  0.3344 -0.1760
  855MOL0     C15346   1.929   0.455   4.840  0.3799  1.0411 -0.5335
  855MOL0     C15347   1.854   0.333   4.833 -0.8281 -0.8343 -0.8069
  855MOL0     C15348   1.750   0.316   4.740 -0.1428 -0.9005  0.4138
  855MOL0     O15349   1.680   0.196   4.723  0.1857 -0.5340 -0.3512
  855MOL0     C15350   1.712   0.088   4.808 -0.1607  0.1305  0.8080
  855MOL0     C15351   1.618  -0.022   4.769  0.1891 -0.6649 -1.0078
  855MOL0     C15352   1.469   0.020   4.778 -0.0962 -0.4047 -0.7161
  855MOL0     C15353   1.370  -0.096   4.748  0.2377  0.0817 -0.2502
  855MOL0     C15354   1.369  -0.190   4.860  0.3874  0.2210  0.4504
  855MOL0     C15355   1.380  -0.263   4.958 -0.6441 -0.4936  0.0530
  855MOL0     C15356   1.726   0.417   4.651  0.9617 -0.5189  1.1520
  855MOL0     C15357   1.800   0.538   4.654  0.3171 -1.4410 -0.4704
  855MOL0     H15358   1.848   0.971   4.520  0.3161 -0.6754 -1.1688
  855MOL0     H15359   1.946   1.177   4.449  0.3877 -0.2802 -0.7326
  855MOL0     H15360   2.175   1.354   4.742  0.0193 -0.2176  0.5071
  855MOL0     H15361   2.327   1.313   4.675 -0.2345 -0.4407 -0.0504
  855MOL0     H15362   2.138   1.541   4.582  0.5078  2.0400  0.2301
  855MOL0     H15363   2.267   1.565   4.703 -1.4483  1.6403 -1.7768
  855MOL0     H15364   2.367   1.448   4.456 -1.7600 -0.0358 -1.5189
  855MOL0     H15365   2.309   1.615   4.436 -0.0278 -0.5966 -1.0305
  855MOL0     H15366   2.462   1.699   4.605  4.0234 -0.1329  1.8106
  855MOL0     H15367   2.492   1.545   4.681 -0.3468  2.2549  1.2298
  855MOL0     H15368   2.684   1.641   4.514 -3.1227  5.0093  2.5644
  855MOL0     H15369   2.609   1.486   4.467  0.5136 -0.4111  0.8523
  855MOL0     H15370   2.484   1.582   4.301  1.4429 -0.0940 -2.2074
  855MOL0     H15371   2.511   1.748   4.360 -1.6523 -0.7285 -0.5714
  855MOL0     H15372   2.762   1.705   4.284  0.4481  0.1539 -1.3898
  855MOL0     H15373   2.708   1.543   4.230 -1.3446 -1.4045  1.4032
  855MOL0     H15374   2.582   1.805   4.140  3.1327  2.1723 -1.6287
  855MOL0     H15375   2.557   1.652   4.062 -0.9391  0.3375 -0.1692
  855MOL0     H15376   2.772   1.554   3.900 -0.0939  0.1399  0.4804
  855MOL0     H15377   2.997   1.615   3.726 -2.3972 -1.4534  0.5021
  855MOL0     H15378   2.858   1.684   3.639  1.7673 -0.6104 -1.8298
  855MOL0     H15379   3.086   1.781   3.561  2.3645  3.9344 -0.7322
  855MOL0     H15380   3.086   1.845   3.726 -0.0965 -0.2449 -0.5201
  855MOL0     H15381   2.882   1.975   3.679  0.4479  1.3691 -0.6495
  855MOL0     H15382   2.866   1.911   3.524 -1.1482 -2.5512  1.8944
  855MOL0     H15383   2.977   2.127   3.506  1.1394  1.4916  0.7197
  855MOL0     H15384   3.104   2.008   3.479 -0.2861 -2.9177  0.8269
  855MOL0     H15385   3.210   2.222   3.873  2.4995 -0.7579  0.1173
  855MOL0     H15386   3.337   2.375   3.989 -0.8338  2.1352  1.7988
  855MOL0     H15387   3.415   2.513   3.910  0.3359 -2.1857  0.6283
  855MOL0     H15388   3.231   2.511   3.923 -2.8872 -2.6584 -0.2350
  855MOL0     H15389   3.571   2.826   3.596 -0.1466  0.1693 -0.1352
  855MOL0     H15390   3.767   2.967   3.623  3.9484 -1.1964 -2.4880
  855MOL0     H15391   4.048   2.853   3.985 -1.7872 -1.9373 -1.4280
  855MOL0     H15392   4.140   2.827   3.838 -1.1061 -0.3997 -2.2789
  855MOL0     H15393   4.104   3.104   3.954 -0.4713 -0.9937  0.3258
  855MOL0     H15394   4.239   3.000   3.990 -1.6352 -0.4626  2.4487
  855MOL0     H15395   4.156   3.086   3.712  0.0762  1.3910  2.0399
  855MOL0     H15396   4.290   2.977   3.762 -0.0509  0.9328 -2.0618
  855MOL0     H15397   4.279   3.285   3.764 -0.9462 -0.7801 -2.2405
  855MOL0     H15398   4.324   3.214   3.920 -1.1151  0.8707 -0.7778
  855MOL0     H15399   4.494   3.155   3.657  2.9674  1.6450  0.7098
  855MOL0     H15400   4.505   3.072   3.813  1.3458  1.5206  0.1524
  855MOL0     H15401   4.673   3.247   3.768  0.0301 -0.7674  1.8040
  855MOL0     H15402   4.536   3.371   3.772 -0.2892  0.9500  3.3597
  855MOL0     H15403   4.616   3.182   3.989  2.1333  1.7393  2.6167
  855MOL0     H15404   4.495   3.313   4.002  1.5335  0.9082  2.5858
  855MOL0     H15405   4.679   3.473   3.979 -0.9081  0.5270  1.9086
  855MOL0     H15406   4.790   3.342   3.933  0.2945  2.1438 -1.8681
  855MOL0     H15407   3.909   2.719   3.945  1.8783 -0.1771 -1.8446
  855MOL0     H15408   3.722   2.557   3.905  2.9405 -0.8958 -1.3609
  855MOL0     H15409   3.334   2.435   3.443  3.6207 -1.5609 -0.2747
  855MOL0     H15410   3.201   2.241   3.437 -0.1206 -0.6400  0.4572
  855MOL0     H15411   2.276   1.104   4.703  0.4508 -1.2542  1.2091
  855MOL0     H15412   2.180   0.888   4.781  0.7301  2.8908  1.9383
  855MOL0     H15413   2.009   0.479   4.909  1.1589  2.1868 -1.7561
  855MOL0     H15414   1.880   0.264   4.913  0.5485  1.2711  0.6781
  855MOL0     H15415   1.813   0.056   4.778 -0.3841  1.4786 -1.5651
  855MOL0     H15416   1.712   0.110   4.915 -3.4316 -3.6070  1.8166
  855MOL0     H15417   1.644  -0.113   4.825  0.7304  0.3353  0.4072
  855MOL0     H15418   1.626  -0.044   4.662  1.9910  0.6426 -1.1885
  855MOL0     H15419   1.444   0.109   4.719 -0.2820  1.3995  1.8764
  855MOL0     H15420   1.451   0.052   4.881  1.1452 -0.6613 -0.4032
  855MOL0     H15421   1.406  -0.151   4.660 -1.4810 -2.4906  0.5533
  855MOL0     H15422   1.269  -0.059   4.731  0.3494  1.2251  1.3192
  855MOL0     H15423   1.375  -0.320   5.048 -0.5539 -3.6939 -1.7867
  855MOL0     H15424   1.652   0.411   4.572  0.0137 -0.3263  2.0000
  855MOL0     H15425   1.779   0.621   4.587 -1.4063  0.2919  2.0511
  856MOL0     O15426   4.868  10.422   6.664 -0.1091  0.0413  0.4283
  856MOL0     C15427   4.760  10.451   6.711 -0.1988  0.7646 -0.5433
  856MOL0     O15428   4.733  10.567   6.782 -0.1758 -0.5147  0.1700
  856MOL0     C15429   4.834  10.653   6.784 -0.2930 -0.1658 -0.3693
  856MOL0     C15430   4.842  10.765   6.703  0.3530  0.1184  0.0552
  856MOL0     C15431   4.941  10.860   6.711 -0.4979 -1.4587  0.0040
  856MOL0     C15432   5.050  10.848   6.806  0.5252  1.5212  0.6359
  856MOL0     O15433   5.159  10.922   6.814 -0.7703 -0.4180  0.9297
  856MOL0     C15434   5.180  11.031   6.727  0.1183 -0.2771 -0.2076
  856MOL0     C15435   5.305  11.092   6.771  0.9167 -0.1113 -1.2360
  856MOL0     C15436   5.278  11.194   6.886  0.0904  0.1650  0.4122
  856MOL0     C15437   5.405  11.252   6.951  0.4532 -0.0492  0.2986
  856MOL0     C15438   5.377  11.344   7.069 -0.0560  0.7877 -0.0175
  856MOL0     C15439   5.345  11.257   7.195 -0.9410  0.2318 -0.6905
  856MOL0     C15440   5.306  11.353   7.310  0.7103 -0.1312  0.3832
  856MOL0     C15441   5.241  11.278   7.429 -0.8297  0.6472  0.0774
  856MOL0     N15442   5.332  11.187   7.504 -0.6560 -0.3639 -0.3607
  856MOL0     C15443   5.449  11.230   7.568 -0.8924 -0.2703  0.4658
  856MOL0     C15444   5.510  11.115   7.602 -0.4972 -0.0839 -0.2134
  856MOL0     C15445   5.644  11.094   7.664  0.5482  0.1276 -0.3954
  856MOL0     C15446   5.676  10.946   7.671 -0.1257  1.2818 -0.8805
  856MOL0     C15447   5.624  10.879   7.798 -0.2461 -0.6901 -0.2936
  856MOL0     C15448   5.480  10.829   7.802 -1.2393 -0.9319  0.2679
  856MOL0     O15449   5.446  10.754   7.911 -0.3349 -0.9176 -0.1064
  856MOL0     C15450   5.327  10.694   7.930 -0.4974 -0.3465 -0.0077
  856MOL0     C15451   5.223  10.681   7.837 -0.1785  0.7974  0.1413
  856MOL0     C15452   5.117  10.610   7.850  1.4068 -0.3982 -0.7542
  856MOL0     C15453   5.034  10.582   7.718 -1.2213 -0.4615  0.6939
  856MOL0     C15454   5.094  10.545   7.978 -0.2326  0.3526  0.9597
  856MOL0     C15455   4.971  10.464   8.005 -0.3322  0.2726 -0.2617
  856MOL0     O15456   4.949  10.417   8.137 -0.5780  0.2878  0.0393
  856MOL0     C15457   4.862  10.312   8.159 -0.9651  0.3447  0.4336
  856MOL0     C15458   4.853  10.207   8.067  0.1476  0.6615  0.2316
  856MOL0     C15459   4.753  10.105   8.079 -0.6922 -0.2041  0.1378
  856MOL0     C15460   4.658  10.114   8.188 -0.2853  0.2601 -0.0389
  856MOL0     O15461   4.580   9.998   8.222 -0.2362 -0.1965  0.4246
  856MOL0     C15462   4.582   9.947   8.359 -0.4304  1.2708 -0.3123
  856MOL0     C15463   4.583   9.794   8.332  0.3923  0.6732 -0.2053
  856MOL0     C15464   4.589   9.712   8.463 -0.8024  0.1968  0.1827
  856MOL0     C15465   4.623   9.567   8.447 -0.0599  0.5559  0.4847
  856MOL0     C15466   4.622   9.480   8.575 -0.9772 -1.0031 -0.3421
  856MOL0     C15467   4.719   9.530   8.673 -0.6037 -1.4272 -0.0575
  856MOL0     C15468   4.756   9.422   8.770  0.5105  0.1526  0.0207
  856MOL0     C15469   4.839   9.488   8.887  0.0381 -0.0580 -0.7007
  856MOL0    Cl15470   4.874   9.368   9.017  0.6190  0.3349  0.2579
  856MOL0     C15471   4.666  10.220   8.278 -0.1810  0.0145  0.6952
  856MOL0     C15472   4.767  10.315   8.265  0.8290 -0.0479  0.5660
  856MOL0     O15473   4.895  10.437   7.908 -0.7945 -0.5984  0.5031
  856MOL0     C15474   5.195  10.553   8.077 -0.2673 -0.5128  0.4507
  856MOL0     C15475   5.312  10.629   8.052  0.0919  0.0144  0.2682
  856MOL0     N15476   5.424  11.012   7.563  0.2857  0.9189 -0.1743
  856MOL0     N15477   5.318  11.053   7.508 -0.0374  0.5566 -0.2241
  856MOL0     C15478   5.038  10.735   6.892  0.4600  0.3352  0.2825
  856MOL0     C15479   4.934  10.639   6.878 -0.0464 -0.4895 -0.8296
  856MOL0     C15480   4.656  10.343   6.700 -0.5422 -0.3253 -0.3301
  856MOL0     C15481   4.689  10.209   6.695 -0.8719 -0.5404 -1.1517
  856MOL0     C15482   4.603  10.106   6.693  0.3646  0.4513 -0.3731
  856MOL0     C15483   4.468  10.129   6.690  0.2662  0.6582  0.2061
  856MOL0     O15484   4.368  10.036   6.677  0.1606 -0.6218 -0.2470
  856MOL0     C15485   4.399   9.901   6.672 -1.3758 -0.9104 -0.4022
  856MOL0     C15486   4.412   9.869   6.527 -0.0477  0.6945  0.2411
  856MOL0     C15487   4.290   9.902   6.437  0.4848 -0.1951 -0.2629
  856MOL0     C15488   4.247   9.787   6.336 -0.2416  0.0989  0.0172
  856MOL0     C15489   4.129   9.827   6.263 -0.3340 -0.6247 -0.3418
  856MOL0     C15490   4.043   9.875   6.194  0.3911 -0.6058 -0.3055
  856MOL0     C15491   4.422  10.255   6.699  0.4661  0.3039  0.5035
  856MOL0     C15492   4.514  10.366   6.708  0.0986 -0.1700  0.0440
  856MOL0     H15493   4.754  10.791   6.644 -1.9877  1.5567  3.8397
  856MOL0     H15494   4.934  10.947   6.648 -0.7862 -1.0080  0.6405
  856MOL0     H15495   5.193  11.002   6.622 -2.1468  0.3962 -0.7192
  856MOL0     H15496   5.093  11.096   6.735 -0.8968 -1.6632  0.3828
  856MOL0     H15497   5.381  11.020   6.801 -0.9414 -0.2967  4.1066
  856MOL0     H15498   5.359  11.128   6.683  1.3443 -1.5422 -1.5789
  856MOL0     H15499   5.206  11.269   6.853 -2.2162 -2.2919 -0.4341
  856MOL0     H15500   5.217  11.145   6.962 -0.2356  2.0956  1.4778
  856MOL0     H15501   5.472  11.174   6.988 -0.0075  0.7763  3.1311
  856MOL0     H15502   5.465  11.304   6.876  3.5475 -2.5930  0.8151
  856MOL0     H15503   5.461  11.412   7.085 -0.4452  0.9304  1.6333
  856MOL0     H15504   5.290  11.408   7.050  0.3404  0.8611 -1.8033
  856MOL0     H15505   5.270  11.177   7.188 -1.3016  0.4996 -0.0026
  856MOL0     H15506   5.443  11.215   7.221 -1.4818  0.2424  1.5245
  856MOL0     H15507   5.397  11.408   7.337  3.2046 -4.0441  0.8124
  856MOL0     H15508   5.230  11.420   7.268 -0.7507 -1.3632  0.9553
  856MOL0     H15509   5.165  11.205   7.399  0.8431 -2.0106  1.9025
  856MOL0     H15510   5.191  11.349   7.496  1.9615  2.1489  0.7288
  856MOL0     H15511   5.468  11.336   7.578 -0.1987 -0.3412 -0.0399
  856MOL0     H15512   5.719  11.141   7.600 -0.7860  0.9496 -1.4231
  856MOL0     H15513   5.635  11.149   7.758 -1.7163  3.3045 -2.2670
  856MOL0     H15514   5.783  10.923   7.661 -0.3232 -1.8236  2.1351
  856MOL0     H15515   5.628  10.877   7.601 -1.3801 -1.1350  2.1257
  856MOL0     H15516   5.633  10.944   7.886 -1.0315 -1.1608  0.1495
  856MOL0     H15517   5.678  10.786   7.816 -2.6076 -1.8853  1.1378
  856MOL0     H15518   5.474  10.761   7.716  0.5110 -1.8046  0.7975
  856MOL0     H15519   5.417  10.918   7.791  1.2611  0.8963 -0.0799
  856MOL0     H15520   5.247  10.713   7.736 -0.5411 -1.2508 -0.6362
  856MOL0     H15521   5.066  10.653   7.641 -0.6122  3.0644  3.9194
  856MOL0     H15522   5.048  10.485   7.670  1.7749  0.0186  0.4098
  856MOL0     H15523   4.926  10.592   7.737 -1.3360 -2.6946  1.4359
  856MOL0     H15524   4.936  10.188   7.999  0.6445  3.3347 -0.0248
  856MOL0     H15525   4.759  10.015   8.018 -1.2252  2.0643 -3.5763
  856MOL0     H15526   4.676   9.963   8.414 -0.0949 -1.1459 -0.0835
  856MOL0     H15527   4.496   9.974   8.420 -1.3285 -0.7735 -0.5880
  856MOL0     H15528   4.495   9.775   8.271  1.8858  0.9901 -2.6101
  856MOL0     H15529   4.668   9.770   8.267 -0.0761  1.7734 -1.2620
  856MOL0     H15530   4.503   9.718   8.531  0.4554  2.2680  1.6886
  856MOL0     H15531   4.673   9.767   8.505 -0.8475 -0.4560  1.1456
  856MOL0     H15532   4.542   9.516   8.393 -2.1023  5.2167 -1.4227
  856MOL0     H15533   4.715   9.561   8.387  0.8642  3.3531  1.4850
  856MOL0     H15534   4.650   9.377   8.548 -0.3905 -0.8270 -0.4253
  856MOL0     H15535   4.524   9.475   8.624 -0.1221 -0.9825  1.4395
  856MOL0     H15536   4.816   9.558   8.631 -1.6806 -0.5481 -2.0764
  856MOL0     H15537   4.663   9.614   8.714  0.2504  0.3628 -2.3382
  856MOL0     H15538   4.822   9.347   8.726 -2.7037 -2.4517 -0.6875
  856MOL0     H15539   4.669   9.373   8.813 -0.8724  2.7035  0.3600
  856MOL0     H15540   4.786   9.571   8.934  0.8812 -0.7214  1.5618
  856MOL0     H15541   4.937   9.525   8.856 -0.2159  2.1638  0.9376
  856MOL0     H15542   4.597  10.245   8.359 -0.0420  4.0613 -0.2241
  856MOL0     H15543   4.774  10.400   8.331  4.0683  3.0825 -3.3157
  856MOL0     H15544   5.177  10.528   8.181 -1.3765  0.6169  0.5501
  856MOL0     H15545   5.391  10.636   8.126  2.8249 -0.5969 -2.3851
  856MOL0     H15546   5.112  10.715   6.969 -0.4077 -0.4426  0.9382
  856MOL0     H15547   4.913  10.567   6.956  0.6774 -0.6282 -0.7512
  856MOL0     H15548   4.792  10.177   6.704 -2.0718 -4.7459 -0.3374
  856MOL0     H15549   4.633  10.001   6.694 -1.0193  0.0090  1.6174
  856MOL0     H15550   4.490   9.885   6.729  0.4842  3.5324 -1.7230
  856MOL0     H15551   4.329   9.835   6.723 -0.4073 -2.0790 -0.5337
  856MOL0     H15552   4.431   9.762   6.523  0.1226  0.5193  3.5047
  856MOL0     H15553   4.495   9.930   6.490 -0.1161 -1.2182 -3.5117
  856MOL0     H15554   4.318   9.995   6.386  0.6251 -1.5792 -2.8676
  856MOL0     H15555   4.202   9.930   6.496  0.4732 -2.8644  1.1805
  856MOL0     H15556   4.253   9.691   6.388  3.7845 -1.0128 -2.0875
  856MOL0     H15557   4.329   9.784   6.264  1.0145 -0.6232  1.4013
  856MOL0     H15558   3.978   9.902   6.113 -0.1625 -0.0702  0.3001
  856MOL0     H15559   4.314  10.261   6.689  0.4747  0.9034  0.7397
  856MOL0     H15560   4.481  10.470   6.702  0.0048 -0.1422  1.0257
  857MOL0     O15561   4.007   3.853   1.161  0.5471 -0.8971  0.2415
  857MOL0     C15562   3.992   3.814   1.051 -0.6371 -0.1389  0.3809
  857MOL0     O15563   4.071   3.715   1.000  0.0798 -0.1713  0.6095
  857MOL0     C15564   4.175   3.646   1.067  0.2599  0.0991  0.4708
  857MOL0     C15565   4.225   3.665   1.204  1.0321  0.5008 -0.0717
  857MOL0     C15566   4.296   3.563   1.262  0.0984  0.3808  0.9993
  857MOL0     C15567   4.346   3.460   1.185 -0.1566  0.8932 -0.4302
  857MOL0     O15568   4.451   3.392   1.249 -0.0170 -0.4098 -0.0084
  857MOL0     C15569   4.507   3.281   1.177 -0.1936 -0.7053  0.7041
  857MOL0     C15570   4.635   3.235   1.243  0.1676  0.2894  0.2637
  857MOL0     C15571   4.617   3.171   1.382 -0.0735 -0.1591  0.1985
  857MOL0     C15572   4.754   3.130   1.436  0.0641 -0.3528  0.0989
  857MOL0     C15573   4.727   3.064   1.568  0.9567 -0.8750 -0.6761
  857MOL0     C15574   4.853   3.004   1.627  0.2513  0.2973 -0.4199
  857MOL0     C15575   4.843   2.963   1.766 -0.6047  0.7895  0.1786
  857MOL0     C15576   4.970   2.874   1.807  0.2929 -0.1710 -0.8525
  857MOL0     N15577   4.938   2.804   1.926  0.4670 -0.9572 -0.9415
  857MOL0     C15578   4.833   2.716   1.951  0.2273  0.9208  0.7410
  857MOL0     C15579   4.825   2.710   2.088  0.6923  0.1973  0.3585
  857MOL0     C15580   4.714   2.633   2.172 -0.2301 -0.1975 -0.4610
  857MOL0     C15581   4.585   2.691   2.127  0.1063  0.4938  0.0028
  857MOL0     C15582   4.476   2.665   2.228 -1.2063  1.2438 -1.6666
  857MOL0     C15583   4.342   2.728   2.184 -0.1803  0.4541  0.0657
  857MOL0     O15584   4.293   2.652   2.074 -0.4926 -0.3880  0.3851
  857MOL0     C15585   4.198   2.722   1.991  0.6217  0.2069 -1.3389
  857MOL0     C15586   4.140   2.847   2.011 -1.1718 -0.0003 -0.3699
  857MOL0     C15587   4.058   2.916   1.924  0.5141 -0.8761  0.1212
  857MOL0     C15588   4.023   3.056   1.945  0.2008 -0.3144  0.5828
  857MOL0     C15589   4.032   2.850   1.802  0.6624 -0.0357  0.3470
  857MOL0     C15590   3.947   2.903   1.692  0.1356 -0.1564 -0.5225
  857MOL0     O15591   3.971   2.848   1.572  0.5382 -0.8507  0.0544
  857MOL0     C15592   3.917   2.883   1.452  0.5217 -0.2314 -1.1253
  857MOL0     C15593   3.813   2.965   1.439 -0.3995  0.3369  1.2015
  857MOL0     C15594   3.759   2.982   1.307  0.0022  0.1193 -0.1967
  857MOL0     C15595   3.808   2.915   1.197 -0.7972 -1.4268 -0.6638
  857MOL0     O15596   3.769   2.947   1.067 -0.7484  0.5780 -1.1250
  857MOL0     C15597   3.650   2.883   1.015 -0.4693 -0.1473  1.2792
  857MOL0     C15598   3.615   2.948   0.880  0.5898 -0.1920  0.7480
  857MOL0     C15599   3.530   3.081   0.891 -0.1163  0.3179 -0.2516
  857MOL0     C15600   3.601   3.216   0.906  0.3741 -0.5050  0.5172
  857MOL0     C15601   3.517   3.343   0.912  0.1274 -0.0507  0.3288
  857MOL0     C15602   3.574   3.472   0.981  0.6004  0.8331  0.1082
  857MOL0     C15603   3.709   3.516   0.936  0.6101  0.5302 -0.3182
  857MOL0     C15604   3.723   3.527   0.779  0.2580 -0.2607 -0.2343
  857MOL0    Cl15605   3.894   3.553   0.747  0.3222  0.1728  0.1881
  857MOL0     C15606   3.918   2.838   1.218 -1.0289 -0.2226  0.4716
  857MOL0     C15607   3.965   2.815   1.347 -0.7986 -0.4133  0.4289
  857MOL0     O15608   3.868   2.998   1.707 -0.2951 -0.4303 -0.4899
  857MOL0     C15609   4.090   2.714   1.779  0.4190  0.0281  0.4965
  857MOL0     C15610   4.162   2.654   1.876 -0.6966 -1.0406 -0.7180
  857MOL0     N15611   4.926   2.785   2.139 -0.1064  0.7665  0.3701
  857MOL0     N15612   4.990   2.839   2.045 -1.0939 -0.2928  0.5655
  857MOL0     C15613   4.309   3.446   1.057 -0.3303  0.3599 -0.0720
  857MOL0     C15614   4.218   3.536   1.003  0.1250  0.3616 -0.1644
  857MOL0     C15615   3.866   3.857   0.985  0.1919 -0.1304  0.8413
  857MOL0     C15616   3.837   3.853   0.848  0.0143 -0.3434 -0.0463
  857MOL0     C15617   3.726   3.913   0.794  0.1761  1.5526  0.4146
  857MOL0     C15618   3.637   3.984   0.873 -0.0180  0.4213  0.1431
  857MOL0     O15619   3.530   4.051   0.809  0.4301 -0.0589  0.0969
  857MOL0     C15620   3.407   4.058   0.872  0.2409 -0.9354  0.4948
  857MOL0     C15621   3.338   3.928   0.873 -0.9982  0.6273 -0.3711
  857MOL0     C15622   3.193   3.939   0.840  0.4334 -0.2804  0.7018
  857MOL0     C15623   3.108   4.022   0.947  0.4301  0.9836  0.3117
  857MOL0     C15624   3.101   3.961   1.081  0.3362 -0.2413 -0.0455
  857MOL0     C15625   3.120   3.903   1.189  0.3265 -0.2346  0.0072
  857MOL0     C15626   3.651   3.975   1.009  0.0616  0.5342  0.0917
  857MOL0     C15627   3.773   3.917   1.062  0.8194  1.3361 -0.0913
  857MOL0     H15628   4.193   3.751   1.263 -0.9171 -0.4178  0.2919
  857MOL0     H15629   4.312   3.560   1.369 -2.9949  1.3280  1.5832
  857MOL0     H15630   4.433   3.200   1.176 -4.2339  2.6582 -0.1837
  857MOL0     H15631   4.552   3.310   1.082 -0.3961 -0.5799  0.6467
  857MOL0     H15632   4.697   3.162   1.190  1.0502  0.8113  0.5685
  857MOL0     H15633   4.700   3.323   1.247  2.2385 -1.2075  0.7696
  857MOL0     H15634   4.566   3.235   1.454  1.4319  0.4331  0.7905
  857MOL0     H15635   4.563   3.077   1.367 -1.4839  0.6272  0.1730
  857MOL0     H15636   4.801   3.063   1.364 -3.7029 -4.2056  0.8239
  857MOL0     H15637   4.809   3.223   1.452 -0.1139  0.0579 -1.5436
  857MOL0     H15638   4.685   3.143   1.631  2.0436  2.5628 -3.8709
  857MOL0     H15639   4.655   2.982   1.567 -0.3860  0.1522  2.1947
  857MOL0     H15640   4.878   2.916   1.566  0.2011  0.5937 -0.8747
  857MOL0     H15641   4.936   3.074   1.620 -1.4157  2.3644 -0.4525
  857MOL0     H15642   4.862   3.057   1.818  2.6626  0.3466  0.0339
  857MOL0     H15643   4.747   2.916   1.788  0.5236 -1.8140 -0.1336
  857MOL0     H15644   5.050   2.947   1.824  2.1495 -2.3899  0.5751
  857MOL0     H15645   5.010   2.812   1.725  0.0673 -0.7026 -0.5683
  857MOL0     H15646   4.762   2.661   1.891  1.8180  0.2582 -0.6246
  857MOL0     H15647   4.708   2.529   2.137  1.6511  0.4285 -3.0014
  857MOL0     H15648   4.737   2.640   2.278  2.4134 -2.1514 -0.7875
  857MOL0     H15649   4.567   2.644   2.030  3.3040 -2.4142  0.6359
  857MOL0     H15650   4.606   2.798   2.118  0.7633  0.3719  0.0748
  857MOL0     H15651   4.514   2.705   2.323 -0.6860  0.9383 -1.7447
  857MOL0     H15652   4.460   2.558   2.242 -0.8582  1.5101  1.5920
  857MOL0     H15653   4.368   2.826   2.143  0.2155  0.6947  0.8538
  857MOL0     H15654   4.278   2.727   2.273 -0.5786  1.0534 -0.2028
  857MOL0     H15655   4.170   2.904   2.098 -1.6903 -1.8651  1.1020
  857MOL0     H15656   4.049   3.122   1.862  3.2963  1.5192  2.7885
  857MOL0     H15657   3.920   3.065   1.981  0.3180  1.4360  0.5700
  857MOL0     H15658   4.086   3.104   2.021  0.2292 -1.4116  1.2900
  857MOL0     H15659   3.756   3.006   1.522 -0.8127 -1.1002  1.6605
  857MOL0     H15660   3.673   3.047   1.292 -1.8531 -2.5083 -2.0208
  857MOL0     H15661   3.678   2.778   1.003 -0.9691 -0.1222 -0.3300
  857MOL0     H15662   3.577   2.892   1.096  0.3050  1.8566  1.8047
  857MOL0     H15663   3.699   2.955   0.810 -0.6775 -3.1200 -1.2663
  857MOL0     H15664   3.545   2.876   0.836  0.1963 -0.2407  1.4369
  857MOL0     H15665   3.463   3.074   0.978 -1.0393 -0.5341 -1.0209
  857MOL0     H15666   3.463   3.089   0.805 -0.9885 -1.2942  0.2489
  857MOL0     H15667   3.653   3.206   1.001  0.0541 -0.5471  0.6886
  857MOL0     H15668   3.679   3.211   0.829  1.1930 -4.2900  1.3923
  857MOL0     H15669   3.426   3.319   0.967 -0.2499 -1.1394 -0.7180
  857MOL0     H15670   3.493   3.365   0.807 -1.2944 -0.2650  0.5970
  857MOL0     H15671   3.499   3.549   0.964  0.8505  0.6371 -2.2732
  857MOL0     H15672   3.587   3.456   1.089  3.2750  1.4615 -0.0442
  857MOL0     H15673   3.779   3.439   0.969 -1.0093 -0.8646  0.0500
  857MOL0     H15674   3.730   3.613   0.982 -0.6354  0.4659  0.4453
  857MOL0     H15675   3.674   3.620   0.748 -2.2950 -1.6268 -0.6242
  857MOL0     H15676   3.682   3.439   0.728  1.3537 -0.5273 -0.6890
  857MOL0     H15677   3.976   2.797   1.136 -1.3244 -2.8390  1.4532
  857MOL0     H15678   4.050   2.751   1.365  1.4565  2.7323  1.8777
  857MOL0     H15679   4.072   2.663   1.685  1.0201 -1.9130  1.3863
  857MOL0     H15680   4.191   2.551   1.860 -2.7050 -2.0046  1.3524
  857MOL0     H15681   4.351   3.374   0.988 -0.9466  1.1593 -1.3055
  857MOL0     H15682   4.188   3.525   0.900 -0.5600  0.7873 -0.0149
  857MOL0     H15683   3.897   3.799   0.775  0.4305 -1.4697  1.0969
  857MOL0     H15684   3.716   3.935   0.688  1.1834  3.4836  0.6819
  857MOL0     H15685   3.406   4.100   0.973 -3.0448  1.4617 -0.3455
  857MOL0     H15686   3.340   4.131   0.825 -1.2069 -1.9941  0.8331
  857MOL0     H15687   3.361   3.887   0.971 -0.9305  0.0083 -0.6397
  857MOL0     H15688   3.387   3.861   0.802  3.7475  2.0587  1.1578
  857MOL0     H15689   3.152   3.838   0.839  0.9759 -0.5003 -0.3174
  857MOL0     H15690   3.181   3.996   0.747  2.2401  0.7819  1.0584
  857MOL0     H15691   3.010   4.024   0.898 -0.1236 -0.5298  1.2722
  857MOL0     H15692   3.124   4.130   0.953 -0.7391  1.3397 -1.8167
  857MOL0     H15693   3.141   3.862   1.285 -3.5125 -2.4136  0.1330
  857MOL0     H15694   3.583   4.025   1.077  0.6238 -0.7733  1.6788
  857MOL0     H15695   3.791   3.921   1.169  1.9993 -1.6821 -0.0852
  858MOL0     O15696   0.799   2.966   0.869  0.4398  0.8283 -0.4592
  858MOL0     C15697   0.845   3.063   0.806 -0.2441  0.5423 -0.7912
  858MOL0     O15698   0.936   3.048   0.705 -0.7141  0.4899 -0.4215
  858MOL0     C15699   0.975   2.918   0.662  0.8482  0.3158  0.9463
  858MOL0     C15700   0.910   2.861   0.547  0.1276 -0.2717  0.3197
  858MOL0     C15701   0.941   2.731   0.502  0.7889 -0.6603 -0.4435
  858MOL0     C15702   1.047   2.663   0.570  0.4289  0.5738 -0.5841
  858MOL0     O15703   1.072   2.534   0.542  0.4051  0.3086  0.0780
  858MOL0     C15704   1.211   2.490   0.526  0.2463  1.0556 -0.7995
  858MOL0     C15705   1.230   2.348   0.583 -0.0551 -0.3387  0.4250
  858MOL0     C15706   1.378   2.326   0.619  0.2731 -0.3575  0.0900
  858MOL0     C15707   1.408   2.196   0.692 -0.2605 -0.3516 -0.1667
  858MOL0     C15708   1.549   2.153   0.692 -0.0220  0.1302 -0.0549
  858MOL0     C15709   1.591   2.092   0.820 -0.7570  0.0664 -0.7345
  858MOL0     C15710   1.732   2.040   0.809 -0.4909 -0.3142  0.2076
  858MOL0     C15711   1.827   2.166   0.832 -0.6358  0.3678  0.6985
  858MOL0     N15712   1.960   2.102   0.808 -0.6047  0.0401  0.2204
  858MOL0     C15713   2.033   2.064   0.922  0.2323 -0.3203  0.2359
  858MOL0     C15714   2.141   2.011   0.870 -0.5719 -0.7813 -0.1890
  858MOL0     C15715   2.258   1.945   0.948  0.0548 -0.1666 -0.6549
  858MOL0     C15716   2.240   1.805   1.011 -0.4409  0.0931 -0.3630
  858MOL0     C15717   2.127   1.806   1.112  0.2840  0.1712  0.4806
  858MOL0     C15718   2.127   1.705   1.226 -0.1300  0.0898 -0.4965
  858MOL0     O15719   2.181   1.742   1.351  0.3424 -0.0059  0.6222
  858MOL0     C15720   2.094   1.812   1.432 -1.2365  0.0174 -0.0665
  858MOL0     C15721   2.156   1.837   1.546 -0.6038 -1.2456  0.7111
  858MOL0     C15722   2.104   1.926   1.643 -0.1884  0.3426 -0.6506
  858MOL0     C15723   2.188   1.936   1.763  0.0209  0.1271 -1.0996
  858MOL0     C15724   1.988   1.999   1.620  0.4795 -1.0833  0.6985
  858MOL0     C15725   1.956   2.114   1.706 -0.6235 -0.7197 -0.3782
  858MOL0     O15726   1.836   2.125   1.740  0.3360 -0.6917 -0.3890
  858MOL0     C15727   1.799   2.238   1.804 -0.4636  0.5280 -0.1179
  858MOL0     C15728   1.869   2.335   1.893 -0.3719  0.3723  0.2501
  858MOL0     C15729   1.803   2.435   1.964  0.5838 -0.6190 -0.2733
  858MOL0     C15730   1.664   2.452   1.958 -0.2479 -0.4218 -0.4053
  858MOL0     O15731   1.591   2.549   2.037  0.3477 -0.2283  0.6421
  858MOL0     C15732   1.664   2.660   2.087 -0.0920  0.2353 -0.7790
  858MOL0     C15733   1.571   2.782   2.083  0.6494  0.5071  0.5882
  858MOL0     C15734   1.630   2.886   2.178  0.3104  0.2191  0.6956
  858MOL0     C15735   1.696   3.001   2.089  0.0057  1.1652 -0.5905
  858MOL0     C15736   1.812   2.951   1.997  0.0463 -0.4306  1.0643
  858MOL0     C15737   1.938   2.913   2.073  1.3415  0.7304 -0.4445
  858MOL0     C15738   2.052   2.879   1.984 -0.0830  0.0802 -0.3970
  858MOL0     C15739   2.062   2.728   1.954  0.1063 -0.2477  0.6132
  858MOL0    Cl15740   2.109   2.647   2.097  0.0741 -0.1368 -0.3486
  858MOL0     C15741   1.594   2.362   1.882  0.2676 -0.5267  0.2247
  858MOL0     C15742   1.660   2.260   1.815  0.7565 -0.8674 -0.5589
  858MOL0     O15743   2.050   2.192   1.727 -0.4125  0.4344 -0.1954
  858MOL0     C15744   1.928   1.974   1.494  0.7159  0.5571  0.2750
  858MOL0     C15745   1.982   1.879   1.396 -0.0300 -0.8637  0.4878
  858MOL0     N15746   2.127   2.009   0.729 -0.2961  0.4215 -0.2081
  858MOL0     N15747   2.026   2.079   0.691 -0.9988 -0.3879 -0.9003
  858MOL0     C15748   1.101   2.718   0.684  0.0963  0.2450 -0.6643
  858MOL0     C15749   1.063   2.842   0.741  0.0831  0.5210  0.6786
  858MOL0     C15750   0.794   3.200   0.839 -1.0928  0.0788 -0.0016
  858MOL0     C15751   0.879   3.308   0.791 -0.5319 -0.2367 -0.5799
  858MOL0     C15752   0.840   3.443   0.824 -0.8607  0.1200 -0.4871
  858MOL0     C15753   0.724   3.474   0.892 -0.2055 -0.6535 -0.7365
  858MOL0     O15754   0.702   3.609   0.915 -0.7303 -0.2664 -0.4658
  858MOL0     C15755   0.599   3.639   0.999  0.0983 -0.2054 -0.4461
  858MOL0     C15756   0.613   3.785   1.042 -0.2252 -0.4967 -0.3384
  858MOL0     C15757   0.499   3.844   1.121  0.0228  0.1675 -0.7697
  858MOL0     C15758   0.458   3.758   1.241 -0.1863  0.6658  0.7032
  858MOL0     C15759   0.357   3.802   1.340  0.5971 -0.1253 -0.1402
  858MOL0     C15760   0.275   3.847   1.414 -0.9817 -0.1117  0.7828
  858MOL0     C15761   0.648   3.362   0.938 -0.2653  0.0782  1.2061
  858MOL0     C15762   0.675   3.232   0.904  0.3295 -0.4306 -0.5887
  858MOL0     H15763   0.850   2.932   0.491  1.8828  2.0435  1.1720
  858MOL0     H15764   0.891   2.694   0.413 -1.5959  0.8437  0.1480
  858MOL0     H15765   1.224   2.472   0.419 -0.4387 -2.8900 -0.3818
  858MOL0     H15766   1.278   2.559   0.578  1.7694 -0.9298  0.0186
  858MOL0     H15767   1.167   2.341   0.672 -1.7424  1.3573 -0.5439
  858MOL0     H15768   1.197   2.269   0.514  2.6894 -1.6019  0.4117
  858MOL0     H15769   1.433   2.338   0.526 -0.4904 -0.5373 -0.3999
  858MOL0     H15770   1.396   2.409   0.688 -3.8246 -0.0064  0.9984
  858MOL0     H15771   1.386   2.228   0.794  1.7543  0.1100  0.1585
  858MOL0     H15772   1.337   2.122   0.654 -1.6716  2.0990 -2.6759
  858MOL0     H15773   1.566   2.076   0.616  1.3522  1.8104 -1.5512
  858MOL0     H15774   1.615   2.235   0.664  0.9539 -0.3263  0.8513
  858MOL0     H15775   1.573   2.160   0.903 -1.7151 -3.1859  1.9606
  858MOL0     H15776   1.531   2.006   0.850  1.6259 -1.3617  0.2739
  858MOL0     H15777   1.750   1.967   0.888 -1.9176 -0.3899  0.4854
  858MOL0     H15778   1.753   2.010   0.706 -0.2516  2.3956 -0.6272
  858MOL0     H15779   1.822   2.208   0.933 -0.1503  1.1855  0.3874
  858MOL0     H15780   1.805   2.251   0.767  0.0222 -0.0550 -0.1029
  858MOL0     H15781   2.008   2.087   1.025 -0.3572  1.7920 -0.3198
  858MOL0     H15782   2.348   1.954   0.886 -0.1213  3.8671 -0.6220
  858MOL0     H15783   2.276   2.014   1.032 -0.1179  0.0565 -0.7987
  858MOL0     H15784   2.333   1.775   1.060 -1.4984 -3.7600 -0.3450
  858MOL0     H15785   2.208   1.728   0.939 -2.5450 -0.9243  1.5408
  858MOL0     H15786   2.042   1.778   1.050 -0.9114  4.3535 -0.0903
  858MOL0     H15787   2.111   1.905   1.156  1.0088  1.6714 -2.3547
  858MOL0     H15788   2.174   1.610   1.198  0.0551  0.2245 -0.6482
  858MOL0     H15789   2.024   1.676   1.250 -1.4560  2.6839 -2.4785
  858MOL0     H15790   2.253   1.796   1.571  0.7566 -0.2971 -2.5143
  858MOL0     H15791   2.150   2.010   1.835  3.1976 -0.2412  1.1493
  858MOL0     H15792   2.205   1.843   1.817  0.0503  1.0298  0.5447
  858MOL0     H15793   2.291   1.968   1.749  0.1296  1.3699  1.6569
  858MOL0     H15794   1.976   2.341   1.906  0.1985 -0.3979 -3.0059
  858MOL0     H15795   1.863   2.496   2.031  3.6563 -2.4368 -1.1644
  858MOL0     H15796   1.695   2.631   2.188 -0.4843 -0.6030 -0.8885
  858MOL0     H15797   1.755   2.690   2.034 -0.2925 -1.8212 -2.4085
  858MOL0     H15798   1.562   2.813   1.978 -0.2820  1.7918  1.0163
  858MOL0     H15799   1.471   2.749   2.112 -0.5626  2.3611 -1.2073
  858MOL0     H15800   1.717   2.847   2.231  1.5244 -0.9116 -1.9283
  858MOL0     H15801   1.562   2.911   2.259  0.7140  0.9345  0.8289
  858MOL0     H15802   1.621   3.050   2.026  1.2527  1.9776 -1.4901
  858MOL0     H15803   1.731   3.071   2.165  0.1024 -0.3600  0.8371
  858MOL0     H15804   1.831   3.028   1.921  0.0809  0.9292  2.3924
  858MOL0     H15805   1.783   2.867   1.934 -0.2584  0.9106 -0.6623
  858MOL0     H15806   1.954   2.999   2.139 -4.6213  2.9920 -1.2732
  858MOL0     H15807   1.910   2.827   2.135 -0.2433 -1.4248 -3.8948
  858MOL0     H15808   2.142   2.908   2.040  1.6771 -1.3085 -2.3191
  858MOL0     H15809   2.052   2.942   1.894  1.8567 -1.2563 -1.4241
  858MOL0     H15810   2.140   2.715   1.878 -1.5404  1.5844 -1.5211
  858MOL0     H15811   1.967   2.694   1.911  1.1286 -1.0461 -1.1612
  858MOL0     H15812   1.487   2.360   1.901  0.2588 -0.9536  0.1279
  858MOL0     H15813   1.598   2.197   1.753  1.0260 -1.2014 -0.4883
  858MOL0     H15814   1.844   2.028   1.452  2.1176  0.9901 -2.1296
  858MOL0     H15815   1.927   1.862   1.304  1.0148  1.9263 -0.7878
  858MOL0     H15816   1.174   2.673   0.751 -1.9568 -1.6727  0.4299
  858MOL0     H15817   1.104   2.884   0.832  0.3429 -0.9218  1.2563
  858MOL0     H15818   0.967   3.299   0.729 -0.2500 -0.3387 -0.1649
  858MOL0     H15819   0.887   3.527   0.774 -0.8078  0.4172  0.0492
  858MOL0     H15820   0.501   3.614   0.957  1.4121 -5.1686 -1.2158
  858MOL0     H15821   0.613   3.577   1.089  0.1964  1.8794  1.0537
  858MOL0     H15822   0.640   3.840   0.951  1.0888 -3.7335 -2.1297
  858MOL0     H15823   0.700   3.779   1.109  0.0110 -1.5586 -0.7048
  858MOL0     H15824   0.413   3.858   1.055 -2.9999  1.1868  3.0372
  858MOL0     H15825   0.527   3.941   1.163 -0.8683 -0.2840  0.9861
  858MOL0     H15826   0.554   3.741   1.291  2.1424  0.3294 -3.4804
  858MOL0     H15827   0.421   3.665   1.197  0.4834  1.5134 -1.7896
  858MOL0     H15828   0.203   3.909   1.463 -3.1668 -0.4651 -1.7697
  858MOL0     H15829   0.557   3.384   0.992 -1.4903  1.1060 -1.1578
  858MOL0     H15830   0.605   3.152   0.922 -0.1713  0.2108  0.3667
  859MOL0     O15831   8.100   5.954   0.355 -0.0263  0.3631  0.1617
  859MOL0     C15832   8.213   5.992   0.351 -0.0827 -0.5582  0.4450
  859MOL0     O15833   8.314   5.916   0.304 -0.2791 -0.0965 -0.2578
  859MOL0     C15834   8.296   5.790   0.255 -0.2712  0.3963  1.2317
  859MOL0     C15835   8.409   5.708   0.247  0.3231  0.5509 -0.6785
  859MOL0     C15836   8.402   5.577   0.201 -0.0529 -0.1408  1.0025
  859MOL0     C15837   8.278   5.531   0.151 -0.2116  0.0911 -0.7663
  859MOL0     O15838   8.261   5.401   0.139 -0.2560 -0.4242  0.5304
  859MOL0     C15839   8.172   5.359   0.034  0.2889 -0.7012 -0.3850
  859MOL0     C15840   8.209   5.228  -0.043 -0.2062 -0.0326 -0.7385
  859MOL0     C15841   8.229   5.109   0.060  0.2519 -0.5990  0.0794
  859MOL0     C15842   8.108   5.032   0.117 -0.3717  0.8264  0.3194
  859MOL0     C15843   8.001   4.997   0.010 -0.0979 -0.2353 -0.8390
  859MOL0     C15844   8.049   4.923  -0.115  0.2131  0.3723 -0.4249
  859MOL0     C15845   7.935   4.930  -0.219 -0.2590 -0.5929  0.8390
  859MOL0     C15846   7.983   4.864  -0.348  0.2422 -0.2579 -0.0653
  859MOL0     N15847   8.124   4.902  -0.389  0.2991 -0.1636 -0.3065
  859MOL0     C15848   8.242   4.825  -0.392 -0.6438  0.4352  0.7230
  859MOL0     C15849   8.342   4.915  -0.416 -0.2348 -1.2310 -0.8746
  859MOL0     C15850   8.482   4.883  -0.434 -0.1246  0.8474  0.1740
  859MOL0     C15851   8.507   4.772  -0.536  0.5869 -0.4539 -0.8436
  859MOL0     C15852   8.652   4.746  -0.550 -0.0278 -0.2668 -0.0014
  859MOL0     C15853   8.677   4.610  -0.609 -0.0074 -0.9788  0.0235
  859MOL0     O15854   8.811   4.569  -0.587  0.1190 -0.2373 -0.7843
  859MOL0     C15855   8.836   4.438  -0.622 -0.1408 -0.1374  0.4432
  859MOL0     C15856   8.955   4.389  -0.566 -0.2183 -0.2127  0.4485
  859MOL0     C15857   8.985   4.251  -0.572  0.1540  0.5679  1.7536
  859MOL0     C15858   9.106   4.210  -0.496 -0.4883  0.5293 -0.4031
  859MOL0     C15859   8.887   4.164  -0.631  0.5678 -0.4060  0.2899
  859MOL0     C15860   8.898   4.014  -0.630  0.0223  0.1344 -0.9286
  859MOL0     O15861   8.808   3.943  -0.550 -1.4177  0.5522 -0.3415
  859MOL0     C15862   8.804   3.801  -0.548  0.4524 -0.0340  0.1456
  859MOL0     C15863   8.675   3.749  -0.514  0.0229  0.7137  0.7624
  859MOL0     C15864   8.646   3.610  -0.525 -0.3492  1.0806 -0.4172
  859MOL0     C15865   8.750   3.527  -0.555  0.2664 -0.4133  0.0568
  859MOL0     O15866   8.727   3.395  -0.556  0.0028  0.5909 -0.0129
  859MOL0     C15867   8.783   3.325  -0.446 -0.3820 -1.0904 -0.7637
  859MOL0     C15868   8.730   3.180  -0.438 -0.0761 -0.0392 -0.5365
  859MOL0     C15869   8.846   3.087  -0.447  0.1806 -0.5945  0.1510
  859MOL0     C15870   8.947   3.073  -0.333  0.3304 -0.4028 -0.3807
  859MOL0     C15871   8.885   3.045  -0.194  0.8467 -0.2181 -0.9379
  859MOL0     C15872   9.006   3.006  -0.108 -1.1540  0.0042 -0.7705
  859MOL0     C15873   8.965   2.989   0.040 -0.1685  0.1935  0.9955
  859MOL0     C15874   9.063   2.908   0.123 -0.0389  1.0494  0.0638
  859MOL0    Cl15875   9.212   2.993   0.132 -0.1839 -0.1640 -0.2290
  859MOL0     C15876   8.882   3.573  -0.579  0.0454 -0.1944  1.1944
  859MOL0     C15877   8.905   3.715  -0.580  0.3407 -0.9073  0.4792
  859MOL0     O15878   8.985   3.968  -0.702 -0.3093 -0.0726  0.8325
  859MOL0     C15879   8.766   4.208  -0.688 -0.1916  0.9633  0.6675
  859MOL0     C15880   8.740   4.342  -0.682 -0.1235 -0.1721 -0.8692
  859MOL0     N15881   8.280   5.041  -0.429  0.1928  1.2147 -0.7313
  859MOL0     N15882   8.157   5.032  -0.425  0.1460 -0.0616  0.2728
  859MOL0     C15883   8.168   5.618   0.137  0.1332 -0.4815 -0.5708
  859MOL0     C15884   8.179   5.740   0.190 -0.0020  0.7913 -0.5167
  859MOL0     C15885   8.249   6.133   0.380 -0.7251 -0.0769  0.0149
  859MOL0     C15886   8.158   6.242   0.373 -1.6768  0.0653 -0.8332
  859MOL0     C15887   8.197   6.371   0.382 -0.4837 -0.2722 -0.7307
  859MOL0     C15888   8.333   6.412   0.392  0.2941 -0.2130 -0.7683
  859MOL0     O15889   8.375   6.547   0.409 -0.1810 -0.0721  0.7683
  859MOL0     C15890   8.447   6.599   0.295 -0.9090  0.1796  0.1500
  859MOL0     C15891   8.380   6.606   0.155  0.2134 -0.1478 -0.1760
  859MOL0     C15892   8.257   6.691   0.172  0.2687  0.8613 -0.4337
  859MOL0     C15893   8.192   6.723   0.042 -0.3114  0.4570  1.0176
  859MOL0     C15894   8.248   6.843  -0.024 -0.0305  0.7994  0.2669
  859MOL0     C15895   8.302   6.927  -0.087 -0.2219  0.3014 -0.4075
  859MOL0     C15896   8.426   6.311   0.389 -0.2556 -1.2230  0.2629
  859MOL0     C15897   8.389   6.175   0.379  0.5032 -0.6908  0.1722
  859MOL0     H15898   8.502   5.752   0.282  0.7867 -1.7382  1.1906
  859MOL0     H15899   8.484   5.505   0.199 -1.1865 -1.4734 -1.0579
  859MOL0     H15900   8.078   5.346   0.089 -0.4615  2.7121 -0.6442
  859MOL0     H15901   8.148   5.439  -0.036 -2.9405  0.2529  1.6307
  859MOL0     H15902   8.129   5.198  -0.111 -3.6576 -2.3218  3.8226
  859MOL0     H15903   8.299   5.260  -0.097 -0.4607  1.3810 -0.3471
  859MOL0     H15904   8.294   5.038   0.007 -0.5679  0.1829 -2.0393
  859MOL0     H15905   8.288   5.151   0.142  1.3454  0.0251 -1.0107
  859MOL0     H15906   8.155   4.942   0.156  1.7370  1.2475 -1.0633
  859MOL0     H15907   8.063   5.088   0.200  0.2613  1.5311  0.1968
  859MOL0     H15908   7.920   4.938   0.052  0.1782 -0.9311 -1.2719
  859MOL0     H15909   7.955   5.093  -0.016  1.7649  1.1515  0.7363
  859MOL0     H15910   8.134   4.982  -0.150  0.5795  0.6533  0.9057
  859MOL0     H15911   8.080   4.821  -0.093  1.5868  0.4523 -1.8081
  859MOL0     H15912   7.852   4.866  -0.187  0.2481 -0.7404  1.9113
  859MOL0     H15913   7.904   5.033  -0.238  1.3809 -0.0023  1.1900
  859MOL0     H15914   7.921   4.902  -0.430  0.9889  1.6441  0.1996
  859MOL0     H15915   7.976   4.756  -0.335  4.2194 -0.5208  1.0891
  859MOL0     H15916   8.241   4.716  -0.394  0.8458  0.4008 -1.0699
  859MOL0     H15917   8.537   4.972  -0.464  1.7782 -0.6487 -1.0436
  859MOL0     H15918   8.519   4.835  -0.342 -2.1200 -1.9618 -0.3447
  859MOL0     H15919   8.470   4.814  -0.630 -0.2155  0.2072 -0.2405
  859MOL0     H15920   8.454   4.682  -0.503 -0.5992  0.8675  1.0467
  859MOL0     H15921   8.702   4.746  -0.453 -2.1696 -3.1899  1.2564
  859MOL0     H15922   8.686   4.826  -0.617  0.1241  0.4106  0.8704
  859MOL0     H15923   8.644   4.612  -0.713 -1.4117  0.6584  0.4423
  859MOL0     H15924   8.608   4.540  -0.561 -0.7040  0.9502  2.0617
  859MOL0     H15925   9.010   4.462  -0.508  1.6810 -0.1681 -1.2807
  859MOL0     H15926   9.141   4.109  -0.520  0.3021  0.5125  0.7299
  859MOL0     H15927   9.196   4.272  -0.507 -1.1136  1.1921 -2.2181
  859MOL0     H15928   9.070   4.207  -0.392 -0.1507  1.0621 -0.2654
  859MOL0     H15929   8.603   3.822  -0.478  1.2342  2.4561 -0.1938
  859MOL0     H15930   8.550   3.569  -0.496  0.0764  1.1035  1.1268
  859MOL0     H15931   8.892   3.321  -0.446 -0.3145  0.1494  0.3676
  859MOL0     H15932   8.750   3.383  -0.360 -3.3580 -3.4543 -0.1576
  859MOL0     H15933   8.672   3.174  -0.346 -3.4173 -1.8750 -2.5619
  859MOL0     H15934   8.655   3.159  -0.515 -1.8353  1.5879  0.6455
  859MOL0     H15935   8.905   3.102  -0.538  4.1609 -2.0030  2.2684
  859MOL0     H15936   8.798   2.988  -0.453 -2.5648  0.4955  2.1706
  859MOL0     H15937   9.010   2.991  -0.366  0.9497 -0.4390  0.8503
  859MOL0     H15938   9.016   3.157  -0.324  3.2918 -2.6470 -0.9460
  859MOL0     H15939   8.806   2.970  -0.194 -0.4330  1.0836 -0.9485
  859MOL0     H15940   8.836   3.136  -0.160  0.3356 -0.9157  0.2556
  859MOL0     H15941   9.042   2.908  -0.138  0.1922 -0.5567  2.3807
  859MOL0     H15942   9.088   3.077  -0.120 -1.2980 -0.0053 -1.9616
  859MOL0     H15943   8.866   2.943   0.045 -0.5997  1.0619  0.6117
  859MOL0     H15944   8.962   3.082   0.097  0.3887 -1.5958  4.2171
  859MOL0     H15945   9.074   2.801   0.100  0.0744  1.3105 -1.1534
  859MOL0     H15946   9.012   2.917   0.219 -2.3370 -1.1129 -0.8257
  859MOL0     H15947   8.959   3.501  -0.604 -1.4700 -1.4147 -0.2610
  859MOL0     H15948   9.000   3.749  -0.621 -0.8141  0.5208 -1.1563
  859MOL0     H15949   8.698   4.133  -0.728 -0.1488 -0.6443  3.3581
  859MOL0     H15950   8.645   4.383  -0.714 -0.4491 -0.4608 -0.2844
  859MOL0     H15951   8.071   5.585   0.103 -0.4590 -0.5749  1.1479
  859MOL0     H15952   8.090   5.801   0.183  0.5185  1.4606 -1.7657
  859MOL0     H15953   8.053   6.226   0.351 -2.0125  1.9344 -0.7216
  859MOL0     H15954   8.135   6.460   0.371 -1.1396 -0.5390  0.6060
  859MOL0     H15955   8.485   6.699   0.319  1.0970  0.0737 -2.3138
  859MOL0     H15956   8.537   6.539   0.288 -1.2235 -0.4883  1.3930
  859MOL0     H15957   8.342   6.508   0.126  0.6474 -0.9683  1.8436
  859MOL0     H15958   8.448   6.655   0.084  0.7352 -5.2987 -3.8412
  859MOL0     H15959   8.301   6.781   0.218  0.4884 -0.9451  3.2795
  859MOL0     H15960   8.183   6.650   0.241 -2.1476  2.6341 -1.8205
  859MOL0     H15961   8.087   6.752   0.058 -1.2691 -1.7658 -0.6175
  859MOL0     H15962   8.188   6.642  -0.031 -3.0225  0.8832  0.5804
  859MOL0     H15963   8.355   6.999  -0.146  0.0897 -0.4301 -1.0368
  859MOL0     H15964   8.532   6.333   0.395 -0.0127 -1.9485 -1.0249
  859MOL0     H15965   8.478   6.113   0.370  0.2934 -1.0182  0.3237
  860MOL0     O15966   9.349   9.586   6.151  0.0818 -0.4576  0.0114
  860MOL0     C15967   9.416   9.612   6.253 -0.0935 -1.0467  0.3892
  860MOL0     O15968   9.381   9.694   6.353 -0.5624  0.4458 -0.0062
  860MOL0     C15969   9.268   9.773   6.377 -0.5505  1.0020 -0.6530
  860MOL0     C15970   9.166   9.784   6.285  0.6683  0.1791 -0.4082
  860MOL0     C15971   9.070   9.870   6.296 -0.6430  0.7496 -0.6243
  860MOL0     C15972   9.070   9.960   6.408 -0.2100 -0.6954 -0.0668
  860MOL0     O15973   8.981  10.062   6.405  0.7732  0.3226  0.1584
  860MOL0     C15974   8.936  10.122   6.531  0.3793  0.6068  0.6914
  860MOL0     C15975   8.820  10.220   6.511  0.2363 -0.3779 -0.2681
  860MOL0     C15976   8.878  10.355   6.440  0.8146 -0.0351  1.1083
  860MOL0     C15977   8.770  10.420   6.345  0.7764 -0.1374  0.2214
  860MOL0     C15978   8.802  10.376   6.201  0.1222 -0.2563 -1.0172
  860MOL0     C15979   8.707  10.448   6.110  1.1807  0.3796  0.8273
  860MOL0     C15980   8.705  10.389   5.964 -0.4492  1.0666 -0.9601
  860MOL0     C15981   8.840  10.377   5.893 -0.9118 -0.2244  0.2127
  860MOL0     N15982   8.835  10.434   5.754  0.4953 -0.0927 -0.4698
  860MOL0     C15983   8.744  10.386   5.659 -0.8459 -0.8280 -0.0622
  860MOL0     C15984   8.747  10.487   5.565 -0.0775  0.3016  0.0512
  860MOL0     C15985   8.663  10.460   5.450  0.0502  0.0053 -0.9596
  860MOL0     C15986   8.617  10.598   5.387 -0.6541 -0.5269 -0.3707
  860MOL0     C15987   8.568  10.571   5.245 -0.5840  0.1746  0.9302
  860MOL0     C15988   8.688  10.573   5.142  0.3041 -0.7883 -0.0031
  860MOL0     O15989   8.765  10.452   5.149 -0.2384 -0.0264  0.5470
  860MOL0     C15990   8.822  10.414   5.030 -1.0014 -0.2264  0.2932
  860MOL0     C15991   8.809  10.474   4.903  0.4549  0.2223  0.2195
  860MOL0     C15992   8.881  10.412   4.788 -0.3644 -0.0794 -0.4982
  860MOL0     C15993   8.854  10.475   4.657  0.5331 -0.0172 -0.0332
  860MOL0     C15994   8.960  10.295   4.803 -0.2654  0.7270 -0.0484
  860MOL0     C15995   9.021  10.209   4.695  0.4700 -0.0208  1.0594
  860MOL0     O15996   9.035  10.070   4.713  0.8708 -0.2517 -0.0826
  860MOL0     C15997   9.050   9.995   4.599 -0.6568  0.1584 -0.1440
  860MOL0     C15998   8.950   9.918   4.537  0.1897 -1.1847 -0.6447
  860MOL0     C15999   8.959   9.839   4.424 -0.0326 -0.7029 -0.2669
  860MOL0     C16000   9.084   9.835   4.362 -0.9028  0.3005 -0.0882
  860MOL0     O16001   9.114   9.761   4.249 -0.4024  0.4921  0.2228
  860MOL0     C16002   9.065   9.623   4.266  0.2012 -1.3480  0.0615
  860MOL0     C16003   9.084   9.532   4.144  0.9252 -0.4063 -1.0664
  860MOL0     C16004   9.009   9.402   4.161  0.4572  0.0929  0.0203
  860MOL0     C16005   9.109   9.292   4.183  0.4528  0.0031  1.0111
  860MOL0     C16006   9.030   9.164   4.200 -0.7375 -0.0346 -0.1367
  860MOL0     C16007   9.114   9.055   4.251 -0.5771  0.4094 -1.4475
  860MOL0     C16008   9.040   8.926   4.310  0.0412 -0.0530 -1.0608
  860MOL0     C16009   8.940   8.876   4.207  1.1169 -0.2039 -0.1064
  860MOL0    Cl16010   9.002   8.835   4.044  0.1690 -0.8154 -0.1674
  860MOL0     C16011   9.186   9.911   4.419 -1.4650  0.0282 -0.2208
  860MOL0     C16012   9.174   9.994   4.540 -0.0342  0.1095 -0.1673
  860MOL0     O16013   9.065  10.274   4.598  0.1636 -0.8317 -0.3977
  860MOL0     C16014   8.968  10.250   4.941 -1.1082  0.1967  0.8511
  860MOL0     C16015   8.908  10.310   5.049  0.8659  0.0857 -0.0636
  860MOL0     N16016   8.834  10.586   5.597  0.2627  0.2622  0.0501
  860MOL0     N16017   8.878  10.557   5.720 -0.0247 -0.5522 -0.3309
  860MOL0     C16018   9.164   9.946   6.506 -0.3323 -0.4091  0.4383
  860MOL0     C16019   9.267   9.852   6.491  0.5178 -0.5504  0.4116
  860MOL0     C16020   9.556   9.565   6.267 -0.2946 -0.4538  0.2687
  860MOL0     C16021   9.589   9.475   6.170 -0.1436  0.6297  0.0735
  860MOL0     C16022   9.717   9.414   6.169  0.0573  0.0896  0.5441
  860MOL0     C16023   9.810   9.437   6.270 -0.4981 -0.6107 -0.5709
  860MOL0     O16024   9.920   9.364   6.252  0.5770  0.4572 -0.3974
  860MOL0     C16025   9.990   9.337   6.366 -0.4645 -0.8348  0.0434
  860MOL0     C16026   9.958   9.208   6.396  1.0707  0.0688  0.3366
  860MOL0     C16027  10.020   9.151   6.522 -0.0238  0.5599 -0.7752
  860MOL0     C16028   9.918   9.144   6.633  1.0402  0.6230 -0.0791
  860MOL0     C16029   9.851   9.270   6.670 -0.0814  0.2278 -0.2135
  860MOL0     C16030   9.799   9.378   6.701 -0.1986 -0.3832  0.1785
  860MOL0     C16031   9.774   9.534   6.374  0.1474 -0.0672 -0.0056
  860MOL0     C16032   9.649   9.587   6.372  0.2378 -0.4473  0.1921
  860MOL0     H16033   9.155   9.722   6.196 -1.9132 -0.8036  0.4879
  860MOL0     H16034   8.999   9.879   6.215 -0.0597  1.4902 -1.0719
  860MOL0     H16035   8.904  10.045   6.602 -0.4180  2.1394  2.0722
  860MOL0     H16036   9.024  10.164   6.581  2.0482 -0.4049 -1.2434
  860MOL0     H16037   8.744  10.175   6.446  1.6505  1.1503 -3.1420
  860MOL0     H16038   8.762  10.226   6.604  4.2000  0.2851  2.3725
  860MOL0     H16039   8.890  10.430   6.518  2.1154 -1.7044  2.5891
  860MOL0     H16040   8.964  10.329   6.378  0.9492  1.2127  0.7537
  860MOL0     H16041   8.666  10.397   6.369 -0.0961  2.3568 -0.7966
  860MOL0     H16042   8.788  10.526   6.365  4.4234 -0.8449  1.3827
  860MOL0     H16043   8.906  10.389   6.169  0.3022  0.2697 -0.2334
  860MOL0     H16044   8.784  10.269   6.197 -0.8470 -0.1060 -0.8721
  860MOL0     H16045   8.605  10.448   6.150  1.7738  0.4240  2.4114
  860MOL0     H16046   8.732  10.555   6.109 -3.7825  1.7815  1.5830
  860MOL0     H16047   8.669  10.286   5.971  0.3629  0.8105 -0.4602
  860MOL0     H16048   8.628  10.441   5.905 -2.6760 -0.1981  0.6669
  860MOL0     H16049   8.879  10.275   5.890  0.2095  0.2094 -0.6127
  860MOL0     H16050   8.900  10.442   5.958 -2.8358  1.0558  0.7955
  860MOL0     H16051   8.693  10.291   5.649 -0.4363 -1.1781  1.0020
  860MOL0     H16052   8.706  10.382   5.386  1.0481  0.3974 -0.7795
  860MOL0     H16053   8.565  10.428   5.488  1.5898 -1.5583  2.0560
  860MOL0     H16054   8.704  10.666   5.386  1.9131 -3.5815 -0.7961
  860MOL0     H16055   8.536  10.647   5.440  0.5957 -0.0892  1.2143
  860MOL0     H16056   8.494  10.643   5.208  0.7677  0.4926 -1.2789
  860MOL0     H16057   8.524  10.471   5.252  1.4456 -0.8880 -0.5793
  860MOL0     H16058   8.761  10.654   5.154  0.4307 -1.1041  1.7521
  860MOL0     H16059   8.641  10.596   5.046  1.5454  0.1889 -0.4153
  860MOL0     H16060   8.725  10.541   4.885 -2.0834 -2.4844  1.1716
  860MOL0     H16061   8.839  10.581   4.680 -1.3374 -0.5057  1.2382
  860MOL0     H16062   8.934  10.461   4.584  1.6760  1.1829  0.9319
  860MOL0     H16063   8.761  10.438   4.613 -0.1731 -0.8364  2.0095
  860MOL0     H16064   8.848   9.919   4.576 -0.1061  0.6838 -1.3609
  860MOL0     H16065   8.866   9.797   4.388 -1.7488  1.2171  1.6432
  860MOL0     H16066   9.112   9.576   4.353  2.1091 -0.5397 -0.4999
  860MOL0     H16067   8.956   9.628   4.281  0.0225  1.2740 -1.3698
  860MOL0     H16068   9.048   9.591   4.060 -1.4317  3.8492  2.4830
  860MOL0     H16069   9.193   9.523   4.140  0.8734 -0.9724 -1.2848
  860MOL0     H16070   8.952   9.382   4.070  0.6934  2.9381 -0.8612
  860MOL0     H16071   8.944   9.408   4.248  0.0951 -2.7990  0.0208
  860MOL0     H16072   9.180   9.278   4.101  0.6127 -2.5626  1.4856
  860MOL0     H16073   9.168   9.318   4.272 -0.0501  0.5916  1.1783
  860MOL0     H16074   8.984   9.113   4.115  0.6126  1.5609 -1.8960
  860MOL0     H16075   8.960   9.187   4.280  0.5531  3.9120  0.0853
  860MOL0     H16076   9.168   9.016   4.164  0.8354  2.2627 -1.4532
  860MOL0     H16077   9.189   9.083   4.326 -0.3759 -1.1902 -1.0078
  860MOL0     H16078   8.995   8.943   4.409 -0.1161  0.5233 -1.2236
  860MOL0     H16079   9.106   8.839   4.318 -1.6796 -1.2768  1.0411
  860MOL0     H16080   8.858   8.948   4.194  0.4666 -0.2164  3.0665
  860MOL0     H16081   8.884   8.792   4.249  0.2295 -0.5130 -1.8218
  860MOL0     H16082   9.285   9.917   4.374 -2.0578 -1.2350 -1.7983
  860MOL0     H16083   9.261  10.052   4.571 -0.3967 -0.5066  2.2022
  860MOL0     H16084   9.036  10.167   4.959 -1.1369  0.0102  0.1402
  860MOL0     H16085   8.920  10.276   5.152  0.5825 -2.8295 -0.8945
  860MOL0     H16086   9.161  10.005   6.597  1.7990 -1.4135  1.2068
  860MOL0     H16087   9.344   9.843   6.568 -0.4158  3.0661  2.0153
  860MOL0     H16088   9.519   9.447   6.092  0.5589  1.1393 -0.7395
  860MOL0     H16089   9.745   9.334   6.102  1.0140  0.6340  0.2861
  860MOL0     H16090  10.099   9.345   6.355 -0.4603 -1.4840 -0.3975
  860MOL0     H16091   9.971   9.407   6.448  2.2696 -0.1850  0.2306
  860MOL0     H16092  10.009   9.150   6.318 -1.2368  2.5071 -3.2575
  860MOL0     H16093   9.849   9.200   6.392  1.1508 -0.9616 -0.3094
  860MOL0     H16094  10.103   9.218   6.548  0.6168 -0.4904 -0.0223
  860MOL0     H16095  10.055   9.051   6.498 -0.5747  0.4010 -0.9063
  860MOL0     H16096   9.963   9.105   6.725 -0.6988 -0.9848  0.1720
  860MOL0     H16097   9.845   9.070   6.600  2.1185 -0.2835 -0.4851
  860MOL0     H16098   9.746   9.468   6.728 -1.8525 -1.3865  0.4169
  860MOL0     H16099   9.832   9.542   6.465 -2.2816 -1.9227  1.8375
  860MOL0     H16100   9.603   9.634   6.459  0.3037  0.0631 -0.0446
  861MOL0     O16101   1.615   9.464   2.250  0.6199  0.5206 -0.2474
  861MOL0     C16102   1.544   9.442   2.149 -0.4900  0.2592  0.9099
  861MOL0     O16103   1.547   9.329   2.063  0.1090 -0.0633 -0.4181
  861MOL0     C16104   1.602   9.225   2.118 -0.4553 -0.3454  0.3640
  861MOL0     C16105   1.528   9.153   2.209 -0.4868  1.0363  0.4606
  861MOL0     C16106   1.583   9.035   2.263  0.9678  0.1201  0.7423
  861MOL0     C16107   1.697   8.983   2.205 -0.0662  0.1370  0.2668
  861MOL0     O16108   1.742   8.855   2.226  0.3234  0.1772 -0.2289
  861MOL0     C16109   1.780   8.770   2.110  0.2592  0.3677 -0.5207
  861MOL0     C16110   1.915   8.743   2.118 -0.0010  0.9169 -0.1497
  861MOL0     C16111   1.959   8.621   2.035 -0.3063 -0.0784  0.5863
  861MOL0     C16112   2.116   8.618   2.032 -0.5797 -0.4890  0.7489
  861MOL0     C16113   2.151   8.487   1.960  0.3173 -0.1971  0.1059
  861MOL0     C16114   2.299   8.494   1.925  0.3802  0.1376 -0.3283
  861MOL0     C16115   2.337   8.359   1.874  0.0627 -0.5865  0.4618
  861MOL0     C16116   2.486   8.332   1.865 -0.6639 -0.1704 -0.1078
  861MOL0     N16117   2.509   8.195   1.820 -0.3951 -0.0310 -0.2269
  861MOL0     C16118   2.519   8.084   1.908  0.3225 -0.7320 -0.1893
  861MOL0     C16119   2.521   7.967   1.836 -0.0461 -0.6859 -1.2796
  861MOL0     C16120   2.542   7.830   1.881 -0.0919  1.0671  0.0196
  861MOL0     C16121   2.445   7.719   1.837 -0.5456 -0.2559  0.0730
  861MOL0     C16122   2.298   7.754   1.867  0.1129  0.3451  0.7081
  861MOL0     C16123   2.224   7.648   1.776 -0.2541 -0.0948 -0.4606
  861MOL0     O16124   2.089   7.640   1.819 -0.8214 -0.0615  0.3594
  861MOL0     C16125   1.995   7.604   1.729  0.8171 -0.6393  0.3074
  861MOL0     C16126   1.876   7.680   1.732 -0.8141  0.0904  0.8024
  861MOL0     C16127   1.759   7.647   1.662  0.2326 -0.0517  0.1333
  861MOL0     C16128   1.641   7.738   1.678  0.4185  0.3597 -0.1514
  861MOL0     C16129   1.766   7.532   1.578  0.4497  0.0240  0.3991
  861MOL0     C16130   1.651   7.486   1.497 -0.1831 -0.5319 -0.5780
  861MOL0     O16131   1.681   7.433   1.376  0.8392  0.3226  0.0967
  861MOL0     C16132   1.580   7.361   1.308 -0.4550 -0.7493  0.0475
  861MOL0     C16133   1.485   7.282   1.360  0.5359 -0.0558  0.0360
  861MOL0     C16134   1.391   7.218   1.286  0.2221 -0.1283  0.0099
  861MOL0     C16135   1.388   7.240   1.149 -0.2227  0.0151 -0.0763
  861MOL0     O16136   1.298   7.181   1.067 -0.0040  1.0301  0.4062
  861MOL0     C16137   1.180   7.122   1.116 -0.1298 -0.7753 -0.3554
  861MOL0     C16138   1.120   7.052   0.994 -0.0851 -0.6907  0.5565
  861MOL0     C16139   0.969   7.045   1.001 -0.3564 -0.1752 -0.0109
  861MOL0     C16140   0.926   6.947   0.886 -0.2597  0.5208  0.4085
  861MOL0     C16141   0.770   6.910   0.877  0.6742 -0.1966 -0.1109
  861MOL0     C16142   0.724   6.829   0.998  0.1449  0.1097  1.4958
  861MOL0     C16143   0.775   6.679   0.980 -0.1941 -0.3976  0.0985
  861MOL0     C16144   0.701   6.575   1.051 -0.2591 -0.2865 -0.2745
  861MOL0    Cl16145   0.540   6.567   0.971  0.0319 -0.5829 -0.1236
  861MOL0     C16146   1.486   7.304   1.087 -0.9177  0.2361  0.0161
  861MOL0     C16147   1.589   7.364   1.163  1.1436  0.1276 -0.2859
  861MOL0     O16148   1.546   7.497   1.558  0.1728  1.1442 -0.0322
  861MOL0     C16149   1.892   7.463   1.559  0.2209 -0.2341 -0.3841
  861MOL0     C16150   2.009   7.496   1.639 -0.8597  0.0160  0.1559
  861MOL0     N16151   2.522   8.008   1.705 -0.2315  0.2265 -0.3672
  861MOL0     N16152   2.525   8.136   1.698  1.0245  0.4668 -0.3577
  861MOL0     C16153   1.774   9.066   2.115  0.2276 -0.4211  0.4297
  861MOL0     C16154   1.724   9.190   2.068  0.7493  0.2936  0.5591
  861MOL0     C16155   1.440   9.542   2.120  0.2821 -0.6548 -0.4382
  861MOL0     C16156   1.393   9.632   2.218  0.9163  0.6837  0.0823
  861MOL0     C16157   1.297   9.730   2.189  0.7518  0.2660 -0.0200
  861MOL0     C16158   1.245   9.737   2.061  1.0107  0.0078  0.3381
  861MOL0     O16159   1.156   9.828   2.018  0.3274  0.0076 -0.1749
  861MOL0     C16160   1.059   9.903   2.099  1.4881  0.1047 -1.1876
  861MOL0     C16161   0.992  10.013   2.018  0.6309 -0.0649 -0.0352
  861MOL0     C16162   0.910  10.112   2.100 -0.7502  0.1636  0.3217
  861MOL0     C16163   0.840  10.207   2.011 -0.2401 -1.1832  0.2203
  861MOL0     C16164   0.749  10.296   2.093  0.5324 -0.1649  0.2494
  861MOL0     C16165   0.677  10.377   2.152 -0.3979  0.1556  0.5464
  861MOL0     C16166   1.290   9.651   1.963 -0.5068  0.2212  0.0938
  861MOL0     C16167   1.389   9.552   1.988  0.9717  0.1769 -0.6627
  861MOL0     H16168   1.429   9.189   2.234 -0.4519  1.6383 -0.2227
  861MOL0     H16169   1.518   8.976   2.327  1.3146  0.2003  1.1774
  861MOL0     H16170   1.724   8.676   2.111 -0.9863  1.0663 -1.5368
  861MOL0     H16171   1.752   8.820   2.017  0.8404 -0.7187 -1.3084
  861MOL0     H16172   1.963   8.831   2.074  0.6146  0.0046 -1.3748
  861MOL0     H16173   1.942   8.735   2.224 -1.0826  0.9258  0.1357
  861MOL0     H16174   1.913   8.536   2.086  0.6153 -1.2092 -0.4171
  861MOL0     H16175   1.928   8.628   1.930  0.8866 -3.3151 -0.0766
  861MOL0     H16176   2.142   8.708   1.974  1.4053 -2.6233 -1.9403
  861MOL0     H16177   2.151   8.619   2.135 -1.5427  2.2427  1.1323
  861MOL0     H16178   2.132   8.406   2.031  1.8619  0.6806  1.6181
  861MOL0     H16179   2.088   8.474   1.872  1.0014 -0.7329 -0.3117
  861MOL0     H16180   2.324   8.570   1.850  2.6878 -1.4451 -1.2730
  861MOL0     H16181   2.350   8.520   2.018 -0.1803 -0.5795  0.1881
  861MOL0     H16182   2.305   8.284   1.947 -2.1742 -0.0989  0.0625
  861MOL0     H16183   2.281   8.330   1.785 -1.9568 -0.8093  1.7312
  861MOL0     H16184   2.524   8.341   1.967  0.3255 -0.5480 -0.4319
  861MOL0     H16185   2.539   8.404   1.802 -2.3745  0.4175 -0.9565
  861MOL0     H16186   2.522   8.100   2.016 -2.3893 -1.4674  0.0740
  861MOL0     H16187   2.643   7.802   1.850 -0.5843 -1.9236  0.7765
  861MOL0     H16188   2.535   7.830   1.990  0.1292 -1.5523  0.0977
  861MOL0     H16189   2.472   7.622   1.880  1.8260  0.7188  0.9094
  861MOL0     H16190   2.449   7.722   1.728  0.4385  1.3089  0.1311
  861MOL0     H16191   2.265   7.856   1.846 -0.8126  0.6645  3.2858
  861MOL0     H16192   2.275   7.741   1.973 -0.0799  2.1356  0.9072
  861MOL0     H16193   2.270   7.549   1.780 -1.3841 -0.6177  0.3492
  861MOL0     H16194   2.231   7.681   1.672  1.7008 -0.6562 -0.5393
  861MOL0     H16195   1.881   7.764   1.800 -1.4864  0.9936 -0.2229
  861MOL0     H16196   1.676   7.839   1.658 -2.9010  1.2906 -2.0399
  861MOL0     H16197   1.546   7.724   1.625  0.6479  0.0481 -0.4830
  861MOL0     H16198   1.618   7.730   1.785 -0.2748  0.8108 -0.2592
  861MOL0     H16199   1.492   7.271   1.468 -0.9569  1.7535  0.3680
  861MOL0     H16200   1.322   7.164   1.350 -0.1595  0.6369  0.2547
  861MOL0     H16201   1.193   7.049   1.197  1.6525 -1.0169 -0.8161
  861MOL0     H16202   1.116   7.203   1.151 -0.0381 -0.4710 -0.8815
  861MOL0     H16203   1.144   7.105   0.901 -0.6159 -2.5173 -0.6655
  861MOL0     H16204   1.159   6.951   0.987  1.3804 -0.2044  1.3122
  861MOL0     H16205   0.935   7.149   0.995 -1.4454 -0.5555 -0.9595
  861MOL0     H16206   0.941   7.003   1.098 -0.7899 -0.6205 -0.3241
  861MOL0     H16207   0.973   6.968   0.790  2.1387 -2.7176  0.6676
  861MOL0     H16208   0.977   6.851   0.904  1.6150  1.5121  0.6432
  861MOL0     H16209   0.735   6.854   0.790 -2.4387 -2.2219  2.2199
  861MOL0     H16210   0.728   7.010   0.863  3.3004  0.7728 -2.1197
  861MOL0     H16211   0.756   6.860   1.098 -0.3770  1.0069  1.3940
  861MOL0     H16212   0.615   6.827   1.009  0.1922 -0.4280  1.9402
  861MOL0     H16213   0.880   6.684   1.007  0.2872 -1.1414 -1.5109
  861MOL0     H16214   0.779   6.661   0.872  0.4544  0.9216 -0.1176
  861MOL0     H16215   0.672   6.609   1.151 -2.4366  0.5088 -1.1158
  861MOL0     H16216   0.749   6.477   1.054 -3.1707 -1.8413 -0.3316
  861MOL0     H16217   1.497   7.292   0.979 -2.1289 -1.8350  0.0739
  861MOL0     H16218   1.673   7.419   1.124  0.8891  0.4763 -0.3495
  861MOL0     H16219   1.898   7.381   1.489 -1.4827 -1.7924  1.1725
  861MOL0     H16220   2.098   7.434   1.627 -1.4016 -0.8003  0.2686
  861MOL0     H16221   1.869   9.022   2.084 -0.7176 -1.4306 -1.1689
  861MOL0     H16222   1.785   9.251   2.002  1.5060 -0.0983  0.8797
  861MOL0     H16223   1.433   9.624   2.318  0.3309  1.5142  0.3989
  861MOL0     H16224   1.253   9.787   2.271 -0.7475 -0.0425 -0.5824
  861MOL0     H16225   0.986   9.828   2.131  1.6181  0.8400  0.9626
  861MOL0     H16226   1.107   9.949   2.186 -1.7871  1.6595 -0.0184
  861MOL0     H16227   0.921   9.965   1.950  0.1924  2.2676 -1.3186
  861MOL0     H16228   1.073  10.058   1.960  3.0221 -1.9614  1.5947
  861MOL0     H16229   0.976  10.159   2.173 -1.5961  0.5381  0.8576
  861MOL0     H16230   0.845  10.050   2.162  0.7776 -2.0985 -0.2195
  861MOL0     H16231   0.772  10.150   1.947 -1.0412  0.2331 -0.2502
  861MOL0     H16232   0.911  10.256   1.943 -2.5762  0.1202 -1.3995
  861MOL0     H16233   0.622  10.459   2.191 -0.7695  0.8164 -1.2442
  861MOL0     H16234   1.237   9.681   1.873  1.8969  1.2486 -1.0736
  861MOL0     H16235   1.439   9.498   1.908  2.4362  1.9841 -1.0426
  862MOL0     O16236   7.461   0.393   9.441 -0.3176  1.4175 -0.0111
  862MOL0     C16237   7.540   0.489   9.453 -0.3933 -0.6049  0.2001
  862MOL0     O16238   7.519   0.618   9.407  0.3346  0.1261  0.4309
  862MOL0     C16239   7.399   0.659   9.355 -0.2339  0.4767  0.1062
  862MOL0     C16240   7.403   0.767   9.267  0.2857  0.0893  0.2929
  862MOL0     C16241   7.281   0.805   9.210  0.9636  0.3001 -0.7136
  862MOL0     C16242   7.157   0.745   9.233 -0.2659 -0.9665 -0.7320
  862MOL0     O16243   7.050   0.773   9.157  0.9037 -0.2093 -0.4004
  862MOL0     C16244   6.919   0.730   9.217  0.1636 -0.8394 -0.4141
  862MOL0     C16245   6.814   0.823   9.156  0.4761 -0.4330  0.7318
  862MOL0     C16246   6.732   0.907   9.264  0.1210  1.3425 -0.1863
  862MOL0     C16247   6.579   0.877   9.237 -0.9077  0.2070 -0.2613
  862MOL0     C16248   6.491   0.963   9.330  0.4968  0.2230 -1.1255
  862MOL0     C16249   6.339   0.934   9.317 -0.0699  0.1984  0.9569
  862MOL0     C16250   6.255   1.020   9.416 -0.5977 -0.3696  0.7130
  862MOL0     C16251   6.124   0.933   9.413  0.1458 -0.5272 -0.4093
  862MOL0     N16252   6.029   1.010   9.497 -0.2399 -0.1301 -0.8045
  862MOL0     C16253   5.907   1.050   9.456 -0.0880  0.4232 -0.1518
  862MOL0     C16254   5.839   1.107   9.561  0.5962 -0.0423  0.8452
  862MOL0     C16255   5.712   1.176   9.560 -0.1092 -0.0397 -0.1311
  862MOL0     C16256   5.660   1.213   9.423  0.0925  0.9756  0.1098
  862MOL0     C16257   5.521   1.281   9.430  0.2764  0.6177 -1.6535
  862MOL0     C16258   5.542   1.427   9.477 -0.1565  1.1245 -0.1436
  862MOL0     O16259   5.630   1.491   9.382  0.3952 -0.8315 -0.0747
  862MOL0     C16260   5.574   1.532   9.260  1.0576 -0.0241 -0.8774
  862MOL0     C16261   5.664   1.587   9.172  0.3901 -0.9402 -0.2506
  862MOL0     C16262   5.627   1.630   9.040 -0.1840 -0.0039 -0.4721
  862MOL0     C16263   5.730   1.696   8.960  0.2652  0.0053  0.2587
  862MOL0     C16264   5.486   1.630   8.999  0.5820  0.4141 -0.3931
  862MOL0     C16265   5.431   1.681   8.875  0.1663 -0.3513  1.1727
  862MOL0     O16266   5.499   1.796   8.809  0.5233  0.7974 -0.5596
  862MOL0     C16267   5.443   1.845   8.697  0.2756 -0.8733  0.3415
  862MOL0     C16268   5.526   1.870   8.585 -0.0396  0.4218  0.2707
  862MOL0     C16269   5.478   1.905   8.461 -0.2131  1.0379 -0.5305
  862MOL0     C16270   5.343   1.930   8.436  0.1659  0.0789  0.0818
  862MOL0     O16271   5.310   1.969   8.308  0.7511  0.0022 -0.2112
  862MOL0     C16272   5.212   2.072   8.279 -0.2370 -0.0188  0.4243
  862MOL0     C16273   5.233   2.196   8.362 -0.3117 -0.2671  0.1830
  862MOL0     C16274   5.364   2.269   8.330  0.2383 -0.0910 -0.0576
  862MOL0     C16275   5.355   2.379   8.221  0.0782 -0.2417 -0.0094
  862MOL0     C16276   5.483   2.454   8.198  0.2582 -0.3973 -0.4765
  862MOL0     C16277   5.586   2.365   8.148 -0.5465  0.2690  0.0361
  862MOL0     C16278   5.720   2.439   8.125 -0.8488  0.3019  0.4782
  862MOL0     C16279   5.732   2.475   7.976  0.2450  0.6417 -0.7121
  862MOL0    Cl16280   5.615   2.599   7.927  0.1596  0.2362  0.6832
  862MOL0     C16281   5.261   1.925   8.547  0.2109 -0.8910 -1.4776
  862MOL0     C16282   5.308   1.884   8.675 -0.3386 -0.1118  0.1932
  862MOL0     O16283   5.321   1.642   8.848  0.6796 -0.5311 -0.0217
  862MOL0     C16284   5.403   1.571   9.084 -0.1607  0.2410  0.1458
  862MOL0     C16285   5.446   1.508   9.206 -0.9068 -0.6891  0.0237
  862MOL0     N16286   5.929   1.106   9.663 -0.3846  0.5441  0.7058
  862MOL0     N16287   6.042   1.044   9.625 -0.2545 -0.7108 -0.4665
  862MOL0     C16288   7.162   0.644   9.332 -0.2820 -0.6253 -0.5885
  862MOL0     C16289   7.276   0.605   9.395  1.1851 -0.1574 -0.6085
  862MOL0     C16290   7.667   0.459   9.519  0.6156 -0.0592 -0.1310
  862MOL0     C16291   7.704   0.327   9.538  1.0706 -0.5738 -0.0651
  862MOL0     C16292   7.816   0.296   9.610 -0.2413  0.3042  0.5666
  862MOL0     C16293   7.895   0.398   9.663  0.6456  0.5609  0.2705
  862MOL0     O16294   8.007   0.375   9.740  0.8825  0.4634 -0.5098
  862MOL0     C16295   8.105   0.298   9.674 -0.5359 -0.2159  0.4227
  862MOL0     C16296   8.236   0.305   9.749  0.3622  0.1761 -0.3419
  862MOL0     C16297   8.287   0.446   9.773 -0.3590  0.1931 -0.0900
  862MOL0     C16298   8.404   0.444   9.870 -0.1149  0.9628  0.3883
  862MOL0     C16299   8.480   0.571   9.876  0.4081  0.1220 -0.4636
  862MOL0     C16300   8.543   0.677   9.874 -0.2822  1.0548  0.6157
  862MOL0     C16301   7.862   0.528   9.646  0.1884 -1.1640 -1.3227
  862MOL0     C16302   7.751   0.557   9.568 -0.0184 -0.7104  0.8152
  862MOL0     H16303   7.494   0.820   9.238  1.6476 -1.8351  0.8662
  862MOL0     H16304   7.278   0.871   9.124 -2.5356 -0.0687 -1.0294
  862MOL0     H16305   6.898   0.626   9.194 -2.3040  0.1849 -3.4309
  862MOL0     H16306   6.916   0.750   9.325  2.0639 -1.8428 -0.1312
  862MOL0     H16307   6.865   0.907   9.108 -0.6680  0.3489  0.8660
  862MOL0     H16308   6.747   0.779   9.083 -0.6905  1.0632  0.8547
  862MOL0     H16309   6.745   0.883   9.370  0.4941 -1.3313 -0.7691
  862MOL0     H16310   6.738   1.015   9.246 -2.1443  1.4252 -0.6989
  862MOL0     H16311   6.539   0.892   9.136 -2.1519 -3.3305 -0.4234
  862MOL0     H16312   6.554   0.772   9.253 -3.8983  0.8684  0.0538
  862MOL0     H16313   6.526   0.952   9.433  1.2838  3.6810 -0.9171
  862MOL0     H16314   6.504   1.070   9.312  1.0766  0.2224 -0.7136
  862MOL0     H16315   6.319   0.944   9.210  1.4704 -0.9719  0.5132
  862MOL0     H16316   6.325   0.827   9.337 -1.0448  0.1915  0.2491
  862MOL0     H16317   6.310   1.030   9.510  3.0353 -0.5074 -1.2013
  862MOL0     H16318   6.235   1.112   9.360 -1.6854 -1.9150 -1.5745
  862MOL0     H16319   6.146   0.836   9.458 -0.7176  1.0409  3.8587
  862MOL0     H16320   6.074   0.904   9.321  1.2091 -2.3995 -0.4582
  862MOL0     H16321   5.868   1.040   9.355 -1.0334 -0.9901  0.3317
  862MOL0     H16322   5.644   1.111   9.616  2.0749 -0.8624  1.7295
  862MOL0     H16323   5.725   1.270   9.614 -1.5789 -0.4250  0.9373
  862MOL0     H16324   5.638   1.122   9.368  0.0616  1.8575 -1.3990
  862MOL0     H16325   5.730   1.269   9.361 -1.0275 -0.3109 -2.4561
  862MOL0     H16326   5.456   1.232   9.504  3.2641  0.4942  1.1380
  862MOL0     H16327   5.474   1.260   9.334 -2.2849  0.6662 -0.4809
  862MOL0     H16328   5.592   1.434   9.575  2.0622 -1.1907 -0.9776
  862MOL0     H16329   5.447   1.479   9.492 -0.5376 -0.2885  3.6149
  862MOL0     H16330   5.769   1.603   9.196 -0.3006 -0.5314  3.0895
  862MOL0     H16331   5.743   1.663   8.856  3.1394  0.3536  0.4439
  862MOL0     H16332   5.706   1.803   8.959  1.3171  0.2497 -0.3831
  862MOL0     H16333   5.826   1.669   9.004  0.9313 -3.6158 -2.8562
  862MOL0     H16334   5.630   1.845   8.604 -0.8506 -3.2041  0.5988
  862MOL0     H16335   5.553   1.900   8.383 -0.6849 -1.2650 -0.9133
  862MOL0     H16336   5.214   2.097   8.173  0.6737 -0.3858  0.3451
  862MOL0     H16337   5.114   2.030   8.302 -0.4636  2.3782  5.1274
  862MOL0     H16338   5.157   2.273   8.347 -0.6694 -1.0123 -2.2754
  862MOL0     H16339   5.223   2.177   8.470 -0.8522  0.4640  0.2642
  862MOL0     H16340   5.436   2.189   8.315  0.3899 -0.3099  1.5921
  862MOL0     H16341   5.391   2.314   8.427 -0.9876 -0.4755  0.4775
  862MOL0     H16342   5.333   2.335   8.123 -3.4297 -0.5923  0.8082
  862MOL0     H16343   5.273   2.450   8.234 -2.2386 -2.6542 -0.5190
  862MOL0     H16344   5.516   2.485   8.297  3.3019 -1.0032 -1.2018
  862MOL0     H16345   5.476   2.537   8.126 -0.8471 -0.8442 -0.9123
  862MOL0     H16346   5.612   2.303   8.234  2.2108  1.0393 -0.1304
  862MOL0     H16347   5.564   2.304   8.059  1.2393 -1.1176  0.4741
  862MOL0     H16348   5.804   2.370   8.142  1.9730  3.0092 -1.4466
  862MOL0     H16349   5.725   2.522   8.196  0.9179 -0.4665  1.3145
  862MOL0     H16350   5.719   2.380   7.923 -0.8968 -1.9268  3.6394
  862MOL0     H16351   5.832   2.509   7.949  1.0024 -3.3262 -3.8471
  862MOL0     H16352   5.160   1.966   8.544  0.5327  0.1575  0.4323
  862MOL0     H16353   5.250   1.884   8.766 -0.1620  1.4524  0.3292
  862MOL0     H16354   5.297   1.559   9.063  0.0045 -2.2550  0.4491
  862MOL0     H16355   5.367   1.455   9.259 -0.6241  0.2242  1.4324
  862MOL0     H16356   7.081   0.578   9.362  0.2051 -1.8501 -1.8845
  862MOL0     H16357   7.267   0.526   9.469 -0.7708  0.3381 -0.2628
  862MOL0     H16358   7.656   0.244   9.487  1.9971 -1.3154  0.2331
  862MOL0     H16359   7.840   0.191   9.616 -0.7861  0.1796  0.5887
  862MOL0     H16360   8.061   0.198   9.665  0.1421 -0.4027 -1.2591
  862MOL0     H16361   8.128   0.340   9.575  0.4073  0.3261  0.8640
  862MOL0     H16362   8.318   0.241   9.715  0.1260 -0.7389  0.7493
  862MOL0     H16363   8.209   0.263   9.847  1.4336  0.6280  0.1734
  862MOL0     H16364   8.209   0.508   9.818  1.3737  1.5208  1.2558
  862MOL0     H16365   8.309   0.485   9.673 -1.2222 -1.4085 -0.9457
  862MOL0     H16366   8.472   0.360   9.854  0.0863  0.9943  1.0478
  862MOL0     H16367   8.362   0.428   9.970  0.4106 -1.2120  0.3132
  862MOL0     H16368   8.594   0.771   9.859  1.2125  0.3983  1.3603
  862MOL0     H16369   7.922   0.608   9.688 -1.2863 -1.2812  1.2383
  862MOL0     H16370   7.725   0.662   9.559  1.8367 -0.2667  0.2193
  863MOL0     O16371   1.328  11.190   9.571  0.7281 -0.6584  0.2013
  863MOL0     C16372   1.283  11.309   9.590  0.8955  0.4045  0.3088
  863MOL0     O16373   1.354  11.412   9.634  0.3427 -1.1820  0.0812
  863MOL0     C16374   1.473  11.377   9.694  1.0028  0.1260  0.2106
  863MOL0     C16375   1.587  11.368   9.611  0.0643  0.2073 -0.3396
  863MOL0     C16376   1.704  11.331   9.668  0.3763  0.0168 -0.4861
  863MOL0     C16377   1.720  11.318   9.809 -0.8894  0.2675 -0.3846
  863MOL0     O16378   1.843  11.295   9.851  0.7855 -0.2136  0.9274
  863MOL0     C16379   1.899  11.346   9.976  0.5774  0.4478 -1.2350
  863MOL0     C16380   2.046  11.303   9.987  0.9858 -1.0185 -0.1001
  863MOL0     C16381   2.078  11.152  10.003  0.3137 -0.0410  0.8761
  863MOL0     C16382   2.079  11.095   9.857  0.3795 -0.9377 -0.6567
  863MOL0     C16383   2.159  10.960   9.862 -0.0653  0.4833 -0.6403
  863MOL0     C16384   2.171  10.889   9.729  0.4775  0.0390 -0.8438
  863MOL0     C16385   2.040  10.901   9.640 -0.6812 -0.3390  0.3007
  863MOL0     C16386   2.045  10.801   9.531  0.6294  0.0667  0.9923
  863MOL0     N16387   1.911  10.805   9.473  0.1181  0.3068  0.8060
  863MOL0     C16388   1.790  10.772   9.528 -0.3269  0.0125  0.7310
  863MOL0     C16389   1.699  10.825   9.446  0.5015 -1.5085 -1.6577
  863MOL0     C16390   1.555  10.808   9.468  0.3847  0.0705 -0.1028
  863MOL0     C16391   1.508  10.692   9.381  0.5984  0.0779  0.2056
  863MOL0     C16392   1.357  10.690   9.383 -0.5706  0.6798  0.3305
  863MOL0     C16393   1.303  10.541   9.366 -0.0819 -1.2263 -0.4563
  863MOL0     O16394   1.346  10.453   9.467 -0.2650 -0.8976 -0.2067
  863MOL0     C16395   1.302  10.478   9.599  0.2763  0.4110  1.0529
  863MOL0     C16396   1.163  10.478   9.624 -0.7898  0.2119 -1.2518
  863MOL0     C16397   1.110  10.507   9.748  0.1287 -0.3392 -0.2190
  863MOL0     C16398   0.960  10.506   9.764 -0.5245 -0.6215 -0.2878
  863MOL0     C16399   1.201  10.545   9.853  0.1631  0.6879  0.5527
  863MOL0     C16400   1.152  10.567   9.998  0.0393 -0.1062 -0.4623
  863MOL0     O16401   1.050  10.498  10.043  0.0869  1.0909  0.2668
  863MOL0     C16402   1.052  10.483  10.181  0.3275 -0.4539 -0.0538
  863MOL0     C16403   1.098  10.366  10.247  0.1213  0.7297 -0.0333
  863MOL0     C16404   1.075  10.345  10.388 -0.2461 -0.3261  0.2911
  863MOL0     C16405   1.041  10.449  10.466  0.5462  0.0984 -0.0911
  863MOL0     O16406   1.047  10.421  10.603  0.1095  0.3303  0.2292
  863MOL0     C16407   1.065  10.518  10.694  0.8185 -0.9776  0.7015
  863MOL0     C16408   1.080  10.472  10.837 -0.0121  0.1686 -0.4395
  863MOL0     C16409   1.186  10.369  10.846 -0.4950 -0.5882  0.2022
  863MOL0     C16410   1.322  10.414  10.783 -0.2144 -0.2488 -0.2097
  863MOL0     C16411   1.431  10.319  10.828  0.3940  0.1149  0.1316
  863MOL0     C16412   1.579  10.350  10.778  1.1950 -0.3322 -0.1516
  863MOL0     C16413   1.675  10.270  10.859 -0.3706 -0.7779 -0.4548
  863MOL0     C16414   1.706  10.335  10.992 -0.4349 -0.1217 -0.2647
  863MOL0    Cl16415   1.780  10.217  11.110 -0.3215  0.3971 -0.0661
  863MOL0     C16416   1.011  10.573  10.416  0.7036 -1.0248  0.3388
  863MOL0     C16417   1.010  10.588  10.277 -0.8237 -0.7548 -0.2602
  863MOL0     O16418   1.221  10.645  10.065  0.7650  0.4968 -0.1429
  863MOL0     C16419   1.339  10.555   9.825  0.3649 -0.0218  0.0290
  863MOL0     C16420   1.384  10.523   9.691 -0.2820 -0.5257 -0.6333
  863MOL0     N16421   1.760  10.891   9.337 -0.1530  0.3770  0.3151
  863MOL0     N16422   1.889  10.874   9.351 -0.0720 -0.7399  0.4491
  863MOL0     C16423   1.615  11.330   9.895  0.1439 -0.2006  0.1107
  863MOL0     C16424   1.487  11.358   9.832  0.0233 -0.5629 -1.4195
  863MOL0     C16425   1.145  11.334   9.543 -0.2985 -1.0482 -0.2905
  863MOL0     C16426   1.047  11.237   9.521  0.2767 -0.7251 -0.0460
  863MOL0     C16427   0.916  11.269   9.484 -0.9952  0.1706  0.3618
  863MOL0     C16428   0.889  11.399   9.441 -0.1058  0.3203 -0.2241
  863MOL0     O16429   0.761  11.437   9.412  1.0661  1.4344  0.2978
  863MOL0     C16430   0.713  11.375   9.284 -0.4694 -0.5121 -0.4082
  863MOL0     C16431   0.591  11.450   9.228  0.1347 -0.6568  0.1673
  863MOL0     C16432   0.611  11.595   9.209  0.1743 -0.0068  0.0341
  863MOL0     C16433   0.488  11.642   9.133  0.6500 -0.3829  0.4560
  863MOL0     C16434   0.465  11.791   9.149 -0.9438  0.6631  0.5418
  863MOL0     C16435   0.443  11.903   9.188 -0.1221  0.0258 -0.8199
  863MOL0     C16436   0.985  11.497   9.459  1.2393 -0.0675 -0.2251
  863MOL0     C16437   1.118  11.463   9.506  0.6024  0.6417  0.0805
  863MOL0     H16438   1.569  11.379   9.504  2.4557  1.7150 -0.6601
  863MOL0     H16439   1.785  11.301   9.602  1.9363  1.0256  0.8901
  863MOL0     H16440   1.897  11.455   9.978  5.1222  0.7013  1.8436
  863MOL0     H16441   1.845  11.305  10.062  1.4138 -2.8022 -2.0878
  863MOL0     H16442   2.091  11.351   9.900  1.0427 -1.1578 -0.1480
  863MOL0     H16443   2.088  11.353  10.074 -2.0329 -0.5902  1.2212
  863MOL0     H16444   2.175  11.140  10.052  1.6919  1.0639 -1.3867
  863MOL0     H16445   1.996  11.108  10.060 -2.3093 -0.1071 -2.5893
  863MOL0     H16446   1.976  11.057   9.852  0.0721 -0.4823  1.5004
  863MOL0     H16447   2.110  11.162   9.776  1.0316 -2.7269 -1.9633
  863MOL0     H16448   2.258  10.979   9.904 -0.3289 -1.0045  0.7696
  863MOL0     H16449   2.112  10.887   9.929  0.8190 -1.9669 -2.5702
  863MOL0     H16450   2.268  10.909   9.683  2.7722  0.8926  3.7332
  863MOL0     H16451   2.177  10.786   9.765  0.4552  1.0596  2.4035
  863MOL0     H16452   1.951  10.892   9.704 -2.0995  3.0802 -0.9903
  863MOL0     H16453   2.039  10.998   9.590  0.4592 -1.3940 -1.8815
  863MOL0     H16454   2.067  10.700   9.569 -2.2187 -0.9963  0.0444
  863MOL0     H16455   2.115  10.831   9.452  1.2526 -0.3000  1.3887
  863MOL0     H16456   1.782  10.709   9.617 -0.0775 -1.7162 -0.4220
  863MOL0     H16457   1.518  10.777   9.566 -3.4997  1.9538 -0.7788
  863MOL0     H16458   1.503  10.901   9.441  2.3019  0.6970 -1.9096
  863MOL0     H16459   1.539  10.599   9.430 -3.2165 -1.7593 -0.4697
  863MOL0     H16460   1.553  10.698   9.282  0.6484  1.6384  0.2910
  863MOL0     H16461   1.309  10.738   9.298 -2.9142 -0.8738  0.6705
  863MOL0     H16462   1.320  10.744   9.471  3.1876  2.4030  1.0732
  863MOL0     H16463   1.324  10.502   9.266 -3.1003  3.3363 -3.2397
  863MOL0     H16464   1.195  10.546   9.383 -0.3185 -1.2519 -1.8739
  863MOL0     H16465   1.091  10.450   9.548 -0.5945  1.0208 -1.7426
  863MOL0     H16466   0.922  10.452   9.851 -1.3887 -1.8554 -1.3876
  863MOL0     H16467   0.925  10.608   9.785 -1.2272 -1.0995  0.9820
  863MOL0     H16468   0.921  10.465   9.670  0.6021 -0.0044 -1.0451
  863MOL0     H16469   1.129  10.282  10.186  1.5304  1.9240 -1.0128
  863MOL0     H16470   1.087  10.252  10.442  2.3205  0.7441  1.7553
  863MOL0     H16471   1.146  10.582  10.659 -1.3556  2.1593  0.9609
  863MOL0     H16472   0.967  10.568  10.695  1.7109  0.9947 -0.9883
  863MOL0     H16473   1.101  10.557  10.903 -0.9538 -0.0382  0.1456
  863MOL0     H16474   0.987  10.421  10.864  1.3881 -3.0219 -1.1498
  863MOL0     H16475   1.156  10.277  10.796 -1.3302 -0.0127 -0.3788
  863MOL0     H16476   1.196  10.355  10.954  0.2453  5.4102  1.3011
  863MOL0     H16477   1.328  10.417  10.674 -1.0479  0.4799 -0.2442
  863MOL0     H16478   1.356  10.516  10.807  1.8972 -0.4645 -1.9502
  863MOL0     H16479   1.408  10.215  10.803 -2.7277  0.2763  1.7951
  863MOL0     H16480   1.432  10.330  10.937  0.1589  0.1322  0.1313
  863MOL0     H16481   1.592  10.330  10.671  1.2047  2.8429 -0.8656
  863MOL0     H16482   1.586  10.458  10.796  0.6279 -0.1124 -1.1380
  863MOL0     H16483   1.770  10.257  10.807 -0.6264 -0.8133 -0.9241
  863MOL0     H16484   1.628  10.175  10.886  0.8510 -0.9245  1.3009
  863MOL0     H16485   1.616  10.379  11.034 -0.3121 -0.6653  0.5833
  863MOL0     H16486   1.783  10.413  10.981  2.5436 -2.6597  1.0263
  863MOL0     H16487   0.990  10.654  10.485  2.5959  0.1972 -0.4192
  863MOL0     H16488   0.985  10.684  10.233  0.0073 -0.0421  0.7688
  863MOL0     H16489   1.409  10.585   9.902  2.3343  1.0879 -2.0770
  863MOL0     H16490   1.492  10.530   9.686 -0.2773  2.3204  1.1075
  863MOL0     H16491   1.619  11.313  10.002 -0.8781 -3.1923 -0.2280
  863MOL0     H16492   1.395  11.360   9.889  0.6962  1.9003 -0.2584
  863MOL0     H16493   1.062  11.132   9.543  0.3173 -0.2829  2.3927
  863MOL0     H16494   0.851  11.185   9.461  1.5010 -1.4324 -1.3326
  863MOL0     H16495   0.795  11.378   9.211  1.3426 -2.5102  1.3917
  863MOL0     H16496   0.671  11.275   9.298 -1.7241 -0.0472 -0.7144
  863MOL0     H16497   0.515  11.414   9.298  2.3734 -1.4094  2.3513
  863MOL0     H16498   0.556  11.410   9.132 -0.1465 -1.8977  0.7666
  863MOL0     H16499   0.703  11.602   9.151 -0.8896 -1.0747 -1.8520
  863MOL0     H16500   0.621  11.653   9.302 -1.3811  1.8733 -0.8757
  863MOL0     H16501   0.396  11.590   9.161 -0.0171 -0.1385 -1.1592
  863MOL0     H16502   0.509  11.619   9.028  2.7356  3.0952 -0.0576
  863MOL0     H16503   0.405  11.984   9.246 -1.1457 -1.6539  0.9601
  863MOL0     H16504   0.968  11.601   9.434  0.5789 -0.3530 -1.0413
  863MOL0     H16505   1.185  11.548   9.511 -0.3692  1.6284 -2.1527
  864MOL0     O16506   6.720   8.258   4.905  0.0066 -0.5449  0.3711
  864MOL0     C16507   6.794   8.224   4.999 -0.4559  0.6350 -0.4249
  864MOL0     O16508   6.751   8.195   5.128 -0.4133 -0.9704  0.3027
  864MOL0     C16509   6.617   8.215   5.165 -0.2732  0.1616  0.1786
  864MOL0     C16510   6.552   8.118   5.246 -0.5650  0.2078  0.8067
  864MOL0     C16511   6.415   8.141   5.277 -0.8588 -0.3740  0.1639
  864MOL0     C16512   6.347   8.249   5.225 -0.4577 -0.0353 -0.0892
  864MOL0     O16513   6.215   8.258   5.263 -0.1026  0.1213 -0.2624
  864MOL0     C16514   6.139   8.366   5.223 -0.3250 -0.0879 -0.0636
  864MOL0     C16515   6.003   8.328   5.252  0.1363  0.1418 -0.6919
  864MOL0     C16516   5.932   8.207   5.183 -0.3313  0.3055  0.1917
  864MOL0     C16517   5.932   8.227   5.023 -0.6003 -0.3102 -1.3931
  864MOL0     C16518   5.824   8.151   4.956  0.1818 -1.4217  0.1000
  864MOL0     C16519   5.827   8.197   4.809  0.0795  0.6480  0.5641
  864MOL0     C16520   5.729   8.108   4.727  0.0174  0.0747  0.6192
  864MOL0     C16521   5.728   8.144   4.577 -0.2633  0.3105  0.8404
  864MOL0     N16522   5.667   8.034   4.494 -0.5002  0.3841 -0.1816
  864MOL0     C16523   5.535   7.997   4.480  0.2232 -0.4007 -0.4050
  864MOL0     C16524   5.539   7.896   4.393 -0.4924 -0.2976 -0.0295
  864MOL0     C16525   5.426   7.818   4.329 -0.1982 -0.9284 -0.3640
  864MOL0     C16526   5.382   7.899   4.201 -0.6554  0.4633 -1.2642
  864MOL0     C16527   5.487   7.876   4.092  0.5158 -1.2488 -0.0977
  864MOL0     C16528   5.448   7.958   3.967  0.5286  0.0357 -0.2855
  864MOL0     O16529   5.490   8.096   3.960  0.1819  0.5519 -0.5384
  864MOL0     C16530   5.458   8.171   3.847 -0.8131  1.4627 -0.1155
  864MOL0     C16531   5.539   8.285   3.831 -1.0708  0.9159 -0.1745
  864MOL0     C16532   5.535   8.361   3.719 -0.6628  0.0686 -0.2802
  864MOL0     C16533   5.612   8.495   3.724  0.3247 -0.8485 -0.6216
  864MOL0     C16534   5.451   8.328   3.613  1.0280 -0.0865 -0.1088
  864MOL0     C16535   5.425   8.407   3.495 -0.6334 -0.7241 -1.1164
  864MOL0     O16536   5.304   8.409   3.443  0.0160  0.0646  0.1828
  864MOL0     C16537   5.279   8.501   3.341  0.2766  0.4896 -0.7783
  864MOL0     C16538   5.304   8.644   3.345  0.6136  0.3558  0.6914
  864MOL0     C16539   5.296   8.713   3.227  0.4193 -1.6437 -0.9558
  864MOL0     C16540   5.261   8.657   3.110  0.2293 -0.3286 -0.6933
  864MOL0     O16541   5.249   8.739   2.995 -0.4852  0.9952 -1.1065
  864MOL0     C16542   5.201   8.683   2.876  1.1674 -0.7215  0.1868
  864MOL0     C16543   5.185   8.788   2.767 -0.3093  0.3852 -0.5059
  864MOL0     C16544   5.067   8.890   2.796 -0.9757  0.0241  0.4264
  864MOL0     C16545   5.044   8.981   2.671 -0.5837 -0.2839 -0.1707
  864MOL0     C16546   4.964   9.114   2.709  0.6633  0.6767  0.1529
  864MOL0     C16547   4.970   9.213   2.592  0.2823 -0.0959  0.5975
  864MOL0     C16548   4.884   9.167   2.469 -0.2748  0.0492  0.6662
  864MOL0     C16549   4.745   9.226   2.478  0.2737  0.3230 -0.1719
  864MOL0    Cl16550   4.669   9.143   2.347 -0.0877 -0.2171 -0.7476
  864MOL0     C16551   5.229   8.523   3.102  0.5503 -0.7533 -1.0416
  864MOL0     C16552   5.236   8.448   3.220  0.0346 -0.0508  0.1082
  864MOL0     O16553   5.523   8.478   3.453  0.0408 -0.2062  0.4972
  864MOL0     C16554   5.371   8.216   3.629  0.4156 -0.7856 -0.2694
  864MOL0     C16555   5.385   8.128   3.740 -0.6949  0.0613  0.7767
  864MOL0     N16556   5.674   7.869   4.360 -0.5124  0.2225 -0.3918
  864MOL0     N16557   5.743   7.956   4.416  0.2178 -0.3800  0.3430
  864MOL0     C16558   6.416   8.344   5.145 -0.3179  0.7848 -0.4588
  864MOL0     C16559   6.551   8.335   5.114  0.1129  0.1890  0.5840
  864MOL0     C16560   6.935   8.199   4.953 -0.2259 -0.4632  0.0582
  864MOL0     C16561   7.023   8.150   5.047  0.5695 -0.2711 -0.0360
  864MOL0     C16562   7.157   8.098   5.017 -0.1412 -0.3248  0.5398
  864MOL0     C16563   7.201   8.125   4.887 -0.0073 -1.3315  0.6825
  864MOL0     O16564   7.320   8.097   4.840 -0.1292  0.1319  0.4305
  864MOL0     C16565   7.422   8.186   4.880  0.1809 -1.7268 -0.1291
  864MOL0     C16566   7.426   8.317   4.808 -0.2372 -0.5774 -0.1969
  864MOL0     C16567   7.446   8.323   4.658  0.2159 -0.3891 -0.8972
  864MOL0     C16568   7.528   8.449   4.606 -0.4680  0.5760 -0.1664
  864MOL0     C16569   7.590   8.404   4.481  0.1621  0.1847 -0.0135
  864MOL0     C16570   7.627   8.389   4.366 -0.2043  0.6646  0.2310
  864MOL0     C16571   7.117   8.186   4.789  0.8819  0.9172  0.9053
  864MOL0     C16572   6.981   8.219   4.819 -0.1323  0.5359  0.6935
  864MOL0     H16573   6.596   8.020   5.266 -1.2104 -0.5901 -1.4174
  864MOL0     H16574   6.353   8.069   5.330 -0.9275 -2.9310 -3.1033
  864MOL0     H16575   6.174   8.455   5.276  2.2869  0.8900 -3.0608
  864MOL0     H16576   6.148   8.377   5.114 -1.2162 -1.9390 -0.3626
  864MOL0     H16577   6.000   8.325   5.362 -2.3845 -0.0540 -0.7182
  864MOL0     H16578   5.946   8.418   5.229  0.0304 -0.0721 -1.2658
  864MOL0     H16579   5.974   8.112   5.217 -1.1538 -0.0228  0.3023
  864MOL0     H16580   5.831   8.187   5.219  1.4176 -3.9819  3.6459
  864MOL0     H16581   5.933   8.335   5.005  0.5814 -0.3058 -1.4227
  864MOL0     H16582   6.029   8.182   4.998 -1.0307 -1.1199 -1.6250
  864MOL0     H16583   5.837   8.044   4.977  0.2330 -1.6608 -1.0543
  864MOL0     H16584   5.728   8.175   5.003  0.0228 -1.4029 -0.2338
  864MOL0     H16585   5.808   8.303   4.793 -0.3544  0.7483  1.6603
  864MOL0     H16586   5.926   8.171   4.771  0.1462  0.4226  0.8896
  864MOL0     H16587   5.754   8.002   4.735  3.1805  0.6601 -0.2612
  864MOL0     H16588   5.629   8.120   4.769  0.0829 -4.6768  2.7729
  864MOL0     H16589   5.828   8.169   4.540 -1.1648 -2.6653 -4.6760
  864MOL0     H16590   5.664   8.230   4.556  0.4269  0.8587  0.9245
  864MOL0     H16591   5.448   8.046   4.522 -0.0920  2.3450 -3.7500
  864MOL0     H16592   5.467   7.721   4.299  3.1724  0.1798  0.2567
  864MOL0     H16593   5.346   7.811   4.403 -0.6000 -1.2028 -0.8108
  864MOL0     H16594   5.366   8.004   4.224 -2.0134  0.1887 -0.8514
  864MOL0     H16595   5.290   7.842   4.182 -0.7358  0.2770 -0.3931
  864MOL0     H16596   5.491   7.771   4.063  0.2748 -1.7641  1.5881
  864MOL0     H16597   5.580   7.920   4.129 -1.9200  3.5757  1.1522
  864MOL0     H16598   5.339   7.958   3.957  0.7357 -0.7123 -4.0765
  864MOL0     H16599   5.488   7.903   3.881 -1.6704 -1.2378 -0.5629
  864MOL0     H16600   5.610   8.312   3.910 -2.1873 -0.2841  1.2991
  864MOL0     H16601   5.547   8.571   3.680  1.8264  0.3064 -0.9202
  864MOL0     H16602   5.640   8.541   3.819 -2.4877  0.3473 -0.2650
  864MOL0     H16603   5.699   8.474   3.660  0.5039 -0.4428 -0.5096
  864MOL0     H16604   5.336   8.674   3.444 -3.3611  0.1638  2.2118
  864MOL0     H16605   5.330   8.816   3.234 -3.1009 -0.1766 -2.7614
  864MOL0     H16606   5.255   8.599   2.832 -1.5409 -2.5766  0.1197
  864MOL0     H16607   5.102   8.640   2.891  2.6013 -4.3864  0.0452
  864MOL0     H16608   5.279   8.839   2.742  1.3723 -1.9411  0.6776
  864MOL0     H16609   5.155   8.737   2.675 -1.0854  2.7508 -1.6543
  864MOL0     H16610   5.087   8.959   2.879  0.0036 -0.7036  0.8071
  864MOL0     H16611   4.973   8.839   2.819 -1.3488  0.4843 -0.0351
  864MOL0     H16612   5.147   9.001   2.638  1.4871 -1.6908  4.5167
  864MOL0     H16613   4.994   8.919   2.597 -2.1858  2.9634 -2.0236
  864MOL0     H16614   5.024   9.162   2.786  0.0067  0.0158  1.1017
  864MOL0     H16615   4.861   9.099   2.743 -0.1168  1.1993 -1.8536
  864MOL0     H16616   4.927   9.307   2.628 -5.1212 -2.1061  0.4095
  864MOL0     H16617   5.073   9.223   2.558  1.0985  1.6529  3.2357
  864MOL0     H16618   4.876   9.059   2.464  1.8094 -0.2876  2.7657
  864MOL0     H16619   4.940   9.205   2.383 -1.5275 -0.3210 -0.3385
  864MOL0     H16620   4.753   9.335   2.474 -0.7605  0.3853 -2.3242
  864MOL0     H16621   4.689   9.205   2.569  0.3730  0.4757 -0.0754
  864MOL0     H16622   5.200   8.482   3.006 -2.8991 -2.5310  0.5401
  864MOL0     H16623   5.214   8.342   3.213  0.4105 -0.1160 -0.0917
  864MOL0     H16624   5.290   8.197   3.559  1.3783  1.2046 -2.0213
  864MOL0     H16625   5.327   8.036   3.734  0.1475 -0.3980 -1.6415
  864MOL0     H16626   6.359   8.427   5.104 -0.9763  0.4858 -0.1772
  864MOL0     H16627   6.609   8.408   5.060  0.6225  2.5957  4.0516
  864MOL0     H16628   6.998   8.118   5.148 -1.1746 -3.3149 -1.2876
  864MOL0     H16629   7.220   8.057   5.095  1.4170  0.8814 -0.0410
  864MOL0     H16630   7.426   8.207   4.987  0.8475  0.6355 -0.5554
  864MOL0     H16631   7.519   8.144   4.850  2.7594  2.1944  1.8096
  864MOL0     H16632   7.512   8.368   4.852  4.1320 -2.9755 -4.8832
  864MOL0     H16633   7.334   8.371   4.833  1.1893  3.0143 -1.9675
  864MOL0     H16634   7.341   8.314   4.626 -1.3537 -2.9698  4.0257
  864MOL0     H16635   7.508   8.235   4.640 -0.9747 -0.9510 -2.5313
  864MOL0     H16636   7.598   8.471   4.687  1.6735  0.1067 -1.7966
  864MOL0     H16637   7.467   8.539   4.594 -2.1920 -0.5568 -0.4051
  864MOL0     H16638   7.686   8.367   4.280  2.3867 -0.1544  2.0771
  864MOL0     H16639   7.144   8.193   4.684  3.7208 -3.6132  1.0465
  864MOL0     H16640   6.905   8.254   4.749  1.1151 -0.3193 -1.1883
  865MOL0     O16641  11.366   5.424   4.331 -0.4020  0.2735  0.4139
  865MOL0     C16642  11.410   5.349   4.249  0.5484  0.1535 -0.3238
  865MOL0     O16643  11.352   5.327   4.128  0.0595  0.0533 -0.4449
  865MOL0     C16644  11.223   5.367   4.115 -0.4904  0.3120  0.6458
  865MOL0     C16645  11.201   5.462   4.013  0.6202 -0.3141 -0.3656
  865MOL0     C16646  11.064   5.500   3.987 -0.3826 -0.1571 -0.6125
  865MOL0     C16647  10.957   5.420   4.047  0.2498  0.3005 -0.0829
  865MOL0     O16648  10.827   5.433   4.021  0.2513  0.1709  0.7146
  865MOL0     C16649  10.760   5.552   4.056 -0.6176  0.4275  0.0342
  865MOL0     C16650  10.612   5.538   4.018  0.3151 -0.0345 -0.7092
  865MOL0     C16651  10.508   5.656   4.060 -0.4225  0.1480  0.0756
  865MOL0     C16652  10.455   5.631   4.199 -0.1593  0.1829  0.6657
  865MOL0     C16653  10.323   5.709   4.215 -0.6129 -0.8279  0.6596
  865MOL0     C16654  10.279   5.702   4.355  0.9561  0.1412 -0.4666
  865MOL0     C16655  10.138   5.770   4.367 -0.6774  0.0117 -0.3211
  865MOL0     C16656  10.060   5.775   4.507 -0.3917  0.2345 -0.3667
  865MOL0     N16657  10.082   5.653   4.584  0.7207 -0.2949 -0.2255
  865MOL0     C16658  10.016   5.531   4.571 -0.5569 -0.6669  0.9353
  865MOL0     C16659  10.108   5.450   4.628 -0.1130 -0.3096  0.6552
  865MOL0     C16660  10.090   5.295   4.617  0.1415 -0.1726  0.0574
  865MOL0     C16661  10.080   5.240   4.474  0.3795  1.7248 -0.1527
  865MOL0     C16662  10.213   5.212   4.404  0.9862 -0.0097 -0.2789
  865MOL0     C16663  10.191   5.123   4.285 -0.1742  0.3457  0.9109
  865MOL0     O16664  10.280   5.174   4.173 -0.1559  0.2534  0.3685
  865MOL0     C16665  10.369   5.078   4.112 -0.2789  0.5319 -0.7705
  865MOL0     C16666  10.499   5.116   4.089 -0.6984  0.6929  0.5424
  865MOL0     C16667  10.582   5.045   3.999 -0.8989 -0.5541 -0.3516
  865MOL0     C16668  10.722   5.101   3.970 -0.0847  0.0838  0.1258
  865MOL0     C16669  10.541   4.926   3.945  0.8943 -0.6514  0.4864
  865MOL0     C16670  10.635   4.843   3.861 -0.1106  0.2045  0.6576
  865MOL0     O16671  10.592   4.781   3.754  0.6549  0.0002  0.0042
  865MOL0     C16672  10.681   4.772   3.643  0.2949  0.4380  0.0540
  865MOL0     C16673  10.645   4.684   3.542 -0.7478  0.1293 -0.2390
  865MOL0     C16674  10.710   4.684   3.413  0.3382  0.3486 -0.4325
  865MOL0     C16675  10.818   4.761   3.397  0.2050  0.0572 -0.8234
  865MOL0     O16676  10.888   4.778   3.280 -0.3351 -0.3803  0.3273
  865MOL0     C16677  10.835   4.723   3.158 -0.0910 -0.2930 -1.0568
  865MOL0     C16678  10.744   4.828   3.101 -0.9040  0.9403 -0.2654
  865MOL0     C16679  10.811   4.967   3.092  0.1292  0.0975  0.5516
  865MOL0     C16680  10.766   5.033   2.958  0.2573  0.0361 -0.6204
  865MOL0     C16681  10.789   5.182   2.962 -0.1832 -0.5924  0.7634
  865MOL0     C16682  10.693   5.250   3.052 -0.1778  0.8082 -0.6228
  865MOL0     C16683  10.690   5.403   3.051  0.5558 -0.0418  0.0944
  865MOL0     C16684  10.582   5.455   3.141  0.8080 -0.1262  0.9081
  865MOL0    Cl16685  10.423   5.429   3.076 -0.0540 -0.3894  0.0670
  865MOL0     C16686  10.853   4.858   3.496 -0.9238  0.0375 -0.0783
  865MOL0     C16687  10.787   4.864   3.621  0.5909 -0.3982 -0.1609
  865MOL0     O16688  10.741   4.817   3.918  0.3869 -0.8441 -0.3073
  865MOL0     C16689  10.406   4.883   3.970 -0.6851  0.1779 -0.6218
  865MOL0     C16690  10.327   4.948   4.064  0.4217 -1.2672  0.1161
  865MOL0     N16691  10.207   5.516   4.698  0.1231 -0.6765 -0.3959
  865MOL0     N16692  10.174   5.639   4.679  1.1290 -0.5797  0.8830
  865MOL0     C16693  10.991   5.320   4.136  0.7552 -0.0864 -0.4660
  865MOL0     C16694  11.117   5.301   4.181 -0.2487 -0.6390  0.2614
  865MOL0     C16695  11.520   5.261   4.301  0.8718 -1.5035 -0.0181
  865MOL0     C16696  11.604   5.187   4.208  0.1377 -0.0745  0.6508
  865MOL0     C16697  11.724   5.132   4.252 -0.1324  0.6397 -0.7061
  865MOL0     C16698  11.752   5.131   4.390 -0.1165  0.5838 -0.2789
  865MOL0     O16699  11.858   5.076   4.458 -0.8951 -0.1473 -0.2458
  865MOL0     C16700  11.970   5.002   4.394  0.7346 -0.2840  0.4975
  865MOL0     C16701  12.095   5.020   4.488  0.4881 -0.1898  0.3629
  865MOL0     C16702  12.077   4.966   4.625 -0.1337 -0.2920 -0.3621
  865MOL0     C16703  12.195   4.944   4.717 -0.4241  0.3356  0.2514
  865MOL0     C16704  12.286   4.847   4.653  0.5539  0.4948 -0.7151
  865MOL0     C16705  12.348   4.757   4.598 -0.4031  1.1302 -0.6855
  865MOL0     C16706  11.660   5.184   4.481 -0.0773 -1.0010 -0.3324
  865MOL0     C16707  11.552   5.256   4.433 -0.0727 -0.4153 -1.1673
  865MOL0     H16708  11.281   5.516   3.964  0.0410  0.3791 -0.5579
  865MOL0     H16709  11.064   5.574   3.908  1.0521 -1.0974 -1.5290
  865MOL0     H16710  10.781   5.557   4.163  1.5152 -0.2797 -0.3014
  865MOL0     H16711  10.804   5.636   4.002  0.0094 -1.4665 -2.5632
  865MOL0     H16712  10.611   5.526   3.910  1.3775 -1.0770 -0.6116
  865MOL0     H16713  10.563   5.452   4.065 -1.4877  1.2971  0.0235
  865MOL0     H16714  10.564   5.750   4.062 -0.7470  0.3731 -0.8098
  865MOL0     H16715  10.434   5.677   3.982 -2.2459 -0.9278  1.4275
  865MOL0     H16716  10.437   5.525   4.219 -4.3401  0.7817  1.0219
  865MOL0     H16717  10.537   5.671   4.258 -0.8890  2.2301  0.3819
  865MOL0     H16718  10.322   5.814   4.187 -0.1843 -0.5310  1.7138
  865MOL0     H16719  10.258   5.659   4.143  2.6194 -3.2581 -0.8157
  865MOL0     H16720  10.285   5.597   4.387  1.8433  1.1322  3.1070
  865MOL0     H16721  10.335   5.765   4.425  0.0234 -0.2863  0.7108
  865MOL0     H16722  10.135   5.875   4.336 -4.2682  1.0838  2.8507
  865MOL0     H16723  10.072   5.724   4.292  0.6820  1.1168 -2.2888
  865MOL0     H16724   9.956   5.798   4.482 -0.4177 -2.5819 -3.5096
  865MOL0     H16725  10.099   5.864   4.559  1.4203 -0.1669 -0.9552
  865MOL0     H16726   9.922   5.517   4.518  0.3196  0.1071 -0.8949
  865MOL0     H16727  10.176   5.241   4.658 -1.6609 -3.2541  0.1073
  865MOL0     H16728  10.004   5.258   4.674  0.0731  0.0698  0.1094
  865MOL0     H16729  10.011   5.297   4.412 -0.7239  4.1721  3.0508
  865MOL0     H16730  10.035   5.141   4.488  1.7036  1.4795  3.2243
  865MOL0     H16731  10.299   5.176   4.460 -0.0488 -1.6608  0.3333
  865MOL0     H16732  10.250   5.307   4.366  1.1571 -0.0847 -0.2962
  865MOL0     H16733  10.086   5.131   4.254 -0.1901 -2.2564  0.1011
  865MOL0     H16734  10.208   5.016   4.301 -1.5047  0.0580  0.5499
  865MOL0     H16735  10.527   5.214   4.126  0.5764 -0.2960  2.3269
  865MOL0     H16736  10.744   5.080   3.865  0.1745 -0.3156  0.2592
  865MOL0     H16737  10.721   5.208   3.992 -4.5132  0.3074 -0.1719
  865MOL0     H16738  10.791   5.046   4.034 -0.0497 -1.9498 -1.5490
  865MOL0     H16739  10.564   4.612   3.545  0.2313 -1.2724 -3.2725
  865MOL0     H16740  10.668   4.617   3.338 -0.6352 -0.0416  0.4414
  865MOL0     H16741  10.913   4.710   3.082 -0.6061 -2.7514 -1.2395
  865MOL0     H16742  10.783   4.627   3.168  0.1061 -0.3781 -0.8125
  865MOL0     H16743  10.711   4.790   3.004 -1.5243 -1.5073  0.8338
  865MOL0     H16744  10.657   4.818   3.167  1.3753 -2.1768  2.5730
  865MOL0     H16745  10.919   4.952   3.105  0.2388 -1.1831 -1.4892
  865MOL0     H16746  10.773   5.024   3.178  1.6949  1.6412  0.2588
  865MOL0     H16747  10.828   4.992   2.877  0.6890  2.6274 -1.7151
  865MOL0     H16748  10.660   5.014   2.940 -0.8109  1.3865  3.3088
  865MOL0     H16749  10.774   5.224   2.862  0.2270 -1.4922  0.3140
  865MOL0     H16750  10.891   5.202   2.996  0.3531 -2.2988  0.2587
  865MOL0     H16751  10.591   5.216   3.032 -0.2123 -0.3349  1.2768
  865MOL0     H16752  10.715   5.218   3.154  1.1912  1.2742 -0.7520
  865MOL0     H16753  10.681   5.445   2.951  0.2873 -0.9921 -0.2905
  865MOL0     H16754  10.784   5.431   3.099  1.0072 -2.1648  0.5760
  865MOL0     H16755  10.612   5.560   3.146  3.0829 -0.6509 -0.5562
  865MOL0     H16756  10.582   5.414   3.242 -1.1892 -1.3060  0.4881
  865MOL0     H16757  10.942   4.915   3.473 -1.6431  0.6505 -1.4593
  865MOL0     H16758  10.806   4.950   3.684 -1.9509  0.6794 -0.7161
  865MOL0     H16759  10.370   4.785   3.939 -3.6680  1.2755 -0.8395
  865MOL0     H16760  10.222   4.920   4.072 -0.4496  1.3787 -0.7464
  865MOL0     H16761  10.913   5.247   4.158  2.3062 -1.1364  2.1046
  865MOL0     H16762  11.141   5.217   4.246 -0.5644 -3.4056 -2.9327
  865MOL0     H16763  11.579   5.174   4.103  0.0764 -2.0378  0.8782
  865MOL0     H16764  11.794   5.094   4.178 -1.0835  2.2185 -2.5161
  865MOL0     H16765  11.923   4.903   4.388 -3.4479  1.5007 -0.1497
  865MOL0     H16766  12.000   5.036   4.294 -0.6010 -3.0095 -0.9591
  865MOL0     H16767  12.120   5.127   4.489 -2.3607  0.5829 -0.8047
  865MOL0     H16768  12.177   4.968   4.438 -1.1900 -0.5093 -2.2329
  865MOL0     H16769  12.030   4.868   4.609 -0.1623 -0.7444  2.1179
  865MOL0     H16770  11.999   5.022   4.677  0.2651 -0.9687  1.0161
  865MOL0     H16771  12.168   4.903   4.815 -2.0866 -1.9237 -1.0482
  865MOL0     H16772  12.246   5.040   4.728  0.5880  0.0830 -1.7497
  865MOL0     H16773  12.398   4.680   4.542  1.6471  0.9347  1.2713
  865MOL0     H16774  11.700   5.179   4.581  1.6364  1.8667 -0.7632
  865MOL0     H16775  11.497   5.300   4.515  0.9666 -1.9917  0.4482
  866MOL0     O16776   3.653  11.135   3.571  1.2675  0.8246 -0.0913
  866MOL0     C16777   3.634  11.065   3.666  0.4511  0.4383  0.4788
  866MOL0     O16778   3.723  11.038   3.758 -0.3688  0.8943 -0.8235
  866MOL0     C16779   3.843  11.114   3.766  0.2747  1.0243  0.7198
  866MOL0     C16780   3.951  11.040   3.818  0.2959 -0.9710 -0.5197
  866MOL0     C16781   4.071  11.099   3.855  0.0666 -0.8078 -0.5239
  866MOL0     C16782   4.072  11.242   3.841 -0.1940 -0.0150 -0.2546
  866MOL0     O16783   4.193  11.299   3.861 -0.8247 -0.3179  0.9938
  866MOL0     C16784   4.257  11.331   3.732 -1.0474 -0.3468 -0.2936
  866MOL0     C16785   4.346  11.454   3.737 -0.2517  1.1526 -0.7228
  866MOL0     C16786   4.413  11.485   3.596  0.0066 -0.2888 -0.0063
  866MOL0     C16787   4.517  11.604   3.614  0.3053  0.0827  0.4605
  866MOL0     C16788   4.591  11.631   3.482  0.5116 -0.3384  0.7667
  866MOL0     C16789   4.637  11.779   3.479 -0.7523 -0.1422 -0.3892
  866MOL0     C16790   4.715  11.822   3.354 -0.1152  0.2870  0.0986
  866MOL0     C16791   4.758  11.969   3.358 -0.8619  0.5195  0.3142
  866MOL0     N16792   4.798  12.018   3.224 -0.6644  0.0273  0.3002
  866MOL0     C16793   4.917  12.072   3.211  0.5470 -0.0144 -0.5841
  866MOL0     C16794   4.928  12.095   3.079  0.0340 -0.5742 -0.1896
  866MOL0     C16795   5.035  12.156   3.003  0.0207 -0.9687  1.1614
  866MOL0     C16796   4.995  12.282   2.921  0.7494 -0.4875  0.0285
  866MOL0     C16797   5.109  12.371   2.886 -0.3548  0.1740  0.2851
  866MOL0     C16798   5.086  12.515   2.826 -0.7248  0.0609  0.6489
  866MOL0     O16799   4.997  12.515   2.717 -0.1483  0.0525  0.0157
  866MOL0     C16800   4.956  12.642   2.680  0.6045 -0.0199 -1.2209
  866MOL0     C16801   4.824  12.651   2.658 -1.0052  0.1297 -0.1150
  866MOL0     C16802   4.768  12.767   2.621 -0.4306 -0.9835 -0.5243
  866MOL0     C16803   4.623  12.769   2.610  0.0482 -0.0576 -0.2376
  866MOL0     C16804   4.852  12.878   2.584  0.1157  0.3444  0.4523
  866MOL0     C16805   4.799  13.009   2.550 -0.2387 -0.1077 -0.2238
  866MOL0     O16806   4.693  13.002   2.473  1.4089 -0.2994 -0.8344
  866MOL0     C16807   4.644  13.111   2.401  0.1205  0.0044 -0.5190
  866MOL0     C16808   4.502  13.132   2.408 -1.1351 -0.1053  0.0315
  866MOL0     C16809   4.450  13.239   2.343  0.4683 -0.3620 -0.0458
  866MOL0     C16810   4.539  13.324   2.275  0.7691  0.0208  0.0179
  866MOL0     O16811   4.482  13.439   2.228 -0.1954  0.1586  0.0320
  866MOL0     C16812   4.537  13.491   2.103  0.7032  0.0054 -0.2891
  866MOL0     C16813   4.451  13.615   2.053 -0.2702 -0.4247  0.4422
  866MOL0     C16814   4.478  13.650   1.908 -1.4977  1.2260  0.1954
  866MOL0     C16815   4.408  13.781   1.865  0.3685 -0.4932 -0.5157
  866MOL0     C16816   4.501  13.849   1.766 -0.1279  0.4439  0.3985
  866MOL0     C16817   4.433  13.981   1.715 -0.8960  0.0093  0.5992
  866MOL0     C16818   4.514  14.030   1.595  0.1160  1.0420 -0.2322
  866MOL0     C16819   4.465  14.156   1.534  0.1380  0.7418  0.0461
  866MOL0    Cl16820   4.301  14.137   1.462  0.1267  0.2414 -0.3582
  866MOL0     C16821   4.670  13.293   2.255  0.0403 -0.3591  0.6065
  866MOL0     C16822   4.728  13.185   2.326  0.6728 -0.3851 -0.5767
  866MOL0     O16823   4.873  13.105   2.566  0.0965  0.9424 -0.0393
  866MOL0     C16824   4.996  12.860   2.588 -0.9933  0.2566 -0.9692
  866MOL0     C16825   5.044  12.741   2.636 -0.0388  0.0607  0.5284
  866MOL0     N16826   4.825  12.031   3.017  0.3615 -0.7713 -0.4428
  866MOL0     N16827   4.747  11.993   3.107  0.4603 -0.1145  0.6481
  866MOL0     C16828   3.956  11.316   3.795 -0.1722  0.0301  0.0990
  866MOL0     C16829   3.844  11.250   3.747  0.6873  0.3884  0.2002
  866MOL0     C16830   3.494  11.012   3.685  0.1288  0.3203 -0.6171
  866MOL0     C16831   3.387  11.015   3.594 -0.0121 -0.7775 -0.3825
  866MOL0     C16832   3.261  10.957   3.627 -0.8470 -0.1468 -1.4972
  866MOL0     C16833   3.230  10.925   3.752  0.2830 -0.2545 -0.3735
  866MOL0     O16834   3.102  10.888   3.777  0.2613 -0.1297  0.5786
  866MOL0     C16835   3.075  10.757   3.836 -0.3324 -0.4398  0.5176
  866MOL0     C16836   3.081  10.644   3.733 -0.5145 -0.4282  1.1197
  866MOL0     C16837   3.004  10.515   3.776 -1.3995  0.0395  0.5944
  866MOL0     C16838   2.989  10.426   3.650 -0.0439 -0.1350  1.0662
  866MOL0     C16839   2.946  10.296   3.699 -0.1113 -0.6384 -0.1454
  866MOL0     C16840   2.926  10.185   3.745 -0.2805  0.1024 -1.1145
  866MOL0     C16841   3.327  10.934   3.844  0.2709 -0.3569 -0.4648
  866MOL0     C16842   3.462  10.968   3.817 -0.3078 -0.0082  0.8274
  866MOL0     H16843   3.929  10.935   3.829  0.4181 -1.0039 -0.5781
  866MOL0     H16844   4.152  11.038   3.893 -0.2081 -1.5782 -1.1544
  866MOL0     H16845   4.315  11.243   3.704  1.7794  1.1998  0.3541
  866MOL0     H16846   4.189  11.352   3.649  3.1001 -0.1385 -3.9609
  866MOL0     H16847   4.282  11.534   3.776 -0.0277 -0.0392  2.3416
  866MOL0     H16848   4.431  11.428   3.800 -0.6370  0.0435 -0.6297
  866MOL0     H16849   4.458  11.393   3.557  1.5804  0.7698 -0.7543
  866MOL0     H16850   4.328  11.530   3.543  1.8237  1.1548 -1.8273
  866MOL0     H16851   4.470  11.690   3.663 -0.3057  1.0821 -1.7335
  866MOL0     H16852   4.593  11.570   3.686  0.3917 -3.2707 -1.0380
  866MOL0     H16853   4.667  11.556   3.463 -0.7710 -1.9168  1.6665
  866MOL0     H16854   4.515  11.621   3.404  2.6854  0.9096 -1.6571
  866MOL0     H16855   4.556  11.852   3.485  0.0592  1.0773 -2.7335
  866MOL0     H16856   4.696  11.794   3.569 -0.9367 -0.8671 -0.1422
  866MOL0     H16857   4.801  11.754   3.349  0.4238  1.0865 -2.7818
  866MOL0     H16858   4.663  11.812   3.259  2.4767 -1.4506 -1.2645
  866MOL0     H16859   4.844  11.979   3.424  1.4246  1.0057 -2.5010
  866MOL0     H16860   4.691  12.043   3.403 -0.6974  1.8803 -1.5369
  866MOL0     H16861   4.998  12.090   3.280 -0.5333 -0.6837  0.9053
  866MOL0     H16862   5.118  12.173   3.072 -1.0155 -0.3015  2.2951
  866MOL0     H16863   5.063  12.096   2.916 -1.5089  1.5711 -1.2678
  866MOL0     H16864   4.942  12.339   2.998  1.0467 -0.1684 -0.0025
  866MOL0     H16865   4.933  12.258   2.835  0.7203 -0.1112 -0.0562
  866MOL0     H16866   5.164  12.312   2.813 -3.0928 -2.7685  0.4053
  866MOL0     H16867   5.179  12.392   2.968 -0.0326  1.9367 -0.3834
  866MOL0     H16868   5.185  12.556   2.801  0.1643 -3.1557 -1.7927
  866MOL0     H16869   5.052  12.568   2.915  1.7136  0.6303  1.3099
  866MOL0     H16870   4.757  12.566   2.666 -1.4245  0.5146  0.5006
  866MOL0     H16871   4.580  12.833   2.689 -0.5627  0.6630 -1.1345
  866MOL0     H16872   4.590  12.801   2.511 -2.7082 -0.8915  0.3334
  866MOL0     H16873   4.580  12.670   2.631  0.2784 -0.2436 -0.6442
  866MOL0     H16874   4.425  13.077   2.462 -2.8508  2.0710 -0.0612
  866MOL0     H16875   4.345  13.265   2.333  0.3307 -1.6533 -3.1514
  866MOL0     H16876   4.641  13.516   2.125  0.6792  1.2951 -1.4488
  866MOL0     H16877   4.531  13.403   2.038 -0.4495  1.1717 -1.8507
  866MOL0     H16878   4.345  13.587   2.063 -1.2560  1.9176 -2.1395
  866MOL0     H16879   4.487  13.699   2.112  0.5967  1.6959 -2.8239
  866MOL0     H16880   4.448  13.565   1.846  0.1645 -1.3402  2.6615
  866MOL0     H16881   4.587  13.657   1.897 -1.2526 -2.0679 -0.3891
  866MOL0     H16882   4.309  13.753   1.827  0.5337  0.5075 -1.7061
  866MOL0     H16883   4.401  13.855   1.946 -1.8827  1.6116 -2.4770
  866MOL0     H16884   4.527  13.784   1.683  1.9294  0.1119  1.2553
  866MOL0     H16885   4.585  13.879   1.829 -0.7446  3.3452 -0.0147
  866MOL0     H16886   4.331  13.978   1.675 -1.4386  1.4763  1.7953
  866MOL0     H16887   4.441  14.058   1.792 -1.2290  2.1624 -1.4185
  866MOL0     H16888   4.516  13.941   1.531  1.1264 -1.0277  2.4805
  866MOL0     H16889   4.617  14.050   1.625 -0.1750  2.1718  0.0598
  866MOL0     H16890   4.539  14.192   1.462 -0.1992  2.0247  0.3064
  866MOL0     H16891   4.466  14.230   1.615  0.9178 -0.2639  0.9873
  866MOL0     H16892   4.750  13.342   2.199  0.0653 -1.2403 -0.1576
  866MOL0     H16893   4.834  13.161   2.324  0.9884  0.4811  1.9622
  866MOL0     H16894   5.069  12.940   2.580 -2.4484  1.8185  0.3919
  866MOL0     H16895   5.149  12.716   2.653  0.0221 -1.0491 -1.1300
  866MOL0     H16896   3.965  11.424   3.793  2.4609 -0.1002  0.4238
  866MOL0     H16897   3.764  11.309   3.702  0.5810  0.7509  0.8552
  866MOL0     H16898   3.412  11.052   3.495  1.6465  0.6964  0.5411
  866MOL0     H16899   3.185  10.938   3.551  0.6181 -1.0112 -2.8110
  866MOL0     H16900   3.156  10.739   3.907  1.0976 -0.4254 -1.0594
  866MOL0     H16901   2.978  10.770   3.886 -0.5031 -1.1473  0.3751
  866MOL0     H16902   3.188  10.646   3.711 -0.8053  2.7012 -0.6664
  866MOL0     H16903   3.027  10.688   3.649 -0.5417 -1.3599  0.6359
  866MOL0     H16904   2.905  10.534   3.818 -2.5121 -1.9897 -0.9176
  866MOL0     H16905   3.058  10.457   3.852 -4.5133 -0.9177  2.2332
  866MOL0     H16906   3.082  10.417   3.593  0.4473  0.2102  1.7874
  866MOL0     H16907   2.911  10.465   3.584 -1.2523  0.2508  2.6420
  866MOL0     H16908   2.890  10.087   3.772  3.1434 -1.6390 -2.3036
  866MOL0     H16909   3.304  10.915   3.948  0.7880 -2.8214 -0.7542
  866MOL0     H16910   3.529  10.975   3.902  0.1588  1.9533  0.3258
  867MOL0     O16911   4.486   2.705   0.603  0.3191  0.0797  0.0244
  867MOL0     C16912   4.577   2.753   0.537 -1.7275 -0.7977 -0.0970
  867MOL0     O16913   4.597   2.717   0.400 -0.0142 -0.8027 -0.1855
  867MOL0     C16914   4.526   2.616   0.348 -0.3341 -0.1071 -0.3700
  867MOL0     C16915   4.581   2.488   0.319 -0.0895 -0.5583  0.2634
  867MOL0     C16916   4.511   2.390   0.241 -0.2310 -0.1103  0.2710
  867MOL0     C16917   4.373   2.421   0.209 -1.2839 -0.4601  0.9481
  867MOL0     O16918   4.324   2.325   0.123 -0.5053  0.7250 -0.6880
  867MOL0     C16919   4.213   2.346   0.045  0.2374 -0.3972 -0.3973
  867MOL0     C16920   4.238   2.455  -0.069 -0.3521  0.2106  0.3139
  867MOL0     C16921   4.194   2.397  -0.210 -0.6329  0.4466  1.0318
  867MOL0     C16922   4.163   2.494  -0.315  0.4626 -0.3298 -0.0997
  867MOL0     C16923   4.092   2.437  -0.434 -0.4160 -0.2728  0.9759
  867MOL0     C16924   4.161   2.294  -0.487  0.1931 -0.5776 -0.0447
  867MOL0     C16925   4.075   2.269  -0.615 -0.6843  0.0866  0.9313
  867MOL0     C16926   4.136   2.142  -0.680 -0.1368  0.3770  0.5512
  867MOL0     N16927   4.251   2.163  -0.771 -0.3780 -0.6888  0.1671
  867MOL0     C16928   4.254   2.224  -0.893  0.3470 -0.5053  0.6064
  867MOL0     C16929   4.378   2.225  -0.936  0.1384 -0.2381 -0.6823
  867MOL0     C16930   4.427   2.290  -1.063 -0.1548 -0.2613 -0.6368
  867MOL0     C16931   4.559   2.352  -1.062  0.1798 -1.0173 -0.4699
  867MOL0     C16932   4.555   2.490  -1.006  0.0194 -0.4837 -0.1664
  867MOL0     C16933   4.694   2.554  -1.000  0.6906 -0.2983  0.4235
  867MOL0     O16934   4.700   2.699  -0.969 -0.7649  0.6746  0.1428
  867MOL0     C16935   4.821   2.751  -0.943  0.0890 -0.3903  0.7980
  867MOL0     C16936   4.822   2.886  -0.914 -0.1340 -0.2312  0.0959
  867MOL0     C16937   4.943   2.954  -0.892 -0.2994 -0.8717 -0.0614
  867MOL0     C16938   4.940   3.106  -0.886 -0.2540 -1.1115  0.0668
  867MOL0     C16939   5.069   2.880  -0.891 -0.1907  0.4094  0.0926
  867MOL0     C16940   5.202   2.950  -0.870  0.8051  0.4770  0.2853
  867MOL0     O16941   5.196   3.064  -0.802  0.1129  0.2136 -0.1513
  867MOL0     C16942   5.312   3.101  -0.737 -0.4432  0.1209  0.6684
  867MOL0     C16943   5.396   3.192  -0.806  0.0071  0.8503  0.1711
  867MOL0     C16944   5.510   3.240  -0.746 -1.2589  0.5792  0.8272
  867MOL0     C16945   5.557   3.184  -0.624 -0.4673  0.0335 -0.0690
  867MOL0     O16946   5.683   3.202  -0.583 -0.0395 -0.5297 -0.7565
  867MOL0     C16947   5.721   3.152  -0.450 -0.1801 -0.4069  0.8903
  867MOL0     C16948   5.871   3.190  -0.421  0.3423  0.0347  0.0256
  867MOL0     C16949   5.868   3.318  -0.333  0.5973  0.3036  0.2555
  867MOL0     C16950   5.994   3.333  -0.253 -0.1761  0.1886 -0.6098
  867MOL0     C16951   5.985   3.451  -0.153  0.0084  0.2309  0.1792
  867MOL0     C16952   6.130   3.481  -0.099  0.1131  0.3639 -0.0321
  867MOL0     C16953   6.111   3.594  -0.000  0.6313  0.3947  0.2092
  867MOL0     C16954   6.254   3.626   0.043  0.1212  0.8728 -0.9686
  867MOL0    Cl16955   6.239   3.791   0.127  0.0095 -0.2098 -0.3184
  867MOL0     C16956   5.472   3.096  -0.560  0.7361 -0.5473 -0.3160
  867MOL0     C16957   5.350   3.050  -0.619  0.5188 -0.6882  0.4234
  867MOL0     O16958   5.303   2.888  -0.908  0.2650 -0.0745 -0.3253
  867MOL0     C16959   5.066   2.748  -0.929  0.7097 -0.1684  0.0717
  867MOL0     C16960   4.950   2.692  -0.973  0.7639 -0.5977 -0.0800
  867MOL0     N16961   4.453   2.166  -0.840 -0.3019 -0.4238  0.9509
  867MOL0     N16962   4.378   2.131  -0.738 -0.1154  0.7518  0.3240
  867MOL0     C16963   4.322   2.544   0.244  0.0693  0.3535 -0.4417
  867MOL0     C16964   4.387   2.640   0.320 -1.7397  0.4638 -0.0556
  867MOL0     C16965   4.670   2.851   0.608 -0.1221 -0.1386  0.3348
  867MOL0     C16966   4.645   2.885   0.749 -0.1710 -0.8032  0.2774
  867MOL0     C16967   4.731   2.984   0.813  0.1591  1.3152  0.4518
  867MOL0     C16968   4.839   3.041   0.746  0.1302 -0.1762 -0.9533
  867MOL0     O16969   4.920   3.140   0.794 -0.3534  0.0837 -0.0354
  867MOL0     C16970   4.927   3.163   0.931 -0.4285 -0.4688 -0.0237
  867MOL0     C16971   5.047   3.250   0.971  0.2995 -0.0917  0.5298
  867MOL0     C16972   5.182   3.194   0.922 -0.7604 -0.9070 -0.3854
  867MOL0     C16973   5.307   3.214   1.014  0.9695  0.4158  0.6604
  867MOL0     C16974   5.298   3.122   1.138 -0.5046 -0.8782 -0.4160
  867MOL0     C16975   5.285   3.052   1.234 -0.6595  0.0991 -0.1975
  867MOL0     C16976   4.857   3.015   0.612 -0.2742 -0.3401  0.4984
  867MOL0     C16977   4.772   2.922   0.544  0.1949 -0.3922 -0.0112
  867MOL0     H16978   4.687   2.469   0.330 -0.0626  0.0055  1.0751
  867MOL0     H16979   4.563   2.303   0.202  1.1051 -0.5704  2.8446
  867MOL0     H16980   4.198   2.251  -0.008 -1.1398 -0.1479 -0.4936
  867MOL0     H16981   4.126   2.362   0.108 -0.1322 -0.0400 -0.9867
  867MOL0     H16982   4.192   2.553  -0.050 -0.0464  0.3726  0.2304
  867MOL0     H16983   4.344   2.481  -0.074  0.4853 -2.8296  0.2650
  867MOL0     H16984   4.261   2.314  -0.232 -2.8453 -0.7859 -1.8700
  867MOL0     H16985   4.095   2.351  -0.195 -1.3975  1.8723  0.5708
  867MOL0     H16986   4.096   2.571  -0.275 -0.1461 -0.3940 -0.9993
  867MOL0     H16987   4.256   2.546  -0.341  1.2010 -1.0784  0.9507
  867MOL0     H16988   3.991   2.403  -0.407  0.0394 -0.9655  1.8246
  867MOL0     H16989   4.105   2.513  -0.511  1.4629 -1.1693  0.3541
  867MOL0     H16990   4.264   2.321  -0.510 -0.2666  1.4196 -0.0067
  867MOL0     H16991   4.164   2.204  -0.425 -0.4864 -0.0835  0.7426
  867MOL0     H16992   3.974   2.252  -0.577 -1.0060 -1.2416 -0.4127
  867MOL0     H16993   4.073   2.348  -0.691 -2.8604 -1.9554 -1.3219
  867MOL0     H16994   4.055   2.094  -0.736  1.4066 -0.1523 -1.2964
  867MOL0     H16995   4.174   2.066  -0.610 -0.6802 -4.3557 -3.7155
  867MOL0     H16996   4.168   2.271  -0.941  1.5081  2.2627  1.0255
  867MOL0     H16997   4.442   2.217  -1.144 -2.3425 -2.1799  0.5922
  867MOL0     H16998   4.353   2.363  -1.097 -0.9057 -0.3325  0.8085
  867MOL0     H16999   4.601   2.354  -1.163 -2.0112 -2.0521 -1.4639
  867MOL0     H17000   4.621   2.284  -1.004 -0.5062 -0.4744  0.9442
  867MOL0     H17001   4.516   2.479  -0.905 -1.0850  3.3705 -0.0418
  867MOL0     H17002   4.479   2.550  -1.056 -2.4297 -2.7570  0.6292
  867MOL0     H17003   4.732   2.547  -1.102 -1.2113  0.9326 -0.4265
  867MOL0     H17004   4.746   2.490  -0.929  1.0900  2.3526  2.6892
  867MOL0     H17005   4.723   2.931  -0.916  0.8239  2.2854  2.7898
  867MOL0     H17006   5.025   3.148  -0.941 -2.1345  0.5771 -1.7081
  867MOL0     H17007   4.859   3.163  -0.931  0.3931 -0.9383 -0.9203
  867MOL0     H17008   4.932   3.132  -0.780 -1.5703  1.5396 -0.6161
  867MOL0     H17009   5.371   3.233  -0.904 -1.2226 -0.5591 -0.1292
  867MOL0     H17010   5.579   3.301  -0.804 -1.5078  0.6273  0.5811
  867MOL0     H17011   5.663   3.197  -0.368  0.6962  0.5406  1.0212
  867MOL0     H17012   5.721   3.043  -0.448  1.6318 -0.4835 -0.7681
  867MOL0     H17013   5.924   3.113  -0.365 -2.8982 -2.0438  0.4605
  867MOL0     H17014   5.926   3.206  -0.514 -2.7309  3.0374 -1.4836
  867MOL0     H17015   5.780   3.318  -0.268  1.0052  0.6110  0.8197
  867MOL0     H17016   5.849   3.401  -0.402  2.3373  1.2341  0.8419
  867MOL0     H17017   6.015   3.247  -0.189  0.1043  0.7129  0.0113
  867MOL0     H17018   6.081   3.356  -0.316  1.8305  2.3758  2.6357
  867MOL0     H17019   5.924   3.421  -0.068 -0.1162 -0.3787 -0.1175
  867MOL0     H17020   5.940   3.541  -0.196 -1.5811 -1.4395 -1.8939
  867MOL0     H17021   6.181   3.396  -0.053  2.1698  1.3685 -0.2865
  867MOL0     H17022   6.193   3.514  -0.182 -1.4501  2.7281 -0.3792
  867MOL0     H17023   6.052   3.562   0.085 -1.4314  0.5594 -1.0907
  867MOL0     H17024   6.062   3.680  -0.047  2.2330  0.8318 -0.7601
  867MOL0     H17025   6.311   3.634  -0.050  0.4019 -1.0616 -1.0157
  867MOL0     H17026   6.288   3.545   0.108 -1.8304 -1.0151 -2.1748
  867MOL0     H17027   5.498   3.063  -0.459  1.5960  0.4649 -0.1856
  867MOL0     H17028   5.282   2.984  -0.566  0.0427 -1.8751 -1.5464
  867MOL0     H17029   5.157   2.691  -0.945  0.3153 -0.4860 -1.1961
  867MOL0     H17030   4.935   2.597  -1.024 -1.5642 -0.4190  0.1697
  867MOL0     H17031   4.223   2.556   0.200  0.1844 -3.9416 -2.4097
  867MOL0     H17032   4.341   2.738   0.333  0.0731  1.2932  0.4302
  867MOL0     H17033   4.561   2.859   0.811 -1.5463  2.2446 -0.1322
  867MOL0     H17034   4.715   3.017   0.915  1.1967  2.5461  0.2498
  867MOL0     H17035   4.831   3.208   0.956 -0.6104 -0.4221 -0.7790
  867MOL0     H17036   4.924   3.072   0.991 -0.1511  0.3350  1.2335
  867MOL0     H17037   5.049   3.282   1.075  0.4252 -0.2609  0.5806
  867MOL0     H17038   5.035   3.348   0.923 -1.8774  0.0816  1.3427
  867MOL0     H17039   5.203   3.222   0.818 -0.7957  0.9827  0.0786
  867MOL0     H17040   5.172   3.085   0.913 -3.0239 -0.7092 -0.8993
  867MOL0     H17041   5.316   3.316   1.053 -2.9059  1.5875 -1.0604
  867MOL0     H17042   5.395   3.184   0.955  0.6922  0.7090  0.0944
  867MOL0     H17043   5.262   3.001   1.326 -0.6633 -0.6989 -0.6272
  867MOL0     H17044   4.938   3.065   0.560  1.9045 -3.6609  0.4249
  867MOL0     H17045   4.788   2.899   0.440 -0.9409  0.2147 -0.3388
  868MOL0     O17046   8.843  10.682   8.092  0.4730 -0.7531 -0.3003
  868MOL0     C17047   8.891  10.607   8.003  0.8286  0.4992 -0.2957
  868MOL0     O17048   8.830  10.482   7.968 -0.2068  0.3528  0.3096
  868MOL0     C17049   8.747  10.426   8.065 -0.2919  0.2502  0.4745
  868MOL0     C17050   8.788  10.301   8.093  1.5506 -0.2742  0.5364
  868MOL0     C17051   8.700  10.211   8.159  0.2156 -0.8471 -0.5351
  868MOL0     C17052   8.575  10.250   8.202 -0.1849  0.3049 -0.2204
  868MOL0     O17053   8.490  10.157   8.266 -0.6630  0.1791  0.0980
  868MOL0     C17054   8.492  10.018   8.225 -0.4710 -0.4668 -0.2176
  868MOL0     C17055   8.581   9.929   8.321  1.2518  0.3101  0.0925
  868MOL0     C17056   8.582   9.779   8.276 -0.4306  0.3662 -0.4790
  868MOL0     C17057   8.707   9.737   8.181  1.4437 -0.5265  0.9149
  868MOL0     C17058   8.703   9.589   8.142 -0.2205  0.4034  0.6291
  868MOL0     C17059   8.834   9.557   8.064 -0.1481  0.1779 -0.0974
  868MOL0     C17060   8.967   9.555   8.145 -0.2686  0.0832 -0.0114
  868MOL0     C17061   8.958   9.466   8.260 -0.4369  0.0730 -0.7579
  868MOL0     N17062   9.087   9.454   8.336 -0.5827  0.4234  0.2083
  868MOL0     C17063   9.109   9.390   8.453 -1.2628  0.5192 -0.0396
  868MOL0     C17064   9.247   9.381   8.459 -0.0336  0.9591 -0.7220
  868MOL0     C17065   9.329   9.318   8.578  0.9406 -0.2533  0.6213
  868MOL0     C17066   9.283   9.375   8.709 -1.0019 -0.8346  0.4286
  868MOL0     C17067   9.257   9.272   8.816 -0.7606 -0.7403 -1.0216
  868MOL0     C17068   9.155   9.168   8.797  0.8236  0.9964  0.4049
  868MOL0     O17069   9.026   9.226   8.828 -0.0822 -0.0237 -0.5599
  868MOL0     C17070   8.923   9.151   8.875  0.6079 -0.3229  0.4112
  868MOL0     C17071   8.808   9.218   8.912  0.4055 -0.5684 -0.3859
  868MOL0     C17072   8.686   9.154   8.942 -0.1233 -0.3381  0.4708
  868MOL0     C17073   8.575   9.247   8.984 -1.4947  0.7396 -0.8990
  868MOL0     C17074   8.681   9.018   8.919 -0.0435 -0.0356  0.8187
  868MOL0     C17075   8.563   8.935   8.959 -0.4496  0.4534  0.7981
  868MOL0     O17076   8.549   8.824   8.872 -0.2004 -0.5756 -0.2719
  868MOL0     C17077   8.431   8.756   8.849  0.4508 -0.7229 -0.4970
  868MOL0     C17078   8.418   8.697   8.724  0.5810  0.2512 -0.2253
  868MOL0     C17079   8.306   8.630   8.689 -0.1857  0.7658  0.2234
  868MOL0     C17080   8.201   8.601   8.776  0.0164  0.1548 -0.3757
  868MOL0     O17081   8.099   8.505   8.759  0.1929 -0.1786  0.0266
  868MOL0     C17082   7.989   8.514   8.850  0.0850  0.8182 -0.2916
  868MOL0     C17083   7.866   8.446   8.792  0.0412 -0.3613  0.1460
  868MOL0     C17084   7.755   8.429   8.896 -0.5152  1.3563  0.6451
  868MOL0     C17085   7.787   8.343   9.019  0.0200 -0.2521 -0.3357
  868MOL0     C17086   7.655   8.324   9.096 -0.5942  0.3246 -0.4073
  868MOL0     C17087   7.681   8.242   9.224  0.2660 -0.6062  0.9236
  868MOL0     C17088   7.552   8.245   9.313  0.9755 -0.6688  0.6901
  868MOL0     C17089   7.557   8.152   9.431  0.7054 -0.9737 -0.2439
  868MOL0    Cl17090   7.715   8.180   9.512 -0.0748  0.6014  0.1391
  868MOL0     C17091   8.222   8.655   8.910  0.1393  1.1102 -0.0110
  868MOL0     C17092   8.329   8.736   8.945 -0.6991  0.2371  0.8128
  868MOL0     O17093   8.487   8.971   9.048  0.0385  0.4493  0.4916
  868MOL0     C17094   8.795   8.941   8.879 -0.5971  0.0242 -0.8168
  868MOL0     C17095   8.911   9.013   8.860 -0.0389  0.6277 -0.0566
  868MOL0     N17096   9.305   9.439   8.345 -0.4922 -0.0141  0.5407
  868MOL0     N17097   9.203   9.469   8.273  0.6893 -0.5400  0.3047
  868MOL0     C17098   8.537  10.390   8.175 -0.1333  0.3099 -0.2935
  868MOL0     C17099   8.620  10.476   8.101 -0.2878  0.5631 -0.5036
  868MOL0     C17100   9.002  10.649   7.914 -0.8332 -0.0592 -0.5688
  868MOL0     C17101   9.074  10.777   7.935 -0.0176  0.4373  0.4262
  868MOL0     C17102   9.170  10.816   7.851 -0.0231 -0.4991 -0.6396
  868MOL0     C17103   9.193  10.755   7.730 -0.3713  0.1091 -0.0524
  868MOL0     O17104   9.296  10.794   7.639  0.0186  0.2006 -0.4519
  868MOL0     C17105   9.389  10.899   7.664  0.6452 -0.5512  0.8551
  868MOL0     C17106   9.488  10.880   7.774 -0.1712  0.2765  0.8144
  868MOL0     C17107   9.571  11.001   7.801  0.2751  1.0255 -1.0566
  868MOL0     C17108   9.677  10.967   7.913  1.2631 -0.3776 -0.3036
  868MOL0     C17109   9.744  11.088   7.971 -0.4654  1.1038  1.5245
  868MOL0     C17110   9.800  11.187   8.004  0.0577 -0.8304 -1.5122
  868MOL0     C17111   9.119  10.643   7.699  0.6577 -0.2019 -0.5682
  868MOL0     C17112   9.030  10.587   7.794  0.1130  0.4186  0.7660
  868MOL0     H17113   8.873  10.245   8.056 -1.2131 -4.1569 -0.5830
  868MOL0     H17114   8.745  10.115   8.182  1.7141  0.4980  2.8010
  868MOL0     H17115   8.390   9.980   8.211 -0.7948  1.0660 -2.4650
  868MOL0     H17116   8.534   9.996   8.126 -2.4320 -3.1146 -0.5724
  868MOL0     H17117   8.678   9.979   8.326  1.4555  0.4123 -3.0137
  868MOL0     H17118   8.529   9.934   8.418  2.4584 -2.7853  1.0392
  868MOL0     H17119   8.599   9.722   8.368 -0.4187  1.5728  0.2893
  868MOL0     H17120   8.496   9.732   8.228 -2.1309  0.0886  2.6162
  868MOL0     H17121   8.699   9.799   8.091  2.2879  2.5628  2.8164
  868MOL0     H17122   8.801   9.758   8.232  2.4935 -2.0556 -0.3147
  868MOL0     H17123   8.700   9.526   8.231  2.2706 -0.9552 -0.1361
  868MOL0     H17124   8.616   9.570   8.079  0.2026 -1.7426  0.6193
  868MOL0     H17125   8.822   9.462   8.011  0.1153  0.8789 -1.4766
  868MOL0     H17126   8.853   9.632   7.986 -1.5863 -2.0717 -2.8021
  868MOL0     H17127   9.045   9.514   8.080  3.1813  2.6795  2.0971
  868MOL0     H17128   8.992   9.657   8.178 -0.3639 -0.6071  2.4030
  868MOL0     H17129   8.911   9.373   8.229  0.0994 -0.8637  1.0984
  868MOL0     H17130   8.896   9.506   8.341  1.7368  0.5439  0.7759
  868MOL0     H17131   9.042   9.352   8.529 -1.0789 -0.3366 -0.2935
  868MOL0     H17132   9.335   9.209   8.572 -3.1497 -0.5334 -2.8246
  868MOL0     H17133   9.435   9.344   8.575  1.2994 -1.6591  0.4444
  868MOL0     H17134   9.183   9.418   8.700 -0.9243 -0.5970  0.7014
  868MOL0     H17135   9.351   9.454   8.741 -2.1531  1.2325 -1.8556
  868MOL0     H17136   9.238   9.326   8.909  1.4339  0.4763 -1.2147
  868MOL0     H17137   9.354   9.225   8.835  0.3257  1.3757 -1.0962
  868MOL0     H17138   9.187   9.085   8.860 -1.5891  0.7513  1.4079
  868MOL0     H17139   9.159   9.134   8.693 -0.2298  2.5599 -0.1872
  868MOL0     H17140   8.809   9.327   8.916 -3.5662 -0.3814  0.4242
  868MOL0     H17141   8.507   9.251   8.898 -0.4018 -3.6331 -2.1709
  868MOL0     H17142   8.525   9.211   9.074 -0.4627 -0.6887 -0.8772
  868MOL0     H17143   8.620   9.344   9.008  3.3293 -1.3842 -0.2440
  868MOL0     H17144   8.504   8.702   8.659  0.2090  0.9355 -0.6809
  868MOL0     H17145   8.309   8.581   8.592 -0.5605  3.6276 -1.3439
  868MOL0     H17146   8.009   8.482   8.952 -2.3178  1.1949  0.3683
  868MOL0     H17147   7.947   8.614   8.863 -2.3960 -0.1043 -0.5469
  868MOL0     H17148   7.831   8.503   8.705  0.5199  0.4486  0.4705
  868MOL0     H17149   7.897   8.346   8.759 -2.1217 -0.7775 -0.8041
  868MOL0     H17150   7.678   8.382   8.834  1.5732 -4.0580  1.6246
  868MOL0     H17151   7.727   8.524   8.944  1.7503  2.4220  0.0081
  868MOL0     H17152   7.838   8.254   8.982  0.2350  0.0110 -0.6805
  868MOL0     H17153   7.852   8.410   9.076 -1.0173  1.9041 -1.5098
  868MOL0     H17154   7.580   8.281   9.029  0.0730 -0.5236 -0.6423
  868MOL0     H17155   7.622   8.425   9.118 -1.1459 -0.0239  0.4226
  868MOL0     H17156   7.715   8.145   9.187 -6.2926 -1.9248 -3.3186
  868MOL0     H17157   7.755   8.301   9.279  2.1118  0.9723 -2.9528
  868MOL0     H17158   7.470   8.220   9.245 -0.1793  2.6153  0.7406
  868MOL0     H17159   7.540   8.342   9.362  2.0019 -0.5302  0.6821
  868MOL0     H17160   7.558   8.044   9.409  2.7654 -1.1774  0.6044
  868MOL0     H17161   7.467   8.177   9.486  0.0528 -1.8726 -0.8685
  868MOL0     H17162   8.156   8.615   8.987  0.2305 -2.6840 -1.6983
  868MOL0     H17163   8.335   8.782   9.043 -3.3059  3.8466 -0.5018
  868MOL0     H17164   8.802   8.833   8.872  2.1602  0.0787  0.1401
  868MOL0     H17165   9.001   8.959   8.830 -0.3881 -0.2369  0.4201
  868MOL0     H17166   8.439  10.430   8.198 -1.0564  0.5417 -4.0127
  868MOL0     H17167   8.588  10.575   8.069  1.6274  1.4800  0.2270
  868MOL0     H17168   9.069  10.827   8.031  1.0528  0.9274  0.2331
  868MOL0     H17169   9.232  10.900   7.881  0.6765 -0.2902 -2.5327
  868MOL0     H17170   9.429  10.927   7.566  0.9349  3.2615  1.8671
  868MOL0     H17171   9.324  10.982   7.697 -0.2302 -1.2612  0.9634
  868MOL0     H17172   9.562  10.811   7.733  0.1961  1.2708 -0.2493
  868MOL0     H17173   9.443  10.830   7.861 -2.2575  4.1666  2.1808
  868MOL0     H17174   9.500  11.075   7.838 -0.0703 -0.5580  1.7278
  868MOL0     H17175   9.617  11.043   7.712 -1.8301  2.4048 -1.5463
  868MOL0     H17176   9.758  10.900   7.881  1.6982  0.0721 -0.1684
  868MOL0     H17177   9.617  10.922   7.992  0.5266 -0.3461 -0.8396
  868MOL0     H17178   9.864  11.267   8.035 -0.2441 -0.8713 -0.7568
  868MOL0     H17179   9.128  10.610   7.596  1.3205 -0.0354 -0.5643
  868MOL0     H17180   8.974  10.499   7.760  3.7130 -0.1989 -4.9417
  869MOL0     O17181   4.401   1.417   9.212 -0.2160 -0.1141  0.7667
  869MOL0     C17182   4.415   1.336   9.125  0.4131  1.2159 -0.1644
  869MOL0     O17183   4.351   1.214   9.122  0.4447 -0.4710 -0.1682
  869MOL0     C17184   4.265   1.182   9.224  0.3224 -0.7422 -0.4638
  869MOL0     C17185   4.160   1.268   9.271 -0.4484 -0.0403 -0.1504
  869MOL0     C17186   4.064   1.215   9.366  0.6615  0.1547  0.9952
  869MOL0     C17187   4.074   1.073   9.412 -0.0456 -0.3576  0.7909
  869MOL0     O17188   3.978   1.008   9.484  0.4091 -0.2053 -0.3777
  869MOL0     C17189   3.911   1.091   9.577 -0.8537 -0.4557 -0.4510
  869MOL0     C17190   3.847   1.019   9.691 -0.2644 -0.4276  0.6733
  869MOL0     C17191   3.716   0.953   9.671  0.1578 -0.5191  0.2880
  869MOL0     C17192   3.675   0.894   9.810  0.0207 -0.0073  0.4604
  869MOL0     C17193   3.527   0.835   9.778  0.2612 -0.0715  0.6097
  869MOL0     C17194   3.420   0.935   9.830  0.1772 -1.0464  0.4951
  869MOL0     C17195   3.350   0.987   9.696  0.1647 -0.0969 -0.4927
  869MOL0     C17196   3.255   1.104   9.738 -0.0099  0.2087  0.5569
  869MOL0     N17197   3.205   1.172   9.612  0.2208 -0.1667  0.2856
  869MOL0     C17198   3.121   1.117   9.518 -0.6537 -0.6734 -0.1365
  869MOL0     C17199   3.121   1.207   9.417  1.0307  0.3668 -0.3163
  869MOL0     C17200   3.025   1.194   9.296  0.3116  0.0257 -0.1583
  869MOL0     C17201   3.084   1.209   9.158 -0.5704  0.9108 -0.8045
  869MOL0     C17202   2.997   1.136   9.057  0.8318  1.2198  0.1191
  869MOL0     C17203   3.056   1.137   8.911 -0.1838 -0.5620  0.1064
  869MOL0     O17204   2.966   1.080   8.806  0.6326  0.7646  0.8812
  869MOL0     C17205   3.018   1.058   8.678 -0.6434 -0.2204 -0.0931
  869MOL0     C17206   3.150   1.070   8.643 -0.1635 -1.1272 -0.9490
  869MOL0     C17207   3.185   1.060   8.504  0.3007  0.2458 -0.7129
  869MOL0     C17208   3.327   1.074   8.483 -0.1504  0.3129 -0.1398
  869MOL0     C17209   3.093   1.030   8.407  0.1097  0.3869 -0.1559
  869MOL0     C17210   3.140   1.007   8.267  0.3037  0.5342 -0.7109
  869MOL0     O17211   3.244   0.921   8.251  0.0578  0.3748  0.7026
  869MOL0     C17212   3.300   0.889   8.128  0.2222 -0.3459  0.2724
  869MOL0     C17213   3.255   0.794   8.037 -0.2214 -0.6396  0.3542
  869MOL0     C17214   3.325   0.774   7.919 -0.4799 -0.8396  0.6802
  869MOL0     C17215   3.444   0.857   7.881 -0.0283 -0.6336 -0.6938
  869MOL0     O17216   3.510   0.848   7.759 -0.4690 -1.0504 -0.4457
  869MOL0     C17217   3.544   0.717   7.715  0.1693  0.5661  0.4359
  869MOL0     C17218   3.603   0.710   7.564  0.2168 -0.4098 -0.0627
  869MOL0     C17219   3.510   0.798   7.480 -0.6263 -0.3678 -0.2750
  869MOL0     C17220   3.372   0.737   7.478  0.1089 -0.1557  0.1618
  869MOL0     C17221   3.275   0.812   7.382  0.1791 -0.9745  0.4105
  869MOL0     C17222   3.318   0.781   7.238  0.1905  0.0652 -0.5476
  869MOL0     C17223   3.227   0.854   7.133  0.3095 -0.8816 -0.8403
  869MOL0     C17224   3.228   0.793   6.994 -0.7272 -0.3834 -0.0390
  869MOL0    Cl17225   3.397   0.802   6.942  0.0578  0.4152 -0.0788
  869MOL0     C17226   3.481   0.963   7.966  1.1929  0.2353  0.3650
  869MOL0     C17227   3.413   0.976   8.087  0.7767 -0.0731  0.3110
  869MOL0     O17228   3.070   1.047   8.174  0.7401 -0.1883 -0.1220
  869MOL0     C17229   2.967   1.020   8.445 -0.7000 -0.7019  0.9375
  869MOL0     C17230   2.932   1.035   8.577  0.6705  0.5492  0.5560
  869MOL0     N17231   3.201   1.309   9.443 -0.2186 -0.5917  1.1325
  869MOL0     N17232   3.266   1.278   9.552  0.0931 -1.0354 -0.2315
  869MOL0     C17233   4.177   0.996   9.356 -0.3814 -1.1259  0.2901
  869MOL0     C17234   4.266   1.050   9.266  0.0636  0.8512 -0.4078
  869MOL0     C17235   4.515   1.351   9.019 -0.0902  0.6180  0.1363
  869MOL0     C17236   4.584   1.474   9.003  0.1698  0.2736 -0.1512
  869MOL0     C17237   4.679   1.497   8.909 -0.8506  0.0964 -0.2426
  869MOL0     C17238   4.718   1.392   8.829  0.7487 -0.5476 -0.0676
  869MOL0     O17239   4.834   1.391   8.760 -0.3266 -0.7364  0.3360
  869MOL0     C17240   4.924   1.496   8.758  0.5993 -0.3437  0.3591
  869MOL0     C17241   5.044   1.478   8.661 -0.4733  1.0975  0.9288
  869MOL0     C17242   4.989   1.468   8.519 -0.8980  0.1327  0.2232
  869MOL0     C17243   5.086   1.407   8.414  0.5194  0.4412 -0.3775
  869MOL0     C17244   5.210   1.495   8.412  0.5645 -0.1845 -0.6446
  869MOL0     C17245   5.311   1.557   8.423  0.2254 -0.2617  0.0016
  869MOL0     C17246   4.639   1.277   8.824  0.7374 -0.6715 -0.8957
  869MOL0     C17247   4.534   1.261   8.918  0.4847 -1.0897 -0.7636
  869MOL0     H17248   4.154   1.372   9.240 -2.7219  0.3130  1.2500
  869MOL0     H17249   3.978   1.272   9.399 -0.2779 -0.2350 -0.6645
  869MOL0     H17250   3.987   1.158   9.619  0.5345 -0.2908 -3.0232
  869MOL0     H17251   3.834   1.154   9.531 -3.5298 -2.4243  1.0432
  869MOL0     H17252   3.920   0.945   9.726  1.3391  0.5311 -0.4946
  869MOL0     H17253   3.830   1.100   9.763 -2.3788  1.4152 -1.7387
  869MOL0     H17254   3.647   1.033   9.642  2.5577  2.1440  1.3817
  869MOL0     H17255   3.724   0.878   9.593  0.2031  1.3890 -1.6470
  869MOL0     H17256   3.741   0.813   9.840 -0.6084 -0.6978  0.0064
  869MOL0     H17257   3.676   0.954   9.901  1.4781  0.8141 -0.0661
  869MOL0     H17258   3.518   0.816   9.671 -0.3849 -2.2187  1.0058
  869MOL0     H17259   3.521   0.747   9.842  1.3662 -0.2567  0.4774
  869MOL0     H17260   3.345   0.894   9.898 -2.6913  5.0771  1.6848
  869MOL0     H17261   3.457   1.017   9.893 -3.3381  1.1505 -0.0253
  869MOL0     H17262   3.424   1.024   9.625 -0.3966  2.8712  0.3289
  869MOL0     H17263   3.288   0.904   9.660 -1.1628  0.3868  0.6020
  869MOL0     H17264   3.304   1.180   9.800  0.4732  0.2613  0.1200
  869MOL0     H17265   3.178   1.066   9.806 -0.6643  0.6791  0.0802
  869MOL0     H17266   3.069   1.022   9.526 -0.6823 -0.8028 -1.6621
  869MOL0     H17267   2.975   1.098   9.315  1.9515 -0.3638  2.8485
  869MOL0     H17268   2.941   1.264   9.303  0.8677  0.5212  3.3885
  869MOL0     H17269   3.187   1.176   9.174 -1.4694 -1.2907  0.9634
  869MOL0     H17270   3.071   1.313   9.128 -2.3138  0.5772 -1.2667
  869MOL0     H17271   2.895   1.175   9.045  0.4178  0.3576  0.7284
  869MOL0     H17272   2.968   1.034   9.083 -1.2444  1.2156 -1.8323
  869MOL0     H17273   3.156   1.093   8.899  0.6659  0.7574  1.9427
  869MOL0     H17274   3.073   1.240   8.879  1.1585 -0.5598  0.7748
  869MOL0     H17275   3.227   1.110   8.708 -1.5415  1.6578 -0.8511
  869MOL0     H17276   3.356   0.969   8.477 -2.5662 -0.8454  4.2255
  869MOL0     H17277   3.344   1.122   8.386  1.4915 -1.5533 -0.8296
  869MOL0     H17278   3.392   1.114   8.561  2.6909 -1.8572 -1.2184
  869MOL0     H17279   3.177   0.725   8.068  1.3692 -2.6608  0.0279
  869MOL0     H17280   3.304   0.694   7.850 -0.1872  0.0961 -0.5222
  869MOL0     H17281   3.630   0.687   7.775  2.6366  5.0961 -0.4156
  869MOL0     H17282   3.471   0.636   7.722  2.9356 -2.6906 -3.4703
  869MOL0     H17283   3.705   0.748   7.555  0.1699 -0.6518 -2.4240
  869MOL0     H17284   3.604   0.609   7.523  1.3321 -0.6075  0.4248
  869MOL0     H17285   3.554   0.809   7.381  1.9307 -1.2220  0.6763
  869MOL0     H17286   3.501   0.898   7.524  0.9902 -1.3252  2.4953
  869MOL0     H17287   3.381   0.633   7.445  1.6578 -0.3060  0.9579
  869MOL0     H17288   3.328   0.731   7.578 -1.2894  1.2777 -0.3294
  869MOL0     H17289   3.266   0.921   7.392 -0.1123 -1.0140  0.6023
  869MOL0     H17290   3.172   0.780   7.402 -0.6962  2.2307  1.6471
  869MOL0     H17291   3.421   0.816   7.226 -0.4899  4.2065  3.2657
  869MOL0     H17292   3.309   0.673   7.221  0.1607  0.0198 -0.2417
  869MOL0     H17293   3.257   0.959   7.126 -0.1348 -0.5953  1.0599
  869MOL0     H17294   3.123   0.861   7.165  0.1437  1.0252 -1.6528
  869MOL0     H17295   3.168   0.855   6.927 -0.9385  2.3456  2.4359
  869MOL0     H17296   3.170   0.702   7.004 -0.3059 -0.7851 -1.1328
  869MOL0     H17297   3.552   1.042   7.945  1.0966 -0.3506 -2.5996
  869MOL0     H17298   3.421   1.054   8.162 -0.0479  2.0134 -1.6551
  869MOL0     H17299   2.877   1.000   8.387 -1.6623  0.9390  1.8028
  869MOL0     H17300   2.825   1.027   8.597  0.1948 -2.8750 -2.3669
  869MOL0     H17301   4.179   0.889   9.375 -0.0500 -1.0863  0.4969
  869MOL0     H17302   4.331   0.983   9.209 -0.8710  0.8726 -1.5321
  869MOL0     H17303   4.552   1.558   9.063  2.0963  0.5121  0.6292
  869MOL0     H17304   4.736   1.588   8.923 -0.9593 -0.2884  3.5703
  869MOL0     H17305   4.865   1.575   8.710 -1.1696 -1.1933  1.0283
  869MOL0     H17306   4.968   1.506   8.858  0.2500 -0.0194  0.4870
  869MOL0     H17307   5.088   1.382   8.691 -2.8173 -1.2606 -2.5124
  869MOL0     H17308   5.105   1.568   8.673 -0.6216  1.3350 -0.0611
  869MOL0     H17309   4.976   1.570   8.481 -0.4316  0.1701  0.1593
  869MOL0     H17310   4.895   1.412   8.517 -0.0461 -1.3691 -1.4030
  869MOL0     H17311   5.042   1.410   8.313  3.9253 -0.3157 -2.0364
  869MOL0     H17312   5.119   1.306   8.438 -1.4850  0.2547  1.8713
  869MOL0     H17313   5.405   1.605   8.436  0.2211 -0.1148 -0.4906
  869MOL0     H17314   4.672   1.196   8.759  1.5590 -1.0551 -0.0297
  869MOL0     H17315   4.480   1.169   8.900  1.5511 -1.9113  0.0905
  870MOL0     O17316   9.443   5.038   0.461  0.2340  0.1581 -0.4418
  870MOL0     C17317   9.339   4.986   0.419  0.5259 -0.0930 -0.2672
  870MOL0     O17318   9.307   4.854   0.426 -0.6509 -0.2856  0.0546
  870MOL0     C17319   9.397   4.762   0.450  0.5717  0.7952 -0.6498
  870MOL0     C17320   9.521   4.748   0.385  0.1493  0.6395  0.3074
  870MOL0     C17321   9.610   4.653   0.420 -0.2522  1.2730  1.1080
  870MOL0     C17322   9.582   4.563   0.526 -0.0347  0.0870 -0.8366
  870MOL0     O17323   9.673   4.469   0.562  0.1490 -0.1232  0.3659
  870MOL0     C17324   9.811   4.505   0.547 -0.6914 -0.2904  0.9819
  870MOL0     C17325   9.894   4.401   0.629 -0.2987  0.1098  0.5959
  870MOL0     C17326  10.035   4.392   0.563  0.6081  1.3295 -0.1561
  870MOL0     C17327  10.125   4.312   0.654  0.9323  0.0989 -0.7421
  870MOL0     C17328  10.248   4.254   0.580  0.0321 -0.3347  0.5050
  870MOL0     C17329  10.340   4.174   0.670 -0.5555 -0.0005 -0.9479
  870MOL0     C17330  10.472   4.141   0.593 -0.6430  0.2517 -0.3982
  870MOL0     C17331  10.562   4.056   0.684 -0.5735 -0.1896 -0.5135
  870MOL0     N17332  10.636   4.136   0.782 -0.1637  0.7918  0.1100
  870MOL0     C17333  10.631   4.129   0.915 -0.0495  0.2038  1.4703
  870MOL0     C17334  10.727   4.218   0.951  0.2913 -0.0779  0.0373
  870MOL0     C17335  10.749   4.262   1.095  0.1810  0.4000 -0.3746
  870MOL0     C17336  10.659   4.365   1.145  0.5541  0.4257 -0.1634
  870MOL0     C17337  10.661   4.506   1.073  0.0372 -0.1168  1.1108
  870MOL0     C17338  10.800   4.569   1.061  0.0716 -0.0742 -0.0144
  870MOL0     O17339  10.857   4.604   1.186 -0.5680  0.2524  0.2711
  870MOL0     C17340  10.980   4.668   1.187  1.0189  0.8547 -0.5609
  870MOL0     C17341  11.039   4.701   1.307 -0.0979 -0.2903 -0.1610
  870MOL0     C17342  11.175   4.754   1.318 -0.3453 -0.2575  0.4899
  870MOL0     C17343  11.225   4.786   1.450  0.2888 -0.2404  0.7105
  870MOL0     C17344  11.255   4.774   1.199 -0.2842  0.0041  0.5629
  870MOL0     C17345  11.391   4.829   1.202 -0.0106  0.0189 -0.8657
  870MOL0     O17346  11.432   4.869   1.080 -0.2225  0.6684 -0.3459
  870MOL0     C17347  11.555   4.915   1.063  0.1826 -0.4823 -0.0173
  870MOL0     C17348  11.622   5.016   1.137  0.5509 -1.3656 -1.2723
  870MOL0     C17349  11.752   5.054   1.129  1.0238 -0.5309  0.9025
  870MOL0     C17350  11.818   4.996   1.015 -0.0621  0.4300 -0.3205
  870MOL0     O17351  11.946   5.031   0.975  0.6657  0.4453  0.7173
  870MOL0     C17352  12.043   5.013   1.075  0.0880 -0.3204  0.7450
  870MOL0     C17353  12.173   5.045   1.005 -0.0288 -0.5924  0.0564
  870MOL0     C17354  12.313   5.025   1.083 -0.1622 -0.0869  0.2255
  870MOL0     C17355  12.423   5.116   1.021  0.6715  0.1174  0.4896
  870MOL0     C17356  12.479   5.058   0.897  0.8249 -1.3102  0.1674
  870MOL0     C17357  12.581   4.948   0.927 -0.2771 -0.4773  0.4244
  870MOL0     C17358  12.712   5.009   0.981 -0.3389  0.5101  1.3240
  870MOL0     C17359  12.822   4.911   0.972 -0.5262 -0.1703  0.3834
  870MOL0    Cl17360  12.795   4.782   1.094 -0.1906 -0.0686  0.3076
  870MOL0     C17361  11.760   4.896   0.940 -0.8712 -0.0281 -0.1809
  870MOL0     C17362  11.627   4.860   0.959 -0.0957 -0.1511  0.7106
  870MOL0     O17363  11.462   4.810   1.303  0.3170  0.0723  1.3542
  870MOL0     C17364  11.201   4.738   1.080  0.5482  0.4453 -0.5731
  870MOL0     C17365  11.065   4.694   1.067  0.7141 -1.0410  0.0839
  870MOL0     N17366  10.789   4.269   0.843  0.1783  0.1295 -0.8486
  870MOL0     N17367  10.740   4.222   0.743  0.0867  0.4617 -0.0638
  870MOL0     C17368   9.461   4.572   0.589  0.1017 -0.0227  0.4075
  870MOL0     C17369   9.366   4.667   0.544  0.0122  0.6536 -0.1141
  870MOL0     C17370   9.221   5.061   0.359 -0.0739 -0.2189 -0.1819
  870MOL0     C17371   9.213   5.203   0.362 -0.1708  0.5983 -0.3403
  870MOL0     C17372   9.109   5.268   0.304  1.0353 -0.1992  0.0926
  870MOL0     C17373   8.992   5.201   0.255  0.6656 -0.0607 -0.5019
  870MOL0     O17374   8.884   5.276   0.197 -0.4335  0.5232  0.3540
  870MOL0     C17375   8.768   5.217   0.145 -0.7928  0.2426  1.0103
  870MOL0     C17376   8.794   5.161   0.003 -0.4391 -0.4175 -0.1103
  870MOL0     C17377   8.678   5.061  -0.027 -0.1654 -0.1516 -0.4151
  870MOL0     C17378   8.630   5.054  -0.167  0.3989  0.0219  0.8174
  870MOL0     C17379   8.738   5.017  -0.260  0.4391 -0.1322  0.1864
  870MOL0     C17380   8.823   4.995  -0.343 -0.4031 -0.0234  0.4272
  870MOL0     C17381   8.997   5.062   0.247  0.6121 -0.2109 -0.5387
  870MOL0     C17382   9.108   4.999   0.308  0.0104  0.4669 -0.5949
  870MOL0     H17383   9.552   4.828   0.319  0.2138  0.5253  0.1964
  870MOL0     H17384   9.704   4.650   0.365 -0.8021 -0.5474  0.1634
  870MOL0     H17385   9.850   4.523   0.446  2.1321  0.7835  2.1638
  870MOL0     H17386   9.822   4.605   0.589  0.4693  0.4879 -1.0350
  870MOL0     H17387   9.899   4.444   0.729  0.6439  2.2680 -0.3143
  870MOL0     H17388   9.841   4.306   0.642  1.9803 -1.0345  2.2573
  870MOL0     H17389  10.024   4.337   0.469 -0.3432 -0.8826  1.1695
  870MOL0     H17390  10.087   4.487   0.544  1.0309  0.6134 -3.1531
  870MOL0     H17391  10.162   4.371   0.739 -0.7666  2.7033 -1.7146
  870MOL0     H17392  10.065   4.227   0.687 -2.2596  2.1764 -0.8330
  870MOL0     H17393  10.219   4.176   0.509  2.4810 -0.5567 -0.3329
  870MOL0     H17394  10.300   4.342   0.543 -0.5489  0.5460  1.7084
  870MOL0     H17395  10.372   4.228   0.760 -2.0211  0.6310 -0.7631
  870MOL0     H17396  10.280   4.088   0.699  0.7972 -0.4854  0.5703
  870MOL0     H17397  10.454   4.086   0.501  1.1131  0.9732 -1.2268
  870MOL0     H17398  10.528   4.230   0.563 -0.6779  0.4220  0.0353
  870MOL0     H17399  10.642   4.001   0.631  1.5592 -0.6513  2.8937
  870MOL0     H17400  10.498   3.979   0.727 -0.3594 -0.7871 -1.2259
  870MOL0     H17401  10.559   4.077   0.978 -1.8095 -2.4465 -2.3009
  870MOL0     H17402  10.740   4.174   1.160  2.1248 -0.5551 -1.3045
  870MOL0     H17403  10.853   4.296   1.101 -0.1283  1.1775  0.8665
  870MOL0     H17404  10.686   4.390   1.249  0.2685  2.8754 -0.6043
  870MOL0     H17405  10.561   4.317   1.153  1.1464 -0.5454  2.9875
  870MOL0     H17406  10.586   4.564   1.126  0.5838 -0.6910  2.5664
  870MOL0     H17407  10.630   4.480   0.971 -2.9264  1.7259  1.4393
  870MOL0     H17408  10.791   4.654   0.993  0.3711 -2.4382 -3.2441
  870MOL0     H17409  10.856   4.498   1.000 -3.9386 -3.1754 -0.5452
  870MOL0     H17410  10.988   4.689   1.403 -0.2153  0.4656 -0.1218
  870MOL0     H17411  11.147   4.769   1.524  0.0142 -2.2312  0.0147
  870MOL0     H17412  11.303   4.715   1.479 -1.2021 -1.2258  2.4924
  870MOL0     H17413  11.259   4.890   1.444  1.1131 -0.5792 -1.9887
  870MOL0     H17414  11.566   5.074   1.210 -0.3892  0.6480 -3.4571
  870MOL0     H17415  11.791   5.132   1.195  2.0154 -0.7495  0.5914
  870MOL0     H17416  12.023   5.090   1.150  0.5849 -1.3222  1.9325
  870MOL0     H17417  12.048   4.913   1.119  2.2736 -1.6086 -2.1344
  870MOL0     H17418  12.177   4.968   0.929 -1.8752 -2.1173  1.3990
  870MOL0     H17419  12.153   5.143   0.961  0.9375 -0.0753  0.7216
  870MOL0     H17420  12.342   4.920   1.084 -1.2346 -0.3922  0.7764
  870MOL0     H17421  12.301   5.060   1.186 -0.6331  1.4676 -0.3162
  870MOL0     H17422  12.388   5.215   0.989  4.1310  0.5293 -2.6152
  870MOL0     H17423  12.501   5.127   1.096 -1.6096 -0.5344  3.1257
  870MOL0     H17424  12.525   5.142   0.844 -1.5678  0.7489  1.1575
  870MOL0     H17425  12.401   5.021   0.831  0.7757 -0.0033 -0.5548
  870MOL0     H17426  12.536   4.878   0.999 -2.8011 -0.5329 -1.0803
  870MOL0     H17427  12.607   4.906   0.830 -1.3893  2.5157 -1.3399
  870MOL0     H17428  12.707   5.054   1.081  1.3725 -1.8965  2.5979
  870MOL0     H17429  12.748   5.086   0.912 -1.8730  0.7279  0.7439
  870MOL0     H17430  12.913   4.966   0.993 -0.6089  0.2403 -0.2962
  870MOL0     H17431  12.839   4.877   0.869  0.5390 -0.0040  0.4945
  870MOL0     H17432  11.803   4.845   0.855 -1.3965 -2.1536  0.7641
  870MOL0     H17433  11.574   4.790   0.894 -2.7103  0.7671  1.7309
  870MOL0     H17434  11.254   4.754   0.987  1.8264 -0.0330  0.0424
  870MOL0     H17435  11.022   4.676   0.969 -3.7408  0.1677  1.5897
  870MOL0     H17436   9.436   4.486   0.650 -3.3791  0.0404 -0.6769
  870MOL0     H17437   9.268   4.661   0.590  1.4847  2.3558  3.6367
  870MOL0     H17438   9.299   5.252   0.406  2.3403 -4.7017  1.4969
  870MOL0     H17439   9.098   5.375   0.295 -0.1116 -0.3713 -0.7173
  870MOL0     H17440   8.725   5.146   0.216 -1.7662  1.8730  2.1421
  870MOL0     H17441   8.687   5.290   0.133 -1.3716 -0.4430  0.7157
  870MOL0     H17442   8.888   5.107  -0.012  0.9281  1.8055 -0.1019
  870MOL0     H17443   8.796   5.248  -0.063 -0.6397 -0.1602  0.2119
  870MOL0     H17444   8.590   5.067   0.037 -0.4573  1.2088 -0.8997
  870MOL0     H17445   8.727   4.968   0.004 -0.1547  0.6981  2.4817
  870MOL0     H17446   8.600   5.154  -0.200  0.5984 -0.5737 -1.3237
  870MOL0     H17447   8.538   4.995  -0.177  0.3755 -0.1585  1.9427
  870MOL0     H17448   8.906   4.973  -0.407 -1.9779 -1.1315 -1.3245
  870MOL0     H17449   8.917   4.997   0.212  0.4948 -0.0008 -0.6618
  870MOL0     H17450   9.094   4.891   0.315  3.5125 -0.1483 -0.9305
  871MOL0     O17451   1.125   5.550   4.568  0.2640  0.0374  0.4364
  871MOL0     C17452   1.041   5.538   4.477  0.9038 -0.6482 -0.2424
  871MOL0     O17453   1.065   5.490   4.348 -0.5884  0.1550  0.5491
  871MOL0     C17454   1.200   5.465   4.320  0.3957  1.2938 -0.8075
  871MOL0     C17455   1.299   5.564   4.335 -0.2849  0.2056 -0.2809
  871MOL0     C17456   1.430   5.542   4.280 -0.7968 -0.1896 -0.2357
  871MOL0     C17457   1.460   5.417   4.220  0.8725 -0.0251 -0.3631
  871MOL0     O17458   1.591   5.407   4.175  0.5746  0.1303 -0.5948
  871MOL0     C17459   1.639   5.273   4.138 -0.9570 -0.6162  0.6413
  871MOL0     C17460   1.790   5.257   4.160 -0.1977  0.0308  0.8617
  871MOL0     C17461   1.883   5.370   4.126 -0.1288  0.9242 -0.2868
  871MOL0     C17462   2.018   5.352   4.205 -0.8332  0.0924 -0.5610
  871MOL0     C17463   2.114   5.460   4.142 -0.2373 -0.8675  0.4144
  871MOL0     C17464   2.260   5.418   4.153  0.4151 -0.3500  0.8560
  871MOL0     C17465   2.352   5.503   4.064  1.0192  0.1301 -0.9269
  871MOL0     C17466   2.386   5.635   4.126 -0.8552  0.5966 -0.7993
  871MOL0     N17467   2.283   5.741   4.124  0.5537 -0.3188  0.0149
  871MOL0     C17468   2.197   5.776   4.231  0.1942  0.6480 -0.9176
  871MOL0     C17469   2.127   5.885   4.189  0.7257 -0.2761 -0.3327
  871MOL0     C17470   2.011   5.961   4.253  0.0016  0.4753  0.0761
  871MOL0     C17471   1.930   6.040   4.153 -0.3381 -0.1669  0.5699
  871MOL0     C17472   1.808   6.107   4.229 -0.1294  0.2887  0.1820
  871MOL0     C17473   1.728   6.216   4.150 -0.6031  0.6723 -0.5247
  871MOL0     O17474   1.656   6.150   4.047 -0.7703  0.3414 -0.2238
  871MOL0     C17475   1.540   6.220   4.028 -0.0090  0.6228 -0.2912
  871MOL0     C17476   1.418   6.169   4.081 -0.4008  0.7325  0.0564
  871MOL0     C17477   1.299   6.238   4.064  0.1985  0.6308 -0.0777
  871MOL0     C17478   1.178   6.157   4.108 -0.4231  0.0206  0.2892
  871MOL0     C17479   1.297   6.363   4.000 -0.3788  0.5219 -0.3672
  871MOL0     C17480   1.174   6.443   3.979 -0.2751 -0.6793  0.0714
  871MOL0     O17481   1.067   6.412   4.050 -0.0940  0.2120  0.4964
  871MOL0     C17482   0.952   6.489   4.062 -0.0752  0.2111  0.1012
  871MOL0     C17483   0.957   6.623   4.098  0.3273 -0.1217 -0.9435
  871MOL0     C17484   0.845   6.708   4.096 -0.5038 -0.5794  0.0163
  871MOL0     C17485   0.718   6.653   4.074 -0.0446  0.0898  0.8397
  871MOL0     O17486   0.598   6.720   4.075 -0.2379 -0.2397 -0.8412
  871MOL0     C17487   0.605   6.858   4.118 -0.4780  0.1825 -0.0619
  871MOL0     C17488   0.481   6.931   4.118 -0.3030 -0.0343  0.1114
  871MOL0     C17489   0.366   6.847   4.162 -0.5461  0.5455  0.4506
  871MOL0     C17490   0.259   6.922   4.234 -0.0907 -0.2380  0.9452
  871MOL0     C17491   0.300   6.983   4.365  0.7863  0.5245  0.4913
  871MOL0     C17492   0.176   7.025   4.456  0.1158  0.7980  0.2027
  871MOL0     C17493   0.213   7.070   4.595  0.4954 -0.5740 -0.1993
  871MOL0     C17494   0.114   7.154   4.679 -0.1002 -1.0528 -0.5653
  871MOL0    Cl17495  -0.017   7.050   4.732 -0.1983 -0.3862 -0.1675
  871MOL0     C17496   0.713   6.515   4.043 -0.4852  0.6065  0.5986
  871MOL0     C17497   0.825   6.431   4.038 -1.1630 -0.1793 -0.1473
  871MOL0     O17498   1.186   6.537   3.902  0.5716  0.1555  0.4499
  871MOL0     C17499   1.424   6.413   3.944 -0.0197  0.0659  0.3960
  871MOL0     C17500   1.540   6.334   3.948  0.1683 -0.3811 -0.1470
  871MOL0     N17501   2.171   5.909   4.062  0.1458  0.8253  0.0676
  871MOL0     N17502   2.272   5.834   4.029 -0.7715 -0.7653 -0.3181
  871MOL0     C17503   1.355   5.321   4.198  1.5581 -1.3333  0.5209
  871MOL0     C17504   1.229   5.341   4.254  0.3718 -0.1256  0.2011
  871MOL0     C17505   0.892   5.541   4.521  0.4156  0.2585  0.0199
  871MOL0     C17506   0.794   5.564   4.425  0.3478  0.5017  0.1500
  871MOL0     C17507   0.662   5.566   4.466  0.4640 -0.2998  0.0767
  871MOL0     C17508   0.618   5.537   4.591 -0.0002 -0.5144 -0.4964
  871MOL0     O17509   0.480   5.526   4.612 -0.0144  0.0410  0.5696
  871MOL0     C17510   0.426   5.467   4.730  0.3793 -0.1541 -0.8227
  871MOL0     C17511   0.451   5.314   4.750 -0.8359  0.0517 -0.0457
  871MOL0     C17512   0.401   5.271   4.888  0.9600 -0.4063  0.6216
  871MOL0     C17513   0.488   5.307   5.004 -0.8479 -0.8093 -0.0876
  871MOL0     C17514   0.611   5.228   5.017 -0.1363 -0.6379  0.2490
  871MOL0     C17515   0.694   5.142   5.021 -1.4581 -0.1505  0.4721
  871MOL0     C17516   0.711   5.515   4.685  0.1703  0.3076 -0.3811
  871MOL0     C17517   0.847   5.521   4.656  0.3506 -0.2793  0.0376
  871MOL0     H17518   1.276   5.660   4.380  4.8013  2.0008 -0.8776
  871MOL0     H17519   1.505   5.613   4.314 -1.8597 -0.5098  3.2091
  871MOL0     H17520   1.601   5.193   4.201 -3.0453  0.2796  0.6161
  871MOL0     H17521   1.609   5.254   4.034 -0.5186  0.5436  0.2864
  871MOL0     H17522   1.795   5.227   4.266 -5.5064 -3.9835  0.4259
  871MOL0     H17523   1.831   5.167   4.113  3.2447  2.3610 -0.9862
  871MOL0     H17524   1.901   5.379   4.019 -1.4577  0.5259 -0.5609
  871MOL0     H17525   1.840   5.465   4.157  0.1197  1.4896 -1.6055
  871MOL0     H17526   2.011   5.378   4.310  0.7783  4.8809 -1.3881
  871MOL0     H17527   2.060   5.251   4.195 -3.2344 -1.0195 -0.0679
  871MOL0     H17528   2.098   5.467   4.034 -1.6823 -0.9779  0.6044
  871MOL0     H17529   2.081   5.560   4.174 -0.2009 -0.8344  0.3486
  871MOL0     H17530   2.290   5.411   4.258  1.0870  2.6950  0.9479
  871MOL0     H17531   2.273   5.322   4.103 -0.2866  1.3030 -2.7871
  871MOL0     H17532   2.450   5.460   4.045  1.4487  1.5700 -2.1032
  871MOL0     H17533   2.304   5.510   3.966 -0.1196 -0.5757 -0.4449
  871MOL0     H17534   2.470   5.675   4.068  0.7711  0.6535  1.4735
  871MOL0     H17535   2.423   5.621   4.228 -0.1398 -1.1833 -1.2660
  871MOL0     H17536   2.178   5.707   4.313 -0.1875  0.7430 -0.9258
  871MOL0     H17537   1.947   5.881   4.293  0.4358 -0.0222 -0.2124
  871MOL0     H17538   2.044   6.026   4.335  2.9324  0.4793 -1.0012
  871MOL0     H17539   1.901   5.977   4.068  2.4387 -0.1572 -0.5140
  871MOL0     H17540   1.995   6.112   4.102 -2.4498  0.3658 -1.5012
  871MOL0     H17541   1.842   6.150   4.324 -1.7887  1.2806  0.3732
  871MOL0     H17542   1.745   6.022   4.257 -0.0301  1.4008  4.3948
  871MOL0     H17543   1.788   6.295   4.105 -0.1023 -1.0133 -2.9773
  871MOL0     H17544   1.664   6.258   4.228  0.1734  0.3380  0.3013
  871MOL0     H17545   1.417   6.069   4.124 -1.6184  0.2575 -1.0416
  871MOL0     H17546   1.138   6.135   4.008  1.6326 -1.1123 -0.3458
  871MOL0     H17547   1.200   6.064   4.161 -2.9530 -1.6967 -1.4423
  871MOL0     H17548   1.111   6.219   4.167  1.9599 -0.2078  3.4916
  871MOL0     H17549   1.056   6.668   4.101  0.9898 -1.5963  0.6938
  871MOL0     H17550   0.876   6.808   4.126  1.1168 -1.7579  2.7062
  871MOL0     H17551   0.646   6.851   4.219  3.1742 -0.2917 -1.4353
  871MOL0     H17552   0.671   6.925   4.063 -1.0261  1.4966  0.8261
  871MOL0     H17553   0.488   7.032   4.160  0.6834  0.2424 -0.6910
  871MOL0     H17554   0.466   6.951   4.012  2.0620 -1.9359 -0.6701
  871MOL0     H17555   0.401   6.772   4.233 -0.9607  0.8962  1.0305
  871MOL0     H17556   0.322   6.795   4.076  1.3441 -1.6790  0.7315
  871MOL0     H17557   0.208   6.995   4.171 -0.3868 -0.2108  1.2109
  871MOL0     H17558   0.198   6.833   4.254  4.2312 -3.7146  0.1679
  871MOL0     H17559   0.362   7.072   4.350  1.2468  0.8986  3.8899
  871MOL0     H17560   0.351   6.908   4.426  1.6330  2.6673  2.5436
  871MOL0     H17561   0.132   7.112   4.406  0.2211 -0.1851 -1.7169
  871MOL0     H17562   0.106   6.942   4.452  2.3247 -1.1168 -1.4665
  871MOL0     H17563   0.307   7.125   4.583  0.4404 -0.9754 -3.0447
  871MOL0     H17564   0.249   6.983   4.651  0.0675 -1.3144 -1.0501
  871MOL0     H17565   0.093   7.242   4.617 -0.9826 -0.5105  0.4830
  871MOL0     H17566   0.180   7.189   4.758  1.3189 -0.1629 -2.0959
  871MOL0     H17567   0.623   6.458   4.023 -0.5380  0.8527  0.1396
  871MOL0     H17568   0.818   6.324   4.026 -0.2307 -0.1684 -0.8781
  871MOL0     H17569   1.441   6.504   3.889 -1.1821  1.0387  1.5734
  871MOL0     H17570   1.628   6.376   3.900 -0.8873  2.0571 -0.1327
  871MOL0     H17571   1.364   5.230   4.141 -1.0409 -0.8430 -0.8264
  871MOL0     H17572   1.159   5.260   4.236  0.9852 -0.5966 -0.1125
  871MOL0     H17573   0.830   5.597   4.328 -2.8288  1.5865 -0.7524
  871MOL0     H17574   0.604   5.593   4.378  2.4859  5.2813  0.0683
  871MOL0     H17575   0.457   5.507   4.827 -1.3056 -3.4156  1.2124
  871MOL0     H17576   0.320   5.484   4.710 -0.3257 -2.8651  0.1604
  871MOL0     H17577   0.555   5.286   4.729  0.5538  3.5918  1.3655
  871MOL0     H17578   0.392   5.251   4.682 -0.7637  1.4483 -1.4714
  871MOL0     H17579   0.397   5.162   4.893 -2.1052 -0.3627  0.9313
  871MOL0     H17580   0.296   5.302   4.900  1.4176  0.8151  1.7385
  871MOL0     H17581   0.437   5.301   5.100 -1.3631  0.4829 -0.2679
  871MOL0     H17582   0.507   5.414   5.004 -1.7352 -0.6373  0.5819
  871MOL0     H17583   0.786   5.088   5.019 -0.8870  0.7240  1.9925
  871MOL0     H17584   0.687   5.481   4.785  0.4486  3.2879  0.8160
  871MOL0     H17585   0.928   5.515   4.728  1.8302 -0.1003 -1.5422
  872MOL0     O17586   6.330   5.701   4.655  0.3269 -0.3212  0.7388
  872MOL0     C17587   6.379   5.741   4.553  0.8346 -0.1732  0.5056
  872MOL0     O17588   6.495   5.700   4.497  0.0574  0.5183 -0.5893
  872MOL0     C17589   6.549   5.580   4.539  0.7780 -0.5292  0.9499
  872MOL0     C17590   6.599   5.571   4.667 -0.3783 -0.1493  0.3902
  872MOL0     C17591   6.665   5.446   4.702  0.0644 -0.5125 -0.2320
  872MOL0     C17592   6.683   5.344   4.603  0.3305 -0.5718 -1.6261
  872MOL0     O17593   6.747   5.225   4.639 -0.3217  0.0201 -0.2599
  872MOL0     C17594   6.677   5.102   4.608 -0.0966 -0.6149 -0.3279
  872MOL0     C17595   6.684   4.993   4.730  0.2828 -1.3947 -0.7449
  872MOL0     C17596   6.835   4.953   4.755  0.0765 -1.2697 -0.3870
  872MOL0     C17597   6.829   4.892   4.900  0.4127 -1.0695 -0.2569
  872MOL0     C17598   6.943   4.805   4.912  0.9394  0.0795  1.0437
  872MOL0     C17599   6.962   4.748   5.052 -0.2450 -0.0878 -0.1188
  872MOL0     C17600   7.095   4.679   5.084 -0.1029  0.5695 -0.4889
  872MOL0     C17601   7.223   4.776   5.085 -0.1717 -0.6683  0.4328
  872MOL0     N17602   7.235   4.854   5.213 -0.3672 -0.1468  0.1544
  872MOL0     C17603   7.154   4.954   5.242 -0.0008 -0.6950  0.1122
  872MOL0     C17604   7.171   4.977   5.372 -0.2204  0.5858  0.9106
  872MOL0     C17605   7.076   5.061   5.454 -0.1231 -0.4105  0.4895
  872MOL0     C17606   6.976   4.980   5.535 -0.1542  0.3470 -0.4329
  872MOL0     C17607   6.895   4.884   5.451 -0.1666 -0.7751 -0.1942
  872MOL0     C17608   6.789   4.942   5.354  0.4868  0.1694 -0.5335
  872MOL0     O17609   6.728   4.832   5.287  0.8836  0.3696 -0.1785
  872MOL0     C17610   6.630   4.862   5.191  0.8446  0.0756 -0.5168
  872MOL0     C17611   6.596   5.002   5.174  0.8640 -0.1020 -0.9830
  872MOL0     C17612   6.507   5.039   5.075  0.6386 -0.5919 -0.1257
  872MOL0     C17613   6.490   5.189   5.059  0.0714  0.3755  0.4144
  872MOL0     C17614   6.439   4.948   4.989 -0.1047  0.0482 -0.3360
  872MOL0     C17615   6.349   4.976   4.868 -0.0356 -1.3160 -0.5202
  872MOL0     O17616   6.350   5.111   4.824 -0.1255  0.6025 -0.2448
  872MOL0     C17617   6.307   5.153   4.703  0.1185 -0.3367  0.4962
  872MOL0     C17618   6.234   5.081   4.606  0.4215 -0.2920  0.8249
  872MOL0     C17619   6.179   5.138   4.486  0.1745 -0.1421  0.2008
  872MOL0     C17620   6.191   5.275   4.474  0.1986  0.1797  0.0425
  872MOL0     O17621   6.128   5.330   4.365 -0.0556 -0.6018 -0.7255
  872MOL0     C17622   6.161   5.460   4.325  0.7224  0.6455  0.3790
  872MOL0     C17623   6.078   5.496   4.196 -0.0743  0.4156 -0.5517
  872MOL0     C17624   6.135   5.633   4.156  0.6537 -0.2056  0.3109
  872MOL0     C17625   6.130   5.660   4.003 -0.5766  0.0266 -1.2874
  872MOL0     C17626   6.140   5.814   3.971  0.2926  0.4298 -0.3640
  872MOL0     C17627   6.083   5.840   3.833  0.6253 -0.0393  0.5262
  872MOL0     C17628   6.093   5.995   3.807 -0.3375  0.9969  0.9340
  872MOL0     C17629   5.975   6.050   3.747  0.5213 -1.0524  0.2493
  872MOL0    Cl17630   5.836   6.007   3.852  0.3008 -0.1614 -0.0530
  872MOL0     C17631   6.255   5.345   4.565 -0.6035 -0.9444  0.1985
  872MOL0     C17632   6.322   5.291   4.674  0.8354 -0.1419  0.0287
  872MOL0     O17633   6.290   4.887   4.816  0.8358  0.0914 -0.3277
  872MOL0     C17634   6.464   4.818   5.018  0.1565 -0.2169  0.0343
  872MOL0     C17635   6.565   4.777   5.108 -0.7939  0.6678 -0.1745
  872MOL0     N17636   7.265   4.888   5.418 -0.1004 -0.2191 -1.1346
  872MOL0     N17637   7.315   4.818   5.316  0.4869 -0.2568 -1.0739
  872MOL0     C17638   6.623   5.354   4.474 -0.5119 -0.0282  0.2508
  872MOL0     C17639   6.556   5.471   4.443  0.1654 -0.8359 -0.4303
  872MOL0     C17640   6.300   5.853   4.486  0.5003  0.4084  0.2092
  872MOL0     C17641   6.206   5.927   4.563 -0.1346  0.1655 -0.1295
  872MOL0     C17642   6.128   6.019   4.501  0.2482 -0.4999  0.4458
  872MOL0     C17643   6.129   6.046   4.369 -0.2248 -0.4502 -0.7333
  872MOL0     O17644   6.051   6.136   4.302  0.6155  0.4761  0.1018
  872MOL0     C17645   5.936   6.199   4.368  0.5624  0.5395 -0.1101
  872MOL0     C17646   5.835   6.271   4.275 -0.3000 -0.8395  0.4649
  872MOL0     C17647   5.913   6.386   4.210 -0.4881  0.2530  0.0198
  872MOL0     C17648   5.837   6.418   4.083 -0.7061  0.5124  0.3181
  872MOL0     C17649   5.921   6.518   4.002  1.4145 -0.0436 -0.9541
  872MOL0     C17650   5.997   6.596   3.949  0.1783 -0.7518 -0.3310
  872MOL0     C17651   6.229   5.982   4.290 -0.8284 -0.0664 -0.0445
  872MOL0     C17652   6.321   5.892   4.352  1.2027  1.1867  0.4859
  872MOL0     H17653   6.571   5.650   4.736  0.2896  0.2060  0.2572
  872MOL0     H17654   6.693   5.417   4.803 -3.0657  3.0764  1.9586
  872MOL0     H17655   6.571   5.124   4.591  0.0264  1.7579  1.4741
  872MOL0     H17656   6.712   5.050   4.518  2.9126  1.8919 -0.7874
  872MOL0     H17657   6.644   5.046   4.816 -0.0031 -1.5361 -0.7919
  872MOL0     H17658   6.626   4.903   4.708  0.5347 -2.7935  3.3353
  872MOL0     H17659   6.866   4.877   4.683 -1.1906 -0.8254 -1.4225
  872MOL0     H17660   6.906   5.034   4.734 -1.8489  0.1404 -1.8094
  872MOL0     H17661   6.819   4.968   4.978 -1.3248 -0.3562 -1.1121
  872MOL0     H17662   6.742   4.826   4.912  1.2037 -1.6724  3.2296
  872MOL0     H17663   6.946   4.725   4.837 -1.3567  1.3567 -0.5571
  872MOL0     H17664   7.027   4.870   4.886 -0.5425  2.2818  1.5203
  872MOL0     H17665   6.954   4.826   5.128  3.0088  1.0454 -0.7976
  872MOL0     H17666   6.880   4.679   5.077  0.0441 -0.1998  0.5598
  872MOL0     H17667   7.086   4.645   5.187 -1.4360  2.3450  0.0334
  872MOL0     H17668   7.112   4.592   5.021  0.1607 -1.4254  2.1844
  872MOL0     H17669   7.230   4.848   5.002 -1.2967 -0.6923  0.3037
  872MOL0     H17670   7.307   4.709   5.067 -0.1081  0.0677 -2.5417
  872MOL0     H17671   7.072   4.996   5.183 -0.6845 -1.2063  0.6753
  872MOL0     H17672   7.134   5.120   5.525 -1.4299 -0.5882  1.7531
  872MOL0     H17673   7.023   5.125   5.383  1.6641 -1.5818 -2.0765
  872MOL0     H17674   6.912   5.059   5.576 -1.3369  0.1209 -1.7882
  872MOL0     H17675   7.029   4.927   5.615  2.0912  1.6835 -0.9571
  872MOL0     H17676   6.845   4.828   5.531  2.6072 -0.5678  1.8594
  872MOL0     H17677   6.971   4.828   5.396  1.6131  1.7887 -0.5293
  872MOL0     H17678   6.847   5.002   5.284 -2.4623  4.0611  0.0651
  872MOL0     H17679   6.720   5.011   5.403 -1.9050 -1.8154 -0.9086
  872MOL0     H17680   6.636   5.092   5.220 -0.4396 -0.2553  0.5035
  872MOL0     H17681   6.554   5.223   4.977 -1.6384  2.3774 -0.1671
  872MOL0     H17682   6.385   5.215   5.045 -0.4324 -0.9635  1.5044
  872MOL0     H17683   6.522   5.249   5.145  0.5263  1.0149 -0.1901
  872MOL0     H17684   6.237   4.973   4.621  1.5257 -0.2473  0.9953
  872MOL0     H17685   6.127   5.085   4.407  2.3028  0.1630 -1.5040
  872MOL0     H17686   6.159   5.539   4.400 -1.1607  2.5141 -1.4980
  872MOL0     H17687   6.267   5.454   4.295 -0.0089 -1.4322 -2.1847
  872MOL0     H17688   6.101   5.430   4.111  2.1254  1.0269 -0.4826
  872MOL0     H17689   5.971   5.514   4.210 -0.0111  1.7236 -1.6298
  872MOL0     H17690   6.240   5.639   4.187  0.5750 -3.3809  1.5718
  872MOL0     H17691   6.073   5.705   4.209 -0.8146 -0.9335 -0.3801
  872MOL0     H17692   6.193   5.589   3.949  0.8828  2.0248 -2.3292
  872MOL0     H17693   6.034   5.616   3.974  1.3067 -4.4523 -1.5747
  872MOL0     H17694   6.244   5.847   3.971 -0.6515  3.8867 -1.4559
  872MOL0     H17695   6.092   5.871   4.051  1.0167 -1.5102  1.5349
  872MOL0     H17696   6.139   5.792   3.752  2.3940  2.1284  0.3677
  872MOL0     H17697   5.981   5.802   3.835 -0.0479  1.7352  1.2443
  872MOL0     H17698   6.184   6.005   3.748 -0.2620 -2.0263  0.3976
  872MOL0     H17699   6.114   6.042   3.904 -0.1299  1.3581  0.7181
  872MOL0     H17700   5.954   6.015   3.645 -1.1835  1.8650 -0.5054
  872MOL0     H17701   5.979   6.159   3.740  0.2043 -1.1251 -2.1722
  872MOL0     H17702   6.280   5.449   4.549  1.2739 -1.4153 -0.1302
  872MOL0     H17703   6.364   5.367   4.740 -0.0418  1.2165 -0.9146
  872MOL0     H17704   6.417   4.736   4.964 -2.2887  1.5072 -0.6622
  872MOL0     H17705   6.587   4.673   5.130 -1.0638  0.6083 -0.1766
  872MOL0     H17706   6.640   5.278   4.399 -1.0671 -1.0326  1.1174
  872MOL0     H17707   6.539   5.481   4.336  0.3942 -2.7612 -0.6910
  872MOL0     H17708   6.189   5.913   4.669  0.9589  0.8670  0.1512
  872MOL0     H17709   6.050   6.073   4.553  1.1328  0.1499  1.1164
  872MOL0     H17710   5.878   6.118   4.414 -0.8088 -0.5608 -3.4466
  872MOL0     H17711   5.974   6.283   4.426 -0.6238  2.2867 -1.7359
  872MOL0     H17712   5.769   6.323   4.346 -1.7038 -1.1432 -0.5675
  872MOL0     H17713   5.790   6.199   4.206 -0.5354  0.0539 -0.3454
  872MOL0     H17714   6.018   6.357   4.198  0.0062  0.0235  3.6391
  872MOL0     H17715   5.909   6.473   4.277  0.8997 -0.4525  1.0634
  872MOL0     H17716   5.742   6.471   4.099  0.5809  2.7770  0.9379
  872MOL0     H17717   5.826   6.329   4.021 -1.8676  0.1188  1.0584
  872MOL0     H17718   6.056   6.673   3.904 -1.9340  1.5276  0.5813
  872MOL0     H17719   6.235   6.004   4.184 -0.6769 -0.6337 -0.1587
  872MOL0     H17720   6.395   5.841   4.291  0.3811  0.3368  0.1723
  873MOL0     O17721   6.498  10.034   4.525 -0.3270  0.1541  0.0232
  873MOL0     C17722   6.559  10.008   4.629 -0.4161 -0.8696  0.7508
  873MOL0     O17723   6.517   9.948   4.743  0.0182  0.2069 -0.4550
  873MOL0     C17724   6.397   9.879   4.744 -0.2240  0.1789  0.5803
  873MOL0     C17725   6.277   9.946   4.736  0.1417  0.3590 -0.9303
  873MOL0     C17726   6.152   9.875   4.729  1.0984 -0.1675  0.5661
  873MOL0     C17727   6.154   9.735   4.724  0.0247 -0.3639 -1.0962
  873MOL0     O17728   6.026   9.681   4.714  0.2073 -0.1061 -0.6910
  873MOL0     C17729   6.012   9.537   4.715 -0.5750 -0.3737  0.4678
  873MOL0     C17730   5.862   9.518   4.706 -0.6423  1.0397 -0.2875
  873MOL0     C17731   5.809   9.505   4.569  0.0182  0.4037  0.2321
  873MOL0     C17732   5.660   9.550   4.567  0.1546  0.8371  0.4043
  873MOL0     C17733   5.599   9.546   4.426  0.7163  0.2304 -0.2589
  873MOL0     C17734   5.445   9.560   4.428 -0.7406 -0.6505  0.2055
  873MOL0     C17735   5.385   9.673   4.515  0.6616  0.2898 -0.1242
  873MOL0     C17736   5.227   9.662   4.526 -0.3226 -0.0816 -0.4307
  873MOL0     N17737   5.163   9.676   4.397 -0.5101  0.2926  0.2479
  873MOL0     C17738   5.150   9.794   4.325 -0.6711  0.8168  0.0915
  873MOL0     C17739   5.077   9.758   4.220  0.0610  0.0276  0.1823
  873MOL0     C17740   5.019   9.863   4.128 -0.3915 -0.2865 -0.0369
  873MOL0     C17741   5.062   9.844   3.983  0.3783  0.0710  0.8696
  873MOL0     C17742   5.014   9.949   3.885  0.3651  0.0035 -0.7782
  873MOL0     C17743   5.053   9.903   3.744 -0.1598  0.4441 -0.3494
  873MOL0     O17744   5.041  10.015   3.668  0.5361 -0.3951 -0.1467
  873MOL0     C17745   5.085  10.010   3.537 -0.6982  0.2757 -0.4788
  873MOL0     C17746   5.139  10.122   3.483  1.1713 -0.0380 -1.2911
  873MOL0     C17747   5.207  10.122   3.358  0.5678 -0.0853 -0.5483
  873MOL0     C17748   5.279  10.251   3.323 -0.2577  1.3278  0.2664
  873MOL0     C17749   5.217  10.000   3.282  0.6206 -1.4700  0.2592
  873MOL0     C17750   5.290   9.989   3.152 -0.4724 -0.3871 -0.0134
  873MOL0     O17751   5.329   9.858   3.122  0.3983 -0.0706  0.2231
  873MOL0     C17752   5.394   9.823   3.007 -0.9705 -0.3404  1.1224
  873MOL0     C17753   5.347   9.859   2.879  1.3593  0.2179 -0.1601
  873MOL0     C17754   5.407   9.802   2.771 -0.5857 -1.0484  0.0921
  873MOL0     C17755   5.524   9.726   2.769 -0.6900  0.1042 -0.6660
  873MOL0     O17756   5.578   9.669   2.657  1.2028 -0.1526 -0.3774
  873MOL0     C17757   5.628   9.544   2.676 -0.5686  0.3677 -0.0369
  873MOL0     C17758   5.588   9.465   2.550  1.0547  0.7419 -0.0791
  873MOL0     C17759   5.614   9.544   2.417 -0.2291 -1.0739 -0.2466
  873MOL0     C17760   5.590   9.444   2.305  0.5029 -0.4679  0.3939
  873MOL0     C17761   5.666   9.497   2.180  0.4843  0.0040 -1.3212
  873MOL0     C17762   5.612   9.428   2.050 -0.7605 -0.7486 -0.0617
  873MOL0     C17763   5.690   9.473   1.925  0.5535  0.0818 -0.3228
  873MOL0     C17764   5.630   9.406   1.802 -0.2674  0.3292  0.2505
  873MOL0    Cl17765   5.472   9.488   1.745  0.0428 -0.0403 -0.2801
  873MOL0     C17766   5.583   9.703   2.891 -0.1459 -0.0825  0.0051
  873MOL0     C17767   5.512   9.744   3.008 -0.3252 -0.2724 -0.8884
  873MOL0     O17768   5.322  10.091   3.089 -0.2245 -0.1141 -0.6810
  873MOL0     C17769   5.155   9.889   3.340 -0.0430 -0.3760  0.2257
  873MOL0     C17770   5.090   9.889   3.460  0.8178 -0.2583  0.4145
  873MOL0     N17771   5.076   9.620   4.209  0.6845  0.1370  0.0489
  873MOL0     N17772   5.128   9.569   4.312  0.1499 -0.3825  0.4417
  873MOL0     C17773   6.280   9.668   4.725  0.7356  0.5386 -0.2633
  873MOL0     C17774   6.399   9.739   4.739 -0.3011  0.1421  0.6063
  873MOL0     C17775   6.703  10.043   4.627 -0.9807 -0.9177  0.0549
  873MOL0     C17776   6.746  10.157   4.569  0.3371 -0.6564 -0.0950
  873MOL0     C17777   6.880  10.193   4.571 -0.6125  0.1198  0.1349
  873MOL0     C17778   6.972  10.112   4.642  0.3600 -0.9786 -0.1619
  873MOL0     O17779   7.108  10.141   4.648 -0.2429  0.3868 -0.1839
  873MOL0     C17780   7.163  10.145   4.517 -0.7098 -0.0455  0.1299
  873MOL0     C17781   7.311  10.146   4.524  1.1475 -0.0375  0.1976
  873MOL0     C17782   7.371  10.277   4.577 -0.4377 -1.1858  0.0703
  873MOL0     C17783   7.520  10.294   4.535  0.7818  0.4089  0.1264
  873MOL0     C17784   7.592  10.170   4.543 -0.3058 -0.3117 -0.1225
  873MOL0     C17785   7.657  10.069   4.539  0.6117  0.1489 -0.0606
  873MOL0     C17786   6.925   9.989   4.683 -0.3183  0.4095  0.0534
  873MOL0     C17787   6.792   9.959   4.680  0.1237  0.2383  0.1169
  873MOL0     H17788   6.275  10.054   4.728 -0.9342  0.3682 -0.6566
  873MOL0     H17789   6.056   9.925   4.731  0.8905 -0.3046 -2.5186
  873MOL0     H17790   6.067   9.488   4.634  2.0485  1.8998  0.7083
  873MOL0     H17791   6.042   9.498   4.812 -2.0282 -2.1813  0.2250
  873MOL0     H17792   5.846   9.431   4.770 -0.6401  1.5468  0.4072
  873MOL0     H17793   5.815   9.600   4.760 -2.0833 -1.2916  2.1934
  873MOL0     H17794   5.859   9.567   4.494  0.7795 -0.9548 -0.4303
  873MOL0     H17795   5.828   9.403   4.534  1.5894 -0.3784  3.0272
  873MOL0     H17796   5.605   9.486   4.636 -1.2003  3.0725  1.5001
  873MOL0     H17797   5.661   9.655   4.598  1.1695  1.4932 -1.6801
  873MOL0     H17798   5.638   9.620   4.355 -0.6611 -1.5340 -3.0671
  873MOL0     H17799   5.615   9.449   4.377  1.4151 -0.5972  1.5081
  873MOL0     H17800   5.403   9.570   4.328 -2.4554 -0.1316  0.9423
  873MOL0     H17801   5.398   9.473   4.474 -1.4805 -0.6858 -0.5929
  873MOL0     H17802   5.427   9.660   4.615  1.0178  0.7558 -0.2104
  873MOL0     H17803   5.413   9.770   4.473 -0.4663  0.1055 -1.3681
  873MOL0     H17804   5.200   9.750   4.586  0.5964 -0.3187  0.3646
  873MOL0     H17805   5.206   9.562   4.563  0.7586 -0.8316 -1.7777
  873MOL0     H17806   5.187   9.894   4.347  3.6535 -0.1954 -1.5148
  873MOL0     H17807   4.911   9.847   4.124 -0.3818 -0.4028  0.1538
  873MOL0     H17808   5.041   9.965   4.162  0.2638 -0.1955 -0.6883
  873MOL0     H17809   5.038   9.751   3.930  0.2074  2.1676 -3.0805
  873MOL0     H17810   5.171   9.840   3.993  0.4758  0.9223  0.2352
  873MOL0     H17811   5.070  10.039   3.911  1.4306 -0.4216 -1.5059
  873MOL0     H17812   4.906   9.961   3.893  0.5826  1.8061 -0.0006
  873MOL0     H17813   4.999   9.815   3.707 -0.1196  1.8455 -4.2423
  873MOL0     H17814   5.154   9.862   3.750 -0.4345 -0.1472  0.3220
  873MOL0     H17815   5.121  10.211   3.543 -2.0981 -1.6978  0.4427
  873MOL0     H17816   5.387  10.230   3.318 -0.7711 -1.6889 -0.6408
  873MOL0     H17817   5.251  10.290   3.225 -3.4056  1.6358  1.1811
  873MOL0     H17818   5.259  10.330   3.395 -0.1882  0.2632  1.4846
  873MOL0     H17819   5.253   9.911   2.862  1.5332  0.0806 -1.7412
  873MOL0     H17820   5.345   9.814   2.683 -0.3708  3.3468  0.3344
  873MOL0     H17821   5.736   9.547   2.691 -0.4497 -0.3087 -0.6604
  873MOL0     H17822   5.581   9.493   2.761  0.4500 -1.1260 -0.3179
  873MOL0     H17823   5.638   9.368   2.556 -1.4813 -0.7753 -1.4761
  873MOL0     H17824   5.485   9.428   2.553  1.3771 -0.2525 -0.8103
  873MOL0     H17825   5.719   9.573   2.414 -0.6903  0.6723 -0.7059
  873MOL0     H17826   5.559   9.638   2.405  1.6702  0.0401 -0.6047
  873MOL0     H17827   5.621   9.342   2.331 -0.3103 -0.6477  0.6781
  873MOL0     H17828   5.482   9.430   2.295  0.7522 -2.5319  0.0113
  873MOL0     H17829   5.774   9.487   2.196  0.3303 -2.1142 -1.2217
  873MOL0     H17830   5.645   9.604   2.178  0.4462  0.2459  2.7670
  873MOL0     H17831   5.622   9.320   2.063  0.9341 -0.4394  1.6275
  873MOL0     H17832   5.505   9.450   2.046 -0.6774  0.9915  3.7054
  873MOL0     H17833   5.790   9.430   1.937  0.8197  0.7627 -0.0361
  873MOL0     H17834   5.700   9.582   1.923 -0.9401  0.2633  0.7984
  873MOL0     H17835   5.622   9.298   1.817 -1.2329  0.3699  0.0708
  873MOL0     H17836   5.706   9.405   1.723  3.0705 -3.2832  3.0675
  873MOL0     H17837   5.666   9.633   2.893 -1.2919 -1.4921  2.1404
  873MOL0     H17838   5.559   9.704   3.098 -2.2050 -1.4348 -0.3603
  873MOL0     H17839   5.180   9.790   3.300 -0.8811 -1.1328  1.5084
  873MOL0     H17840   5.058   9.794   3.500  0.0002 -0.5501 -0.8652
  873MOL0     H17841   6.261   9.561   4.729 -1.8709  0.9691  1.7991
  873MOL0     H17842   6.494   9.689   4.753  0.6573  0.8539 -2.4835
  873MOL0     H17843   6.681  10.226   4.515  1.5422 -1.2949 -2.5086
  873MOL0     H17844   6.915  10.282   4.519  3.1576 -2.0269 -1.3776
  873MOL0     H17845   7.133  10.046   4.482 -3.0166 -0.8970  3.9136
  873MOL0     H17846   7.126  10.229   4.457 -1.3811 -1.6242 -1.7592
  873MOL0     H17847   7.338  10.132   4.419 -0.6076  2.4331 -0.6981
  873MOL0     H17848   7.343  10.064   4.588  3.5491 -1.6263 -2.7757
  873MOL0     H17849   7.354  10.271   4.685 -3.3615  1.2741 -0.1171
  873MOL0     H17850   7.313  10.362   4.539  1.4815  0.3672  0.4212
  873MOL0     H17851   7.583  10.370   4.582 -1.6889  2.2398  0.6816
  873MOL0     H17852   7.519  10.329   4.431  3.6098  1.2278  0.2947
  873MOL0     H17853   7.699   9.973   4.518  0.2803 -0.1550  0.6269
  873MOL0     H17854   6.993   9.917   4.730 -0.5147  1.4306  2.0009
  873MOL0     H17855   6.767   9.863   4.724 -1.5739  1.0266  1.0049
  874MOL0     O17856   5.153   7.763   5.849  0.1549  0.3497  0.8986
  874MOL0     C17857   5.062   7.682   5.888  0.8646  0.4471 -0.5704
  874MOL0     O17858   4.943   7.662   5.824  0.0931  0.6050 -0.1840
  874MOL0     C17859   4.905   7.730   5.711  0.5944 -0.4471 -0.0676
  874MOL0     C17860   4.810   7.657   5.637  0.3199  0.2560 -0.3023
  874MOL0     C17861   4.745   7.711   5.530  1.0205  0.5105 -0.3557
  874MOL0     C17862   4.764   7.847   5.481  0.1587 -0.5954 -0.6909
  874MOL0     O17863   4.707   7.914   5.377  0.8100  0.0713  0.5018
  874MOL0     C17864   4.588   7.865   5.323  0.2906 -0.9409  0.7637
  874MOL0     C17865   4.550   7.936   5.197 -0.0081 -0.6211  0.5540
  874MOL0     C17866   4.506   8.079   5.224 -1.2366 -0.0721 -0.2563
  874MOL0     C17867   4.427   8.129   5.102  0.5492  0.3880  0.3957
  874MOL0     C17868   4.385   8.262   5.142  0.0449 -0.6177 -0.0917
  874MOL0     C17869   4.269   8.314   5.046  0.3983  0.3042 -0.8805
  874MOL0     C17870   4.241   8.461   5.075  0.8469 -0.0529  0.0829
  874MOL0     C17871   4.149   8.519   4.971  0.1308 -0.1208  0.1759
  874MOL0     N17872   4.139   8.662   5.004 -0.0121  0.2458 -0.0222
  874MOL0     C17873   4.206   8.766   4.933  0.1154  1.0409  0.0385
  874MOL0     C17874   4.186   8.884   4.992  0.3146  0.8380 -0.7730
  874MOL0     C17875   4.228   9.015   4.936  0.0837  0.5434 -0.0633
  874MOL0     C17876   4.123   9.125   4.959 -0.2313  0.3368 -0.3425
  874MOL0     C17877   4.144   9.235   4.855  0.8530 -1.1053 -0.1072
  874MOL0     C17878   4.071   9.216   4.731 -0.3595 -0.6771  0.0227
  874MOL0     O17879   4.101   9.327   4.632 -0.7575 -0.1050  0.6999
  874MOL0     C17880   4.129   9.279   4.503  0.6398 -0.1607 -0.0744
  874MOL0     C17881   4.245   9.332   4.445  0.8191  0.1513 -0.7385
  874MOL0     C17882   4.281   9.298   4.317  0.4027 -0.8050 -0.2490
  874MOL0     C17883   4.418   9.345   4.277 -0.8112  0.1732 -0.2352
  874MOL0     C17884   4.197   9.214   4.238 -0.3273  0.3605  0.4353
  874MOL0     C17885   4.231   9.170   4.092 -0.6179  0.2104 -0.2802
  874MOL0     O17886   4.353   9.114   4.091  0.0377 -0.0927  0.4229
  874MOL0     C17887   4.394   9.098   3.965  0.5944 -0.8315  0.1658
  874MOL0     C17888   4.497   9.183   3.920  0.0811 -0.3911  0.7305
  874MOL0     C17889   4.559   9.177   3.793  0.4349  0.1453  0.8697
  874MOL0     C17890   4.522   9.072   3.707 -0.4106 -0.7088 -0.0975
  874MOL0     O17891   4.592   9.044   3.598  0.0792 -0.1864  0.1848
  874MOL0     C17892   4.516   9.073   3.487  0.2236  0.4449 -0.3692
  874MOL0     C17893   4.578   9.035   3.356  0.3864  0.6164  0.7268
  874MOL0     C17894   4.473   9.029   3.247 -0.1164 -0.3413 -0.6148
  874MOL0     C17895   4.403   9.162   3.218  0.8185  0.9344  0.8348
  874MOL0     C17896   4.484   9.277   3.167 -0.0071  0.0373  0.1384
  874MOL0     C17897   4.554   9.238   3.032  0.1178  0.0580  0.2371
  874MOL0     C17898   4.584   9.366   2.950  0.7849  0.7057 -0.7695
  874MOL0     C17899   4.678   9.340   2.831  0.3834  0.3577 -0.4842
  874MOL0    Cl17900   4.645   9.469   2.717 -0.4017  0.2580 -0.4291
  874MOL0     C17901   4.428   8.977   3.755  0.7898 -0.2341 -0.1478
  874MOL0     C17902   4.375   8.988   3.881 -0.0613 -0.0917 -0.9249
  874MOL0     O17903   4.157   9.197   3.997  0.4770  0.1718  0.4955
  874MOL0     C17904   4.075   9.172   4.296  0.9746 -0.4727  0.3987
  874MOL0     C17905   4.045   9.198   4.430 -0.6739  0.6286  0.1647
  874MOL0     N17906   4.108   8.843   5.104  0.7258 -0.3331 -0.4200
  874MOL0     N17907   4.093   8.717   5.116  0.2444 -0.0682  0.6821
  874MOL0     C17908   4.858   7.918   5.549 -0.0624  0.6005 -0.1279
  874MOL0     C17909   4.921   7.865   5.668  0.0514 -0.2515  0.4888
  874MOL0     C17910   5.083   7.596   6.008 -0.1361 -0.3067  0.0092
  874MOL0     C17911   4.974   7.544   6.079  0.7302  0.3165 -0.0051
  874MOL0     C17912   4.986   7.459   6.192  0.0439  0.2231  0.6463
  874MOL0     C17913   5.113   7.418   6.219  0.5105 -0.0789  0.3378
  874MOL0     O17914   5.121   7.324   6.327  0.4981 -0.4821  0.0140
  874MOL0     C17915   5.243   7.268   6.358  0.3702 -0.7041  0.3352
  874MOL0     C17916   5.334   7.366   6.439 -0.3265 -1.0275  0.0262
  874MOL0     C17917   5.259   7.418   6.561  0.9218 -0.0820 -0.1597
  874MOL0     C17918   5.348   7.505   6.652  0.5778  0.0904 -0.9071
  874MOL0     C17919   5.274   7.612   6.725  0.0374 -0.1582  0.0158
  874MOL0     C17920   5.208   7.689   6.792  0.3241  0.4896  0.6050
  874MOL0     C17921   5.228   7.462   6.143 -0.3653 -0.5325 -0.3217
  874MOL0     C17922   5.215   7.551   6.035 -0.2927  0.2517 -0.3435
  874MOL0     H17923   4.788   7.556   5.673  0.9202  0.4700  0.6874
  874MOL0     H17924   4.664   7.659   5.479  2.2100  0.2202 -2.0336
  874MOL0     H17925   4.601   7.760   5.293  1.4457 -0.3802 -0.7972
  874MOL0     H17926   4.508   7.876   5.397 -2.4911  1.7400 -2.3695
  874MOL0     H17927   4.632   7.935   5.125 -0.5844  1.0933 -0.1982
  874MOL0     H17928   4.466   7.884   5.150 -2.6551  0.9592  3.1268
  874MOL0     H17929   4.443   8.081   5.314 -1.6514  2.0369 -0.5386
  874MOL0     H17930   4.597   8.140   5.231 -2.9940  3.1514 -2.7874
  874MOL0     H17931   4.498   8.131   5.019 -1.9661  1.7913 -1.8865
  874MOL0     H17932   4.342   8.064   5.081  0.3806  0.0512  1.9638
  874MOL0     H17933   4.345   8.268   5.244  1.6171 -0.8566  0.5575
  874MOL0     H17934   4.476   8.321   5.128 -0.6348  1.0909  2.1387
  874MOL0     H17935   4.309   8.304   4.945 -0.0499 -2.3951 -0.8700
  874MOL0     H17936   4.176   8.261   5.066  0.2453  0.5202 -1.0106
  874MOL0     H17937   4.192   8.465   5.173 -1.4565 -3.2160 -0.7523
  874MOL0     H17938   4.331   8.521   5.060  1.2779  0.1774  3.0309
  874MOL0     H17939   4.045   8.485   4.978 -0.6764  2.2717  0.6976
  874MOL0     H17940   4.181   8.505   4.867 -0.3691 -1.3556  0.1653
  874MOL0     H17941   4.267   8.752   4.845 -0.3273  0.5894 -0.2032
  874MOL0     H17942   4.325   9.042   4.978 -1.7326  2.7823  3.0585
  874MOL0     H17943   4.240   9.001   4.828 -2.3802  0.0225 -0.3476
  874MOL0     H17944   4.135   9.155   5.064  3.0212 -0.1309 -0.4618
  874MOL0     H17945   4.023   9.084   4.945  0.5838 -1.6722 -0.7000
  874MOL0     H17946   4.251   9.231   4.836  0.5650 -3.8364 -1.5961
  874MOL0     H17947   4.101   9.323   4.904 -2.8937 -1.7382 -1.8408
  874MOL0     H17948   3.964   9.206   4.752 -0.4338 -0.7086 -0.3762
  874MOL0     H17949   4.110   9.125   4.684  0.0409  1.5102 -4.3792
  874MOL0     H17950   4.286   9.407   4.512 -1.2657 -0.1813  1.0395
  874MOL0     H17951   4.412   9.393   4.179  1.9872  0.8480 -0.1709
  874MOL0     H17952   4.443   9.415   4.357  0.5958 -2.0273  1.3783
  874MOL0     H17953   4.495   9.267   4.275  1.2533  2.0607  0.4255
  874MOL0     H17954   4.524   9.265   3.985 -2.3312  2.3299 -1.4453
  874MOL0     H17955   4.644   9.235   3.758  0.1235  1.2591  1.8978
  874MOL0     H17956   4.426   9.011   3.493 -0.2186  0.7339 -3.0121
  874MOL0     H17957   4.486   9.179   3.486 -2.5285 -0.2207  1.0658
  874MOL0     H17958   4.651   9.112   3.329  1.0076 -0.3465 -0.4223
  874MOL0     H17959   4.641   8.946   3.367  2.7392  1.4735 -3.7373
  874MOL0     H17960   4.392   8.962   3.277 -0.5276  0.4813  0.1659
  874MOL0     H17961   4.518   8.990   3.155 -0.6847  2.4303 -2.1601
  874MOL0     H17962   4.345   9.132   3.129  0.7906  1.0384  0.8182
  874MOL0     H17963   4.330   9.190   3.294 -1.5214  0.4748 -1.0946
  874MOL0     H17964   4.558   9.290   3.246 -1.9850 -0.1794  2.1162
  874MOL0     H17965   4.420   9.365   3.153 -1.0764 -0.2036  2.8959
  874MOL0     H17966   4.651   9.190   3.047  0.8114  2.1006  3.1708
  874MOL0     H17967   4.493   9.177   2.965 -0.8669 -0.4899  1.5963
  874MOL0     H17968   4.624   9.440   3.019 -1.8354 -0.9070  2.7772
  874MOL0     H17969   4.488   9.407   2.919  0.0737  1.2674  1.9559
  874MOL0     H17970   4.655   9.243   2.788 -2.2039  0.7928 -0.2144
  874MOL0     H17971   4.780   9.348   2.871  0.2908  0.6773 -0.3131
  874MOL0     H17972   4.414   8.884   3.701 -2.4833 -0.1819  0.4056
  874MOL0     H17973   4.317   8.906   3.922  1.3056 -1.4423 -1.5816
  874MOL0     H17974   3.998   9.117   4.243  2.1703  0.5303 -2.6037
  874MOL0     H17975   3.970   9.135   4.477  0.1429 -0.9901 -0.6235
  874MOL0     H17976   4.885   8.015   5.508  2.0901  0.4046  0.7051
  874MOL0     H17977   4.990   7.921   5.731  0.2935 -1.4535  1.3393
  874MOL0     H17978   4.872   7.569   6.052  0.3819 -0.8695  0.1752
  874MOL0     H17979   4.904   7.415   6.248 -0.9355 -0.4497 -1.2099
  874MOL0     H17980   5.231   7.171   6.407 -1.6759 -1.4693 -1.5160
  874MOL0     H17981   5.308   7.246   6.272  3.4666 -2.6474  2.9486
  874MOL0     H17982   5.371   7.446   6.374 -3.0781  2.5571  2.4708
  874MOL0     H17983   5.424   7.315   6.474  0.6585 -1.0668 -2.3462
  874MOL0     H17984   5.248   7.343   6.640  2.4836  0.2944  0.4469
  874MOL0     H17985   5.159   7.459   6.545  0.7715 -0.9010 -1.5442
  874MOL0     H17986   5.430   7.554   6.598  1.1068  0.4438  0.1919
  874MOL0     H17987   5.389   7.437   6.727  1.2293  0.4753 -0.9111
  874MOL0     H17988   5.132   7.760   6.819 -1.2430 -2.5607  5.7005
  874MOL0     H17989   5.327   7.418   6.151 -1.0212 -1.9887  0.1073
  874MOL0     H17990   5.308   7.569   5.982  2.9074 -1.1019  4.2549
  875MOL0     O17991  11.481   0.790   5.811 -0.2216  0.5268  0.1380
  875MOL0     C17992  11.518   0.696   5.732  0.4920 -0.8021  0.6651
  875MOL0     O17993  11.575   0.581   5.768  0.4197 -0.3245 -0.7379
  875MOL0     C17994  11.537   0.550   5.895 -0.1221  0.9500 -0.2069
  875MOL0     C17995  11.616   0.576   6.011 -0.3261  0.0564 -0.1348
  875MOL0     C17996  11.568   0.571   6.143 -0.1702  0.4838 -0.0366
  875MOL0     C17997  11.439   0.534   6.170 -0.3891 -0.2618  0.1602
  875MOL0     O17998  11.388   0.517   6.298 -0.4425  0.1261  0.0224
  875MOL0     C17999  11.468   0.549   6.414  0.3194 -0.6719 -0.8622
  875MOL0     C18000  11.401   0.474   6.530 -0.0224 -0.5235  0.2945
  875MOL0     C18001  11.470   0.512   6.665 -0.7499 -0.0174  0.8014
  875MOL0     C18002  11.360   0.522   6.774  0.0949  0.3991  0.1570
  875MOL0     C18003  11.278   0.396   6.802  0.2591 -1.0316  0.2383
  875MOL0     C18004  11.174   0.423   6.910  0.3325  0.2588  0.0944
  875MOL0     C18005  11.150   0.291   6.991  0.6589  0.1805  0.0982
  875MOL0     C18006  11.040   0.292   7.100 -0.2938 -0.4264 -0.2030
  875MOL0     N18007  10.911   0.296   7.021  0.7014  0.0374 -0.1145
  875MOL0     C18008  10.836   0.409   6.978 -0.1938 -0.6061 -0.7991
  875MOL0     C18009  10.724   0.357   6.910 -0.0646  0.4754  0.4081
  875MOL0     C18010  10.622   0.449   6.849 -0.2264 -0.4399 -0.2096
  875MOL0     C18011  10.491   0.466   6.937 -0.3085 -0.3175 -0.6781
  875MOL0     C18012  10.427   0.598   6.904 -0.1282 -0.2251 -1.6543
  875MOL0     C18013  10.490   0.728   6.961 -0.1187 -0.0628 -0.2573
  875MOL0     O18014  10.520   0.704   7.102  0.1813 -0.3119 -0.5473
  875MOL0     C18015  10.525   0.805   7.192  0.6513  0.3963  0.0571
  875MOL0     C18016  10.559   0.932   7.152  0.1192  0.8046 -0.0106
  875MOL0     C18017  10.556   1.041   7.239 -0.1741 -0.9747  0.3237
  875MOL0     C18018  10.604   1.171   7.181  0.5035 -0.4808  0.0616
  875MOL0     C18019  10.525   1.028   7.376  1.2376 -0.0198 -0.2087
  875MOL0     C18020  10.504   1.125   7.476 -0.2642 -0.5491 -0.2918
  875MOL0     O18021  10.537   1.256   7.445 -0.3114  0.2403 -0.2277
  875MOL0     C18022  10.498   1.348   7.530 -0.4123  0.1663 -0.1014
  875MOL0     C18023  10.366   1.359   7.535 -0.2714  0.4064 -0.2911
  875MOL0     C18024  10.303   1.454   7.618 -0.5657 -0.2400 -0.7802
  875MOL0     C18025  10.386   1.542   7.683  0.4708  0.4909  0.8628
  875MOL0     O18026  10.321   1.642   7.744  0.4465  0.8424 -0.1572
  875MOL0     C18027  10.342   1.617   7.881 -0.6493  0.7330  0.3129
  875MOL0     C18028  10.284   1.733   7.962 -0.9538 -0.0541  0.0113
  875MOL0     C18029  10.288   1.715   8.112  0.3892  0.1024 -0.0587
  875MOL0     C18030  10.214   1.578   8.139  0.0090 -0.5732 -0.8540
  875MOL0     C18031  10.230   1.559   8.292 -0.2008 -0.1086  0.5008
  875MOL0     C18032  10.203   1.414   8.330 -0.2121 -0.1774 -0.2750
  875MOL0     C18033  10.214   1.416   8.477  0.2418  0.4771 -0.5460
  875MOL0     C18034  10.219   1.272   8.527  0.2293 -0.3951 -0.3277
  875MOL0    Cl18035  10.055   1.183   8.517 -0.0130  0.0778 -0.1429
  875MOL0     C18036  10.523   1.541   7.674 -0.2573 -0.2427 -0.3115
  875MOL0     C18037  10.585   1.429   7.608  0.6493  0.2293  0.6799
  875MOL0     O18038  10.461   1.084   7.590 -0.0124  0.1848  0.1118
  875MOL0     C18039  10.505   0.894   7.413 -0.2657 -0.4582 -0.1915
  875MOL0     C18040  10.514   0.782   7.328  0.8334 -0.5863 -0.6373
  875MOL0     N18041  10.739   0.220   6.916 -0.2704 -1.0597 -0.0181
  875MOL0     N18042  10.848   0.180   6.986 -0.8584 -0.6646  0.5033
  875MOL0     C18043  11.362   0.488   6.057 -0.6127 -0.1501  1.1176
  875MOL0     C18044  11.413   0.502   5.919  0.5573 -0.0498  0.0732
  875MOL0     C18045  11.515   0.730   5.577  0.1330 -0.3022 -0.1059
  875MOL0     C18046  11.568   0.844   5.525  0.0505 -0.5521  0.0498
  875MOL0     C18047  11.584   0.859   5.387  0.8653 -0.6985  0.5560
  875MOL0     C18048  11.535   0.757   5.310  0.9637  0.7224 -0.4033
  875MOL0     O18049  11.552   0.766   5.175  0.3117  0.2898 -0.5665
  875MOL0     C18050  11.542   0.645   5.092  0.2805 -0.3819  0.5215
  875MOL0     C18051  11.565   0.714   4.952 -0.1432  0.2376 -0.4512
  875MOL0     C18052  11.599   0.613   4.829 -0.2018 -0.1498 -0.2425
  875MOL0     C18053  11.756   0.604   4.821  0.0059 -0.2456  0.0390
  875MOL0     C18054  11.814   0.509   4.915  0.9181  0.4643  0.2623
  875MOL0     C18055  11.863   0.442   5.003  0.2889  0.3909  0.2694
  875MOL0     C18056  11.459   0.641   5.367 -0.9278  0.3396  0.6804
  875MOL0     C18057  11.459   0.626   5.504 -0.2480 -0.0759 -0.1031
  875MOL0     H18058  11.723   0.584   6.002  0.1772 -3.6838  0.8023
  875MOL0     H18059  11.644   0.594   6.218  2.4731 -4.1800 -0.8988
  875MOL0     H18060  11.571   0.517   6.396 -0.0816 -0.8832 -2.9738
  875MOL0     H18061  11.455   0.654   6.441  1.0988 -0.8000  0.0820
  875MOL0     H18062  11.293   0.492   6.534  0.1758  0.7081  0.5599
  875MOL0     H18063  11.401   0.365   6.519  0.7835 -0.7128  1.8857
  875MOL0     H18064  11.547   0.438   6.690  0.9511  1.5209  0.3729
  875MOL0     H18065  11.520   0.609   6.669 -1.3869  0.5078 -1.7261
  875MOL0     H18066  11.416   0.551   6.864 -2.4101  0.7683  1.7119
  875MOL0     H18067  11.294   0.601   6.737 -1.1274 -1.3973 -1.7461
  875MOL0     H18068  11.232   0.356   6.711  1.3970 -1.2700 -0.2422
  875MOL0     H18069  11.343   0.315   6.834 -0.2890 -3.0008 -3.1371
  875MOL0     H18070  11.215   0.497   6.980  3.1000 -1.3259  0.2602
  875MOL0     H18071  11.090   0.470   6.857  0.6888  0.5796 -0.1907
  875MOL0     H18072  11.128   0.210   6.920  1.0408 -2.4516  2.7659
  875MOL0     H18073  11.243   0.249   7.032 -1.0398 -2.2381  1.7655
  875MOL0     H18074  11.051   0.379   7.165 -4.1680 -0.7937  1.2377
  875MOL0     H18075  11.049   0.197   7.153  1.8313 -0.3730 -0.3754
  875MOL0     H18076  10.863   0.511   7.002  0.7620 -1.3990  1.9011
  875MOL0     H18077  10.674   0.545   6.839 -1.7031  0.5665  1.2516
  875MOL0     H18078  10.603   0.422   6.745  1.1096 -1.3663 -0.2407
  875MOL0     H18079  10.519   0.470   7.043  1.5276 -0.8729 -1.1017
  875MOL0     H18080  10.423   0.381   6.924 -2.2494  0.8967  1.0606
  875MOL0     H18081  10.323   0.591   6.938  0.1065 -1.4746 -1.1520
  875MOL0     H18082  10.421   0.611   6.795  2.6827  1.0129 -1.7394
  875MOL0     H18083  10.423   0.815   6.948  3.5459  3.4603  2.0535
  875MOL0     H18084  10.583   0.745   6.906  1.6616 -1.7848  2.0218
  875MOL0     H18085  10.595   0.940   7.050  0.7414 -2.1443 -0.1160
  875MOL0     H18086  10.524   1.245   7.191  1.3428  0.5302 -0.5551
  875MOL0     H18087  10.690   1.206   7.238 -1.5447 -1.0590  3.9035
  875MOL0     H18088  10.633   1.154   7.077  2.1579 -1.2647  0.6172
  875MOL0     H18089  10.301   1.292   7.479 -1.5298  0.1378  1.3929
  875MOL0     H18090  10.195   1.462   7.624 -0.3962  2.1338  0.3803
  875MOL0     H18091  10.288   1.524   7.906 -3.7893  2.7112  1.5327
  875MOL0     H18092  10.449   1.616   7.904 -0.6976  5.6267  1.7568
  875MOL0     H18093  10.336   1.822   7.928  1.2208 -2.3459 -3.2871
  875MOL0     H18094  10.179   1.744   7.935 -0.6968  0.4835 -0.7979
  875MOL0     H18095  10.237   1.805   8.149  4.5221  2.3348  0.9387
  875MOL0     H18096  10.389   1.711   8.154 -0.7281 -0.3134  2.7381
  875MOL0     H18097  10.113   1.562   8.100  0.4444 -0.0216 -2.2620
  875MOL0     H18098  10.272   1.496   8.096 -1.9118 -2.4467 -0.0535
  875MOL0     H18099  10.173   1.624   8.359  0.2894 -0.1192  0.9403
  875MOL0     H18100  10.337   1.581   8.306 -0.2087  3.6269 -3.1971
  875MOL0     H18101  10.101   1.399   8.293  0.4194  0.2089 -2.3089
  875MOL0     H18102  10.266   1.341   8.278  2.8221  2.4499 -0.5672
  875MOL0     H18103  10.131   1.477   8.515 -0.0188  1.0480 -1.9674
  875MOL0     H18104  10.306   1.462   8.513  0.9465 -0.4246 -1.1658
  875MOL0     H18105  10.260   1.267   8.628 -2.4753  2.2268  1.0494
  875MOL0     H18106  10.292   1.218   8.466 -1.8104 -2.4003 -1.1273
  875MOL0     H18107  10.590   1.611   7.724  0.8991 -0.5877 -1.3311
  875MOL0     H18108  10.690   1.405   7.593 -0.1818 -1.0917 -5.3430
  875MOL0     H18109  10.457   0.867   7.507  1.0381  1.3220  1.0542
  875MOL0     H18110  10.486   0.681   7.358  0.0984 -0.2159 -0.0155
  875MOL0     H18111  11.265   0.442   6.075 -2.8443  4.0535  0.9290
  875MOL0     H18112  11.357   0.467   5.833 -0.9125  0.7316  0.6728
  875MOL0     H18113  11.600   0.906   5.609  0.3107  0.6995 -0.9342
  875MOL0     H18114  11.621   0.951   5.344 -0.7436 -0.8346 -1.2544
  875MOL0     H18115  11.623   0.576   5.115  0.4790 -0.0179  0.9360
  875MOL0     H18116  11.446   0.594   5.089 -0.9375  1.5976  2.4503
  875MOL0     H18117  11.638   0.795   4.961  1.4379 -1.0753 -0.9895
  875MOL0     H18118  11.469   0.759   4.924 -0.1754 -0.2870 -1.2468
  875MOL0     H18119  11.550   0.656   4.741  0.2796 -2.5418 -1.7813
  875MOL0     H18120  11.554   0.514   4.839 -0.8289  0.3719  3.1500
  875MOL0     H18121  11.811   0.698   4.832 -2.1732  1.5598 -2.9242
  875MOL0     H18122  11.781   0.561   4.723 -1.3904  0.6530 -0.7358
  875MOL0     H18123  11.920   0.381   5.071  2.0267  1.8270  0.1863
  875MOL0     H18124  11.421   0.563   5.302 -0.0020  0.1592  0.3443
  875MOL0     H18125  11.420   0.531   5.539  1.4634 -0.8637 -0.2008
  876MOL0     O18126   1.974   5.876   7.839  0.0655  0.7671  0.1432
  876MOL0     C18127   1.930   5.786   7.916  0.2027 -1.3847 -0.4478
  876MOL0     O18128   2.007   5.709   7.997  0.4963  0.4389 -0.5169
  876MOL0     C18129   2.140   5.727   7.967 -0.1145 -0.4605  0.6210
  876MOL0     C18130   2.199   5.652   7.873  0.3389 -0.3279  0.5137
  876MOL0     C18131   2.327   5.676   7.819  0.0157 -0.0235  0.0260
  876MOL0     C18132   2.395   5.786   7.873 -0.9438 -0.1974  1.2350
  876MOL0     O18133   2.522   5.798   7.816  1.2972  0.1711 -0.7080
  876MOL0     C18134   2.572   5.937   7.807  0.0758  0.6124 -0.2063
  876MOL0     C18135   2.675   5.933   7.699  0.5428 -0.6508 -0.1540
  876MOL0     C18136   2.814   5.914   7.759 -0.6242  0.0312  0.0458
  876MOL0     C18137   2.915   5.917   7.641  0.1645 -0.4373 -1.1382
  876MOL0     C18138   3.063   5.899   7.683  0.3955 -0.5527 -0.4002
  876MOL0     C18139   3.157   5.848   7.570  0.1783  0.4968 -0.6691
  876MOL0     C18140   3.282   5.776   7.616  0.0225 -0.0364  0.0810
  876MOL0     C18141   3.255   5.625   7.628  0.6120 -0.4547 -0.2467
  876MOL0     N18142   3.378   5.561   7.670 -0.0923 -0.4129  0.1177
  876MOL0     C18143   3.482   5.511   7.601  0.2044 -0.0996 -0.2831
  876MOL0     C18144   3.558   5.448   7.701  0.6648 -0.4714 -0.5453
  876MOL0     C18145   3.685   5.365   7.675 -0.4010  1.0280  0.5826
  876MOL0     C18146   3.781   5.457   7.593 -0.3332 -0.2440  1.0629
  876MOL0     C18147   3.925   5.395   7.585 -0.0553  0.4289 -0.6060
  876MOL0     C18148   3.974   5.385   7.727 -0.8923  0.0798  0.6330
  876MOL0     O18149   4.111   5.357   7.739 -0.8874  0.4344  1.1208
  876MOL0     C18150   4.201   5.456   7.765 -0.0237  0.2144 -0.5388
  876MOL0     C18151   4.336   5.419   7.750 -0.2859  0.2409  0.8092
  876MOL0     C18152   4.440   5.516   7.751 -0.0614  0.0054 -0.4985
  876MOL0     C18153   4.582   5.473   7.731  0.6019  0.0462  0.0925
  876MOL0     C18154   4.395   5.651   7.765 -0.0845  0.3903 -0.4455
  876MOL0     C18155   4.499   5.752   7.762 -0.1093 -0.1998 -0.9042
  876MOL0     O18156   4.485   5.840   7.657  0.1927 -0.3975 -0.0230
  876MOL0     C18157   4.575   5.934   7.640  0.3268  0.4882  0.6953
  876MOL0     C18158   4.685   5.923   7.550  0.3622  0.2940  0.8598
  876MOL0     C18159   4.760   6.043   7.531 -0.8366  0.8079 -0.9005
  876MOL0     C18160   4.735   6.167   7.600 -0.1003  0.7617  0.0775
  876MOL0     O18161   4.813   6.278   7.588  0.1609 -0.7881 -0.5670
  876MOL0     C18162   4.950   6.271   7.571  0.0594 -0.0801  0.3171
  876MOL0     C18163   5.014   6.407   7.567  0.0091 -0.7686  0.2088
  876MOL0     C18164   5.165   6.412   7.575 -0.2116 -0.8008  0.0673
  876MOL0     C18165   5.237   6.544   7.586  0.3879  0.2908  0.0763
  876MOL0     C18166   5.393   6.528   7.574  0.7108 -0.7721 -0.3010
  876MOL0     C18167   5.447   6.644   7.654  0.3109 -0.2200  0.4465
  876MOL0     C18168   5.598   6.639   7.640 -0.1703  0.4743  0.5365
  876MOL0     C18169   5.654   6.723   7.753 -0.4022 -0.4782 -0.4458
  876MOL0    Cl18170   5.831   6.758   7.751  0.6576 -0.3457 -0.5552
  876MOL0     C18171   4.624   6.168   7.688  0.6010 -0.1700 -0.2503
  876MOL0     C18172   4.539   6.058   7.702  1.2237 -0.3556  0.1858
  876MOL0     O18173   4.597   5.744   7.841  0.3108  0.0294  0.1963
  876MOL0     C18174   4.263   5.690   7.770 -0.0996 -0.3291 -0.6731
  876MOL0     C18175   4.167   5.590   7.774 -0.1130  0.4316 -0.2575
  876MOL0     N18176   3.505   5.473   7.834  0.0536  0.9169  0.0882
  876MOL0     N18177   3.399   5.539   7.810  0.8916 -1.0744  0.0322
  876MOL0     C18178   2.329   5.872   7.967 -0.4866 -0.3605 -0.0924
  876MOL0     C18179   2.203   5.843   8.012  0.1951  0.5137 -0.1021
  876MOL0     C18180   1.789   5.744   7.913 -0.6013 -0.4265  0.5890
  876MOL0     C18181   1.751   5.617   7.961 -0.3586  0.5265 -0.0213
  876MOL0     C18182   1.634   5.560   7.928  0.9020 -0.5132 -0.2366
  876MOL0     C18183   1.535   5.637   7.860  0.1847 -0.8353 -0.1195
  876MOL0     O18184   1.411   5.588   7.832  0.1819  0.6274 -0.1333
  876MOL0     C18185   1.367   5.497   7.934 -0.8609 -0.3014 -0.2563
  876MOL0     C18186   1.224   5.509   7.954 -0.6342 -0.5146  0.1150
  876MOL0     C18187   1.133   5.534   7.831 -0.8999 -0.0003  0.4430
  876MOL0     C18188   1.110   5.400   7.754  1.0708 -0.4892 -0.9557
  876MOL0     C18189   0.999   5.411   7.659  0.3542  0.2186  0.4119
  876MOL0     C18190   0.906   5.426   7.579 -0.2902  0.1211 -0.3648
  876MOL0     C18191   1.571   5.767   7.801  0.6370  0.1588 -0.4444
  876MOL0     C18192   1.689   5.820   7.850 -0.1162  0.4185 -0.2748
  876MOL0     H18193   2.160   5.558   7.835 -1.6791  1.6822 -2.8254
  876MOL0     H18194   2.364   5.619   7.734 -0.0272  0.6626 -0.4671
  876MOL0     H18195   2.491   5.999   7.767 -1.5213 -3.2674 -3.7425
  876MOL0     H18196   2.610   5.959   7.907 -1.1475  0.0245  0.4159
  876MOL0     H18197   2.647   5.851   7.632  0.4087 -1.7280  1.1685
  876MOL0     H18198   2.670   6.028   7.644 -2.2325 -0.4907  0.2210
  876MOL0     H18199   2.843   5.990   7.833  0.6985 -0.3985  0.0065
  876MOL0     H18200   2.826   5.820   7.812  3.1364  0.4198  0.1978
  876MOL0     H18201   2.884   5.839   7.571 -1.5869  1.7446 -2.9750
  876MOL0     H18202   2.897   5.997   7.569 -0.3927 -1.3584 -2.0560
  876MOL0     H18203   3.101   5.996   7.713 -1.5969 -0.3755  1.8042
  876MOL0     H18204   3.070   5.838   7.773 -2.4203  1.0350  1.0222
  876MOL0     H18205   3.104   5.794   7.491 -1.1249 -0.7383  0.9801
  876MOL0     H18206   3.185   5.942   7.520 -1.9610  1.4223 -0.2544
  876MOL0     H18207   3.373   5.793   7.558  0.6733  1.1594  1.3899
  876MOL0     H18208   3.311   5.817   7.713  1.5789  2.2332 -1.2348
  876MOL0     H18209   3.220   5.582   7.534 -3.3104 -2.4778  1.8834
  876MOL0     H18210   3.174   5.601   7.698  0.8913  1.0043  0.6169
  876MOL0     H18211   3.488   5.518   7.493 -0.1855  1.4631 -0.2329
  876MOL0     H18212   3.737   5.326   7.763  0.2204  0.7326  0.1004
  876MOL0     H18213   3.646   5.286   7.611  0.5260  3.8938 -3.9782
  876MOL0     H18214   3.790   5.554   7.643 -1.1404 -0.0524  0.8455
  876MOL0     H18215   3.751   5.468   7.488  3.8772 -2.4878 -0.6087
  876MOL0     H18216   4.001   5.466   7.551  1.7710 -1.0274  0.2193
  876MOL0     H18217   3.931   5.293   7.546 -0.3657  0.0357  0.3468
  876MOL0     H18218   3.928   5.298   7.775 -0.4912 -0.8578 -0.6325
  876MOL0     H18219   3.940   5.477   7.776  1.8523  2.5712 -1.7295
  876MOL0     H18220   4.367   5.316   7.736  0.8795  1.0186 -4.1857
  876MOL0     H18221   4.586   5.372   7.689 -1.5939  0.8593 -2.2619
  876MOL0     H18222   4.632   5.547   7.668 -1.7473  1.6941  0.0259
  876MOL0     H18223   4.628   5.466   7.831  0.0569  2.6143  0.5879
  876MOL0     H18224   4.712   5.830   7.501  1.7103  3.0419 -4.3472
  876MOL0     H18225   4.846   6.054   7.465  1.8233  1.7557  2.4120
  876MOL0     H18226   4.993   6.213   7.653  1.3773 -0.8183 -0.8695
  876MOL0     H18227   4.968   6.223   7.475 -0.9805 -2.5162  1.2582
  876MOL0     H18228   4.975   6.450   7.475  0.7855  0.9472  0.6436
  876MOL0     H18229   4.975   6.465   7.652 -2.8780 -1.5397 -0.4681
  876MOL0     H18230   5.194   6.362   7.482 -0.1410 -1.4537  0.4361
  876MOL0     H18231   5.195   6.338   7.649  2.3819  0.9270  0.8795
  876MOL0     H18232   5.199   6.617   7.514  2.2297  0.5513 -0.6975
  876MOL0     H18233   5.196   6.585   7.679 -3.4842 -0.2333 -1.2180
  876MOL0     H18234   5.429   6.504   7.473 -1.5820 -3.3356 -0.5884
  876MOL0     H18235   5.410   6.434   7.626 -3.0850 -3.3733 -3.2304
  876MOL0     H18236   5.410   6.737   7.608  1.5690 -0.9420 -2.1971
  876MOL0     H18237   5.418   6.648   7.759 -0.4127 -0.0251  0.2462
  876MOL0     H18238   5.641   6.673   7.545  1.5136 -3.0142 -0.0982
  876MOL0     H18239   5.636   6.540   7.663 -1.6522  0.6570  4.8263
  876MOL0     H18240   5.636   6.672   7.849  1.6647  3.2753  2.1837
  876MOL0     H18241   5.623   6.827   7.760 -0.1407 -0.3591 -1.0300
  876MOL0     H18242   4.608   6.264   7.736  0.0043 -1.1180  1.4989
  876MOL0     H18243   4.456   6.062   7.772  0.9998  2.3368 -0.1362
  876MOL0     H18244   4.241   5.795   7.786  4.8030  0.7041  1.0936
  876MOL0     H18245   4.064   5.624   7.775 -0.2957 -0.1205  0.2635
  876MOL0     H18246   2.372   5.967   7.998 -1.5855  0.2748 -0.4143
  876MOL0     H18247   2.147   5.903   8.082  1.0916  0.9447  0.2575
  876MOL0     H18248   1.819   5.550   8.012  0.8139  0.7045 -1.2889
  876MOL0     H18249   1.614   5.455   7.948  0.4598 -0.5002 -0.5983
  876MOL0     H18250   1.390   5.397   7.895 -0.0031  0.8947 -3.0802
  876MOL0     H18251   1.421   5.492   8.029  0.5689  0.4164 -1.0006
  876MOL0     H18252   1.207   5.588   8.027 -0.4820  0.7755 -1.2184
  876MOL0     H18253   1.191   5.415   8.002  0.2173 -0.7633  0.2204
  876MOL0     H18254   1.178   5.611   7.768 -1.1085  0.0329  0.3355
  876MOL0     H18255   1.039   5.569   7.875  1.0432  4.2522  1.7964
  876MOL0     H18256   1.089   5.320   7.826  2.6330 -0.8966 -0.9131
  876MOL0     H18257   1.203   5.365   7.707  2.5290  0.1446  1.3020
  876MOL0     H18258   0.836   5.415   7.499 -0.2355 -3.3577 -0.1020
  876MOL0     H18259   1.493   5.822   7.750  0.6799  1.2525  0.6096
  876MOL0     H18260   1.709   5.924   7.824 -2.0250  0.6285 -1.0496
  877MOL0     O18261   4.636   9.730   2.131  0.5459  0.6500 -0.1907
  877MOL0     C18262   4.592   9.794   2.040 -1.5700 -1.2209 -0.5668
  877MOL0     O18263   4.640   9.918   1.999 -0.1711 -0.5763  0.0487
  877MOL0     C18264   4.734   9.981   2.085  0.1253  0.2016  1.2879
  877MOL0     C18265   4.692  10.047   2.199  0.5538  0.1377 -0.5819
  877MOL0     C18266   4.789  10.092   2.291  0.0088 -0.0260 -0.7107
  877MOL0     C18267   4.922  10.086   2.267  0.2180 -0.1770  0.0961
  877MOL0     O18268   5.022  10.134   2.349 -0.2599  1.3548  0.1340
  877MOL0     C18269   5.038  10.068   2.478  0.0580  0.2036  0.5248
  877MOL0     C18270   5.072  10.160   2.596  0.0239 -0.3202  0.0559
  877MOL0     C18271   5.190  10.253   2.565 -1.2320 -0.0100 -0.2440
  877MOL0     C18272   5.241  10.320   2.693 -0.3828  0.7272 -0.7730
  877MOL0     C18273   5.392  10.367   2.680 -0.1462 -0.0005  0.2295
  877MOL0     C18274   5.439  10.436   2.804  0.2824  0.6837 -0.3764
  877MOL0     C18275   5.570  10.504   2.792 -0.3013 -0.2890 -0.3423
  877MOL0     C18276   5.619  10.568   2.920 -0.4241  0.9241 -0.0591
  877MOL0     N18277   5.560  10.708   2.942 -0.5619  0.3926 -0.2712
  877MOL0     C18278   5.635  10.816   2.925  1.0946  0.1496  0.2193
  877MOL0     C18279   5.553  10.917   2.962 -0.4842  0.0427  0.2259
  877MOL0     C18280   5.608  11.052   2.956 -0.6344 -0.1254 -0.6251
  877MOL0     C18281   5.520  11.157   3.014  1.0512 -0.2823  0.8456
  877MOL0     C18282   5.528  11.145   3.162  0.1706 -0.8411  0.0530
  877MOL0     C18283   5.423  11.220   3.224 -0.5207  0.7543  0.5358
  877MOL0     O18284   5.300  11.228   3.159  0.0867 -0.2607  0.5490
  877MOL0     C18285   5.205  11.133   3.176  0.1751  0.5054 -0.7282
  877MOL0     C18286   5.081  11.161   3.121  0.7856 -0.5231 -1.6844
  877MOL0     C18287   4.963  11.081   3.155  0.3781 -0.0520  0.6826
  877MOL0     C18288   4.823  11.136   3.122  0.1897 -0.4229  0.7240
  877MOL0     C18289   4.980  10.968   3.243 -0.7308  0.6405 -0.3280
  877MOL0     C18290   4.870  10.879   3.287 -0.6459  0.2505 -0.2338
  877MOL0     O18291   4.791  10.849   3.185  0.2135 -0.2686  0.4253
  877MOL0     C18292   4.677  10.792   3.212 -0.9799  0.0076 -0.2126
  877MOL0     C18293   4.681  10.663   3.269 -0.0922 -0.7408 -0.4385
  877MOL0     C18294   4.556  10.606   3.298 -1.1487 -0.5917 -1.0977
  877MOL0     C18295   4.428  10.662   3.280 -0.3033  0.6439 -0.0718
  877MOL0     O18296   4.305  10.601   3.306  0.4732 -0.1170  0.5728
  877MOL0     C18297   4.295  10.459   3.333 -0.6655  0.2822  0.6701
  877MOL0     C18298   4.263  10.422   3.480 -0.1770  0.9571 -0.7782
  877MOL0     C18299   4.127  10.455   3.536 -0.5747 -0.3043  0.5992
  877MOL0     C18300   4.116  10.411   3.687  0.4304 -0.8387 -0.2818
  877MOL0     C18301   3.972  10.430   3.735  0.7099  0.8021 -0.5143
  877MOL0     C18302   3.946  10.362   3.877 -0.0166 -0.2876  0.4817
  877MOL0     C18303   4.032  10.429   3.988  0.2575  0.5856 -0.7728
  877MOL0     C18304   3.979  10.377   4.128  0.7589 -1.1152  1.1653
  877MOL0    Cl18305   3.981  10.197   4.140  0.0428 -0.4081 -0.4756
  877MOL0     C18306   4.432  10.782   3.211  0.4563  0.4327  0.3874
  877MOL0     C18307   4.552  10.844   3.173 -0.8055 -0.0117 -0.1137
  877MOL0     O18308   4.855  10.837   3.396 -0.1555  0.2097  0.1454
  877MOL0     C18309   5.113  10.939   3.281  0.0459  0.7627  0.9830
  877MOL0     C18310   5.221  11.011   3.255 -0.0049 -0.2384 -0.5461
  877MOL0     N18311   5.432  10.868   3.006 -0.2290  0.1684  1.1916
  877MOL0     N18312   5.440  10.741   3.000  0.3847  0.1426  0.0815
  877MOL0     C18313   4.958  10.033   2.140 -0.6027 -0.0378  0.9408
  877MOL0     C18314   4.864   9.971   2.056  0.3707  0.3103 -0.0701
  877MOL0     C18315   4.469   9.743   1.962 -0.0475 -0.3933 -0.0932
  877MOL0     C18316   4.403   9.820   1.879  0.4179 -0.5090  0.4181
  877MOL0     C18317   4.292   9.773   1.807 -0.3670  0.6493  0.1296
  877MOL0     C18318   4.257   9.640   1.817 -0.2747 -0.3012  0.7032
  877MOL0     O18319   4.153   9.586   1.746  0.8633 -0.5743 -0.7211
  877MOL0     C18320   4.177   9.462   1.675 -0.3700 -0.9427 -0.3599
  877MOL0     C18321   4.065   9.462   1.571 -0.0013  0.4515 -0.1603
  877MOL0     C18322   3.929   9.444   1.634  0.2484 -0.6194 -0.5931
  877MOL0     C18323   3.819   9.412   1.538  0.4039 -0.8966  0.0824
  877MOL0     C18324   3.692   9.425   1.611  0.9150 -0.0982  0.0956
  877MOL0     C18325   3.576   9.444   1.649  0.0140 -0.0511  0.7668
  877MOL0     C18326   4.323   9.552   1.904  0.1437  0.5627  0.0855
  877MOL0     C18327   4.419   9.609   1.983  0.3171 -0.0105 -0.1029
  877MOL0     H18328   4.586  10.066   2.211  0.8164  0.0206  3.5644
  877MOL0     H18329   4.770  10.136   2.388  0.2371  1.3976 -1.2754
  877MOL0     H18330   4.948  10.012   2.503  0.1797 -0.5556 -0.6501
  877MOL0     H18331   5.117   9.994   2.465  1.1335  1.7691 -3.2059
  877MOL0     H18332   4.989  10.224   2.626  2.0678  2.7102 -0.2337
  877MOL0     H18333   5.103  10.096   2.679 -0.0367 -0.1086  0.2432
  877MOL0     H18334   5.270  10.206   2.507 -1.2301 -2.3168  1.4666
  877MOL0     H18335   5.160  10.333   2.496 -1.2087  1.8343  1.7769
  877MOL0     H18336   5.165  10.394   2.720 -1.6053  0.4109 -3.0201
  877MOL0     H18337   5.239  10.244   2.772 -1.5363  0.8230 -0.6928
  877MOL0     H18338   5.466  10.288   2.662 -0.8069 -0.8160  0.9800
  877MOL0     H18339   5.382  10.443   2.602 -0.6659  0.3511  0.6337
  877MOL0     H18340   5.366  10.516   2.817 -0.5327 -0.1021 -0.0325
  877MOL0     H18341   5.431  10.366   2.887  0.2314  1.1984  0.0548
  877MOL0     H18342   5.645  10.426   2.778 -1.2316 -2.0455  3.1125
  877MOL0     H18343   5.586  10.581   2.716  1.1195  2.5900  2.5828
  877MOL0     H18344   5.728  10.565   2.924 -0.4196 -0.1104 -0.7201
  877MOL0     H18345   5.595  10.513   3.011 -2.1189  1.1717 -0.3139
  877MOL0     H18346   5.739  10.823   2.892  2.6161 -1.9911  3.8979
  877MOL0     H18347   5.703  11.064   3.009 -0.7523  1.8319 -0.7841
  877MOL0     H18348   5.630  11.084   2.854 -0.2618 -2.6816 -1.4125
  877MOL0     H18349   5.422  11.134   2.971  1.7754 -3.3767  0.5605
  877MOL0     H18350   5.562  11.254   2.986  2.4701 -1.2539 -0.5535
  877MOL0     H18351   5.620  11.192   3.198  0.0259  0.0097 -0.6590
  877MOL0     H18352   5.537  11.041   3.194 -0.5530 -0.6837  0.7985
  877MOL0     H18353   5.452  11.326   3.231 -0.9873  0.9318 -0.0949
  877MOL0     H18354   5.427  11.174   3.323 -2.3004 -1.5843 -0.4108
  877MOL0     H18355   5.070  11.250   3.060 -0.3778 -0.8106 -1.9201
  877MOL0     H18356   4.760  11.118   3.210  0.0257  1.5648  1.0585
  877MOL0     H18357   4.821  11.243   3.103 -0.1859 -0.4181  0.7787
  877MOL0     H18358   4.780  11.094   3.031 -0.5917  0.7059  0.5671
  877MOL0     H18359   4.780  10.624   3.290  1.8474  2.4340 -2.6869
  877MOL0     H18360   4.560  10.512   3.351 -1.0072  1.1578  2.3122
  877MOL0     H18361   4.211  10.422   3.273  0.8898 -1.5416 -0.4978
  877MOL0     H18362   4.384  10.399   3.313 -1.2454 -0.2449 -0.4479
  877MOL0     H18363   4.262  10.313   3.490 -0.7700  0.9861 -0.4538
  877MOL0     H18364   4.342  10.459   3.546 -1.3311  2.6073 -0.2549
  877MOL0     H18365   4.065  10.396   3.467  2.2170 -2.5339 -0.2174
  877MOL0     H18366   4.104  10.561   3.520 -1.0394 -0.3981  0.6296
  877MOL0     H18367   4.136  10.304   3.697 -5.1339 -2.0336  2.2443
  877MOL0     H18368   4.186  10.469   3.748  1.3573  0.4201 -2.4222
  877MOL0     H18369   3.903  10.389   3.660 -0.7884  2.0873  0.1125
  877MOL0     H18370   3.945  10.535   3.748  0.6276  1.1226 -2.8875
  877MOL0     H18371   3.841  10.384   3.897  0.0776 -0.1326  0.8163
  877MOL0     H18372   3.968  10.255   3.872 -0.1900 -0.2939 -0.2403
  877MOL0     H18373   4.006  10.535   3.988 -3.3431  0.1061  4.0831
  877MOL0     H18374   4.140  10.412   3.983  0.3033  0.0193  1.2276
  877MOL0     H18375   3.885  10.429   4.149  2.0751  1.6780  0.5786
  877MOL0     H18376   4.053  10.402   4.205  0.8227 -2.3597  1.5250
  877MOL0     H18377   4.342  10.837   3.188  0.2861 -0.6078 -1.6735
  877MOL0     H18378   4.548  10.942   3.127  0.1037 -0.1595 -0.5466
  877MOL0     H18379   5.127  10.851   3.344 -3.3970 -1.2343 -0.6987
  877MOL0     H18380   5.310  10.972   3.304 -1.7738 -3.1871  0.5164
  877MOL0     H18381   5.058  10.043   2.097 -1.2238 -0.3621 -0.6597
  877MOL0     H18382   4.890   9.935   1.958 -3.9807  0.2550 -1.3926
  877MOL0     H18383   4.415   9.925   1.858  1.2912 -1.1444 -2.7051
  877MOL0     H18384   4.231   9.854   1.767 -0.4132  2.4912  3.5703
  877MOL0     H18385   4.270   9.457   1.617 -0.5730  3.4981 -1.4158
  877MOL0     H18386   4.173   9.382   1.750 -2.1085 -0.7690 -0.2384
  877MOL0     H18387   4.090   9.375   1.510 -1.5422 -2.6133  3.1625
  877MOL0     H18388   4.086   9.557   1.522  3.8873  1.7323  3.3834
  877MOL0     H18389   3.899   9.541   1.676  1.8961  0.1104 -1.0333
  877MOL0     H18390   3.936   9.370   1.714  1.3067  0.0070 -0.0822
  877MOL0     H18391   3.832   9.311   1.498  2.0107  0.2676 -2.6290
  877MOL0     H18392   3.808   9.480   1.453 -1.1387 -1.5819 -0.3013
  877MOL0     H18393   3.471   9.463   1.664 -0.2986  0.3061 -1.5331
  877MOL0     H18394   4.307   9.446   1.918 -4.8260  0.9313 -0.8310
  877MOL0     H18395   4.482   9.557   2.054 -0.0498  0.9251  0.9297
  878MOL0     O18396   4.867   4.524   4.801  0.1667 -0.5114 -0.2738
  878MOL0     C18397   4.865   4.616   4.885 -0.8026 -0.0140 -0.9049
  878MOL0     O18398   4.947   4.720   4.884  0.1885  0.7643  0.3318
  878MOL0     C18399   5.017   4.741   4.763 -0.0886  0.1265  0.5815
  878MOL0     C18400   4.962   4.778   4.638 -0.1554 -0.2038  0.2556
  878MOL0     C18401   5.057   4.822   4.543 -1.3287  0.7044  0.2180
  878MOL0     C18402   5.198   4.800   4.546  0.1925  0.4366  0.4623
  878MOL0     O18403   5.265   4.858   4.446  0.4229  0.0849  0.1625
  878MOL0     C18404   5.402   4.854   4.449 -0.0535  0.2040  0.4511
  878MOL0     C18405   5.479   4.931   4.348 -0.9138  0.6742 -0.0215
  878MOL0     C18406   5.633   4.895   4.307  0.5608  0.7169 -0.2002
  878MOL0     C18407   5.669   4.958   4.173  0.3549  0.4646  0.6235
  878MOL0     C18408   5.684   5.109   4.174 -0.5047 -0.2406 -0.5412
  878MOL0     C18409   5.728   5.161   4.037 -0.6928 -0.2496 -0.2319
  878MOL0     C18410   5.880   5.148   4.001 -0.4979  0.5724 -0.3960
  878MOL0     C18411   5.908   5.172   3.853  0.7382  0.0280  0.5141
  878MOL0     N18412   6.044   5.201   3.821 -0.5920  0.3601  0.1620
  878MOL0     C18413   6.144   5.109   3.815 -0.3254  0.1144  0.4728
  878MOL0     C18414   6.258   5.179   3.772  0.4326 -0.8338 -0.7338
  878MOL0     C18415   6.398   5.134   3.769  0.1703  0.2134 -0.4582
  878MOL0     C18416   6.418   5.065   3.627  0.3035 -0.4111  0.1376
  878MOL0     C18417   6.560   5.042   3.591  0.2181  0.4239  0.1735
  878MOL0     C18418   6.629   5.166   3.537 -0.3579 -0.4816  0.3543
  878MOL0     O18419   6.737   5.118   3.458 -1.3949  0.2823  0.5672
  878MOL0     C18420   6.865   5.099   3.518  0.1837  0.2882  0.3509
  878MOL0     C18421   6.963   5.085   3.420  0.6798 -0.2875 -0.2892
  878MOL0     C18422   7.097   5.078   3.462  0.0307  0.1042 -0.3790
  878MOL0     C18423   7.198   5.074   3.346 -0.5590  0.2726  0.8870
  878MOL0     C18424   7.134   5.064   3.601  0.7309  0.3751  0.2128
  878MOL0     C18425   7.271   5.043   3.645 -0.1104 -0.2287 -0.4430
  878MOL0     O18426   7.364   5.108   3.566 -0.1180 -0.1453  0.6385
  878MOL0     C18427   7.495   5.088   3.583 -0.1595 -0.0687  1.4559
  878MOL0     C18428   7.559   5.049   3.462  0.4050  0.0597  0.6279
  878MOL0     C18429   7.699   5.025   3.465  0.2302 -0.2652 -0.8363
  878MOL0     C18430   7.768   5.028   3.584  0.7907  0.7926  0.1075
  878MOL0     O18431   7.900   4.998   3.575 -0.8350  0.2553  0.2100
  878MOL0     C18432   7.995   5.050   3.678 -0.3181 -0.1048  0.0187
  878MOL0     C18433   8.134   5.045   3.628 -0.6028  0.9551 -0.3673
  878MOL0     C18434   8.206   4.908   3.656 -0.4511 -0.5348  0.2094
  878MOL0     C18435   8.347   4.903   3.582  0.1427 -0.0589  0.9955
  878MOL0     C18436   8.440   4.809   3.654 -0.1746  0.5875 -0.2711
  878MOL0     C18437   8.584   4.833   3.640  0.5279 -0.1070 -0.4208
  878MOL0     C18438   8.635   4.770   3.509  0.2626 -0.2385 -0.1558
  878MOL0     C18439   8.627   4.620   3.504  0.4378 -0.1193 -0.4119
  878MOL0    Cl18440   8.679   4.547   3.650  0.1342  0.0209  0.1737
  878MOL0     C18441   7.699   5.040   3.709 -0.0142 -0.4531 -0.1338
  878MOL0     C18442   7.562   5.075   3.704  0.0873  0.5716  0.2212
  878MOL0     O18443   7.294   4.982   3.753 -0.0515 -0.1053 -0.1435
  878MOL0     C18444   7.027   5.085   3.696 -1.0174 -0.6662  0.6423
  878MOL0     C18445   6.897   5.095   3.655  0.4269 -0.4077 -0.4533
  878MOL0     N18446   6.212   5.313   3.771  0.1141 -0.2663  0.2540
  878MOL0     N18447   6.089   5.323   3.786  0.4516  0.7595 -0.1040
  878MOL0     C18448   5.244   4.760   4.672  0.9755  0.4143 -0.2735
  878MOL0     C18449   5.157   4.717   4.770  0.5725  0.0395 -0.1106
  878MOL0     C18450   4.778   4.583   4.998  0.5338 -0.1969 -0.2280
  878MOL0     C18451   4.701   4.470   5.002  0.7970  0.8493 -0.3699
  878MOL0     C18452   4.638   4.433   5.120 -1.1736 -0.1032  0.4630
  878MOL0     C18453   4.646   4.520   5.232 -0.5342  0.8149 -0.7167
  878MOL0     O18454   4.570   4.494   5.346  0.0312  0.0644  0.2431
  878MOL0     C18455   4.450   4.579   5.344  0.0556 -0.5193 -1.0346
  878MOL0     C18456   4.492   4.704   5.429 -0.2350  0.3545 -0.2657
  878MOL0     C18457   4.529   4.671   5.576  0.9248 -0.6789  0.0056
  878MOL0     C18458   4.586   4.798   5.645 -0.5668 -0.6020 -0.4353
  878MOL0     C18459   4.724   4.828   5.607  0.3720  0.9078 -0.3890
  878MOL0     C18460   4.842   4.836   5.602 -0.3739 -0.0543  0.1746
  878MOL0     C18461   4.724   4.635   5.226  0.0454 -0.6169  0.1383
  878MOL0     C18462   4.794   4.669   5.108  0.2265 -0.0290 -0.7811
  878MOL0     H18463   4.855   4.788   4.625 -0.6231 -4.5223 -0.9370
  878MOL0     H18464   5.029   4.872   4.451  3.2497  1.2714 -1.1092
  878MOL0     H18465   5.450   4.890   4.540 -0.8075 -1.4622  1.5554
  878MOL0     H18466   5.417   4.746   4.447  1.0136  0.3600 -0.3602
  878MOL0     H18467   5.423   4.936   4.254 -2.8565 -0.6795  0.9880
  878MOL0     H18468   5.483   5.031   4.390  4.4827  0.2839  1.1154
  878MOL0     H18469   5.691   4.941   4.387  0.0321  3.2934 -1.2153
  878MOL0     H18470   5.645   4.786   4.314  4.6952  1.0010 -0.4130
  878MOL0     H18471   5.771   4.923   4.152  0.3722 -0.4551  2.0783
  878MOL0     H18472   5.605   4.925   4.091 -2.7002  1.9907  2.2266
  878MOL0     H18473   5.585   5.141   4.205  0.1043 -0.5757  2.0039
  878MOL0     H18474   5.761   5.135   4.248 -0.5448 -1.9539  0.1522
  878MOL0     H18475   5.662   5.124   3.957  1.8475 -2.1514 -1.6017
  878MOL0     H18476   5.701   5.267   4.034  3.0457  0.8276 -0.7600
  878MOL0     H18477   5.935   5.219   4.064  0.1241  0.6086 -0.9791
  878MOL0     H18478   5.920   5.050   4.028 -0.0824  0.9740  0.4880
  878MOL0     H18479   5.856   5.262   3.821  1.0282 -0.1772 -0.5731
  878MOL0     H18480   5.878   5.083   3.797  5.2722 -0.4328 -1.5475
  878MOL0     H18481   6.140   5.008   3.854 -0.1157 -0.6845 -1.4878
  878MOL0     H18482   6.473   5.212   3.779  0.9275 -0.5425 -0.1928
  878MOL0     H18483   6.407   5.055   3.844 -2.6649  1.3386  1.2276
  878MOL0     H18484   6.372   5.121   3.545 -0.8483  0.0961  1.1114
  878MOL0     H18485   6.361   4.973   3.642 -0.3524  0.3659  3.1129
  878MOL0     H18486   6.562   4.961   3.517  3.6498  0.2546  0.2836
  878MOL0     H18487   6.616   5.002   3.677 -0.1518 -1.3970 -0.3874
  878MOL0     H18488   6.665   5.224   3.622  0.3049 -1.5298  0.8077
  878MOL0     H18489   6.560   5.236   3.489 -0.1454 -0.2567  0.3731
  878MOL0     H18490   6.932   5.102   3.318 -0.3013 -0.9740 -0.1233
  878MOL0     H18491   7.264   5.161   3.340  0.3512 -0.4877 -3.2169
  878MOL0     H18492   7.255   4.982   3.365  0.4863  0.8642  0.6935
  878MOL0     H18493   7.151   5.051   3.250 -2.6693 -3.0124  2.5364
  878MOL0     H18494   7.511   5.029   3.367  0.7858  1.3047  0.1516
  878MOL0     H18495   7.737   5.011   3.364  1.3595 -1.2404 -0.2946
  878MOL0     H18496   7.965   5.154   3.693  1.2172  0.4259 -0.3873
  878MOL0     H18497   7.983   4.992   3.770  1.1759  1.5551  1.3253
  878MOL0     H18498   8.130   5.058   3.519 -2.9475  1.6937 -0.2506
  878MOL0     H18499   8.196   5.122   3.674 -0.2029  0.2505  0.2975
  878MOL0     H18500   8.150   4.820   3.626 -0.9398  0.2987 -1.4256
  878MOL0     H18501   8.214   4.922   3.765 -1.9532  3.0777  0.0112
  878MOL0     H18502   8.329   4.890   3.475  3.7914  1.3974  0.0703
  878MOL0     H18503   8.392   5.002   3.591 -0.5198  0.3602 -0.1180
  878MOL0     H18504   8.418   4.705   3.630  1.1759  0.6171 -1.8476
  878MOL0     H18505   8.423   4.808   3.762  2.5390  0.4464  0.2338
  878MOL0     H18506   8.601   4.941   3.633 -1.3961  0.2750  0.3858
  878MOL0     H18507   8.652   4.799   3.719  1.6262  3.9629  0.6052
  878MOL0     H18508   8.736   4.806   3.487 -0.3079  2.9058  1.6783
  878MOL0     H18509   8.572   4.805   3.426 -1.1460 -2.2647 -0.0210
  878MOL0     H18510   8.700   4.587   3.430 -0.1306 -1.5013 -0.3720
  878MOL0     H18511   8.525   4.589   3.482 -0.1357  0.1533  1.6522
  878MOL0     H18512   7.751   5.039   3.805  1.8893  0.6363 -1.0981
  878MOL0     H18513   7.522   5.099   3.802  0.7308  0.6266  0.4766
  878MOL0     H18514   7.064   5.112   3.794  3.4073 -2.3487 -0.3374
  878MOL0     H18515   6.826   5.108   3.736  3.4461  3.1528  1.9487
  878MOL0     H18516   5.351   4.752   4.686  0.7806 -0.5774  0.7835
  878MOL0     H18517   5.195   4.680   4.865  1.2584 -0.3741 -0.5395
  878MOL0     H18518   4.695   4.408   4.913 -2.6885 -2.2249  1.7309
  878MOL0     H18519   4.586   4.338   5.133  0.2623 -0.9101  0.4425
  878MOL0     H18520   4.422   4.614   5.244  1.4972 -0.5631 -1.4719
  878MOL0     H18521   4.363   4.523   5.380  1.2557 -1.9869 -0.3212
  878MOL0     H18522   4.399   4.759   5.448 -0.9607 -0.7789 -0.4416
  878MOL0     H18523   4.560   4.764   5.367 -1.8803 -0.4952 -3.0862
  878MOL0     H18524   4.580   4.574   5.570 -0.3724 -1.3266 -1.2051
  878MOL0     H18525   4.443   4.644   5.639  1.8082 -1.0691  1.0823
  878MOL0     H18526   4.575   4.780   5.752 -1.6627 -3.4768 -0.9058
  878MOL0     H18527   4.526   4.888   5.627 -0.0506  0.7833  3.8025
  878MOL0     H18528   4.945   4.826   5.575 -1.1688 -3.1558 -2.4000
  878MOL0     H18529   4.744   4.698   5.312  0.6945 -1.7776  0.8593
  878MOL0     H18530   4.866   4.750   5.110  1.7367 -1.2881  1.9565
  879MOL0     O18531   9.062   6.006   5.864 -0.3186  0.7088 -0.3118
  879MOL0     C18532   9.040   6.123   5.829 -0.0440 -1.0015  0.8944
  879MOL0     O18533   8.920   6.200   5.844  0.1078  0.0487  0.1915
  879MOL0     C18534   8.794   6.160   5.892 -0.2958 -0.6429 -0.2823
  879MOL0     C18535   8.762   6.022   5.909 -0.2361  1.5584  0.3295
  879MOL0     C18536   8.635   5.986   5.943  0.3509  0.2724 -1.0602
  879MOL0     C18537   8.537   6.085   5.982  0.6470  0.2669  0.4034
  879MOL0     O18538   8.411   6.037   6.021  0.2186  0.3321 -0.9119
  879MOL0     C18539   8.343   5.947   5.931 -0.4478 -0.8496 -0.1249
  879MOL0     C18540   8.186   5.984   5.934  0.0845  0.2699  0.0385
  879MOL0     C18541   8.113   5.968   6.060  0.1769  1.1914  0.0173
  879MOL0     C18542   7.960   5.998   6.044  0.3204  0.2502 -0.2825
  879MOL0     C18543   7.869   5.922   6.136 -0.1416 -0.3500 -0.3178
  879MOL0     C18544   7.728   5.968   6.110  0.3378  0.5383 -0.5017
  879MOL0     C18545   7.717   6.118   6.136  0.2751  0.0947  0.4390
  879MOL0     C18546   7.570   6.157   6.145  1.3854  0.0562 -0.3772
  879MOL0     N18547   7.523   6.117   6.280  0.1230  0.6848 -0.1341
  879MOL0     C18548   7.426   6.032   6.308  0.3714 -1.1461 -0.4338
  879MOL0     C18549   7.398   6.056   6.436  0.0302  0.2992  0.8095
  879MOL0     C18550   7.303   5.978   6.525  0.5469 -0.6164 -0.1727
  879MOL0     C18551   7.380   5.861   6.595 -0.1212 -0.2034 -0.1774
  879MOL0     C18552   7.379   5.741   6.496  0.9895 -0.0991 -0.2976
  879MOL0     C18553   7.239   5.705   6.441 -0.3473 -0.0290  0.2103
  879MOL0     O18554   7.253   5.582   6.390  0.2443  0.0473  0.2478
  879MOL0     C18555   7.145   5.497   6.420 -0.4571 -0.3966 -1.3953
  879MOL0     C18556   7.023   5.507   6.352 -0.1634  0.1487  0.0162
  879MOL0     C18557   6.906   5.429   6.385 -0.1755 -0.6517 -0.6631
  879MOL0     C18558   6.782   5.451   6.297 -0.7433  0.4297 -0.3121
  879MOL0     C18559   6.912   5.339   6.495 -0.1813 -0.4573 -1.1320
  879MOL0     C18560   6.799   5.258   6.555 -0.1060 -0.3378 -0.2132
  879MOL0     O18561   6.819   5.183   6.672 -1.0783  0.2048  0.7522
  879MOL0     C18562   6.722   5.108   6.720  0.4164  0.0834  0.7208
  879MOL0     C18563   6.685   4.985   6.665  0.6601  0.4251 -0.5476
  879MOL0     C18564   6.602   4.899   6.736 -0.2307  0.0028  0.4936
  879MOL0     C18565   6.542   4.937   6.860  0.7285  0.2624  0.1760
  879MOL0     O18566   6.461   4.852   6.928 -0.1428 -0.7509  0.6477
  879MOL0     C18567   6.426   4.723   6.863 -0.8527 -0.0721 -0.4921
  879MOL0     C18568   6.324   4.636   6.932 -0.5337 -0.6403  0.5571
  879MOL0     C18569   6.200   4.722   6.947 -0.2293  0.8615 -0.2252
  879MOL0     C18570   6.107   4.640   7.039 -0.2956 -0.2771 -0.0382
  879MOL0     C18571   5.990   4.730   7.089  0.1425  2.0241  0.2165
  879MOL0     C18572   5.893   4.655   7.191 -0.4531  0.9933 -0.9666
  879MOL0     C18573   5.769   4.728   7.209 -0.1477  1.0858 -0.5547
  879MOL0     C18574   5.775   4.850   7.302  0.4587 -0.2551 -0.2494
  879MOL0    Cl18575   5.880   4.828   7.448 -0.2159  0.3307 -0.4191
  879MOL0     C18576   6.566   5.054   6.909  0.3626 -0.3353  0.3788
  879MOL0     C18577   6.666   5.141   6.845 -0.0813  0.2765  0.9775
  879MOL0     O18578   6.688   5.268   6.505 -0.2984 -1.2350 -0.6703
  879MOL0     C18579   7.036   5.340   6.571  0.9790  0.2157 -0.8360
  879MOL0     C18580   7.148   5.419   6.538  0.4608 -0.2270  0.7983
  879MOL0     N18581   7.460   6.168   6.480 -0.7013 -0.3719  0.4884
  879MOL0     N18582   7.534   6.212   6.381  0.4744  0.4543  0.6927
  879MOL0     C18583   8.563   6.220   5.965  0.7896  0.1917  0.5529
  879MOL0     C18584   8.692   6.259   5.920 -0.2490  0.3252 -0.2581
  879MOL0     C18585   9.151   6.212   5.787 -0.6774 -1.1627 -0.4550
  879MOL0     C18586   9.125   6.341   5.738 -1.0452  0.3299 -0.5885
  879MOL0     C18587   9.230   6.434   5.717  0.2209  0.1956 -0.5443
  879MOL0     C18588   9.359   6.388   5.743 -0.9508 -0.4481  0.2913
  879MOL0     O18589   9.455   6.487   5.739  0.5715 -0.2990  0.2743
  879MOL0     C18590   9.587   6.457   5.785  0.9979  0.0428 -0.1311
  879MOL0     C18591   9.649   6.579   5.845 -0.1654 -1.1333 -0.4494
  879MOL0     C18592   9.568   6.646   5.960  0.0722  0.3846 -0.2120
  879MOL0     C18593   9.498   6.771   5.931 -0.4368  0.7359 -0.6021
  879MOL0     C18594   9.587   6.881   5.898 -0.2285 -0.5849 -0.2466
  879MOL0     C18595   9.664   6.978   5.878  1.1976 -0.4364  0.4923
  879MOL0     C18596   9.382   6.255   5.774  0.0031 -0.5809 -1.2228
  879MOL0     C18597   9.284   6.164   5.796  0.5658  0.3869 -0.0927
  879MOL0     H18598   8.837   5.946   5.891 -1.6557  0.3282 -0.5814
  879MOL0     H18599   8.618   5.879   5.942  1.9270 -0.0489 -4.0389
  879MOL0     H18600   8.374   5.950   5.826 -0.9411 -1.6483 -0.3023
  879MOL0     H18601   8.365   5.846   5.968  0.8047 -1.2181 -1.7297
  879MOL0     H18602   8.180   6.089   5.902  0.3704  0.5976  1.0240
  879MOL0     H18603   8.139   5.918   5.860  0.3597  1.6905 -1.4652
  879MOL0     H18604   8.132   5.863   6.086 -0.6989  0.6553 -1.3619
  879MOL0     H18605   8.166   6.032   6.131 -0.8135  0.7779  1.1609
  879MOL0     H18606   7.962   6.107   6.053  0.5668  0.5995 -3.4992
  879MOL0     H18607   7.921   5.975   5.945 -0.8390  0.5766  0.0883
  879MOL0     H18608   7.875   5.815   6.116 -0.9689 -0.9711  2.2919
  879MOL0     H18609   7.902   5.941   6.239  4.7243 -0.7231 -1.5405
  879MOL0     H18610   7.689   5.956   6.008  0.6902  2.8270 -0.9625
  879MOL0     H18611   7.664   5.908   6.175  2.3266 -2.4270 -1.1081
  879MOL0     H18612   7.771   6.140   6.228  1.4506 -1.3246  0.1365
  879MOL0     H18613   7.759   6.170   6.050 -2.3756  0.3901 -0.7569
  879MOL0     H18614   7.508   6.108   6.070 -0.3258  1.5184  0.0046
  879MOL0     H18615   7.559   6.263   6.119  0.7047 -0.1090 -0.7737
  879MOL0     H18616   7.382   5.953   6.247 -1.1834  0.9712 -2.1971
  879MOL0     H18617   7.276   6.052   6.600  0.6407 -1.4659  0.7322
  879MOL0     H18618   7.215   5.945   6.469  1.1841  1.1760 -2.3665
  879MOL0     H18619   7.339   5.846   6.695 -0.4654  1.0575 -0.1157
  879MOL0     H18620   7.484   5.885   6.619 -1.0201  2.4999  1.4355
  879MOL0     H18621   7.421   5.655   6.550  0.2311 -0.6985 -0.6376
  879MOL0     H18622   7.447   5.746   6.411  1.3989  0.2338  0.0464
  879MOL0     H18623   7.206   5.768   6.358 -1.8389 -2.5491 -1.2387
  879MOL0     H18624   7.174   5.701   6.528  0.3047  1.5962  0.8022
  879MOL0     H18625   7.017   5.560   6.258  2.8046 -1.7985 -1.4015
  879MOL0     H18626   6.701   5.481   6.363 -1.5351 -1.8728 -0.1368
  879MOL0     H18627   6.814   5.528   6.226  1.4721 -0.4905 -0.4138
  879MOL0     H18628   6.757   5.353   6.254  1.7079 -0.0698 -0.7760
  879MOL0     H18629   6.728   4.970   6.566 -3.1002 -1.1564 -2.1329
  879MOL0     H18630   6.603   4.798   6.696  2.6595 -0.1164  0.6520
  879MOL0     H18631   6.412   4.734   6.755 -0.8473  3.7984 -0.2419
  879MOL0     H18632   6.517   4.662   6.857  0.9852  2.6561 -3.0352
  879MOL0     H18633   6.302   4.542   6.881  2.6804 -1.2198  0.0251
  879MOL0     H18634   6.364   4.613   7.030 -0.5822  1.7664  1.2170
  879MOL0     H18635   6.155   4.750   6.852 -1.1250  6.7659  1.5719
  879MOL0     H18636   6.223   4.818   6.994 -3.0459  0.6655  1.8689
  879MOL0     H18637   6.072   4.552   6.986 -0.2188 -0.2723 -0.0970
  879MOL0     H18638   6.166   4.608   7.126  0.1428  0.0031 -0.2272
  879MOL0     H18639   5.921   4.747   7.006 -0.4686 -0.6767  0.0676
  879MOL0     H18640   6.021   4.831   7.117 -1.7220  2.2424  1.7238
  879MOL0     H18641   5.879   4.551   7.163  3.2732 -0.1053  0.6132
  879MOL0     H18642   5.948   4.637   7.284  1.2014 -2.3511 -2.4533
  879MOL0     H18643   5.695   4.668   7.263  1.1118  1.8731  2.2766
  879MOL0     H18644   5.729   4.754   7.110  1.6684  1.3012 -1.2600
  879MOL0     H18645   5.678   4.899   7.316  1.8308  3.6116 -2.7086
  879MOL0     H18646   5.823   4.924   7.237  1.6466 -0.5436  0.2708
  879MOL0     H18647   6.521   5.078   7.004  0.0217 -1.0414  0.4011
  879MOL0     H18648   6.698   5.233   6.892 -0.4412  0.5862  0.6213
  879MOL0     H18649   7.045   5.269   6.653  0.6522 -2.7034 -3.1490
  879MOL0     H18650   7.242   5.417   6.593  0.3468  2.0381  1.1565
  879MOL0     H18651   8.493   6.299   5.994  0.1824 -0.5913  1.2766
  879MOL0     H18652   8.711   6.365   5.907  2.2357  0.3999  2.8963
  879MOL0     H18653   9.025   6.374   5.713 -0.4104  4.7141  1.6536
  879MOL0     H18654   9.223   6.540   5.696 -0.3764 -0.0944 -1.8933
  879MOL0     H18655   9.590   6.388   5.870  1.2262  0.5063  0.2421
  879MOL0     H18656   9.645   6.420   5.699  2.9308  0.8762  0.7449
  879MOL0     H18657   9.667   6.656   5.769  0.8319 -1.0033 -0.1055
  879MOL0     H18658   9.750   6.559   5.883 -0.4160 -0.9753  0.3180
  879MOL0     H18659   9.647   6.669   6.033  0.3994 -1.0754 -0.0529
  879MOL0     H18660   9.493   6.571   5.986  1.3118 -1.7591 -2.3790
  879MOL0     H18661   9.422   6.795   6.006  0.0294  4.9769 -1.2308
  879MOL0     H18662   9.435   6.752   5.844 -1.7351 -3.0061  0.9311
  879MOL0     H18663   9.725   7.066   5.883 -0.1025  0.4641  1.5328
  879MOL0     H18664   9.486   6.224   5.775  0.7120  1.4317 -3.7932
  879MOL0     H18665   9.298   6.061   5.826  0.7058  1.2245  3.1134
  880MOL0     O18666   4.676   3.315   9.069  0.2598 -0.0604 -0.4034
  880MOL0     C18667   4.556   3.348   9.043 -0.2987 -0.5844  0.0005
  880MOL0     O18668   4.463   3.396   9.127  0.1832 -0.7891 -1.1220
  880MOL0     C18669   4.505   3.415   9.260 -0.2108 -0.1934 -0.3257
  880MOL0     C18670   4.577   3.522   9.300 -0.2788 -0.0973  0.4194
  880MOL0     C18671   4.598   3.534   9.442  0.8408  0.4774 -0.1271
  880MOL0     C18672   4.527   3.455   9.539 -1.1827  0.0390 -1.2069
  880MOL0     O18673   4.530   3.467   9.677 -0.5097  0.3241 -0.0403
  880MOL0     C18674   4.653   3.543   9.727  0.2534  0.2767  0.5136
  880MOL0     C18675   4.656   3.554   9.887  0.2265 -0.3377 -0.2430
  880MOL0     C18676   4.776   3.646   9.922  1.1963 -0.1009  0.6486
  880MOL0     C18677   4.730   3.771  10.015 -0.7627  0.2383  0.4329
  880MOL0     C18678   4.857   3.848  10.073 -0.1694  0.6619  0.2673
  880MOL0     C18679   4.945   3.907   9.961 -0.1294  0.0470 -0.1869
  880MOL0     C18680   5.072   3.981  10.017  0.8873 -0.6242 -1.3181
  880MOL0     C18681   5.200   3.901  10.007 -0.7396 -0.2461  0.0510
  880MOL0     N18682   5.303   3.961  10.085 -0.1456 -0.2965  0.2726
  880MOL0     C18683   5.385   3.889  10.161 -0.1218 -0.4927  0.0573
  880MOL0     C18684   5.494   3.974  10.189 -0.6635 -0.4303  0.4110
  880MOL0     C18685   5.610   3.953  10.275 -0.9503  0.0861  0.0708
  880MOL0     C18686   5.727   3.898  10.187 -0.7690 -0.1395  0.5442
  880MOL0     C18687   5.832   3.830  10.283  0.9043  0.1573 -0.1560
  880MOL0     C18688   5.960   3.813  10.210 -0.0133 -0.6141  0.2749
  880MOL0     O18689   5.972   3.669  10.175  0.3347 -0.3377  0.6455
  880MOL0     C18690   6.089   3.603  10.156  0.3653  0.3840 -0.2647
  880MOL0     C18691   6.095   3.466  10.162  0.3926  0.7935  1.5603
  880MOL0     C18692   6.209   3.397  10.156 -0.7987 -0.0560 -0.1018
  880MOL0     C18693   6.195   3.250  10.181  0.8334 -0.5492 -0.7042
  880MOL0     C18694   6.328   3.467  10.119  0.4259  0.8161 -0.0488
  880MOL0     C18695   6.456   3.405  10.095  0.7896  0.2186  0.5529
  880MOL0     O18696   6.557   3.492  10.045  0.1540 -0.5101 -0.2891
  880MOL0     C18697   6.669   3.444   9.997 -0.6905  1.0174  0.1764
  880MOL0     C18698   6.746   3.509   9.898 -0.1375  0.3555  0.9440
  880MOL0     C18699   6.876   3.474   9.857 -0.4180 -1.1253  0.0828
  880MOL0     C18700   6.941   3.360   9.913  0.3853  0.1758  0.2751
  880MOL0     O18701   7.070   3.318   9.888  0.4966  0.2755 -0.1723
  880MOL0     C18702   7.161   3.408   9.935 -0.3861  0.5446 -1.2095
  880MOL0     C18703   7.231   3.360  10.062  0.3520  0.1391 -0.0211
  880MOL0     C18704   7.275   3.210  10.079  0.5100  0.0731 -0.1859
  880MOL0     C18705   7.396   3.159   9.994  0.4655 -0.7629  0.2038
  880MOL0     C18706   7.453   3.022  10.027 -0.4514  0.9795 -0.2139
  880MOL0     C18707   7.531   2.955   9.916 -0.4125 -0.4481 -0.0495
  880MOL0     C18708   7.590   2.811   9.935 -0.5530 -1.0026 -0.6439
  880MOL0     C18709   7.675   2.767   9.819  0.0748  0.5745  0.1034
  880MOL0    Cl18710   7.831   2.852   9.799 -0.0925  0.3515  0.0107
  880MOL0     C18711   6.864   3.297  10.017 -0.8075  0.4151  0.6653
  880MOL0     C18712   6.737   3.334  10.062 -0.4133 -0.4161  0.5017
  880MOL0     O18713   6.467   3.285  10.109  0.0999  0.3381 -0.7701
  880MOL0     C18714   6.326   3.607  10.117 -0.5471 -0.6218 -0.7832
  880MOL0     C18715   6.207   3.673  10.134 -0.0571  0.8115  0.4112
  880MOL0     N18716   5.467   4.092  10.114 -0.2224  0.3705 -0.8009
  880MOL0     N18717   5.361   4.080  10.046 -0.4841 -0.0861  0.6017
  880MOL0     C18718   4.462   3.343   9.488  0.9243 -0.5004 -0.6537
  880MOL0     C18719   4.452   3.318   9.353 -0.8412  0.8140  1.0316
  880MOL0     C18720   4.526   3.367   8.903  0.1244 -0.1007  0.4341
  880MOL0     C18721   4.396   3.333   8.868  0.3496 -0.3258  1.2345
  880MOL0     C18722   4.352   3.327   8.731  0.7365  0.0807  0.0678
  880MOL0     C18723   4.447   3.344   8.628  0.7922 -0.4625  0.4086
  880MOL0     O18724   4.407   3.322   8.500  0.0573 -0.6290 -0.1885
  880MOL0     C18725   4.440   3.412   8.394 -0.8983 -0.1236 -0.4206
  880MOL0     C18726   4.323   3.496   8.360  0.3726 -0.7754 -0.5974
  880MOL0     C18727   4.244   3.419   8.259 -0.3204  0.3546  0.0340
  880MOL0     C18728   4.103   3.471   8.234  0.2866 -0.4498  0.1546
  880MOL0     C18729   4.014   3.393   8.148 -0.2671  0.0383  0.8334
  880MOL0     C18730   3.944   3.338   8.066 -0.6288  0.4769 -0.9655
  880MOL0     C18731   4.578   3.388   8.668  0.2638  1.1848  1.0144
  880MOL0     C18732   4.620   3.404   8.796  0.0602 -0.8418 -0.8099
  880MOL0     H18733   4.595   3.607   9.235  2.2720 -0.4646  0.5112
  880MOL0     H18734   4.650   3.626   9.467 -0.4365  0.7786  1.6158
  880MOL0     H18735   4.738   3.483   9.693  0.0217  1.1477 -1.7872
  880MOL0     H18736   4.655   3.647   9.695  0.7984 -0.3933 -1.8536
  880MOL0     H18737   4.557   3.586   9.920  1.3513  0.8044  2.3708
  880MOL0     H18738   4.682   3.455   9.926  1.3310 -0.1362 -0.4156
  880MOL0     H18739   4.845   3.589   9.984  2.0713 -1.0078 -1.0747
  880MOL0     H18740   4.826   3.671   9.828 -2.2763 -0.8990 -1.5903
  880MOL0     H18741   4.682   3.841   9.945 -0.6849 -0.3604 -0.2334
  880MOL0     H18742   4.660   3.728  10.088  0.0480  0.8967  1.6107
  880MOL0     H18743   4.818   3.939  10.121 -0.8827  1.9227 -2.4836
  880MOL0     H18744   4.904   3.776  10.140  2.0469  1.7752 -0.0235
  880MOL0     H18745   4.985   3.819   9.909  0.3482 -1.0383  1.9184
  880MOL0     H18746   4.882   3.977   9.904 -1.6786 -0.7300  0.4916
  880MOL0     H18747   5.081   4.082   9.976 -1.5103  2.3918  4.3860
  880MOL0     H18748   5.055   3.998  10.124  1.6342  2.6481 -1.6047
  880MOL0     H18749   5.228   3.888   9.902 -0.9616  2.2277 -0.3714
  880MOL0     H18750   5.184   3.804  10.055  0.5494 -1.1094 -1.1857
  880MOL0     H18751   5.373   3.787  10.196  1.0340 -0.0761  1.7967
  880MOL0     H18752   5.636   4.055  10.306 -2.2310 -0.3727  2.9820
  880MOL0     H18753   5.604   3.880  10.357 -0.2750 -1.6529 -1.3551
  880MOL0     H18754   5.761   3.989  10.136 -0.7190 -1.0477 -1.1354
  880MOL0     H18755   5.688   3.829  10.111 -2.2680  1.4673 -0.2196
  880MOL0     H18756   5.792   3.740  10.331  1.7804 -1.0379 -1.5840
  880MOL0     H18757   5.858   3.889  10.371 -1.8894  0.2538  0.6933
  880MOL0     H18758   6.046   3.841  10.270  1.2663 -1.6138 -1.0216
  880MOL0     H18759   5.961   3.863  10.112 -2.6115  0.7449  0.8409
  880MOL0     H18760   6.000   3.429  10.198 -1.3448  3.6941  0.3869
  880MOL0     H18761   6.092   3.239  10.218  1.6201  2.0498  2.7878
  880MOL0     H18762   6.196   3.193  10.087  1.9764 -1.3765 -0.2176
  880MOL0     H18763   6.255   3.206  10.260 -1.2872  0.1996  1.4581
  880MOL0     H18764   6.700   3.598   9.857  0.3793  1.2347  2.2083
  880MOL0     H18765   6.919   3.541   9.784 -3.3287  1.9035  0.9216
  880MOL0     H18766   7.229   3.417   9.850 -1.0477  1.6593 -1.6466
  880MOL0     H18767   7.128   3.510   9.957 -3.8667 -0.5298 -0.8825
  880MOL0     H18768   7.312   3.432  10.077 -1.6816  2.1039  2.5205
  880MOL0     H18769   7.152   3.381  10.135  0.8661  2.8305 -0.1485
  880MOL0     H18770   7.195   3.145  10.041  0.9856  1.1090 -3.1968
  880MOL0     H18771   7.283   3.187  10.185 -1.1119 -0.2954 -0.1127
  880MOL0     H18772   7.376   3.176   9.888  3.5943 -0.8179 -0.5034
  880MOL0     H18773   7.475   3.234  10.007 -0.1689 -0.4167  2.4922
  880MOL0     H18774   7.374   2.952  10.056  0.9538 -1.2121 -1.3706
  880MOL0     H18775   7.510   3.022  10.120  0.0309 -2.1974 -0.3801
  880MOL0     H18776   7.475   2.958   9.822  0.7996 -0.7758 -0.8164
  880MOL0     H18777   7.622   3.014   9.906 -0.9861  0.4826  0.1757
  880MOL0     H18778   7.510   2.738   9.951 -0.3121 -1.6786 -2.2779
  880MOL0     H18779   7.659   2.823  10.019 -1.8143 -1.2106  0.4584
  880MOL0     H18780   7.622   2.779   9.724  1.2305 -1.8105 -0.9101
  880MOL0     H18781   7.696   2.663   9.843  1.3580  0.9032  0.4750
  880MOL0     H18782   6.923   3.216  10.058  0.7001  0.8087 -0.6059
  880MOL0     H18783   6.688   3.280  10.142 -0.8540  1.3975  1.5087
  880MOL0     H18784   6.409   3.677  10.107 -0.3437 -0.8792 -0.9003
  880MOL0     H18785   6.194   3.778  10.158 -2.7305  0.4823  0.7463
  880MOL0     H18786   4.414   3.274   9.557 -0.9355  0.1377 -1.2563
  880MOL0     H18787   4.409   3.229   9.307  0.2784  0.5015  0.5473
  880MOL0     H18788   4.332   3.291   8.945 -2.2578  1.0221 -0.0521
  880MOL0     H18789   4.247   3.306   8.718 -0.1213  4.2807 -1.2509
  880MOL0     H18790   4.522   3.479   8.425 -0.2341 -0.3204 -1.6957
  880MOL0     H18791   4.469   3.352   8.308  0.5589 -0.5288  0.3199
  880MOL0     H18792   4.349   3.593   8.317  0.8216 -0.5581  0.1390
  880MOL0     H18793   4.267   3.519   8.452 -0.6221 -1.9695 -0.8785
  880MOL0     H18794   4.225   3.317   8.293  2.0911  0.8983  3.4796
  880MOL0     H18795   4.309   3.416   8.171 -0.8371  0.2753 -0.3512
  880MOL0     H18796   4.104   3.573   8.194 -4.1914 -0.5413 -0.7191
  880MOL0     H18797   4.054   3.474   8.332  1.3695  0.2373  0.6908
  880MOL0     H18798   3.882   3.282   7.998 -2.2866 -0.0751  0.8845
  880MOL0     H18799   4.654   3.404   8.592 -0.5346 -0.5510 -0.1823
  880MOL0     H18800   4.721   3.440   8.812 -0.1799 -1.0516  1.4748
  881MOL0     O18801   6.203   6.561   0.610  0.2623 -0.1429 -0.6886
  881MOL0     C18802   6.205   6.552   0.736  0.4504  0.8779  0.4262
  881MOL0     O18803   6.301   6.601   0.810 -0.1454  0.1044  0.0520
  881MOL0     C18804   6.409   6.677   0.783 -0.7761 -0.4392  1.4612
  881MOL0     C18805   6.472   6.740   0.886 -0.4915  0.3003 -0.3959
  881MOL0     C18806   6.593   6.809   0.879 -0.1568  0.0653 -0.0755
  881MOL0     C18807   6.629   6.850   0.747 -0.7057  0.3250  0.4708
  881MOL0     O18808   6.729   6.935   0.715  0.2844 -0.9379  0.4003
  881MOL0     C18809   6.799   7.000   0.818  0.7565 -1.2355 -0.9123
  881MOL0     C18810   6.907   7.096   0.771  0.2258  0.4056 -0.1763
  881MOL0     C18811   6.971   7.181   0.887 -1.0818  0.5737 -1.1091
  881MOL0     C18812   7.059   7.290   0.826  0.7058  0.2830 -0.0342
  881MOL0     C18813   7.134   7.373   0.929 -0.8778 -0.0754 -0.7252
  881MOL0     C18814   7.052   7.432   1.035  0.7471 -0.6126  0.1605
  881MOL0     C18815   7.107   7.563   1.091 -0.9904 -0.9944  0.0922
  881MOL0     C18816   7.003   7.633   1.174  0.0387  0.7657 -0.4491
  881MOL0     N18817   7.030   7.772   1.203 -0.8138  0.0566 -1.1810
  881MOL0     C18818   7.118   7.818   1.300  0.6398 -0.2323 -0.2305
  881MOL0     C18819   7.121   7.955   1.288 -0.0803  0.7230  0.1535
  881MOL0     C18820   7.194   8.060   1.357 -0.0596 -0.6166  0.5476
  881MOL0     C18821   7.101   8.146   1.448  0.2280 -0.6838 -0.4904
  881MOL0     C18822   7.186   8.221   1.560 -0.2481 -0.6666  0.1426
  881MOL0     C18823   7.291   8.319   1.509 -0.0137  0.7291  0.3714
  881MOL0     O18824   7.408   8.248   1.458  0.2416 -0.2118 -0.9488
  881MOL0     C18825   7.494   8.332   1.391 -0.1183 -0.0127  0.6039
  881MOL0     C18826   7.528   8.461   1.423 -0.0885 -0.2321 -0.3503
  881MOL0     C18827   7.612   8.544   1.337  0.4858  0.0754  0.6903
  881MOL0     C18828   7.608   8.685   1.377  0.0763  1.0382  0.4882
  881MOL0     C18829   7.664   8.481   1.218 -0.1247 -0.2365  0.4733
  881MOL0     C18830   7.749   8.551   1.117 -0.0080 -0.6423 -0.0903
  881MOL0     O18831   7.738   8.511   0.982 -0.3068 -0.3135 -0.3036
  881MOL0     C18832   7.843   8.521   0.890  0.0695  0.2338 -0.4023
  881MOL0     C18833   7.815   8.490   0.761  0.1922 -0.5061 -0.1999
  881MOL0     C18834   7.920   8.460   0.665 -1.6445 -0.6062  0.4103
  881MOL0     C18835   8.050   8.463   0.709  1.0978  0.6382 -0.1104
  881MOL0     O18836   8.152   8.444   0.630 -0.6073 -0.0004  0.6677
  881MOL0     C18837   8.135   8.478   0.488  0.0618 -1.0869  0.2873
  881MOL0     C18838   8.273   8.507   0.426 -0.0875 -0.6084  0.0001
  881MOL0     C18839   8.290   8.632   0.344  0.5173 -1.2802 -0.3300
  881MOL0     C18840   8.268   8.765   0.424  0.0572  0.3678 -0.6490
  881MOL0     C18841   8.267   8.890   0.331  0.2445 -0.0093  0.2899
  881MOL0     C18842   8.267   9.026   0.409 -0.4393 -0.8836 -0.9667
  881MOL0     C18843   8.143   9.047   0.498 -0.2841  0.9187  0.1748
  881MOL0     C18844   8.151   9.168   0.596 -0.2548 -0.0541  0.0229
  881MOL0    Cl18845   8.140   9.323   0.515  0.0383  0.3448 -0.4783
  881MOL0     C18846   8.079   8.495   0.838 -0.3922  0.6771  0.1267
  881MOL0     C18847   7.979   8.526   0.927 -0.8358 -0.3764 -0.0727
  881MOL0     O18848   7.805   8.656   1.147  0.3391  0.8348  0.3782
  881MOL0     C18849   7.636   8.350   1.194 -0.3395 -0.1976  0.1641
  881MOL0     C18850   7.559   8.270   1.281 -0.0181  0.1353 -0.5646
  881MOL0     N18851   7.041   7.985   1.182  0.1215  0.4897  0.3407
  881MOL0     N18852   6.993   7.875   1.125 -0.6418 -0.1065 -0.7376
  881MOL0     C18853   6.558   6.803   0.639  0.3393 -0.1429  0.4744
  881MOL0     C18854   6.453   6.713   0.654 -0.5930 -0.6910  0.2018
  881MOL0     C18855   6.109   6.453   0.798 -0.0573  0.4579 -1.2831
  881MOL0     C18856   5.989   6.410   0.737 -0.0685 -0.0429 -0.2312
  881MOL0     C18857   5.903   6.323   0.812 -0.3799  0.4980 -0.2286
  881MOL0     C18858   5.935   6.277   0.945 -0.5140  0.4240  0.3271
  881MOL0     O18859   5.858   6.190   1.018  0.4334 -0.7660 -0.2248
  881MOL0     C18860   5.797   6.071   0.951  0.0204  1.1226 -0.6750
  881MOL0     C18861   5.904   5.966   0.913  0.5377  0.1976  0.0598
  881MOL0     C18862   5.970   5.885   1.023  0.0602 -0.4050  0.1482
  881MOL0     C18863   5.872   5.849   1.140 -0.0993 -0.2127 -0.4201
  881MOL0     C18864   5.763   5.757   1.107 -0.3175 -0.4595  0.0976
  881MOL0     C18865   5.669   5.680   1.079  0.6993  0.7740 -0.4215
  881MOL0     C18866   6.055   6.332   1.005  0.3998  0.2095  0.4371
  881MOL0     C18867   6.140   6.411   0.931  0.3954  0.5239  0.4540
  881MOL0     H18868   6.448   6.711   0.988  2.4307  1.2792  0.6774
  881MOL0     H18869   6.642   6.848   0.968  1.3011  0.3255 -0.9587
  881MOL0     H18870   6.717   7.052   0.869  0.9301  0.4425 -2.2756
  881MOL0     H18871   6.838   6.932   0.895  1.2239 -0.1378 -0.1527
  881MOL0     H18872   6.986   7.041   0.717 -0.0023  0.0440 -0.1412
  881MOL0     H18873   6.863   7.172   0.705 -1.4538  2.4134  2.9922
  881MOL0     H18874   6.894   7.229   0.948  2.1409  1.8442  2.4274
  881MOL0     H18875   7.024   7.115   0.957 -2.4618  2.0435  1.4938
  881MOL0     H18876   7.129   7.233   0.765 -0.3183 -0.2087 -0.7871
  881MOL0     H18877   7.005   7.338   0.745  4.3018  0.0489 -2.7935
  881MOL0     H18878   7.198   7.305   0.987 -2.7102 -0.8906  0.4064
  881MOL0     H18879   7.192   7.448   0.874  1.8882 -0.1517  1.8099
  881MOL0     H18880   6.952   7.457   1.000  0.8663 -1.3190 -0.7258
  881MOL0     H18881   7.048   7.361   1.118  0.7130  0.6787  1.3041
  881MOL0     H18882   7.192   7.550   1.159  0.8580 -0.4450 -1.9906
  881MOL0     H18883   7.143   7.626   1.009 -1.7464  1.9513  1.8678
  881MOL0     H18884   6.973   7.593   1.271 -0.2159  0.7654 -0.5273
  881MOL0     H18885   6.910   7.626   1.118 -1.3354 -2.1248  1.9235
  881MOL0     H18886   7.176   7.770   1.378 -0.5551 -0.0153  0.8245
  881MOL0     H18887   7.268   8.007   1.418  1.6280 -0.2913 -1.0979
  881MOL0     H18888   7.251   8.122   1.286 -0.0944  1.9319  2.6030
  881MOL0     H18889   7.039   8.078   1.508 -1.9220 -0.0533 -1.9096
  881MOL0     H18890   7.036   8.213   1.392 -0.0827 -0.3074  0.3042
  881MOL0     H18891   7.226   8.144   1.627 -1.7501 -0.6818  1.0563
  881MOL0     H18892   7.107   8.275   1.613 -0.7195 -0.7960 -0.4182
  881MOL0     H18893   7.316   8.388   1.590  0.7462 -0.2202  0.9620
  881MOL0     H18894   7.253   8.378   1.424 -0.4924  1.9963  1.4348
  881MOL0     H18895   7.487   8.493   1.519  4.2422  3.1543  0.6918
  881MOL0     H18896   7.600   8.695   1.486  0.8207 -1.3944  0.8194
  881MOL0     H18897   7.698   8.733   1.338 -1.3714  1.0637 -3.1583
  881MOL0     H18898   7.516   8.721   1.331 -1.0677 -1.6877  0.4624
  881MOL0     H18899   7.710   8.504   0.737 -0.2270 -0.1339  1.7090
  881MOL0     H18900   7.892   8.439   0.562  0.1434  0.9193 -0.4614
  881MOL0     H18901   8.094   8.400   0.423  1.4581 -0.1639 -1.8224
  881MOL0     H18902   8.080   8.571   0.472  0.6718 -0.8893 -0.8095
  881MOL0     H18903   8.340   8.530   0.509 -0.0478  2.6872 -0.8183
  881MOL0     H18904   8.299   8.422   0.361  2.0672  0.2945 -0.4052
  881MOL0     H18905   8.211   8.630   0.269 -1.6655  3.4112  1.4509
  881MOL0     H18906   8.391   8.637   0.303 -0.2159  1.9949 -2.0623
  881MOL0     H18907   8.168   8.760   0.470  0.2348 -1.2537 -0.3654
  881MOL0     H18908   8.330   8.764   0.514 -0.7034 -1.2119 -0.0933
  881MOL0     H18909   8.188   8.892   0.256  1.6508 -1.3060 -1.3026
  881MOL0     H18910   8.347   8.891   0.256 -0.2576 -1.1262 -0.2751
  881MOL0     H18911   8.361   9.036   0.465 -1.6709  5.4390  0.8080
  881MOL0     H18912   8.281   9.107   0.338  0.7709 -1.4581 -1.4114
  881MOL0     H18913   8.133   8.955   0.555  1.7934 -0.3065 -1.2834
  881MOL0     H18914   8.061   9.052   0.427  2.2667  2.4861 -2.9395
  881MOL0     H18915   8.252   9.165   0.639  0.0805  2.4589 -0.4187
  881MOL0     H18916   8.080   9.174   0.678  0.3656  1.5401  0.4813
  881MOL0     H18917   8.185   8.500   0.859 -0.2768  0.4400 -0.3858
  881MOL0     H18918   8.009   8.541   1.030  0.1515 -2.6419  0.0258
  881MOL0     H18919   7.689   8.303   1.112  2.4083  3.1582 -0.2386
  881MOL0     H18920   7.534   8.169   1.253  2.8929 -1.8597  3.1355
  881MOL0     H18921   6.573   6.827   0.534 -1.7947 -0.9263 -0.0493
  881MOL0     H18922   6.393   6.683   0.568  0.4532  0.4909 -0.9792
  881MOL0     H18923   5.957   6.454   0.643 -0.6523  0.3954  0.1681
  881MOL0     H18924   5.810   6.290   0.767  0.0142 -1.1187  0.0810
  881MOL0     H18925   5.712   6.038   1.012  0.0685  2.0427 -0.0842
  881MOL0     H18926   5.747   6.092   0.855  1.0407 -1.6305 -1.9302
  881MOL0     H18927   5.980   6.013   0.850  0.3697 -1.0094 -1.0778
  881MOL0     H18928   5.856   5.891   0.850  1.3478 -2.1995  2.0921
  881MOL0     H18929   6.060   5.936   1.061 -0.9071  3.2544 -1.9466
  881MOL0     H18930   5.997   5.786   0.987 -2.0693 -1.2978  0.8791
  881MOL0     H18931   5.840   5.938   1.195  2.0174  0.4603 -0.1878
  881MOL0     H18932   5.941   5.793   1.204 -0.4579 -0.9277 -0.6507
  881MOL0     H18933   5.601   5.607   1.040  0.0544 -0.5487  2.8200
  881MOL0     H18934   6.084   6.296   1.102  0.0384  1.6466  1.1161
  881MOL0     H18935   6.234   6.439   0.979 -0.4570 -1.0653  3.2758
  882MOL0     O18936   0.532   2.355   7.057  0.5660 -0.4308 -0.7151
  882MOL0     C18937   0.572   2.472   7.065  0.7995 -0.7868  0.2334
  882MOL0     O18938   0.639   2.537   6.971  0.2766 -0.6468  0.7625
  882MOL0     C18939   0.668   2.467   6.856  0.3208  0.0161 -0.7164
  882MOL0     C18940   0.585   2.391   6.777  0.7419 -0.0902  0.5559
  882MOL0     C18941   0.628   2.316   6.667  0.5565  0.0204 -0.3771
  882MOL0     C18942   0.759   2.323   6.627  0.6091  0.1266 -0.5811
  882MOL0     O18943   0.798   2.233   6.525 -0.2578 -0.0201 -0.0055
  882MOL0     C18944   0.934   2.264   6.472 -0.1508  0.9749  0.4271
  882MOL0     C18945   0.953   2.164   6.350 -0.2566  0.6959 -0.1511
  882MOL0     C18946   0.943   2.022   6.404  0.5507 -0.1636 -0.1692
  882MOL0     C18947   1.055   1.948   6.321 -0.6649  0.0671  0.2923
  882MOL0     C18948   1.074   1.796   6.361  0.4447 -0.1438 -0.0241
  882MOL0     C18949   1.122   1.706   6.240  1.0532  0.1762 -0.8972
  882MOL0     C18950   1.002   1.677   6.152  1.2058  0.8394  0.1927
  882MOL0     C18951   0.961   1.529   6.154  0.3556 -0.1298  0.2291
  882MOL0     N18952   1.056   1.441   6.078  0.6835 -0.6704 -0.2423
  882MOL0     C18953   1.177   1.391   6.119 -0.3352 -0.1642  0.3935
  882MOL0     C18954   1.223   1.325   6.008  0.3060 -0.0586  0.9058
  882MOL0     C18955   1.345   1.248   5.999  0.1090 -0.0844  0.3126
  882MOL0     C18956   1.434   1.285   5.872  0.4627  0.2669 -0.3346
  882MOL0     C18957   1.553   1.192   5.862  0.1004 -1.1353 -0.3107
  882MOL0     C18958   1.541   1.054   5.809  0.1833 -0.8430  0.3570
  882MOL0     O18959   1.417   1.040   5.738 -0.2901  0.3595  0.4451
  882MOL0     C18960   1.394   0.907   5.698 -0.0338 -0.0147  0.2159
  882MOL0     C18961   1.479   0.851   5.600 -0.5312 -0.2357  0.3739
  882MOL0     C18962   1.466   0.719   5.558 -0.7218 -0.0638  0.1005
  882MOL0     C18963   1.551   0.675   5.443  0.0202  0.7578 -0.3248
  882MOL0     C18964   1.375   0.635   5.624 -0.0886  0.8905  1.0916
  882MOL0     C18965   1.357   0.495   5.595  0.0009 -0.2122 -0.2231
  882MOL0     O18966   1.407   0.447   5.476 -0.0689  0.4291 -0.3582
  882MOL0     C18967   1.354   0.325   5.440  0.5642 -0.5042  0.4256
  882MOL0     C18968   1.213   0.327   5.409  0.4117 -0.1807 -0.2763
  882MOL0     C18969   1.140   0.219   5.352 -0.5582  0.2340  0.3271
  882MOL0     C18970   1.214   0.098   5.332  0.7036  0.7599  0.8186
  882MOL0     O18971   1.153  -0.015   5.294 -0.8396 -0.4886  0.0295
  882MOL0     C18972   1.191  -0.067   5.173 -0.1798  0.6200  0.4158
  882MOL0     C18973   1.079  -0.159   5.104  0.0577  0.9400  0.9446
  882MOL0     C18974   1.057  -0.292   5.179  0.2960  0.5290  0.5313
  882MOL0     C18975   0.936  -0.371   5.129  0.6583 -0.0793  0.4989
  882MOL0     C18976   0.907  -0.505   5.204  0.2422  0.0049 -0.3110
  882MOL0     C18977   0.755  -0.560   5.191 -1.0662  0.3377 -0.0141
  882MOL0     C18978   0.732  -0.595   5.044  0.0597 -0.8350  0.8900
  882MOL0     C18979   0.799  -0.713   4.991  0.2046 -0.5482  0.4389
  882MOL0    Cl18980   0.723  -0.757   4.834  0.0760  0.2464  0.4823
  882MOL0     C18981   1.357   0.098   5.360  0.5167 -0.3700  0.3042
  882MOL0     C18982   1.423   0.213   5.413  0.0348 -0.9467 -0.5404
  882MOL0     O18983   1.278   0.427   5.667  0.0191  0.0469 -0.2819
  882MOL0     C18984   1.287   0.698   5.719  0.8471 -0.9576 -0.2675
  882MOL0     C18985   1.299   0.831   5.761 -0.1809  0.1552 -0.0875
  882MOL0     N18986   1.141   1.337   5.893  0.2236  0.2468 -0.3280
  882MOL0     N18987   1.049   1.421   5.944 -0.3713  1.0587  0.3758
  882MOL0     C18988   0.843   2.405   6.696  0.5631 -0.1353  0.0208
  882MOL0     C18989   0.795   2.485   6.801 -1.7620  0.0064  0.0195
  882MOL0     C18990   0.551   2.547   7.190  0.1474  0.6514 -0.4327
  882MOL0     C18991   0.644   2.638   7.245 -0.7789  0.0233 -0.7467
  882MOL0     C18992   0.611   2.731   7.348 -0.3942  0.5318  0.6068
  882MOL0     C18993   0.487   2.724   7.410 -1.2814  0.1264 -0.5555
  882MOL0     O18994   0.474   2.802   7.523  0.3564  0.4031 -0.4281
  882MOL0     C18995   0.354   2.788   7.588  0.3285 -0.6296 -0.6127
  882MOL0     C18996   0.339   2.880   7.709 -0.4897  0.0572  0.0110
  882MOL0     C18997   0.354   3.032   7.676 -0.4648  0.1440  0.4956
  882MOL0     C18998   0.322   3.104   7.796  1.0054 -1.0382 -0.0283
  882MOL0     C18999   0.341   3.250   7.774 -0.3854 -0.1141 -0.7238
  882MOL0     C19000   0.353   3.367   7.763 -0.6481 -0.3329 -0.1501
  882MOL0     C19001   0.395   2.640   7.360  1.3132 -0.1028 -0.0923
  882MOL0     C19002   0.423   2.548   7.257  0.0388 -0.4072  0.1282
  882MOL0     H19003   0.481   2.375   6.805 -0.1014 -1.4292 -2.8393
  882MOL0     H19004   0.558   2.246   6.623  3.1319 -2.4615 -0.8425
  882MOL0     H19005   0.929   2.365   6.430  1.1543  1.0999  0.5400
  882MOL0     H19006   1.028   2.253   6.527  1.7467  0.4806 -2.7023
  882MOL0     H19007   0.871   2.190   6.282 -0.0490 -1.4000 -1.2875
  882MOL0     H19008   1.041   2.180   6.286  0.3725 -1.6484  0.0190
  882MOL0     H19009   0.968   2.021   6.510 -3.6312 -1.1554  0.9851
  882MOL0     H19010   0.844   1.976   6.397  0.4894 -0.4711  2.1626
  882MOL0     H19011   1.047   1.956   6.212  0.8847 -2.3239 -0.0961
  882MOL0     H19012   1.151   1.995   6.343 -0.9255  0.6108  0.2592
  882MOL0     H19013   1.142   1.793   6.446  2.7802  0.1808 -1.7737
  882MOL0     H19014   0.982   1.756   6.405 -0.2859 -0.6109 -1.8800
  882MOL0     H19015   1.199   1.753   6.177  2.9334  0.2751  1.3286
  882MOL0     H19016   1.163   1.610   6.275 -1.3442  0.0953  2.1226
  882MOL0     H19017   0.912   1.728   6.187 -0.5927 -2.9544  1.6964
  882MOL0     H19018   1.020   1.700   6.047 -0.1715 -3.9947 -1.3805
  882MOL0     H19019   0.868   1.514   6.097  1.6189  0.4741 -2.1351
  882MOL0     H19020   0.944   1.487   6.253  0.6829 -0.5896  0.0943
  882MOL0     H19021   1.224   1.397   6.217  0.4912  0.2880 -0.0183
  882MOL0     H19022   1.396   1.258   6.095 -0.1890  0.7360  0.3975
  882MOL0     H19023   1.308   1.146   5.988 -1.5147  0.5409 -0.3756
  882MOL0     H19024   1.467   1.387   5.893 -0.1645 -0.2392  4.0170
  882MOL0     H19025   1.372   1.287   5.782 -0.7484 -1.5499  0.4090
  882MOL0     H19026   1.571   1.174   5.968  1.3758 -2.9365 -0.7757
  882MOL0     H19027   1.634   1.242   5.808 -0.0646  0.1595  0.6176
  882MOL0     H19028   1.524   0.989   5.895 -2.3561 -0.8200 -0.0685
  882MOL0     H19029   1.623   1.025   5.742 -1.3079  1.3437 -2.6656
  882MOL0     H19030   1.555   0.916   5.557  0.5869 -1.0934  1.0082
  882MOL0     H19031   1.628   0.607   5.479 -0.1535  1.8472  2.2739
  882MOL0     H19032   1.491   0.626   5.365 -0.0742  2.2201 -1.2258
  882MOL0     H19033   1.603   0.758   5.393  1.4364 -2.0306 -3.9863
  882MOL0     H19034   1.165   0.424   5.419 -0.4726 -0.7917  2.1259
  882MOL0     H19035   1.032   0.221   5.342 -0.9751 -1.2414  3.3454
  882MOL0     H19036   1.204   0.009   5.095 -1.6225 -1.0788 -1.6042
  882MOL0     H19037   1.288  -0.119   5.176 -1.4925 -2.7456 -4.0384
  882MOL0     H19038   0.987  -0.102   5.089  0.1218  0.5769 -1.2555
  882MOL0     H19039   1.100  -0.185   5.000  1.0692  1.0567  1.1086
  882MOL0     H19040   1.046  -0.267   5.285 -1.0821 -1.6903  0.9974
  882MOL0     H19041   1.135  -0.369   5.170 -1.3119 -1.3890  2.0407
  882MOL0     H19042   0.847  -0.308   5.140 -0.3526 -1.3557 -0.0757
  882MOL0     H19043   0.958  -0.388   5.024 -0.3298 -1.9284  0.5462
  882MOL0     H19044   0.909  -0.505   5.314 -5.1195  0.0012  0.0775
  882MOL0     H19045   0.978  -0.582   5.173  0.0287 -0.5449  0.5374
  882MOL0     H19046   0.728  -0.650   5.248 -0.6710  0.4912  0.4218
  882MOL0     H19047   0.682  -0.483   5.218 -2.2934 -1.0782  0.8883
  882MOL0     H19048   0.759  -0.502   4.993  3.1041 -1.5611  0.9931
  882MOL0     H19049   0.625  -0.609   5.026  0.6278 -2.4025 -1.7081
  882MOL0     H19050   0.788  -0.801   5.056  1.3754 -2.9144 -2.3742
  882MOL0     H19051   0.906  -0.702   4.973  0.1084 -0.1469  0.0906
  882MOL0     H19052   1.405   0.004   5.336  2.9198  1.0954 -0.9546
  882MOL0     H19053   1.526   0.222   5.447 -0.6353  3.1583  1.0287
  882MOL0     H19054   1.213   0.647   5.780  0.0524  0.6148  0.1417
  882MOL0     H19055   1.238   0.874   5.840 -0.7651 -1.4830  0.4098
  882MOL0     H19056   0.951   2.412   6.680  0.8496  1.3728  2.1563
  882MOL0     H19057   0.851   2.553   6.864 -2.8938 -0.1010  1.1790
  882MOL0     H19058   0.745   2.641   7.205 -0.6676 -2.0440 -0.7259
  882MOL0     H19059   0.687   2.802   7.381  1.0890 -0.0809 -1.3005
  882MOL0     H19060   0.266   2.808   7.526  0.8305 -0.8036 -1.4028
  882MOL0     H19061   0.356   2.682   7.617 -3.0773  0.2390  3.7343
  882MOL0     H19062   0.407   2.854   7.791 -0.3495 -1.8486 -0.6730
  882MOL0     H19063   0.241   2.849   7.745  0.2557  0.2195  2.3709
  882MOL0     H19064   0.290   3.050   7.589  0.3191 -1.1893 -0.3997
  882MOL0     H19065   0.458   3.048   7.644 -0.8424  1.6252 -0.0694
  882MOL0     H19066   0.377   3.063   7.880 -0.2437 -3.8079 -0.4500
  882MOL0     H19067   0.217   3.080   7.815  0.8837 -1.6829 -1.4079
  882MOL0     H19068   0.388   3.468   7.755  2.3063 -1.0682  1.8997
  882MOL0     H19069   0.297   2.631   7.407  1.8409  2.1629  1.6429
  882MOL0     H19070   0.348   2.480   7.218  1.4348 -1.9131 -0.0366
  883MOL0     O19071   0.298   3.599   0.796  0.6677 -0.6498 -0.3847
  883MOL0     C19072   0.275   3.490   0.750 -0.1386  0.7329  1.0750
  883MOL0     O19073   0.170   3.408   0.802 -0.1405  0.2006 -0.2540
  883MOL0     C19074   0.107   3.467   0.916  0.1188  0.2875 -0.6851
  883MOL0     C19075   0.173   3.503   1.043 -1.3178 -0.1088  0.7080
  883MOL0     C19076   0.102   3.569   1.145  0.9277  0.2925  0.0920
  883MOL0     C19077  -0.036   3.599   1.122 -0.7994  0.0682 -0.5260
  883MOL0     O19078  -0.093   3.653   1.237 -0.5968  0.4505  0.1772
  883MOL0     C19079  -0.102   3.793   1.235  0.5470  0.3325 -0.3973
  883MOL0     C19080  -0.229   3.832   1.310  0.1244 -0.7012 -0.1932
  883MOL0     C19081  -0.222   3.847   1.461  0.6740 -0.4988  0.7620
  883MOL0     C19082  -0.362   3.897   1.511  0.3625 -0.3095  0.4641
  883MOL0     C19083  -0.360   3.899   1.660 -0.2674 -0.4592 -0.0981
  883MOL0     C19084  -0.508   3.911   1.700  0.2652  0.0057 -0.1129
  883MOL0     C19085  -0.521   3.924   1.848 -0.2181  0.7756  0.0130
  883MOL0     C19086  -0.672   3.896   1.868 -0.4938 -1.1515 -0.3043
  883MOL0     N19087  -0.734   4.025   1.845  0.3892 -0.2576 -0.1426
  883MOL0     C19088  -0.796   4.075   1.733 -0.5055  0.2380 -0.3272
  883MOL0     C19089  -0.815   4.215   1.762 -0.1610  1.0237  0.0845
  883MOL0     C19090  -0.868   4.311   1.659 -0.3420  0.0403  0.1521
  883MOL0     C19091  -0.747   4.376   1.580 -0.4502 -0.4030 -0.5049
  883MOL0     C19092  -0.662   4.271   1.494  0.2108 -0.8986 -0.5709
  883MOL0     C19093  -0.549   4.338   1.420  0.1784 -0.7230  0.1263
  883MOL0     O19094  -0.500   4.251   1.329 -0.1624  0.6502  0.2739
  883MOL0     C19095  -0.400   4.292   1.243  0.3103  0.6200 -0.6780
  883MOL0     C19096  -0.395   4.251   1.108  0.4972  1.2678 -0.1507
  883MOL0     C19097  -0.299   4.293   1.017 -0.7728  0.8925 -0.7052
  883MOL0     C19098  -0.303   4.251   0.874 -0.6312  0.0445 -0.6309
  883MOL0     C19099  -0.203   4.384   1.073  0.8050  0.4689 -0.2655
  883MOL0     C19100  -0.095   4.448   0.991 -0.3444 -0.2503  0.4815
  883MOL0     O19101   0.038   4.447   1.021 -0.0313 -0.0870  0.2561
  883MOL0     C19102   0.144   4.485   0.945  0.4680 -0.6378  0.5662
  883MOL0     C19103   0.131   4.551   0.818  1.6478  0.9153 -0.1899
  883MOL0     C19104   0.242   4.571   0.735  0.4967 -0.3976  0.3503
  883MOL0     C19105   0.376   4.555   0.784 -0.2867  0.4024 -0.7442
  883MOL0     O19106   0.484   4.583   0.705  0.0920  0.1176 -0.8399
  883MOL0     C19107   0.462   4.663   0.589  0.3653 -0.7343  0.3648
  883MOL0     C19108   0.599   4.720   0.536  0.3838  0.5420 -0.3599
  883MOL0     C19109   0.590   4.865   0.463 -0.6715  0.4746  0.2250
  883MOL0     C19110   0.614   4.971   0.567 -0.3544 -0.0749 -0.1877
  883MOL0     C19111   0.582   5.114   0.519 -0.3643  0.1365 -0.2617
  883MOL0     C19112   0.713   5.163   0.449 -1.0421  1.0486  0.4490
  883MOL0     C19113   0.711   5.296   0.378  0.4858 -0.5797  0.4007
  883MOL0     C19114   0.692   5.425   0.460  0.1718  0.0781 -0.7360
  883MOL0    Cl19115   0.794   5.412   0.608  0.5240 -0.2160  0.0809
  883MOL0     C19116   0.392   4.488   0.913 -0.0398  0.6125  0.4257
  883MOL0     C19117   0.274   4.456   0.985  0.2518  0.1552 -0.1933
  883MOL0     O19118  -0.146   4.506   0.897  0.5069  0.2717 -0.2599
  883MOL0     C19119  -0.207   4.421   1.198  0.7085 -0.2921 -1.0515
  883MOL0     C19120  -0.311   4.383   1.284  0.6213  0.0403 -0.6192
  883MOL0     N19121  -0.780   4.233   1.893 -0.2918  0.6414  0.2597
  883MOL0     N19122  -0.738   4.123   1.939  0.7797 -0.5014  0.0744
  883MOL0     C19123  -0.098   3.572   1.006 -0.4824 -0.4617  0.8784
  883MOL0     C19124  -0.029   3.505   0.904  0.1268 -0.4601 -0.1453
  883MOL0     C19125   0.353   3.431   0.640  1.0413  0.2268 -0.5410
  883MOL0     C19126   0.495   3.453   0.627  0.7497 -0.2689  0.0699
  883MOL0     C19127   0.561   3.396   0.524  0.5017  0.2738  0.8144
  883MOL0     C19128   0.508   3.305   0.442 -0.6218  0.4509 -0.2331
  883MOL0     O19129   0.577   3.284   0.323  0.6791  0.5429 -0.2720
  883MOL0     C19130   0.520   3.318   0.199  0.8784 -0.5073 -0.7456
  883MOL0     C19131   0.478   3.461   0.177 -0.3209  0.1399  0.6465
  883MOL0     C19132   0.605   3.554   0.153 -0.0048 -0.7403  0.2382
  883MOL0     C19133   0.572   3.678   0.070 -0.1751  0.2037  0.3947
  883MOL0     C19134   0.575   3.636  -0.071  0.4440 -0.0087 -0.1549
  883MOL0     C19135   0.554   3.605  -0.193 -0.5223 -0.7162  0.5200
  883MOL0     C19136   0.375   3.264   0.460  0.3200  0.1913  0.0371
  883MOL0     C19137   0.292   3.320   0.566 -0.1054 -0.8548  0.4806
  883MOL0     H19138   0.279   3.480   1.051 -1.0232  1.1987  0.8779
  883MOL0     H19139   0.148   3.604   1.237  0.5779 -0.8161  0.7075
  883MOL0     H19140  -0.017   3.847   1.276 -0.3644  1.0492  0.6067
  883MOL0     H19141  -0.113   3.828   1.132  1.8463  0.4496 -0.5016
  883MOL0     H19142  -0.253   3.933   1.275 -0.2678 -0.3508  1.0430
  883MOL0     H19143  -0.309   3.761   1.288 -0.8342  0.5383 -0.8634
  883MOL0     H19144  -0.211   3.741   1.487 -0.8585 -0.3704  2.1268
  883MOL0     H19145  -0.137   3.906   1.495  0.1201  0.9612 -0.2904
  883MOL0     H19146  -0.382   4.003   1.494  0.3297  0.0742  2.5730
  883MOL0     H19147  -0.437   3.834   1.463  1.6285 -0.8302 -0.9098
  883MOL0     H19148  -0.321   3.800   1.689  1.4387  0.4791  0.9868
  883MOL0     H19149  -0.295   3.977   1.701 -1.6330  0.5947  0.1293
  883MOL0     H19150  -0.557   3.994   1.647  1.2103  1.8468  1.7524
  883MOL0     H19151  -0.553   3.818   1.664  0.3857 -0.9850  2.1433
  883MOL0     H19152  -0.466   3.844   1.899 -0.0455 -0.0812 -1.4724
  883MOL0     H19153  -0.494   4.025   1.879 -2.2055  1.3327  0.1088
  883MOL0     H19154  -0.698   3.871   1.971 -0.9038 -0.8036 -0.3192
  883MOL0     H19155  -0.706   3.817   1.800 -1.8368  1.7769 -3.3288
  883MOL0     H19156  -0.817   4.023   1.640  3.7193  0.6257 -1.7386
  883MOL0     H19157  -0.924   4.258   1.581 -0.3096  2.1506 -1.3917
  883MOL0     H19158  -0.925   4.389   1.710 -0.4627 -0.5702  0.9684
  883MOL0     H19159  -0.677   4.414   1.655  1.1697  0.6082 -2.4135
  883MOL0     H19160  -0.773   4.465   1.521 -0.8242 -1.5366 -2.1043
  883MOL0     H19161  -0.709   4.195   1.431  0.0270 -2.1819  1.0646
  883MOL0     H19162  -0.612   4.206   1.566  0.2336  0.2324  0.4752
  883MOL0     H19163  -0.486   4.384   1.497 -1.9972 -0.5617  1.9261
  883MOL0     H19164  -0.584   4.413   1.349  1.2796 -2.1739 -2.0383
  883MOL0     H19165  -0.469   4.187   1.061 -2.4453  2.5216  2.4226
  883MOL0     H19166  -0.349   4.337   0.826  3.5867  3.2862  0.4876
  883MOL0     H19167  -0.198   4.230   0.849 -0.4295 -0.4917  0.5709
  883MOL0     H19168  -0.358   4.156   0.868  0.2825 -0.4555 -1.5180
  883MOL0     H19169   0.033   4.571   0.775  0.0482 -2.1671  1.6697
  883MOL0     H19170   0.217   4.611   0.637 -0.7960 -1.6300  0.1489
  883MOL0     H19171   0.409   4.612   0.508  0.4865  0.1187 -0.2579
  883MOL0     H19172   0.400   4.750   0.615 -0.2551 -1.4209  1.2760
  883MOL0     H19173   0.671   4.723   0.619  0.5987  0.9106 -0.5576
  883MOL0     H19174   0.624   4.650   0.456  0.2249 -1.1530  1.0223
  883MOL0     H19175   0.499   4.877   0.403  0.1606  2.6510 -0.6711
  883MOL0     H19176   0.671   4.877   0.391  2.0868 -2.6484  2.4572
  883MOL0     H19177   0.545   4.955   0.651 -0.0910  1.2372  0.3007
  883MOL0     H19178   0.714   4.966   0.612 -0.1153  0.3744 -0.6729
  883MOL0     H19179   0.555   5.191   0.593  0.2935 -0.9287  1.1162
  883MOL0     H19180   0.509   5.111   0.437 -0.7183  1.6458 -0.0361
  883MOL0     H19181   0.801   5.158   0.514  1.7927  1.0312 -3.0509
  883MOL0     H19182   0.741   5.086   0.377 -0.3405 -0.0840  1.8976
  883MOL0     H19183   0.640   5.286   0.295  0.3632 -1.1495  0.5696
  883MOL0     H19184   0.809   5.307   0.331  0.2427  0.2926  0.0778
  883MOL0     H19185   0.589   5.450   0.487  1.0109  0.5002  2.6209
  883MOL0     H19186   0.736   5.502   0.396  0.8625  0.9735  0.7476
  883MOL0     H19187   0.491   4.468   0.953 -0.1127  0.9909  0.8056
  883MOL0     H19188   0.282   4.417   1.086 -1.7461  1.8773  0.6964
  883MOL0     H19189  -0.136   4.482   1.253 -1.5574 -1.7794  4.1479
  883MOL0     H19190  -0.300   4.428   1.382 -0.3205  1.2999 -1.0782
  883MOL0     H19191  -0.203   3.596   0.988 -0.5024  0.0625  1.6337
  883MOL0     H19192  -0.059   3.492   0.800  1.6544  0.6758 -0.7754
  883MOL0     H19193   0.535   3.525   0.697 -2.0902  3.5701 -1.8737
  883MOL0     H19194   0.658   3.439   0.502  0.8291 -1.1819 -0.8424
  883MOL0     H19195   0.597   3.300   0.123  0.4578 -4.2914 -0.4460
  883MOL0     H19196   0.437   3.250   0.178  0.2257  0.0680 -0.0630
  883MOL0     H19197   0.412   3.502   0.254  1.7392  1.2367  1.9311
  883MOL0     H19198   0.417   3.473   0.087  1.2755 -1.8420 -0.8108
  883MOL0     H19199   0.682   3.495   0.103 -2.0510 -4.2088  0.8090
  883MOL0     H19200   0.645   3.575   0.252  1.7456 -3.5406  0.2473
  883MOL0     H19201   0.650   3.755   0.078 -1.2483  1.2901  0.6808
  883MOL0     H19202   0.472   3.715   0.092  0.0758  1.8086 -0.9606
  883MOL0     H19203   0.534   3.583  -0.296 -0.0570  0.7307  0.1012
  883MOL0     H19204   0.326   3.189   0.399 -0.2559 -0.2560  1.0303
  883MOL0     H19205   0.189   3.283   0.572 -1.2285  2.2629  3.2154
  884MOL0     O19206   9.068   7.675  11.389 -0.4092 -0.3514  0.6928
  884MOL0     C19207   8.994   7.625  11.303 -0.1554  0.1715 -0.4893
  884MOL0     O19208   8.879   7.676  11.261  0.6263 -0.4744  0.0657
  884MOL0     C19209   8.839   7.805  11.308  0.0428  0.0277  0.1614
  884MOL0     C19210   8.904   7.921  11.265 -0.6866  0.2013  0.0985
  884MOL0     C19211   8.853   8.044  11.299  0.2649  0.5731  0.9431
  884MOL0     C19212   8.739   8.052  11.381 -0.0007  1.0516 -0.4821
  884MOL0     O19213   8.687   8.162  11.431 -0.3633  0.4715 -0.0162
  884MOL0     C19214   8.781   8.249  11.489  0.1526 -0.3008  0.2927
  884MOL0     C19215   8.709   8.334  11.599  0.2291  0.5231 -0.2603
  884MOL0     C19216   8.786   8.458  11.641  0.0680  0.7709 -0.1099
  884MOL0     C19217   8.714   8.517  11.766  0.3114  0.7857  0.2073
  884MOL0     C19218   8.798   8.623  11.831  0.0344  0.4459  1.4497
  884MOL0     C19219   8.735   8.676  11.965  0.5907 -0.4132 -0.1735
  884MOL0     C19220   8.811   8.798  12.020 -0.2209 -0.3705  0.0587
  884MOL0     C19221   8.773   8.920  11.940  0.3051  1.0352  1.2203
  884MOL0     N19222   8.834   9.043  11.988  0.5213 -0.2260 -0.2798
  884MOL0     C19223   8.964   9.054  12.017 -0.4880  0.4621 -0.2786
  884MOL0     C19224   8.981   9.185  12.046 -0.3645 -0.0715 -0.5054
  884MOL0     C19225   9.115   9.247  12.093 -0.3537 -0.8463 -0.1054
  884MOL0     C19226   9.171   9.336  11.972  0.0089  0.0731 -0.0876
  884MOL0     C19227   9.212   9.263  11.842  0.3333 -1.2175 -0.1968
  884MOL0     C19228   9.337   9.173  11.854 -0.4717 -0.7722  0.6330
  884MOL0     O19229   9.305   9.046  11.909  0.6154 -0.8112  0.5268
  884MOL0     C19230   9.260   8.944  11.822  0.0110 -0.2275  0.5653
  884MOL0     C19231   9.266   8.822  11.877  0.4253  0.1750 -0.8272
  884MOL0     C19232   9.241   8.704  11.814  0.3665 -0.5908  0.5503
  884MOL0     C19233   9.266   8.570  11.894 -0.3440  1.4120 -0.2499
  884MOL0     C19234   9.190   8.701  11.675  0.6411 -0.7148 -0.1813
  884MOL0     C19235   9.137   8.592  11.593 -0.3774  0.1620 -0.0851
  884MOL0     O19236   9.048   8.637  11.502  0.5878 -0.5904  1.0232
  884MOL0     C19237   9.012   8.558  11.392 -0.7222 -0.7723  0.6842
  884MOL0     C19238   8.893   8.588  11.334 -0.7392  0.1076  0.0647
  884MOL0     C19239   8.858   8.521  11.217  0.7112 -0.2053 -0.2389
  884MOL0     C19240   8.934   8.418  11.162  0.1371  0.6265 -0.4680
  884MOL0     O19241   8.900   8.354  11.058 -0.2208 -0.0974 -0.5846
  884MOL0     C19242   8.755   8.347  11.037 -0.3218  0.0392  0.9738
  884MOL0     C19243   8.739   8.236  10.933 -0.8310  0.4072  0.1238
  884MOL0     C19244   8.600   8.179  10.932  0.4324 -0.2260  0.2065
  884MOL0     C19245   8.565   8.093  11.056  0.7452  0.7403 -0.1499
  884MOL0     C19246   8.434   8.017  11.049  0.1315 -0.7114  0.3976
  884MOL0     C19247   8.420   7.927  11.171  0.6890  0.0404  0.4897
  884MOL0     C19248   8.294   7.852  11.164  0.0125  0.1675 -0.0489
  884MOL0     C19249   8.288   7.756  11.287 -0.4128  0.9629  0.0896
  884MOL0    Cl19250   8.138   7.667  11.288  0.1287 -0.0202 -0.5026
  884MOL0     C19251   9.064   8.393  11.223  0.5138 -0.3585 -0.6761
  884MOL0     C19252   9.107   8.471  11.336 -0.3499  0.2239  0.8877
  884MOL0     O19253   9.175   8.477  11.623  0.4467 -0.1447  0.2999
  884MOL0     C19254   9.182   8.834  11.625  0.6158  0.4914  1.8477
  884MOL0     C19255   9.220   8.945  11.692  0.1500 -1.4692  0.0955
  884MOL0     N19256   8.849   9.248  12.045 -0.9747  0.7862 -0.2818
  884MOL0     N19257   8.763   9.160  12.007  0.2960  0.8240 -0.1209
  884MOL0     C19258   8.680   7.931  11.423 -0.0361 -0.1438  0.1309
  884MOL0     C19259   8.726   7.805  11.387 -0.4847  0.3152 -0.0654
  884MOL0     C19260   9.021   7.492  11.247 -0.9592 -0.3555  0.3331
  884MOL0     C19261   8.930   7.443  11.153 -1.1293  0.6577 -0.6824
  884MOL0     C19262   8.956   7.322  11.085  0.1585 -0.3516  0.0473
  884MOL0     C19263   9.068   7.250  11.121 -0.0794  1.1304  0.6241
  884MOL0     O19264   9.093   7.147  11.041  0.2527  0.5611  0.0275
  884MOL0     C19265   9.164   7.032  11.081  0.1628 -0.1368  0.4223
  884MOL0     C19266   9.111   6.920  10.991  0.9685  0.5123  0.4856
  884MOL0     C19267   8.953   6.910  10.987 -0.5051 -0.0975  0.0482
  884MOL0     C19268   8.901   6.798  10.894  0.4280  0.7033 -0.1647
  884MOL0     C19269   8.906   6.670  10.972 -0.2723 -0.6938  0.4763
  884MOL0     C19270   8.926   6.564  11.018  0.5085  1.5097  0.2189
  884MOL0     C19271   9.148   7.293  11.222  0.0991  0.4555  0.8560
  884MOL0     C19272   9.131   7.415  11.283  0.1179 -0.4944 -0.2678
  884MOL0     H19273   8.990   7.915  11.198  0.2897  0.3701  1.3125
  884MOL0     H19274   8.897   8.129  11.249 -3.4523  1.1317 -1.8622
  884MOL0     H19275   8.861   8.193  11.539 -0.1482 -1.4467 -0.4767
  884MOL0     H19276   8.804   8.316  11.405 -3.9583  3.1429  1.5462
  884MOL0     H19277   8.609   8.362  11.565  0.7899  1.0584 -1.5373
  884MOL0     H19278   8.701   8.262  11.681  0.7664  2.0244  1.1640
  884MOL0     H19279   8.890   8.431  11.659 -0.3400 -0.4135  0.5630
  884MOL0     H19280   8.801   8.535  11.565  1.0189 -2.1144 -3.0445
  884MOL0     H19281   8.620   8.556  11.725  0.1865  0.9779  0.6724
  884MOL0     H19282   8.688   8.444  11.843 -1.2621  1.6782  0.5782
  884MOL0     H19283   8.892   8.571  11.855 -1.1041 -2.1853  0.5815
  884MOL0     H19284   8.815   8.706  11.762  0.2962  1.4361  2.6750
  884MOL0     H19285   8.630   8.704  11.952 -0.2374 -3.8667 -2.0659
  884MOL0     H19286   8.741   8.597  12.040 -3.3699  0.4220  1.2960
  884MOL0     H19287   8.787   8.823  12.124 -0.3723  1.1274 -0.3236
  884MOL0     H19288   8.920   8.797  12.015 -0.0509  2.8714  0.8482
  884MOL0     H19289   8.666   8.933  11.962  0.4872 -0.6555  3.6224
  884MOL0     H19290   8.798   8.912  11.834 -0.5666  0.2344  1.0577
  884MOL0     H19291   9.040   8.978  12.002 -0.3330  0.5050  0.2646
  884MOL0     H19292   9.095   9.322  12.171  1.7872 -0.5121  0.1670
  884MOL0     H19293   9.180   9.173  12.141 -0.1206  1.2339  3.1075
  884MOL0     H19294   9.256   9.389  12.017 -0.8876  1.4508  0.0260
  884MOL0     H19295   9.096   9.409  11.942  1.7211  2.0443  0.1830
  884MOL0     H19296   9.240   9.349  11.782 -1.6696  1.3367  2.2538
  884MOL0     H19297   9.125   9.217  11.793 -1.1948  0.8083  0.4604
  884MOL0     H19298   9.420   9.226  11.902  0.7967 -1.3625 -0.8503
  884MOL0     H19299   9.380   9.158  11.755  0.8831  0.4169  1.0004
  884MOL0     H19300   9.289   8.814  11.983  2.0999 -0.1529 -1.1789
  884MOL0     H19301   9.178   8.506  11.877 -1.1155  2.2739  0.3733
  884MOL0     H19302   9.361   8.527  11.862  1.5507  3.4398  2.2230
  884MOL0     H19303   9.279   8.582  12.002 -0.7758 -0.9455  0.1172
  884MOL0     H19304   8.822   8.663  11.368  0.3853  1.0644  0.3562
  884MOL0     H19305   8.770   8.555  11.162  2.0492 -1.3270 -3.3065
  884MOL0     H19306   8.700   8.332  11.130  1.7216  1.3726  2.4946
  884MOL0     H19307   8.707   8.437  10.997 -3.7669 -1.6981  0.8523
  884MOL0     H19308   8.763   8.274  10.833 -1.3296  1.0741  0.2517
  884MOL0     H19309   8.803   8.150  10.955  0.3793  1.4411  0.7674
  884MOL0     H19310   8.584   8.119  10.842  0.9786  0.8671 -0.6309
  884MOL0     H19311   8.526   8.259  10.919 -2.6515 -2.4516  2.4685
  884MOL0     H19312   8.646   8.021  11.070  2.9694  2.5709 -2.5861
  884MOL0     H19313   8.563   8.155  11.146  1.4109  0.0121  0.3815
  884MOL0     H19314   8.439   7.955  10.959 -0.8619  0.8790 -0.8197
  884MOL0     H19315   8.346   8.080  11.039  0.2182 -0.6546 -0.0130
  884MOL0     H19316   8.506   7.859  11.180  1.7948  1.3675  0.2151
  884MOL0     H19317   8.421   7.997  11.255 -0.2923 -1.4666  1.8061
  884MOL0     H19318   8.284   7.793  11.072 -0.7582 -2.7589  1.7790
  884MOL0     H19319   8.210   7.920  11.181 -2.0094 -2.0449 -0.6831
  884MOL0     H19320   8.307   7.815  11.377 -1.1038  0.4041  0.6121
  884MOL0     H19321   8.367   7.680  11.284  0.1866  1.2061  4.1075
  884MOL0     H19322   9.122   8.313  11.177 -0.8837 -1.6058 -0.3666
  884MOL0     H19323   9.206   8.464  11.380  0.7132  4.9186 -0.2064
  884MOL0     H19324   9.147   8.845  11.522  1.5951  0.3952  1.4945
  884MOL0     H19325   9.214   9.036  11.632 -2.1201 -3.0991 -2.3934
  884MOL0     H19326   8.594   7.940  11.489 -1.4098 -2.1385 -1.2755
  884MOL0     H19327   8.691   7.711  11.429  3.9754 -0.8594  1.5614
  884MOL0     H19328   8.837   7.491  11.127 -1.7932  1.1900  2.3559
  884MOL0     H19329   8.879   7.293  11.014 -2.2861 -0.9477  2.7614
  884MOL0     H19330   9.273   7.041  11.074  0.3228  2.5543  3.6461
  884MOL0     H19331   9.129   7.007  11.182 -0.5426 -0.9953 -0.0240
  884MOL0     H19332   9.141   6.823  11.033 -0.6593  0.2214  1.0617
  884MOL0     H19333   9.141   6.928  10.887 -3.1906 -3.5120 -1.4097
  884MOL0     H19334   8.916   7.000  10.936  1.7918  1.0523  0.2841
  884MOL0     H19335   8.903   6.903  11.084  1.7797 -0.7148  1.2314
  884MOL0     H19336   8.968   6.789  10.808  1.5809  1.3697  0.6200
  884MOL0     H19337   8.801   6.811  10.854  1.5619  0.8161 -3.1769
  884MOL0     H19338   8.945   6.472  11.069  3.5030  2.4513  0.9880
  884MOL0     H19339   9.240   7.235  11.232  0.6868  0.9063 -1.2738
  884MOL0     H19340   9.213   7.438  11.350  0.1057 -2.1720  0.3602
  885MOL0     O19341   3.650   7.324   6.683 -1.0036  0.2165 -0.3019
  885MOL0     C19342   3.579   7.300   6.586  0.8571  0.4297  0.2211
  885MOL0     O19343   3.553   7.391   6.487 -0.5531  0.2609  0.1098
  885MOL0     C19344   3.596   7.515   6.508 -0.4296  0.1629  0.7561
  885MOL0     C19345   3.546   7.598   6.615  0.2772 -0.0072  0.1628
  885MOL0     C19346   3.605   7.723   6.636  0.8965  0.0396  0.7208
  885MOL0     C19347   3.707   7.773   6.554 -0.4568  0.9034  0.7225
  885MOL0     O19348   3.765   7.899   6.591  0.2921 -0.8722  0.0739
  885MOL0     C19349   3.776   7.999   6.489 -0.1046 -0.9967  0.9533
  885MOL0     C19350   3.664   8.105   6.519  1.2914 -0.0043  0.3813
  885MOL0     C19351   3.687   8.244   6.462  0.5963  0.3343  0.0355
  885MOL0     C19352   3.560   8.326   6.483  0.7198 -0.3819 -0.1909
  885MOL0     C19353   3.573   8.477   6.497 -0.5350 -0.2018 -0.4013
  885MOL0     C19354   3.442   8.552   6.505  0.0474 -0.2288 -0.7860
  885MOL0     C19355   3.346   8.536   6.380  0.2305  0.2176  0.0065
  885MOL0     C19356   3.241   8.640   6.391 -0.5005  0.0715 -0.1880
  885MOL0     N19357   3.125   8.607   6.307 -0.0703 -0.2957  0.2167
  885MOL0     C19358   2.990   8.641   6.337  0.9550  0.5802 -0.0824
  885MOL0     C19359   2.926   8.606   6.222 -0.0089  0.1586 -0.5715
  885MOL0     C19360   2.776   8.614   6.210  0.3699 -0.6985  0.7627
  885MOL0     C19361   2.708   8.477   6.206  0.5481  0.3092 -0.6734
  885MOL0     C19362   2.742   8.388   6.329 -0.0464 -0.3769 -0.7728
  885MOL0     C19363   2.648   8.272   6.343 -0.2774 -0.2490 -0.6683
  885MOL0     O19364   2.541   8.343   6.410  1.1059  0.9724 -0.1334
  885MOL0     C19365   2.420   8.278   6.445 -0.3199 -0.3357 -0.6430
  885MOL0     C19366   2.357   8.181   6.356 -0.5540 -0.1535 -0.2447
  885MOL0     C19367   2.239   8.113   6.402  0.7653  0.3417 -0.3873
  885MOL0     C19368   2.180   8.020   6.303 -1.0226 -0.3699 -0.6380
  885MOL0     C19369   2.183   8.142   6.534 -0.8028 -0.2103 -0.4928
  885MOL0     C19370   2.064   8.071   6.592 -0.1452 -0.5193 -0.9057
  885MOL0     O19371   2.014   8.115   6.711 -0.4761 -0.6285  0.4332
  885MOL0     C19372   1.912   8.056   6.760  0.3375  0.2165  0.1297
  885MOL0     C19373   1.930   7.975   6.876 -0.8571 -0.2541  0.4171
  885MOL0     C19374   1.822   7.920   6.938  0.1045  1.0760  0.3724
  885MOL0     C19375   1.695   7.924   6.883 -1.1328 -0.6980  0.0010
  885MOL0     O19376   1.571   7.890   6.938 -0.7029 -0.1136  0.3142
  885MOL0     C19377   1.563   7.781   7.029  0.7870  0.3843 -0.3563
  885MOL0     C19378   1.418   7.753   7.058 -0.0485  0.4186  0.3867
  885MOL0     C19379   1.350   7.727   6.932 -0.8536  0.6318  0.3365
  885MOL0     C19380   1.199   7.716   6.948 -0.1002 -0.1430 -0.6965
  885MOL0     C19381   1.112   7.694   6.819  1.1261 -1.1816 -0.2410
  885MOL0     C19382   1.144   7.800   6.715 -0.8282 -0.3867 -0.0365
  885MOL0     C19383   1.048   7.801   6.597  0.4337  0.3677 -0.4874
  885MOL0     C19384   1.099   7.893   6.491 -0.7061  0.0234  0.5810
  885MOL0    Cl19385   0.993   7.902   6.353 -0.8480  0.6229 -0.2381
  885MOL0     C19386   1.680   8.003   6.777  0.1747  1.3544  0.4523
  885MOL0     C19387   1.787   8.066   6.716 -0.4306 -0.6465 -0.1359
  885MOL0     O19388   2.029   7.965   6.544  0.3415  0.1649 -0.0662
  885MOL0     C19389   2.257   8.236   6.618  0.5203 -0.3162  0.0037
  885MOL0     C19390   2.370   8.311   6.572 -0.1445  0.5155 -0.4887
  885MOL0     N19391   3.015   8.563   6.129  0.0869 -0.2160 -0.2450
  885MOL0     N19392   3.137   8.564   6.177  0.3966  0.2707  0.1749
  885MOL0     C19393   3.746   7.688   6.452 -0.8258  1.0418  0.4283
  885MOL0     C19394   3.694   7.562   6.429  0.2862  0.3670  0.0792
  885MOL0     C19395   3.502   7.171   6.591 -0.8962  0.2739 -0.9543
  885MOL0     C19396   3.385   7.145   6.514  0.1794  0.7978 -0.4449
  885MOL0     C19397   3.316   7.029   6.529  1.0600  0.8848  0.2549
  885MOL0     C19398   3.361   6.933   6.620 -0.2974  0.3256 -0.3861
  885MOL0     O19399   3.287   6.811   6.627  0.4809 -0.8002 -0.1875
  885MOL0     C19400   3.286   6.751   6.750 -0.1233  0.3813  0.0427
  885MOL0     C19401   3.183   6.640   6.761 -0.2290 -0.8441 -0.4809
  885MOL0     C19402   3.023   6.687   6.732 -0.1454 -0.9631 -0.0902
  885MOL0     C19403   2.927   6.570   6.732 -1.2709  0.2321  0.2809
  885MOL0     C19404   2.794   6.623   6.694  0.6406  0.1937  0.4614
  885MOL0     C19405   2.687   6.686   6.676 -0.8731  1.1956  0.1853
  885MOL0     C19406   3.471   6.953   6.696 -0.1433 -0.3772 -0.6465
  885MOL0     C19407   3.543   7.075   6.689 -0.1230  0.6239 -0.1251
  885MOL0     H19408   3.475   7.559   6.687 -0.4121 -0.4422 -0.7358
  885MOL0     H19409   3.558   7.791   6.706  2.3176  1.7483  0.0967
  885MOL0     H19410   3.875   8.046   6.495 -0.8926  1.3229 -1.9318
  885MOL0     H19411   3.773   7.956   6.389 -0.0726  2.9991 -0.9758
  885MOL0     H19412   3.574   8.063   6.471  1.3794  0.7819 -0.5148
  885MOL0     H19413   3.653   8.112   6.627  1.7493 -0.2713  0.4445
  885MOL0     H19414   3.777   8.280   6.512 -1.3824  0.6404  3.7422
  885MOL0     H19415   3.707   8.227   6.356 -0.2338  1.4299 -0.3069
  885MOL0     H19416   3.494   8.309   6.397 -2.4002 -1.0759  2.1456
  885MOL0     H19417   3.496   8.281   6.560  1.1725  1.8214  1.5843
  885MOL0     H19418   3.637   8.491   6.585 -1.8357 -1.0436  0.7233
  885MOL0     H19419   3.636   8.513   6.415 -1.2998 -1.5140 -1.6044
  885MOL0     H19420   3.390   8.509   6.591 -0.8189 -2.9181 -2.5575
  885MOL0     H19421   3.461   8.660   6.514  1.5524 -0.3987 -1.5741
  885MOL0     H19422   3.412   8.540   6.292  1.3608 -4.5204  0.3973
  885MOL0     H19423   3.298   8.439   6.374 -1.0467  0.9111 -2.0230
  885MOL0     H19424   3.285   8.733   6.355 -2.0872  0.7968 -0.3779
  885MOL0     H19425   3.213   8.631   6.497 -0.5925 -1.7789 -0.3339
  885MOL0     H19426   2.948   8.684   6.427  0.0410  0.8278 -0.6197
  885MOL0     H19427   2.737   8.677   6.291 -2.2725 -0.2602 -0.7274
  885MOL0     H19428   2.753   8.663   6.115  0.8242 -0.1388  0.9396
  885MOL0     H19429   2.731   8.435   6.108 -3.3096 -0.4066 -1.4589
  885MOL0     H19430   2.600   8.495   6.198  0.9309  1.9984 -3.0996
  885MOL0     H19431   2.753   8.454   6.416  0.4277 -0.6192 -0.6441
  885MOL0     H19432   2.833   8.332   6.305 -0.1634 -1.1133  0.3903
  885MOL0     H19433   2.700   8.197   6.403  0.4393  1.3737  0.8077
  885MOL0     H19434   2.625   8.229   6.245  2.1736 -2.1749 -0.5019
  885MOL0     H19435   2.406   8.162   6.262  3.1370 -0.8284  1.6212
  885MOL0     H19436   2.200   7.915   6.327 -1.4435 -0.2088  0.5077
  885MOL0     H19437   2.071   8.029   6.298 -1.1916  1.6044  3.0709
  885MOL0     H19438   2.223   8.044   6.206 -2.0382  3.9136 -0.2059
  885MOL0     H19439   2.029   7.977   6.919 -0.7935  0.5382  0.2603
  885MOL0     H19440   1.834   7.854   7.024 -1.0618 -2.3331 -1.8687
  885MOL0     H19441   1.610   7.694   6.981  0.3656  0.3223 -0.6576
  885MOL0     H19442   1.597   7.811   7.128 -0.5616  0.2515  0.1579
  885MOL0     H19443   1.413   7.664   7.121  0.3663  0.0954 -0.0283
  885MOL0     H19444   1.363   7.840   7.097  0.9608  1.5797 -0.6682
  885MOL0     H19445   1.388   7.638   6.881 -0.0371  2.3307 -2.2119
  885MOL0     H19446   1.365   7.806   6.858 -0.4102 -1.1279 -1.5528
  885MOL0     H19447   1.181   7.631   7.015  1.6244  0.5465  0.6890
  885MOL0     H19448   1.161   7.808   6.992 -2.0016 -0.4292 -1.6397
  885MOL0     H19449   1.004   7.705   6.838  1.5295  3.2428  0.5500
  885MOL0     H19450   1.121   7.590   6.788 -0.9790 -1.3429 -0.4536
  885MOL0     H19451   1.155   7.898   6.762 -0.7771  0.3547 -1.5375
  885MOL0     H19452   1.244   7.773   6.680 -0.8582 -1.1922  0.4607
  885MOL0     H19453   0.949   7.837   6.628 -0.0622  0.6070 -2.2679
  885MOL0     H19454   1.041   7.698   6.561  1.0646  0.8557 -2.0997
  885MOL0     H19455   1.197   7.855   6.461 -1.0088 -0.2676 -0.0548
  885MOL0     H19456   1.124   7.992   6.530  2.0898 -0.1042 -0.7155
  885MOL0     H19457   1.589   8.002   6.718  1.2740 -1.0612 -1.3923
  885MOL0     H19458   1.758   8.117   6.624  0.5032 -1.8270 -1.1129
  885MOL0     H19459   2.221   8.256   6.718 -0.7601  2.4076 -0.8927
  885MOL0     H19460   2.415   8.386   6.637 -2.1192 -0.0892  1.6761
  885MOL0     H19461   3.826   7.722   6.387 -0.7856  3.1407  1.5041
  885MOL0     H19462   3.734   7.502   6.347 -1.3117 -2.4716  1.2522
  885MOL0     H19463   3.354   7.219   6.442 -0.3286 -0.3064 -1.3891
  885MOL0     H19464   3.245   6.999   6.453  1.2048 -0.0365  0.4704
  885MOL0     H19465   3.380   6.696   6.765 -0.2851  0.1481  0.2046
  885MOL0     H19466   3.283   6.818   6.837  1.1979  1.1453 -0.4680
  885MOL0     H19467   3.184   6.599   6.862 -0.9238 -1.3828 -0.6876
  885MOL0     H19468   3.212   6.556   6.698  1.2381 -0.4837 -0.3164
  885MOL0     H19469   3.025   6.736   6.634 -3.1787  0.4154  0.4356
  885MOL0     H19470   2.991   6.759   6.808 -0.3325 -0.2703 -0.8153
  885MOL0     H19471   2.919   6.525   6.831  0.3658 -2.4384 -0.7011
  885MOL0     H19472   2.957   6.480   6.678 -0.8845 -1.3463  2.9646
  885MOL0     H19473   2.594   6.729   6.645 -0.8135  0.0074 -1.7992
  885MOL0     H19474   3.496   6.874   6.766 -1.6377  0.2472  0.6699
  885MOL0     H19475   3.621   7.106   6.759 -1.8910  2.5426  1.0849
  886MOL0     O19476  10.021   1.725   6.423  0.0909 -0.7586  0.6108
  886MOL0     C19477  10.098   1.687   6.509 -0.8603  0.0071  0.7042
  886MOL0     O19478  10.227   1.654   6.485  0.1245  0.6145 -0.4811
  886MOL0     C19479  10.291   1.638   6.367 -0.9742  0.1138 -0.1453
  886MOL0     C19480  10.431   1.654   6.377  0.3607  0.5698  0.2473
  886MOL0     C19481  10.502   1.639   6.263 -0.6505 -0.1315 -0.5516
  886MOL0     C19482  10.450   1.606   6.140 -0.5672  0.9303 -0.3384
  886MOL0     O19483  10.516   1.558   6.034 -0.6334 -0.0165 -0.3785
  886MOL0     C19484  10.635   1.610   5.998 -0.3448  0.1667 -0.5650
  886MOL0     C19485  10.659   1.569   5.852 -0.5048 -0.3263  0.1414
  886MOL0     C19486  10.775   1.656   5.802 -0.1439  0.0845  0.1802
  886MOL0     C19487  10.909   1.579   5.837 -1.0656  0.7421  0.3024
  886MOL0     C19488  11.037   1.669   5.834  0.4781  1.0073  0.6773
  886MOL0     C19489  11.047   1.756   5.958  0.2518  0.2666  0.1581
  886MOL0     C19490  11.118   1.884   5.929  0.2622 -0.3411 -0.6583
  886MOL0     C19491  11.258   1.881   5.867  0.1170  0.9983  0.2176
  886MOL0     N19492  11.369   1.840   5.958  1.1812  1.2050 -0.7901
  886MOL0     C19493  11.410   1.918   6.058  0.6255 -0.4884  0.3443
  886MOL0     C19494  11.525   1.857   6.103  0.1370 -0.1030 -0.3405
  886MOL0     C19495  11.609   1.913   6.215 -0.0012  0.4548 -0.6635
  886MOL0     C19496  11.626   2.062   6.206  0.5143  0.3866 -0.2371
  886MOL0     C19497  11.744   2.114   6.281 -0.2629  0.3044 -0.1344
  886MOL0     C19498  11.772   2.058   6.421 -0.0876 -0.2862 -0.1164
  886MOL0     O19499  11.841   2.149   6.501  0.0837  0.2477 -0.4650
  886MOL0     C19500  11.773   2.183   6.608 -0.7042 -0.7374  0.4672
  886MOL0     C19501  11.787   2.116   6.727 -0.4446  1.2587  0.3644
  886MOL0     C19502  11.737   2.169   6.850  0.9161  0.2235  0.1971
  886MOL0     C19503  11.749   2.071   6.970 -0.9529  0.6625  0.4123
  886MOL0     C19504  11.686   2.297   6.855  0.4043  0.3924 -0.6511
  886MOL0     C19505  11.640   2.368   6.973  0.6108 -0.0432  0.1318
  886MOL0     O19506  11.598   2.502   6.951 -0.4348 -0.8568  0.0408
  886MOL0     C19507  11.539   2.570   7.047  0.6598  0.6629  0.6495
  886MOL0     C19508  11.455   2.519   7.152 -0.2176  0.3229  0.5938
  886MOL0     C19509  11.385   2.607   7.237 -0.0296 -0.1773 -0.0480
  886MOL0     C19510  11.391   2.750   7.217 -0.8267  0.4478  0.4266
  886MOL0     O19511  11.327   2.831   7.304  0.8294 -0.4250 -0.3188
  886MOL0     C19512  11.413   2.892   7.396  0.1668 -0.8608 -0.7047
  886MOL0     C19513  11.326   2.976   7.497 -0.9082  0.2578 -1.3411
  886MOL0     C19514  11.409   3.069   7.594  0.0400 -0.2923  0.8843
  886MOL0     C19515  11.314   3.174   7.653 -0.0647  0.8099  0.2579
  886MOL0     C19516  11.389   3.282   7.742 -0.3986 -0.9105 -0.0091
  886MOL0     C19517  11.501   3.358   7.658 -0.1916 -0.2886  0.3921
  886MOL0     C19518  11.457   3.445   7.537 -0.8439 -0.0105 -0.9440
  886MOL0     C19519  11.524   3.580   7.510  0.2220 -0.2268 -0.7414
  886MOL0    Cl19520  11.693   3.552   7.478  0.2346  0.4518 -0.6273
  886MOL0     C19521  11.469   2.793   7.120 -0.0450  0.2289  0.6068
  886MOL0     C19522  11.535   2.705   7.031 -0.0388  0.8673 -0.0882
  886MOL0     O19523  11.639   2.317   7.079  0.1442 -0.3033  0.6748
  886MOL0     C19524  11.671   2.366   6.727 -0.2976 -0.5190  0.0735
  886MOL0     C19525  11.722   2.317   6.606 -0.3723  0.0083 -0.1765
  886MOL0     N19526  11.554   1.749   6.021  0.7975  0.0991 -0.1005
  886MOL0     N19527  11.462   1.748   5.928  0.1989  0.7939  0.1188
  886MOL0     C19528  10.318   1.591   6.135  0.9083  0.0413  0.0791
  886MOL0     C19529  10.237   1.603   6.249 -0.9135 -0.8422 -0.2489
  886MOL0     C19530  10.039   1.635   6.632 -0.7814  0.1984 -1.0332
  886MOL0     C19531   9.904   1.592   6.629  0.0952  0.4023  0.8434
  886MOL0     C19532   9.847   1.528   6.739  0.6674 -1.0045  0.0201
  886MOL0     C19533   9.919   1.507   6.858 -1.0044  0.8623  0.2826
  886MOL0     O19534   9.852   1.443   6.962 -0.4937 -1.1324 -0.2149
  886MOL0     C19535   9.920   1.424   7.086 -0.3067 -0.2390  1.3763
  886MOL0     C19536   9.817   1.442   7.199  0.0987 -0.4866 -0.4085
  886MOL0     C19537   9.853   1.406   7.340 -0.6031  0.5551 -0.0874
  886MOL0     C19538   9.856   1.255   7.356 -1.5943  0.1524 -0.8034
  886MOL0     C19539   9.993   1.201   7.379  0.0449  0.4590 -0.0870
  886MOL0     C19540  10.101   1.140   7.398 -0.3829 -0.6058 -0.0930
  886MOL0     C19541  10.058   1.544   6.861  0.2441  0.5906 -0.3775
  886MOL0     C19542  10.118   1.611   6.749 -0.8226 -0.0117  0.4164
  886MOL0     H19543  10.478   1.677   6.472 -0.6864  1.0580  0.6743
  886MOL0     H19544  10.610   1.650   6.271 -0.9199  1.3512  2.3539
  886MOL0     H19545  10.643   1.719   6.007 -0.6351  0.3115 -1.8341
  886MOL0     H19546  10.712   1.567   6.062  0.6781  2.1060 -0.4122
  886MOL0     H19547  10.678   1.461   5.851  0.2241 -0.2245  1.2913
  886MOL0     H19548  10.574   1.591   5.787  0.3142 -0.4166 -1.0021
  886MOL0     H19549  10.766   1.669   5.694  0.3502 -0.4245  0.0732
  886MOL0     H19550  10.767   1.754   5.849 -4.0606  0.7841 -1.5214
  886MOL0     H19551  10.907   1.529   5.934  1.2313  0.5921  0.3356
  886MOL0     H19552  10.929   1.503   5.760 -0.2560 -0.8387  1.9981
  886MOL0     H19553  11.121   1.600   5.824 -0.9251 -0.7834  0.5810
  886MOL0     H19554  11.040   1.742   5.753  1.8795 -1.7514 -1.9947
  886MOL0     H19555  10.953   1.775   6.010  1.1038 -0.1450  1.9413
  886MOL0     H19556  11.123   1.705   6.019  3.1663  1.0124 -2.5899
  886MOL0     H19557  11.048   1.935   5.862 -1.1328 -0.0799  0.9164
  886MOL0     H19558  11.120   1.925   6.030  1.6305 -1.3137 -0.2646
  886MOL0     H19559  11.274   1.978   5.819  3.4557  1.0627  1.2242
  886MOL0     H19560  11.265   1.813   5.781 -0.1503 -1.3176  1.9412
  886MOL0     H19561  11.376   2.010   6.106 -1.0837  0.5297 -2.5716
  886MOL0     H19562  11.560   1.884   6.308  1.6912 -3.2426 -0.7119
  886MOL0     H19563  11.702   1.854   6.213 -0.0899  0.2132  0.8183
  886MOL0     H19564  11.531   2.105   6.239  0.4909 -0.7162  1.2277
  886MOL0     H19565  11.635   2.093   6.102  1.7239  0.4978 -0.1082
  886MOL0     H19566  11.740   2.223   6.280  1.4270  0.5022  2.6431
  886MOL0     H19567  11.834   2.085   6.226 -0.0344 -1.0573  0.8951
  886MOL0     H19568  11.836   1.971   6.406  1.3817  0.7902 -0.3889
  886MOL0     H19569  11.679   2.024   6.467 -0.3985  2.2599  1.3488
  886MOL0     H19570  11.819   2.012   6.732  0.8374  1.6531  0.9360
  886MOL0     H19571  11.803   2.129   7.045 -1.1491 -1.7544  2.5807
  886MOL0     H19572  11.652   2.044   7.013 -1.4835  2.0831  0.1511
  886MOL0     H19573  11.813   1.984   6.950 -0.9634  0.7519 -0.0110
  886MOL0     H19574  11.438   2.413   7.169  3.1129 -0.3708  0.1747
  886MOL0     H19575  11.317   2.558   7.306  2.7293 -0.9586  2.3178
  886MOL0     H19576  11.467   2.831   7.469 -1.2953  0.0827  1.2561
  886MOL0     H19577  11.490   2.942   7.337 -1.5316  0.5229 -1.8873
  886MOL0     H19578  11.246   3.028   7.443 -1.9407  3.1600  2.5287
  886MOL0     H19579  11.265   2.904   7.552 -0.4117 -1.9725 -3.5363
  886MOL0     H19580  11.478   3.117   7.524 -1.3755 -0.2972 -0.5694
  886MOL0     H19581  11.460   3.016   7.675  1.0239  0.3438  0.7044
  886MOL0     H19582  11.259   3.225   7.574  0.6356 -1.7996 -2.0852
  886MOL0     H19583  11.229   3.130   7.707 -1.4407  3.7226  0.6714
  886MOL0     H19584  11.426   3.235   7.833  0.9173 -1.3508 -0.7534
  886MOL0     H19585  11.310   3.345   7.786 -0.2865 -0.5102 -0.3818
  886MOL0     H19586  11.564   3.423   7.719  0.1511  0.5728 -0.8388
  886MOL0     H19587  11.572   3.291   7.608  0.1134  2.6887 -3.6793
  886MOL0     H19588  11.348   3.444   7.544 -0.7565  0.5075  1.7459
  886MOL0     H19589  11.478   3.381   7.451  0.0059 -1.9907  0.6682
  886MOL0     H19590  11.509   3.647   7.595  3.2380 -3.0027  2.2905
  886MOL0     H19591  11.489   3.633   7.421 -0.4775  1.3913  0.4571
  886MOL0     H19592  11.457   2.894   7.082  0.4769  0.6607  1.5352
  886MOL0     H19593  11.594   2.751   6.952  1.4413 -0.4389  0.1841
  886MOL0     H19594  11.628   2.466   6.728  0.7433 -0.0540 -0.7016
  886MOL0     H19595  11.715   2.385   6.522  0.0111  1.2744  0.7883
  886MOL0     H19596  10.268   1.576   6.040 -2.8392  3.5691  1.1824
  886MOL0     H19597  10.129   1.609   6.243 -1.1817  0.5402  3.5960
  886MOL0     H19598   9.841   1.595   6.541  1.8043  2.5548 -0.3999
  886MOL0     H19599   9.747   1.488   6.737  0.9095 -1.6387 -2.3291
  886MOL0     H19600   9.959   1.323   7.080 -1.5046 -0.6309 -0.9561
  886MOL0     H19601   9.998   1.496   7.112  0.1692 -0.0286 -0.4673
  886MOL0     H19602   9.730   1.381   7.175 -0.0607  0.0848 -1.3500
  886MOL0     H19603   9.795   1.549   7.189  2.8812  0.1100 -1.0044
  886MOL0     H19604   9.784   1.450   7.412  0.5256 -1.6170  2.4733
  886MOL0     H19605   9.955   1.435   7.367  0.6696 -4.0463  0.9034
  886MOL0     H19606   9.795   1.205   7.280 -0.9264  0.1887 -1.3684
  886MOL0     H19607   9.811   1.234   7.453  1.3553 -0.2436  0.5870
  886MOL0     H19608  10.188   1.079   7.407 -0.6763 -1.1889 -1.0440
  886MOL0     H19609  10.115   1.525   6.951  1.8364  2.1908 -0.9831
  886MOL0     H19610  10.222   1.641   6.760 -0.9675  2.0693 -2.7813
  887MOL0     O19611   4.851   0.962   5.569  0.3039  0.4186 -0.0367
  887MOL0     C19612   4.928   1.058   5.585  0.3843  0.8721  0.6641
  887MOL0     O19613   5.042   1.086   5.503  0.4557 -0.5010 -0.2487
  887MOL0     C19614   5.062   1.008   5.389 -0.8337 -1.2827  0.5950
  887MOL0     C19615   4.957   0.970   5.306  0.5615  0.0953  0.5119
  887MOL0     C19616   4.968   0.908   5.180  0.7944 -0.1419 -0.2903
  887MOL0     C19617   5.107   0.878   5.136  1.7459  0.9275 -0.2262
  887MOL0     O19618   5.148   0.821   5.024 -0.0936 -0.7831  0.1352
  887MOL0     C19619   5.059   0.816   4.913 -0.4146 -0.8925  0.1879
  887MOL0     C19620   5.149   0.796   4.791 -0.2689 -0.1916  0.0601
  887MOL0     C19621   5.225   0.656   4.783 -0.1813 -0.3594  0.5648
  887MOL0     C19622   5.119   0.545   4.796  0.4017 -0.4778  0.1086
  887MOL0     C19623   5.179   0.411   4.763 -0.3328  0.5450  0.3480
  887MOL0     C19624   5.081   0.299   4.701  0.5293 -0.9824  0.2916
  887MOL0     C19625   4.978   0.254   4.804 -0.0031 -0.1686  1.0165
  887MOL0     C19626   5.028   0.228   4.942 -0.3150  0.5977  0.0090
  887MOL0     N19627   4.943   0.121   5.004  0.0858  0.0125  0.6675
  887MOL0     C19628   4.816   0.134   5.047  0.0773 -0.8896 -0.4023
  887MOL0     C19629   4.780   0.016   5.105  0.2324 -0.1679  0.1007
  887MOL0     C19630   4.642  -0.019   5.157  0.4423  0.9123 -0.0154
  887MOL0     C19631   4.577   0.092   5.257 -0.2062 -0.6724 -0.5950
  887MOL0     C19632   4.640   0.089   5.397 -0.0417 -0.0921  0.7198
  887MOL0     C19633   4.564   0.170   5.501  0.1186 -0.6395 -0.4006
  887MOL0     O19634   4.668   0.231   5.578 -0.2443 -0.3174  0.0773
  887MOL0     C19635   4.653   0.280   5.705  0.1296 -0.1677  0.6783
  887MOL0     C19636   4.530   0.330   5.755 -0.4100 -0.4799 -0.5406
  887MOL0     C19637   4.525   0.373   5.885 -0.1696  0.7234  0.1197
  887MOL0     C19638   4.395   0.425   5.925 -0.1326 -0.6378 -0.2780
  887MOL0     C19639   4.638   0.364   5.968 -0.5331 -0.0654 -1.2011
  887MOL0     C19640   4.646   0.427   6.106 -0.3733 -0.2814 -1.0668
  887MOL0     O19641   4.566   0.532   6.144 -0.2148  1.3122  0.5662
  887MOL0     C19642   4.558   0.584   6.270  0.9634 -0.2212  0.0020
  887MOL0     C19643   4.520   0.718   6.301  0.7603 -0.8337 -0.1560
  887MOL0     C19644   4.517   0.758   6.438 -0.7275  0.4251 -1.0283
  887MOL0     C19645   4.559   0.675   6.538 -0.3449 -0.0539  0.1482
  887MOL0     O19646   4.571   0.724   6.663 -0.0188  0.4593  0.4748
  887MOL0     C19647   4.691   0.786   6.706  0.6931 -0.7794  0.0261
  887MOL0     C19648   4.685   0.809   6.855  0.1051 -0.1188 -1.0293
  887MOL0     C19649   4.568   0.910   6.899  0.7325  0.7925  0.5893
  887MOL0     C19650   4.590   0.926   7.051 -0.4626  0.2855  1.1087
  887MOL0     C19651   4.463   0.977   7.116 -0.4371 -0.8169  0.4896
  887MOL0     C19652   4.502   1.046   7.246  0.6456 -1.0983  0.1133
  887MOL0     C19653   4.382   1.047   7.343 -0.9700  1.1691  0.0494
  887MOL0     C19654   4.435   1.045   7.485 -0.2520 -0.0281 -1.0750
  887MOL0    Cl19655   4.481   1.213   7.534  0.1375 -0.0495  0.1905
  887MOL0     C19656   4.579   0.540   6.517  0.5433 -0.3787 -0.8040
  887MOL0     C19657   4.580   0.496   6.387 -0.1633 -0.7734  0.0024
  887MOL0     O19658   4.739   0.382   6.170 -0.1679  0.4325  0.0659
  887MOL0     C19659   4.753   0.306   5.907 -0.2339 -0.1570 -0.1037
  887MOL0     C19660   4.763   0.269   5.774 -0.0255  0.9023  0.1109
  887MOL0     N19661   4.887  -0.066   5.084 -0.4422  0.9673 -0.2372
  887MOL0     N19662   4.981  -0.006   5.025 -0.0831 -0.9591  1.6437
  887MOL0     C19663   5.211   0.923   5.218  0.0139 -0.1994 -0.5142
  887MOL0     C19664   5.184   0.986   5.341  0.3720  0.4207  0.5671
  887MOL0     C19665   4.912   1.132   5.707  0.6683  0.2549 -1.3777
  887MOL0     C19666   4.810   1.108   5.797  0.9961  0.7788  0.2648
  887MOL0     C19667   4.807   1.174   5.921 -0.8387  0.5273 -0.5364
  887MOL0     C19668   4.907   1.273   5.957 -0.7636 -0.0749 -0.2502
  887MOL0     O19669   4.893   1.317   6.089  0.0505  0.7144  0.2545
  887MOL0     C19670   5.002   1.390   6.143  0.2745 -0.0312  0.7378
  887MOL0     C19671   4.989   1.388   6.294  0.1719 -0.2597 -0.2283
  887MOL0     C19672   5.014   1.247   6.365 -0.5853 -0.4167 -0.2416
  887MOL0     C19673   4.995   1.262   6.515 -0.7059 -0.6228  0.0845
  887MOL0     C19674   5.047   1.147   6.580  0.5966  0.3441  0.0989
  887MOL0     C19675   5.084   1.046   6.641  0.7698  0.1846 -0.4478
  887MOL0     C19676   5.006   1.302   5.866  0.2730  0.1725  0.1289
  887MOL0     C19677   5.010   1.229   5.738  0.9532 -0.5137  0.2390
  887MOL0     H19678   4.861   1.017   5.326  1.5715  1.9468  1.2996
  887MOL0     H19679   4.878   0.863   5.138  0.6626 -0.9879  0.8338
  887MOL0     H19680   4.985   0.735   4.917 -0.6878 -0.5999  2.3013
  887MOL0     H19681   5.008   0.912   4.907  0.8597 -0.0416  2.0853
  887MOL0     H19682   5.087   0.813   4.703 -0.7177  1.4410  0.6633
  887MOL0     H19683   5.220   0.878   4.776 -0.4043 -0.3884 -1.9431
  887MOL0     H19684   5.263   0.652   4.680 -2.7459  1.6582 -0.5778
  887MOL0     H19685   5.300   0.650   4.861 -1.3294 -0.9344  1.6535
  887MOL0     H19686   5.078   0.536   4.897  0.8682 -0.5084  0.2991
  887MOL0     H19687   5.042   0.559   4.720  0.3038 -0.1670  0.2655
  887MOL0     H19688   5.255   0.427   4.687  1.1976 -0.9544  1.4817
  887MOL0     H19689   5.231   0.377   4.854  0.2029  1.4419  0.3919
  887MOL0     H19690   5.018   0.336   4.620 -0.0520 -0.4882  0.9626
  887MOL0     H19691   5.133   0.214   4.655 -1.7310 -1.6732 -1.1351
  887MOL0     H19692   4.887   0.315   4.812  0.1033  0.2157 -0.4710
  887MOL0     H19693   4.946   0.157   4.764  0.6590 -0.0310  0.1234
  887MOL0     H19694   5.025   0.320   5.000 -1.2832 -0.3830  1.5989
  887MOL0     H19695   5.133   0.200   4.941 -0.0486  1.3135  2.2598
  887MOL0     H19696   4.759   0.227   5.050  1.4241 -0.0584  2.4107
  887MOL0     H19697   4.574  -0.039   5.074 -1.1250 -3.8264  2.0146
  887MOL0     H19698   4.662  -0.110   5.214  4.7613  1.9654  0.5334
  887MOL0     H19699   4.471   0.075   5.275 -0.3299  0.9287  0.2968
  887MOL0     H19700   4.598   0.187   5.208  2.0983  0.1447  1.7505
  887MOL0     H19701   4.742   0.125   5.388  0.7506 -2.5726 -1.0761
  887MOL0     H19702   4.650  -0.012   5.438  1.7641  0.9040  2.9373
  887MOL0     H19703   4.503   0.104   5.562  0.0017 -0.8116 -0.7004
  887MOL0     H19704   4.501   0.246   5.454 -3.3463 -2.4968  0.9359
  887MOL0     H19705   4.440   0.344   5.696 -1.4181  3.7473  1.6392
  887MOL0     H19706   4.317   0.398   5.853 -0.5372 -0.6729  0.1676
  887MOL0     H19707   4.363   0.382   6.021  1.1179 -2.7526 -0.7315
  887MOL0     H19708   4.394   0.534   5.932  1.6238 -0.4621 -2.0041
  887MOL0     H19709   4.473   0.783   6.229  0.3504 -0.5932  0.3222
  887MOL0     H19710   4.498   0.858   6.477  0.8930 -0.8432  3.5546
  887MOL0     H19711   4.781   0.730   6.678  1.1428 -0.1006  0.0760
  887MOL0     H19712   4.703   0.881   6.653 -0.7140 -0.3044  0.5023
  887MOL0     H19713   4.664   0.711   6.897 -1.6517 -0.2894 -2.1928
  887MOL0     H19714   4.781   0.846   6.892  1.1870 -3.2973 -0.3654
  887MOL0     H19715   4.474   0.875   6.855  0.7587  1.8047 -0.3185
  887MOL0     H19716   4.579   1.009   6.852 -1.4536  1.0494  0.5237
  887MOL0     H19717   4.609   0.827   7.094 -0.4619 -1.1543 -1.9282
  887MOL0     H19718   4.674   0.996   7.052 -0.1379  0.1396 -2.7559
  887MOL0     H19719   4.403   0.886   7.127 -0.2715 -0.8571  1.0740
  887MOL0     H19720   4.411   1.041   7.044  2.1807 -0.7265 -1.4459
  887MOL0     H19721   4.584   0.990   7.292 -0.1072 -3.1858 -0.9070
  887MOL0     H19722   4.541   1.147   7.233 -1.3573  0.1743  2.9852
  887MOL0     H19723   4.312   0.963   7.337 -1.4060  1.3353  2.1322
  887MOL0     H19724   4.317   1.133   7.325 -3.2114 -0.5114 -0.3186
  887MOL0     H19725   4.521   0.978   7.495 -1.0513 -0.9303  0.1075
  887MOL0     H19726   4.361   1.018   7.561  1.7976  1.4019  1.5838
  887MOL0     H19727   4.609   0.473   6.597  1.1022  0.4654 -0.2948
  887MOL0     H19728   4.604   0.392   6.369  3.1404  0.2875 -3.1562
  887MOL0     H19729   4.826   0.294   5.987 -0.4038  1.1456  0.2617
  887MOL0     H19730   4.852   0.235   5.723 -0.0786  2.0649 -0.8135
  887MOL0     H19731   5.317   0.909   5.199 -0.2747 -2.4940 -0.8315
  887MOL0     H19732   5.274   1.013   5.395  0.8816 -2.2607  1.2244
  887MOL0     H19733   4.738   1.029   5.775  2.4251 -0.0299 -1.8900
  887MOL0     H19734   4.738   1.147   6.000 -2.1972  1.0380 -1.5160
  887MOL0     H19735   5.097   1.353   6.104 -0.4853 -1.0182 -0.2353
  887MOL0     H19736   4.984   1.491   6.108 -2.0779 -1.6096 -3.2756
  887MOL0     H19737   4.891   1.421   6.332  0.3548 -0.3068  0.2977
  887MOL0     H19738   5.063   1.461   6.327  1.4734  0.5452 -4.3581
  887MOL0     H19739   5.121   1.234   6.347 -0.5588  1.1806 -1.5020
  887MOL0     H19740   4.953   1.171   6.315 -3.9066  0.4457  2.1828
  887MOL0     H19741   4.887   1.273   6.530 -0.8457 -0.8885 -0.7006
  887MOL0     H19742   5.049   1.344   6.563 -0.5820  0.3130 -1.5838
  887MOL0     H19743   5.084   0.970   6.717 -2.2293  0.2816 -0.2177
  887MOL0     H19744   5.068   1.388   5.892 -0.3273  0.5618  0.2902
  887MOL0     H19745   5.085   1.255   5.663  3.1820  2.9337  3.2683
  888MOL0     O19746   7.380   6.456   3.463 -0.1572  0.2177 -0.3494
  888MOL0     C19747   7.269   6.471   3.418 -0.5061 -1.0254 -1.1655
  888MOL0     O19748   7.238   6.540   3.302  0.1764 -0.4047  0.6794
  888MOL0     C19749   7.340   6.612   3.224  0.1376  0.0322 -0.7558
  888MOL0     C19750   7.386   6.565   3.099 -0.9843  0.4343  0.3057
  888MOL0     C19751   7.489   6.630   3.026  0.2549  0.4746  0.1381
  888MOL0     C19752   7.549   6.738   3.095 -0.5950  0.0793  0.4251
  888MOL0     O19753   7.648   6.823   3.041 -0.2762  0.0774  0.1109
  888MOL0     C19754   7.705   6.788   2.917 -1.1891  1.3629  0.0017
  888MOL0     C19755   7.823   6.876   2.909 -0.4479 -0.1918  0.6395
  888MOL0     C19756   7.947   6.836   2.993 -0.1020 -0.5310  0.0734
  888MOL0     C19757   8.046   6.946   2.992  0.5633 -0.1441 -0.2215
  888MOL0     C19758   8.105   6.974   2.857 -0.0656  0.0128 -0.2887
  888MOL0     C19759   8.201   6.866   2.814  0.0061  0.2546  0.2436
  888MOL0     C19760   8.306   6.934   2.704  0.3228 -0.2472  0.3263
  888MOL0     C19761   8.424   6.847   2.705 -0.1517  0.3268  0.4385
  888MOL0     N19762   8.507   6.912   2.601 -0.3191  0.3849 -0.1604
  888MOL0     C19763   8.483   6.905   2.466 -0.1550 -0.4409 -0.6334
  888MOL0     C19764   8.606   6.919   2.404  0.0208 -0.2676 -0.5329
  888MOL0     C19765   8.630   6.903   2.255 -0.1725 -0.3265 -0.3856
  888MOL0     C19766   8.626   6.758   2.209 -0.9654  0.0547  0.2451
  888MOL0     C19767   8.670   6.755   2.054  0.2382  0.2893 -1.0573
  888MOL0     C19768   8.817   6.788   2.031  0.0144 -0.5088  0.4834
  888MOL0     O19769   8.844   6.798   1.888  0.7374  0.2508 -0.0075
  888MOL0     C19770   8.966   6.822   1.826 -0.3902  1.1843 -0.6824
  888MOL0     C19771   8.989   6.794   1.689 -0.3944 -0.9510 -0.7316
  888MOL0     C19772   9.113   6.811   1.630 -0.7058  0.2871  0.4547
  888MOL0     C19773   9.131   6.779   1.481 -0.2200  0.0137  0.0869
  888MOL0     C19774   9.229   6.836   1.711 -0.0810 -0.4900 -0.7183
  888MOL0     C19775   9.365   6.842   1.677  0.7731 -0.0889 -0.2265
  888MOL0     O19776   9.460   6.873   1.774  0.5291 -0.7094  0.0610
  888MOL0     C19777   9.587   6.890   1.726 -0.5163 -0.1341 -0.3067
  888MOL0     C19778   9.680   6.795   1.746  0.1474  0.7227 -0.5867
  888MOL0     C19779   9.810   6.798   1.702  0.1981  0.1686 -0.2085
  888MOL0     C19780   9.843   6.908   1.623  0.0773  0.1681  0.0795
  888MOL0     O19781   9.977   6.903   1.593  0.2075  0.3832  0.2190
  888MOL0     C19782  10.034   6.984   1.493  0.4672  0.2620  0.7763
  888MOL0     C19783  10.023   6.898   1.364 -0.3521 -0.5187 -1.1014
  888MOL0     C19784  10.092   6.964   1.249 -0.5051 -0.5680  1.0318
  888MOL0     C19785  10.026   6.910   1.128  0.6448 -0.9931 -0.1717
  888MOL0     C19786  10.071   6.964   0.989  1.3270 -0.4257 -0.4570
  888MOL0     C19787  10.077   7.118   0.993  0.4221 -0.4557 -0.2499
  888MOL0     C19788  10.070   7.163   0.849  0.4503 -0.1394  0.2505
  888MOL0     C19789  10.092   7.312   0.837  0.0495 -1.1863  0.3385
  888MOL0    Cl19790  10.264   7.377   0.867  0.2570 -0.0047  0.4631
  888MOL0     C19791   9.753   7.010   1.597 -1.1776  0.1218  0.3509
  888MOL0     C19792   9.624   6.997   1.640 -0.2650 -0.7334 -0.1378
  888MOL0     O19793   9.391   6.832   1.557 -0.5539  0.0851 -0.1762
  888MOL0     C19794   9.205   6.848   1.852 -0.2425 -1.0442  0.5850
  888MOL0     C19795   9.079   6.847   1.903 -0.3487 -0.6377 -0.5851
  888MOL0     N19796   8.701   6.925   2.505  0.8915  0.5880 -0.3167
  888MOL0     N19797   8.638   6.937   2.611 -0.2695  0.7107  0.6476
  888MOL0     C19798   7.484   6.795   3.210 -0.6525  0.2168  0.1465
  888MOL0     C19799   7.390   6.729   3.277  0.7102  0.3829  0.4504
  888MOL0     C19800   7.161   6.425   3.503 -0.2361 -0.9427 -1.1577
  888MOL0     C19801   7.034   6.483   3.504  0.0750  0.0573 -0.4691
  888MOL0     C19802   6.924   6.432   3.566  0.2642  0.3085 -0.1965
  888MOL0     C19803   6.941   6.324   3.655  0.5461  0.8603  0.0486
  888MOL0     O19804   6.828   6.281   3.718  0.1428 -0.5475 -0.5799
  888MOL0     C19805   6.851   6.174   3.823 -1.2568  0.4217 -0.1251
  888MOL0     C19806   6.744   6.174   3.919  0.7344  0.5554  0.4950
  888MOL0     C19807   6.755   6.278   4.032  0.3399  0.8690  0.5405
  888MOL0     C19808   6.632   6.295   4.134 -0.0665 -0.3606 -0.0714
  888MOL0     C19809   6.618   6.175   4.216 -0.1209  0.5715 -0.3404
  888MOL0     C19810   6.611   6.074   4.282  0.8596 -0.8621 -0.6186
  888MOL0     C19811   7.064   6.254   3.650 -0.2660  0.0148 -0.1720
  888MOL0     C19812   7.173   6.310   3.578  0.0626  0.6778 -0.5325
  888MOL0     H19813   7.354   6.471   3.054  0.1151 -0.1563  0.7223
  888MOL0     H19814   7.522   6.588   2.932  1.5282 -2.1613  1.6256
  888MOL0     H19815   7.747   6.687   2.917 -0.2515  1.7285  0.9526
  888MOL0     H19816   7.634   6.787   2.834 -1.6375 -1.2929  0.3024
  888MOL0     H19817   7.843   6.871   2.802  0.1515 -0.3699  0.7539
  888MOL0     H19818   7.784   6.976   2.930  1.9352  0.6045  1.5517
  888MOL0     H19819   7.925   6.818   3.098 -1.4431  1.9366  0.2941
  888MOL0     H19820   8.000   6.753   2.944  0.9343  0.6935 -0.9912
  888MOL0     H19821   7.999   7.041   3.022  0.3278  0.1992 -1.5849
  888MOL0     H19822   8.121   6.918   3.065 -0.1590  2.0575  1.4774
  888MOL0     H19823   8.025   6.990   2.783 -1.2070  1.7816  1.2187
  888MOL0     H19824   8.153   7.072   2.852  0.5412 -0.3074 -0.9354
  888MOL0     H19825   8.260   6.839   2.902  1.6234 -0.6228 -1.0733
  888MOL0     H19826   8.154   6.777   2.770  0.0450 -0.5435  1.7398
  888MOL0     H19827   8.271   6.921   2.601  1.3393 -0.4781  0.0007
  888MOL0     H19828   8.341   7.036   2.718  1.5605 -0.6900  0.5345
  888MOL0     H19829   8.396   6.743   2.689 -2.4409  1.1145 -1.3400
  888MOL0     H19830   8.479   6.849   2.799  0.4317  1.4786  0.0949
  888MOL0     H19831   8.388   6.870   2.429 -2.0882  1.3021  2.2792
  888MOL0     H19832   8.563   6.970   2.201 -0.7879  0.7295  1.5740
  888MOL0     H19833   8.730   6.946   2.241 -0.3435 -0.2905 -1.5946
  888MOL0     H19834   8.522   6.723   2.211 -1.1518  0.5308 -0.5960
  888MOL0     H19835   8.685   6.700   2.280 -2.4987  0.1711  1.6888
  888MOL0     H19836   8.617   6.832   1.996 -0.6147  1.6604  1.4018
  888MOL0     H19837   8.653   6.655   2.014  0.7078 -1.6775  3.2064
  888MOL0     H19838   8.883   6.709   2.067  2.4382  1.5867  0.9484
  888MOL0     H19839   8.837   6.880   2.088  1.1355  0.5806 -1.5765
  888MOL0     H19840   8.898   6.758   1.642 -0.0047 -0.6737 -1.7187
  888MOL0     H19841   9.185   6.865   1.440  3.7696 -1.2458  2.1170
  888MOL0     H19842   9.195   6.695   1.452  0.0012  0.6576 -1.3494
  888MOL0     H19843   9.034   6.767   1.433  1.5905  0.6625 -4.1910
  888MOL0     H19844   9.660   6.705   1.803  1.4452  2.6574  3.2895
  888MOL0     H19845   9.879   6.721   1.732  2.7241  0.0263 -5.2748
  888MOL0     H19846   9.988   7.082   1.478  0.9782  0.1252 -2.3050
  888MOL0     H19847  10.139   7.001   1.517  0.5439  0.2855  0.4203
  888MOL0     H19848  10.082   6.808   1.384  0.2527  0.2558  0.7945
  888MOL0     H19849   9.922   6.863   1.338  0.4031 -1.8297 -2.4059
  888MOL0     H19850  10.199   6.947   1.239 -0.0914  0.6943  2.9224
  888MOL0     H19851  10.069   7.070   1.260 -3.6959 -1.1647  1.3432
  888MOL0     H19852  10.035   6.802   1.114  4.1515 -0.8975  0.6477
  888MOL0     H19853   9.920   6.937   1.135  1.2501  1.6151  0.0362
  888MOL0     H19854   9.998   6.933   0.914  1.7344 -0.8231 -0.6986
  888MOL0     H19855  10.173   6.934   0.962  1.2627 -0.3606 -0.7710
  888MOL0     H19856   9.989   7.163   1.040 -0.6486 -0.8824 -1.7844
  888MOL0     H19857  10.171   7.154   1.036  0.0840 -1.1674  1.1537
  888MOL0     H19858   9.976   7.128   0.807  2.2054 -0.5230 -3.7913
  888MOL0     H19859  10.140   7.113   0.781 -0.1561 -1.9739  0.9253
  888MOL0     H19860  10.013   7.354   0.901 -0.5366 -1.1201 -0.4148
  888MOL0     H19861  10.078   7.355   0.738  0.0438 -0.4653  0.6488
  888MOL0     H19862   9.778   7.095   1.535 -0.9572 -0.9612 -1.1034
  888MOL0     H19863   9.559   7.082   1.622  2.5259  1.4544 -0.6335
  888MOL0     H19864   9.283   6.869   1.925  0.3632  1.6958 -0.7004
  888MOL0     H19865   9.071   6.863   2.010 -1.5360 -1.4307 -0.5254
  888MOL0     H19866   7.531   6.880   3.258  4.0200 -2.5369  1.0531
  888MOL0     H19867   7.367   6.765   3.378 -2.5887  0.2998 -0.1536
  888MOL0     H19868   7.026   6.572   3.442 -0.3303  0.0990 -0.3576
  888MOL0     H19869   6.826   6.479   3.568  1.5973  3.3232  1.6486
  888MOL0     H19870   6.858   6.071   3.787 -2.6372 -1.3974  4.1532
  888MOL0     H19871   6.943   6.206   3.872  0.2720 -2.2894 -0.9822
  888MOL0     H19872   6.760   6.074   3.962  0.4883  0.6854  0.8994
  888MOL0     H19873   6.650   6.179   3.864 -1.3142 -0.5182  3.6000
  888MOL0     H19874   6.770   6.381   4.000 -0.8410  0.4074 -1.6847
  888MOL0     H19875   6.838   6.247   4.096 -0.2839 -0.6991  0.6431
  888MOL0     H19876   6.537   6.314   4.083  0.0482  0.8001  0.1150
  888MOL0     H19877   6.651   6.383   4.197 -2.8643  0.6232 -0.4445
  888MOL0     H19878   6.594   5.988   4.344  0.4394  0.0675  0.5995
  888MOL0     H19879   7.081   6.160   3.701  0.9225  0.3841  0.1343
  888MOL0     H19880   7.267   6.255   3.567  0.6632  1.7285 -0.8105
  889MOL0     O19881   6.308   5.428   8.557 -0.0650  0.2397 -0.6199
  889MOL0     C19882   6.332   5.454   8.681  0.8623 -0.5051 -0.3116
  889MOL0     O19883   6.248   5.524   8.762 -0.5762 -0.1811 -1.8039
  889MOL0     C19884   6.140   5.586   8.698  0.3539 -0.6595  1.0457
  889MOL0     C19885   6.140   5.723   8.675 -0.2207  0.4236 -1.0148
  889MOL0     C19886   6.030   5.793   8.640  0.6417  0.8356  0.5377
  889MOL0     C19887   5.906   5.724   8.609  0.3984  1.0424  0.6329
  889MOL0     O19888   5.792   5.791   8.568 -0.0869 -0.1305  0.4336
  889MOL0     C19889   5.655   5.731   8.572 -1.0651  0.5257 -0.0434
  889MOL0     C19890   5.550   5.837   8.576  0.6791 -0.1332  0.9277
  889MOL0     C19891   5.514   5.872   8.721 -0.1839  0.3387 -0.4587
  889MOL0     C19892   5.386   5.953   8.730 -0.3189  0.5452  0.1485
  889MOL0     C19893   5.383   6.033   8.861  0.1135  0.0299  0.6898
  889MOL0     C19894   5.273   6.141   8.883 -0.6887 -0.3970  0.5921
  889MOL0     C19895   5.313   6.224   9.003 -0.9207 -0.3171 -0.4397
  889MOL0     C19896   5.202   6.337   9.021 -0.0349 -0.1580  0.5510
  889MOL0     N19897   5.251   6.458   9.076  0.7275  0.4642 -0.1768
  889MOL0     C19898   5.371   6.471   9.140  0.0696 -0.8645  0.2450
  889MOL0     C19899   5.376   6.606   9.158 -0.8122 -0.0218  0.0545
  889MOL0     C19900   5.498   6.685   9.217 -0.4919 -0.0509 -0.8397
  889MOL0     C19901   5.563   6.772   9.109  0.5697  0.1754 -0.7535
  889MOL0     C19902   5.659   6.872   9.171 -0.5666 -0.3504 -0.4629
  889MOL0     C19903   5.761   6.932   9.079  1.7764  0.5602 -0.0054
  889MOL0     O19904   5.880   6.961   9.146  0.3677 -0.2479  0.9124
  889MOL0     C19905   5.961   7.059   9.096 -0.7955  0.7157  0.4920
  889MOL0     C19906   5.970   7.089   8.958 -0.2616  0.5131  0.5011
  889MOL0     C19907   6.047   7.185   8.898 -1.0311 -0.0169 -0.5231
  889MOL0     C19908   6.047   7.185   8.749  0.1017  0.6118  0.2128
  889MOL0     C19909   6.133   7.261   8.986  0.8060 -0.4790 -0.6450
  889MOL0     C19910   6.227   7.365   8.945 -1.5156  0.0141  0.2106
  889MOL0     O19911   6.275   7.367   8.813  0.6362  0.4551 -0.4967
  889MOL0     C19912   6.323   7.493   8.768  0.6396 -0.1022  0.8216
  889MOL0     C19913   6.454   7.513   8.754 -0.7789 -0.2062 -0.8601
  889MOL0     C19914   6.509   7.639   8.732  0.3315 -0.1026 -0.2122
  889MOL0     C19915   6.425   7.742   8.699  1.7414 -0.1212 -0.2634
  889MOL0     O19916   6.479   7.866   8.683  0.4935  0.2742  0.8186
  889MOL0     C19917   6.388   7.983   8.664  0.7609  0.0565  0.0816
  889MOL0     C19918   6.456   8.115   8.693  0.0349 -0.0261  0.7439
  889MOL0     C19919   6.522   8.164   8.569 -0.8345  0.3859 -0.3855
  889MOL0     C19920   6.637   8.081   8.517  0.6007 -0.1636  0.0242
  889MOL0     C19921   6.743   8.063   8.616  0.5894  0.8645  0.2691
  889MOL0     C19922   6.870   8.005   8.552 -0.3727 -0.2023  0.3115
  889MOL0     C19923   6.853   7.857   8.510  0.1300 -0.4366 -0.1746
  889MOL0     C19924   6.987   7.805   8.465  0.3768  0.1653 -0.1995
  889MOL0    Cl19925   7.024   7.886   8.322  0.6414 -0.1476  0.3717
  889MOL0     C19926   6.280   7.715   8.703 -0.0283 -0.1129 -0.5329
  889MOL0     C19927   6.230   7.597   8.742 -0.8801  0.3197  0.2076
  889MOL0     O19928   6.265   7.436   9.036 -0.1959 -0.2618 -0.1282
  889MOL0     C19929   6.131   7.228   9.124 -0.5517  0.6745  0.2561
  889MOL0     C19930   6.043   7.131   9.177 -0.1785 -0.4665  0.3225
  889MOL0     N19931   5.251   6.657   9.128 -0.5954  0.0671 -0.6757
  889MOL0     N19932   5.180   6.574   9.077 -0.1758  0.2319 -0.3651
  889MOL0     C19933   5.907   5.584   8.624 -0.0254  0.2613 -0.7912
  889MOL0     C19934   6.020   5.513   8.673  0.9009 -0.3538 -0.6875
  889MOL0     C19935   6.458   5.404   8.737 -0.4077 -0.1772  0.3707
  889MOL0     C19936   6.546   5.323   8.655  0.1539 -0.8511  0.0172
  889MOL0     C19937   6.657   5.264   8.713  0.4866 -1.2595 -0.2205
  889MOL0     C19938   6.682   5.273   8.853 -0.0798  0.5713  0.5511
  889MOL0     O19939   6.781   5.211   8.917 -0.3468  0.7691 -0.0940
  889MOL0     C19940   6.915   5.275   8.914 -0.5875  0.5816  0.1605
  889MOL0     C19941   6.962   5.328   9.051  0.2992 -0.0951  0.1142
  889MOL0     C19942   6.892   5.457   9.101 -0.7048 -0.3726 -0.2237
  889MOL0     C19943   6.982   5.539   9.203 -0.2435 -0.1730  0.5315
  889MOL0     C19944   7.036   5.460   9.314  0.2047  0.8980  0.5914
  889MOL0     C19945   7.101   5.397   9.394  0.1589 -0.7208 -0.7113
  889MOL0     C19946   6.603   5.346   8.933 -0.2316  0.1453 -0.3396
  889MOL0     C19947   6.490   5.417   8.873 -0.8623 -0.2389 -0.4736
  889MOL0     H19948   6.233   5.777   8.684  1.0862 -1.7144 -0.9123
  889MOL0     H19949   6.044   5.898   8.616 -1.8144  1.3069  0.8954
  889MOL0     H19950   5.648   5.669   8.482  0.5079 -0.0751  0.2147
  889MOL0     H19951   5.636   5.659   8.652  0.1009 -0.0033 -0.2304
  889MOL0     H19952   5.598   5.917   8.518 -0.5052  0.8302  1.2463
  889MOL0     H19953   5.470   5.791   8.517  1.7900 -1.2002  0.1837
  889MOL0     H19954   5.497   5.782   8.781  1.9349  1.2993  1.7725
  889MOL0     H19955   5.583   5.940   8.772 -0.8394  0.5127  0.1980
  889MOL0     H19956   5.378   6.019   8.643 -0.4122 -1.5035 -1.4720
  889MOL0     H19957   5.299   5.887   8.725  1.4775 -1.8978 -1.2357
  889MOL0     H19958   5.383   5.958   8.940  0.2467  0.7643  1.4013
  889MOL0     H19959   5.471   6.096   8.844 -0.6067  0.9272  0.1532
  889MOL0     H19960   5.281   6.210   8.798  0.1586 -0.0059  0.9733
  889MOL0     H19961   5.176   6.093   8.895 -0.0963 -1.3460  1.7535
  889MOL0     H19962   5.305   6.166   9.096 -2.4179  2.0486  1.0022
  889MOL0     H19963   5.413   6.263   8.983 -0.1752 -1.1563  1.4421
  889MOL0     H19964   5.107   6.299   9.061 -1.0779 -0.8021 -2.3051
  889MOL0     H19965   5.164   6.358   8.921  0.0663 -3.3169 -0.2360
  889MOL0     H19966   5.449   6.397   9.150  0.5066 -0.6810 -1.5153
  889MOL0     H19967   5.451   6.749   9.293 -0.3999 -0.5229 -0.3821
  889MOL0     H19968   5.585   6.626   9.248 -1.8975 -3.7981 -3.3778
  889MOL0     H19969   5.487   6.830   9.055 -1.3015 -0.0617  1.4614
  889MOL0     H19970   5.622   6.707   9.044 -0.1074 -0.7345 -0.4693
  889MOL0     H19971   5.706   6.825   9.257  0.6841 -0.5177 -1.2081
  889MOL0     H19972   5.597   6.955   9.207 -4.6866 -1.1791 -4.6612
  889MOL0     H19973   5.715   7.020   9.034 -3.4823 -1.7960  0.0065
  889MOL0     H19974   5.782   6.860   8.999 -1.0166 -1.9445  1.2929
  889MOL0     H19975   5.927   7.018   8.888  1.2645  0.0068  0.0453
  889MOL0     H19976   6.075   7.086   8.712 -3.0415  0.6355 -2.6966
  889MOL0     H19977   5.950   7.215   8.708 -0.4598 -1.7106 -0.3205
  889MOL0     H19978   6.114   7.259   8.704  1.4607 -0.3955  0.5262
  889MOL0     H19979   6.519   7.429   8.777 -3.2081 -1.7048  0.9143
  889MOL0     H19980   6.617   7.655   8.723  1.2150 -2.3503  4.0605
  889MOL0     H19981   6.343   7.975   8.565  3.8512 -1.2731 -1.3425
  889MOL0     H19982   6.319   7.969   8.748  4.3948 -3.7639  2.8894
  889MOL0     H19983   6.385   8.195   8.715  2.6803  1.8940  2.7733
  889MOL0     H19984   6.516   8.088   8.780  3.0739  0.5233 -1.0477
  889MOL0     H19985   6.561   8.263   8.592  0.6732  0.0989 -1.5256
  889MOL0     H19986   6.444   8.185   8.495 -3.1962  0.6151  2.0067
  889MOL0     H19987   6.595   7.990   8.474  1.1492  0.1863 -1.2999
  889MOL0     H19988   6.666   8.135   8.426 -0.2978  1.0437  0.4160
  889MOL0     H19989   6.710   7.990   8.691 -0.4050  0.3880 -0.6079
  889MOL0     H19990   6.777   8.153   8.667  0.8853 -0.4901  2.6029
  889MOL0     H19991   6.893   8.074   8.471 -1.3829  0.7207  0.7744
  889MOL0     H19992   6.947   8.010   8.629 -1.5631 -3.0681  1.8424
  889MOL0     H19993   6.782   7.849   8.428 -0.8132 -3.0482  0.7906
  889MOL0     H19994   6.814   7.810   8.601 -1.4318 -0.4254 -0.8053
  889MOL0     H19995   6.975   7.699   8.440 -1.8994  0.1432  0.7628
  889MOL0     H19996   7.063   7.809   8.543 -2.0818 -0.4166  2.3689
  889MOL0     H19997   6.211   7.799   8.690 -0.6646 -0.9170 -2.7775
  889MOL0     H19998   6.124   7.574   8.740 -0.2953 -2.6763 -0.9245
  889MOL0     H19999   6.198   7.278   9.192 -1.9777  0.6450  1.7393
  889MOL0     H20000   6.050   7.111   9.284  3.3937  1.1926  0.5276
  889MOL0     H20001   5.813   5.531   8.619  0.3851 -0.4094 -1.5042
  889MOL0     H20002   6.029   5.405   8.682 -0.9298 -0.3931  2.2430
  889MOL0     H20003   6.543   5.321   8.546  2.5868  1.3505 -0.1783
  889MOL0     H20004   6.743   5.216   8.668  2.0441  0.3558  0.9084
  889MOL0     H20005   6.977   5.190   8.885 -0.5424  1.0179 -1.0938
  889MOL0     H20006   6.927   5.357   8.843  2.1967 -0.3795 -0.6095
  889MOL0     H20007   7.068   5.358   9.053 -0.6616  4.0401  3.1527
  889MOL0     H20008   6.953   5.242   9.119 -4.4398 -2.1407 -2.6088
  889MOL0     H20009   6.807   5.426   9.163 -1.1721  1.6290  0.2194
  889MOL0     H20010   6.864   5.520   9.016  2.3627  0.7304 -0.5388
  889MOL0     H20011   6.919   5.621   9.240  1.7658  1.3879  0.6759
  889MOL0     H20012   7.066   5.576   9.143  1.2395 -2.4037  1.0772
  889MOL0     H20013   7.141   5.343   9.477 -1.3909 -1.6603 -0.5381
  889MOL0     H20014   6.644   5.371   9.031 -2.9679  1.4036  0.5826
  889MOL0     H20015   6.428   5.471   8.944 -0.2518 -1.2608  0.8906
  890MOL0     O20016   4.638   2.978   8.334  0.1975 -0.5584  0.5284
  890MOL0     C20017   4.722   2.892   8.368  0.4692 -0.3757 -0.5006
  890MOL0     O20018   4.759   2.788   8.288  0.9181 -0.9124 -0.4710
  890MOL0     C20019   4.676   2.758   8.181 -0.6851  0.0008  0.4373
  890MOL0     C20020   4.695   2.818   8.061  0.3096  0.0574 -0.0567
  890MOL0     C20021   4.603   2.794   7.959  0.1591  0.1265 -0.3537
  890MOL0     C20022   4.495   2.707   7.970 -0.0578  0.1762  0.4109
  890MOL0     O20023   4.391   2.679   7.872 -0.0691 -0.0545 -0.9837
  890MOL0     C20024   4.415   2.738   7.748  0.4192 -0.6030 -0.1402
  890MOL0     C20025   4.531   2.675   7.661 -0.1499  0.8165  0.2249
  890MOL0     C20026   4.490   2.623   7.515 -0.8588 -0.8717  0.5535
  890MOL0     C20027   4.603   2.545   7.450  0.1588  0.5730 -0.0682
  890MOL0     C20028   4.563   2.473   7.319 -0.1297  0.5078  0.6684
  890MOL0     C20029   4.578   2.546   7.189  0.1981 -0.0228  0.1105
  890MOL0     C20030   4.537   2.462   7.064  0.1459  0.7427  0.4743
  890MOL0     C20031   4.492   2.542   6.949  0.6385  0.0426  0.3342
  890MOL0     N20032   4.479   2.458   6.837 -0.1020 -1.1715  0.4700
  890MOL0     C20033   4.398   2.347   6.840  0.0398 -0.6988  0.4915
  890MOL0     C20034   4.393   2.304   6.709 -0.5542 -0.4075 -0.3840
  890MOL0     C20035   4.316   2.186   6.657 -0.4995  0.5883 -0.1209
  890MOL0     C20036   4.165   2.195   6.647  0.8911  0.7768 -0.5584
  890MOL0     C20037   4.117   2.294   6.547  0.2502  0.2069 -0.1233
  890MOL0     C20038   4.067   2.427   6.597 -0.5191 -0.0077 -0.0582
  890MOL0     O20039   4.009   2.503   6.488  0.3467  0.4778  0.1043
  890MOL0     C20040   4.078   2.605   6.434  0.7207  0.9805 -0.0314
  890MOL0     C20041   4.218   2.608   6.416 -0.0723  0.8503 -0.2421
  890MOL0     C20042   4.287   2.721   6.358  0.0766  0.4560 -1.0218
  890MOL0     C20043   4.437   2.723   6.352 -0.1391  0.4341 -1.0056
  890MOL0     C20044   4.214   2.839   6.330 -0.4274  0.3696  0.5459
  890MOL0     C20045   4.262   2.971   6.277 -0.1730 -0.2480 -0.4205
  890MOL0     O20046   4.397   2.998   6.291  0.0288  0.1896 -0.2571
  890MOL0     C20047   4.463   3.106   6.233 -0.3945  0.1353  0.4192
  890MOL0     C20048   4.598   3.098   6.245 -0.3698  0.2400  0.2377
  890MOL0     C20049   4.679   3.194   6.185  0.2361  0.7980 -0.8649
  890MOL0     C20050   4.623   3.306   6.125 -0.4005  0.1330 -0.3256
  890MOL0     O20051   4.717   3.398   6.078 -0.3966 -0.5849 -0.5393
  890MOL0     C20052   4.678   3.498   5.987  0.7086  0.1934  0.2646
  890MOL0     C20053   4.663   3.642   6.064 -0.5878  0.3067  0.3891
  890MOL0     C20054   4.645   3.761   5.959  0.5503 -0.4504 -0.0666
  890MOL0     C20055   4.775   3.827   5.888 -1.7152  0.6925 -1.7524
  890MOL0     C20056   4.881   3.874   5.998 -0.0450 -0.4973  1.7381
  890MOL0     C20057   4.999   3.928   5.923  0.2161 -0.4003  0.3519
  890MOL0     C20058   5.132   3.896   5.975 -1.0465  1.0547  0.5505
  890MOL0     C20059   5.246   3.939   5.882 -0.0635  0.0573 -0.5797
  890MOL0    Cl20060   5.238   4.116   5.831  0.6360 -0.0662 -0.1122
  890MOL0     C20061   4.485   3.314   6.098  0.1074 -0.3136 -0.9023
  890MOL0     C20062   4.407   3.208   6.152  0.0295 -0.3518  0.3933
  890MOL0     O20063   4.175   3.042   6.227 -0.0473 -0.1269 -0.0994
  890MOL0     C20064   4.075   2.831   6.351  1.2405 -1.0049  0.3153
  890MOL0     C20065   4.013   2.710   6.395 -0.0028 -0.3039  0.4459
  890MOL0     N20066   4.471   2.389   6.634  0.4678  0.6356 -0.5128
  890MOL0     N20067   4.535   2.470   6.710  0.1319  0.2695 -0.2045
  890MOL0     C20068   4.481   2.641   8.091 -0.4177 -0.5262 -0.3610
  890MOL0     C20069   4.568   2.671   8.196 -0.0793  0.3081  0.1224
  890MOL0     C20070   4.776   2.914   8.504  0.2222  0.8751  0.0441
  890MOL0     C20071   4.860   2.816   8.565 -0.8214  0.0542 -0.5959
  890MOL0     C20072   4.913   2.833   8.692  0.2231  1.2166  0.1777
  890MOL0     C20073   4.881   2.943   8.777  1.2035 -0.4923 -0.1014
  890MOL0     O20074   4.923   2.962   8.905 -0.3476  0.3216 -0.3258
  890MOL0     C20075   4.972   2.842   8.978 -0.0538  0.0999 -0.3424
  890MOL0     C20076   5.014   2.872   9.120 -0.2891 -0.1537 -0.0112
  890MOL0     C20077   4.921   2.957   9.207  0.0744  0.0470  0.3927
  890MOL0     C20078   4.937   3.108   9.198 -0.2255  0.7387  0.7351
  890MOL0     C20079   5.069   3.152   9.223  0.0599 -0.4170 -1.0846
  890MOL0     C20080   5.186   3.175   9.227  0.4105 -1.4419 -0.0924
  890MOL0     C20081   4.802   3.040   8.711  0.0814 -0.0591  0.6376
  890MOL0     C20082   4.746   3.022   8.584 -0.5720 -0.0430 -0.3748
  890MOL0     H20083   4.786   2.876   8.054  1.3727 -1.6440 -0.8788
  890MOL0     H20084   4.605   2.856   7.870 -2.2052  0.4381 -0.2536
  890MOL0     H20085   4.321   2.744   7.692 -0.5894  1.0366  1.6168
  890MOL0     H20086   4.445   2.843   7.760  3.0789 -0.8626 -3.0945
  890MOL0     H20087   4.609   2.749   7.646  0.2761  0.7098  1.7409
  890MOL0     H20088   4.570   2.581   7.701  3.1751  0.1917 -3.8300
  890MOL0     H20089   4.406   2.556   7.536 -0.4568 -1.0340  1.6749
  890MOL0     H20090   4.473   2.703   7.442  1.1087 -0.0337  0.9543
  890MOL0     H20091   4.688   2.611   7.429 -0.4904  0.8078 -2.2346
  890MOL0     H20092   4.637   2.464   7.515  2.2024  0.5677 -1.0384
  890MOL0     H20093   4.615   2.377   7.321 -1.3539 -0.3549  5.8845
  890MOL0     H20094   4.457   2.446   7.326 -0.3994  1.2885 -0.2124
  890MOL0     H20095   4.520   2.638   7.201 -0.9310 -0.6532 -0.3888
  890MOL0     H20096   4.683   2.568   7.168  0.6274 -0.4423  1.6780
  890MOL0     H20097   4.616   2.395   7.030 -0.6273  0.1574 -0.2401
  890MOL0     H20098   4.461   2.387   7.087  1.4431 -1.4786 -1.8724
  890MOL0     H20099   4.570   2.615   6.924  0.6093 -0.4337 -1.2212
  890MOL0     H20100   4.396   2.590   6.966 -0.7973 -2.2946 -0.7178
  890MOL0     H20101   4.347   2.303   6.925 -1.3739 -0.2379 -0.0740
  890MOL0     H20102   4.345   2.169   6.553 -2.5310 -1.2311 -0.4721
  890MOL0     H20103   4.344   2.091   6.705  2.9457  1.0298 -0.9956
  890MOL0     H20104   4.123   2.224   6.744 -1.0186  1.2819 -1.4878
  890MOL0     H20105   4.125   2.097   6.622  2.9744 -0.6978  1.4332
  890MOL0     H20106   4.029   2.260   6.491 -0.5484  1.9455  0.0181
  890MOL0     H20107   4.203   2.314   6.483  0.0640 -1.2470 -0.8661
  890MOL0     H20108   4.159   2.476   6.631  0.1580 -3.0918  3.1393
  890MOL0     H20109   4.000   2.411   6.683  1.3153 -2.2417  1.0579
  890MOL0     H20110   4.278   2.520   6.439 -1.1319 -0.9780 -3.7726
  890MOL0     H20111   4.472   2.622   6.376 -1.8427  0.2734  1.0503
  890MOL0     H20112   4.481   2.747   6.254  2.9358  1.4629  0.4932
  890MOL0     H20113   4.474   2.800   6.420 -1.3242 -1.1398  1.5306
  890MOL0     H20114   4.631   3.016   6.308 -2.0605  1.3891  2.7816
  890MOL0     H20115   4.787   3.189   6.198  0.4024  2.3547 -1.3511
  890MOL0     H20116   4.756   3.499   5.910  0.7300  2.2592  0.2600
  890MOL0     H20117   4.584   3.478   5.935  1.8348 -5.0457 -0.2473
  890MOL0     H20118   4.575   3.644   6.129 -1.1662 -2.5763 -0.1738
  890MOL0     H20119   4.748   3.668   6.128  0.1383 -0.0227 -0.4219
  890MOL0     H20120   4.589   3.838   6.012  3.0519  0.7954  0.9719
  890MOL0     H20121   4.577   3.721   5.883 -0.7683 -2.1002  1.8805
  890MOL0     H20122   4.821   3.745   5.833 -1.1498 -0.7530  0.7342
  890MOL0     H20123   4.753   3.919   5.832 -1.3657  1.5554 -0.5104
  890MOL0     H20124   4.915   3.784   6.051  0.5544 -0.5237  1.3261
  890MOL0     H20125   4.837   3.950   6.063  0.8924  1.8731 -0.2322
  890MOL0     H20126   4.994   3.891   5.821 -0.3960 -0.5062  0.4163
  890MOL0     H20127   4.994   4.038   5.918 -0.0909 -0.4755 -1.2207
  890MOL0     H20128   5.149   3.792   6.006  0.7707  0.2660 -2.6518
  890MOL0     H20129   5.140   3.948   6.071  0.2661 -0.6594  1.4405
  890MOL0     H20130   5.259   3.870   5.798  0.6893 -1.5263  0.7711
  890MOL0     H20131   5.349   3.936   5.920  0.9391  2.2001 -2.8894
  890MOL0     H20132   4.444   3.400   6.047 -1.9321 -0.2883  0.6655
  890MOL0     H20133   4.300   3.223   6.139  0.5687  3.8142 -0.8188
  890MOL0     H20134   4.011   2.914   6.322 -0.6728 -2.1004  1.2399
  890MOL0     H20135   3.905   2.707   6.410 -0.8418  0.8580 -3.7942
  890MOL0     H20136   4.397   2.573   8.108 -0.8309 -0.1497 -0.8778
  890MOL0     H20137   4.566   2.619   8.292  1.9092 -0.9807 -0.4641
  890MOL0     H20138   4.905   2.733   8.510 -3.3819 -1.6462 -0.2900
  890MOL0     H20139   4.976   2.751   8.726  0.7989  1.7235  0.3596
  890MOL0     H20140   4.907   2.755   8.983  0.6578 -0.3858  2.6283
  890MOL0     H20141   5.064   2.802   8.933  0.1526  0.9123 -0.6647
  890MOL0     H20142   5.112   2.919   9.120 -0.7773  0.9766 -1.7080
  890MOL0     H20143   5.016   2.775   9.170 -2.2015 -1.1676 -1.7322
  890MOL0     H20144   4.922   2.925   9.311  1.3682  0.8314  0.6437
  890MOL0     H20145   4.824   2.928   9.166  0.9328  0.1924 -1.9391
  890MOL0     H20146   4.874   3.151   9.277  0.7083  0.8318  1.4593
  890MOL0     H20147   4.907   3.143   9.099  1.6984 -0.2841 -0.2602
  890MOL0     H20148   5.291   3.196   9.234 -0.2103  2.3271  0.1635
  890MOL0     H20149   4.767   3.122   8.773 -2.1254 -1.2383  1.0608
  890MOL0     H20150   4.672   3.095   8.555 -1.5631 -0.9362 -0.1687
  891MOL0     O20151  11.244   8.181   0.805  0.1806  0.1215 -0.4298
  891MOL0     C20152  11.147   8.127   0.858  0.0927 -0.3531 -0.3385
  891MOL0     O20153  11.032   8.185   0.894 -0.5057  0.2180  0.2566
  891MOL0     C20154  11.014   8.323   0.901  0.2028  0.5182  0.3206
  891MOL0     C20155  11.112   8.398   0.963 -0.8506 -0.5813  0.3668
  891MOL0     C20156  11.085   8.534   0.980  0.1932 -0.1447 -0.5542
  891MOL0     C20157  10.974   8.604   0.925  0.5259  0.2315  0.4925
  891MOL0     O20158  10.938   8.736   0.961  0.0183 -0.3892 -0.2486
  891MOL0     C20159  11.032   8.814   1.040 -0.3510  0.0616  0.7071
  891MOL0     C20160  10.969   8.936   1.093 -1.3096  0.8063 -0.5978
  891MOL0     C20161  11.077   9.045   1.119 -0.4864  0.8081 -0.7591
  891MOL0     C20162  11.009   9.149   1.201 -0.0944 -0.0173  0.0268
  891MOL0     C20163  11.104   9.265   1.207 -0.8745 -0.5510 -0.3405
  891MOL0     C20164  11.093   9.340   1.073  0.1710  0.2353 -0.3036
  891MOL0     C20165  11.175   9.471   1.070  0.4415  0.3685 -0.3119
  891MOL0     C20166  11.097   9.576   1.153 -0.2127  0.6634  0.2268
  891MOL0     N20167  11.129   9.707   1.110  0.1017 -0.1698  0.3148
  891MOL0     C20168  11.258   9.762   1.104 -0.8033 -0.4288  0.0492
  891MOL0     C20169  11.242   9.882   1.044 -0.8876 -0.3689  0.2368
  891MOL0     C20170  11.363   9.970   1.002 -0.4754  0.5710  0.3000
  891MOL0     C20171  11.442   9.905   0.884  0.5254  1.0459  0.0577
  891MOL0     C20172  11.379   9.906   0.746 -0.0051  0.4643 -0.0554
  891MOL0     C20173  11.373  10.045   0.670 -0.7260  1.0517 -0.9354
  891MOL0     O20174  11.502  10.084   0.621 -0.0417 -0.4471  0.2368
  891MOL0     C20175  11.568  10.015   0.517 -1.0325 -0.2574 -0.7821
  891MOL0     C20176  11.530   9.911   0.433 -0.1594 -0.6566 -0.7212
  891MOL0     C20177  11.610   9.866   0.329  0.8925  1.0107 -0.2881
  891MOL0     C20178  11.554   9.753   0.254  0.0249  0.0394  0.2352
  891MOL0     C20179  11.742   9.918   0.303 -0.1716  0.8959  0.1418
  891MOL0     C20180  11.850   9.850   0.219 -1.4606  0.0221  0.7498
  891MOL0     O20181  11.946   9.929   0.163  1.0709  0.1587  0.6377
  891MOL0     C20182  12.064   9.874   0.115  0.4224  0.6458 -0.7814
  891MOL0     C20183  12.076   9.827  -0.019 -0.6859 -0.4559 -0.6866
  891MOL0     C20184  12.194   9.761  -0.065  1.0130  0.8632 -0.2497
  891MOL0     C20185  12.293   9.736   0.028 -0.1568 -0.0468  0.4965
  891MOL0     O20186  12.405   9.661  -0.003 -0.2789  0.7457 -0.5890
  891MOL0     C20187  12.473   9.708  -0.121 -0.5348  0.7056 -0.2009
  891MOL0     C20188  12.624   9.703  -0.108  0.9585 -0.1621  0.1750
  891MOL0     C20189  12.690   9.564  -0.085  0.5902  0.3227 -0.7553
  891MOL0     C20190  12.846   9.572  -0.079  0.2206 -0.2197  1.1501
  891MOL0     C20191  12.896   9.614   0.056  0.4255 -0.2198  0.3520
  891MOL0     C20192  13.044   9.556   0.067 -0.0833  0.5866  0.3463
  891MOL0     C20193  13.126   9.599   0.203 -0.5512  0.3453  0.4299
  891MOL0     C20194  13.271   9.562   0.195  0.0644  0.7304  0.3306
  891MOL0    Cl20195  13.349   9.670   0.074  0.1078  0.1538  0.0969
  891MOL0     C20196  12.284   9.781   0.162  0.0663 -0.0044 -0.3162
  891MOL0     C20197  12.171   9.840   0.212  0.0049 -0.4356  0.3213
  891MOL0     O20198  11.845   9.728   0.205 -1.0819  0.3082  0.5704
  891MOL0     C20199  11.777  10.031   0.388 -1.3877  0.7081 -0.3169
  891MOL0     C20200  11.692  10.074   0.500  0.5558  0.2455 -0.5993
  891MOL0     N20201  11.104   9.912   1.017 -0.2195  0.0409 -1.2414
  891MOL0     N20202  11.042   9.807   1.070  0.1553  1.3433  0.6526
  891MOL0     C20203  10.874   8.518   0.870  0.4681  0.2017  0.5023
  891MOL0     C20204  10.891   8.383   0.853  0.6741 -0.1896  0.4852
  891MOL0     C20205  11.136   7.982   0.877 -0.0481  0.1129  0.4860
  891MOL0     C20206  11.050   7.924   0.973 -0.2029 -0.9296  0.2157
  891MOL0     C20207  11.060   7.791   0.997  0.1182  0.1957 -0.4266
  891MOL0     C20208  11.130   7.703   0.911 -1.0782  0.3804 -0.9405
  891MOL0     O20209  11.135   7.563   0.918  0.1600 -0.1610 -0.3135
  891MOL0     C20210  11.047   7.492   1.006  0.2776 -1.0428  0.4614
  891MOL0     C20211  11.057   7.340   0.988  0.2353  1.4245 -0.5898
  891MOL0     C20212  11.192   7.287   1.040 -0.1426  0.1554  0.1146
  891MOL0     C20213  11.201   7.134   1.012 -0.2098  0.3539 -0.5786
  891MOL0     C20214  11.333   7.090   0.963 -0.3023  0.6692  0.0685
  891MOL0     C20215  11.436   7.064   0.908  0.2555 -0.3524 -0.5564
  891MOL0     C20216  11.210   7.757   0.815  0.6175 -0.3928  0.0181
  891MOL0     C20217  11.218   7.897   0.803 -0.2135  0.3073 -0.6009
  891MOL0     H20218  11.208   8.374   1.007 -0.9400 -1.5639  0.0402
  891MOL0     H20219  11.161   8.590   1.034  0.5004 -1.3557  0.2877
  891MOL0     H20220  11.073   8.751   1.120  0.9862  0.3315  0.2623
  891MOL0     H20221  11.120   8.835   0.979 -0.6200 -2.0225 -0.4947
  891MOL0     H20222  10.892   8.972   1.023 -3.5649 -0.9029  0.8660
  891MOL0     H20223  10.917   8.923   1.188 -0.1821  1.4149  0.1187
  891MOL0     H20224  11.162   8.996   1.167 -0.9194 -1.0726 -1.8158
  891MOL0     H20225  11.114   9.075   1.021  0.3087  3.4363  0.2484
  891MOL0     H20226  10.918   9.177   1.148 -0.9516 -4.8887 -1.6310
  891MOL0     H20227  10.984   9.110   1.300 -2.1021 -2.1872 -1.2380
  891MOL0     H20228  11.077   9.334   1.287  3.1388 -0.4312  1.1493
  891MOL0     H20229  11.208   9.241   1.232 -0.9854  0.9675  1.9250
  891MOL0     H20230  11.130   9.275   0.993  0.7529 -2.1878  1.7915
  891MOL0     H20231  10.996   9.372   1.036  0.6485  0.6663 -1.2138
  891MOL0     H20232  11.272   9.441   1.112 -0.1096 -2.3897 -0.7940
  891MOL0     H20233  11.178   9.504   0.966 -0.7560 -0.0074 -0.4718
  891MOL0     H20234  11.130   9.560   1.256 -0.5190 -5.1797 -0.2407
  891MOL0     H20235  10.988   9.567   1.148 -0.4345 -0.4156  4.1198
  891MOL0     H20236  11.354   9.719   1.134  0.4086 -0.3931 -3.3800
  891MOL0     H20237  11.322  10.066   0.968  0.1687  1.1567  1.1346
  891MOL0     H20238  11.427   9.975   1.091  0.6589  1.9864 -0.5516
  891MOL0     H20239  11.459   9.800   0.910  0.9381  0.9390 -0.6150
  891MOL0     H20240  11.536   9.962   0.885  1.2583  0.0117  3.0681
  891MOL0     H20241  11.274   9.876   0.753 -0.1313  1.0929  0.9416
  891MOL0     H20242  11.421   9.819   0.696  2.0275 -0.4486  2.9463
  891MOL0     H20243  11.329  10.129   0.723 -1.8285 -1.0887  1.7650
  891MOL0     H20244  11.307  10.032   0.584 -1.7537  0.8546 -0.1413
  891MOL0     H20245  11.432   9.868   0.450  0.4206 -0.6553  4.0368
  891MOL0     H20246  11.620   9.670   0.278  3.7080  3.1836  2.2189
  891MOL0     H20247  11.446   9.746   0.266 -0.0945  3.6956  2.8222
  891MOL0     H20248  11.558   9.774   0.146 -0.6960 -1.6787 -0.1462
  891MOL0     H20249  11.989   9.847  -0.082 -1.3514  2.3961  0.9226
  891MOL0     H20250  12.208   9.728  -0.168 -1.5146 -0.8035 -0.1470
  891MOL0     H20251  12.449   9.649  -0.209  3.0962 -0.8428 -0.3218
  891MOL0     H20252  12.444   9.812  -0.142 -0.7099  0.4372 -1.3592
  891MOL0     H20253  12.673   9.745  -0.197 -0.7782 -0.6660 -1.0591
  891MOL0     H20254  12.658   9.774  -0.032  1.6031  1.5270 -1.6173
  891MOL0     H20255  12.654   9.499  -0.166 -1.7973  0.7825 -0.1179
  891MOL0     H20256  12.660   9.519   0.010  3.5517 -1.3020 -0.4674
  891MOL0     H20257  12.886   9.473  -0.104  0.4284 -0.5308  2.6593
  891MOL0     H20258  12.867   9.648  -0.155  1.3978  1.1172  2.7576
  891MOL0     H20259  12.830   9.582   0.137 -1.8547  3.6329  0.2705
  891MOL0     H20260  12.899   9.723   0.069  2.3525 -0.2833  0.7015
  891MOL0     H20261  13.037   9.447   0.062 -1.1614  0.6693 -0.2651
  891MOL0     H20262  13.092   9.598  -0.022  1.0525 -0.3415  0.5001
  891MOL0     H20263  13.085   9.541   0.286  1.4843  1.6415  2.4575
  891MOL0     H20264  13.116   9.706   0.226  0.9993  0.2143  1.8785
  891MOL0     H20265  13.286   9.460   0.159 -3.2885  0.0843  0.3751
  891MOL0     H20266  13.323   9.571   0.291 -0.8155  1.1257  0.7880
  891MOL0     H20267  12.384   9.760   0.200  2.6222  2.4966 -4.7261
  891MOL0     H20268  12.164   9.869   0.316  1.4297  0.9804  0.0414
  891MOL0     H20269  11.879  10.065   0.372 -0.8429 -0.1700  1.0692
  891MOL0     H20270  11.720  10.151   0.570  0.3050  0.2677 -0.5209
  891MOL0     H20271  10.781   8.565   0.840 -0.0949 -2.5642 -2.6090
  891MOL0     H20272  10.812   8.333   0.797  0.1874 -2.1940  2.7869
  891MOL0     H20273  10.989   7.996   1.027  0.5395  1.4423 -1.9295
  891MOL0     H20274  10.999   7.755   1.080  0.3728 -0.4780 -0.5205
  891MOL0     H20275  11.076   7.500   1.111  4.9259 -1.2911 -0.5870
  891MOL0     H20276  10.945   7.527   0.985  1.5011  1.5980 -1.5865
  891MOL0     H20277  11.053   7.311   0.883  2.5109 -3.5089  0.4276
  891MOL0     H20278  10.974   7.297   1.045  0.2369 -1.6251 -2.6670
  891MOL0     H20279  11.202   7.304   1.148  2.3550  0.1640 -0.0465
  891MOL0     H20280  11.274   7.337   0.987 -0.5614 -0.8621 -1.5531
  891MOL0     H20281  11.129   7.104   0.936  0.8024  0.1313 -1.4653
  891MOL0     H20282  11.166   7.084   1.103  1.3360  2.1794  1.1243
  891MOL0     H20283  11.534   7.065   0.864 -0.3728 -1.2047 -2.0349
  891MOL0     H20284  11.281   7.697   0.759  1.9456 -0.4871  1.7347
  891MOL0     H20285  11.285   7.934   0.726 -1.3724  0.1185 -1.7370
  892MOL0     O20286   2.626   5.357   4.490 -0.3781  0.0720 -0.5106
  892MOL0     C20287   2.600   5.381   4.609 -0.2625 -0.1199  0.4771
  892MOL0     O20288   2.684   5.416   4.718  0.3887  0.6157  0.5288
  892MOL0     C20289   2.821   5.436   4.702 -0.3414  0.4742  0.4621
  892MOL0     C20290   2.905   5.369   4.610  0.5070  0.0769 -0.7550
  892MOL0     C20291   3.040   5.402   4.607 -0.1611 -0.3516  0.6316
  892MOL0     C20292   3.094   5.501   4.692 -0.6519  0.3966 -0.1269
  892MOL0     O20293   3.224   5.522   4.670  0.0635  0.5240  0.1157
  892MOL0     C20294   3.300   5.415   4.738  0.9900  0.0896 -0.8102
  892MOL0     C20295   3.440   5.416   4.694  0.1266  0.6078 -0.1733
  892MOL0     C20296   3.453   5.397   4.541  0.8819 -0.1793  0.7104
  892MOL0     C20297   3.579   5.310   4.508  0.5063 -0.9008 -0.4145
  892MOL0     C20298   3.585   5.270   4.370 -0.3802 -0.3884  0.7242
  892MOL0     C20299   3.696   5.177   4.327 -0.2847 -0.0184  0.5918
  892MOL0     C20300   3.682   5.036   4.376 -0.3912  0.3320 -0.1202
  892MOL0     C20301   3.798   4.953   4.314  0.1327  0.6744  0.2213
  892MOL0     N20302   3.760   4.810   4.333  0.6159 -0.4054  0.2965
  892MOL0     C20303   3.666   4.754   4.248  0.2714 -0.2296  0.7006
  892MOL0     C20304   3.656   4.626   4.285 -1.1144  0.1074  0.2746
  892MOL0     C20305   3.571   4.516   4.221 -0.3044 -0.0111  0.1040
  892MOL0     C20306   3.489   4.444   4.325 -0.6441 -0.4050  0.3324
  892MOL0     C20307   3.423   4.320   4.267  0.2884  0.5450  0.2808
  892MOL0     C20308   3.335   4.257   4.374 -0.4501 -0.0259  0.9937
  892MOL0     O20309   3.420   4.206   4.481 -0.4214  0.1208 -0.0373
  892MOL0     C20310   3.374   4.112   4.562 -0.1679  0.4603  0.2464
  892MOL0     C20311   3.231   4.106   4.578  0.2200 -0.2387 -0.0828
  892MOL0     C20312   3.184   4.009   4.670  0.6758  0.9777  0.1975
  892MOL0     C20313   3.028   4.008   4.701  0.6256 -0.3925  0.9360
  892MOL0     C20314   3.271   3.914   4.740  0.1260  0.7429 -0.5769
  892MOL0     C20315   3.233   3.810   4.833 -0.2058  0.6052 -0.0044
  892MOL0     O20316   3.311   3.783   4.944  0.7829  0.4795 -0.1382
  892MOL0     C20317   3.260   3.677   5.020  0.3402 -0.1865  0.0601
  892MOL0     C20318   3.337   3.574   5.070  0.2009  0.3408  0.8983
  892MOL0     C20319   3.278   3.483   5.157 -0.3440 -0.2803 -0.5004
  892MOL0     C20320   3.141   3.485   5.198 -0.0913  0.4731  0.2289
  892MOL0     O20321   3.081   3.388   5.275 -0.1391 -0.8078 -0.1107
  892MOL0     C20322   3.152   3.275   5.304 -0.3191 -0.2152  0.1988
  892MOL0     C20323   3.055   3.175   5.355  0.1849 -0.0276 -0.2254
  892MOL0     C20324   3.112   3.067   5.440 -0.9304  0.3997 -0.9350
  892MOL0     C20325   3.195   2.961   5.368  0.8179 -0.3874 -0.5781
  892MOL0     C20326   3.106   2.837   5.322  0.1040 -0.0797  0.0032
  892MOL0     C20327   3.186   2.718   5.284 -0.4513  0.2393  0.4158
  892MOL0     C20328   3.233   2.650   5.411 -0.1623  0.8504 -0.5873
  892MOL0     C20329   3.285   2.515   5.386 -0.1548 -0.5775 -0.8280
  892MOL0    Cl20330   3.335   2.430   5.541  0.2858  0.4118  0.0858
  892MOL0     C20331   3.066   3.595   5.150 -0.4332  0.1060  0.1409
  892MOL0     C20332   3.122   3.687   5.064 -0.4549 -1.0695  0.3201
  892MOL0     O20333   3.130   3.748   4.809  0.0728  0.2468  0.1168
  892MOL0     C20334   3.408   3.921   4.715  0.5073  0.0338 -0.5832
  892MOL0     C20335   3.458   4.018   4.630 -0.1644 -0.6388  0.1437
  892MOL0     N20336   3.747   4.607   4.394  0.0225 -0.6460 -1.0782
  892MOL0     N20337   3.811   4.722   4.415  0.1158  0.1005 -0.6456
  892MOL0     C20338   3.011   5.576   4.772 -0.1516  0.0885 -0.2238
  892MOL0     C20339   2.871   5.542   4.789  0.5963 -0.9393  0.2503
  892MOL0     C20340   2.447   5.377   4.634 -0.1426 -0.1829 -0.0046
  892MOL0     C20341   2.397   5.410   4.762 -0.3817  0.4965  0.0785
  892MOL0     C20342   2.265   5.379   4.797 -0.2586  0.0355  0.1246
  892MOL0     C20343   2.180   5.334   4.698  0.5488 -0.0351  0.8135
  892MOL0     O20344   2.051   5.310   4.738  0.4907  0.6361 -0.4412
  892MOL0     C20345   1.942   5.293   4.641 -0.4282  0.3601 -0.2396
  892MOL0     C20346   1.812   5.259   4.715  0.3943 -0.0218 -0.0483
  892MOL0     C20347   1.815   5.153   4.825 -0.4217  0.4695 -0.5420
  892MOL0     C20348   1.682   5.108   4.872  0.2839  0.4029 -0.1617
  892MOL0     C20349   1.598   5.040   4.768 -0.4968  0.5826  0.2799
  892MOL0     C20350   1.527   4.979   4.690  0.2611  0.5840 -0.4102
  892MOL0     C20351   2.216   5.318   4.563 -1.0127 -0.8014  0.3166
  892MOL0     C20352   2.351   5.338   4.541 -0.3240 -0.1691 -0.0036
  892MOL0     H20353   2.866   5.287   4.551 -0.7562  0.5873 -0.6746
  892MOL0     H20354   3.104   5.328   4.560 -1.2269 -0.9313  0.0657
  892MOL0     H20355   3.298   5.426   4.847  0.6597 -1.5067 -0.6303
  892MOL0     H20356   3.276   5.313   4.707  0.7218  0.6229 -2.4633
  892MOL0     H20357   3.471   5.520   4.706 -5.3665  2.9102 -2.4630
  892MOL0     H20358   3.504   5.352   4.757  0.3272  0.5393 -0.4452
  892MOL0     H20359   3.360   5.352   4.504  0.7838  0.8424 -0.3167
  892MOL0     H20360   3.454   5.496   4.495 -0.1369  0.3132  1.6945
  892MOL0     H20361   3.675   5.355   4.538 -1.4537  2.0768  1.9535
  892MOL0     H20362   3.579   5.223   4.573 -3.2009 -0.1902  0.7503
  892MOL0     H20363   3.487   5.237   4.335 -1.4098  4.1809 -1.3979
  892MOL0     H20364   3.600   5.368   4.324 -1.6496 -0.0149  1.0950
  892MOL0     H20365   3.695   5.164   4.219 -0.7680  0.0132  0.5890
  892MOL0     H20366   3.792   5.211   4.366  0.4907  0.1353 -1.3392
  892MOL0     H20367   3.683   5.020   4.484  0.5949  3.8763  0.5319
  892MOL0     H20368   3.580   5.010   4.347 -0.1109 -1.5885  0.4838
  892MOL0     H20369   3.881   4.982   4.380  0.3431  1.4672 -0.3788
  892MOL0     H20370   3.827   4.959   4.209  0.9582 -2.3097  0.1715
  892MOL0     H20371   3.610   4.804   4.169  0.5472 -2.0358 -0.7190
  892MOL0     H20372   3.501   4.549   4.144 -0.2740  1.4054  0.6392
  892MOL0     H20373   3.635   4.441   4.174  1.7503  1.0802  1.0496
  892MOL0     H20374   3.428   4.522   4.372 -1.3894 -0.9833  0.3387
  892MOL0     H20375   3.557   4.409   4.403  1.1654  1.1213 -0.4768
  892MOL0     H20376   3.497   4.250   4.226 -0.3746  0.2965 -0.5250
  892MOL0     H20377   3.350   4.336   4.188 -2.2919 -1.5784  2.0642
  892MOL0     H20378   3.267   4.182   4.334  1.0621 -0.9290 -0.0046
  892MOL0     H20379   3.270   4.337   4.409  0.4447  0.5742  1.3193
  892MOL0     H20380   3.173   4.176   4.519  4.1727  2.5230 -1.1461
  892MOL0     H20381   2.988   4.108   4.682  2.7066  0.3408  0.1148
  892MOL0     H20382   2.972   3.945   4.631 -2.2819  2.1997  0.7368
  892MOL0     H20383   3.017   3.983   4.807  1.1254 -0.2783  1.0154
  892MOL0     H20384   3.438   3.556   5.035  0.3476  1.4760  0.7244
  892MOL0     H20385   3.342   3.402   5.190  0.2858  0.9130  1.3252
  892MOL0     H20386   3.198   3.240   5.211 -1.8564  0.1825 -0.7375
  892MOL0     H20387   3.234   3.295   5.373  0.3609  0.2347 -0.7135
  892MOL0     H20388   2.983   3.224   5.422  1.3832 -0.8683  1.7762
  892MOL0     H20389   2.997   3.125   5.278 -1.7973  1.8509 -0.0627
  892MOL0     H20390   3.035   3.019   5.502 -1.0318 -0.8085 -1.9593
  892MOL0     H20391   3.187   3.117   5.503 -1.2187 -1.5497  1.0884
  892MOL0     H20392   3.249   3.004   5.283 -1.3864  4.0795  0.0037
  892MOL0     H20393   3.270   2.926   5.440  1.3335  1.8821  0.0676
  892MOL0     H20394   3.041   2.869   5.240  1.2519 -0.6420 -1.1430
  892MOL0     H20395   3.032   2.806   5.397 -0.6643 -1.2009 -1.1812
  892MOL0     H20396   3.136   2.642   5.223  2.8382 -0.2309 -1.9544
  892MOL0     H20397   3.273   2.736   5.220 -0.6605  0.1637  0.1105
  892MOL0     H20398   3.159   2.637   5.490 -1.1429 -1.0391 -1.7332
  892MOL0     H20399   3.313   2.709   5.455  0.8779 -1.9275  1.4885
  892MOL0     H20400   3.367   2.521   5.314 -0.0928  1.7937 -0.6472
  892MOL0     H20401   3.204   2.460   5.336 -1.7335  1.5805 -0.7897
  892MOL0     H20402   2.964   3.613   5.183 -1.4332 -0.2959 -2.4790
  892MOL0     H20403   3.058   3.767   5.028  1.2783 -0.5183 -1.7433
  892MOL0     H20404   3.474   3.847   4.757 -0.0721 -0.4030 -0.4221
  892MOL0     H20405   3.563   4.022   4.606 -0.4620  1.1879 -1.0503
  892MOL0     H20406   3.050   5.652   4.838 -1.7001  0.6183  0.1314
  892MOL0     H20407   2.804   5.597   4.855  1.6738 -0.1977  0.7663
  892MOL0     H20408   2.463   5.444   4.841 -1.8857  0.8946  1.2114
  892MOL0     H20409   2.219   5.390   4.894 -3.0065 -0.5897 -1.0058
  892MOL0     H20410   1.927   5.383   4.580 -0.8357 -1.3068 -2.7336
  892MOL0     H20411   1.964   5.206   4.578 -0.7091 -1.9404  2.6292
  892MOL0     H20412   1.742   5.221   4.640  0.9352  1.0629 -1.1612
  892MOL0     H20413   1.761   5.347   4.757  0.4394 -0.1254  0.2227
  892MOL0     H20414   1.870   5.204   4.904 -2.2300  0.3298  0.8456
  892MOL0     H20415   1.869   5.061   4.798  0.6110  1.9209 -4.0148
  892MOL0     H20416   1.629   5.199   4.903 -1.7839 -1.3783  1.9359
  892MOL0     H20417   1.684   5.042   4.959 -0.7050 -1.9321 -1.8209
  892MOL0     H20418   1.452   4.919   4.644 -0.2656 -0.7792  2.0391
  892MOL0     H20419   2.143   5.296   4.486 -0.0353  1.8345 -1.4963
  892MOL0     H20420   2.391   5.324   4.441 -2.7419 -1.7644 -0.8403
  893MOL0     O20421   5.718   3.512  10.527 -0.3150 -0.3763  0.2447
  893MOL0     C20422   5.815   3.503  10.595 -0.5422  0.2612  1.1361
  893MOL0     O20423   5.860   3.597  10.671 -0.4858 -0.1397 -1.0273
  893MOL0     C20424   5.794   3.718  10.686 -0.5448 -0.2388 -0.0904
  893MOL0     C20425   5.882   3.833  10.690 -0.4829 -1.1706  1.3374
  893MOL0     C20426   5.820   3.958  10.698  0.0635  0.1042 -1.0639
  893MOL0     C20427   5.679   3.974  10.712 -0.0944 -0.0238 -0.4557
  893MOL0     O20428   5.635   4.096  10.747 -0.3319  0.6109  0.1056
  893MOL0     C20429   5.552   4.166  10.651 -0.0220 -0.0823 -1.8966
  893MOL0     C20430   5.411   4.167  10.699  0.3131 -0.0753  0.4312
  893MOL0     C20431   5.299   4.227  10.603 -0.2439  0.0536  0.2965
  893MOL0     C20432   5.297   4.163  10.462  0.6176 -0.3276 -0.3789
  893MOL0     C20433   5.156   4.172  10.400  0.0489 -0.9149 -0.3402
  893MOL0     C20434   5.127   4.318  10.350  0.0324  0.6367 -0.0011
  893MOL0     C20435   4.985   4.324  10.282  0.8373 -0.3446  0.2329
  893MOL0     C20436   4.957   4.469  10.229 -0.4670  0.0507  0.7690
  893MOL0     N20437   4.878   4.558  10.317 -0.0817 -0.4276  0.5651
  893MOL0     C20438   4.924   4.646  10.415 -0.5692  1.4463 -1.0508
  893MOL0     C20439   4.813   4.708  10.461 -0.8327  0.4303 -0.2495
  893MOL0     C20440   4.813   4.820  10.564 -0.2156  0.4439 -0.9061
  893MOL0     C20441   4.920   4.924  10.520 -0.3804  0.5697  0.3042
  893MOL0     C20442   4.875   5.016  10.405  0.1970  0.1645 -0.5953
  893MOL0     C20443   4.987   5.115  10.361 -0.1550  0.7769 -0.0407
  893MOL0     O20444   5.029   5.187  10.479  0.1780 -0.1440  0.2009
  893MOL0     C20445   5.120   5.287  10.456  0.4037  0.5818  0.7587
  893MOL0     C20446   5.174   5.306  10.328 -0.1210 -0.6347 -0.3125
  893MOL0     C20447   5.264   5.412  10.298 -0.4680  0.1737 -0.2985
  893MOL0     C20448   5.304   5.425  10.158  0.0799  0.3425  0.7264
  893MOL0     C20449   5.294   5.497  10.411  0.4744 -0.1550  1.0351
  893MOL0     C20450   5.389   5.612  10.403 -0.3614 -0.9288 -0.1326
  893MOL0     O20451   5.433   5.643  10.277  0.7486 -0.2836 -0.1727
  893MOL0     C20452   5.551   5.710  10.261 -0.9158  0.5105  0.6930
  893MOL0     C20453   5.656   5.721  10.351  0.0843 -0.3678 -1.5917
  893MOL0     C20454   5.770   5.790  10.309 -0.0371  0.5714 -0.3328
  893MOL0     C20455   5.788   5.846  10.185  0.8492 -0.7785  0.0500
  893MOL0     O20456   5.903   5.928  10.161  0.7643 -0.3815  0.4331
  893MOL0     C20457   5.923   5.957  10.016 -0.3995  0.1166 -0.1373
  893MOL0     C20458   6.059   6.011   9.996  0.8676  0.0077 -0.6582
  893MOL0     C20459   6.075   6.149  10.059 -0.0044 -0.3056 -0.5239
  893MOL0     C20460   6.221   6.184  10.067 -0.0077 -0.1689  0.6948
  893MOL0     C20461   6.245   6.336  10.094 -0.2611 -0.0460 -0.8976
  893MOL0     C20462   6.396   6.373  10.070  0.1029 -0.5461 -0.0826
  893MOL0     C20463   6.430   6.516  10.065 -0.0941 -0.1952  0.9285
  893MOL0     C20464   6.400   6.580   9.940 -0.6004 -0.0765 -0.0461
  893MOL0    Cl20465   6.468   6.736   9.924 -0.3666  0.1296 -0.2913
  893MOL0     C20466   5.681   5.841  10.107  0.5353  0.1277  0.8898
  893MOL0     C20467   5.569   5.767  10.136  0.0768 -1.2926 -0.2392
  893MOL0     O20468   5.423   5.672  10.505 -0.1014  0.4004  0.6766
  893MOL0     C20469   5.240   5.473  10.535 -0.0005  0.1640 -0.2280
  893MOL0     C20470   5.158   5.373  10.557  0.8032 -0.3192  0.1616
  893MOL0     N20471   4.705   4.657  10.402 -0.7125  0.5137  0.0963
  893MOL0     N20472   4.745   4.562  10.318  0.6651 -1.0719 -0.0246
  893MOL0     C20473   5.598   3.859  10.700 -0.5279 -0.4278  0.1805
  893MOL0     C20474   5.660   3.732  10.687  0.5262 -0.2241 -0.2768
  893MOL0     C20475   5.905   3.383  10.574  0.8903 -1.0055  0.6429
  893MOL0     C20476   5.855   3.254  10.587  0.3107 -0.3634 -0.2857
  893MOL0     C20477   5.944   3.141  10.561  1.0811 -0.4972 -0.1475
  893MOL0     C20478   6.079   3.165  10.524  0.7254 -0.6159 -0.4533
  893MOL0     O20479   6.154   3.064  10.471 -0.2678  0.0734  0.1491
  893MOL0     C20480   6.091   2.939  10.436  0.5424  0.6378  0.0274
  893MOL0     C20481   6.180   2.815  10.393 -0.3844  0.6360  0.4826
  893MOL0     C20482   6.276   2.860  10.278 -0.8623  1.5261 -1.2700
  893MOL0     C20483   6.332   2.744  10.204 -0.3916  0.4251 -0.6778
  893MOL0     C20484   6.450   2.684  10.280  0.2323 -0.2019  0.0550
  893MOL0     C20485   6.541   2.640  10.358  0.4124 -0.9115 -0.3379
  893MOL0     C20486   6.129   3.293  10.523 -0.1378 -0.2178 -0.0710
  893MOL0     C20487   6.044   3.404  10.540  0.1576  0.0960  0.2383
  893MOL0     H20488   5.989   3.822  10.680 -0.2133  1.2149  0.9947
  893MOL0     H20489   5.873   4.053  10.693 -1.5210  0.9936 -1.5514
  893MOL0     H20490   5.572   4.274  10.648 -0.0659  0.2875  3.0174
  893MOL0     H20491   5.557   4.116  10.554 -0.1856 -0.0238 -1.9350
  893MOL0     H20492   5.389   4.060  10.708  2.0069 -0.8680 -3.1363
  893MOL0     H20493   5.399   4.234  10.785 -1.2032 -0.5256  0.5852
  893MOL0     H20494   5.203   4.224  10.655 -0.4097  0.4797  0.0227
  893MOL0     H20495   5.312   4.333  10.582 -3.9054  0.4488 -0.5533
  893MOL0     H20496   5.363   4.219  10.396 -0.0298 -2.1233 -2.6633
  893MOL0     H20497   5.326   4.057  10.470  3.1802  0.1785 -1.8237
  893MOL0     H20498   5.149   4.103  10.315 -0.0232  0.7089 -1.7154
  893MOL0     H20499   5.081   4.137  10.471 -0.6125 -2.4839 -1.7267
  893MOL0     H20500   5.136   4.389  10.433 -0.6725 -0.6190  1.1827
  893MOL0     H20501   5.213   4.337  10.285  3.2561 -3.4281  2.6152
  893MOL0     H20502   4.986   4.251  10.200  3.6069  1.4670 -1.5249
  893MOL0     H20503   4.917   4.294  10.362  1.8836 -3.1639  0.2028
  893MOL0     H20504   4.903   4.449  10.136  0.7349 -3.6025  0.7070
  893MOL0     H20505   5.050   4.524  10.211 -0.8010  0.8024  1.2937
  893MOL0     H20506   5.026   4.661  10.448 -0.0174 -0.6367 -1.6745
  893MOL0     H20507   4.714   4.868  10.568 -0.7225 -0.6596  2.2906
  893MOL0     H20508   4.830   4.774  10.662  2.4018  1.4306 -0.8265
  893MOL0     H20509   5.017   4.878  10.500 -0.8542 -0.8351  1.1182
  893MOL0     H20510   4.938   4.981  10.612 -2.9181 -0.7976  1.7748
  893MOL0     H20511   4.793   5.079  10.440 -0.0377 -1.2827  1.6665
  893MOL0     H20512   4.830   4.961  10.322 -0.3696  0.9557 -0.8275
  893MOL0     H20513   4.941   5.179  10.286 -0.2304  2.0331  1.0404
  893MOL0     H20514   5.066   5.055  10.316 -2.8633 -1.2780 -2.4118
  893MOL0     H20515   5.165   5.225  10.257  1.2316 -3.3831  2.3885
  893MOL0     H20516   5.410   5.408  10.137  0.6276  4.6550 -0.9021
  893MOL0     H20517   5.253   5.352  10.094  0.0166 -2.2217  3.4922
  893MOL0     H20518   5.270   5.525  10.132  2.2790  1.3021  1.3593
  893MOL0     H20519   5.654   5.689  10.454  4.1377  0.8681 -0.9805
  893MOL0     H20520   5.859   5.787  10.371  0.3038 -0.0717 -0.8482
  893MOL0     H20521   5.905   5.876   9.945 -3.8445  0.7786 -0.2196
  893MOL0     H20522   5.844   6.027   9.986 -0.2071  0.1702 -0.5352
  893MOL0     H20523   6.127   5.935  10.036  0.4577  0.3051  0.6552
  893MOL0     H20524   6.094   6.013   9.893 -2.4439 -0.2177 -1.8784
  893MOL0     H20525   6.039   6.147  10.163  0.1985  2.8252 -0.3044
  893MOL0     H20526   6.007   6.207   9.996 -2.2215 -4.0051 -1.8500
  893MOL0     H20527   6.270   6.119  10.140  0.9507 -0.3305 -0.0784
  893MOL0     H20528   6.266   6.163   9.970 -0.7858  4.3688 -0.8962
  893MOL0     H20529   6.196   6.359  10.189 -1.6879 -2.6980 -0.8910
  893MOL0     H20530   6.184   6.377  10.013  1.6819 -0.5277 -2.6869
  893MOL0     H20531   6.457   6.330  10.150 -0.0489 -2.7546 -1.0670
  893MOL0     H20532   6.437   6.330   9.978  0.3019  1.5704 -1.0403
  893MOL0     H20533   6.537   6.525  10.085  0.0246  0.4128  0.0568
  893MOL0     H20534   6.378   6.567  10.147 -1.2775 -1.5653  1.0962
  893MOL0     H20535   6.292   6.590   9.924 -0.5793 -0.5180 -0.4933
  893MOL0     H20536   6.440   6.527   9.853 -3.7939  0.8940 -2.2811
  893MOL0     H20537   5.678   5.899  10.015  2.3835 -1.8424 -0.5321
  893MOL0     H20538   5.490   5.771  10.062  2.0354 -1.3620 -2.4411
  893MOL0     H20539   5.242   5.542  10.618 -1.9979  1.6500 -1.3314
  893MOL0     H20540   5.109   5.353  10.652  2.4643  1.6311  1.5444
  893MOL0     H20541   5.491   3.875  10.707 -0.9246 -2.9075  0.9493
  893MOL0     H20542   5.599   3.643  10.672 -2.5706  1.9611 -1.6475
  893MOL0     H20543   5.752   3.247  10.618  0.6144  1.6381  1.4027
  893MOL0     H20544   5.925   3.036  10.581  3.3277 -0.8481  0.3574
  893MOL0     H20545   6.048   2.911  10.533 -2.9913  3.1747 -0.6265
  893MOL0     H20546   6.012   2.962  10.365  1.1024 -0.4037 -0.9643
  893MOL0     H20547   6.104   2.739  10.373 -0.8374  0.4469  2.6205
  893MOL0     H20548   6.229   2.778  10.484  0.5057 -0.3299 -0.3614
  893MOL0     H20549   6.348   2.933  10.316 -2.3539  1.8557  1.1670
  893MOL0     H20550   6.223   2.911  10.198 -2.1254  0.2838 -1.2605
  893MOL0     H20551   6.360   2.779  10.105  0.7629 -0.3930 -0.6609
  893MOL0     H20552   6.261   2.661  10.192 -1.1451  0.9574  0.0084
  893MOL0     H20553   6.623   2.616  10.423  1.7377  4.0310  0.2428
  893MOL0     H20554   6.229   3.322  10.494  0.1985  3.8506  3.9613
  893MOL0     H20555   6.097   3.498  10.532  1.4033 -0.3298  2.4838
  894MOL0     O20556   0.808   5.501  10.204 -0.1714 -0.4651 -0.0174
  894MOL0     C20557   0.849   5.427  10.115  0.1706  1.2480  0.6453
  894MOL0     O20558   0.981   5.403  10.086 -0.5457 -0.5942  0.9118
  894MOL0     C20559   1.072   5.484  10.147 -0.2037 -0.7088  0.0398
  894MOL0     C20560   1.201   5.426  10.160 -0.4636 -0.3894  0.1240
  894MOL0     C20561   1.309   5.493  10.214 -0.4477 -0.4875  0.3792
  894MOL0     C20562   1.288   5.628  10.254 -0.1070  0.6703 -0.4117
  894MOL0     O20563   1.394   5.709  10.292  0.1736  0.6133 -0.4277
  894MOL0     C20564   1.378   5.802  10.407  0.4796 -0.6632 -0.0088
  894MOL0     C20565   1.504   5.899  10.402 -0.3204 -0.1807 -1.5229
  894MOL0     C20566   1.486   6.005  10.520  0.3931  0.2550  0.2795
  894MOL0     C20567   1.544   6.142  10.479 -0.5140  0.1070  0.8091
  894MOL0     C20568   1.610   6.219  10.584 -0.1978  0.2441  0.3116
  894MOL0     C20569   1.517   6.320  10.631  0.7670 -0.7443 -0.6501
  894MOL0     C20570   1.559   6.402  10.760 -0.7238  0.0549  0.1276
  894MOL0     C20571   1.698   6.469  10.749 -0.1415  0.8621  0.2398
  894MOL0     N20572   1.709   6.569  10.642  0.0778 -0.4570  0.4928
  894MOL0     C20573   1.666   6.701  10.667 -1.3557  0.5598 -0.4590
  894MOL0     C20574   1.682   6.771  10.552 -0.0362 -0.1580  0.6046
  894MOL0     C20575   1.670   6.918  10.516  0.7539 -0.2237  1.4109
  894MOL0     C20576   1.560   6.947  10.409  0.4486 -0.8352  0.1053
  894MOL0     C20577   1.511   7.099  10.399 -0.9392 -0.0623  0.5660
  894MOL0     C20578   1.436   7.161  10.519  0.6580 -0.4411 -0.5049
  894MOL0     O20579   1.443   7.311  10.504  0.3863  0.5809 -0.0667
  894MOL0     C20580   1.363   7.381  10.417 -0.1227  0.6900 -0.2822
  894MOL0     C20581   1.252   7.321  10.364  0.2867  0.6208  0.4110
  894MOL0     C20582   1.161   7.401  10.286  0.3468  0.7698  1.2298
  894MOL0     C20583   1.050   7.326  10.214  0.3442 -0.1216 -0.4210
  894MOL0     C20584   1.182   7.536  10.262 -1.0245  0.5245  0.0933
  894MOL0     C20585   1.105   7.627  10.172  0.0961  0.1159 -0.5831
  894MOL0     O20586   1.187   7.698  10.097  0.2312  0.4721 -0.6607
  894MOL0     C20587   1.144   7.755   9.980 -0.2551  0.0973 -0.0780
  894MOL0     C20588   1.177   7.703   9.849 -0.0578 -0.9065 -0.7798
  894MOL0     C20589   1.157   7.786   9.739 -0.4984  0.0382  0.0465
  894MOL0     C20590   1.092   7.902   9.751  0.4775 -0.7413  0.6728
  894MOL0     O20591   1.078   7.972   9.638 -0.7246 -0.5103 -0.1332
  894MOL0     C20592   0.972   8.067   9.626  0.1871  1.0231 -0.7657
  894MOL0     C20593   0.950   8.112   9.480 -0.7196 -0.2859  0.0667
  894MOL0     C20594   1.088   8.143   9.412 -0.0849 -0.7847  0.7740
  894MOL0     C20595   1.151   8.020   9.337  0.1830  0.5148 -0.0316
  894MOL0     C20596   1.263   8.062   9.241 -0.6925  0.5535  0.0008
  894MOL0     C20597   1.212   8.149   9.130  0.1391  0.1115 -0.0398
  894MOL0     C20598   1.108   8.092   9.040 -0.5773  1.6081  0.3185
  894MOL0     C20599   1.098   8.147   8.900  0.1422 -0.3822  0.7010
  894MOL0    Cl20600   1.248   8.118   8.800  0.2729  0.0848  0.0634
  894MOL0     C20601   1.050   7.952   9.876 -0.6165  0.1735  0.0480
  894MOL0     C20602   1.071   7.877   9.993 -0.3472  0.5773 -0.2679
  894MOL0     O20603   0.982   7.638  10.173  0.2232 -0.5707 -0.2830
  894MOL0     C20604   1.282   7.596  10.337 -0.1610 -0.6993  0.2575
  894MOL0     C20605   1.371   7.518  10.412 -0.3378  0.0153 -0.4563
  894MOL0     N20606   1.698   6.665  10.459 -0.5788 -0.0008  0.0241
  894MOL0     N20607   1.713   6.551  10.509 -0.5548  0.2506 -0.2959
  894MOL0     C20608   1.167   5.691  10.235 -0.8208  0.1261 -0.2574
  894MOL0     C20609   1.065   5.624  10.178 -0.4995  0.2635  0.2640
  894MOL0     C20610   0.758   5.345  10.040 -0.8071  0.6212 -0.0180
  894MOL0     C20611   0.622   5.354  10.064  0.6950  0.3456 -0.1692
  894MOL0     C20612   0.538   5.250  10.001  0.0173 -1.5675 -0.3410
  894MOL0     C20613   0.588   5.142   9.929  0.8379  0.7767 -0.5506
  894MOL0     O20614   0.491   5.049   9.883  0.1593 -0.1606  0.7336
  894MOL0     C20615   0.535   4.939   9.799  0.1367  0.0844  0.3439
  894MOL0     C20616   0.414   4.858   9.742  0.5282  0.1451 -0.1324
  894MOL0     C20617   0.338   4.785   9.849 -1.1250  0.2033  1.0403
  894MOL0     C20618   0.250   4.674   9.792 -0.1089  0.1484  0.8061
  894MOL0     C20619   0.121   4.709   9.728  0.5062 -0.4894 -1.0186
  894MOL0     C20620   0.012   4.731   9.671 -0.5513  0.6410  0.4218
  894MOL0     C20621   0.723   5.141   9.906 -0.3254 -0.3457  0.8915
  894MOL0     C20622   0.810   5.246   9.949  0.2453  0.8693  0.8302
  894MOL0     H20623   1.215   5.326  10.121 -0.6226 -0.6852  0.7973
  894MOL0     H20624   1.415   5.471  10.219  1.1778  5.6647  1.2773
  894MOL0     H20625   1.296   5.873  10.393  0.3350 -0.8830 -0.2906
  894MOL0     H20626   1.372   5.747  10.501  0.3572  0.9140  0.9541
  894MOL0     H20627   1.594   5.839  10.415 -2.0735 -2.8081 -0.6208
  894MOL0     H20628   1.516   5.957  10.311  0.8363  1.8373 -0.1418
  894MOL0     H20629   1.382   6.013  10.553  0.2961 -1.5092  0.4641
  894MOL0     H20630   1.550   5.978  10.605 -1.0015  3.5758  2.6243
  894MOL0     H20631   1.612   6.123  10.395 -2.3033  0.1866 -0.7297
  894MOL0     H20632   1.464   6.202  10.434  2.0715  1.1604 -2.7950
  894MOL0     H20633   1.633   6.167  10.677  2.2967  0.9622  0.1850
  894MOL0     H20634   1.704   6.267  10.555  2.2450 -1.7257  4.0665
  894MOL0     H20635   1.483   6.375  10.542 -1.0821 -1.1792 -0.2463
  894MOL0     H20636   1.432   6.268  10.674  2.2957 -2.4317  0.4404
  894MOL0     H20637   1.479   6.475  10.777 -2.7045 -1.6539 -1.3993
  894MOL0     H20638   1.557   6.330  10.843 -0.3225 -1.0911 -0.8423
  894MOL0     H20639   1.789   6.408  10.740  0.7290  2.0007  1.0039
  894MOL0     H20640   1.718   6.519  10.844  0.5269  4.7224 -1.7269
  894MOL0     H20641   1.640   6.744  10.763  0.7220 -2.3768  1.5984
  894MOL0     H20642   1.650   6.970  10.611 -1.2239 -0.0152  0.9113
  894MOL0     H20643   1.764   6.960  10.478 -1.2864  2.2164 -1.4580
  894MOL0     H20644   1.466   6.898  10.434  0.4448  0.4704  2.9764
  894MOL0     H20645   1.594   6.912  10.311 -3.4345 -1.8296 -1.0719
  894MOL0     H20646   1.454   7.098  10.306  0.8944  0.4690 -0.6111
  894MOL0     H20647   1.596   7.167  10.392 -0.8416 -0.3502 -2.2146
  894MOL0     H20648   1.479   7.140  10.617 -0.6566 -2.4440 -0.3063
  894MOL0     H20649   1.332   7.125  10.517  0.6831 -0.6676  1.2166
  894MOL0     H20650   1.228   7.216  10.371  0.3373  0.6504  1.1154
  894MOL0     H20651   1.013   7.380  10.127 -0.1780 -0.9183 -0.7037
  894MOL0     H20652   1.084   7.226  10.186 -1.4158 -0.9672  0.3107
  894MOL0     H20653   0.970   7.323  10.288  1.0422 -0.5028  0.3440
  894MOL0     H20654   1.237   7.614   9.839  2.5402  0.6219  0.2734
  894MOL0     H20655   1.196   7.763   9.640 -0.9991  2.5278 -0.8144
  894MOL0     H20656   0.880   8.034   9.677 -0.1828  3.8960  0.6457
  894MOL0     H20657   0.996   8.157   9.684  0.5186  0.2797  0.2711
  894MOL0     H20658   0.874   8.049   9.432 -0.3083 -0.1998 -0.7149
  894MOL0     H20659   0.884   8.198   9.493  0.3304  0.1891  3.0305
  894MOL0     H20660   1.160   8.172   9.489  0.3077 -3.3941  1.4932
  894MOL0     H20661   1.070   8.229   9.348 -0.5063 -1.7983 -0.5240
  894MOL0     H20662   1.201   7.959   9.413 -2.9009 -0.5718  1.3211
  894MOL0     H20663   1.075   7.954   9.295 -1.2978  1.9797  0.2417
  894MOL0     H20664   1.304   7.968   9.204 -2.3939 -0.7050  1.1479
  894MOL0     H20665   1.342   8.111   9.299  0.9977 -2.5645  0.5506
  894MOL0     H20666   1.174   8.247   9.160 -0.4281  0.1668 -0.8878
  894MOL0     H20667   1.298   8.168   9.065  1.3891  0.2074  1.5842
  894MOL0     H20668   1.022   8.098   9.108  1.3121 -2.7244  3.5635
  894MOL0     H20669   1.125   7.984   9.034 -1.0831  1.4902  0.9121
  894MOL0     H20670   1.061   8.249   8.908  2.0791  0.4553 -0.2477
  894MOL0     H20671   1.014   8.095   8.855  1.1486 -0.5049 -1.1268
  894MOL0     H20672   1.000   8.047   9.894  1.7074  2.1412 -2.8418
  894MOL0     H20673   1.040   7.900  10.094  0.5229 -1.0462  0.4106
  894MOL0     H20674   1.299   7.702  10.322  0.0632 -0.9190 -1.2204
  894MOL0     H20675   1.448   7.570  10.470 -2.1712  1.4571  0.8228
  894MOL0     H20676   1.159   5.799  10.247 -2.5739 -0.2168  3.1005
  894MOL0     H20677   0.975   5.678  10.151  0.1695  0.1826 -2.3716
  894MOL0     H20678   0.575   5.434  10.121 -1.4561 -1.4538  0.7172
  894MOL0     H20679   0.434   5.250  10.031 -0.2441  1.2544 -0.9402
  894MOL0     H20680   0.587   4.981   9.712 -2.0200 -0.4229 -1.2802
  894MOL0     H20681   0.597   4.876   9.864 -1.4564 -1.8357  0.0945
  894MOL0     H20682   0.435   4.786   9.663 -0.3685  0.9465 -1.1261
  894MOL0     H20683   0.342   4.935   9.712 -0.6070 -0.7989  0.1286
  894MOL0     H20684   0.274   4.852   9.907 -1.8899  0.6165 -0.2562
  894MOL0     H20685   0.396   4.738   9.929 -2.6187 -0.3129  1.8527
  894MOL0     H20686   0.221   4.603   9.870 -3.6792 -1.7142 -1.8968
  894MOL0     H20687   0.317   4.614   9.730 -1.5098 -1.0494  0.3948
  894MOL0     H20688  -0.086   4.759   9.638 -0.2136  2.3363  0.7173
  894MOL0     H20689   0.773   5.080   9.832  1.6352  1.8294  0.3055
  894MOL0     H20690   0.915   5.253   9.922  1.0692 -0.3086  3.4495
  895MOL0     O20691   9.575   4.624   3.001  0.2184 -0.2261  0.5033
  895MOL0     C20692   9.635   4.657   2.898 -0.6012  0.0487 -0.0461
  895MOL0     O20693   9.596   4.764   2.815 -0.4653  0.7589 -0.6994
  895MOL0     C20694   9.504   4.858   2.849 -0.2835 -1.0843 -0.0780
  895MOL0     C20695   9.473   4.952   2.748  0.5507  0.5661  0.3301
  895MOL0     C20696   9.381   5.060   2.768 -0.1224  0.7173 -0.1628
  895MOL0     C20697   9.316   5.080   2.892  0.1578  0.5502  0.1102
  895MOL0     O20698   9.213   5.177   2.894 -0.0177  0.2383  0.0103
  895MOL0     C20699   9.241   5.291   2.967  0.2772  0.1990  0.0552
  895MOL0     C20700   9.126   5.399   2.962  1.2056  0.6223 -0.0514
  895MOL0     C20701   9.014   5.347   3.060 -0.2180  0.0515 -0.5383
  895MOL0     C20702   8.909   5.460   3.080  1.3565 -0.7422 -0.2123
  895MOL0     C20703   8.819   5.424   3.198  0.6265  0.1600  0.2020
  895MOL0     C20704   8.871   5.440   3.343 -0.1950 -0.4914  0.0954
  895MOL0     C20705   8.791   5.378   3.462  0.2765 -0.1879  0.3864
  895MOL0     C20706   8.869   5.401   3.592  0.5203 -0.7386  0.1481
  895MOL0     N20707   8.798   5.318   3.690 -0.1817  0.4764  0.3127
  895MOL0     C20708   8.694   5.361   3.769  0.8658  0.6508  0.7812
  895MOL0     C20709   8.680   5.251   3.855  0.1003 -1.4920 -0.3063
  895MOL0     C20710   8.587   5.254   3.981  0.0606 -0.5761  0.2911
  895MOL0     C20711   8.650   5.297   4.116 -0.6601 -1.1432  0.2802
  895MOL0     C20712   8.741   5.174   4.157  0.0284 -0.6917 -0.5638
  895MOL0     C20713   8.774   5.190   4.302  0.6436  0.1116 -0.6105
  895MOL0     O20714   8.656   5.173   4.380 -0.9451  0.2903  0.3964
  895MOL0     C20715   8.674   5.247   4.499 -0.2442  0.1530  0.2575
  895MOL0     C20716   8.559   5.318   4.537  0.0687 -0.6932  0.1355
  895MOL0     C20717   8.559   5.416   4.638 -0.2202  0.0596  0.2615
  895MOL0     C20718   8.428   5.494   4.663  0.1490 -0.0274 -1.1047
  895MOL0     C20719   8.683   5.443   4.710  0.5167 -0.1052  0.0614
  895MOL0     C20720   8.699   5.543   4.816 -1.1488  0.2949 -0.1239
  895MOL0     O20721   8.787   5.520   4.916  0.6075 -0.4971 -0.3359
  895MOL0     C20722   8.802   5.630   5.006  0.4579  0.4895 -0.2220
  895MOL0     C20723   8.898   5.731   4.992 -0.1192  1.1399 -1.1141
  895MOL0     C20724   8.922   5.830   5.091  0.7106 -0.2402 -1.2849
  895MOL0     C20725   8.852   5.839   5.214 -0.2539  0.0079 -0.2178
  895MOL0     O20726   8.848   5.940   5.308 -0.4154 -0.0210 -0.1739
  895MOL0     C20727   8.937   6.048   5.272  0.2079  0.2765 -0.1417
  895MOL0     C20728   8.948   6.140   5.395 -0.1349  0.6030  0.1691
  895MOL0     C20729   8.815   6.204   5.419 -0.6087 -0.1271  0.4929
  895MOL0     C20730   8.775   6.269   5.555  0.1855  0.0382 -0.2540
  895MOL0     C20731   8.641   6.340   5.547  0.5727 -0.3448 -0.4389
  895MOL0     C20732   8.522   6.258   5.483 -0.6021 -0.2185 -0.0697
  895MOL0     C20733   8.499   6.133   5.570 -0.1281 -0.2214  0.0909
  895MOL0     C20734   8.361   6.071   5.533 -0.3129  0.8502  0.4796
  895MOL0    Cl20735   8.374   5.995   5.359 -0.3394  0.1220  0.2044
  895MOL0     C20736   8.754   5.742   5.224  0.3012  1.0489  0.6850
  895MOL0     C20737   8.731   5.640   5.126  0.0940 -1.0887 -0.3236
  895MOL0     O20738   8.635   5.643   4.806  0.5818  0.7400 -1.1084
  895MOL0     C20739   8.794   5.359   4.687  0.0287  0.0595 -0.4964
  895MOL0     C20740   8.793   5.265   4.581  0.0293 -0.0137 -0.1070
  895MOL0     N20741   8.775   5.151   3.821 -0.0202 -0.4794  0.3225
  895MOL0     N20742   8.839   5.189   3.719  0.4607 -0.3573  0.3088
  895MOL0     C20743   9.350   4.990   2.993 -0.0950 -0.3578  0.1363
  895MOL0     C20744   9.443   4.884   2.978 -0.0555  0.0376 -0.2050
  895MOL0     C20745   9.764   4.598   2.870 -0.2612 -0.8057 -1.0260
  895MOL0     C20746   9.826   4.511   2.962 -0.0432 -0.8920 -0.1174
  895MOL0     C20747   9.951   4.463   2.930 -0.1052  0.5194  0.2927
  895MOL0     C20748  10.021   4.497   2.808  0.3729  0.2036 -0.2952
  895MOL0     O20749  10.138   4.447   2.757  0.5004 -0.2967 -0.2310
  895MOL0     C20750  10.205   4.353   2.837  0.6090 -0.6278 -0.6315
  895MOL0     C20751  10.312   4.289   2.749 -0.1103  0.4255  1.3783
  895MOL0     C20752  10.272   4.185   2.648 -0.1745  0.6022  1.0977
  895MOL0     C20753  10.248   4.245   2.508 -0.7991  0.2688 -0.6826
  895MOL0     C20754  10.219   4.143   2.397  1.4287 -0.4993  0.3321
  895MOL0     C20755  10.207   4.055   2.312  0.5707  0.8425 -0.2566
  895MOL0     C20756   9.974   4.607   2.731  0.5261 -0.4061 -0.4574
  895MOL0     C20757   9.840   4.651   2.762 -0.2356  0.6181 -0.0615
  895MOL0     H20758   9.529   4.952   2.656 -0.1251 -2.0802 -0.1484
  895MOL0     H20759   9.380   5.136   2.690 -3.0267 -0.6957 -1.6494
  895MOL0     H20760   9.265   5.266   3.071  1.1162 -2.0506 -0.6131
  895MOL0     H20761   9.331   5.331   2.920 -0.4711  2.1742  0.2159
  895MOL0     H20762   9.176   5.493   2.986  2.1700  0.5788 -1.7816
  895MOL0     H20763   9.087   5.411   2.861  1.1082  0.8954  0.0181
  895MOL0     H20764   8.968   5.252   3.032 -2.7452  1.3988 -1.2250
  895MOL0     H20765   9.056   5.337   3.161 -0.8378  0.2931 -0.2534
  895MOL0     H20766   8.956   5.557   3.099 -0.8294 -0.0855  2.4850
  895MOL0     H20767   8.848   5.464   2.989 -0.1996 -1.8569  0.7206
  895MOL0     H20768   8.735   5.494   3.197  0.8145  0.3881  0.3042
  895MOL0     H20769   8.772   5.326   3.198 -2.8023  1.4459  5.1378
  895MOL0     H20770   8.974   5.403   3.336 -0.2675 -0.9685  1.3531
  895MOL0     H20771   8.888   5.546   3.363  0.8341 -0.5461 -0.3788
  895MOL0     H20772   8.692   5.424   3.465  0.7580  0.9241 -0.1270
  895MOL0     H20773   8.772   5.272   3.443 -2.6780  0.4547 -0.6463
  895MOL0     H20774   8.866   5.508   3.614  1.1517 -0.1077 -2.4843
  895MOL0     H20775   8.970   5.359   3.594  2.0287  2.6505  1.5980
  895MOL0     H20776   8.652   5.460   3.778 -1.5601 -0.2767  0.5117
  895MOL0     H20777   8.508   5.328   3.967  2.7563  2.1006 -2.1829
  895MOL0     H20778   8.540   5.155   3.991  0.4754 -1.2401 -3.1232
  895MOL0     H20779   8.576   5.301   4.197 -1.6635  0.7183 -0.6783
  895MOL0     H20780   8.715   5.385   4.110  0.2081 -1.6555  1.6709
  895MOL0     H20781   8.836   5.178   4.102 -0.7382  0.8052 -1.8805
  895MOL0     H20782   8.692   5.080   4.134 -1.3624  0.6983 -3.9350
  895MOL0     H20783   8.805   5.293   4.323 -1.4980  1.0043 -1.4843
  895MOL0     H20784   8.844   5.114   4.337 -1.3905 -1.4803  0.2022
  895MOL0     H20785   8.470   5.306   4.475  1.5267 -3.3482 -1.6505
  895MOL0     H20786   8.413   5.576   4.592  1.6525  1.2939  0.0234
  895MOL0     H20787   8.347   5.423   4.645 -0.0245 -0.5783  1.4159
  895MOL0     H20788   8.432   5.528   4.767 -2.2163 -0.4586 -0.8045
  895MOL0     H20789   8.965   5.733   4.906  1.4395 -0.5623 -0.0161
  895MOL0     H20790   8.992   5.906   5.059 -0.2743  1.3267  0.1025
  895MOL0     H20791   9.033   6.016   5.231 -0.5072 -0.6649 -1.1336
  895MOL0     H20792   8.901   6.099   5.182 -0.6030  0.5721  0.3389
  895MOL0     H20793   8.970   6.081   5.484  1.0120 -0.4774 -0.7879
  895MOL0     H20794   9.031   6.211   5.383  0.6140 -0.1782  0.5710
  895MOL0     H20795   8.739   6.131   5.392  1.4734 -2.7439  1.2632
  895MOL0     H20796   8.810   6.284   5.344 -1.7128 -2.4485 -2.0620
  895MOL0     H20797   8.756   6.180   5.616 -1.4776 -0.0034 -0.7873
  895MOL0     H20798   8.861   6.335   5.570 -1.3981  2.1190  0.1144
  895MOL0     H20799   8.660   6.430   5.488 -1.6357 -0.0215 -0.7227
  895MOL0     H20800   8.604   6.379   5.642  1.3396  2.3387 -1.1610
  895MOL0     H20801   8.429   6.312   5.462 -0.5630  0.3619  1.2042
  895MOL0     H20802   8.545   6.221   5.382 -0.7648  0.5946 -0.4182
  895MOL0     H20803   8.504   6.147   5.679  2.4162  0.5086 -0.0525
  895MOL0     H20804   8.573   6.057   5.540 -3.0012 -1.9733 -3.3432
  895MOL0     H20805   8.289   6.151   5.550  0.2261  1.2676  0.8329
  895MOL0     H20806   8.337   5.990   5.603 -0.1277  1.4772  1.2810
  895MOL0     H20807   8.690   5.741   5.311  0.9801 -0.7248  1.2191
  895MOL0     H20808   8.646   5.574   5.140 -1.3395  0.4976 -1.1087
  895MOL0     H20809   8.880   5.364   4.753  0.3538  1.9572 -1.0195
  895MOL0     H20810   8.873   5.196   4.558 -1.6086 -2.7328  1.8713
  895MOL0     H20811   9.296   5.008   3.086 -1.6399 -0.2513 -0.7505
  895MOL0     H20812   9.468   4.828   3.068  1.1624  0.3206 -0.3466
  895MOL0     H20813   9.775   4.474   3.050  1.1548 -1.9852  0.1462
  895MOL0     H20814  10.005   4.399   2.999  1.2813  1.6281  0.2634
  895MOL0     H20815  10.252   4.403   2.922  2.8746 -1.9083 -1.0425
  895MOL0     H20816  10.141   4.276   2.881  5.5065 -2.9749  3.3653
  895MOL0     H20817  10.366   4.243   2.833 -1.9435  1.8590  3.4420
  895MOL0     H20818  10.384   4.356   2.701  0.2268  0.2530  1.6372
  895MOL0     H20819  10.187   4.124   2.681 -0.5729 -0.2796 -1.3069
  895MOL0     H20820  10.352   4.111   2.638 -1.8991 -1.7890  3.3282
  895MOL0     H20821  10.339   4.297   2.476  0.4547 -2.0062 -1.0358
  895MOL0     H20822  10.173   4.322   2.529 -0.2600  1.1561 -1.8952
  895MOL0     H20823  10.211   3.967   2.252  0.2255 -0.0125  0.9218
  895MOL0     H20824  10.024   4.653   2.647 -3.4394  2.1189 -1.7133
  895MOL0     H20825   9.798   4.728   2.697 -1.7909  1.4953  1.8789
  896MOL0     O20826   3.313   9.003   8.315 -0.5415 -0.4250  0.9099
  896MOL0     C20827   3.390   9.026   8.223  0.7703 -0.8770  0.0229
  896MOL0     O20828   3.375   8.974   8.096 -0.6015  0.6661 -0.0824
  896MOL0     C20829   3.287   8.872   8.057 -1.1819 -0.6030  0.7560
  896MOL0     C20830   3.290   8.845   7.918  0.8284  0.1283 -0.2277
  896MOL0     C20831   3.211   8.748   7.860  0.0249 -0.8983  0.1862
  896MOL0     C20832   3.113   8.679   7.944 -0.0803 -0.2598 -0.2910
  896MOL0     O20833   3.015   8.596   7.896 -0.0182 -0.0280  0.4448
  896MOL0     C20834   3.053   8.501   7.800 -0.1716 -1.3093 -0.7333
  896MOL0     C20835   2.982   8.376   7.845  0.2093 -1.3440 -0.3576
  896MOL0     C20836   3.014   8.273   7.745  0.3497 -0.2209  0.3019
  896MOL0     C20837   2.925   8.278   7.611  0.1387 -0.3340  0.3462
  896MOL0     C20838   2.900   8.136   7.546 -0.4161  0.2854 -0.8159
  896MOL0     C20839   2.796   8.147   7.431  0.0731  0.6419 -1.4304
  896MOL0     C20840   2.698   8.020   7.416  0.5917  0.1739 -0.0859
  896MOL0     C20841   2.768   7.883   7.428 -0.4991 -0.2766 -0.0098
  896MOL0     N20842   2.669   7.772   7.447  0.5962  0.4972  0.1993
  896MOL0     C20843   2.532   7.763   7.443 -0.1866 -0.6255  0.1647
  896MOL0     C20844   2.502   7.633   7.475  0.4209 -0.6569  0.7729
  896MOL0     C20845   2.360   7.579   7.471 -0.0492  0.9317 -1.0635
  896MOL0     C20846   2.321   7.542   7.321  0.0670 -0.4830 -0.9008
  896MOL0     C20847   2.244   7.409   7.315 -0.1204  0.1194  0.4339
  896MOL0     C20848   2.328   7.285   7.362 -0.1059 -0.1570  0.0648
  896MOL0     O20849   2.272   7.173   7.293  0.5085  0.3616  0.0032
  896MOL0     C20850   2.332   7.051   7.322 -0.2090  1.4945 -0.0974
  896MOL0     C20851   2.470   7.034   7.352  0.0741  0.3496 -0.2331
  896MOL0     C20852   2.518   6.899   7.387 -0.6800 -0.0241 -0.2582
  896MOL0     C20853   2.660   6.891   7.406  0.0066 -1.2936  0.4691
  896MOL0     C20854   2.431   6.787   7.394  0.2131  0.1122  0.2568
  896MOL0     C20855   2.464   6.651   7.439  0.5755 -0.6518  0.9783
  896MOL0     O20856   2.385   6.553   7.382 -0.3800 -0.0666 -0.6647
  896MOL0     C20857   2.416   6.419   7.389 -0.1224  0.6105 -0.5142
  896MOL0     C20858   2.535   6.359   7.427  1.0482 -0.7773  0.0142
  896MOL0     C20859   2.554   6.219   7.422 -0.0979 -0.3489 -0.5818
  896MOL0     C20860   2.448   6.130   7.391  0.3830  0.5612 -1.5922
  896MOL0     O20861   2.477   5.997   7.424  1.2549  0.7710 -0.0220
  896MOL0     C20862   2.363   5.914   7.426  0.3487 -0.1438 -0.3292
  896MOL0     C20863   2.292   5.924   7.558  0.0577 -0.2423 -0.2911
  896MOL0     C20864   2.151   5.864   7.546 -1.1077 -0.5195 -1.2013
  896MOL0     C20865   2.139   5.719   7.525  0.6273  0.0384  1.0757
  896MOL0     C20866   2.000   5.660   7.536  0.6977  0.2539 -0.3314
  896MOL0     C20867   1.996   5.515   7.587 -0.3826 -0.3312 -0.2706
  896MOL0     C20868   1.849   5.471   7.624  0.5931 -0.6703  0.2126
  896MOL0     C20869   1.833   5.331   7.679  0.0097 -1.0310  0.6735
  896MOL0    Cl20870   1.910   5.292   7.841  0.4636 -0.1743 -0.2441
  896MOL0     C20871   2.326   6.189   7.348 -0.0058 -0.2386 -0.2146
  896MOL0     C20872   2.322   6.329   7.340 -0.3295 -0.6815 -0.6890
  896MOL0     O20873   2.550   6.625   7.521  0.6005 -0.2986  0.0026
  896MOL0     C20874   2.300   6.816   7.371 -1.0890 -0.7330 -0.1981
  896MOL0     C20875   2.245   6.944   7.330 -0.0098 -0.8667  0.4722
  896MOL0     N20876   2.617   7.558   7.481 -0.4986  0.5840 -0.3187
  896MOL0     N20877   2.721   7.640   7.460  0.2994 -0.5628 -0.5240
  896MOL0     C20878   3.114   8.702   8.079 -0.0749 -0.0612 -0.0572
  896MOL0     C20879   3.209   8.791   8.138  0.2311 -0.2208  0.7747
  896MOL0     C20880   3.504   9.115   8.265  1.0695  0.1136  0.1347
  896MOL0     C20881   3.522   9.146   8.401 -0.0873 -0.8617 -0.1968
  896MOL0     C20882   3.626   9.234   8.438  0.8052  0.0773 -0.1603
  896MOL0     C20883   3.716   9.287   8.344 -0.1275  0.3424  0.0352
  896MOL0     O20884   3.804   9.376   8.401 -0.5245 -0.3727 -0.5510
  896MOL0     C20885   3.908   9.442   8.328 -0.7839  0.5724 -0.1414
  896MOL0     C20886   4.031   9.346   8.304 -0.3978 -0.1977 -0.7313
  896MOL0     C20887   4.162   9.409   8.289 -0.4630 -0.5069 -0.0833
  896MOL0     C20888   4.252   9.321   8.214  0.0474 -0.6245 -0.7172
  896MOL0     C20889   4.371   9.385   8.168 -1.5851 -0.1706  0.1224
  896MOL0     C20890   4.485   9.423   8.134  0.0502 -0.1078 -1.1188
  896MOL0     C20891   3.707   9.247   8.212 -0.1520 -0.8455  0.4139
  896MOL0     C20892   3.585   9.171   8.170  0.4889  0.0804 -0.0956
  896MOL0     H20893   3.352   8.906   7.852  0.4754  0.5807 -0.1446
  896MOL0     H20894   3.193   8.742   7.753 -0.7644  1.8392  0.0863
  896MOL0     H20895   3.030   8.538   7.700 -1.5537 -0.3033 -0.0774
  896MOL0     H20896   3.162   8.493   7.805 -0.1817 -0.8635  0.7343
  896MOL0     H20897   3.018   8.350   7.945  0.0104  0.9714  0.3718
  896MOL0     H20898   2.874   8.386   7.856  0.4069 -0.5999  1.0722
  896MOL0     H20899   3.119   8.268   7.712  0.5333  1.4361  0.5408
  896MOL0     H20900   2.996   8.172   7.784  1.2253 -0.2813  0.5700
  896MOL0     H20901   2.824   8.306   7.643  0.7867 -1.1892  3.4910
  896MOL0     H20902   2.963   8.348   7.536 -2.6810  0.2696 -0.6572
  896MOL0     H20903   2.995   8.093   7.515 -0.0987  3.7439 -5.8986
  896MOL0     H20904   2.858   8.080   7.630 -2.2925  0.4468 -1.5898
  896MOL0     H20905   2.725   8.231   7.435 -1.1600 -0.1440 -4.1897
  896MOL0     H20906   2.841   8.161   7.332 -0.4684 -0.4686 -1.8416
  896MOL0     H20907   2.612   8.027   7.483  0.8559 -2.6055  0.6632
  896MOL0     H20908   2.662   8.029   7.313 -0.2655 -0.1308  0.1805
  896MOL0     H20909   2.834   7.877   7.515 -1.7497 -1.5849  0.9038
  896MOL0     H20910   2.827   7.868   7.338  0.0183  0.8834  0.1243
  896MOL0     H20911   2.466   7.845   7.416  0.2771 -0.5323 -0.7152
  896MOL0     H20912   2.359   7.489   7.532  1.4207  0.2552 -1.9740
  896MOL0     H20913   2.289   7.643   7.526  0.2789 -1.3147  2.2368
  896MOL0     H20914   2.411   7.531   7.259  1.2414 -1.2640  0.8625
  896MOL0     H20915   2.255   7.626   7.296 -1.1314 -0.1132  2.8694
  896MOL0     H20916   2.222   7.405   7.208 -2.8050 -0.0735  0.9206
  896MOL0     H20917   2.147   7.410   7.366 -1.3036  1.2953 -1.7020
  896MOL0     H20918   2.331   7.273   7.470 -0.1319 -2.1007 -0.1194
  896MOL0     H20919   2.431   7.297   7.327 -0.8072  0.2311 -2.0302
  896MOL0     H20920   2.547   7.108   7.333 -0.7448  1.3342  0.2199
  896MOL0     H20921   2.718   6.978   7.375 -0.4881  0.0211  2.9755
  896MOL0     H20922   2.672   6.849   7.507 -2.0140 -2.5219  0.2582
  896MOL0     H20923   2.698   6.814   7.339  1.7799  1.2388 -1.6334
  896MOL0     H20924   2.625   6.414   7.450  1.6085 -1.8353  0.4015
  896MOL0     H20925   2.652   6.179   7.449 -0.2378  0.8623  2.0420
  896MOL0     H20926   2.299   5.931   7.339  0.3940 -2.1590 -0.8063
  896MOL0     H20927   2.384   5.808   7.413 -4.5803 -1.0115 -4.0081
  896MOL0     H20928   2.358   5.867   7.625 -0.6606 -0.9266 -0.1537
  896MOL0     H20929   2.275   6.028   7.587 -0.6728  0.2120 -2.2212
  896MOL0     H20930   2.099   5.915   7.465  0.2602  1.5683 -0.8631
  896MOL0     H20931   2.102   5.901   7.637 -1.6184  0.4795 -1.8526
  896MOL0     H20932   2.172   5.701   7.422 -2.5547 -1.4158  0.1721
  896MOL0     H20933   2.201   5.670   7.600  2.1802  2.7665  1.6944
  896MOL0     H20934   1.953   5.654   7.438 -2.3736  0.4257  1.0232
  896MOL0     H20935   1.941   5.715   7.610 -0.1403 -2.3500  1.0975
  896MOL0     H20936   2.031   5.458   7.501 -0.8449 -0.5724 -0.3004
  896MOL0     H20937   2.069   5.498   7.667 -0.2108  2.7252  0.3408
  896MOL0     H20938   1.794   5.471   7.530  1.2427  0.8801 -0.2050
  896MOL0     H20939   1.805   5.540   7.697 -0.2380 -1.1980  0.2238
  896MOL0     H20940   1.878   5.261   7.608 -0.2502 -0.5431  0.0080
  896MOL0     H20941   1.725   5.317   7.691 -0.5441  0.7680 -1.4970
  896MOL0     H20942   2.238   6.140   7.307  2.1219 -2.0301 -3.0494
  896MOL0     H20943   2.233   6.376   7.300  0.0074  0.9071  0.3395
  896MOL0     H20944   2.232   6.734   7.391 -0.5835 -0.2786  4.4050
  896MOL0     H20945   2.141   6.967   7.313  0.9761  2.1039 -2.5781
  896MOL0     H20946   3.051   8.659   8.156  2.1523  0.0544  1.9717
  896MOL0     H20947   3.208   8.818   8.244  0.1828  3.0145  0.0430
  896MOL0     H20948   3.440   9.115   8.465 -0.2733  0.5041  0.2487
  896MOL0     H20949   3.627   9.272   8.540  0.2942  1.8476 -0.7807
  896MOL0     H20950   3.870   9.487   8.236 -2.3450 -0.4280 -0.0294
  896MOL0     H20951   3.950   9.522   8.390 -1.3665  1.3999 -0.8050
  896MOL0     H20952   3.998   9.285   8.219 -2.6645  3.2863 -2.5807
  896MOL0     H20953   4.035   9.276   8.388  0.1640  2.8096  1.9166
  896MOL0     H20954   4.204   9.433   8.388 -0.5278 -0.0304 -0.1684
  896MOL0     H20955   4.149   9.508   8.244 -1.6815 -0.9762 -0.8072
  896MOL0     H20956   4.206   9.286   8.121 -0.6645 -0.2204 -0.5248
  896MOL0     H20957   4.281   9.232   8.270 -1.5837 -0.2585  0.7846
  896MOL0     H20958   4.588   9.446   8.113  0.1212 -0.7521 -1.5021
  896MOL0     H20959   3.779   9.287   8.142  0.1864 -2.5626 -0.2692
  896MOL0     H20960   3.588   9.136   8.067 -0.0748 -0.8466  0.1867
  897MOL0     O20961   8.305   2.179   0.186 -0.6031  0.7221 -0.2623
  897MOL0     C20962   8.231   2.271   0.163  0.2364 -0.3964 -0.4363
  897MOL0     O20963   8.207   2.381   0.244 -0.5239 -0.4323 -0.6057
  897MOL0     C20964   8.292   2.388   0.351  0.2975  0.3676  0.0650
  897MOL0     C20965   8.256   2.309   0.463 -0.3999 -0.8405 -0.2073
  897MOL0     C20966   8.335   2.307   0.578  0.4424  0.4647  0.6581
  897MOL0     C20967   8.455   2.369   0.573 -0.8130  0.9196 -0.6915
  897MOL0     O20968   8.547   2.364   0.686 -0.1001 -1.1695  0.1182
  897MOL0     C20969   8.503   2.316   0.817 -0.6512 -0.4668 -0.1599
  897MOL0     C20970   8.444   2.440   0.894 -0.2265  0.6428 -0.2643
  897MOL0     C20971   8.554   2.509   0.992  1.1018  0.7095 -0.6456
  897MOL0     C20972   8.506   2.643   1.043  0.1734 -0.9053  0.0797
  897MOL0     C20973   8.507   2.750   0.925 -0.3264  1.6933 -0.4689
  897MOL0     C20974   8.429   2.878   0.972 -0.8615 -0.1322  0.1111
  897MOL0     C20975   8.488   2.998   0.891  0.1285 -1.1165  0.9292
  897MOL0     C20976   8.405   3.126   0.904  1.0649  0.1382 -0.2458
  897MOL0     N20977   8.275   3.128   0.819 -1.8040 -0.0216 -0.0058
  897MOL0     C20978   8.158   3.070   0.848  0.1263  0.2111  0.0543
  897MOL0     C20979   8.084   3.072   0.732 -1.0476 -1.2239 -0.2157
  897MOL0     C20980   7.943   3.024   0.722 -1.1295  0.0619  0.2210
  897MOL0     C20981   7.847   3.128   0.693 -0.0406 -0.5886 -1.0382
  897MOL0     C20982   7.694   3.093   0.683 -0.8432 -0.0412  0.4237
  897MOL0     C20983   7.615   3.226   0.656  0.6845 -0.2684  0.5596
  897MOL0     O20984   7.687   3.314   0.570 -0.8806 -0.6629  0.1229
  897MOL0     C20985   7.659   3.441   0.587  0.3274  0.1189  0.9789
  897MOL0     C20986   7.727   3.533   0.655 -0.2772  0.0304  0.6685
  897MOL0     C20987   7.679   3.662   0.667 -0.5903 -0.0463 -0.0770
  897MOL0     C20988   7.749   3.741   0.768  0.2481  0.2460 -0.2176
  897MOL0     C20989   7.556   3.699   0.601 -0.9520  0.8629 -0.9027
  897MOL0     C20990   7.491   3.825   0.631 -0.1247 -0.1507 -0.2496
  897MOL0     O20991   7.378   3.857   0.560 -0.2949  0.1546  0.6374
  897MOL0     C20992   7.304   3.958   0.615  0.5668  0.1020  0.4939
  897MOL0     C20993   7.329   4.090   0.566  0.7729  0.6920  0.0731
  897MOL0     C20994   7.253   4.199   0.601  0.2330 -0.3747 -0.5445
  897MOL0     C20995   7.148   4.193   0.692  1.0071  0.3556  0.6167
  897MOL0     O20996   7.076   4.299   0.740 -0.0556 -0.4324 -0.3774
  897MOL0     C20997   7.062   4.413   0.657 -0.7142  0.5601 -0.4608
  897MOL0     C20998   7.156   4.516   0.709 -0.6630  0.2395 -0.7153
  897MOL0     C20999   7.099   4.606   0.820  0.1134  0.7375  0.3491
  897MOL0     C21000   7.197   4.598   0.932  0.0325  0.0314  0.2057
  897MOL0     C21001   7.147   4.673   1.053  0.3018  0.0813 -0.1095
  897MOL0     C21002   7.136   4.825   1.030 -0.6129 -0.0722 -0.6269
  897MOL0     C21003   7.163   4.899   1.162 -0.0137 -0.4092  0.4629
  897MOL0     C21004   7.058   4.898   1.267  0.4399  0.2369  0.2196
  897MOL0    Cl21005   7.039   4.737   1.341  0.1061  0.6794  0.8736
  897MOL0     C21006   7.126   4.071   0.752 -0.0424 -0.4232  0.5784
  897MOL0     C21007   7.206   3.959   0.712  0.0453 -0.5990  0.3502
  897MOL0     O21008   7.540   3.908   0.713 -0.2170 -0.3056  0.1804
  897MOL0     C21009   7.499   3.608   0.514  0.7649 -0.8959  0.0197
  897MOL0     C21010   7.545   3.478   0.505  0.6360 -0.1392  0.3312
  897MOL0     N21011   8.158   3.138   0.640 -0.0955 -0.7778  0.6390
  897MOL0     N21012   8.272   3.173   0.687  0.0389  0.7091 -0.2259
  897MOL0     C21013   8.500   2.438   0.464  0.7323 -0.7318  0.7890
  897MOL0     C21014   8.416   2.454   0.348 -0.2386  0.3435 -0.0103
  897MOL0     C21015   8.164   2.281   0.026 -0.9265 -0.6323 -0.2873
  897MOL0     C21016   8.110   2.406  -0.013  0.5468 -0.0463  0.0154
  897MOL0     C21017   8.063   2.422  -0.142 -0.0830 -0.9170  0.2075
  897MOL0     C21018   8.069   2.313  -0.236 -0.6504  0.0748 -0.6244
  897MOL0     O21019   7.998   2.320  -0.356  0.2851 -0.3023 -0.3187
  897MOL0     C21020   7.977   2.439  -0.424  0.4420 -0.6387  0.0400
  897MOL0     C21021   7.824   2.493  -0.421  1.0714  0.3279 -0.2008
  897MOL0     C21022   7.799   2.607  -0.519 -0.0944 -0.3432  0.8102
  897MOL0     C21023   7.864   2.740  -0.492  0.3643  0.1550 -0.2442
  897MOL0     C21024   7.984   2.748  -0.576  0.6236 -0.3527 -0.0602
  897MOL0     C21025   8.081   2.752  -0.641  0.0587  0.4730  0.1797
  897MOL0     C21026   8.122   2.190  -0.188  1.1009  0.2303  0.7189
  897MOL0     C21027   8.179   2.176  -0.067  0.9320  0.6393 -0.9933
  897MOL0     H21028   8.159   2.260   0.457  0.2330 -2.0464 -0.9413
  897MOL0     H21029   8.302   2.255   0.667  0.4278 -0.6079  0.0476
  897MOL0     H21030   8.427   2.237   0.813  1.0330 -2.2743  1.2553
  897MOL0     H21031   8.593   2.267   0.857  0.0897 -0.1743 -1.4345
  897MOL0     H21032   8.408   2.515   0.823  1.6149  2.4057  0.5757
  897MOL0     H21033   8.356   2.407   0.951 -0.1980 -0.3227 -0.7564
  897MOL0     H21034   8.573   2.440   1.075  0.8022 -0.0344 -1.1867
  897MOL0     H21035   8.648   2.525   0.940  2.8243 -1.1830  1.6213
  897MOL0     H21036   8.411   2.625   1.095 -0.2422 -3.2996 -1.3423
  897MOL0     H21037   8.577   2.678   1.119  0.1913  1.5159 -0.9511
  897MOL0     H21038   8.606   2.791   0.903 -0.3957  3.1683  1.6008
  897MOL0     H21039   8.477   2.708   0.829  1.3149  2.3365 -1.2991
  897MOL0     H21040   8.321   2.869   0.952 -0.6741 -0.9805 -0.5917
  897MOL0     H21041   8.451   2.893   1.078 -1.7320 -1.6820  0.5485
  897MOL0     H21042   8.584   3.023   0.936  0.4449  0.0705 -0.3626
  897MOL0     H21043   8.502   2.967   0.788  4.6462  1.0370  0.6705
  897MOL0     H21044   8.459   3.214   0.869 -1.8902  2.0037 -0.5374
  897MOL0     H21045   8.378   3.139   1.009 -2.4486  0.6829 -1.0684
  897MOL0     H21046   8.130   3.035   0.947  0.4379 -0.3731 -0.0593
  897MOL0     H21047   7.958   2.960   0.634  0.2650  0.5016  0.1239
  897MOL0     H21048   7.913   2.966   0.810 -0.0448 -3.1714 -1.3608
  897MOL0     H21049   7.881   3.174   0.600 -0.5132 -1.8922 -1.8758
  897MOL0     H21050   7.867   3.193   0.779  0.4853 -1.8235 -0.1923
  897MOL0     H21051   7.657   3.064   0.782 -1.1812  4.0622  1.6855
  897MOL0     H21052   7.681   3.019   0.604  2.9175  1.2583 -1.6640
  897MOL0     H21053   7.600   3.264   0.757  0.0202 -0.3582  0.4990
  897MOL0     H21054   7.522   3.200   0.605  1.2687 -2.2625  0.3913
  897MOL0     H21055   7.817   3.492   0.700  0.0677 -0.0816 -0.0930
  897MOL0     H21056   7.700   3.764   0.863  0.6879 -0.6053  0.2247
  897MOL0     H21057   7.844   3.693   0.793 -0.6171 -1.3282  0.1548
  897MOL0     H21058   7.781   3.832   0.715  0.4466 -1.0159 -2.4072
  897MOL0     H21059   7.412   4.099   0.498  1.4937  1.3643  1.0133
  897MOL0     H21060   7.274   4.300   0.567  0.5502 -0.0568  0.5639
  897MOL0     H21061   7.072   4.399   0.549 -2.7797  1.2499 -0.7833
  897MOL0     H21062   6.963   4.457   0.671 -2.1665 -2.3410 -0.7976
  897MOL0     H21063   7.249   4.468   0.742 -0.0814  1.9864  0.3210
  897MOL0     H21064   7.177   4.599   0.641 -1.3846  2.5840  1.7756
  897MOL0     H21065   7.004   4.566   0.857  1.0288 -3.1866 -1.0756
  897MOL0     H21066   7.094   4.711   0.791 -2.0812  0.4093 -0.6498
  897MOL0     H21067   7.199   4.494   0.966 -0.6819 -0.0436  0.0354
  897MOL0     H21068   7.290   4.648   0.904  0.4139  1.4881  3.5412
  897MOL0     H21069   7.222   4.661   1.132 -0.1966  1.8083  0.6707
  897MOL0     H21070   7.056   4.620   1.084  0.3198  0.0192 -0.1651
  897MOL0     H21071   7.225   4.850   0.972  1.8497 -2.8030  1.6196
  897MOL0     H21072   7.043   4.859   0.985 -2.8891 -4.2951  0.3190
  897MOL0     H21073   7.178   5.004   1.137  1.8470 -1.0286 -1.3339
  897MOL0     H21074   7.262   4.866   1.196  0.1470  1.1496  1.6004
  897MOL0     H21075   6.961   4.930   1.227  1.7538  2.3547 -1.4842
  897MOL0     H21076   7.081   4.975   1.341  0.1710  2.4064 -1.8142
  897MOL0     H21077   7.069   4.054   0.843  1.3147  0.2586  1.5774
  897MOL0     H21078   7.181   3.866   0.762  1.1924  0.3824  2.9895
  897MOL0     H21079   7.412   3.625   0.450 -0.6599 -3.0385  1.2495
  897MOL0     H21080   7.510   3.411   0.428  1.1878 -0.4399  0.3452
  897MOL0     H21081   8.596   2.488   0.469  0.9303 -1.1674  1.4360
  897MOL0     H21082   8.447   2.508   0.260 -1.2287 -0.7742 -1.0866
  897MOL0     H21083   8.094   2.488   0.056 -0.2001  2.2991 -2.7720
  897MOL0     H21084   8.026   2.518  -0.176  3.2404 -0.1562 -1.6716
  897MOL0     H21085   8.049   2.517  -0.400 -0.9725  0.6563  0.2680
  897MOL0     H21086   8.000   2.413  -0.528 -1.2282 -2.3527  0.0459
  897MOL0     H21087   7.799   2.528  -0.320 -1.8789 -0.4516 -0.5806
  897MOL0     H21088   7.752   2.414  -0.445  1.2773  0.7430 -2.3171
  897MOL0     H21089   7.692   2.628  -0.528 -0.3909 -2.3206 -1.5107
  897MOL0     H21090   7.840   2.571  -0.614  2.7188  0.4105  1.6669
  897MOL0     H21091   7.903   2.745  -0.390 -1.4632 -3.1697  0.7545
  897MOL0     H21092   7.800   2.823  -0.523 -0.4540 -0.7437 -1.0341
  897MOL0     H21093   8.159   2.750  -0.714 -0.0649 -4.1373 -0.0704
  897MOL0     H21094   8.123   2.103  -0.252  3.8659  0.6348  0.0755
  897MOL0     H21095   8.208   2.078  -0.030 -0.9898  0.9052  1.4800
  898MOL0     O21096  10.948   5.450   6.049  0.6906 -0.2928  0.6418
  898MOL0     C21097  11.056   5.504   6.041 -0.2550  0.2130 -0.0169
  898MOL0     O21098  11.070   5.620   5.978 -0.5502  0.1623 -0.4120
  898MOL0     C21099  10.962   5.693   5.942  0.6132  0.1122 -1.0872
  898MOL0     C21100  10.909   5.790   6.032 -0.5878 -0.0108 -0.2095
  898MOL0     C21101  10.804   5.878   5.991 -0.3946  0.0765  0.8685
  898MOL0     C21102  10.743   5.865   5.864  0.1225  0.5532  1.2586
  898MOL0     O21103  10.646   5.958   5.843  0.3523 -0.4793  0.2120
  898MOL0     C21104  10.551   5.948   5.738  0.1232  0.2867 -0.0660
  898MOL0     C21105  10.456   5.822   5.739 -0.3820 -0.2175 -1.1080
  898MOL0     C21106  10.373   5.812   5.871 -0.4193  0.1965  0.4512
  898MOL0     C21107  10.238   5.868   5.844 -0.1385 -1.0168  0.4955
  898MOL0     C21108  10.149   5.876   5.963 -0.4659  0.3782  0.9968
  898MOL0     C21109  10.130   5.732   6.014  0.5611  0.3026  0.4920
  898MOL0     C21110   9.987   5.700   6.074  0.3112  0.0589  0.5282
  898MOL0     C21111   9.871   5.732   5.980 -0.1244 -0.7752 -0.3109
  898MOL0     N21112   9.857   5.645   5.858 -0.2416  0.3461  0.1352
  898MOL0     C21113   9.895   5.514   5.846 -0.2196  0.5767 -0.4689
  898MOL0     C21114   9.834   5.470   5.732  0.1779  0.0082 -0.1433
  898MOL0     C21115   9.836   5.323   5.687 -0.3313 -0.1712 -0.4115
  898MOL0     C21116   9.751   5.226   5.771 -1.7154  0.3968  0.7095
  898MOL0     C21117   9.759   5.081   5.697 -0.3786 -0.0213  0.4772
  898MOL0     C21118   9.908   5.024   5.683  0.0009 -0.0857  0.0635
  898MOL0     O21119   9.900   4.888   5.635  0.3632  0.2029 -0.1463
  898MOL0     C21120   9.885   4.891   5.497 -0.4221  0.8241  0.4279
  898MOL0     C21121   9.771   4.879   5.424  0.9500  0.4072 -0.0187
  898MOL0     C21122   9.766   4.890   5.280 -0.4834  0.1938 -0.0696
  898MOL0     C21123   9.627   4.912   5.210 -0.4737 -0.7055 -0.4577
  898MOL0     C21124   9.882   4.909   5.208 -0.3854  1.1592 -0.8597
  898MOL0     C21125   9.894   4.918   5.066 -0.0026 -0.0554 -1.0872
  898MOL0     O21126  10.012   4.880   5.018 -0.8123  0.4567  0.4866
  898MOL0     C21127  10.014   4.848   4.887  0.8245 -0.4213 -0.2277
  898MOL0     C21128   9.973   4.721   4.848  0.2316  0.4637  0.0047
  898MOL0     C21129   9.980   4.684   4.711  0.2466 -0.4610  0.1588
  898MOL0     C21130  10.022   4.781   4.617  0.4973  0.6024  0.3231
  898MOL0     O21131  10.040   4.748   4.489  0.3962 -1.1926  0.2737
  898MOL0     C21132   9.974   4.832   4.395 -0.2796  0.4946 -0.2218
  898MOL0     C21133   9.952   4.736   4.278  0.1355  0.1838  0.1912
  898MOL0     C21134   9.920   4.827   4.156  0.3750  0.4664  0.2309
  898MOL0     C21135   9.921   4.737   4.029  0.0823  0.8992 -0.5516
  898MOL0     C21136   9.885   4.819   3.905  0.8936 -0.6653 -0.1329
  898MOL0     C21137   9.908   4.729   3.778 -0.0054  0.4099  0.5883
  898MOL0     C21138   9.828   4.794   3.663 -0.1340 -0.1291  0.6563
  898MOL0     C21139   9.860   4.734   3.532  0.2488  0.1017  0.9795
  898MOL0    Cl21140  10.043   4.740   3.505 -0.2225  0.1218 -0.0537
  898MOL0     C21141  10.069   4.904   4.661 -0.0685  0.0045  0.4889
  898MOL0     C21142  10.065   4.938   4.797  0.3435 -0.2373  0.4860
  898MOL0     O21143   9.800   4.968   5.009  0.6082  0.1202  0.6501
  898MOL0     C21144  10.002   4.909   5.283  0.1452  0.6709 -0.5477
  898MOL0     C21145  10.001   4.899   5.423 -0.4175 -0.1832 -0.3122
  898MOL0     N21146   9.762   5.583   5.682  0.4596  0.9087  0.7272
  898MOL0     N21147   9.790   5.682   5.747  0.2310 -0.1779  0.0370
  898MOL0     C21148  10.803   5.771   5.769 -0.5268  0.5395 -0.5755
  898MOL0     C21149  10.918   5.684   5.811 -0.1340 -0.5964 -0.0884
  898MOL0     C21150  11.177   5.427   6.079  0.8011 -0.4118 -0.0619
  898MOL0     C21151  11.305   5.475   6.060 -0.5361  0.1255  0.0873
  898MOL0     C21152  11.426   5.405   6.090  1.5601 -1.3164  0.5795
  898MOL0     C21153  11.414   5.292   6.167  0.6581  0.7183 -0.2083
  898MOL0     O21154  11.519   5.228   6.225 -0.7660  0.5871  0.3226
  898MOL0     C21155  11.621   5.307   6.284  0.2049 -0.5890 -0.9882
  898MOL0     C21156  11.725   5.226   6.366  0.1200 -0.0368 -0.1597
  898MOL0     C21157  11.797   5.116   6.273 -0.4430  1.1481  0.9471
  898MOL0     C21158  11.948   5.143   6.244 -0.2005  0.0467 -1.0521
  898MOL0     C21159  12.026   5.149   6.369 -0.1486  0.6452 -0.3509
  898MOL0     C21160  12.099   5.141   6.464 -0.3411 -0.0386 -0.2690
  898MOL0     C21161  11.285   5.235   6.188  0.7004  0.2126 -0.8389
  898MOL0     C21162  11.170   5.300   6.149  0.2043 -0.5511  1.1859
  898MOL0     H21163  10.948   5.803   6.133  1.8274  1.4730 -1.2216
  898MOL0     H21164  10.770   5.963   6.049  0.5985  0.2484  1.2005
  898MOL0     H21165  10.487   6.036   5.748  2.1860  1.9319 -0.4224
  898MOL0     H21166  10.599   5.946   5.639 -1.5300 -1.6636 -0.8876
  898MOL0     H21167  10.391   5.819   5.651 -3.1430  0.0781  0.7901
  898MOL0     H21168  10.522   5.735   5.733  0.3940  0.0478  1.9024
  898MOL0     H21169  10.367   5.708   5.907  0.6023  0.3936  1.2475
  898MOL0     H21170  10.425   5.874   5.944 -0.4331  2.2782 -1.2269
  898MOL0     H21171  10.255   5.969   5.805  1.6118 -0.4139  2.6138
  898MOL0     H21172  10.182   5.820   5.763 -3.4327  2.7171  0.2598
  898MOL0     H21173  10.176   5.950   6.038  1.1937  1.7607 -0.8571
  898MOL0     H21174  10.057   5.924   5.926 -0.2808 -0.0444 -0.0637
  898MOL0     H21175  10.145   5.658   5.935  0.0670 -0.3593  0.9963
  898MOL0     H21176  10.209   5.717   6.089 -0.1249 -2.6312  0.7716
  898MOL0     H21177   9.962   5.597   6.099  1.9614 -0.4081  0.3592
  898MOL0     H21178   9.964   5.746   6.171 -2.6339 -2.7187  1.3019
  898MOL0     H21179   9.864   5.833   5.939 -2.5413 -0.3144  0.9974
  898MOL0     H21180   9.779   5.708   6.036 -2.9142  0.1806 -4.0895
  898MOL0     H21181   9.949   5.459   5.922 -1.4719 -0.7140 -0.4793
  898MOL0     H21182   9.789   5.312   5.589 -1.0261 -2.0263  0.0881
  898MOL0     H21183   9.942   5.297   5.677 -0.9633 -2.5994 -1.6535
  898MOL0     H21184   9.649   5.266   5.772 -2.3719 -1.2134  2.0239
  898MOL0     H21185   9.787   5.226   5.874 -1.5210 -0.4371  0.6458
  898MOL0     H21186   9.713   5.089   5.598 -0.2733  1.2979  0.5201
  898MOL0     H21187   9.694   5.012   5.752 -0.5884 -0.1335  0.0901
  898MOL0     H21188   9.949   5.043   5.782  0.3415  3.6282 -0.6568
  898MOL0     H21189   9.962   5.088   5.613 -1.1724  1.3073  0.3761
  898MOL0     H21190   9.682   4.890   5.485  0.1500 -0.0917 -1.0677
  898MOL0     H21191   9.615   5.009   5.160 -0.7761 -1.1156 -1.2143
  898MOL0     H21192   9.629   4.831   5.136  2.6514 -2.2590  1.1451
  898MOL0     H21193   9.541   4.910   5.278 -2.1531 -1.5280 -2.4794
  898MOL0     H21194   9.948   4.648   4.924 -0.5698  2.0980  1.3754
  898MOL0     H21195   9.950   4.584   4.682  1.7937 -0.8077 -0.3658
  898MOL0     H21196   9.887   4.877   4.444 -0.4028  2.1199 -1.8222
  898MOL0     H21197  10.041   4.916   4.376 -2.0986  2.5148  1.6158
  898MOL0     H21198  10.049   4.688   4.264  0.8212  1.7853 -1.0069
  898MOL0     H21199   9.878   4.658   4.298 -0.2462  0.9377  1.8284
  898MOL0     H21200   9.996   4.906   4.149 -0.9220  1.6626 -0.9318
  898MOL0     H21201   9.824   4.877   4.169  0.3745  0.4241  0.3869
  898MOL0     H21202  10.023   4.697   4.024 -1.6056 -4.2574 -0.1062
  898MOL0     H21203   9.848   4.655   4.031  1.0932 -0.2100 -3.5368
  898MOL0     H21204   9.941   4.911   3.889 -0.0150 -0.2343 -0.9608
  898MOL0     H21205   9.778   4.841   3.906  1.3885  2.2739  2.3200
  898MOL0     H21206  10.013   4.722   3.751 -0.6835 -2.8673 -1.8878
  898MOL0     H21207   9.866   4.629   3.795 -2.7336  1.1682 -1.0350
  898MOL0     H21208   9.847   4.902   3.670  1.7076 -0.5408  4.3756
  898MOL0     H21209   9.722   4.786   3.687  0.2945 -0.8530  2.4320
  898MOL0     H21210   9.816   4.807   3.463  4.3181  2.2828  0.3338
  898MOL0     H21211   9.830   4.630   3.538 -1.7050  0.6046  0.5434
  898MOL0     H21212  10.103   4.969   4.581  0.1947 -0.9287 -0.1743
  898MOL0     H21213  10.093   5.039   4.826  1.9201 -0.4354 -0.2323
  898MOL0     H21214  10.101   4.931   5.244  0.6555  2.0328  1.3930
  898MOL0     H21215  10.093   4.911   5.479 -0.7711  1.3231 -0.0056
  898MOL0     H21216  10.755   5.749   5.674 -1.2488 -1.9833  0.2826
  898MOL0     H21217  10.957   5.611   5.741 -1.2077  0.5473 -1.9843
  898MOL0     H21218  11.306   5.559   5.992  0.9479 -1.3263 -1.8000
  898MOL0     H21219  11.523   5.441   6.058  0.3033  3.0054  0.9612
  898MOL0     H21220  11.672   5.372   6.213 -0.4687  3.1242  1.6694
  898MOL0     H21221  11.570   5.375   6.352 -3.0442 -2.4688 -1.3224
  898MOL0     H21222  11.663   5.176   6.440  1.1075 -0.5323  0.3639
  898MOL0     H21223  11.803   5.288   6.413 -1.2202  0.1389  1.9426
  898MOL0     H21224  11.748   5.111   6.175 -1.9639 -2.4087  1.7174
  898MOL0     H21225  11.787   5.019   6.321 -0.3078  1.3538  1.3908
  898MOL0     H21226  11.976   5.237   6.194 -0.8098  0.2784 -0.9616
  898MOL0     H21227  11.976   5.058   6.181  0.7811 -1.2925  1.0549
  898MOL0     H21228  12.160   5.143   6.553  1.1014  0.7197 -1.2292
  898MOL0     H21229  11.277   5.137   6.235  2.6753  0.0917 -0.6425
  898MOL0     H21230  11.071   5.258   6.165 -0.0296 -2.4711 -3.7149
  899MOL0     O21231   4.760   9.778   3.630  0.3573  0.5496 -0.2259
  899MOL0     C21232   4.655   9.779   3.696  0.8697 -0.7712 -0.3271
  899MOL0     O21233   4.542   9.844   3.665 -0.1948 -0.6065  0.0074
  899MOL0     C21234   4.544   9.929   3.552  0.8119  0.1742 -0.0288
  899MOL0     C21235   4.453   9.893   3.445  0.0014 -0.2326 -0.9214
  899MOL0     C21236   4.462   9.969   3.323 -0.6657  0.8475  0.2661
  899MOL0     C21237   4.549  10.077   3.312  0.1019 -0.4519  0.8296
  899MOL0     O21238   4.560  10.144   3.199 -0.0266 -0.0090  0.2568
  899MOL0     C21239   4.540  10.073   3.074 -0.1676 -0.8210 -0.3762
  899MOL0     C21240   4.406  10.144   3.030 -1.2948  0.2713 -0.4131
  899MOL0     C21241   4.424  10.291   2.991  0.7530  0.4183 -0.8809
  899MOL0     C21242   4.291  10.343   2.924 -0.9062  0.0122 -0.7707
  899MOL0     C21243   4.301  10.473   2.854  0.7178  0.2259  1.1893
  899MOL0     C21244   4.321  10.580   2.958 -1.1151  0.3993  0.3074
  899MOL0     C21245   4.325  10.712   2.882 -0.7001 -0.7426 -0.7292
  899MOL0     C21246   4.456  10.729   2.806 -0.0960  0.6924  0.0523
  899MOL0     N21247   4.465  10.853   2.745  0.0278  0.5574 -0.3418
  899MOL0     C21248   4.372  10.927   2.674  0.5374  0.1187 -0.1511
  899MOL0     C21249   4.434  11.042   2.645  0.3250  0.0608 -0.5564
  899MOL0     C21250   4.368  11.156   2.565 -0.7710 -0.8214  1.3216
  899MOL0     C21251   4.455  11.222   2.458 -0.3580  0.1180  0.1585
  899MOL0     C21252   4.394  11.352   2.407 -0.8709 -0.1702  0.2489
  899MOL0     C21253   4.485  11.428   2.301  0.2225 -0.4282 -0.3739
  899MOL0     O21254   4.623  11.418   2.337  0.3005  1.1179  0.9138
  899MOL0     C21255   4.703  11.492   2.260 -0.8866  0.2737 -0.0099
  899MOL0     C21256   4.671  11.565   2.138  0.7539  1.0537 -1.1002
  899MOL0     C21257   4.758  11.653   2.073 -0.3444  0.0315 -0.2167
  899MOL0     C21258   4.704  11.750   1.959 -0.3810 -0.4622 -0.3740
  899MOL0     C21259   4.891  11.653   2.118 -0.4228  0.6783 -0.2246
  899MOL0     C21260   5.004  11.734   2.059  1.2814 -0.2819 -0.2482
  899MOL0     O21261   5.027  11.748   1.928 -0.7221  0.1777 -0.0592
  899MOL0     C21262   5.003  11.644   1.838 -0.3974 -0.4006  0.1408
  899MOL0     C21263   4.968  11.692   1.713 -0.4576  0.2711 -0.0500
  899MOL0     C21264   4.930  11.601   1.610  0.2955  0.7059  0.2137
  899MOL0     C21265   4.930  11.465   1.640  0.7630  0.8172  1.0275
  899MOL0     O21266   4.888  11.357   1.568  0.2688 -0.7058 -0.1922
  899MOL0     C21267   4.767  11.377   1.496 -0.0438  0.3381 -1.0383
  899MOL0     C21268   4.742  11.279   1.386 -0.6018  0.7678 -0.3368
  899MOL0     C21269   4.628  11.319   1.299 -0.8393  0.6404 -0.2242
  899MOL0     C21270   4.583  11.217   1.204  1.1122 -0.1712  0.7242
  899MOL0     C21271   4.453  11.280   1.122 -0.1202  0.4273 -0.1693
  899MOL0     C21272   4.434  11.206   0.993 -1.5226  0.3614 -0.2018
  899MOL0     C21273   4.293  11.235   0.926 -0.7416  0.1894  0.2644
  899MOL0     C21274   4.238  11.097   0.869 -0.1556 -0.1682 -0.3431
  899MOL0    Cl21275   4.342  11.039   0.736 -0.1363 -0.5277  0.1959
  899MOL0     C21276   4.964  11.425   1.771 -0.1660  0.1793 -0.6364
  899MOL0     C21277   5.004  11.509   1.870 -0.0682 -0.2210  0.4358
  899MOL0     O21278   5.045  11.810   2.138 -0.1264  0.8019  0.5124
  899MOL0     C21279   4.935  11.562   2.225 -0.0332 -0.2346 -0.5633
  899MOL0     C21280   4.839  11.486   2.294  0.7364  0.3882 -0.3031
  899MOL0     N21281   4.561  11.043   2.703  0.4192 -0.6433  0.5104
  899MOL0     N21282   4.570  10.935   2.766 -0.0766 -0.9506 -0.1776
  899MOL0     C21283   4.633  10.109   3.417 -0.4325 -0.5689  0.5228
  899MOL0     C21284   4.631  10.043   3.539 -1.3470  0.7932 -0.0140
  899MOL0     C21285   4.655   9.704   3.828  0.0278  1.4715 -0.9674
  899MOL0     C21286   4.536   9.707   3.912 -0.3927  0.3465 -0.3868
  899MOL0     C21287   4.545   9.644   4.034  0.0898  0.3405 -0.4857
  899MOL0     C21288   4.657   9.578   4.082 -0.0078 -0.2662  0.6706
  899MOL0     O21289   4.665   9.540   4.218  0.3110 -0.1494  0.3655
  899MOL0     C21290   4.783   9.480   4.283  1.2874  0.1791 -0.4473
  899MOL0     C21291   4.742   9.390   4.392  0.2881  1.0641 -0.5705
  899MOL0     C21292   4.853   9.352   4.485 -0.8034 -0.2992  0.4382
  899MOL0     C21293   4.895   9.470   4.570  0.1700 -0.0590 -0.3377
  899MOL0     C21294   4.985   9.429   4.676 -0.7521 -0.2758 -0.8934
  899MOL0     C21295   5.079   9.412   4.756  0.5417  0.2339 -0.1606
  899MOL0     C21296   4.767   9.566   3.995  0.0169 -0.2583 -0.8154
  899MOL0     C21297   4.766   9.634   3.874 -0.7701  0.3011 -0.3259
  899MOL0     H21298   4.391   9.806   3.464  3.1260 -2.4426 -0.0139
  899MOL0     H21299   4.384   9.942   3.253 -3.8906  2.8734  2.7778
  899MOL0     H21300   4.624  10.070   3.004 -1.7147 -1.7987 -2.2926
  899MOL0     H21301   4.526   9.964   3.073 -2.1462 -0.6287  0.4772
  899MOL0     H21302   4.386  10.099   2.932 -3.6784  3.8466 -1.7402
  899MOL0     H21303   4.324  10.127   3.100 -1.0152  2.7099  0.6073
  899MOL0     H21304   4.437  10.351   3.082 -0.3745 -1.0004  0.2674
  899MOL0     H21305   4.506  10.289   2.919  0.6727 -2.1149 -0.9859
  899MOL0     H21306   4.266  10.263   2.852  1.4518 -2.0633  0.5617
  899MOL0     H21307   4.219  10.329   3.005  0.7488 -2.4071  0.4136
  899MOL0     H21308   4.378  10.482   2.777  1.4173  2.3905  2.0646
  899MOL0     H21309   4.205  10.497   2.808  1.5337  3.3819  0.9030
  899MOL0     H21310   4.251  10.574   3.042  0.3315  0.4267  1.5460
  899MOL0     H21311   4.414  10.554   3.008 -0.6721  1.4937  0.0805
  899MOL0     H21312   4.234  10.736   2.827 -1.6179  3.5926  2.1356
  899MOL0     H21313   4.322  10.786   2.962  0.3929 -2.1954  0.7188
  899MOL0     H21314   4.465  10.658   2.724 -1.3500  1.9948 -1.2842
  899MOL0     H21315   4.549  10.720   2.862  1.4992 -2.0937 -2.7702
  899MOL0     H21316   4.269  10.909   2.644  0.5007  0.5397 -0.2864
  899MOL0     H21317   4.282  11.123   2.506  1.1684 -0.0361 -2.2883
  899MOL0     H21318   4.334  11.231   2.637  2.0544  1.6784  0.2403
  899MOL0     H21319   4.480  11.156   2.374 -0.1018  2.1458 -1.4283
  899MOL0     H21320   4.551  11.243   2.503 -0.3573 -1.0111  0.7279
  899MOL0     H21321   4.398  11.410   2.500 -1.2216  0.1753  0.0511
  899MOL0     H21322   4.291  11.352   2.370 -0.2049  1.6603 -1.8508
  899MOL0     H21323   4.452  11.531   2.314 -1.3228 -0.8664 -0.6143
  899MOL0     H21324   4.471  11.396   2.198  0.1614  2.7607 -1.4480
  899MOL0     H21325   4.569  11.562   2.101  0.5098  3.5945 -0.7921
  899MOL0     H21326   4.626  11.816   1.999  0.5841  1.0883 -0.9405
  899MOL0     H21327   4.783  11.818   1.926 -1.7571  0.9389 -0.8972
  899MOL0     H21328   4.666  11.679   1.886 -0.3557  0.1880 -1.0328
  899MOL0     H21329   4.967  11.799   1.694 -1.0161  0.6848  2.1255
  899MOL0     H21330   4.884  11.627   1.515  0.6203  4.9076  1.0028
  899MOL0     H21331   4.691  11.388   1.574  2.2285 -1.7886  1.7177
  899MOL0     H21332   4.767  11.469   1.437 -0.7838  1.2989  0.3907
  899MOL0     H21333   4.831  11.289   1.325 -0.5467 -3.9137 -1.3900
  899MOL0     H21334   4.722  11.176   1.416 -2.2444  0.3349 -2.6084
  899MOL0     H21335   4.663  11.403   1.239  1.1811  3.8198  4.6968
  899MOL0     H21336   4.538  11.355   1.352 -3.3522 -1.8494 -2.4822
  899MOL0     H21337   4.658  11.207   1.126  1.1024  0.8724  0.5695
  899MOL0     H21338   4.547  11.122   1.247 -1.8939  0.0818 -0.9102
  899MOL0     H21339   4.461  11.388   1.109  5.6422  0.3218  0.2891
  899MOL0     H21340   4.366  11.259   1.186  1.1899  1.6582  2.1380
  899MOL0     H21341   4.513  11.234   0.922 -0.1067  1.3657  1.6997
  899MOL0     H21342   4.463  11.104   1.018 -1.2711  1.2929  4.0219
  899MOL0     H21343   4.289  11.307   0.843  1.6274 -1.4402 -1.3916
  899MOL0     H21344   4.227  11.265   1.008  0.1132 -2.4569  2.0390
  899MOL0     H21345   4.146  11.117   0.814  0.3981 -1.8798 -1.9918
  899MOL0     H21346   4.233  11.027   0.952  2.2486 -1.8377 -1.4855
  899MOL0     H21347   4.954  11.321   1.798  0.4841 -0.1274 -1.5380
  899MOL0     H21348   5.049  11.477   1.963  1.6709  0.6451 -0.0655
  899MOL0     H21349   5.034  11.545   2.267  0.5345  1.3773 -1.1426
  899MOL0     H21350   4.867  11.436   2.385 -0.6646 -0.8002 -0.4951
  899MOL0     H21351   4.712  10.184   3.410 -2.5867  1.9535  1.7085
  899MOL0     H21352   4.691  10.071   3.625  2.5780 -0.5783 -2.0665
  899MOL0     H21353   4.450   9.759   3.870 -0.8971 -1.4979 -1.7403
  899MOL0     H21354   4.462   9.656   4.102 -0.7225 -0.4097 -1.3147
  899MOL0     H21355   4.853   9.429   4.217  1.2560 -0.4963  0.0366
  899MOL0     H21356   4.834   9.566   4.328  0.9462  1.2677 -2.0583
  899MOL0     H21357   4.721   9.292   4.348  4.2191  1.0403 -2.9204
  899MOL0     H21358   4.651   9.431   4.437 -1.0682 -1.0998 -1.2184
  899MOL0     H21359   4.945   9.326   4.432  0.3896  0.2885  2.1368
  899MOL0     H21360   4.831   9.266   4.550  3.1612 -3.0421 -1.4651
  899MOL0     H21361   4.797   9.501   4.607 -0.3217 -1.5586 -0.3213
  899MOL0     H21362   4.947   9.552   4.520 -0.6899  1.1324  0.6745
  899MOL0     H21363   5.162   9.394   4.821 -0.9509 -3.8084  0.9390
  899MOL0     H21364   4.862   9.528   4.031 -0.4437  0.6658  1.5520
  899MOL0     H21365   4.859   9.631   3.818  2.1195 -3.6516  3.9498
  900MOL0     O21366   6.176   8.883   6.989 -0.2225 -0.1610  0.3456
  900MOL0     C21367   6.083   8.875   6.906 -0.5936  0.2311  0.6606
  900MOL0     O21368   5.998   8.768   6.880  0.3823  0.3730 -0.1528
  900MOL0     C21369   6.017   8.657   6.953  0.0772 -0.5884 -1.0056
  900MOL0     C21370   6.139   8.583   6.953 -0.1462  0.0891 -0.5819
  900MOL0     C21371   6.151   8.471   7.026  0.3482 -0.1348 -0.5611
  900MOL0     C21372   6.049   8.427   7.103  0.2319  0.1390 -0.2310
  900MOL0     O21373   6.047   8.328   7.193 -0.6620 -0.4413  0.6079
  900MOL0     C21374   6.133   8.211   7.185  1.1674  0.2122  0.5485
  900MOL0     C21375   6.095   8.104   7.286  0.0145  0.5684  0.4086
  900MOL0     C21376   6.160   8.116   7.428  0.2085 -0.8952  0.4478
  900MOL0     C21377   6.053   8.163   7.522 -0.2494 -0.2220  0.6038
  900MOL0     C21378   6.086   8.125   7.663  0.7065 -0.6289 -0.2695
  900MOL0     C21379   6.196   8.208   7.712  0.3725  0.8977  0.3282
  900MOL0     C21380   6.200   8.180   7.863  0.1851  0.3730  0.1753
  900MOL0     C21381   6.341   8.215   7.916  0.4327  0.2799  0.4729
  900MOL0     N21382   6.394   8.348   7.889  0.5119 -0.5452  0.5705
  900MOL0     C21383   6.339   8.467   7.936 -0.2934  0.4653  0.2662
  900MOL0     C21384   6.404   8.572   7.871  0.4329 -0.1665  0.4700
  900MOL0     C21385   6.378   8.716   7.920  0.1850 -0.4039 -0.6666
  900MOL0     C21386   6.301   8.795   7.814  1.4451 -0.8687  1.5909
  900MOL0     C21387   6.331   8.941   7.827  1.1895 -0.3916 -0.2849
  900MOL0     C21388   6.254   9.033   7.742  0.8343 -0.5330  0.3366
  900MOL0     O21389   6.275   9.167   7.788 -0.5287 -0.0538  0.5111
  900MOL0     C21390   6.217   9.271   7.720 -0.1974 -0.7011 -0.7333
  900MOL0     C21391   6.090   9.272   7.649 -0.4814  0.3889  0.2416
  900MOL0     C21392   6.036   9.388   7.588 -0.2085  0.5510 -0.0362
  900MOL0     C21393   5.903   9.368   7.521  0.0153 -0.5549  0.1970
  900MOL0     C21394   6.108   9.508   7.584 -0.1509  0.6486  0.7923
  900MOL0     C21395   6.074   9.627   7.508 -0.2013 -0.7790 -0.0037
  900MOL0     O21396   5.949   9.640   7.440 -0.1938  0.0963 -0.1889
  900MOL0     C21397   5.918   9.774   7.393  0.8299  0.1137  0.2325
  900MOL0     C21398   5.884   9.876   7.484  0.1466 -0.5027 -0.0093
  900MOL0     C21399   5.840   9.997   7.439 -0.2168 -0.2296  0.1461
  900MOL0     C21400   5.820  10.025   7.313 -0.2322 -0.5379  0.4912
  900MOL0     O21401   5.773  10.149   7.286 -0.3059 -0.5148  0.2965
  900MOL0     C21402   5.729  10.181   7.163  0.6735 -0.8953 -0.2056
  900MOL0     C21403   5.630  10.288   7.190 -1.1693 -0.0996 -0.9228
  900MOL0     C21404   5.579  10.354   7.064  0.0891  0.4067  0.5144
  900MOL0     C21405   5.667  10.480   7.027 -0.6808  0.1486  0.0226
  900MOL0     C21406   5.601  10.617   7.050  0.1245  1.2453 -0.1746
  900MOL0     C21407   5.584  10.635   7.201 -0.1249  0.8925 -0.0266
  900MOL0     C21408   5.510  10.766   7.234 -0.6306 -0.0271 -0.2093
  900MOL0     C21409   5.616  10.886   7.267  1.0307  0.7811  0.3455
  900MOL0    Cl21410   5.624  10.992   7.119  0.3691 -0.3240 -0.0273
  900MOL0     C21411   5.854   9.931   7.214 -0.4252  0.0984  0.4587
  900MOL0     C21412   5.907   9.807   7.254 -0.3448 -0.2478 -0.2805
  900MOL0     O21413   6.157   9.719   7.521  0.1562  0.5245  0.1276
  900MOL0     C21414   6.225   9.504   7.668  0.3799 -0.0350 -0.1599
  900MOL0     C21415   6.273   9.393   7.731 -0.7224  0.7422  0.5131
  900MOL0     N21416   6.494   8.512   7.785 -0.2176 -0.8176  1.2095
  900MOL0     N21417   6.488   8.383   7.795  0.4007 -0.2443 -0.4992
  900MOL0     C21418   5.930   8.495   7.109  0.5903 -0.5492 -0.3639
  900MOL0     C21419   5.914   8.615   7.032 -0.0640 -0.1478 -0.2689
  900MOL0     C21420   6.074   8.996   6.815  0.3232  1.2021 -1.1700
  900MOL0     C21421   6.189   9.050   6.770 -0.0930  0.3720 -0.0921
  900MOL0     C21422   6.178   9.169   6.702  0.1822 -0.6473  0.3246
  900MOL0     C21423   6.061   9.236   6.668 -0.1098 -0.5003 -0.2058
  900MOL0     O21424   6.062   9.345   6.582 -0.6022  0.9129  0.2340
  900MOL0     C21425   5.960   9.447   6.600  0.2505  0.3150  0.1102
  900MOL0     C21426   6.011   9.552   6.697  1.1463 -0.0464  0.9393
  900MOL0     C21427   6.137   9.630   6.653  0.3388  0.1626  0.1483
  900MOL0     C21428   6.201   9.705   6.777 -0.9469 -0.9113  0.0862
  900MOL0     C21429   6.107   9.802   6.834  0.5543  0.8960 -0.1504
  900MOL0     C21430   6.021   9.882   6.854 -0.3231 -0.3131  0.0539
  900MOL0     C21431   5.944   9.168   6.703  0.7758 -0.9179 -0.6151
  900MOL0     C21432   5.953   9.049   6.776 -0.0417  0.4285 -0.0426
  900MOL0     H21433   6.223   8.616   6.893  0.3624 -2.7952 -1.6411
  900MOL0     H21434   6.238   8.407   7.022  1.0370  0.6787  0.8459
  900MOL0     H21435   6.124   8.168   7.085  3.1137 -1.8897  1.1863
  900MOL0     H21436   6.240   8.234   7.183  1.0928  0.5795 -1.2606
  900MOL0     H21437   5.986   8.111   7.290  0.1863  4.1576  2.2461
  900MOL0     H21438   6.122   8.002   7.256 -0.2882 -0.0308  2.0493
  900MOL0     H21439   6.189   8.014   7.456  2.4363 -1.6943 -3.9956
  900MOL0     H21440   6.243   8.184   7.443 -0.8127  0.8610 -1.3795
  900MOL0     H21441   6.044   8.272   7.515  3.1184  0.2247  1.4467
  900MOL0     H21442   5.966   8.104   7.493  1.0277 -2.9021  1.8988
  900MOL0     H21443   5.993   8.143   7.718  1.7348  1.0259  1.0278
  900MOL0     H21444   6.108   8.018   7.678  3.0998 -0.4871 -2.1878
  900MOL0     H21445   6.288   8.188   7.657 -1.5450  0.8559 -3.1490
  900MOL0     H21446   6.180   8.315   7.701 -0.9519  0.5312 -1.7687
  900MOL0     H21447   6.129   8.242   7.919  3.7373  3.2041  1.9426
  900MOL0     H21448   6.175   8.074   7.878 -0.8998  0.6394  0.3483
  900MOL0     H21449   6.416   8.142   7.882 -1.1019 -0.0702 -2.5396
  900MOL0     H21450   6.315   8.220   8.022 -4.4229  0.2513 -0.4981
  900MOL0     H21451   6.263   8.486   8.011 -1.1772  0.0047 -0.4873
  900MOL0     H21452   6.308   8.711   8.004 -0.8726  1.4838 -1.3778
  900MOL0     H21453   6.470   8.765   7.954 -0.2146 -0.2752  0.2716
  900MOL0     H21454   6.192   8.781   7.807  1.0713  1.9841  0.8137
  900MOL0     H21455   6.344   8.763   7.719  0.6094 -0.5783  1.1079
  900MOL0     H21456   6.437   8.949   7.802  1.1903  0.5144 -0.0350
  900MOL0     H21457   6.322   8.966   7.933 -0.2651  1.8098 -0.8573
  900MOL0     H21458   6.147   9.009   7.748  0.7610 -0.1971  0.3596
  900MOL0     H21459   6.284   9.027   7.637  0.6018 -4.5619  0.3476
  900MOL0     H21460   6.042   9.175   7.648  0.4094 -0.0664 -0.3059
  900MOL0     H21461   5.904   9.417   7.423 -0.2690 -0.4625  0.2393
  900MOL0     H21462   5.869   9.266   7.500 -4.2406  0.7430 -0.1639
  900MOL0     H21463   5.819   9.406   7.579 -1.2776  2.2879 -3.1943
  900MOL0     H21464   5.873   9.863   7.592 -0.0711 -0.0589  0.0242
  900MOL0     H21465   5.818  10.078   7.507 -0.1643 -1.5630  1.8248
  900MOL0     H21466   5.813  10.231   7.113  1.4003  0.0492  1.8360
  900MOL0     H21467   5.677  10.102   7.108 -1.2160 -2.1957  3.1713
  900MOL0     H21468   5.552  10.251   7.256  0.4403  0.6497  1.5494
  900MOL0     H21469   5.677  10.372   7.242  0.4072 -0.8335 -1.1076
  900MOL0     H21470   5.478  10.392   7.085  1.0919  3.0345  0.9409
  900MOL0     H21471   5.588  10.275   6.989  0.4963 -0.0026  0.9899
  900MOL0     H21472   5.763  10.476   7.080  1.0260 -2.9446 -2.8691
  900MOL0     H21473   5.676  10.481   6.918  1.7482 -2.7264  0.0393
  900MOL0     H21474   5.506  10.615   6.997 -1.1703 -1.5759  2.0116
  900MOL0     H21475   5.658  10.701   7.009 -1.1989  0.9138 -2.9316
  900MOL0     H21476   5.534  10.558   7.260 -1.2046  2.6896  1.5404
  900MOL0     H21477   5.682  10.650   7.249  0.6772 -2.9349 -0.1265
  900MOL0     H21478   5.462  10.745   7.330  2.7272 -2.9983  1.0392
  900MOL0     H21479   5.430  10.796   7.165 -1.1466  0.7758  0.7092
  900MOL0     H21480   5.717  10.844   7.277  0.8007 -0.1520 -0.9359
  900MOL0     H21481   5.582  10.944   7.353 -1.3287 -1.4187  1.0089
  900MOL0     H21482   5.850   9.958   7.109 -1.0458 -1.7920 -0.0268
  900MOL0     H21483   5.944   9.741   7.176  0.0967 -1.6854  1.0986
  900MOL0     H21484   6.279   9.598   7.670  0.4206 -0.0614  0.1017
  900MOL0     H21485   6.363   9.391   7.792  1.2575  0.2723 -2.2492
  900MOL0     H21486   5.861   8.440   7.172  2.0209  0.8586  2.6209
  900MOL0     H21487   5.815   8.659   7.031  0.3014  0.6942 -0.8862
  900MOL0     H21488   6.287   9.006   6.787 -0.1376 -0.3932 -1.6580
  900MOL0     H21489   6.273   9.212   6.671  1.0735 -3.7701 -1.7073
  900MOL0     H21490   5.919   9.494   6.510 -1.8380 -1.1856  0.2033
  900MOL0     H21491   5.871   9.396   6.638  0.7214 -0.0216  0.7813
  900MOL0     H21492   6.043   9.499   6.786  0.3038 -0.4400  1.0194
  900MOL0     H21493   5.932   9.626   6.715  1.0246  0.7524 -2.2166
  900MOL0     H21494   6.115   9.704   6.575 -1.8331 -0.2558  0.3096
  900MOL0     H21495   6.201   9.556   6.603  0.4482 -0.9826  1.9019
  900MOL0     H21496   6.296   9.755   6.755 -1.7371 -0.1832 -1.8964
  900MOL0     H21497   6.219   9.641   6.864  3.8045  5.0953  4.4063
  900MOL0     H21498   5.949   9.960   6.871 -3.0683 -3.3166  4.1569
  900MOL0     H21499   5.849   9.202   6.665  0.1341  1.4772  2.6428
  900MOL0     H21500   5.860   8.996   6.794 -0.1113 -0.4258 -2.4798
  901MOL0     O21501   6.050   2.261   1.421 -0.3845 -0.6691 -0.4604
  901MOL0     C21502   6.058   2.388   1.439  0.3206  0.3682 -0.6270
  901MOL0     O21503   5.954   2.472   1.471  0.3135 -0.3293  0.7490
  901MOL0     C21504   5.831   2.425   1.441  0.4938  0.2035  0.0015
  901MOL0     C21505   5.795   2.372   1.313  0.9556 -0.5394  0.6817
  901MOL0     C21506   5.671   2.314   1.284  0.2112 -0.7199  0.5554
  901MOL0     C21507   5.570   2.319   1.388  0.0420 -1.4955 -0.2172
  901MOL0     O21508   5.449   2.268   1.375 -0.5112  0.2523 -0.2367
  901MOL0     C21509   5.388   2.287   1.248 -0.6540  0.1336 -0.3867
  901MOL0     C21510   5.238   2.273   1.279 -0.5717  0.1649 -0.1112
  901MOL0     C21511   5.153   2.298   1.161 -0.4210 -0.2799  0.1948
  901MOL0     C21512   5.204   2.239   1.030 -0.6196 -0.0850  0.3261
  901MOL0     C21513   5.095   2.232   0.924  0.5496  0.0352 -0.4398
  901MOL0     C21514   5.163   2.247   0.792 -0.1041 -0.4667  0.0473
  901MOL0     C21515   5.259   2.135   0.754 -0.4713 -0.1834 -0.3934
  901MOL0     C21516   5.327   2.179   0.618  0.4872  0.1942 -0.0877
  901MOL0     N21517   5.389   2.060   0.542  0.8170 -0.3824  0.7104
  901MOL0     C21518   5.347   1.927   0.546 -0.5850  0.1992  1.0752
  901MOL0     C21519   5.449   1.863   0.483  0.3180  1.0574  0.1464
  901MOL0     C21520   5.473   1.708   0.475 -0.3008 -0.2699 -1.2381
  901MOL0     C21521   5.379   1.632   0.571 -0.0101  0.3252  1.1437
  901MOL0     C21522   5.369   1.488   0.520 -0.0301  0.4332  0.4704
  901MOL0     C21523   5.503   1.403   0.531  0.5011  1.3310  0.4316
  901MOL0     O21524   5.531   1.387   0.673 -0.0039  0.2245  0.2367
  901MOL0     C21525   5.460   1.286   0.744 -0.0192 -0.1627 -0.2424
  901MOL0     C21526   5.394   1.176   0.677  0.4158 -0.1893 -0.9534
  901MOL0     C21527   5.335   1.068   0.752  0.5311  0.0401  1.3285
  901MOL0     C21528   5.276   0.946   0.674  0.5659 -0.2323 -0.9380
  901MOL0     C21529   5.331   1.071   0.893  0.9389  0.5970 -0.3982
  901MOL0     C21530   5.288   0.955   0.980  0.1789  0.1165 -0.4102
  901MOL0     O21531   5.350   0.938   1.095 -0.9105  0.2121 -0.1911
  901MOL0     C21532   5.327   0.834   1.173 -0.3605 -0.1846 -0.4166
  901MOL0     C21533   5.195   0.782   1.205 -0.7902  0.2372  0.6294
  901MOL0     C21534   5.184   0.675   1.300  0.1620 -0.0016  0.1834
  901MOL0     C21535   5.292   0.616   1.363 -0.1502 -0.4147  0.3223
  901MOL0     O21536   5.270   0.504   1.439 -0.8371  0.6114 -0.5924
  901MOL0     C21537   5.386   0.411   1.458  0.1971  0.4747 -0.6127
  901MOL0     C21538   5.342   0.307   1.575  0.8202 -0.1000 -0.3737
  901MOL0     C21539   5.416   0.168   1.556  0.5052  0.4354  0.1482
  901MOL0     C21540   5.569   0.162   1.564 -0.0869  0.0448 -0.3783
  901MOL0     C21541   5.640   0.040   1.519 -0.6228 -0.1942  0.1292
  901MOL0     C21542   5.613  -0.069   1.607  0.2007  0.4874  0.1301
  901MOL0     C21543   5.675  -0.208   1.573 -0.1230 -0.0710  0.4994
  901MOL0     C21544   5.631  -0.320   1.666 -0.0871 -0.2416 -0.1860
  901MOL0    Cl21545   5.695  -0.271   1.833 -0.1659  0.5337 -0.0311
  901MOL0     C21546   5.418   0.677   1.336 -0.3370 -0.2103  0.6908
  901MOL0     C21547   5.435   0.790   1.245  0.2362  0.3847 -0.4059
  901MOL0     O21548   5.192   0.889   0.935  0.2054  0.4265  0.6887
  901MOL0     C21549   5.398   1.180   0.952  0.3607  0.4929 -0.4812
  901MOL0     C21550   5.465   1.283   0.880 -0.0029 -0.1125  0.1458
  901MOL0     N21551   5.546   1.955   0.441  0.8855  0.1207  0.3178
  901MOL0     N21552   5.505   2.071   0.469 -0.0568  0.0518 -0.2596
  901MOL0     C21553   5.608   2.382   1.518  0.5908 -0.7404  0.6650
  901MOL0     C21554   5.737   2.427   1.543  0.7235  0.1689  0.1875
  901MOL0     C21555   6.189   2.438   1.456 -0.3488  0.1392 -0.7997
  901MOL0     C21556   6.293   2.359   1.415 -0.2778  0.5616  0.9330
  901MOL0     C21557   6.423   2.418   1.422  0.2880  0.0214  0.8578
  901MOL0     C21558   6.456   2.542   1.473 -0.0387 -0.0926  0.9959
  901MOL0     O21559   6.587   2.589   1.453  0.3121  0.2278 -0.8040
  901MOL0     C21560   6.598   2.727   1.425 -0.9185 -0.3702 -0.0184
  901MOL0     C21561   6.747   2.743   1.397 -0.1106 -0.5786  0.0726
  901MOL0     C21562   6.828   2.722   1.520  0.4068 -0.0843  0.4526
  901MOL0     C21563   6.975   2.747   1.503 -0.3343  0.3681  0.0820
  901MOL0     C21564   7.009   2.893   1.492 -0.5767 -0.2071  0.1959
  901MOL0     C21565   7.009   3.008   1.455 -0.7755 -0.1553 -0.4953
  901MOL0     C21566   6.347   2.624   1.511  0.9418  0.3028 -0.0524
  901MOL0     C21567   6.218   2.566   1.517  0.3804 -0.4094 -1.2603
  901MOL0     H21568   5.868   2.381   1.233  1.7450  1.0224  1.5327
  901MOL0     H21569   5.670   2.274   1.183  2.1103  0.9088 -0.1956
  901MOL0     H21570   5.396   2.380   1.190  0.7850 -0.1419 -0.6660
  901MOL0     H21571   5.422   2.204   1.185  1.3243 -0.2391  1.0509
  901MOL0     H21572   5.216   2.171   1.315  5.0115 -1.2020  0.4097
  901MOL0     H21573   5.219   2.352   1.353 -1.5060  0.6048 -0.8090
  901MOL0     H21574   5.049   2.269   1.178 -0.7387 -0.2625 -1.5111
  901MOL0     H21575   5.152   2.407   1.152  0.3584 -0.2145  0.8009
  901MOL0     H21576   5.286   2.305   1.000 -0.2501 -0.2894  0.8658
  901MOL0     H21577   5.239   2.135   1.037 -3.3520 -1.2440 -1.5734
  901MOL0     H21578   5.032   2.142   0.925  1.4942 -0.6900 -1.9247
  901MOL0     H21579   5.017   2.308   0.937 -1.6899 -2.3046  0.8637
  901MOL0     H21580   5.094   2.251   0.707 -0.5227  1.7258  0.4345
  901MOL0     H21581   5.218   2.341   0.802 -0.6464  0.0365 -1.4137
  901MOL0     H21582   5.331   2.123   0.836 -0.1604  0.8153 -0.5083
  901MOL0     H21583   5.212   2.037   0.744 -1.0751 -0.0210  0.7011
  901MOL0     H21584   5.405   2.255   0.627  1.1122 -0.4647  0.2577
  901MOL0     H21585   5.248   2.207   0.549 -0.1406  2.2499  1.3829
  901MOL0     H21586   5.270   1.877   0.603 -3.7146  0.6363 -2.4144
  901MOL0     H21587   5.461   1.691   0.368  0.4458 -0.2246 -1.3349
  901MOL0     H21588   5.578   1.697   0.502 -0.5307  0.6349  0.1239
  901MOL0     H21589   5.283   1.676   0.545  0.8525  2.8289  1.9286
  901MOL0     H21590   5.397   1.633   0.679 -1.4765 -0.5373  1.4186
  901MOL0     H21591   5.334   1.497   0.416  1.1892  0.6272  0.0563
  901MOL0     H21592   5.298   1.428   0.578 -1.7818  0.4707 -1.4786
  901MOL0     H21593   5.577   1.466   0.481  0.7401  1.9822  1.5655
  901MOL0     H21594   5.509   1.310   0.474 -1.5413  1.9467 -0.9079
  901MOL0     H21595   5.408   1.176   0.569  1.4985  0.8217 -0.8443
  901MOL0     H21596   5.171   0.943   0.707  0.8939  0.4547  0.1850
  901MOL0     H21597   5.266   0.956   0.565  0.1359 -3.3508 -1.3065
  901MOL0     H21598   5.313   0.847   0.703 -1.3494 -1.0716 -1.1612
  901MOL0     H21599   5.101   0.802   1.155 -0.9390  1.7258  1.4347
  901MOL0     H21600   5.085   0.640   1.327  1.7538 -3.2794  2.4948
  901MOL0     H21601   5.421   0.352   1.374  0.4047 -0.7774  0.3219
  901MOL0     H21602   5.472   0.468   1.494  1.0923 -2.1072  1.6253
  901MOL0     H21603   5.364   0.345   1.675 -0.7027  1.3760 -0.5509
  901MOL0     H21604   5.236   0.284   1.583 -0.4840  5.0144  0.6397
  901MOL0     H21605   5.369   0.139   1.461 -0.1236  2.3934 -0.1895
  901MOL0     H21606   5.366   0.103   1.628 -0.6842  1.2219  0.0564
  901MOL0     H21607   5.616   0.249   1.516  2.2455  1.3612  3.7276
  901MOL0     H21608   5.583   0.177   1.672  0.3740  0.1059 -0.4461
  901MOL0     H21609   5.747   0.063   1.522 -0.6153 -0.1389 -0.4240
  901MOL0     H21610   5.619   0.026   1.412  2.9776  3.2035 -1.2850
  901MOL0     H21611   5.645  -0.046   1.709 -1.9820 -0.9217  1.2079
  901MOL0     H21612   5.504  -0.071   1.611  0.0815 -0.4196 -2.1078
  901MOL0     H21613   5.784  -0.196   1.572  0.0875 -1.0536 -3.2005
  901MOL0     H21614   5.660  -0.247   1.472 -1.9887  1.4046  0.1551
  901MOL0     H21615   5.686  -0.411   1.640 -0.9021 -0.6536 -0.5163
  901MOL0     H21616   5.524  -0.342   1.670 -0.1540  0.2060  2.3269
  901MOL0     H21617   5.503   0.640   1.392 -1.4309 -1.3397  1.6750
  901MOL0     H21618   5.538   0.825   1.251  0.3890 -0.3185  2.1231
  901MOL0     H21619   5.401   1.182   1.061 -0.5801 -1.2912 -0.3784
  901MOL0     H21620   5.517   1.364   0.930  1.8787 -2.2225  1.8061
  901MOL0     H21621   5.536   2.387   1.599 -1.7483 -0.0160 -1.3632
  901MOL0     H21622   5.769   2.471   1.637 -1.3396 -0.5410  1.2799
  901MOL0     H21623   6.286   2.255   1.385 -1.2937  1.0167 -0.5481
  901MOL0     H21624   6.507   2.358   1.389  1.2773  2.7674 -2.1454
  901MOL0     H21625   6.524   2.768   1.356 -0.8951  0.5382  0.4788
  901MOL0     H21626   6.577   2.781   1.518 -1.6164 -3.6030  1.8674
  901MOL0     H21627   6.767   2.841   1.354 -0.5386 -0.9311 -0.9710
  901MOL0     H21628   6.780   2.675   1.317  0.3583 -0.7338  0.3991
  901MOL0     H21629   6.816   2.614   1.538 -1.6528  0.0626  0.1485
  901MOL0     H21630   6.782   2.767   1.608 -0.0076 -2.0639  1.3140
  901MOL0     H21631   7.019   2.685   1.425  1.8015 -1.1234  2.3414
  901MOL0     H21632   7.032   2.718   1.591  2.4375  0.8859 -1.4150
  901MOL0     H21633   7.012   3.105   1.410  2.3770  1.1349  2.0109
  901MOL0     H21634   6.371   2.721   1.554  1.5148 -0.3958  1.2401
  901MOL0     H21635   6.143   2.628   1.565  2.8683  3.3441 -1.7126
  902MOL0     O21636   0.783   7.188   8.109 -0.0662  0.4003 -0.0960
  902MOL0     C21637   0.673   7.134   8.115  0.5982 -0.2741 -0.2832
  902MOL0     O21638   0.594   7.120   8.227 -0.2067 -0.1783 -0.0862
  902MOL0     C21639   0.637   7.183   8.338 -0.6106 -0.1758 -0.0578
  902MOL0     C21640   0.683   7.116   8.455 -0.0845 -0.8820 -0.1545
  902MOL0     C21641   0.701   7.187   8.568 -0.4109  0.2905 -0.2644
  902MOL0     C21642   0.685   7.323   8.574 -0.6248 -0.6886  0.3441
  902MOL0     O21643   0.715   7.386   8.688  0.1821  0.1805  0.9287
  902MOL0     C21644   0.653   7.507   8.725  1.0721  0.3672  0.0244
  902MOL0     C21645   0.508   7.467   8.773 -0.4786 -0.9868  0.9078
  902MOL0     C21646   0.453   7.567   8.872 -0.2677  0.3211  0.3201
  902MOL0     C21647   0.451   7.704   8.806 -0.3971 -0.2330  0.3259
  902MOL0     C21648   0.393   7.804   8.892 -0.4186  0.7591  0.3679
  902MOL0     C21649   0.243   7.792   8.903 -0.4171 -0.0406  0.8451
  902MOL0     C21650   0.146   7.876   8.806  0.4005 -0.2653  0.2788
  902MOL0     C21651   0.185   8.021   8.771  0.5276  0.4051 -0.4308
  902MOL0     N21652   0.178   8.100   8.890  0.2425  0.1672  0.1627
  902MOL0     C21653   0.066   8.156   8.942  0.2214 -0.7913 -0.3418
  902MOL0     C21654   0.109   8.221   9.052 -0.9703  0.6798  0.5252
  902MOL0     C21655   0.021   8.288   9.151  0.2169  0.0023  0.6285
  902MOL0     C21656   0.045   8.441   9.134  0.5053  0.0230 -0.5442
  902MOL0     C21657  -0.041   8.519   9.232  0.1523 -0.1623 -0.6205
  902MOL0     C21658   0.042   8.604   9.332 -0.0335  1.0864 -0.1669
  902MOL0     O21659   0.122   8.699   9.263 -0.0281 -0.4311  0.3783
  902MOL0     C21660   0.160   8.822   9.317  0.3569  0.1797 -0.2004
  902MOL0     C21661   0.176   8.939   9.239 -0.3855  0.0112 -0.6051
  902MOL0     C21662   0.215   9.064   9.300  0.6656 -0.3243 -0.2529
  902MOL0     C21663   0.220   9.187   9.201 -0.0874 -0.1041  0.0427
  902MOL0     C21664   0.225   9.078   9.446 -0.4013 -0.1519  0.4500
  902MOL0     C21665   0.256   9.196   9.519 -0.3052 -0.9191 -0.9624
  902MOL0     O21666   0.281   9.186   9.651 -0.7622 -0.0874 -0.8850
  902MOL0     C21667   0.281   9.300   9.734 -0.0837 -0.3271 -0.7523
  902MOL0     C21668   0.187   9.290   9.834 -0.2853 -1.0836 -0.3525
  902MOL0     C21669   0.180   9.388   9.935  0.0043 -1.0622 -0.1191
  902MOL0     C21670   0.264   9.506   9.921 -0.1783  0.2030 -0.0741
  902MOL0     O21671   0.258   9.611  10.011  0.3073 -0.4083 -0.5643
  902MOL0     C21672   0.199   9.587  10.141 -0.0538 -0.6921  0.2172
  902MOL0     C21673   0.206   9.707  10.233 -0.9764 -1.6470  0.0659
  902MOL0     C21674   0.119   9.666  10.358  0.3686 -0.2386  0.9883
  902MOL0     C21675   0.133   9.767  10.464  0.7397  0.1131 -0.3737
  902MOL0     C21676   0.038   9.742  10.585  0.3458 -0.0478  0.4518
  902MOL0     C21677   0.116   9.791  10.710 -0.3406 -1.2535 -0.4112
  902MOL0     C21678   0.032   9.777  10.841  0.3944 -0.2616  0.0554
  902MOL0     C21679   0.120   9.772  10.963 -0.9992  0.6593  0.3294
  902MOL0    Cl21680   0.212   9.926  10.977  0.1709 -0.1193  0.1181
  902MOL0     C21681   0.349   9.518   9.808 -0.9470  0.0251  0.2609
  902MOL0     C21682   0.365   9.416   9.716  0.3834 -0.0194  0.2020
  902MOL0     O21683   0.230   9.301   9.457  0.6616 -0.5216  0.3494
  902MOL0     C21684   0.218   8.955   9.513 -0.4144 -0.2614 -0.2549
  902MOL0     C21685   0.183   8.832   9.458  0.7190  0.1318 -0.2001
  902MOL0     N21686   0.244   8.190   9.073 -0.0742 -0.0458 -0.4927
  902MOL0     N21687   0.285   8.128   8.968  0.0161  0.2514  0.1816
  902MOL0     C21688   0.645   7.387   8.456  0.3906 -0.5117  0.2846
  902MOL0     C21689   0.619   7.312   8.345  0.1022 -0.5911 -0.5129
  902MOL0     C21690   0.628   7.074   7.991 -0.6372 -1.2413  0.7359
  902MOL0     C21691   0.699   6.974   7.931  0.3557  0.7019 -0.4856
  902MOL0     C21692   0.659   6.914   7.805  0.0168 -1.1887  0.2394
  902MOL0     C21693   0.550   6.961   7.738  0.0081 -1.0311  0.1801
  902MOL0     O21694   0.531   6.924   7.609  0.1096 -0.3364 -0.2578
  902MOL0     C21695   0.494   6.785   7.591 -0.7069 -0.6331 -0.2449
  902MOL0     C21696   0.408   6.765   7.466  1.2503 -0.2819  0.5320
  902MOL0     C21697   0.492   6.738   7.339  0.0992 -0.4837 -0.0607
  902MOL0     C21698   0.410   6.743   7.208 -0.7668  0.3384  0.6659
  902MOL0     C21699   0.481   6.656   7.113 -0.8929 -0.6793 -1.1182
  902MOL0     C21700   0.532   6.589   7.025 -0.4932  0.0688  0.2133
  902MOL0     C21701   0.469   7.057   7.793 -0.2819 -0.4342  0.0981
  902MOL0     C21702   0.510   7.118   7.917  0.1312  0.3633 -1.1443
  902MOL0     H21703   0.703   7.010   8.448  3.3238 -0.3723  0.2445
  902MOL0     H21704   0.748   7.128   8.646  1.3506  0.8727 -0.8410
  902MOL0     H21705   0.710   7.556   8.804  0.7917  2.0449 -0.7683
  902MOL0     H21706   0.657   7.585   8.648 -3.6990  0.1560 -0.7328
  902MOL0     H21707   0.444   7.462   8.685  1.7420 -0.3288 -0.8599
  902MOL0     H21708   0.522   7.364   8.808 -3.2548 -0.9291  2.4307
  902MOL0     H21709   0.353   7.533   8.899  0.5196 -2.1572  0.3321
  902MOL0     H21710   0.513   7.567   8.964 -0.0357  0.1314  0.1700
  902MOL0     H21711   0.536   7.741   8.747 -0.6822 -1.9656 -1.2687
  902MOL0     H21712   0.383   7.694   8.721  0.7711 -0.3466 -0.6318
  902MOL0     H21713   0.447   7.803   8.987 -0.2627 -1.8719  0.3154
  902MOL0     H21714   0.424   7.902   8.854  2.2504 -0.1457  0.0331
  902MOL0     H21715   0.206   7.689   8.903 -3.6253  0.8687 -2.5860
  902MOL0     H21716   0.213   7.823   9.004  2.1441  2.9741  0.8308
  902MOL0     H21717   0.131   7.830   8.708 -1.3350  1.5516 -0.3690
  902MOL0     H21718   0.046   7.867   8.850 -0.7464 -2.7774 -2.5050
  902MOL0     H21719   0.109   8.062   8.703  0.2148  0.2122 -0.1984
  902MOL0     H21720   0.286   8.018   8.728  1.1242  0.3376  0.9298
  902MOL0     H21721  -0.037   8.155   8.908  0.1313 -0.2083 -0.0913
  902MOL0     H21722  -0.079   8.256   9.122  1.8918 -2.6585 -2.9762
  902MOL0     H21723   0.038   8.257   9.255  0.9819  2.7091  1.4084
  902MOL0     H21724   0.026   8.479   9.034 -2.3859 -0.8914 -0.4370
  902MOL0     H21725   0.148   8.461   9.165 -0.0152  2.3221 -0.1634
  902MOL0     H21726  -0.112   8.460   9.291 -1.5060  1.8778 -0.4927
  902MOL0     H21727  -0.113   8.589   9.189  1.7513  3.4886  2.0761
  902MOL0     H21728   0.110   8.536   9.384  0.8453  1.2286 -1.1043
  902MOL0     H21729  -0.020   8.652   9.408 -2.6098 -1.4506 -0.4868
  902MOL0     H21730   0.179   8.937   9.130  3.6273  4.3249 -0.8559
  902MOL0     H21731   0.252   9.157   9.101 -1.1581  3.5419 -1.5301
  902MOL0     H21732   0.118   9.227   9.195 -1.0349 -2.3761 -0.0337
  902MOL0     H21733   0.286   9.264   9.241  2.9932 -1.8563 -1.3148
  902MOL0     H21734   0.108   9.216   9.840 -1.1234 -0.2330 -0.6053
  902MOL0     H21735   0.115   9.384  10.021 -2.1764  4.7699 -1.0519
  902MOL0     H21736   0.092   9.570  10.129 -0.6369  1.5082  1.7415
  902MOL0     H21737   0.252   9.503  10.188  1.0107 -0.5914 -0.7446
  902MOL0     H21738   0.307   9.723  10.270 -0.6840 -0.6621 -1.0855
  902MOL0     H21739   0.182   9.807  10.197  1.9058 -1.5921 -2.0630
  902MOL0     H21740   0.153   9.571  10.399  2.0391  0.5334  1.4879
  902MOL0     H21741   0.014   9.667  10.327  0.6951 -1.7945 -0.3044
  902MOL0     H21742   0.238   9.756  10.492  0.6790 -0.4131 -0.3285
  902MOL0     H21743   0.118   9.868  10.426  4.2740  1.3583  1.1368
  902MOL0     H21744   0.008   9.638  10.596  0.8934 -0.0741  1.8267
  902MOL0     H21745  -0.055   9.799  10.573 -0.6981 -2.1604 -2.8077
  902MOL0     H21746   0.210   9.737  10.720  0.4255  0.2496  0.9649
  902MOL0     H21747   0.129   9.898  10.694 -2.3279 -0.9265 -0.1129
  902MOL0     H21748  -0.033   9.689  10.829 -3.2200  2.3310 -1.0669
  902MOL0     H21749  -0.038   9.856  10.868 -0.9557  0.4622 -4.7369
  902MOL0     H21750   0.195   9.692  10.962 -0.8684  0.7685 -1.1729
  902MOL0     H21751   0.056   9.759  11.051  2.8893 -0.5033  3.2536
  902MOL0     H21752   0.420   9.600   9.814  1.1518 -1.7565  5.2973
  902MOL0     H21753   0.433   9.416   9.631  0.2943  0.8906  0.1204
  902MOL0     H21754   0.234   8.957   9.620 -1.3827 -2.8275 -0.0008
  902MOL0     H21755   0.160   8.748   9.523 -2.2194  0.7703 -0.2859
  902MOL0     H21756   0.648   7.496   8.450  1.6425 -0.6024 -1.5211
  902MOL0     H21757   0.575   7.361   8.258  0.7387  0.1594 -0.4289
  902MOL0     H21758   0.795   6.947   7.974  0.0628  1.8889  1.0259
  902MOL0     H21759   0.714   6.847   7.740  2.5542  0.6402  0.3592
  902MOL0     H21760   0.577   6.715   7.600  0.1625  0.4948  0.8984
  902MOL0     H21761   0.428   6.761   7.675 -0.4231  3.3425  1.3186
  902MOL0     H21762   0.353   6.859   7.454 -0.7801 -1.2214  1.9324
  902MOL0     H21763   0.331   6.688   7.473  1.1605 -0.4393 -1.5833
  902MOL0     H21764   0.523   6.635   7.354 -1.1736 -1.0031 -0.8219
  902MOL0     H21765   0.573   6.812   7.338  1.1489 -1.6012 -0.9234
  902MOL0     H21766   0.405   6.844   7.165 -0.0516 -1.1209 -3.2568
  902MOL0     H21767   0.305   6.719   7.225 -1.1994  1.7413  0.1345
  902MOL0     H21768   0.580   6.514   6.966 -1.7734  0.4103 -1.3407
  902MOL0     H21769   0.374   7.078   7.745  0.0862 -1.8917 -1.3594
  902MOL0     H21770   0.454   7.198   7.964 -1.9324 -1.5250 -0.1933
  903MOL0     O21771   9.278   7.521   9.514 -0.4395  0.1869  0.1348
  903MOL0     C21772   9.282   7.405   9.471  0.7058 -0.7074 -0.0186
  903MOL0     O21773   9.293   7.375   9.336 -0.5863  0.0875  0.1052
  903MOL0     C21774   9.282   7.476   9.240 -0.3560 -0.4422 -0.7084
  903MOL0     C21775   9.402   7.532   9.187 -0.5642  0.4715 -0.3596
  903MOL0     C21776   9.399   7.647   9.114 -0.1607 -0.6398 -0.3726
  903MOL0     C21777   9.276   7.699   9.076 -0.0377  0.7972  0.1276
  903MOL0     O21778   9.277   7.825   9.016  0.0812  0.1929 -0.7893
  903MOL0     C21779   9.200   7.927   9.085  0.4396  0.4802  0.1306
  903MOL0     C21780   9.232   8.069   9.033 -0.8895 -0.5838  0.2835
  903MOL0     C21781   9.190   8.055   8.883 -1.0994 -0.2625  0.8565
  903MOL0     C21782   9.222   8.185   8.810  0.1302 -0.2930 -0.3155
  903MOL0     C21783   9.162   8.182   8.663 -0.6886  0.9641  0.8085
  903MOL0     C21784   9.222   8.293   8.575  0.1172 -0.4184 -0.1972
  903MOL0     C21785   9.155   8.305   8.439  0.0379  0.5613 -0.1576
  903MOL0     C21786   9.176   8.443   8.375  0.2451 -0.1564 -0.1366
  903MOL0     N21787   9.129   8.475   8.234 -0.0649  1.1237 -0.3656
  903MOL0     C21788   9.005   8.512   8.192  1.1026 -0.3291 -0.1774
  903MOL0     C21789   9.014   8.528   8.053  0.2450  0.1661 -0.9675
  903MOL0     C21790   8.887   8.562   7.976  0.0140  0.0975 -0.0308
  903MOL0     C21791   8.846   8.712   7.973 -0.1068  0.2000  0.1203
  903MOL0     C21792   8.822   8.768   8.118 -0.2969 -0.2807 -0.9557
  903MOL0     C21793   8.698   8.718   8.193  1.0730 -0.4869  0.4087
  903MOL0     O21794   8.587   8.778   8.111  0.8345 -0.3728  0.0641
  903MOL0     C21795   8.458   8.759   8.161  0.6147  0.1307  0.6480
  903MOL0     C21796   8.359   8.827   8.083 -0.1741  0.1426  0.0311
  903MOL0     C21797   8.237   8.855   8.121  0.9014 -0.3040 -0.2167
  903MOL0     C21798   8.149   8.919   8.014 -0.3941  0.5545  0.1049
  903MOL0     C21799   8.186   8.800   8.243  0.0183  0.1612  0.1180
  903MOL0     C21800   8.046   8.808   8.288  0.4866  0.1362 -0.7008
  903MOL0     O21801   8.020   8.770   8.423 -0.8550 -0.5089  1.2108
  903MOL0     C21802   7.895   8.766   8.489  0.1477 -1.1078  0.5362
  903MOL0     C21803   7.770   8.790   8.428  0.6789  1.0958 -0.5742
  903MOL0     C21804   7.652   8.803   8.496 -0.7047  0.5190 -0.1749
  903MOL0     C21805   7.656   8.795   8.630  0.0117  0.2541 -0.4682
  903MOL0     O21806   7.538   8.806   8.691 -0.3322 -0.3339 -0.6648
  903MOL0     C21807   7.498   8.709   8.788 -0.5710 -0.2681  0.0259
  903MOL0     C21808   7.354   8.725   8.829 -0.7707 -0.7057  0.2327
  903MOL0     C21809   7.320   8.864   8.886 -0.1249 -0.2484 -0.3918
  903MOL0     C21810   7.192   8.852   8.969 -1.4347 -0.3051  0.2613
  903MOL0     C21811   7.147   8.986   9.003  0.0121  0.3433  0.2114
  903MOL0     C21812   7.001   8.962   9.056 -0.7331  0.6518  0.3155
  903MOL0     C21813   6.969   9.074   9.155  0.5911  0.8838 -0.7500
  903MOL0     C21814   6.952   9.207   9.091 -0.4032 -0.7112  0.7107
  903MOL0    Cl21815   6.930   9.348   9.202  0.1928  0.1629  0.0047
  903MOL0     C21816   7.778   8.782   8.702 -0.4301  0.1046  0.1989
  903MOL0     C21817   7.897   8.769   8.631 -0.1154 -0.6854 -0.4512
  903MOL0     O21818   7.969   8.867   8.221 -0.3109  0.5981  0.4738
  903MOL0     C21819   8.283   8.727   8.315  0.6535 -0.5179  0.7898
  903MOL0     C21820   8.421   8.722   8.289  0.8871  0.0521  0.3794
  903MOL0     N21821   9.146   8.492   8.021 -0.4681  0.6314 -0.2226
  903MOL0     N21822   9.214   8.467   8.130  0.1428  0.3913 -0.1711
  903MOL0     C21823   9.157   7.629   9.108 -0.0281  0.3245 -0.6842
  903MOL0     C21824   9.161   7.520   9.191 -0.5677  0.6839 -0.2652
  903MOL0     C21825   9.288   7.298   9.569 -0.4346 -0.7578 -1.3126
  903MOL0     C21826   9.295   7.165   9.529  0.0286  0.4564  0.0172
  903MOL0     C21827   9.307   7.058   9.629 -0.1090  0.2857  0.1342
  903MOL0     C21828   9.307   7.090   9.766 -0.5624  0.4907  0.1337
  903MOL0     O21829   9.314   6.982   9.852 -0.1389 -0.6395  0.2610
  903MOL0     C21830   9.308   7.013   9.996  0.5697 -0.5517  0.7131
  903MOL0     C21831   9.349   6.886  10.071 -0.0308 -0.3151  0.3891
  903MOL0     C21832   9.306   6.899  10.218  1.1827 -0.3409  0.1856
  903MOL0     C21833   9.361   7.025  10.288  0.0292 -0.4593 -0.0094
  903MOL0     C21834   9.511   7.040  10.294 -0.0382  0.1166  0.8044
  903MOL0     C21835   9.628   7.054  10.305 -0.1527  1.0835 -0.5815
  903MOL0     C21836   9.306   7.222   9.807  0.1019 -0.8627 -0.5021
  903MOL0     C21837   9.297   7.321   9.709 -0.2750 -1.0123  0.7027
  903MOL0     H21838   9.498   7.507   9.232  0.5003 -2.5200 -3.7829
  903MOL0     H21839   9.493   7.698   9.100 -2.1441  2.8421 -2.2851
  903MOL0     H21840   9.095   7.898   9.074  0.1648  0.8977  1.4747
  903MOL0     H21841   9.223   7.931   9.192  3.5185  2.5965 -0.4594
  903MOL0     H21842   9.168   8.144   9.081  0.6583  1.3938 -0.5939
  903MOL0     H21843   9.339   8.088   9.047 -0.2364 -3.3579 -0.3630
  903MOL0     H21844   9.251   7.985   8.825  0.3051  1.1521  0.5695
  903MOL0     H21845   9.087   8.021   8.871 -0.9776 -0.7726  1.2288
  903MOL0     H21846   9.190   8.263   8.879 -2.7199  0.1267 -1.9457
  903MOL0     H21847   9.331   8.195   8.808  0.1614  0.3759  2.2063
  903MOL0     H21848   9.187   8.092   8.606  2.9370  1.5850  1.1829
  903MOL0     H21849   9.054   8.202   8.665 -0.8743  0.1645  3.4884
  903MOL0     H21850   9.198   8.387   8.627  2.1192 -1.0701  2.1264
  903MOL0     H21851   9.331   8.292   8.572  0.1086  0.3893 -2.2563
  903MOL0     H21852   9.194   8.221   8.381  1.3660  0.2842  1.1076
  903MOL0     H21853   9.048   8.281   8.441  0.7486 -3.1395 -0.1483
  903MOL0     H21854   9.284   8.461   8.373 -0.0074  1.5228 -0.1096
  903MOL0     H21855   9.128   8.519   8.437 -1.1923  0.1699 -1.5608
  903MOL0     H21856   8.916   8.527   8.252 -1.1636  0.3967 -3.4796
  903MOL0     H21857   8.904   8.533   7.872 -0.2614  1.7423 -0.5688
  903MOL0     H21858   8.806   8.502   8.019 -1.7677  1.2783 -1.5610
  903MOL0     H21859   8.753   8.721   7.915  0.5789  2.4609 -0.7348
  903MOL0     H21860   8.927   8.768   7.927 -0.3546  0.1921 -0.3363
  903MOL0     H21861   8.809   8.876   8.111  0.4419 -0.1427 -0.4116
  903MOL0     H21862   8.913   8.758   8.179  1.4699  2.6914 -2.8758
  903MOL0     H21863   8.697   8.759   8.295  4.9121  1.8274 -0.2588
  903MOL0     H21864   8.690   8.610   8.206 -1.1992 -0.2578  1.2220
  903MOL0     H21865   8.398   8.881   7.997  3.1947 -3.5061 -1.0350
  903MOL0     H21866   8.207   8.962   7.932  2.1512  0.7568  1.8689
  903MOL0     H21867   8.087   8.848   7.959 -0.5686  0.2315  0.7131
  903MOL0     H21868   8.083   8.994   8.059 -1.2380  0.8051 -1.4838
  903MOL0     H21869   7.756   8.798   8.321  1.0644  1.6210 -0.5930
  903MOL0     H21870   7.564   8.821   8.435  0.9422  2.9363 -2.0563
  903MOL0     H21871   7.508   8.611   8.740  0.5060 -0.0020 -0.3432
  903MOL0     H21872   7.561   8.715   8.877 -2.6322  0.8623  1.4966
  903MOL0     H21873   7.289   8.712   8.742  0.2728  1.5916 -0.9964
  903MOL0     H21874   7.334   8.657   8.912 -2.1197  0.0075  0.5251
  903MOL0     H21875   7.306   8.942   8.811 -0.5100 -0.2259 -0.2989
  903MOL0     H21876   7.409   8.905   8.935  2.3693 -3.5583 -1.7273
  903MOL0     H21877   7.114   8.802   8.912 -1.9444  0.6372  0.1171
  903MOL0     H21878   7.193   8.795   9.063  2.0388  0.4118  0.8034
  903MOL0     H21879   7.138   9.036   8.907 -3.3363 -1.0962 -0.3767
  903MOL0     H21880   7.208   9.040   9.076  2.6977 -0.0692 -1.5613
  903MOL0     H21881   6.929   8.965   8.974  0.6997  0.9563 -0.9757
  903MOL0     H21882   6.994   8.861   9.097 -2.6941  0.1938 -1.0296
  903MOL0     H21883   7.042   9.083   9.236  1.8557 -1.3992 -1.5518
  903MOL0     H21884   6.879   9.040   9.207 -0.0273  2.4655 -0.7295
  903MOL0     H21885   6.869   9.207   9.020 -0.1168 -0.1032  0.3708
  903MOL0     H21886   7.043   9.231   9.034 -1.0460 -2.5784 -1.2696
  903MOL0     H21887   7.770   8.770   8.810 -0.9850 -3.0148 -0.0882
  903MOL0     H21888   7.987   8.762   8.691 -1.0348 -1.0263  0.9523
  903MOL0     H21889   8.247   8.684   8.408 -2.4067 -1.4711 -0.6736
  903MOL0     H21890   8.474   8.685   8.376  1.7757  2.3220  0.8669
  903MOL0     H21891   9.058   7.660   9.075 -2.6985 -0.6915  5.0479
  903MOL0     H21892   9.075   7.462   9.223  0.7839 -2.8926 -2.4411
  903MOL0     H21893   9.296   7.138   9.424  0.1986  0.7181 -0.0480
  903MOL0     H21894   9.325   6.955   9.599 -0.2071  0.8448 -2.0562
  903MOL0     H21895   9.383   7.088  10.024  2.3467 -2.5693  1.6633
  903MOL0     H21896   9.206   7.044  10.021 -0.4558  1.0244 -4.3394
  903MOL0     H21897   9.456   6.877  10.050 -0.1796  1.0345 -1.1906
  903MOL0     H21898   9.307   6.797  10.022  0.9944 -0.4678 -0.2485
  903MOL0     H21899   9.343   6.814  10.276  0.1235 -1.4888 -0.8002
  903MOL0     H21900   9.197   6.904  10.219  1.0800 -1.7947 -1.0047
  903MOL0     H21901   9.342   7.034  10.395  1.6287 -0.8366  0.3198
  903MOL0     H21902   9.304   7.103  10.235  2.6240 -0.4082 -3.0507
  903MOL0     H21903   9.734   7.069  10.300  0.6857 -3.3485 -0.2673
  903MOL0     H21904   9.314   7.250   9.911 -1.3150 -2.0815 -0.0248
  903MOL0     H21905   9.296   7.424   9.743  1.7551 -0.1837 -1.4531
  904MOL0     O21906   6.419   2.705   9.050 -0.8076  0.2012 -0.7733
  904MOL0     C21907   6.444   2.587   9.023  0.4470 -0.5483 -0.4745
  904MOL0     O21908   6.499   2.534   8.912  0.1284  0.3369  0.9348
  904MOL0     C21909   6.513   2.596   8.784  0.7909  0.9554  0.0911
  904MOL0     C21910   6.562   2.512   8.685  0.2683 -0.7723  0.3569
  904MOL0     C21911   6.574   2.559   8.556  0.7794 -0.3778  0.6510
  904MOL0     C21912   6.512   2.684   8.532  0.8236  0.6143 -0.1649
  904MOL0     O21913   6.499   2.760   8.414  0.1477  0.7433  0.5913
  904MOL0     C21914   6.544   2.697   8.291 -0.2472  0.6601 -0.3054
  904MOL0     C21915   6.457   2.731   8.176 -0.2513 -0.2599  0.9312
  904MOL0     C21916   6.451   2.883   8.153 -0.6037 -0.1066 -0.0700
  904MOL0     C21917   6.462   2.920   8.002 -0.0466  0.9460  0.1575
  904MOL0     C21918   6.427   3.063   7.978  0.4451  0.0629  0.9780
  904MOL0     C21919   6.546   3.159   8.014  0.8476 -0.3937  0.0589
  904MOL0     C21920   6.516   3.298   8.003 -0.9395 -0.4061 -0.4467
  904MOL0     C21921   6.388   3.342   8.067  0.7611 -0.4432 -0.6500
  904MOL0     N21922   6.380   3.343   8.205  0.3902 -0.1811 -0.7315
  904MOL0     C21923   6.486   3.389   8.290 -0.0591 -0.8825 -0.0557
  904MOL0     C21924   6.438   3.353   8.410  0.8225 -0.3555 -0.3584
  904MOL0     C21925   6.516   3.389   8.535 -0.1114 -0.0676 -0.2739
  904MOL0     C21926   6.640   3.308   8.564 -0.1976  0.0769  0.0166
  904MOL0     C21927   6.696   3.333   8.703 -0.1234  0.4205 -0.5981
  904MOL0     C21928   6.652   3.239   8.818 -0.0712  0.6933 -0.2416
  904MOL0     O21929   6.681   3.094   8.790  0.6421 -0.0685 -0.8612
  904MOL0     C21930   6.761   3.031   8.881  0.3559  0.5037 -0.5526
  904MOL0     C21931   6.892   3.071   8.904 -0.3754  0.0088  0.2650
  904MOL0     C21932   6.974   3.003   8.995  0.9003  0.3662 -0.7676
  904MOL0     C21933   7.110   3.067   9.040  0.0506  0.2632  0.6655
  904MOL0     C21934   6.915   2.889   9.066  0.2873  0.7343  0.2341
  904MOL0     C21935   6.983   2.796   9.172  0.5624 -0.4331  0.8707
  904MOL0     O21936   6.901   2.699   9.217  0.1177  0.3785 -1.5891
  904MOL0     C21937   6.942   2.605   9.302  0.5232 -0.8357 -0.3237
  904MOL0     C21938   7.073   2.578   9.346  0.8849 -0.1231  0.7784
  904MOL0     C21939   7.105   2.491   9.452  0.8559  0.3483 -0.4359
  904MOL0     C21940   7.006   2.424   9.522  0.1511  0.8536  0.9195
  904MOL0     O21941   7.045   2.341   9.622  0.0250 -0.7920 -0.4143
  904MOL0     C21942   6.959   2.236   9.668  1.0822 -1.7749 -0.4207
  904MOL0     C21943   7.017   2.120   9.737 -0.2623 -0.1531  0.3605
  904MOL0     C21944   6.945   1.990   9.741 -0.1026 -0.5426 -0.2371
  904MOL0     C21945   6.964   1.908   9.609 -0.0780  0.3691  1.3758
  904MOL0     C21946   7.102   1.834   9.587 -0.2143 -0.3056 -0.2432
  904MOL0     C21947   7.120   1.788   9.445 -0.6609  0.2597  0.3915
  904MOL0     C21948   7.070   1.651   9.408  0.9377  0.2006 -0.2448
  904MOL0     C21949   7.130   1.602   9.280 -0.1385  0.1374  0.4059
  904MOL0    Cl21950   7.073   1.675   9.134  0.7185  0.2697  0.2681
  904MOL0     C21951   6.873   2.457   9.482 -0.1015  0.5819  0.3695
  904MOL0     C21952   6.839   2.547   9.383 -0.2476 -0.0173  0.1546
  904MOL0     O21953   7.107   2.801   9.173  0.4089  0.1416  0.0202
  904MOL0     C21954   6.777   2.855   9.044  0.1621  0.2258 -0.3574
  904MOL0     C21955   6.708   2.922   8.945 -0.0021 -0.5506 -0.3013
  904MOL0     N21956   6.310   3.292   8.396 -0.5631  0.1365  0.3699
  904MOL0     N21957   6.280   3.283   8.273 -0.4597  0.4052 -0.3567
  904MOL0     C21958   6.463   2.769   8.633 -0.1863  0.4808  0.7835
  904MOL0     C21959   6.463   2.721   8.762  0.5625 -0.8532  0.2741
  904MOL0     C21960   6.418   2.484   9.127  0.3951  0.0865 -0.4408
  904MOL0     C21961   6.439   2.343   9.099 -0.3300  0.4091  0.2785
  904MOL0     C21962   6.410   2.236   9.196  0.5271 -1.0181 -0.4791
  904MOL0     C21963   6.366   2.284   9.322  0.0542  0.6739 -0.2653
  904MOL0     O21964   6.371   2.183   9.417  0.1244  0.0119 -0.2163
  904MOL0     C21965   6.342   2.203   9.558  0.3777  0.0076  0.2736
  904MOL0     C21966   6.311   2.064   9.621  0.1296  0.7802  0.9175
  904MOL0     C21967   6.432   1.967   9.618  0.2076 -0.0995 -0.1966
  904MOL0     C21968   6.398   1.818   9.622  0.5046  0.4737 -0.0669
  904MOL0     C21969   6.525   1.736   9.630 -0.8334  0.2292 -0.0919
  904MOL0     C21970   6.633   1.682   9.644  0.3251 -0.8893  0.2375
  904MOL0     C21971   6.338   2.419   9.346  0.5099  0.1800 -0.4008
  904MOL0     C21972   6.365   2.506   9.248  0.1305  0.6778 -0.0289
  904MOL0     H21973   6.604   2.412   8.696  0.1325 -0.7022  1.5620
  904MOL0     H21974   6.618   2.499   8.477  0.5961  1.4800 -0.9340
  904MOL0     H21975   6.644   2.723   8.254  0.3574  0.5797  1.1990
  904MOL0     H21976   6.543   2.589   8.302  2.2865  0.5227 -0.8769
  904MOL0     H21977   6.513   2.699   8.087 -2.3226  0.3842 -0.6896
  904MOL0     H21978   6.362   2.678   8.169 -1.3385  1.7493 -0.6856
  904MOL0     H21979   6.368   2.942   8.194  0.4665  1.5689 -0.2284
  904MOL0     H21980   6.544   2.921   8.197  1.2390 -1.9395 -2.1477
  904MOL0     H21981   6.567   2.899   7.976 -0.1679 -2.4634  1.7996
  904MOL0     H21982   6.396   2.852   7.947  1.4810  1.0228 -1.9089
  904MOL0     H21983   6.402   3.082   7.874  0.1144  0.2843  1.0986
  904MOL0     H21984   6.335   3.085   8.033  0.7471  1.0175  1.1113
  904MOL0     H21985   6.584   3.129   8.113 -2.4392  2.0279  2.2833
  904MOL0     H21986   6.620   3.137   7.937 -1.1108 -0.3954 -1.9025
  904MOL0     H21987   6.603   3.350   8.045  0.5778 -2.5095 -0.8257
  904MOL0     H21988   6.505   3.312   7.895  1.4337 -2.4617 -1.0392
  904MOL0     H21989   6.301   3.283   8.035  1.5541 -2.1810  0.2656
  904MOL0     H21990   6.372   3.443   8.029 -1.0458  0.4430  2.1523
  904MOL0     H21991   6.580   3.440   8.274  0.2063 -1.2829  0.1910
  904MOL0     H21992   6.554   3.491   8.522  2.2028 -0.5066  2.1492
  904MOL0     H21993   6.453   3.379   8.624  0.1395 -1.7951 -0.2459
  904MOL0     H21994   6.712   3.344   8.490 -0.4196  0.2050 -0.1351
  904MOL0     H21995   6.623   3.201   8.548  0.7507  0.1985 -2.0744
  904MOL0     H21996   6.673   3.439   8.717  0.8667  0.5840 -0.1591
  904MOL0     H21997   6.805   3.320   8.702  0.0744  0.7852  2.9674
  904MOL0     H21998   6.545   3.250   8.836 -0.1203 -1.8708  1.5278
  904MOL0     H21999   6.701   3.277   8.908 -2.8437 -0.1171  1.7476
  904MOL0     H22000   6.953   3.140   8.846  2.5194 -1.2763  1.5457
  904MOL0     H22001   7.184   2.986   9.033 -0.9947 -0.5854 -1.1686
  904MOL0     H22002   7.135   3.139   8.962 -1.2224  0.9979  0.9136
  904MOL0     H22003   7.109   3.127   9.132 -2.0798  2.3836 -0.6442
  904MOL0     H22004   7.164   2.608   9.296  0.9818 -0.2521  0.8763
  904MOL0     H22005   7.208   2.471   9.479  0.5703 -0.6216 -0.0120
  904MOL0     H22006   6.881   2.280   9.730  1.7334  0.3870 -1.0488
  904MOL0     H22007   6.912   2.195   9.578 -2.6094  2.4280 -0.7864
  904MOL0     H22008   7.114   2.097   9.692  0.2721  3.3687 -0.5727
  904MOL0     H22009   7.038   2.155   9.838 -1.6916  1.3390  0.1768
  904MOL0     H22010   6.839   2.006   9.763 -0.1682 -0.2092 -0.7702
  904MOL0     H22011   6.980   1.926   9.822  0.3781 -2.2010 -1.6814
  904MOL0     H22012   6.882   1.840   9.584  0.8061 -0.9726  2.0725
  904MOL0     H22013   6.952   1.984   9.530 -2.1508 -1.4516 -0.2011
  904MOL0     H22014   7.099   1.748   9.655  1.0402 -0.0108  0.2094
  904MOL0     H22015   7.183   1.903   9.610  0.6163 -1.8374  1.8261
  904MOL0     H22016   7.105   1.871   9.375 -0.1403 -0.5263 -0.6829
  904MOL0     H22017   7.228   1.783   9.428 -0.5891  3.2677 -0.5333
  904MOL0     H22018   6.964   1.637   9.389  1.5123 -1.4955 -2.5776
  904MOL0     H22019   7.100   1.586   9.490  2.4773 -0.1226 -1.0311
  904MOL0     H22020   7.117   1.493   9.282  2.6603 -0.2722  2.2874
  904MOL0     H22021   7.239   1.605   9.275 -0.1620  0.7027  0.2079
  904MOL0     H22022   6.787   2.414   9.532  2.1421 -1.4198  2.8328
  904MOL0     H22023   6.735   2.570   9.363 -0.6975 -1.7588  0.2983
  904MOL0     H22024   6.737   2.763   9.086  1.4729 -0.2254 -0.0703
  904MOL0     H22025   6.604   2.892   8.933 -0.8030  0.8572  2.2943
  904MOL0     H22026   6.436   2.872   8.615  0.1604  0.5419  0.6050
  904MOL0     H22027   6.434   2.799   8.831  1.5638 -1.1994  1.1088
  904MOL0     H22028   6.466   2.310   8.999 -0.4562 -0.5316  0.5441
  904MOL0     H22029   6.418   2.131   9.169 -1.6998 -1.5651  0.6841
  904MOL0     H22030   6.422   2.256   9.611 -0.6326  1.1358  0.7192
  904MOL0     H22031   6.251   2.264   9.557  0.3315 -0.0234 -2.1515
  904MOL0     H22032   6.232   2.018   9.561  2.7630 -3.4125  0.3156
  904MOL0     H22033   6.270   2.072   9.722 -4.1498  0.6488 -0.5903
  904MOL0     H22034   6.490   1.993   9.707 -0.4350 -0.6610  0.3955
  904MOL0     H22035   6.499   2.000   9.538 -0.9720 -0.2249 -1.2602
  904MOL0     H22036   6.335   1.787   9.538 -2.4789 -1.0779  2.5397
  904MOL0     H22037   6.333   1.801   9.708 -0.7127 -1.1929 -1.2674
  904MOL0     H22038   6.730   1.640   9.662  0.9704  0.4577 -0.0102
  904MOL0     H22039   6.305   2.449   9.445 -0.4293 -0.8637 -0.3828
  904MOL0     H22040   6.359   2.611   9.275 -2.0612  1.3996 -2.8713
  905MOL0     O22041   7.511   2.744   3.120  0.0732 -0.0392  0.2383
  905MOL0     C22042   7.622   2.682   3.124  0.6892  0.3772  0.1040
  905MOL0     O22043   7.650   2.549   3.111 -0.3284 -0.3918  0.0530
  905MOL0     C22044   7.546   2.453   3.094  0.0051 -0.2845 -1.1299
  905MOL0     C22045   7.568   2.323   3.138  0.0046  0.1906 -0.3257
  905MOL0     C22046   7.482   2.218   3.124 -0.5862  0.2833 -0.7520
  905MOL0     C22047   7.351   2.246   3.080 -1.3169 -0.5168  0.4405
  905MOL0     O22048   7.265   2.149   3.068 -0.3358  0.5979  0.4015
  905MOL0     C22049   7.246   2.088   3.205  0.2241 -0.9893  0.5720
  905MOL0     C22050   7.262   1.943   3.214  0.0494  0.5643  0.2823
  905MOL0     C22051   7.158   1.863   3.119 -0.5616 -0.2984 -0.4566
  905MOL0     C22052   7.042   1.820   3.205  0.3627 -1.4791 -0.6451
  905MOL0     C22053   6.950   1.725   3.129  0.1935 -0.2795  0.2983
  905MOL0     C22054   6.879   1.627   3.229 -0.0110 -0.0573  0.3692
  905MOL0     C22055   6.780   1.565   3.136  1.0042  1.1477  0.3819
  905MOL0     C22056   6.693   1.450   3.214 -0.6684 -0.2976  0.2354
  905MOL0     N22057   6.799   1.343   3.244  0.3622 -0.9818 -0.8857
  905MOL0     C22058   6.846   1.312   3.371 -0.0353 -0.0622 -0.4858
  905MOL0     C22059   6.913   1.193   3.345  0.2140 -0.7037  0.9203
  905MOL0     C22060   6.990   1.123   3.450 -0.4617 -0.1948 -0.4137
  905MOL0     C22061   7.110   1.203   3.502 -0.3211 -0.1387 -0.6749
  905MOL0     C22062   7.236   1.233   3.415  1.1558  0.7492 -0.0266
  905MOL0     C22063   7.344   1.263   3.520 -0.7168 -0.9220  0.1575
  905MOL0     O22064   7.376   1.144   3.592 -0.5997 -1.0256 -0.5892
  905MOL0     C22065   7.496   1.077   3.561 -0.1207  0.1799 -0.0878
  905MOL0     C22066   7.531   0.968   3.649  0.3486 -0.0522  0.7286
  905MOL0     C22067   7.643   0.888   3.630 -0.5275 -0.4423 -0.1986
  905MOL0     C22068   7.665   0.776   3.735 -0.6103 -0.5979  0.6872
  905MOL0     C22069   7.731   0.911   3.530 -0.2447  0.5180 -0.7018
  905MOL0     C22070   7.855   0.829   3.504 -0.2863  0.8439  0.9350
  905MOL0     O22071   7.861   0.696   3.514 -0.6957  0.3017  0.1627
  905MOL0     C22072   7.980   0.639   3.467  0.2651 -0.6358 -0.1605
  905MOL0     C22073   8.004   0.616   3.333 -0.0956  0.1012 -0.1747
  905MOL0     C22074   8.125   0.549   3.295 -0.0562 -0.3744  0.3770
  905MOL0     C22075   8.218   0.503   3.386 -0.0583 -0.4537  0.6170
  905MOL0     O22076   8.308   0.407   3.333 -0.0539  0.0795  0.0671
  905MOL0     C22077   8.372   0.319   3.424 -0.7827  0.2454 -0.0585
  905MOL0     C22078   8.507   0.366   3.486  0.4502 -0.2625 -0.7590
  905MOL0     C22079   8.570   0.256   3.565 -0.1444  0.4393 -0.1265
  905MOL0     C22080   8.688   0.296   3.660 -0.0282  0.6552  0.1317
  905MOL0     C22081   8.723   0.180   3.761 -0.5548 -0.9965 -0.2320
  905MOL0     C22082   8.847   0.220   3.836 -0.7560  0.4661 -0.3464
  905MOL0     C22083   8.978   0.193   3.766  0.2453 -0.0685  0.0315
  905MOL0     C22084   9.093   0.170   3.871 -0.5976  1.0981  0.5344
  905MOL0    Cl22085   9.124   0.338   3.952 -0.1099 -0.3467  0.1397
  905MOL0     C22086   8.194   0.532   3.518 -0.4386 -0.9569  0.4432
  905MOL0     C22087   8.073   0.599   3.551  0.6412  0.0043 -0.0704
  905MOL0     O22088   7.949   0.903   3.474 -0.4274 -0.6038  0.5414
  905MOL0     C22089   7.694   1.006   3.429 -0.2193 -0.4759 -0.7389
  905MOL0     C22090   7.576   1.086   3.444  0.1537  0.7414  0.4106
  905MOL0     N22091   6.894   1.153   3.214 -0.2482  0.3155  0.3075
  905MOL0     N22092   6.825   1.245   3.149 -0.0658  0.7643  0.6106
  905MOL0     C22093   7.329   2.368   3.017 -1.3512  0.5410 -0.4461
  905MOL0     C22094   7.425   2.470   3.025 -0.1771  0.2211 -0.8423
  905MOL0     C22095   7.747   2.763   3.155 -0.0167 -0.5022 -0.9425
  905MOL0     C22096   7.742   2.909   3.165 -0.1214 -0.1814 -0.1093
  905MOL0     C22097   7.847   2.983   3.214 -0.3716  0.0687 -0.1155
  905MOL0     C22098   7.963   2.920   3.242  0.2646  0.3134 -0.0899
  905MOL0     O22099   8.063   2.992   3.295 -0.3657 -0.1330 -0.0861
  905MOL0     C22100   8.188   2.929   3.321 -0.3445  0.0784 -0.7852
  905MOL0     C22101   8.284   3.042   3.361  0.9976 -0.2296  0.1756
  905MOL0     C22102   8.320   3.121   3.235  1.1120  0.5043 -0.2274
  905MOL0     C22103   8.418   3.223   3.276  0.2293  0.7111 -0.5874
  905MOL0     C22104   8.457   3.308   3.166 -0.3975  0.4500 -0.5463
  905MOL0     C22105   8.473   3.372   3.061 -0.1580 -0.6560 -1.0296
  905MOL0     C22106   7.977   2.780   3.222  0.0026 -0.2960  0.4845
  905MOL0     C22107   7.870   2.703   3.181 -1.0846 -0.4296  0.2526
  905MOL0     H22108   7.659   2.301   3.193  0.7521  3.7158  0.0823
  905MOL0     H22109   7.510   2.113   3.132 -1.6628 -0.0411 -1.0832
  905MOL0     H22110   7.308   2.140   3.278 -0.9104 -1.7362  2.1260
  905MOL0     H22111   7.147   2.112   3.244 -0.3756  3.2269 -2.8013
  905MOL0     H22112   7.361   1.918   3.176 -0.9889 -1.3141 -1.4142
  905MOL0     H22113   7.262   1.914   3.319 -0.4592 -2.1209 -0.3767
  905MOL0     H22114   7.117   1.922   3.036 -0.8674  1.3844  0.8420
  905MOL0     H22115   7.210   1.772   3.085 -0.7799 -0.7843  0.4711
  905MOL0     H22116   7.081   1.769   3.294  0.4696 -4.2917 -2.1637
  905MOL0     H22117   6.994   1.910   3.243  0.2193 -1.1447 -1.5886
  905MOL0     H22118   6.879   1.785   3.071 -0.0538  0.5073  1.3656
  905MOL0     H22119   7.018   1.667   3.066 -0.6548 -0.7086 -0.2326
  905MOL0     H22120   6.948   1.553   3.271 -1.5339  1.0581  5.6398
  905MOL0     H22121   6.827   1.672   3.314 -1.1920  0.5945 -0.6577
  905MOL0     H22122   6.705   1.638   3.104 -1.4643 -1.1523  0.5486
  905MOL0     H22123   6.821   1.520   3.045 -2.1648  1.1441 -1.1478
  905MOL0     H22124   6.612   1.407   3.155  0.0940 -0.7212 -0.5241
  905MOL0     H22125   6.659   1.486   3.312  1.9822 -0.0960  1.1497
  905MOL0     H22126   6.836   1.359   3.468 -2.0792 -1.6522  0.1550
  905MOL0     H22127   6.930   1.116   3.541 -1.8613 -0.2369 -1.3125
  905MOL0     H22128   7.006   1.023   3.409 -1.4677 -1.1162  1.3186
  905MOL0     H22129   7.142   1.142   3.587 -0.6982  1.9670  1.0929
  905MOL0     H22130   7.085   1.302   3.542  2.9381 -1.0881  4.8109
  905MOL0     H22131   7.227   1.313   3.341 -1.9384 -1.0358 -1.7885
  905MOL0     H22132   7.265   1.145   3.358  1.4615  2.0106 -1.8920
  905MOL0     H22133   7.312   1.345   3.585  3.1955 -0.7693  2.2253
  905MOL0     H22134   7.432   1.310   3.475 -0.2024  0.1788  2.1867
  905MOL0     H22135   7.472   0.952   3.739  2.1673 -1.2780  1.7664
  905MOL0     H22136   7.586   0.780   3.810 -2.4647 -0.0334 -1.2006
  905MOL0     H22137   7.659   0.678   3.685 -1.0381 -0.6301  0.7994
  905MOL0     H22138   7.767   0.784   3.773  0.1185 -5.3920  0.3456
  905MOL0     H22139   7.931   0.639   3.256 -0.4178  1.9256  0.6055
  905MOL0     H22140   8.144   0.530   3.190  0.4034  1.7439  0.0258
  905MOL0     H22141   8.308   0.288   3.507 -0.5950 -0.2601 -0.0998
  905MOL0     H22142   8.402   0.227   3.374  0.0395  0.1797  0.5477
  905MOL0     H22143   8.572   0.392   3.402 -0.2309 -1.0263 -1.5432
  905MOL0     H22144   8.500   0.454   3.552  1.3620 -1.1042  0.5060
  905MOL0     H22145   8.600   0.168   3.506 -1.7929 -1.3741  1.6114
  905MOL0     H22146   8.494   0.215   3.631  0.6164 -1.0635 -0.1193
  905MOL0     H22147   8.778   0.319   3.603  0.5080 -3.7146 -1.1005
  905MOL0     H22148   8.678   0.388   3.718  1.7346 -0.1610  1.8600
  905MOL0     H22149   8.737   0.085   3.709  2.1609 -1.0470  0.4667
  905MOL0     H22150   8.638   0.166   3.829  1.7064 -0.1748  2.9840
  905MOL0     H22151   8.841   0.325   3.866 -3.4070 -0.1023  1.4611
  905MOL0     H22152   8.853   0.172   3.934  0.3449  1.5670  0.1563
  905MOL0     H22153   9.007   0.280   3.707  1.8191  0.8076  1.9849
  905MOL0     H22154   8.964   0.103   3.705 -1.2378  1.0533 -1.3422
  905MOL0     H22155   9.189   0.138   3.829 -0.2392  1.8243  0.7821
  905MOL0     H22156   9.063   0.097   3.946 -1.6165  3.1534  2.2182
  905MOL0     H22157   8.268   0.492   3.587  1.0569 -1.7506 -1.5036
  905MOL0     H22158   8.061   0.632   3.654  0.5164  3.6278 -1.1048
  905MOL0     H22159   7.759   1.011   3.342 -0.2901 -1.7948 -0.8830
  905MOL0     H22160   7.572   1.156   3.361  2.7675 -1.1660 -1.5086
  905MOL0     H22161   7.233   2.379   2.967 -1.4033 -0.7527 -0.6712
  905MOL0     H22162   7.411   2.570   2.985  2.9669  0.9998 -0.3026
  905MOL0     H22163   7.650   2.956   3.133 -0.8950 -1.9455 -0.6334
  905MOL0     H22164   7.830   3.089   3.234 -3.6654 -0.2658 -0.5630
  905MOL0     H22165   8.191   2.846   3.392 -1.7195 -1.7476 -2.7585
  905MOL0     H22166   8.231   2.884   3.231  1.5038 -3.5211  1.6682
  905MOL0     H22167   8.371   2.991   3.405  0.3813 -1.8956 -0.4460
  905MOL0     H22168   8.218   3.097   3.429 -2.4451 -5.1776  1.4271
  905MOL0     H22169   8.231   3.162   3.188 -0.3859 -1.7291  0.4917
  905MOL0     H22170   8.358   3.051   3.160 -1.2249 -1.0687 -0.0535
  905MOL0     H22171   8.504   3.167   3.315 -2.6530 -3.5205  0.3274
  905MOL0     H22172   8.377   3.287   3.355 -1.8446 -0.2584 -0.8265
  905MOL0     H22173   8.465   3.407   2.960  3.0650  1.0143 -0.8272
  905MOL0     H22174   8.069   2.725   3.232  2.2504  2.9766 -0.3140
  905MOL0     H22175   7.880   2.596   3.169  0.7260 -0.2968  0.2753
  906MOL0     O22176   1.795   1.856   8.475  0.0544 -0.9756 -0.0861
  906MOL0     C22177   1.794   1.856   8.349 -0.8994  0.9938 -0.5992
  906MOL0     O22178   1.862   1.759   8.280  0.2644 -0.4035  0.7186
  906MOL0     C22179   1.943   1.672   8.351 -0.4219  0.2994 -0.2481
  906MOL0     C22180   1.888   1.585   8.447  0.0530  0.4490  0.4395
  906MOL0     C22181   1.964   1.485   8.502 -0.5135  0.1441 -0.0179
  906MOL0     C22182   2.107   1.482   8.489 -0.5003  0.2462  0.6264
  906MOL0     O22183   2.181   1.392   8.558 -0.1816  0.1193 -0.4737
  906MOL0     C22184   2.130   1.356   8.685  0.6989 -0.6342 -0.1910
  906MOL0     C22185   2.244   1.293   8.759 -0.4144 -0.2532 -0.9464
  906MOL0     C22186   2.204   1.258   8.905  0.4030 -0.3816  0.1128
  906MOL0     C22187   2.280   1.138   8.969 -0.5031  1.0542  0.1493
  906MOL0     C22188   2.235   1.124   9.112 -0.5665  0.5488  0.0045
  906MOL0     C22189   2.306   1.224   9.203  0.1576  0.4651  0.4266
  906MOL0     C22190   2.297   1.167   9.339 -0.2097  0.2134  0.5099
  906MOL0     C22191   2.151   1.129   9.391  0.9602 -0.0046  0.6203
  906MOL0     N22192   2.152   1.094   9.528 -0.5676  0.2821  0.2084
  906MOL0     C22193   2.259   1.031   9.597  0.0377  0.1146 -0.2226
  906MOL0     C22194   2.197   1.003   9.715 -0.0542 -0.1894 -0.0221
  906MOL0     C22195   2.255   0.916   9.822 -0.0166  1.6735  1.0818
  906MOL0     C22196   2.263   0.963   9.973 -0.0833  0.0003  0.2219
  906MOL0     C22197   2.327   1.101  10.002  0.5392 -0.8110 -0.2712
  906MOL0     C22198   2.345   1.109  10.152 -0.0834  0.1145 -0.8186
  906MOL0     O22199   2.457   1.036  10.206 -0.5758 -0.7809 -0.5275
  906MOL0     C22200   2.494   1.022  10.342  0.4848 -0.8719  0.2249
  906MOL0     C22201   2.613   0.946  10.357 -0.1809  0.1022  0.1065
  906MOL0     C22202   2.655   0.917  10.490 -0.6145 -0.1518 -0.3281
  906MOL0     C22203   2.765   0.813  10.487  0.0529  0.1658 -0.6894
  906MOL0     C22204   2.587   0.961  10.603 -0.2274 -0.1491 -0.2560
  906MOL0     C22205   2.627   0.918  10.742  0.2047 -0.0397 -0.4674
  906MOL0     O22206   2.588   0.789  10.775 -0.8750 -0.1932 -0.1568
  906MOL0     C22207   2.622   0.740  10.893 -0.4104  0.0034 -0.1813
  906MOL0     C22208   2.711   0.635  10.883 -0.1678 -0.0240 -0.5217
  906MOL0     C22209   2.740   0.565  10.994  0.5841  0.2449 -1.3107
  906MOL0     C22210   2.693   0.599  11.118  0.0184  0.2055 -0.3307
  906MOL0     O22211   2.726   0.508  11.215  0.2304  0.2071 -0.0844
  906MOL0     C22212   2.619   0.433  11.273  0.1059 -0.1951  0.0741
  906MOL0     C22213   2.673   0.330  11.363  0.2999  0.0925  1.5443
  906MOL0     C22214   2.741   0.212  11.284 -1.0162 -0.9143 -1.1939
  906MOL0     C22215   2.651   0.138  11.180 -0.6936 -0.7191 -0.6849
  906MOL0     C22216   2.733   0.025  11.105 -0.0776 -0.6075 -0.0614
  906MOL0     C22217   2.821  -0.085  11.185  0.7263 -0.2153  0.7665
  906MOL0     C22218   2.728  -0.174  11.274  0.8875  0.4296 -0.2964
  906MOL0     C22219   2.814  -0.292  11.325 -0.8905  0.4862 -0.7122
  906MOL0    Cl22220   2.945  -0.222  11.434 -0.2220 -0.5316 -0.0497
  906MOL0     C22221   2.612   0.709  11.137  0.9983 -0.0961 -0.2633
  906MOL0     C22222   2.581   0.787  11.020 -0.2645  0.0412  0.8048
  906MOL0     O22223   2.676   0.999  10.812 -0.0300  0.7318 -0.7331
  906MOL0     C22224   2.469   1.036  10.577  0.0540  0.5803  0.3808
  906MOL0     C22225   2.426   1.064  10.452  0.3809 -0.0874  1.6142
  906MOL0     N22226   2.073   1.061   9.724  0.2165 -0.9381 -0.1536
  906MOL0     N22227   2.042   1.115   9.610  0.6265  1.2664  0.5090
  906MOL0     C22228   2.163   1.563   8.388  0.4447 -0.0716  0.2038
  906MOL0     C22229   2.079   1.653   8.312  0.3173  0.0702  0.0432
  906MOL0     C22230   1.699   1.953   8.285  0.0396  0.1004 -0.0017
  906MOL0     C22231   1.619   2.035   8.367  0.2112  0.1654 -0.2468
  906MOL0     C22232   1.526   2.125   8.313 -0.6625 -0.9835  0.1463
  906MOL0     C22233   1.518   2.134   8.172 -0.1597 -0.2499 -0.4000
  906MOL0     O22234   1.428   2.220   8.105  0.8210  0.9333 -0.3355
  906MOL0     C22235   1.284   2.195   8.117 -0.1331 -0.0671 -0.1739
  906MOL0     C22236   1.223   2.164   7.978  0.1833  0.0817  0.1527
  906MOL0     C22237   1.292   2.053   7.890  0.2890 -0.2123 -0.3594
  906MOL0     C22238   1.191   2.002   7.790 -0.6302 -0.9454 -0.2784
  906MOL0     C22239   1.254   1.900   7.699  0.2172 -0.7539 -0.6055
  906MOL0     C22240   1.305   1.823   7.623 -0.1407 -0.6999  0.4133
  906MOL0     C22241   1.600   2.062   8.091 -0.5004 -0.4438 -1.2128
  906MOL0     C22242   1.692   1.979   8.147 -0.2336  0.1335 -0.2476
  906MOL0     H22243   1.783   1.592   8.473 -0.0848  1.5250 -0.3476
  906MOL0     H22244   1.914   1.425   8.577 -1.8346  1.1003 -0.1012
  906MOL0     H22245   2.090   1.438   8.746  0.0681 -0.4375 -0.8520
  906MOL0     H22246   2.051   1.282   8.670  0.1408  0.1764 -1.4589
  906MOL0     H22247   2.283   1.207   8.703  3.7416  0.8819 -0.1648
  906MOL0     H22248   2.327   1.364   8.759 -1.8527  1.5678 -4.0487
  906MOL0     H22249   2.207   1.349   8.966  1.0920  0.5201 -1.1966
  906MOL0     H22250   2.101   1.224   8.904  1.1011 -2.8878 -3.4721
  906MOL0     H22251   2.274   1.043   8.915  1.8599  0.5536  0.6606
  906MOL0     H22252   2.385   1.166   8.978 -0.8560  2.3446  0.4358
  906MOL0     H22253   2.126   1.124   9.125 -0.4762  0.7365  0.8104
  906MOL0     H22254   2.269   1.027   9.149  0.2226  1.9018  3.0874
  906MOL0     H22255   2.410   1.245   9.177 -0.4861 -0.4558 -3.6097
  906MOL0     H22256   2.256   1.322   9.201 -2.8380 -0.9648  0.0966
  906MOL0     H22257   2.371   1.089   9.357 -0.8744 -0.5792 -0.1657
  906MOL0     H22258   2.334   1.249   9.402 -0.4845 -0.4627  1.5692
  906MOL0     H22259   2.118   1.038   9.340  2.1568 -0.0892 -0.0512
  906MOL0     H22260   2.079   1.209   9.378  2.3486  1.1660 -0.1973
  906MOL0     H22261   2.359   1.003   9.565  0.0694 -1.3158  0.9666
  906MOL0     H22262   2.197   0.824   9.836 -0.1131  1.6171  0.3563
  906MOL0     H22263   2.358   0.888   9.798 -0.0841  1.3267  1.1953
  906MOL0     H22264   2.323   0.897  10.036 -0.0554 -0.0007  0.1954
  906MOL0     H22265   2.168   0.944  10.022  1.8919 -1.5236  3.8392
  906MOL0     H22266   2.264   1.187   9.975 -1.0939 -1.5972  0.8236
  906MOL0     H22267   2.422   1.102   9.949  1.9850 -0.2149  2.2241
  906MOL0     H22268   2.248   1.088  10.200 -0.3334  0.4124 -1.1862
  906MOL0     H22269   2.373   1.210  10.184  1.8978 -0.9012  0.9193
  906MOL0     H22270   2.651   0.879  10.281 -2.4858 -3.2438  1.6862
  906MOL0     H22271   2.722   0.732  10.427 -2.7974 -1.9331  3.6860
  906MOL0     H22272   2.859   0.851  10.446  0.1423 -0.4000 -1.0211
  906MOL0     H22273   2.790   0.765  10.582 -0.0032 -0.6049 -1.0567
  906MOL0     H22274   2.745   0.610  10.783 -2.9252 -0.7112 -1.3740
  906MOL0     H22275   2.800   0.475  10.980 -0.9011 -1.1478  0.6768
  906MOL0     H22276   2.550   0.498  11.328  0.4671  0.4304 -0.2009
  906MOL0     H22277   2.557   0.400  11.189  1.5998  1.4355 -1.7432
  906MOL0     H22278   2.726   0.381  11.444 -2.8751  1.9678  2.6748
  906MOL0     H22279   2.585   0.291  11.416 -0.7619 -0.5954 -0.5883
  906MOL0     H22280   2.779   0.143  11.360 -1.0357 -0.0452 -0.3737
  906MOL0     H22281   2.822   0.266  11.235 -1.4725  1.3366  0.3568
  906MOL0     H22282   2.558   0.103  11.226 -1.4046 -0.8640 -2.1728
  906MOL0     H22283   2.618   0.215  11.110 -3.2667 -1.4423 -0.3842
  906MOL0     H22284   2.803   0.075  11.038 -2.0277 -1.1486 -2.7020
  906MOL0     H22285   2.682  -0.027  11.023 -1.0914  0.5261 -0.1750
  906MOL0     H22286   2.865  -0.150  11.108 -0.0394 -0.6382  0.6814
  906MOL0     H22287   2.897  -0.036  11.246 -0.0599 -1.4995  2.8553
  906MOL0     H22288   2.641  -0.226  11.233 -1.7845  2.8052  1.9854
  906MOL0     H22289   2.685  -0.101  11.343 -1.0606  2.6253 -3.5467
  906MOL0     H22290   2.868  -0.333  11.239  1.8616  4.1706 -0.9855
  906MOL0     H22291   2.765  -0.368  11.386 -1.0527  1.7746  0.8482
  906MOL0     H22292   2.556   0.731  11.227 -4.2062 -1.5924 -2.7237
  906MOL0     H22293   2.527   0.881  11.033  0.7219  0.5941  0.9812
  906MOL0     H22294   2.410   1.077  10.659  2.0567  1.1395  1.6109
  906MOL0     H22295   2.326   1.106  10.445 -1.2344 -3.7739 -0.7210
  906MOL0     H22296   2.265   1.564   8.351  0.0008 -0.1335 -1.0880
  906MOL0     H22297   2.122   1.721   8.240 -0.8329  1.2142  0.4122
  906MOL0     H22298   1.604   2.008   8.471 -0.6380  2.0465  0.1695
  906MOL0     H22299   1.466   2.187   8.379  1.9227  3.2921 -1.0678
  906MOL0     H22300   1.268   2.119   8.194  2.6904  0.9177  1.5167
  906MOL0     H22301   1.230   2.284   8.151  1.5347 -0.2177  3.2244
  906MOL0     H22302   1.228   2.251   7.912  1.5757  0.6961  1.0253
  906MOL0     H22303   1.117   2.149   7.999  0.4812 -0.3137  1.4903
  906MOL0     H22304   1.332   1.974   7.954 -0.9697 -0.5228  0.0761
  906MOL0     H22305   1.370   2.114   7.845  0.7348  1.6491  2.6563
  906MOL0     H22306   1.168   2.083   7.720  2.5351  0.4815  0.1452
  906MOL0     H22307   1.109   1.949   7.839 -0.6955 -0.7769 -0.2061
  906MOL0     H22308   1.352   1.767   7.545  1.6466  1.8915 -0.4744
  906MOL0     H22309   1.591   2.079   7.984 -1.7773  0.3566 -1.0025
  906MOL0     H22310   1.765   1.929   8.085 -0.2565 -1.9432  1.2977
  907MOL0     O22311  10.960  11.096   6.126 -1.0250 -0.4357 -0.5631
  907MOL0     C22312  10.861  11.166   6.149  0.6107  0.3067 -0.0690
  907MOL0     O22313  10.809  11.250   6.057  0.8539  0.3740 -0.1185
  907MOL0     C22314  10.870  11.258   5.933  0.4833  0.5595  1.7476
  907MOL0     C22315  11.008  11.272   5.907 -0.7046  0.3337  0.2042
  907MOL0     C22316  11.059  11.278   5.775 -0.4153 -0.6021  0.0099
  907MOL0     C22317  10.965  11.303   5.664 -0.6185  1.7756 -1.3621
  907MOL0     O22318  11.030  11.327   5.545  0.1482  0.8774  0.5851
  907MOL0     C22319  10.944  11.348   5.437  0.4846 -1.5880 -0.2040
  907MOL0     C22320  11.020  11.317   5.299 -0.6969  0.8864  0.0209
  907MOL0     C22321  10.934  11.356   5.181 -0.4265 -0.5630 -0.2551
  907MOL0     C22322  11.010  11.318   5.054  0.5799 -0.3576  0.2693
  907MOL0     C22323  11.139  11.403   5.020 -0.0600  0.4500 -0.2673
  907MOL0     C22324  11.114  11.553   5.011 -0.0683  0.3176  0.1740
  907MOL0     C22325  11.249  11.620   4.981 -1.0590  1.0420 -0.3678
  907MOL0     C22326  11.344  11.624   5.101 -0.3888 -1.0362  0.4545
  907MOL0     N22327  11.282  11.675   5.223 -0.7911 -0.3979  0.1662
  907MOL0     C22328  11.256  11.606   5.333 -0.0571 -0.1937  0.8130
  907MOL0     C22329  11.186  11.690   5.407  0.3905 -0.5146  0.8173
  907MOL0     C22330  11.151  11.666   5.550  0.0780 -0.0204 -0.5883
  907MOL0     C22331  11.265  11.692   5.648 -0.3315  0.4981  0.3834
  907MOL0     C22332  11.271  11.572   5.741 -0.0024  0.1875 -0.4713
  907MOL0     C22333  11.362  11.595   5.861  1.0859  1.1767 -0.2411
  907MOL0     O22334  11.293  11.652   5.973 -0.0578  0.4191 -0.3675
  907MOL0     C22335  11.292  11.579   6.089  0.1794 -0.0378  0.0281
  907MOL0     C22336  11.409  11.549   6.160  0.5852  0.0511  0.5660
  907MOL0     C22337  11.404  11.460   6.269 -0.5132  0.0535  0.8844
  907MOL0     C22338  11.537  11.424   6.325 -0.6115  0.5998  0.3930
  907MOL0     C22339  11.277  11.409   6.315  0.6466 -0.6536 -0.0303
  907MOL0     C22340  11.260  11.326   6.436 -0.7703 -0.3948 -0.3132
  907MOL0     O22341  11.361  11.233   6.470 -0.0491  0.4804 -0.5232
  907MOL0     C22342  11.319  11.131   6.561  0.2026 -0.4245  0.7061
  907MOL0     C22343  11.211  11.040   6.550  0.1914 -0.6394 -0.1935
  907MOL0     C22344  11.176  10.950   6.649 -0.1585  0.1989 -0.9875
  907MOL0     C22345  11.247  10.942   6.765  0.2616 -0.4775 -0.4059
  907MOL0     O22346  11.236  10.865   6.880  0.4179  0.3644  0.0347
  907MOL0     C22347  11.127  10.773   6.890  0.6541 -0.1126 -0.2854
  907MOL0     C22348  11.108  10.743   7.032  0.0950  0.4201 -0.5158
  907MOL0     C22349  11.054  10.853   7.118 -0.3332 -0.0654  0.6047
  907MOL0     C22350  10.984  10.786   7.239 -0.2521  0.0271  0.2820
  907MOL0     C22351  11.006  10.868   7.366 -0.1499 -0.0339 -0.1843
  907MOL0     C22352  10.950  10.780   7.476  0.1173 -0.5678 -0.4485
  907MOL0     C22353  10.925  10.841   7.623  0.7043  0.8684 -0.1817
  907MOL0     C22354  11.057  10.862   7.688 -1.0194 -0.3799 -0.1879
  907MOL0    Cl22355  11.137  10.694   7.700 -0.2689  0.9453 -0.1531
  907MOL0     C22356  11.357  11.026   6.781  0.1714  0.7093  0.3757
  907MOL0     C22357  11.390  11.116   6.683  0.0317  0.3182  0.4397
  907MOL0     O22358  11.152  11.340   6.499  0.2401  0.2624  0.2586
  907MOL0     C22359  11.162  11.444   6.244 -0.4527  0.0282  0.3612
  907MOL0     C22360  11.166  11.527   6.129  0.2737  0.9413 -0.0939
  907MOL0     N22361  11.188  11.817   5.354  0.5524 -0.4597  0.9036
  907MOL0     N22362  11.244  11.805   5.237 -0.6607 -0.1988 -0.4997
  907MOL0     C22363  10.828  11.298   5.694 -0.0857 -0.2831 -0.5553
  907MOL0     C22364  10.784  11.261   5.822 -0.5241 -0.4098 -0.6889
  907MOL0     C22365  10.811  11.168   6.293 -1.0962  0.0624  0.3433
  907MOL0     C22366  10.857  11.071   6.386 -0.5257  0.1616  0.5701
  907MOL0     C22367  10.812  11.074   6.517  0.0571 -0.6095 -0.5017
  907MOL0     C22368  10.727  11.181   6.564  0.4067  0.3025  0.5136
  907MOL0     O22369  10.688  11.211   6.691  0.2856 -0.3464  0.0712
  907MOL0     C22370  10.734  11.132   6.805  0.7512 -0.0888  0.3879
  907MOL0     C22371  10.859  11.195   6.861  0.6246  0.2849  0.9866
  907MOL0     C22372  10.841  11.306   6.961  0.1513  0.1416 -0.5737
  907MOL0     C22373  10.971  11.352   7.023 -0.3200  0.0455 -0.2414
  907MOL0     C22374  11.050  11.414   6.918 -0.4769 -0.0646  0.0234
  907MOL0     C22375  11.120  11.460   6.832  0.5006 -0.6988 -0.3116
  907MOL0     C22376  10.673  11.265   6.468  0.6235  0.6710 -0.0915
  907MOL0     C22377  10.713  11.265   6.336 -0.4194  0.0424  0.3943
  907MOL0     H22378  11.079  11.273   5.988  0.2852  1.4182 -0.6476
  907MOL0     H22379  11.167  11.279   5.769 -0.2553 -2.4589  1.2927
  907MOL0     H22380  10.854  11.287   5.427  1.9340 -3.9975  0.7641
  907MOL0     H22381  10.927  11.456   5.446  4.0899 -1.0272  1.3738
  907MOL0     H22382  11.113  11.375   5.302 -1.0896  1.5323 -0.0502
  907MOL0     H22383  11.039  11.210   5.293 -2.1861  0.4409  2.1197
  907MOL0     H22384  10.835  11.308   5.181 -0.1406 -1.1922 -1.2688
  907MOL0     H22385  10.920  11.464   5.194  2.9082  0.0588 -1.0317
  907MOL0     H22386  11.040  11.213   5.053  2.0971  0.0076 -2.6172
  907MOL0     H22387  10.939  11.338   4.973 -0.2113  2.1133  1.4597
  907MOL0     H22388  11.206  11.396   5.106 -1.0072  0.9817  0.5351
  907MOL0     H22389  11.192  11.378   4.928  1.6557  1.8787  0.2770
  907MOL0     H22390  11.048  11.578   4.928 -0.6921  1.2698  0.9297
  907MOL0     H22391  11.074  11.593   5.105 -0.4595 -0.7492  0.4789
  907MOL0     H22392  11.297  11.573   4.895  0.3618  0.8745  0.4923
  907MOL0     H22393  11.228  11.724   4.955 -0.1440  1.3423  0.0629
  907MOL0     H22394  11.424  11.690   5.067 -2.2374  0.3570 -1.5515
  907MOL0     H22395  11.380  11.523   5.119 -0.0293 -0.7229  1.5382
  907MOL0     H22396  11.291  11.508   5.365 -0.2977 -1.1536 -1.6917
  907MOL0     H22397  11.063  11.727   5.572  0.5695  0.6435 -0.4130
  907MOL0     H22398  11.107  11.567   5.563  0.6060 -0.4664 -1.9692
  907MOL0     H22399  11.239  11.780   5.707 -2.6844  0.9818 -1.2415
  907MOL0     H22400  11.366  11.712   5.611 -0.4443 -0.0719 -0.2692
  907MOL0     H22401  11.317  11.491   5.683 -1.6883  0.7490 -2.7638
  907MOL0     H22402  11.170  11.535   5.763  0.6529 -1.7157 -0.4355
  907MOL0     H22403  11.444  11.666   5.843 -0.0548  2.4085 -0.7231
  907MOL0     H22404  11.387  11.492   5.888 -2.5285 -0.7484 -3.2310
  907MOL0     H22405  11.503  11.583   6.116 -1.6833  2.3458 -3.0599
  907MOL0     H22406  11.619  11.437   6.254 -0.3098  0.4433  0.7064
  907MOL0     H22407  11.547  11.478   6.419  0.0065 -2.4785  2.2660
  907MOL0     H22408  11.539  11.316   6.345 -2.0414  0.4036 -0.4076
  907MOL0     H22409  11.143  11.058   6.467 -1.7331 -1.2533  1.1916
  907MOL0     H22410  11.079  10.902   6.638 -0.9569  1.6235 -0.3370
  907MOL0     H22411  11.037  10.806   6.838  1.9758  2.7488 -1.0203
  907MOL0     H22412  11.159  10.680   6.840 -0.6960 -0.0645 -1.2878
  907MOL0     H22413  11.048  10.651   7.038  0.1505  0.4246  0.2137
  907MOL0     H22414  11.206  10.726   7.076 -1.2218  0.0303  2.5179
  907MOL0     H22415  10.972  10.900   7.064 -0.3523  0.2568  0.9076
  907MOL0     H22416  11.127  10.929   7.145  2.0174 -1.7412 -0.6457
  907MOL0     H22417  10.880  10.760   7.215  0.8182 -3.4557 -1.2839
  907MOL0     H22418  11.019  10.683   7.253 -1.8911 -0.6098 -0.0952
  907MOL0     H22419  10.954  10.964   7.361 -1.7340 -0.8708 -0.5667
  907MOL0     H22420  11.111  10.892   7.389 -0.0910 -0.4440 -0.0159
  907MOL0     H22421  10.850  10.754   7.439 -0.4888 -0.0612  0.8060
  907MOL0     H22422  11.007  10.687   7.485  1.2321  0.3308  3.0180
  907MOL0     H22423  10.861  10.781   7.688  2.4020 -0.0133  0.7453
  907MOL0     H22424  10.874  10.938   7.622  2.4356  1.8376 -0.7072
  907MOL0     H22425  11.061  10.920   7.780  3.6906 -0.8444  0.1745
  907MOL0     H22426  11.127  10.928   7.635 -0.4350  0.0319  1.0464
  907MOL0     H22427  11.409  11.032   6.876  1.2622 -2.0666  0.0758
  907MOL0     H22428  11.471  11.182   6.711  2.3934 -3.1664  2.6200
  907MOL0     H22429  11.068  11.409   6.284 -0.6723 -0.8976 -0.8971
  907MOL0     H22430  11.072  11.546   6.079 -0.2558 -2.1027 -0.4529
  907MOL0     H22431  10.756  11.328   5.619 -1.2802 -0.8077  0.3631
  907MOL0     H22432  10.680  11.259   5.852  0.2026  0.4875  2.2347
  907MOL0     H22433  10.918  10.983   6.366 -0.2891  0.4436  0.0309
  907MOL0     H22434  10.849  11.001   6.589 -0.1967 -0.2157  0.0308
  907MOL0     H22435  10.654  11.114   6.877  0.7014 -3.7729 -0.3939
  907MOL0     H22436  10.757  11.031   6.769  5.0837  0.6731  0.3831
  907MOL0     H22437  10.928  11.223   6.781 -1.1392  1.5933 -0.1492
  907MOL0     H22438  10.910  11.104   6.894  0.0228 -1.4511 -2.3297
  907MOL0     H22439  10.777  11.271   7.043 -0.8180  0.2949 -1.2403
  907MOL0     H22440  10.779  11.388   6.921 -1.6686 -0.1758  1.3752
  907MOL0     H22441  11.033  11.277   7.074  0.8724  1.1197 -0.0657
  907MOL0     H22442  10.954  11.431   7.097 -1.7530 -0.4130 -0.0468
  907MOL0     H22443  11.175  11.515   6.759 -0.6893  0.8328 -0.1040
  907MOL0     H22444  10.600  11.336   6.506  0.5754  2.1565 -2.7473
  907MOL0     H22445  10.671  11.339   6.269 -0.5959 -1.1927 -0.9124
  908MOL0     O22446   3.605   0.550   4.701 -0.5354  0.1740  0.1300
  908MOL0     C22447   3.567   0.631   4.786 -0.8092 -0.0945  1.1207
  908MOL0     O22448   3.455   0.612   4.853  0.7435 -0.1773 -0.2809
  908MOL0     C22449   3.392   0.484   4.861 -0.2122 -0.6633  0.0721
  908MOL0     C22450   3.468   0.368   4.893  0.1642  0.3330  0.5091
  908MOL0     C22451   3.394   0.246   4.906 -0.2095  0.3748 -0.6584
  908MOL0     C22452   3.255   0.235   4.873 -0.0350 -0.3908 -0.5255
  908MOL0     O22453   3.201   0.110   4.888  0.2381 -0.9802  0.0878
  908MOL0     C22454   3.101   0.059   4.802 -0.7932 -0.8778 -0.6803
  908MOL0     C22455   3.111  -0.096   4.823  0.4199  0.3264  0.5765
  908MOL0     C22456   3.216  -0.156   4.728  0.7254  1.5023  0.1849
  908MOL0     C22457   3.268  -0.284   4.775  0.0970 -0.7762 -0.9120
  908MOL0     C22458   3.328  -0.378   4.674  0.1892  0.3485  0.3117
  908MOL0     C22459   3.351  -0.520   4.742  0.2691 -1.3111  0.3029
  908MOL0     C22460   3.380  -0.642   4.656 -0.0865 -0.2173 -1.5944
  908MOL0     C22461   3.526  -0.681   4.669 -0.7243 -0.0528  0.0370
  908MOL0     N22462   3.607  -0.562   4.647 -0.2791  0.5293  0.4058
  908MOL0     C22463   3.646  -0.466   4.743 -0.1826  0.1164  0.0154
  908MOL0     C22464   3.715  -0.371   4.681 -0.6131 -0.1009  1.1849
  908MOL0     C22465   3.799  -0.275   4.755  0.0583 -0.2456  0.2425
  908MOL0     C22466   3.781  -0.132   4.704 -0.4376  0.2269  0.6513
  908MOL0     C22467   3.646  -0.068   4.710  0.1035 -0.2174 -0.2362
  908MOL0     C22468   3.636   0.084   4.681  0.2543  0.5776 -0.6644
  908MOL0     O22469   3.740   0.153   4.765 -0.1856  0.1044 -1.0037
  908MOL0     C22470   3.839   0.207   4.686 -0.4478  0.4781 -0.0294
  908MOL0     C22471   3.808   0.308   4.600 -0.6876  0.6447  1.0919
  908MOL0     C22472   3.901   0.359   4.500 -0.1594 -0.7179 -0.3919
  908MOL0     C22473   3.850   0.451   4.388  0.1294 -0.1211 -0.4775
  908MOL0     C22474   4.031   0.315   4.510 -0.2777 -0.1672  0.5473
  908MOL0     C22475   4.151   0.373   4.422 -0.5183  0.6502 -0.2398
  908MOL0     O22476   4.144   0.490   4.349  0.3571  0.1428 -0.3774
  908MOL0     C22477   4.255   0.567   4.302  0.7175  0.2839  0.5726
  908MOL0     C22478   4.390   0.550   4.333 -0.3443 -0.4352  0.1425
  908MOL0     C22479   4.493   0.627   4.277 -0.6438  0.1894 -0.2008
  908MOL0     C22480   4.460   0.730   4.182  0.3609  0.9428 -0.7153
  908MOL0     O22481   4.552   0.807   4.101  0.3030 -0.7269  0.2330
  908MOL0     C22482   4.680   0.845   4.171  0.2101 -0.0093  0.0507
  908MOL0     C22483   4.744   0.958   4.092  0.9963 -0.8878  0.3634
  908MOL0     C22484   4.848   1.032   4.169  0.2672  0.6194  0.8777
  908MOL0     C22485   4.994   0.973   4.150  0.3870 -0.6024 -1.2496
  908MOL0     C22486   5.089   1.077   4.211  0.2821 -0.4054 -0.7448
  908MOL0     C22487   5.106   1.188   4.108 -0.0343  0.0221  0.5861
  908MOL0     C22488   5.187   1.295   4.168  0.6700 -0.3918  0.6124
  908MOL0     C22489   5.228   1.389   4.049 -0.5323 -0.6049 -0.9969
  908MOL0    Cl22490   5.385   1.475   4.090 -0.2851  0.4064 -0.1620
  908MOL0     C22491   4.326   0.750   4.158  0.4232  0.3375  0.3132
  908MOL0     C22492   4.224   0.671   4.215  0.0300 -0.2426 -0.0281
  908MOL0     O22493   4.252   0.309   4.429  0.3833 -0.4780 -0.7347
  908MOL0     C22494   4.069   0.234   4.624  0.0201  0.3057 -1.0513
  908MOL0     C22495   3.971   0.168   4.701 -1.1806  0.1598  0.0789
  908MOL0     N22496   3.717  -0.398   4.548  0.8924  0.2691 -0.7674
  908MOL0     N22497   3.650  -0.513   4.525 -0.2480 -0.1186 -1.0626
  908MOL0     C22498   3.189   0.352   4.837  0.6507  0.6214 -0.1271
  908MOL0     C22499   3.259   0.476   4.844 -0.0288  0.1105  0.3385
  908MOL0     C22500   3.636   0.757   4.798  0.7753  0.0857  0.1931
  908MOL0     C22501   3.603   0.851   4.897 -0.3572 -0.7036  0.4233
  908MOL0     C22502   3.676   0.972   4.915  0.6788 -1.0330  0.3982
  908MOL0     C22503   3.780   0.997   4.825  0.0991 -1.2339 -1.1205
  908MOL0     O22504   3.842   1.114   4.840 -0.3602 -0.8427 -0.1598
  908MOL0     C22505   3.921   1.129   4.968  0.0846 -0.1836  0.4039
  908MOL0     C22506   3.938   1.279   5.018  0.1132  0.6093 -1.1983
  908MOL0     C22507   3.794   1.330   5.050  0.1974 -0.2797 -0.0764
  908MOL0     C22508   3.803   1.471   5.104 -1.7818 -1.6163 -0.1410
  908MOL0     C22509   3.874   1.482   5.232 -0.5789 -0.5216 -0.6126
  908MOL0     C22510   3.948   1.502   5.332  0.1331  0.4721 -0.4011
  908MOL0     C22511   3.810   0.914   4.719  0.9150  0.3857 -0.0025
  908MOL0     C22512   3.733   0.797   4.702  1.2607  0.3657 -0.5372
  908MOL0     H22513   3.574   0.368   4.914 -0.0379  1.2973  1.6432
  908MOL0     H22514   3.447   0.166   4.957  1.4626  0.3999 -2.2602
  908MOL0     H22515   2.999   0.076   4.838 -0.8353 -1.7197 -0.3901
  908MOL0     H22516   3.112   0.077   4.694 -1.7800 -3.8837 -1.3852
  908MOL0     H22517   3.129  -0.109   4.930  2.4006  2.7500  0.6234
  908MOL0     H22518   3.012  -0.142   4.813  0.9068 -0.7860  0.7231
  908MOL0     H22519   3.176  -0.169   4.628  0.3843  0.3037  0.4549
  908MOL0     H22520   3.302  -0.088   4.726  1.0299  1.2642  2.1875
  908MOL0     H22521   3.343  -0.260   4.851 -2.4676  1.9948  1.0009
  908MOL0     H22522   3.196  -0.331   4.843 -1.5901 -0.9435 -2.7169
  908MOL0     H22523   3.258  -0.383   4.591 -0.8893  3.3811  0.9083
  908MOL0     H22524   3.422  -0.347   4.627 -0.1802  1.2790  0.1699
  908MOL0     H22525   3.430  -0.512   4.818  1.6276 -1.7039 -1.0149
  908MOL0     H22526   3.266  -0.541   4.808  0.2700  2.4622  1.7551
  908MOL0     H22527   3.314  -0.727   4.676 -0.8551  0.7578  0.3520
  908MOL0     H22528   3.377  -0.622   4.548  1.8399 -2.5612 -2.1475
  908MOL0     H22529   3.542  -0.756   4.591 -0.8809 -2.6970  2.3983
  908MOL0     H22530   3.549  -0.731   4.763 -0.5860 -3.3964 -1.6324
  908MOL0     H22531   3.636  -0.479   4.851 -0.4715 -2.2813 -0.2521
  908MOL0     H22532   3.773  -0.285   4.861 -1.5089 -0.2822 -0.1223
  908MOL0     H22533   3.901  -0.311   4.741  0.5469  1.5129 -0.9616
  908MOL0     H22534   3.824  -0.133   4.604 -0.5445  1.0214  0.5888
  908MOL0     H22535   3.850  -0.068   4.761  0.4098  0.3420 -0.4773
  908MOL0     H22536   3.614  -0.089   4.812  2.0188 -0.5770  0.3265
  908MOL0     H22537   3.578  -0.123   4.644  0.5390 -0.5002 -0.4561
  908MOL0     H22538   3.533   0.106   4.709 -0.3822 -1.6716 -1.0499
  908MOL0     H22539   3.646   0.088   4.572 -4.3873 -0.4638 -1.3347
  908MOL0     H22540   3.702   0.328   4.587 -0.8199  1.3636  2.8753
  908MOL0     H22541   3.741   0.452   4.385 -0.0741 -0.8666  2.8687
  908MOL0     H22542   3.872   0.554   4.417 -0.7941  0.9530 -3.1835
  908MOL0     H22543   3.884   0.418   4.289  1.0759  0.7886 -0.4759
  908MOL0     H22544   4.433   0.479   4.402 -1.3787  1.1833  2.5972
  908MOL0     H22545   4.593   0.592   4.299 -0.7203 -1.1021 -1.7765
  908MOL0     H22546   4.660   0.881   4.272 -1.2848  2.4220 -1.0053
  908MOL0     H22547   4.751   0.763   4.161  0.6386  0.5423 -2.0056
  908MOL0     H22548   4.774   0.925   3.992  0.6213  0.6089 -0.2672
  908MOL0     H22549   4.662   1.030   4.082  1.1122 -1.0866 -2.8767
  908MOL0     H22550   4.826   1.033   4.276 -1.7390  2.3497  0.4918
  908MOL0     H22551   4.842   1.133   4.129  0.0703 -0.0012 -0.7767
  908MOL0     H22552   4.987   0.879   4.207 -2.0934 -0.3231 -0.9729
  908MOL0     H22553   5.031   0.947   4.051  0.9687  0.2394 -1.2608
  908MOL0     H22554   5.184   1.027   4.235 -0.9286 -2.6967 -0.4556
  908MOL0     H22555   5.045   1.124   4.300  1.2375 -1.3063  0.2371
  908MOL0     H22556   5.161   1.151   4.021  1.2792 -1.0646  1.8154
  908MOL0     H22557   5.008   1.231   4.087  0.4892  1.5977  1.2006
  908MOL0     H22558   5.277   1.254   4.216 -1.4806 -3.2443  2.5943
  908MOL0     H22559   5.135   1.359   4.239 -1.2996 -0.3559 -0.7980
  908MOL0     H22560   5.148   1.460   4.026  0.4734  1.2681  0.8474
  908MOL0     H22561   5.237   1.326   3.961 -2.4190  2.8018 -3.8723
  908MOL0     H22562   4.299   0.817   4.078  1.8120  3.4889  2.2911
  908MOL0     H22563   4.122   0.683   4.180  0.7723  0.4039 -2.1145
  908MOL0     H22564   4.168   0.194   4.645 -1.0382 -1.3469  1.2658
  908MOL0     H22565   4.000   0.098   4.779  0.6826  1.4430  0.6074
  908MOL0     H22566   3.081   0.354   4.827  0.5112  3.0643  0.9767
  908MOL0     H22567   3.200   0.565   4.821  1.8769  0.9981 -1.4863
  908MOL0     H22568   3.523   0.841   4.970  2.3984 -1.0531  3.6181
  908MOL0     H22569   3.644   1.038   4.994  1.6033  0.3546 -0.3593
  908MOL0     H22570   3.869   1.073   5.047  1.2952 -1.6206  0.2467
  908MOL0     H22571   4.022   1.087   4.965  0.0348 -0.2946  0.2589
  908MOL0     H22572   3.979   1.327   4.929 -0.3012  0.8941 -1.2393
  908MOL0     H22573   4.007   1.297   5.101 -0.6466  1.7418 -0.7904
  908MOL0     H22574   3.727   1.257   5.097  1.1499 -2.8553 -2.3960
  908MOL0     H22575   3.744   1.349   4.954  2.3872 -1.3584 -1.5161
  908MOL0     H22576   3.706   1.520   5.115 -0.0969  1.5805  1.9415
  908MOL0     H22577   3.864   1.534   5.039 -0.6176 -2.1217  0.4220
  908MOL0     H22578   4.005   1.519   5.422 -2.6098  0.0231  1.5298
  908MOL0     H22579   3.888   0.943   4.648  1.4462  1.4325  0.9780
  908MOL0     H22580   3.755   0.726   4.622  0.9062 -1.0182  0.5677
  909MOL0     O22581   5.225   5.000   1.518  0.0652 -0.5928 -0.7148
  909MOL0     C22582   5.123   5.019   1.451  0.4412 -1.0410  0.9518
  909MOL0     O22583   4.995   5.051   1.490 -0.5447 -0.8060 -0.2534
  909MOL0     C22584   4.974   5.068   1.620 -0.2985 -0.4851 -0.1328
  909MOL0     C22585   4.899   4.970   1.687 -0.9432 -0.6269 -0.4135
  909MOL0     C22586   4.865   4.983   1.820 -0.2589  0.5459  0.2123
  909MOL0     C22587   4.901   5.098   1.893  0.3596 -0.2346 -0.0545
  909MOL0     O22588   4.866   5.112   2.026  0.2970 -0.6321 -0.7096
  909MOL0     C22589   4.760   5.205   2.057  0.0649  0.0128  1.1167
  909MOL0     C22590   4.748   5.193   2.211  0.8976  0.1497  0.3911
  909MOL0     C22591   4.697   5.052   2.248 -0.0615 -0.7738  0.1326
  909MOL0     C22592   4.702   5.045   2.398  0.3152  0.2109  0.2419
  909MOL0     C22593   4.648   4.903   2.433  0.0969  0.0924 -1.2050
  909MOL0     C22594   4.628   4.879   2.582 -0.9345 -0.1817 -0.6100
  909MOL0     C22595   4.587   4.733   2.604 -0.2960 -0.7625 -0.5203
  909MOL0     C22596   4.607   4.672   2.740 -0.0455 -0.2341  0.3982
  909MOL0     N22597   4.737   4.679   2.806  0.3267 -0.5667  0.7645
  909MOL0     C22598   4.856   4.645   2.753 -0.9205 -0.0346  0.6289
  909MOL0     C22599   4.949   4.700   2.831  0.0424 -0.2146 -0.3647
  909MOL0     C22600   5.098   4.704   2.814 -0.3827  0.5232 -0.4140
  909MOL0     C22601   5.151   4.856   2.798  0.6683  0.3763 -0.1894
  909MOL0     C22602   5.077   4.936   2.694 -0.2385 -0.7159 -0.6777
  909MOL0     C22603   5.093   5.088   2.726 -0.0345 -0.0925  0.6196
  909MOL0     O22604   5.021   5.159   2.617 -0.2174  0.8672  0.3192
  909MOL0     C22605   4.902   5.209   2.658  0.3852 -0.1754 -0.0923
  909MOL0     C22606   4.810   5.150   2.747 -0.1556  1.1216 -0.6032
  909MOL0     C22607   4.698   5.227   2.800  0.4650 -0.0903 -0.6378
  909MOL0     C22608   4.635   5.165   2.922 -0.3672  0.0903 -0.6673
  909MOL0     C22609   4.669   5.351   2.745 -0.8438 -0.3072 -0.4250
  909MOL0     C22610   4.562   5.448   2.793 -0.0617 -0.2688 -0.4357
  909MOL0     O22611   4.550   5.563   2.726  0.0085  0.3455  0.7656
  909MOL0     C22612   4.433   5.650   2.713 -0.4891  0.2217  0.8613
  909MOL0     C22613   4.303   5.618   2.761 -0.3787 -0.0071 -0.0441
  909MOL0     C22614   4.197   5.709   2.751 -0.0051  0.0977 -0.1380
  909MOL0     C22615   4.211   5.827   2.694  0.3242 -0.4043 -0.0083
  909MOL0     O22616   4.106   5.916   2.673  0.1711 -0.3135  0.6632
  909MOL0     C22617   4.109   6.052   2.706 -0.4968 -1.4732 -0.0876
  909MOL0     C22618   3.968   6.117   2.711 -0.3373  0.2361  0.3725
  909MOL0     C22619   3.952   6.252   2.778  0.0727  0.0621 -0.1565
  909MOL0     C22620   3.814   6.308   2.741  0.3432 -0.2701 -0.7040
  909MOL0     C22621   3.686   6.252   2.818 -0.2962 -0.3771 -0.4423
  909MOL0     C22622   3.556   6.330   2.788 -0.2787  0.7737  0.6641
  909MOL0     C22623   3.432   6.264   2.843 -0.4164  0.0235  0.0719
  909MOL0     C22624   3.425   6.263   2.997 -1.1844 -0.0279 -0.4931
  909MOL0    Cl22625   3.274   6.220   3.078  0.5333 -0.2099  0.0304
  909MOL0     C22626   4.336   5.865   2.641 -0.1212  0.6060 -0.3162
  909MOL0     C22627   4.446   5.768   2.641  0.3044  0.0793 -0.1066
  909MOL0     O22628   4.486   5.417   2.877  0.0571 -0.2152 -0.8120
  909MOL0     C22629   4.752   5.391   2.644  0.1753 -0.9753  0.4819
  909MOL0     C22630   4.869   5.331   2.603 -0.7429  0.8676  0.0262
  909MOL0     N22631   4.886   4.775   2.927 -0.8971  0.2152 -0.4843
  909MOL0     N22632   4.762   4.756   2.911  0.3062  0.3190 -0.2215
  909MOL0     C22633   4.966   5.199   1.828 -0.0686 -1.2242 -0.8886
  909MOL0     C22634   5.012   5.185   1.692  0.8288  0.2373 -0.1454
  909MOL0     C22635   5.138   5.015   1.299 -0.9968  0.0083 -1.1497
  909MOL0     C22636   5.023   5.025   1.211 -0.6459  0.2723  0.6225
  909MOL0     C22637   5.045   5.048   1.078 -0.7318 -0.7228  0.0956
  909MOL0     C22638   5.173   5.058   1.021  0.3401  0.5446  1.1694
  909MOL0     O22639   5.184   5.095   0.889  0.5063 -0.2201  0.2249
  909MOL0     C22640   5.305   5.076   0.821 -0.3570 -0.3070  0.7326
  909MOL0     C22641   5.318   5.181   0.708 -0.4698  0.3142  0.2086
  909MOL0     C22642   5.362   5.314   0.772  0.7352 -0.3758  0.6113
  909MOL0     C22643   5.356   5.430   0.669  0.4675 -0.7045  0.1963
  909MOL0     C22644   5.402   5.562   0.723 -0.6993 -0.5663  0.7316
  909MOL0     C22645   5.429   5.662   0.787  0.2669  0.6117 -0.9821
  909MOL0     C22646   5.284   5.053   1.105  0.3746 -0.2959  0.6760
  909MOL0     C22647   5.267   5.033   1.243 -0.6705  0.9872 -0.7771
  909MOL0     H22648   4.876   4.888   1.619 -1.5220  1.1904 -2.5426
  909MOL0     H22649   4.808   4.903   1.867  1.8781 -1.4861 -0.4065
  909MOL0     H22650   4.784   5.308   2.029  3.4902 -0.7600  0.8934
  909MOL0     H22651   4.671   5.174   2.000  0.0865 -0.5512  1.3894
  909MOL0     H22652   4.844   5.209   2.262 -0.5029  0.5580  3.0599
  909MOL0     H22653   4.676   5.268   2.243  0.2530 -1.0580  1.8931
  909MOL0     H22654   4.598   5.030   2.206  1.1971 -2.4896 -2.2045
  909MOL0     H22655   4.759   4.974   2.202 -1.3777 -1.8574  0.1404
  909MOL0     H22656   4.809   5.050   2.422  0.3332  0.9291  0.0439
  909MOL0     H22657   4.661   5.131   2.452  3.3562  2.6660 -1.0426
  909MOL0     H22658   4.550   4.883   2.388 -0.3047  0.3825 -0.4787
  909MOL0     H22659   4.719   4.836   2.383  1.1258  0.9755 -0.9463
  909MOL0     H22660   4.727   4.890   2.629 -0.7397  1.8861 -1.3883
  909MOL0     H22661   4.546   4.941   2.618 -3.5329 -3.2846 -0.7677
  909MOL0     H22662   4.482   4.720   2.578 -1.1724  0.9106  1.8727
  909MOL0     H22663   4.650   4.677   2.534  1.1130  0.9115 -0.6607
  909MOL0     H22664   4.582   4.566   2.733  0.7230 -0.4500  0.7986
  909MOL0     H22665   4.540   4.726   2.808 -0.4926 -2.6595  2.0088
  909MOL0     H22666   4.873   4.581   2.668 -0.9427  2.1971 -1.1448
  909MOL0     H22667   5.143   4.670   2.908 -4.3787 -2.2553  0.7407
  909MOL0     H22668   5.140   4.639   2.737 -0.1260 -1.8993  1.6371
  909MOL0     H22669   5.254   4.865   2.763  0.2940 -1.4086 -1.9497
  909MOL0     H22670   5.141   4.893   2.900 -0.7883  0.4765 -0.3471
  909MOL0     H22671   4.970   4.919   2.709  0.1465 -1.6539  1.3479
  909MOL0     H22672   5.120   4.929   2.594  3.2074 -0.2582  0.6481
  909MOL0     H22673   5.201   5.103   2.724 -0.0468 -0.0051 -1.2844
  909MOL0     H22674   5.059   5.102   2.829  1.3391  1.6363  0.8953
  909MOL0     H22675   4.837   5.050   2.779 -0.5452  0.0978 -3.2266
  909MOL0     H22676   4.695   5.086   2.968  2.2019  2.0844 -0.3689
  909MOL0     H22677   4.620   5.248   2.992  0.2792  1.9229 -2.6148
  909MOL0     H22678   4.540   5.123   2.888  0.1491  0.7523 -3.1209
  909MOL0     H22679   4.286   5.526   2.816 -2.0653  0.0596 -0.3967
  909MOL0     H22680   4.096   5.690   2.788 -0.4530  1.4112 -0.6191
  909MOL0     H22681   4.162   6.071   2.800 -1.5287  2.6675 -0.1477
  909MOL0     H22682   4.174   6.104   2.635 -0.1613 -0.8263  0.6799
  909MOL0     H22683   3.931   6.134   2.610 -0.9075 -1.5699  0.2533
  909MOL0     H22684   3.911   6.035   2.756 -0.1874  0.1769  0.4557
  909MOL0     H22685   4.035   6.307   2.732  0.9102 -1.1411 -0.1375
  909MOL0     H22686   3.965   6.239   2.886 -1.1300 -0.1370 -0.0270
  909MOL0     H22687   3.825   6.411   2.778 -1.2221 -0.6796  1.0554
  909MOL0     H22688   3.792   6.319   2.635  0.0370  2.6270 -0.4351
  909MOL0     H22689   3.712   6.244   2.924 -3.1036 -1.1380  0.2590
  909MOL0     H22690   3.657   6.149   2.798  0.3928 -0.2982 -2.0262
  909MOL0     H22691   3.557   6.432   2.828 -0.1871  0.6918  0.8714
  909MOL0     H22692   3.544   6.335   2.679 -0.5753  0.2121  0.6664
  909MOL0     H22693   3.434   6.159   2.813  2.3848  0.3235 -1.0425
  909MOL0     H22694   3.348   6.322   2.802  0.5705  1.2473 -0.2793
  909MOL0     H22695   3.469   6.357   3.032  0.6541 -0.8174 -0.5879
  909MOL0     H22696   3.499   6.189   3.026 -1.4000 -0.3931 -0.8656
  909MOL0     H22697   4.342   5.969   2.611 -4.0057  1.4952  1.4526
  909MOL0     H22698   4.545   5.785   2.599  1.5785  0.6964  2.8743
  909MOL0     H22699   4.727   5.483   2.591  0.5018 -0.5574  1.0322
  909MOL0     H22700   4.933   5.370   2.524  0.9441 -1.8572 -0.0821
  909MOL0     H22701   4.996   5.278   1.897 -0.1438 -1.0237 -1.0826
  909MOL0     H22702   5.063   5.269   1.646 -0.4277  0.0550 -1.9384
  909MOL0     H22703   4.924   5.033   1.255 -1.1475 -3.2695  0.3990
  909MOL0     H22704   4.959   5.071   1.016  0.0874  0.8530 -0.5078
  909MOL0     H22705   5.397   5.060   0.877 -0.8336 -2.8484  0.9189
  909MOL0     H22706   5.303   4.981   0.767  1.4932  0.3914 -0.6590
  909MOL0     H22707   5.222   5.181   0.656 -0.2576 -1.5308 -0.2642
  909MOL0     H22708   5.388   5.144   0.632 -1.3218 -1.4060  0.2196
  909MOL0     H22709   5.460   5.303   0.820  1.4001  1.0958 -0.3210
  909MOL0     H22710   5.290   5.345   0.849 -2.6162 -0.7277 -2.1316
  909MOL0     H22711   5.253   5.447   0.637  0.3711 -1.2009  0.2340
  909MOL0     H22712   5.405   5.417   0.572 -1.0813  1.7232 -1.0040
  909MOL0     H22713   5.443   5.748   0.850 -0.1116 -0.6001  0.8116
  909MOL0     H22714   5.384   5.087   1.079 -0.9259  2.4448 -1.2349
  909MOL0     H22715   5.354   5.036   1.307 -1.7362 -2.9039  1.1944
  910MOL0     O22716   4.731   0.445   4.667  0.6066  0.4127  0.6347
  910MOL0     C22717   4.618   0.481   4.705  0.1310 -0.7448 -0.8669
  910MOL0     O22718   4.557   0.612   4.699 -0.8711 -0.1586  0.7883
  910MOL0     C22719   4.642   0.712   4.654  0.6865  0.2262  0.3386
  910MOL0     C22720   4.622   0.834   4.718 -0.0062  0.0134  0.7058
  910MOL0     C22721   4.695   0.943   4.689  0.5241  0.3015 -0.4070
  910MOL0     C22722   4.785   0.944   4.592  0.1743  0.2226 -0.4730
  910MOL0     O22723   4.860   1.050   4.564 -0.1858 -0.1283  0.0791
  910MOL0     C22724   4.859   1.172   4.640  0.6881  0.8930  0.5707
  910MOL0     C22725   4.967   1.272   4.600  0.8220  0.7898 -0.7591
  910MOL0     C22726   5.107   1.241   4.647 -0.0218  0.1031  0.1953
  910MOL0     C22727   5.181   1.123   4.575  0.6532  0.0234  0.2967
  910MOL0     C22728   5.331   1.108   4.620  0.1425 -0.0416 -0.7978
  910MOL0     C22729   5.408   0.991   4.568  0.3102  0.2255  0.6278
  910MOL0     C22730   5.444   1.021   4.427  0.6718 -0.4267  0.5435
  910MOL0     C22731   5.548   1.128   4.414  0.3906  0.3100  0.6751
  910MOL0     N22732   5.675   1.093   4.338  0.9805  0.3108 -0.5271
  910MOL0     C22733   5.758   0.992   4.382 -0.5385  0.5497 -0.5685
  910MOL0     C22734   5.856   0.993   4.290  0.3795  0.4179 -0.0666
  910MOL0     C22735   5.965   0.894   4.303  0.3937  0.2867 -0.0818
  910MOL0     C22736   6.091   0.913   4.220 -0.2027 -0.0310  0.5651
  910MOL0     C22737   6.084   0.847   4.084 -0.9250 -1.0398  0.2022
  910MOL0     C22738   6.212   0.865   3.994 -0.3240 -0.0469 -0.3569
  910MOL0     O22739   6.247   1.011   3.991  0.4691 -0.1964 -0.2236
  910MOL0     C22740   6.324   1.059   3.892 -0.5725  0.7235 -0.6500
  910MOL0     C22741   6.364   0.987   3.785 -1.2722  0.1561  0.3518
  910MOL0     C22742   6.457   1.037   3.685 -1.2760 -0.3044 -0.8931
  910MOL0     C22743   6.485   0.944   3.574 -0.0806 -0.0283  0.3414
  910MOL0     C22744   6.509   1.167   3.690 -0.2561  0.1157 -1.0256
  910MOL0     C22745   6.599   1.232   3.587 -0.3391 -0.8029 -1.5851
  910MOL0     O22746   6.573   1.227   3.455 -0.1623 -0.1385  0.1665
  910MOL0     C22747   6.446   1.231   3.401 -0.4824 -0.0897  0.7791
  910MOL0     C22748   6.322   1.269   3.465  0.3262  0.6337  0.0411
  910MOL0     C22749   6.199   1.282   3.400 -0.3281 -0.8726  0.1125
  910MOL0     C22750   6.194   1.262   3.265  0.1373 -0.3473  0.3102
  910MOL0     O22751   6.076   1.265   3.210 -0.4115 -0.6379  0.2788
  910MOL0     C22752   6.063   1.285   3.069  1.0789  0.2826 -0.9625
  910MOL0     C22753   5.914   1.285   3.015 -0.2517 -0.1020 -1.0242
  910MOL0     C22754   5.815   1.352   3.112 -1.1641 -0.3594  0.0344
  910MOL0     C22755   5.693   1.386   3.024  0.1479 -0.1610 -0.1549
  910MOL0     C22756   5.602   1.489   3.089 -0.4482  0.8408  0.3298
  910MOL0     C22757   5.515   1.435   3.204  0.3538  0.7660 -0.2204
  910MOL0     C22758   5.422   1.545   3.259  0.6296  0.9430  0.4934
  910MOL0     C22759   5.319   1.502   3.356 -0.2382  0.2912 -0.4743
  910MOL0    Cl22760   5.212   1.635   3.396  0.0287 -0.0521  0.0333
  910MOL0     C22761   6.324   1.232   3.199  0.3742  0.1681  0.3541
  910MOL0     C22762   6.446   1.203   3.265  0.7703  0.2933 -0.0446
  910MOL0     O22763   6.701   1.283   3.633  0.2398 -0.1147  0.8400
  910MOL0     C22764   6.461   1.236   3.803  0.1005 -0.4154 -0.0290
  910MOL0     C22765   6.377   1.185   3.901  0.2002 -0.0327 -0.8448
  910MOL0     N22766   5.836   1.094   4.197 -0.3701 -0.5239  0.5011
  910MOL0     N22767   5.723   1.153   4.228 -0.1831  0.6243 -0.3541
  910MOL0     C22768   4.813   0.827   4.522  1.0243 -0.4755  0.0232
  910MOL0     C22769   4.744   0.708   4.551  0.6303  0.0883  0.0916
  910MOL0     C22770   4.540   0.381   4.783  0.5877 -0.1665 -0.1389
  910MOL0     C22771   4.572   0.246   4.773 -0.3816  0.0562 -0.5867
  910MOL0     C22772   4.495   0.162   4.864  0.1679  0.3926 -0.1812
  910MOL0     C22773   4.386   0.206   4.940 -0.4461  0.6184  0.4763
  910MOL0     O22774   4.286   0.130   5.005 -0.5689  0.0647  0.1607
  910MOL0     C22775   4.266  -0.013   4.984  0.6793 -0.0911 -0.8569
  910MOL0     C22776   4.223  -0.101   5.110 -0.6275 -0.5854  0.7031
  910MOL0     C22777   4.199  -0.246   5.053  0.3760  0.6062  0.1783
  910MOL0     C22778   4.063  -0.257   4.977 -0.0361  0.7824 -0.5893
  910MOL0     C22779   3.948  -0.239   5.060  0.0119 -0.2245 -0.2118
  910MOL0     C22780   3.848  -0.193   5.115 -0.5233  0.7350 -0.1834
  910MOL0     C22781   4.352   0.345   4.931 -0.1817  0.6752 -0.8886
  910MOL0     C22782   4.435   0.431   4.859  0.2248 -0.0468  0.6699
  910MOL0     H22783   4.547   0.842   4.796  0.3991 -3.4614  1.6178
  910MOL0     H22784   4.659   1.034   4.734 -0.2350  0.6731 -1.7110
  910MOL0     H22785   4.762   1.224   4.641  0.0136 -0.3394  1.7615
  910MOL0     H22786   4.888   1.160   4.745  1.6368 -4.7636 -0.0173
  910MOL0     H22787   4.962   1.269   4.491 -1.1625 -3.0054 -0.7272
  910MOL0     H22788   4.952   1.369   4.649 -0.3690  0.3016 -0.1181
  910MOL0     H22789   5.176   1.320   4.617  0.2802 -0.8629 -1.8679
  910MOL0     H22790   5.112   1.214   4.753  0.8842 -1.0238 -0.1080
  910MOL0     H22791   5.134   1.028   4.602  1.6041  0.0551  2.2882
  910MOL0     H22792   5.172   1.123   4.466 -0.2164  2.3137  0.3324
  910MOL0     H22793   5.388   1.199   4.600 -0.5541  0.3716 -0.9613
  910MOL0     H22794   5.327   1.103   4.729  0.7089 -1.6872 -0.8201
  910MOL0     H22795   5.502   0.992   4.624  0.7056  0.7552 -0.0269
  910MOL0     H22796   5.355   0.895   4.573  2.1106 -0.8017  1.0940
  910MOL0     H22797   5.484   0.926   4.389  2.1588  0.2476  0.3319
  910MOL0     H22798   5.348   1.024   4.375 -0.1490 -0.7450  1.9888
  910MOL0     H22799   5.583   1.162   4.512  1.1586 -0.1853  0.5850
  910MOL0     H22800   5.498   1.208   4.359  0.9028 -0.4303 -0.9120
  910MOL0     H22801   5.746   0.937   4.474 -0.0611  1.9016  0.3253
  910MOL0     H22802   6.002   0.884   4.405  1.4803  0.0867 -0.4787
  910MOL0     H22803   5.924   0.795   4.277  0.8970  0.9618 -4.2213
  910MOL0     H22804   6.173   0.878   4.283 -0.3780  0.1866  0.9145
  910MOL0     H22805   6.112   1.018   4.199  2.8782 -1.0709 -2.6779
  910MOL0     H22806   5.998   0.873   4.021  1.0129 -1.5630 -2.8847
  910MOL0     H22807   6.088   0.739   4.094  1.1825 -1.3099 -2.5633
  910MOL0     H22808   6.190   0.833   3.892 -0.1492 -0.2443 -0.3327
  910MOL0     H22809   6.300   0.812   4.032  0.7931  1.4752 -0.7108
  910MOL0     H22810   6.313   0.897   3.753 -0.3456  0.2322 -1.4141
  910MOL0     H22811   6.563   0.881   3.617 -0.7943  0.7374  2.9710
  910MOL0     H22812   6.403   0.876   3.550 -0.2443  0.8850 -1.9038
  910MOL0     H22813   6.511   0.993   3.480  3.1505  0.8469  1.5665
  910MOL0     H22814   6.329   1.294   3.570  1.9832 -0.7897  0.3229
  910MOL0     H22815   6.104   1.307   3.446  0.5877  3.4895  0.1502
  910MOL0     H22816   6.095   1.384   3.035 -1.7650  1.1714 -1.3316
  910MOL0     H22817   6.107   1.204   3.010 -1.1453 -1.4442 -0.3921
  910MOL0     H22818   5.924   1.330   2.916 -1.9297 -3.0833 -2.7257
  910MOL0     H22819   5.878   1.185   2.990  1.8577 -1.4436  0.9055
  910MOL0     H22820   5.850   1.451   3.141 -1.3889  0.4223 -2.1379
  910MOL0     H22821   5.791   1.287   3.196 -1.6357  0.7924  0.8112
  910MOL0     H22822   5.733   1.440   2.938 -2.2201  1.1213 -0.5390
  910MOL0     H22823   5.630   1.301   2.996 -0.4395  0.3839 -0.5073
  910MOL0     H22824   5.547   1.522   3.001 -0.9160  1.6718  0.9286
  910MOL0     H22825   5.667   1.574   3.110  0.0851  0.3318  0.7856
  910MOL0     H22826   5.462   1.342   3.181 -0.9014  1.0662  1.2780
  910MOL0     H22827   5.569   1.400   3.292 -1.9061 -0.3389  0.8236
  910MOL0     H22828   5.385   1.590   3.167  1.8188 -1.5163 -1.3260
  910MOL0     H22829   5.473   1.626   3.312  2.5585 -0.2015  0.4892
  910MOL0     H22830   5.364   1.456   3.445 -1.7529 -4.2691 -1.7633
  910MOL0     H22831   5.262   1.418   3.315  0.8646 -0.8800  0.2712
  910MOL0     H22832   6.332   1.211   3.093  0.5589 -1.7361  0.6997
  910MOL0     H22833   6.533   1.162   3.215 -0.5613 -3.2757  0.2531
  910MOL0     H22834   6.485   1.341   3.815  2.7840 -0.6318 -2.2958
  910MOL0     H22835   6.340   1.254   3.976 -0.6925 -0.4572 -0.8825
  910MOL0     H22836   4.863   0.830   4.425 -0.0467  2.5034 -0.5635
  910MOL0     H22837   4.756   0.624   4.482  0.0961 -1.5968  1.9480
  910MOL0     H22838   4.649   0.194   4.717 -0.8517  0.6377 -1.8080
  910MOL0     H22839   4.512   0.054   4.860 -1.2455  0.0615  1.5861
  910MOL0     H22840   4.194  -0.027   4.904 -0.5668 -1.0552  0.3910
  910MOL0     H22841   4.352  -0.065   4.940  0.0875 -2.4706  0.5870
  910MOL0     H22842   4.132  -0.059   5.154 -1.3099 -1.7723  0.4534
  910MOL0     H22843   4.300  -0.101   5.188 -1.8425  0.1695  1.9580
  910MOL0     H22844   4.206  -0.321   5.133  2.4317 -1.6567 -1.9199
  910MOL0     H22845   4.272  -0.281   4.979 -0.7489 -1.0371 -0.2083
  910MOL0     H22846   4.057  -0.353   4.925 -2.5033  0.9416 -0.7276
  910MOL0     H22847   4.063  -0.190   4.890 -0.9203 -1.2250 -2.2221
  910MOL0     H22848   3.759  -0.154   5.160  0.7086  1.6911  1.5511
  910MOL0     H22849   4.267   0.391   4.980 -0.2243 -0.8710  0.5685
  910MOL0     H22850   4.418   0.537   4.872 -0.3202 -0.1957  1.1701
  911MOL0     O22851   1.292   5.817   0.356 -0.1342 -0.6633  0.0849
  911MOL0     C22852   1.230   5.853   0.452  1.1764 -1.1823 -0.3175
  911MOL0     O22853   1.186   5.770   0.558  0.8182 -0.1168  0.1272
  911MOL0     C22854   1.182   5.632   0.565 -0.3588 -0.0305 -0.4246
  911MOL0     C22855   1.169   5.578   0.694 -0.1503  0.2754  0.0204
  911MOL0     C22856   1.184   5.438   0.711 -0.5081 -1.0620  1.0557
  911MOL0     C22857   1.199   5.349   0.606  0.7059 -1.1895  0.9245
  911MOL0     O22858   1.200   5.217   0.641  0.3359  0.8749 -0.6348
  911MOL0     C22859   1.238   5.109   0.554  0.4651  0.1529 -0.0896
  911MOL0     C22860   1.108   5.044   0.501  0.1299 -0.0892  0.3051
  911MOL0     C22861   1.128   4.924   0.404  0.3733  0.0048 -0.4595
  911MOL0     C22862   0.997   4.847   0.395 -0.1979  0.2231  0.6323
  911MOL0     C22863   1.019   4.714   0.318 -0.3295 -0.9412 -0.3670
  911MOL0     C22864   0.903   4.617   0.303  0.3352 -0.4172 -0.1640
  911MOL0     C22865   0.962   4.490   0.226 -0.6664  0.1090  0.1488
  911MOL0     C22866   0.859   4.379   0.188  0.7450 -1.0504  0.0174
  911MOL0     N22867   0.766   4.353   0.298  0.2627 -0.0447 -0.2949
  911MOL0     C22868   0.803   4.293   0.415 -0.1514  0.3152 -0.4894
  911MOL0     C22869   0.691   4.264   0.484  0.5743  0.8325 -0.6955
  911MOL0     C22870   0.693   4.183   0.620 -0.5188  0.3924  0.3483
  911MOL0     C22871   0.647   4.264   0.749  0.1140 -0.0163 -0.7763
  911MOL0     C22872   0.629   4.163   0.873 -0.4707 -0.2991  0.5640
  911MOL0     C22873   0.741   4.146   0.963  0.0335 -0.0232 -0.5538
  911MOL0     O22874   0.837   4.086   0.895  1.0034 -0.2315  0.5434
  911MOL0     C22875   0.961   4.073   0.928 -0.8269  0.7025 -0.2058
  911MOL0     C22876   1.020   4.112   1.052  0.6381 -0.5039  0.2309
  911MOL0     C22877   1.154   4.079   1.083  0.1203 -0.1402  0.1707
  911MOL0     C22878   1.210   4.139   1.212 -0.3629  0.1504  0.3040
  911MOL0     C22879   1.221   3.988   0.994 -0.2017  0.3283  0.0470
  911MOL0     C22880   1.348   3.926   1.033 -0.8310  0.3086  0.5740
  911MOL0     O22881   1.436   3.886   0.937 -0.1846  0.1795 -0.0093
  911MOL0     C22882   1.556   3.854   0.998 -0.2811 -0.1495 -0.5939
  911MOL0     C22883   1.591   3.720   1.019 -0.5571 -0.3324 -0.0876
  911MOL0     C22884   1.714   3.685   1.087  0.3848 -0.3293  0.7148
  911MOL0     C22885   1.813   3.789   1.117  0.2727 -0.1706 -0.7170
  911MOL0     O22886   1.927   3.739   1.174 -0.3310  0.2536 -0.1165
  911MOL0     C22887   1.986   3.806   1.288 -0.1280 -0.9960  0.7749
  911MOL0     C22888   1.886   3.812   1.402 -0.5072 -0.2362 -0.2817
  911MOL0     C22889   1.974   3.853   1.517 -0.5313 -0.1999  0.1655
  911MOL0     C22890   2.047   3.729   1.591  0.7450 -0.0007  0.2439
  911MOL0     C22891   2.115   3.759   1.728 -1.0084  0.7253 -0.2511
  911MOL0     C22892   2.088   3.651   1.836  0.2458 -0.6114 -0.4403
  911MOL0     C22893   2.176   3.665   1.958 -0.8133  0.0481  0.0114
  911MOL0     C22894   2.172   3.804   2.015 -0.7314  0.1260  0.0951
  911MOL0    Cl22895   2.011   3.882   2.012 -0.2119  0.2573 -0.4123
  911MOL0     C22896   1.783   3.916   1.088 -0.2327  0.3000 -0.4897
  911MOL0     C22897   1.651   3.952   1.035 -0.0385  1.0766 -0.1041
  911MOL0     O22898   1.360   3.908   1.150 -0.0938 -0.2435  0.0659
  911MOL0     C22899   1.163   3.957   0.868  0.1803  0.5724 -0.0938
  911MOL0     C22900   1.035   3.987   0.842 -0.5189 -1.1166  0.3384
  911MOL0     N22901   0.587   4.320   0.416  0.0485 -0.3897 -0.5326
  911MOL0     N22902   0.634   4.377   0.306  0.7713 -0.3099 -0.5094
  911MOL0     C22903   1.216   5.401   0.476 -0.2788  0.4681  0.6243
  911MOL0     C22904   1.206   5.544   0.455 -0.4532 -0.3591 -1.5655
  911MOL0     C22905   1.194   5.995   0.454  0.2869  0.1580  0.1589
  911MOL0     C22906   1.262   6.092   0.372 -0.2992  0.0202 -0.3657
  911MOL0     C22907   1.219   6.222   0.375  1.1860 -0.0093  0.4908
  911MOL0     C22908   1.112   6.273   0.458  0.5942  1.6738  0.6664
  911MOL0     O22909   1.052   6.390   0.449  0.2035  0.0937  0.5580
  911MOL0     C22910   1.123   6.492   0.380  0.6044 -0.1596 -0.2029
  911MOL0     C22911   1.016   6.608   0.344 -0.9674  0.8216 -0.2039
  911MOL0     C22912   0.973   6.683   0.471  1.5145  0.5185  0.7099
  911MOL0     C22913   0.858   6.777   0.433  0.0521 -0.4536  0.1906
  911MOL0     C22914   0.907   6.894   0.360  0.0323  0.4192 -0.2662
  911MOL0     C22915   0.951   6.995   0.313  0.9835  0.3149 -0.8142
  911MOL0     C22916   1.053   6.173   0.546  0.0177 -0.5911 -0.2913
  911MOL0     C22917   1.105   6.043   0.546  0.6660  0.5324 -0.8027
  911MOL0     H22918   1.168   5.628   0.791  1.3600 -2.1785  1.4184
  911MOL0     H22919   1.204   5.401   0.811 -1.4145 -3.7021  0.3482
  911MOL0     H22920   1.296   5.149   0.470  0.9998 -0.4747 -0.0260
  911MOL0     H22921   1.294   5.033   0.609  0.1473 -1.2341 -1.5839
  911MOL0     H22922   1.048   5.022   0.589  2.7952 -0.8756  2.0557
  911MOL0     H22923   1.051   5.124   0.453 -0.0805 -0.8915 -0.8286
  911MOL0     H22924   1.156   4.947   0.300 -1.5007 -0.1894 -1.0401
  911MOL0     H22925   1.205   4.861   0.449 -1.8496 -0.1768  3.4613
  911MOL0     H22926   0.961   4.809   0.490 -4.0924  2.9620  0.4632
  911MOL0     H22927   0.918   4.908   0.351  0.0837 -0.6775 -1.2581
  911MOL0     H22928   1.034   4.742   0.213 -0.1040 -0.4131 -0.2013
  911MOL0     H22929   1.105   4.665   0.364 -1.5626 -1.7857  1.0939
  911MOL0     H22930   0.863   4.595   0.402  2.3808 -0.4664  0.7067
  911MOL0     H22931   0.821   4.651   0.238  1.0135 -2.7638 -2.4422
  911MOL0     H22932   1.012   4.506   0.129 -0.0303 -0.0630  0.4401
  911MOL0     H22933   1.029   4.434   0.292 -1.8175  0.0385  1.2904
  911MOL0     H22934   0.917   4.292   0.158  1.7784 -0.3799  0.0050
  911MOL0     H22935   0.797   4.408   0.103 -0.6211 -1.0138  0.9876
  911MOL0     H22936   0.899   4.251   0.442  0.3656  1.2350 -0.8132
  911MOL0     H22937   0.626   4.099   0.600  1.2152 -0.9926  0.1348
  911MOL0     H22938   0.797   4.151   0.630 -0.4690  0.3655 -0.2296
  911MOL0     H22939   0.548   4.309   0.733 -0.5797 -1.0259  0.5217
  911MOL0     H22940   0.725   4.335   0.776  0.0386  0.2236 -1.1725
  911MOL0     H22941   0.589   4.066   0.842 -0.2850 -0.6658  1.4509
  911MOL0     H22942   0.553   4.211   0.934 -0.2856 -1.2761  1.5858
  911MOL0     H22943   0.719   4.070   1.039 -2.1315 -0.6082 -1.6744
  911MOL0     H22944   0.770   4.247   0.994  1.6024 -1.0597  1.5813
  911MOL0     H22945   0.960   4.172   1.120 -2.0631 -1.0134 -1.5001
  911MOL0     H22946   1.303   4.192   1.193  0.8702 -2.0374 -0.0923
  911MOL0     H22947   1.140   4.196   1.274 -0.4202 -2.5268  2.9643
  911MOL0     H22948   1.240   4.064   1.286 -2.7478 -0.4727  0.7297
  911MOL0     H22949   1.502   3.658   1.009 -2.1867  2.0434 -1.4923
  911MOL0     H22950   1.726   3.578   1.107 -0.5607 -0.3147  1.4348
  911MOL0     H22951   2.074   3.746   1.311  0.8399 -0.7273 -1.8834
  911MOL0     H22952   2.014   3.910   1.272  0.0516 -0.7958  2.3307
  911MOL0     H22953   1.813   3.885   1.367 -0.0063 -0.2202 -1.3604
  911MOL0     H22954   1.841   3.715   1.427 -2.4944  0.4426 -1.0281
  911MOL0     H22955   1.912   3.901   1.594  1.5188  0.8855  1.2325
  911MOL0     H22956   2.043   3.935   1.496  1.7689 -2.1469 -0.2197
  911MOL0     H22957   1.974   3.647   1.600  1.5111 -0.9549 -1.5667
  911MOL0     H22958   2.128   3.698   1.524 -0.6627 -1.5601 -0.8238
  911MOL0     H22959   2.076   3.855   1.763  0.7773  0.6149  2.3122
  911MOL0     H22960   2.224   3.760   1.717 -0.4143 -0.4202  3.9309
  911MOL0     H22961   1.983   3.661   1.867  1.6436 -0.0610  5.0979
  911MOL0     H22962   2.110   3.550   1.801  2.4952 -0.2492 -0.1782
  911MOL0     H22963   2.279   3.634   1.937 -0.6221 -1.1104  2.3542
  911MOL0     H22964   2.140   3.590   2.029 -0.6916 -0.1255 -0.1120
  911MOL0     H22965   2.245   3.860   1.955  1.1206  0.5396  2.5451
  911MOL0     H22966   2.199   3.789   2.121 -1.9716 -1.0105  0.2708
  911MOL0     H22967   1.851   3.994   1.124 -0.8063  1.0106 -0.9090
  911MOL0     H22968   1.627   4.052   1.001 -4.1139  0.6114  0.9112
  911MOL0     H22969   1.218   3.894   0.799 -0.3986  2.2633 -2.1916
  911MOL0     H22970   0.988   3.948   0.752  0.5574 -2.7918  0.4534
  911MOL0     H22971   1.238   5.336   0.391 -0.9093  0.5292  0.4051
  911MOL0     H22972   1.216   5.589   0.356  1.5295  3.1718  0.0207
  911MOL0     H22973   1.349   6.064   0.313  1.4380 -0.6752  2.3202
  911MOL0     H22974   1.281   6.290   0.318 -2.7549  3.4480 -0.1074
  911MOL0     H22975   1.206   6.523   0.444  2.0412  0.7117 -2.3702
  911MOL0     H22976   1.159   6.451   0.285 -3.0739  1.6554 -2.5978
  911MOL0     H22977   0.929   6.570   0.289  0.3017 -0.8581 -1.1556
  911MOL0     H22978   1.065   6.680   0.278 -0.9754  1.3846  0.3963
  911MOL0     H22979   1.062   6.728   0.517  3.0146 -1.8749  0.3215
  911MOL0     H22980   0.946   6.604   0.541  1.9543  1.8443  2.4510
  911MOL0     H22981   0.802   6.807   0.522 -1.0626  1.0163 -0.9472
  911MOL0     H22982   0.790   6.712   0.376  0.0379  0.3535 -0.7472
  911MOL0     H22983   1.012   7.071   0.269 -0.2120  1.7844 -0.0467
  911MOL0     H22984   0.980   6.223   0.610  0.9669 -1.2839  1.3838
  911MOL0     H22985   1.067   5.981   0.626  2.3273  5.1037  4.1383
  912MOL0     O22986  11.142   3.985   4.314 -0.3072  0.0417 -0.5285
  912MOL0     C22987  11.148   4.063   4.215 -0.2597 -0.3677  0.4544
  912MOL0     O22988  11.137   4.200   4.214  0.3999 -0.1490 -0.5272
  912MOL0     C22989  11.109   4.265   4.336  0.8604  0.3683 -0.2197
  912MOL0     C22990  10.997   4.352   4.335  0.2700 -0.1646  0.0504
  912MOL0     C22991  10.977   4.431   4.453  0.8529 -0.0761 -0.7161
  912MOL0     C22992  11.059   4.426   4.566 -0.6498  1.0507  0.0293
  912MOL0     O22993  11.036   4.487   4.687 -0.1039 -0.1985 -0.1127
  912MOL0     C22994  10.932   4.590   4.702  0.1763 -0.0422 -0.5931
  912MOL0     C22995  10.930   4.618   4.841  0.3109 -0.0524 -0.3254
  912MOL0     C22996  11.049   4.704   4.882  0.3027 -0.0117 -0.1578
  912MOL0     C22997  11.030   4.765   5.022 -0.6768  0.6635 -0.2875
  912MOL0     C22998  11.163   4.794   5.096  0.1442  0.2432  0.5648
  912MOL0     C22999  11.249   4.902   5.022  0.1555  0.7075 -0.9147
  912MOL0     C23000  11.389   4.929   5.080 -0.8829  0.0621  0.1491
  912MOL0     C23001  11.379   5.056   5.156 -0.1979 -0.4099 -0.8407
  912MOL0     N23002  11.488   5.047   5.262 -0.2074 -0.1908 -0.3250
  912MOL0     C23003  11.621   5.023   5.251  0.1313  1.0335 -0.0326
  912MOL0     C23004  11.664   5.001   5.373  1.2393 -0.9399  0.7870
  912MOL0     C23005  11.802   4.985   5.410  0.3424  0.1978  0.3756
  912MOL0     C23006  11.851   4.838   5.421  0.1338  0.4018  0.1680
  912MOL0     C23007  11.860   4.782   5.277  0.0566  0.7614 -0.1966
  912MOL0     C23008  11.949   4.839   5.167 -0.0908 -0.5321  0.4724
  912MOL0     O23009  11.978   4.756   5.048 -0.0844 -0.0289 -0.2440
  912MOL0     C23010  11.868   4.751   4.960  1.1513  0.7779 -1.0474
  912MOL0     C23011  11.782   4.642   4.968 -0.2336 -0.0663  0.2380
  912MOL0     C23012  11.673   4.633   4.879  0.6967  0.2294  1.1709
  912MOL0     C23013  11.574   4.516   4.903  0.1181 -0.1528 -0.1872
  912MOL0     C23014  11.669   4.715   4.765  1.1391  0.0610  0.7974
  912MOL0     C23015  11.559   4.706   4.664  0.2676  0.3529 -0.9329
  912MOL0     O23016  11.520   4.825   4.606  0.2345 -0.5747  0.4869
  912MOL0     C23017  11.414   4.817   4.525 -0.7102 -0.4022 -0.1619
  912MOL0     C23018  11.302   4.742   4.546 -0.4682  0.6115  0.4376
  912MOL0     C23019  11.194   4.741   4.458 -0.1777  0.4991 -0.4407
  912MOL0     C23020  11.197   4.819   4.338  0.6065 -0.6483 -0.5619
  912MOL0     O23021  11.097   4.820   4.246 -0.0732  0.3550  0.5243
  912MOL0     C23022  11.140   4.807   4.108 -0.4665  0.4769  0.1536
  912MOL0     C23023  11.066   4.685   4.055 -0.8366  1.1225 -0.4205
  912MOL0     C23024  11.080   4.678   3.897  0.3184  0.4336  0.1773
  912MOL0     C23025  10.994   4.567   3.845 -0.0682  0.4411 -0.5837
  912MOL0     C23026  11.027   4.538   3.696 -0.2389  0.3472  0.1161
  912MOL0     C23027  10.948   4.425   3.631 -0.2604 -0.4092  0.4668
  912MOL0     C23028  10.983   4.417   3.486 -0.1873 -0.1778 -0.4488
  912MOL0     C23029  10.927   4.296   3.408  0.7528 -0.0592  0.0332
  912MOL0    Cl23030  10.761   4.338   3.404 -0.1418  0.0519  0.0456
  912MOL0     C23031  11.309   4.911   4.324  0.7499 -0.0679 -0.0177
  912MOL0     C23032  11.414   4.903   4.414 -0.1089 -0.2417  0.2624
  912MOL0     O23033  11.537   4.594   4.623  0.7522  0.0820 -0.4058
  912MOL0     C23034  11.753   4.822   4.757  0.9916  0.6822  0.1411
  912MOL0     C23035  11.851   4.841   4.860 -0.6441  0.8330 -0.4394
  912MOL0     N23036  11.559   5.019   5.457 -0.6986 -0.2217 -0.2322
  912MOL0     N23037  11.451   5.035   5.384 -0.4133 -0.0148  0.1020
  912MOL0     C23038  11.174   4.340   4.558 -0.6884 -0.6806 -0.2449
  912MOL0     C23039  11.195   4.263   4.444 -0.0840  0.1544  0.4590
  912MOL0     C23040  11.193   4.006   4.087  0.3183 -0.2213 -0.3057
  912MOL0     C23041  11.179   4.086   3.971 -0.1539 -0.3648  0.3353
  912MOL0     C23042  11.212   4.033   3.846 -0.3913 -0.0193  0.2895
  912MOL0     C23043  11.275   3.910   3.837 -0.1229  0.4572 -0.4234
  912MOL0     O23044  11.303   3.874   3.713  0.4982 -0.1765 -1.2665
  912MOL0     C23045  11.248   3.751   3.683  0.1641  0.1462  0.6196
  912MOL0     C23046  11.189   3.752   3.530 -0.0462  0.6130 -0.1919
  912MOL0     C23047  11.039   3.773   3.531  0.8220 -0.3527  0.0526
  912MOL0     C23048  10.973   3.799   3.396  0.2139  0.1644 -0.4367
  912MOL0     C23049  11.054   3.884   3.307  0.3286 -0.3149 -0.1107
  912MOL0     C23050  11.103   3.954   3.224 -0.2111  0.3466 -0.2558
  912MOL0     C23051  11.275   3.821   3.950 -0.2328 -0.0315  0.2838
  912MOL0     C23052  11.246   3.868   4.081 -0.5643 -0.2618  0.2417
  912MOL0     H23053  10.921   4.351   4.258  0.1463 -0.9865  0.1748
  912MOL0     H23054  10.881   4.479   4.468  0.6032 -1.1624  1.4126
  912MOL0     H23055  10.955   4.681   4.646  0.7071  1.6892  2.2325
  912MOL0     H23056  10.840   4.544   4.663  0.0966 -0.6683  0.3022
  912MOL0     H23057  10.837   4.668   4.870  1.0286  0.7093  0.7780
  912MOL0     H23058  10.915   4.531   4.907 -2.0367 -1.9479 -3.1120
  912MOL0     H23059  11.141   4.644   4.877  1.5646  1.8433 -0.3799
  912MOL0     H23060  11.077   4.790   4.820  1.1400  1.6607  2.3636
  912MOL0     H23061  10.981   4.862   5.014  1.1929  1.7457  0.6491
  912MOL0     H23062  10.975   4.693   5.083  2.2605 -0.1108  1.6597
  912MOL0     H23063  11.138   4.825   5.197 -4.1203 -0.0251 -0.2109
  912MOL0     H23064  11.220   4.703   5.119 -0.4147 -0.3516 -0.3371
  912MOL0     H23065  11.267   4.865   4.921 -1.1069 -1.1165 -0.5415
  912MOL0     H23066  11.186   4.991   5.009 -0.7212  0.2389 -0.0566
  912MOL0     H23067  11.421   4.843   5.140 -1.6475 -0.3355 -0.0100
  912MOL0     H23068  11.465   4.948   5.004  0.7529  0.0561  1.6946
  912MOL0     H23069  11.285   5.074   5.208  0.6233  4.3384 -0.5569
  912MOL0     H23070  11.405   5.143   5.096 -2.4913  1.5892  0.8847
  912MOL0     H23071  11.680   5.021   5.160  0.6366 -3.8170  0.1302
  912MOL0     H23072  11.873   5.037   5.345 -0.9390  1.0867 -0.3571
  912MOL0     H23073  11.815   5.015   5.514  3.5897 -1.5890  0.6065
  912MOL0     H23074  11.777   4.783   5.481 -0.0379  2.3633  1.8782
  912MOL0     H23075  11.950   4.828   5.467  0.0199 -1.3685  0.0881
  912MOL0     H23076  11.761   4.773   5.230 -0.3270 -1.8320  0.9228
  912MOL0     H23077  11.900   4.682   5.295  0.1867  0.8509  0.0194
  912MOL0     H23078  12.047   4.871   5.205 -0.7429 -0.5121  2.2618
  912MOL0     H23079  11.899   4.932   5.138 -1.9877 -1.4552  0.5819
  912MOL0     H23080  11.790   4.570   5.049 -3.6715 -0.6672  0.1653
  912MOL0     H23081  11.618   4.424   4.864  0.6368  0.4699 -1.1054
  912MOL0     H23082  11.541   4.500   5.006 -0.3027 -0.9035 -0.4356
  912MOL0     H23083  11.479   4.536   4.851 -0.7164  0.7408  1.5879
  912MOL0     H23084  11.280   4.680   4.632 -2.6190  1.6183  0.6851
  912MOL0     H23085  11.114   4.671   4.484 -0.5180  1.3880  1.0275
  912MOL0     H23086  11.105   4.895   4.052 -1.0199  0.2756  0.1770
  912MOL0     H23087  11.247   4.783   4.106  0.2043  3.1782 -0.2299
  912MOL0     H23088  11.115   4.595   4.094 -0.7142 -0.6802 -4.2064
  912MOL0     H23089  10.960   4.695   4.078 -1.5911 -2.4874 -1.7442
  912MOL0     H23090  11.186   4.669   3.869  0.7864 -2.7433  2.4292
  912MOL0     H23091  11.044   4.763   3.838  1.0633 -0.4418 -1.6278
  912MOL0     H23092  11.007   4.477   3.905 -3.3197  0.0887 -0.2674
  912MOL0     H23093  10.887   4.588   3.853 -0.0969  0.0470  0.1223
  912MOL0     H23094  11.136   4.529   3.696 -0.3069 -1.2619 -2.0280
  912MOL0     H23095  11.001   4.626   3.636 -0.7085  0.8100  0.9680
  912MOL0     H23096  10.960   4.324   3.671 -1.6784 -0.8157 -0.0886
  912MOL0     H23097  10.843   4.455   3.632  0.1131  1.0390 -0.2877
  912MOL0     H23098  11.089   4.441   3.477 -0.8157  3.3141 -0.2543
  912MOL0     H23099  10.943   4.504   3.432  2.6448  0.6088 -1.4363
  912MOL0     H23100  10.947   4.203   3.462  0.5013  0.2412  0.6544
  912MOL0     H23101  10.961   4.302   3.304  0.2393  0.0538 -0.1321
  912MOL0     H23102  11.320   4.972   4.236  1.5641  1.4719  1.1075
  912MOL0     H23103  11.502   4.965   4.398  0.9133 -1.5321  0.7457
  912MOL0     H23104  11.748   4.895   4.677  0.5410  0.2304 -0.2525
  912MOL0     H23105  11.926   4.919   4.860  0.9322 -0.4345  3.8050
  912MOL0     H23106  11.250   4.339   4.636 -0.0630 -3.3440 -0.7887
  912MOL0     H23107  11.281   4.196   4.447 -0.2889 -0.2795 -1.5084
  912MOL0     H23108  11.129   4.182   3.973  0.4691  0.0635 -1.9892
  912MOL0     H23109  11.195   4.078   3.749 -1.2024  0.6146  0.7180
  912MOL0     H23110  11.325   3.674   3.687  0.3006  0.1124 -1.3647
  912MOL0     H23111  11.168   3.718   3.749  1.0421 -3.0452  0.2724
  912MOL0     H23112  11.207   3.653   3.487  1.3819  1.5683 -1.9264
  912MOL0     H23113  11.244   3.824   3.469 -0.4928  1.2771  0.1700
  912MOL0     H23114  11.024   3.870   3.577 -1.6178 -0.4620 -0.4173
  912MOL0     H23115  10.981   3.697   3.583 -2.5539  1.0810 -1.3715
  912MOL0     H23116  10.874   3.843   3.406 -0.5558 -1.9736  4.1797
  912MOL0     H23117  10.955   3.700   3.352  0.8443  1.5644 -4.1236
  912MOL0     H23118  11.149   4.018   3.152  2.6409  0.9786  1.9237
  912MOL0     H23119  11.312   3.719   3.943  5.1048  1.6135  0.2561
  912MOL0     H23120  11.243   3.795   4.162 -1.9082 -1.0973 -0.5310
  913MOL0     O23121   8.621  11.155   9.752  0.5194 -0.2547 -0.3857
  913MOL0     C23122   8.599  11.274   9.725 -0.2589  1.1596 -0.5207
  913MOL0     O23123   8.667  11.376   9.778  0.2194  0.4266  0.5394
  913MOL0     C23124   8.782  11.350   9.842 -0.2353 -1.1612  0.0515
  913MOL0     C23125   8.898  11.414   9.789 -0.5793 -1.4579  0.2553
  913MOL0     C23126   9.026  11.401   9.849 -0.0811  0.4524 -0.5612
  913MOL0     C23127   9.051  11.325   9.963  0.4026 -0.6480  0.8572
  913MOL0     O23128   9.171  11.304  10.022 -0.1303  0.0368 -0.4994
  913MOL0     C23129   9.270  11.413  10.023 -0.2646 -0.3404 -0.2305
  913MOL0     C23130   9.380  11.374  10.114 -0.5937  0.2181 -0.2910
  913MOL0     C23131   9.344  11.363  10.255 -0.1573 -0.5542  0.0621
  913MOL0     C23132   9.470  11.370  10.336  0.1095  0.1800 -1.0034
  913MOL0     C23133   9.459  11.317  10.483  0.3474 -0.2667 -0.1903
  913MOL0     C23134   9.445  11.434  10.584  0.2064  0.4088  0.2121
  913MOL0     C23135   9.429  11.396  10.735 -0.5056 -0.6735 -0.1102
  913MOL0     C23136   9.515  11.497  10.829  0.0845  0.0267  0.2867
  913MOL0     N23137   9.468  11.500  10.972 -0.4283  1.0038 -0.1346
  913MOL0     C23138   9.406  11.607  11.032  0.8064  0.5953 -0.2063
  913MOL0     C23139   9.417  11.582  11.165  0.0238  0.6819  1.0154
  913MOL0     C23140   9.382  11.673  11.275  0.4191 -0.8433 -0.0269
  913MOL0     C23141   9.489  11.787  11.310  0.7358  0.7181 -0.7027
  913MOL0     C23142   9.507  11.885  11.189 -0.3651 -0.8882  0.9977
  913MOL0     C23143   9.630  11.842  11.113 -0.5789 -0.0848  0.9020
  913MOL0     O23144   9.655  11.923  11.002 -0.1468 -0.4262  0.3088
  913MOL0     C23145   9.784  11.988  10.984  1.1025 -0.2145  0.3522
  913MOL0     C23146   9.865  12.041  11.080  0.0807 -0.3018 -0.4632
  913MOL0     C23147   9.990  12.108  11.042 -0.3371  0.5487 -1.4942
  913MOL0     C23148  10.081  12.157  11.150 -0.2925 -0.5794 -0.5386
  913MOL0     C23149  10.021  12.114  10.896  0.3997 -0.4163 -0.4836
  913MOL0     C23150  10.145  12.176  10.840  0.5487 -0.8822  0.9853
  913MOL0     O23151  10.184  12.148  10.711  0.2978 -0.1681  0.3182
  913MOL0     C23152  10.299  12.214  10.671  0.3900 -0.4978  0.0157
  913MOL0     C23153  10.293  12.346  10.619  0.4549  0.5613 -0.8372
  913MOL0     C23154  10.403  12.417  10.573  0.5538  0.1180 -0.0281
  913MOL0     C23155  10.525  12.349  10.570  0.2866  0.2838 -0.0108
  913MOL0     O23156  10.624  12.417  10.515 -0.5699  0.1260 -0.0415
  913MOL0     C23157  10.745  12.350  10.531  0.0346 -0.5697 -0.2402
  913MOL0     C23158  10.858  12.444  10.504 -0.3992  0.7345 -0.3727
  913MOL0     C23159  11.002  12.383  10.513 -0.3668 -0.6129  0.3916
  913MOL0     C23160  11.107  12.486  10.471 -0.0563 -0.8635  0.8058
  913MOL0     C23161  11.251  12.428  10.491  0.3044  0.1802 -0.6395
  913MOL0     C23162  11.362  12.478  10.404 -0.2611 -0.6052  0.3388
  913MOL0     C23163  11.501  12.463  10.454 -0.7176  0.7127  0.0596
  913MOL0     C23164  11.531  12.313  10.475 -0.2078 -0.1965 -0.5355
  913MOL0    Cl23165  11.709  12.299  10.484  0.2223 -0.4226 -0.1165
  913MOL0     C23166  10.533  12.209  10.610  0.6140  0.6883  0.3656
  913MOL0     C23167  10.421  12.148  10.666  0.1662  1.5047  0.3735
  913MOL0     O23168  10.197  12.258  10.913 -0.6067 -0.3091 -1.1530
  913MOL0     C23169   9.937  12.049  10.808  0.4682 -0.3489 -0.0685
  913MOL0     C23170   9.818  11.982  10.841  0.8674  0.1355  0.7499
  913MOL0     N23171   9.495  11.463  11.178  0.3507 -0.7544 -0.2114
  913MOL0     N23172   9.516  11.413  11.063  0.0107 -0.7694  0.2188
  913MOL0     C23173   8.933  11.262  10.012 -1.1115  0.8097 -0.3391
  913MOL0     C23174   8.803  11.280   9.958 -0.6853 -0.0920 -0.7770
  913MOL0     C23175   8.478  11.306   9.642  0.2447  0.1771  0.6954
  913MOL0     C23176   8.400  11.204   9.583 -0.1233 -0.2729 -0.0198
  913MOL0     C23177   8.284  11.234   9.508 -0.3846  0.2130  0.6787
  913MOL0     C23178   8.243  11.368   9.496 -0.2289  0.4985  1.2337
  913MOL0     O23179   8.125  11.382   9.418 -1.1337 -0.2448  0.4824
  913MOL0     C23180   8.100  11.514   9.372 -0.2056 -1.1589  0.0180
  913MOL0     C23181   7.981  11.512   9.284 -1.1266  0.0940  0.2618
  913MOL0     C23182   7.860  11.444   9.354 -0.5759  0.4852 -0.1573
  913MOL0     C23183   7.730  11.455   9.262  0.3400  0.1196  0.3826
  913MOL0     C23184   7.633  11.342   9.301  0.5900  0.1448  0.6908
  913MOL0     C23185   7.582  11.231   9.320  0.1518  0.1176 -0.6663
  913MOL0     C23186   8.316  11.476   9.547  0.0084 -0.4577  0.6258
  913MOL0     C23187   8.432  11.437   9.617 -0.6944 -1.2955 -0.5830
  913MOL0     H23188   8.891  11.479   9.702  0.9612 -0.0385  1.1333
  913MOL0     H23189   9.109  11.457   9.807 -1.4016  2.0908 -1.0762
  913MOL0     H23190   9.313  11.420   9.923  0.8139  1.3812  0.3040
  913MOL0     H23191   9.225  11.510  10.047 -0.1256 -0.5424  0.9241
  913MOL0     H23192   9.425  11.278  10.084 -1.1418  0.4885 -2.1208
  913MOL0     H23193   9.455  11.453  10.108 -1.7392  1.3547  0.1234
  913MOL0     H23194   9.295  11.457  10.280  2.8379  1.2457 -0.3435
  913MOL0     H23195   9.284  11.275  10.282 -1.2289  0.6142  1.6797
  913MOL0     H23196   9.534  11.290  10.298  1.0118  1.2577 -1.8317
  913MOL0     H23197   9.520  11.466  10.324 -0.6712  0.8273  0.5676
  913MOL0     H23198   9.368  11.256  10.486  0.0942 -0.0518 -2.2162
  913MOL0     H23199   9.542  11.250  10.509  0.1088 -0.6215 -0.3240
  913MOL0     H23200   9.530  11.502  10.577  0.6066 -0.0823  0.2750
  913MOL0     H23201   9.358  11.493  10.553  1.9511  2.1203 -1.6506
  913MOL0     H23202   9.322  11.392  10.759  0.0445 -0.5676  2.8620
  913MOL0     H23203   9.482  11.301  10.737  2.3314  0.7495 -1.9363
  913MOL0     H23204   9.511  11.598  10.787  1.1463 -0.3057 -0.6810
  913MOL0     H23205   9.621  11.468  10.830 -0.0151 -0.4980  2.9340
  913MOL0     H23206   9.363  11.695  10.984  1.4388  2.2551  2.0598
  913MOL0     H23207   9.298  11.736  11.245  1.0272  0.5444  1.0497
  913MOL0     H23208   9.359  11.617  11.366  0.9416 -0.3026  0.4530
  913MOL0     H23209   9.584  11.735  11.326  1.2434  1.3821 -1.4434
  913MOL0     H23210   9.461  11.835  11.404  0.4719 -0.9327  0.1022
  913MOL0     H23211   9.529  11.988  11.219 -0.0647 -0.8782  0.7484
  913MOL0     H23212   9.415  11.880  11.129 -0.8872 -1.7739  1.8351
  913MOL0     H23213   9.632  11.741  11.071 -0.5093 -0.4200  1.6961
  913MOL0     H23214   9.719  11.834  11.176 -2.2644 -0.4133  3.3415
  913MOL0     H23215   9.821  12.059  11.178  2.0667  1.7201  0.1738
  913MOL0     H23216  10.171  12.096  11.154  1.9800  2.4219 -1.8997
  913MOL0     H23217  10.112  12.262  11.142  3.2731 -1.3937  0.9708
  913MOL0     H23218  10.026  12.145  11.244 -4.0496 -1.1435 -2.5958
  913MOL0     H23219  10.202  12.406  10.623  0.8066  1.0219  0.7021
  913MOL0     H23220  10.374  12.516  10.538 -0.9960 -0.4093 -0.3460
  913MOL0     H23221  10.764  12.320  10.635  0.9595 -3.3131 -1.1154
  913MOL0     H23222  10.762  12.270  10.458  1.3095  2.6023 -3.7304
  913MOL0     H23223  10.852  12.475  10.399 -0.8352  0.4325 -0.4414
  913MOL0     H23224  10.850  12.538  10.558 -0.7664 -0.6332  2.0856
  913MOL0     H23225  11.010  12.302  10.440 -1.5696  0.5492 -1.0980
  913MOL0     H23226  11.004  12.338  10.612 -2.8929  0.8882  1.2050
  913MOL0     H23227  11.086  12.516  10.368 -1.8757  0.7851  1.5920
  913MOL0     H23228  11.089  12.576  10.531 -2.2776 -0.7605  0.0488
  913MOL0     H23229  11.243  12.320  10.479 -0.5884  0.1005  0.4782
  913MOL0     H23230  11.283  12.446  10.594  0.2833  2.2886 -0.9540
  913MOL0     H23231  11.360  12.431  10.305  2.5724  1.2414 -0.7146
  913MOL0     H23232  11.346  12.586  10.394  3.0841 -0.0523 -0.1038
  913MOL0     H23233  11.514  12.505  10.554  1.3342  1.2542 -0.3784
  913MOL0     H23234  11.573  12.521  10.395  1.2165 -1.0456  0.5733
  913MOL0     H23235  11.499  12.240  10.400 -1.5539 -0.5133  0.3095
  913MOL0     H23236  11.507  12.287  10.579  1.7084 -1.5528 -0.3645
  913MOL0     H23237  10.619  12.144  10.601  0.4065  0.5267 -0.5729
  913MOL0     H23238  10.440  12.045  10.693  0.3855  1.8277  1.5055
  913MOL0     H23239   9.955  12.063  10.702 -1.2576 -0.0774 -0.3489
  913MOL0     H23240   9.749  11.941  10.768  2.4870  0.0827 -0.8287
  913MOL0     H23241   8.956  11.200  10.099 -0.6713 -0.2275 -1.1775
  913MOL0     H23242   8.718  11.233  10.007 -0.7175  0.1481 -0.6017
  913MOL0     H23243   8.439  11.103   9.588  0.5823 -0.1619 -2.0208
  913MOL0     H23244   8.241  11.147   9.460 -2.1416  1.2212  0.3760
  913MOL0     H23245   8.083  11.581   9.457 -2.6088 -1.3884 -0.1951
  913MOL0     H23246   8.184  11.555   9.317  1.0938 -0.0302  2.6523
  913MOL0     H23247   8.009  11.464   9.190 -3.3656 -1.3648  0.2643
  913MOL0     H23248   7.952  11.616   9.264  1.3068  0.3918 -2.2631
  913MOL0     H23249   7.847  11.488   9.454  0.6607 -0.2958  0.3739
  913MOL0     H23250   7.887  11.339   9.365 -0.6816  0.2402 -2.0141
  913MOL0     H23251   7.755  11.437   9.157 -1.3202 -2.0960  0.2785
  913MOL0     H23252   7.682  11.553   9.256 -2.8592 -1.2284  1.4560
  913MOL0     H23253   7.526  11.142   9.344 -1.5475  0.6078 -2.4947
  913MOL0     H23254   8.272  11.575   9.540  0.0700 -0.3221  1.9680
  913MOL0     H23255   8.494  11.517   9.657  1.2397 -1.2004 -3.4107
  914MOL0     O23256  10.829   1.822   6.498 -0.3032 -0.1518 -0.2190
  914MOL0     C23257  10.806   1.710   6.546  0.2593 -0.5749  0.0603
  914MOL0     O23258  10.762   1.685   6.669 -0.5545  0.4265 -0.3387
  914MOL0     C23259  10.760   1.771   6.783 -0.0758 -0.2093  0.4805
  914MOL0     C23260  10.682   1.886   6.781 -0.5688  0.3323 -0.0651
  914MOL0     C23261  10.684   1.973   6.890  0.6352  0.2763  0.7452
  914MOL0     C23262  10.766   1.943   6.998  0.7519 -0.9675 -0.0885
  914MOL0     O23263  10.759   2.033   7.102  0.3080  0.1713 -0.1098
  914MOL0     C23264  10.859   2.040   7.203  0.1228 -0.0982 -0.9120
  914MOL0     C23265  10.846   2.176   7.262  0.1755 -0.5755 -1.0277
  914MOL0     C23266  10.931   2.194   7.389 -0.1517 -0.0036 -0.2182
  914MOL0     C23267  11.074   2.244   7.370 -0.0311  0.0417 -0.4566
  914MOL0     C23268  11.163   2.236   7.505 -0.6628  0.4000 -0.0016
  914MOL0     C23269  11.301   2.291   7.497  0.4763 -0.0607  0.2134
  914MOL0     C23270  11.374   2.323   7.622 -0.2117  0.5023 -0.0261
  914MOL0     C23271  11.514   2.366   7.597  0.0356  0.0379 -0.7352
  914MOL0     N23272  11.566   2.457   7.704 -0.0878  0.5886  0.7746
  914MOL0     C23273  11.541   2.455   7.837 -0.2293 -0.1359 -0.6286
  914MOL0     C23274  11.614   2.563   7.889 -0.2471  1.2766 -0.4726
  914MOL0     C23275  11.639   2.601   8.030 -0.3154  0.0931 -0.2863
  914MOL0     C23276  11.789   2.646   8.058 -0.1465 -0.0971  0.3073
  914MOL0     C23277  11.829   2.621   8.205 -0.0491  0.3501 -0.0741
  914MOL0     C23278  11.980   2.623   8.224  0.0619  0.8313 -0.0620
  914MOL0     O23279  12.018   2.758   8.210 -0.2294 -0.0583 -0.5204
  914MOL0     C23280  12.140   2.796   8.271  0.2049  0.2942 -0.5188
  914MOL0     C23281  12.154   2.940   8.294  0.3455  0.1379 -0.3937
  914MOL0     C23282  12.270   2.987   8.361 -0.5093 -0.4524 -0.1755
  914MOL0     C23283  12.272   3.135   8.382 -0.1778  0.4988 -0.2804
  914MOL0     C23284  12.372   2.901   8.399 -0.4386 -0.4560 -0.4480
  914MOL0     C23285  12.497   2.957   8.464 -0.6417 -0.3525  0.3176
  914MOL0     O23286  12.486   2.996   8.594  0.1689 -0.5840 -0.0589
  914MOL0     C23287  12.577   3.084   8.647 -1.3224 -0.3943 -0.2551
  914MOL0     C23288  12.566   3.088   8.790  0.9486 -0.9892 -0.3279
  914MOL0     C23289  12.645   3.171   8.872 -0.3687 -0.1602 -0.1145
  914MOL0     C23290  12.749   3.241   8.804 -0.2811  0.8123  0.9896
  914MOL0     O23291  12.819   3.325   8.884 -0.1064 -0.4604  0.0575
  914MOL0     C23292  12.798   3.462   8.853  1.1429  0.0845  0.1846
  914MOL0     C23293  12.805   3.541   8.977 -0.0961 -0.6398  0.0153
  914MOL0     C23294  12.774   3.688   8.963 -0.2656 -0.0632 -0.0952
  914MOL0     C23295  12.865   3.762   8.858 -0.3439  0.4268 -0.4825
  914MOL0     C23296  12.825   3.912   8.837  0.1247 -0.3234  0.6279
  914MOL0     C23297  12.813   3.985   8.973 -0.1553 -0.3430 -0.7666
  914MOL0     C23298  12.816   4.142   8.955  1.1423  0.1579 -0.2110
  914MOL0     C23299  12.772   4.220   9.081 -0.4564  0.0813  0.2947
  914MOL0    Cl23300  12.786   4.405   9.057 -0.2272  0.5310  0.2189
  914MOL0     C23301  12.768   3.239   8.664  0.4243  0.2809 -0.4546
  914MOL0     C23302  12.682   3.162   8.589  0.8444 -0.7726 -0.1489
  914MOL0     O23303  12.600   2.963   8.395  0.3812  0.0134 -0.3819
  914MOL0     C23304  12.356   2.760   8.374  0.1971 -0.2196  0.1534
  914MOL0     C23305  12.246   2.705   8.310  0.4969 -0.4325 -0.8118
  914MOL0     N23306  11.667   2.629   7.785  0.1778  0.1441 -0.8312
  914MOL0     N23307  11.637   2.567   7.672  0.2638 -0.3290 -0.4284
  914MOL0     C23308  10.845   1.832   7.003 -0.1472  0.5515 -0.3299
  914MOL0     C23309  10.840   1.741   6.894  0.5660 -0.6075 -0.8614
  914MOL0     C23310  10.841   1.586   6.471  0.5803 -0.3587 -0.4771
  914MOL0     C23311  10.877   1.590   6.335 -0.0240 -0.3993 -0.1091
  914MOL0     C23312  10.913   1.470   6.267 -0.5414  0.2516 -0.1404
  914MOL0     C23313  10.914   1.348   6.336  0.0288 -0.4401 -0.3870
  914MOL0     O23314  10.945   1.230   6.264  0.2048  0.3449 -0.8852
  914MOL0     C23315  10.900   1.233   6.124 -0.1160  0.2174 -0.1438
  914MOL0     C23316  10.861   1.095   6.079  0.6477 -0.4834 -0.5591
  914MOL0     C23317  10.726   1.051   6.139  0.2567 -0.9091 -0.6076
  914MOL0     C23318  10.695   0.912   6.091  0.0866 -0.4206 -0.0538
  914MOL0     C23319  10.595   0.832   6.168  0.2766  0.5156  1.0367
  914MOL0     C23320  10.513   0.772   6.235 -1.0809  0.1810  0.2800
  914MOL0     C23321  10.871   1.345   6.466  0.3923 -0.3312 -0.3635
  914MOL0     C23322  10.836   1.461   6.545  0.5397 -0.7179  0.2516
  914MOL0     H23323  10.627   1.914   6.691  0.7239 -0.1543 -1.0279
  914MOL0     H23324  10.618   2.059   6.890 -0.4745 -0.5519  1.3772
  914MOL0     H23325  10.847   1.955   7.270 -2.4151  1.7528  1.1988
  914MOL0     H23326  10.956   2.031   7.152  0.7665 -0.7246  0.3863
  914MOL0     H23327  10.863   2.257   7.191  0.1851 -0.4420 -0.8732
  914MOL0     H23328  10.741   2.188   7.290  0.3695 -0.5746 -0.2685
  914MOL0     H23329  10.881   2.277   7.439  0.5451  1.6332 -2.0911
  914MOL0     H23330  10.940   2.092   7.428 -0.9677  0.1310  0.3375
  914MOL0     H23331  11.135   2.175   7.312  1.2665  0.0780  0.8115
  914MOL0     H23332  11.083   2.345   7.329 -1.7443  0.7992  0.8673
  914MOL0     H23333  11.116   2.302   7.578  1.1254  3.4804 -1.4263
  914MOL0     H23334  11.174   2.131   7.535  2.2195  0.2567 -1.2014
  914MOL0     H23335  11.355   2.224   7.430 -0.9668  0.7276 -1.8271
  914MOL0     H23336  11.295   2.386   7.442 -0.6812 -1.5249 -2.3334
  914MOL0     H23337  11.321   2.405   7.671  0.0986  1.7670 -1.7022
  914MOL0     H23338  11.381   2.243   7.695 -0.6090  0.2982 -0.2094
  914MOL0     H23339  11.514   2.431   7.508 -4.7759 -0.1506 -1.1204
  914MOL0     H23340  11.585   2.284   7.580 -0.2616 -0.1351 -1.1706
  914MOL0     H23341  11.488   2.378   7.892  1.1549 -0.7186 -0.0651
  914MOL0     H23342  11.567   2.672   8.071 -1.3335 -0.5423 -0.9398
  914MOL0     H23343  11.625   2.509   8.088  1.9663 -0.2668 -0.1934
  914MOL0     H23344  11.798   2.753   8.036 -3.9133  0.2538 -0.0955
  914MOL0     H23345  11.857   2.586   7.997  0.7565 -2.4876  3.4259
  914MOL0     H23346  11.803   2.519   8.237  1.5924 -0.6148 -1.5849
  914MOL0     H23347  11.772   2.693   8.264 -0.8708  0.3736 -0.8729
  914MOL0     H23348  12.039   2.570   8.149  2.8513  2.5483  0.7942
  914MOL0     H23349  12.007   2.582   8.322  1.7248  0.9079 -0.4742
  914MOL0     H23350  12.069   3.007   8.284 -0.3872 -0.3766  1.7280
  914MOL0     H23351  12.276   3.143   8.491  2.5875 -2.7277  0.0050
  914MOL0     H23352  12.360   3.179   8.334 -0.2375  2.0828  0.9886
  914MOL0     H23353  12.181   3.184   8.345  1.0487  1.1984 -2.5334
  914MOL0     H23354  12.486   3.028   8.833  2.2906 -2.4236  0.2347
  914MOL0     H23355  12.637   3.171   8.980 -1.9681  0.9874 -0.1962
  914MOL0     H23356  12.868   3.509   8.784 -0.9407  0.7230 -1.5987
  914MOL0     H23357  12.703   3.472   8.800 -0.9568 -1.7854  3.3066
  914MOL0     H23358  12.732   3.501   9.048  0.5528 -1.4693  0.2409
  914MOL0     H23359  12.906   3.518   9.013  0.4576  0.0565 -1.0310
  914MOL0     H23360  12.779   3.735   9.062 -2.1766  3.4901 -1.4871
  914MOL0     H23361  12.669   3.700   8.935  0.0962 -0.0029 -1.4805
  914MOL0     H23362  12.967   3.750   8.896  0.2147  0.6986 -1.8236
  914MOL0     H23363  12.847   3.714   8.762 -1.9648  0.9487 -0.4717
  914MOL0     H23364  12.731   3.904   8.783  0.4327  0.9435 -0.1322
  914MOL0     H23365  12.895   3.966   8.772 -2.7827  1.9216 -0.8554
  914MOL0     H23366  12.715   3.956   9.013 -0.6050 -1.6760 -2.7240
  914MOL0     H23367  12.883   3.940   9.044  0.4269  1.0132 -0.4327
  914MOL0     H23368  12.733   4.156   8.884 -3.3905  1.0083  4.6494
  914MOL0     H23369  12.916   4.166   8.920  1.5429 -1.4407 -0.2289
  914MOL0     H23370  12.837   4.191   9.164  2.2042 -2.1223 -2.3364
  914MOL0     H23371  12.665   4.202   9.099  0.2011 -2.3013  2.4204
  914MOL0     H23372  12.842   3.291   8.604 -0.5168  0.9443 -1.0563
  914MOL0     H23373  12.686   3.170   8.480 -0.8810 -0.7501 -0.2355
  914MOL0     H23374  12.429   2.686   8.403  0.6884  0.3575  0.4182
  914MOL0     H23375  12.224   2.600   8.294 -0.1957 -0.2674 -0.9853
  914MOL0     H23376  10.896   1.795   7.091 -3.1452 -0.2414  1.1814
  914MOL0     H23377  10.894   1.648   6.908  1.3258  0.1191  1.5350
  914MOL0     H23378  10.890   1.688   6.291 -1.5670 -0.8129 -1.5513
  914MOL0     H23379  10.940   1.476   6.162 -4.5422 -0.9060 -1.4147
  914MOL0     H23380  10.812   1.298   6.120 -0.5298 -0.3779 -0.9171
  914MOL0     H23381  10.980   1.265   6.057 -0.9963 -0.1736 -1.4179
  914MOL0     H23382  10.934   1.027   6.123  2.2957  0.3907 -1.8183
  914MOL0     H23383  10.860   1.099   5.970  2.5683 -1.9244 -0.6685
  914MOL0     H23384  10.654   1.128   6.109 -2.0984 -3.2867 -1.5068
  914MOL0     H23385  10.739   1.045   6.248  1.7661  1.8645 -0.5680
  914MOL0     H23386  10.788   0.855   6.083  1.1920  1.0940  1.4236
  914MOL0     H23387  10.650   0.929   5.992  3.2876 -0.7104 -1.6999
  914MOL0     H23388  10.446   0.718   6.299  1.9823 -2.8713  1.2285
  914MOL0     H23389  10.878   1.256   6.528 -3.0723 -1.3740 -1.2737
  914MOL0     H23390  10.805   1.436   6.646 -1.4416  0.0452 -0.1420
  915MOL0     O23391   8.982  11.488  10.985  0.1079  0.5567 -0.0025
  915MOL0     C23392   8.941  11.370  10.979  0.0966 -0.5816  0.2569
  915MOL0     O23393   8.814  11.333  11.012  0.5812  0.4393 -0.6256
  915MOL0     C23394   8.728  11.435  11.053 -0.0914 -0.3070  0.3888
  915MOL0     C23395   8.763  11.502  11.166  0.1831 -0.7001 -0.4199
  915MOL0     C23396   8.656  11.576  11.226  0.5913 -1.0297 -0.2259
  915MOL0     C23397   8.519  11.576  11.178 -0.1274  0.7181 -0.0923
  915MOL0     O23398   8.420  11.656  11.227 -0.8538 -0.2367 -0.4907
  915MOL0     C23399   8.452  11.797  11.234  0.0271 -0.2838 -0.0517
  915MOL0     C23400   8.320  11.872  11.248  0.9273  0.3386  0.0967
  915MOL0     C23401   8.327  12.016  11.293  0.2841  0.4139  0.1107
  915MOL0     C23402   8.352  12.094  11.165 -0.0969 -0.1927 -0.8836
  915MOL0     C23403   8.391  12.242  11.197  1.2203 -0.0624  0.3376
  915MOL0     C23404   8.406  12.332  11.062 -0.4150  0.7253 -0.4239
  915MOL0     C23405   8.462  12.471  11.101  0.7831  0.3730  0.4991
  915MOL0     C23406   8.451  12.570  10.982  0.9939 -0.5040 -0.2930
  915MOL0     N23407   8.532  12.519  10.871 -0.7142  0.9202  0.5802
  915MOL0     C23408   8.485  12.438  10.770 -0.0816  0.6360 -1.1051
  915MOL0     C23409   8.577  12.420  10.683 -0.2865  0.7836  0.0206
  915MOL0     C23410   8.570  12.329  10.571  0.1760 -0.1449 -0.0092
  915MOL0     C23411   8.497  12.393  10.454 -0.9097  0.2518  0.5154
  915MOL0     C23412   8.498  12.294  10.334  0.3018 -0.3149 -0.4916
  915MOL0     C23413   8.398  12.322  10.223 -0.0806 -0.4750  0.4926
  915MOL0     O23414   8.269  12.377  10.266 -0.5114  0.3656 -0.6710
  915MOL0     C23415   8.180  12.414  10.167  0.2986 -0.3245 -0.2618
  915MOL0     C23416   8.150  12.337  10.050  1.1448 -0.5442  0.1094
  915MOL0     C23417   8.047  12.385   9.961  0.4608  0.5735 -0.0017
  915MOL0     C23418   8.014  12.305   9.832  0.5404 -0.0599 -0.8343
  915MOL0     C23419   7.987  12.517   9.980  0.2608 -0.5137  0.0494
  915MOL0     C23420   7.896  12.577   9.877 -0.3615 -0.5763 -0.3626
  915MOL0     O23421   7.872  12.705   9.906  0.5626  0.6959  0.2960
  915MOL0     C23422   7.765  12.764   9.838 -0.2538  0.0506 -0.4655
  915MOL0     C23423   7.765  12.803   9.701 -0.3319  0.3466 -0.1036
  915MOL0     C23424   7.662  12.879   9.649 -0.0847 -0.3422 -0.2982
  915MOL0     C23425   7.550  12.929   9.727 -0.3833 -0.5902  0.7738
  915MOL0     O23426   7.447  13.008   9.671  0.8804  0.2970 -0.0679
  915MOL0     C23427   7.455  13.089   9.553 -0.8235 -0.3285  0.1187
  915MOL0     C23428   7.553  13.207   9.566  0.2093 -0.6222  0.2255
  915MOL0     C23429   7.595  13.278   9.431  0.5821  0.6600  0.3980
  915MOL0     C23430   7.714  13.214   9.371  0.3561  1.1499  1.3811
  915MOL0     C23431   7.741  13.274   9.236 -0.4482 -0.1686 -0.0976
  915MOL0     C23432   7.852  13.206   9.159 -0.6355 -0.6260 -0.1643
  915MOL0     C23433   7.877  13.296   9.027 -0.1153  0.0263 -0.1676
  915MOL0     C23434   7.980  13.232   8.941  0.5257  0.2574  1.0367
  915MOL0    Cl23435   8.043  13.344   8.817  0.0175  0.2510 -0.1927
  915MOL0     C23436   7.550  12.877   9.853  0.9538 -0.3454 -0.1444
  915MOL0     C23437   7.658  12.815   9.917  0.0300 -0.3726  0.0302
  915MOL0     O23438   7.822  12.508   9.805  0.1849  0.3004 -0.1825
  915MOL0     C23439   8.017  12.584  10.097 -0.4069  0.2558 -0.3638
  915MOL0     C23440   8.111  12.534  10.194  0.1303  0.0191  0.5666
  915MOL0     N23441   8.694  12.466  10.734 -0.0137 -0.5759 -0.3434
  915MOL0     N23442   8.667  12.528  10.843 -0.3471 -0.3206 -0.1898
  915MOL0     C23443   8.496  11.497  11.075  0.0190  0.5936  0.1251
  915MOL0     C23444   8.591  11.421  11.012 -0.6999  0.1290 -0.4086
  915MOL0     C23445   9.036  11.263  10.970  0.6095 -0.1220 -0.2205
  915MOL0     C23446   8.995  11.127  10.957 -0.3892 -0.0575 -0.2033
  915MOL0     C23447   9.100  11.031  10.962 -0.7751 -0.2341 -0.9252
  915MOL0     C23448   9.242  11.063  10.971  0.3366  0.0686  0.9904
  915MOL0     O23449   9.334  10.963  10.983 -0.1499 -0.7642  0.6785
  915MOL0     C23450   9.450  10.987  11.079  0.7669  0.1327 -0.1525
  915MOL0     C23451   9.388  11.011  11.220 -0.0955  0.1548 -0.0040
  915MOL0     C23452   9.487  11.026  11.336  1.0900  0.0514 -0.0940
  915MOL0     C23453   9.476  11.163  11.396  0.6898 -0.3620  0.1764
  915MOL0     C23454   9.568  11.189  11.505 -0.0819 -1.1073 -0.2794
  915MOL0     C23455   9.653  11.206  11.595  0.1136  0.2515  0.4096
  915MOL0     C23456   9.277  11.201  10.970  0.5901  0.0701 -0.3482
  915MOL0     C23457   9.171  11.293  10.971  0.0366 -1.2611 -0.5565
  915MOL0     H23458   8.860  11.511  11.215  0.9085 -0.1926 -1.8871
  915MOL0     H23459   8.669  11.635  11.316  0.0842 -0.1474 -0.7146
  915MOL0     H23460   8.528  11.818  11.310  1.9638 -2.0349 -1.3996
  915MOL0     H23461   8.501  11.817  11.138  1.7060 -2.9700  0.1336
  915MOL0     H23462   8.277  11.872  11.147 -1.5886  2.3567  1.0299
  915MOL0     H23463   8.258  11.814  11.317 -3.1550  2.0877 -1.7656
  915MOL0     H23464   8.227  12.046  11.326 -0.6857 -0.4149 -1.8939
  915MOL0     H23465   8.410  12.042  11.359  1.0869  2.9579 -1.7205
  915MOL0     H23466   8.450  12.064  11.127  1.5829  1.3084  1.9446
  915MOL0     H23467   8.268  12.089  11.095  0.3836  0.6142 -1.5314
  915MOL0     H23468   8.309  12.285  11.256  1.8975 -1.0317  2.0615
  915MOL0     H23469   8.485  12.246  11.252  2.3454 -1.9324 -1.3031
  915MOL0     H23470   8.476  12.274  11.002  0.6511 -0.5275  1.9002
  915MOL0     H23471   8.310  12.337  11.011 -1.8686 -1.9947  1.8009
  915MOL0     H23472   8.401  12.507  11.184  0.2184  1.1506 -0.2309
  915MOL0     H23473   8.568  12.460  11.127  1.1377 -1.7530 -1.5345
  915MOL0     H23474   8.480  12.670  11.014  2.7242 -0.9985 -0.1989
  915MOL0     H23475   8.353  12.583  10.936  2.3924  2.7168 -2.7801
  915MOL0     H23476   8.386  12.393  10.765 -1.8809  3.1151  4.3319
  915MOL0     H23477   8.669  12.308  10.529  0.3619  2.3754 -1.0569
  915MOL0     H23478   8.530  12.230  10.592  1.5625 -1.0554 -1.3957
  915MOL0     H23479   8.540  12.488  10.421  0.7174 -0.6531 -0.0848
  915MOL0     H23480   8.399  12.428  10.488 -0.5769 -0.0292  1.8426
  915MOL0     H23481   8.482  12.190  10.365  1.6503 -0.3234  0.2702
  915MOL0     H23482   8.596  12.294  10.285  2.0805 -3.8644  2.4868
  915MOL0     H23483   8.376  12.230  10.169 -3.7908 -0.7241  2.0907
  915MOL0     H23484   8.444  12.388  10.149  1.1974 -0.3090  1.4106
  915MOL0     H23485   8.204  12.243  10.041  0.2264 -1.1572  0.9208
  915MOL0     H23486   8.019  12.365   9.741  1.6637 -0.9261 -1.3821
  915MOL0     H23487   8.095  12.231   9.824  3.3545  3.0040 -3.6669
  915MOL0     H23488   7.916  12.259   9.841 -0.8594  2.9550  0.5908
  915MOL0     H23489   7.848  12.781   9.636  2.4620 -1.8721  3.7513
  915MOL0     H23490   7.673  12.911   9.546  3.2177  0.0796  0.0692
  915MOL0     H23491   7.483  13.025   9.468 -2.0030 -2.7257  1.4347
  915MOL0     H23492   7.363  13.145   9.534 -0.8451 -0.3386  0.1945
  915MOL0     H23493   7.504  13.280   9.630  0.0508  0.2571 -0.8652
  915MOL0     H23494   7.646  13.189   9.621 -1.0710 -1.5961  2.1874
  915MOL0     H23495   7.626  13.381   9.450  1.2458  0.2379  1.7224
  915MOL0     H23496   7.517  13.266   9.355 -0.0211 -2.2295  1.3295
  915MOL0     H23497   7.807  13.223   9.427  2.2001  0.5131 -1.3481
  915MOL0     H23498   7.688  13.109   9.358 -1.1765  1.4754  1.6797
  915MOL0     H23499   7.787  13.373   9.247 -1.1814  0.0624  1.0654
  915MOL0     H23500   7.654  13.290   9.172 -0.2372  2.4304  0.1575
  915MOL0     H23501   7.948  13.200   9.211  0.1684 -0.5029 -1.5803
  915MOL0     H23502   7.820  13.103   9.136 -1.4073 -0.4022 -0.1276
  915MOL0     H23503   7.920  13.395   9.044 -1.5467  1.2669 -3.0333
  915MOL0     H23504   7.784  13.307   8.970  0.2530  0.4687 -0.6954
  915MOL0     H23505   7.947  13.139   8.893 -0.3270  1.3812 -0.6509
  915MOL0     H23506   8.063  13.205   9.007 -0.9503  1.2693  3.4595
  915MOL0     H23507   7.457  12.901   9.904 -0.2477  1.1261 -2.8067
  915MOL0     H23508   7.665  12.788  10.022  3.1959 -0.3433 -0.0669
  915MOL0     H23509   7.972  12.678  10.128 -0.0973  0.1034  0.5821
  915MOL0     H23510   8.131  12.584  10.288  0.1852 -3.8337  2.8479
  915MOL0     H23511   8.393  11.490  11.039  0.3244  0.4123 -0.7410
  915MOL0     H23512   8.581  11.356  10.926 -1.2850  1.2742 -1.2242
  915MOL0     H23513   8.888  11.109  10.949 -0.0716 -1.2594 -2.4763
  915MOL0     H23514   9.084  10.924  10.969  1.7657 -0.7175 -1.3657
  915MOL0     H23515   9.529  10.912  11.068  3.7553  3.2332 -1.8541
  915MOL0     H23516   9.503  11.076  11.044 -0.5752  0.9557 -0.1656
  915MOL0     H23517   9.323  10.926  11.245  1.1083 -0.1702  2.2764
  915MOL0     H23518   9.324  11.100  11.223  0.6711  0.6947  0.5908
  915MOL0     H23519   9.589  11.006  11.303  1.4265  2.9904 -1.1360
  915MOL0     H23520   9.469  10.958  11.420  2.0374  0.8840  0.8144
  915MOL0     H23521   9.375  11.170  11.437  1.2400 -0.9499  1.7445
  915MOL0     H23522   9.499  11.237  11.319 -0.8582 -0.7528 -0.7059
  915MOL0     H23523   9.725  11.220  11.673  1.2661 -1.1044 -0.3646
  915MOL0     H23524   9.382  11.226  10.983  1.6073 -3.4960 -0.7529
  915MOL0     H23525   9.197  11.396  10.988 -1.7666 -1.1340  1.9308
  916MOL0     O23526   0.747   8.689   7.296  0.5017  0.5632 -0.6750
  916MOL0     C23527   0.838   8.765   7.280 -0.3145 -0.5582 -0.1842
  916MOL0     O23528   0.878   8.869   7.365 -0.5279  0.9662  0.4717
  916MOL0     C23529   0.808   8.924   7.462  0.5108 -0.1390  0.0559
  916MOL0     C23530   0.669   8.902   7.477  0.6050  0.0023 -0.4864
  916MOL0     C23531   0.604   8.957   7.590 -0.1133  0.6835  0.3803
  916MOL0     C23532   0.680   9.018   7.693  0.0549 -0.2315 -0.8871
  916MOL0     O23533   0.610   9.056   7.807  0.4299 -0.2071 -0.0787
  916MOL0     C23534   0.681   9.118   7.915 -0.3841  0.4097 -0.3284
  916MOL0     C23535   0.759   9.016   7.993 -0.3541 -0.3651  0.4105
  916MOL0     C23536   0.675   8.923   8.091 -0.3656  0.7211  0.1657
  916MOL0     C23537   0.773   8.836   8.166 -0.1417  0.0635 -0.2609
  916MOL0     C23538   0.680   8.749   8.269 -0.4958 -0.3756 -0.0227
  916MOL0     C23539   0.769   8.693   8.381  0.0366  1.0074  0.1634
  916MOL0     C23540   0.691   8.631   8.499 -0.0002  0.3556  0.3985
  916MOL0     C23541   0.781   8.569   8.590 -0.3351 -0.1060 -0.5195
  916MOL0     N23542   0.710   8.476   8.685  0.4620  0.4371 -0.5732
  916MOL0     C23543   0.689   8.504   8.822  0.5750  0.1956  0.3924
  916MOL0     C23544   0.647   8.384   8.864 -0.2174 -0.7740  0.2819
  916MOL0     C23545   0.588   8.364   9.002  0.2397 -1.1659  0.2549
  916MOL0     C23546   0.697   8.323   9.104  0.0650  0.4147 -0.3261
  916MOL0     C23547   0.757   8.184   9.088 -0.6713  0.4484 -0.0557
  916MOL0     C23548   0.656   8.072   9.108  0.0227 -0.2360  0.4762
  916MOL0     O23549   0.715   7.943   9.104 -0.7325  0.3578  0.6143
  916MOL0     C23550   0.777   7.906   8.984 -0.8246 -0.2267 -0.6063
  916MOL0     C23551   0.894   7.826   8.990  0.3593 -0.2287 -0.6402
  916MOL0     C23552   0.957   7.780   8.866  0.2112 -0.5336  0.2218
  916MOL0     C23553   1.074   7.687   8.886 -0.1694  0.2272  0.1243
  916MOL0     C23554   0.910   7.824   8.740  0.6748  0.5690 -0.0538
  916MOL0     C23555   0.987   7.794   8.616  0.6559  0.4994  0.0986
  916MOL0     O23556   1.107   7.855   8.608  0.6916  0.6397  0.5402
  916MOL0     C23557   1.191   7.821   8.510 -0.4727  0.0324  0.3126
  916MOL0     C23558   1.228   7.694   8.456  0.7144 -0.2311 -0.7294
  916MOL0     C23559   1.316   7.682   8.351 -1.1416 -0.5616  0.2711
  916MOL0     C23560   1.380   7.797   8.304 -0.9412 -0.7085  0.8696
  916MOL0     O23561   1.469   7.794   8.197 -1.1460 -0.0849  0.2812
  916MOL0     C23562   1.451   7.894   8.105  0.3066 -0.2716  0.6819
  916MOL0     C23563   1.522   7.867   7.977  0.5174  0.2982 -0.1906
  916MOL0     C23564   1.678   7.845   7.988 -0.9338 -0.2344  0.6499
  916MOL0     C23565   1.732   7.775   7.859 -0.4977  0.5398  0.0079
  916MOL0     C23566   1.884   7.727   7.877  0.4780 -0.3405  1.2969
  916MOL0     C23567   1.934   7.676   7.738  1.1528 -0.1071 -0.2114
  916MOL0     C23568   2.086   7.629   7.737  0.0884 -0.1836  0.6119
  916MOL0     C23569   2.182   7.743   7.759 -0.5889  0.2962 -0.0391
  916MOL0    Cl23570   2.172   7.870   7.628  0.2628  0.1087 -0.8552
  916MOL0     C23571   1.351   7.916   8.367 -0.3107 -0.2345  1.5767
  916MOL0     C23572   1.252   7.935   8.461 -0.2239 -0.8702 -0.0880
  916MOL0     O23573   0.937   7.708   8.542 -0.1633 -0.8054 -0.2285
  916MOL0     C23574   0.803   7.915   8.741 -0.1301  0.2101  0.0201
  916MOL0     C23575   0.733   7.947   8.861 -1.2557  0.4738  0.6936
  916MOL0     N23576   0.630   8.303   8.757 -0.2031 -0.8297  0.6575
  916MOL0     N23577   0.661   8.358   8.648 -0.4989 -1.0425 -0.4656
  916MOL0     C23578   0.819   9.039   7.674 -0.3929  0.1248  0.2862
  916MOL0     C23579   0.876   9.006   7.556  0.3739 -0.1445  0.3020
  916MOL0     C23580   0.912   8.747   7.153 -0.3389 -0.1485 -0.3767
  916MOL0     C23581   1.013   8.843   7.122 -0.6289 -0.2342  0.1628
  916MOL0     C23582   1.083   8.833   6.999  0.3578  0.3263  0.9849
  916MOL0     C23583   1.044   8.736   6.908 -0.3251  0.1941 -0.1171
  916MOL0     O23584   1.130   8.722   6.801 -0.0910  0.5140 -0.2384
  916MOL0     C23585   1.126   8.610   6.716 -0.2357 -0.0713  0.6813
  916MOL0     C23586   1.213   8.514   6.774 -0.0199  0.3310  0.4140
  916MOL0     C23587   1.223   8.387   6.708 -0.6439 -0.0230  0.4514
  916MOL0     C23588   1.333   8.384   6.602 -0.0168 -0.6252  0.6836
  916MOL0     C23589   1.375   8.249   6.573 -0.0706  0.9007 -1.0161
  916MOL0     C23590   1.409   8.134   6.544 -0.0779 -0.4525 -0.6178
  916MOL0     C23591   0.935   8.647   6.937 -0.0979  0.1040  1.2013
  916MOL0     C23592   0.877   8.648   7.061 -0.2436  0.5161 -0.3234
  916MOL0     H23593   0.600   8.861   7.404  1.5470  0.5487 -1.7029
  916MOL0     H23594   0.496   8.943   7.589 -0.3874  2.4878  0.5839
  916MOL0     H23595   0.745   9.206   7.900 -0.1286  1.9335  6.6188
  916MOL0     H23596   0.610   9.151   7.991  1.5185 -0.5709  1.9699
  916MOL0     H23597   0.813   8.947   7.928 -2.3010 -1.9734  0.4097
  916MOL0     H23598   0.840   9.073   8.041 -1.5137  0.2115  1.7421
  916MOL0     H23599   0.630   8.996   8.160  1.2400  2.6136 -0.6834
  916MOL0     H23600   0.600   8.861   8.041  1.3410  0.1812 -1.8566
  916MOL0     H23601   0.836   8.776   8.100 -0.4257  1.1795 -1.5942
  916MOL0     H23602   0.836   8.902   8.226 -0.5616  1.2133 -1.0590
  916MOL0     H23603   0.609   8.824   8.305 -0.8543 -2.0093  2.9811
  916MOL0     H23604   0.630   8.660   8.230 -2.7456  1.1363 -0.8076
  916MOL0     H23605   0.842   8.621   8.342  1.3209  1.8704  0.9120
  916MOL0     H23606   0.827   8.770   8.432  1.5595 -0.7907  1.3156
  916MOL0     H23607   0.630   8.696   8.562  0.6473 -0.5675  2.0513
  916MOL0     H23608   0.614   8.556   8.477 -1.9308  2.6872 -1.3699
  916MOL0     H23609   0.828   8.639   8.659  0.2172  0.0069 -1.0025
  916MOL0     H23610   0.858   8.505   8.545  0.2418  1.3736 -1.7125
  916MOL0     H23611   0.720   8.596   8.869 -0.9672  0.7049  0.4548
  916MOL0     H23612   0.573   8.471   9.020  3.8275  0.0545 -2.6005
  916MOL0     H23613   0.499   8.302   9.003  0.3485 -1.3698  2.3887
  916MOL0     H23614   0.639   8.331   9.197 -1.3806 -0.5036 -1.1078
  916MOL0     H23615   0.774   8.400   9.114 -0.9822  1.3081  1.5062
  916MOL0     H23616   0.839   8.194   9.160 -1.6528  5.4576  0.7490
  916MOL0     H23617   0.813   8.174   8.995 -0.4893 -0.5614  0.1505
  916MOL0     H23618   0.579   8.096   9.034  0.3860  0.4153  0.3016
  916MOL0     H23619   0.605   8.089   9.204 -0.8796  0.9660 -0.1830
  916MOL0     H23620   0.937   7.811   9.089  0.4418  0.3237 -0.5884
  916MOL0     H23621   1.142   7.735   8.958  0.5267 -2.9754  1.7581
  916MOL0     H23622   1.049   7.593   8.935  0.2489  0.7670  1.4252
  916MOL0     H23623   1.134   7.674   8.795  1.4639  4.0641  0.4463
  916MOL0     H23624   1.174   7.616   8.507  1.4660  1.5258  3.0652
  916MOL0     H23625   1.343   7.584   8.312 -2.0558 -0.3016 -1.0956
  916MOL0     H23626   1.343   7.899   8.085 -0.1488 -1.8472  2.3544
  916MOL0     H23627   1.491   7.985   8.149  1.4870 -1.3350  1.9010
  916MOL0     H23628   1.475   7.788   7.918 -0.4599  1.0271 -0.4154
  916MOL0     H23629   1.505   7.951   7.908  0.0920  0.9202  0.6468
  916MOL0     H23630   1.709   7.793   8.079 -0.9591  0.0028  0.7977
  916MOL0     H23631   1.729   7.942   7.990  1.0369 -1.2243  0.4634
  916MOL0     H23632   1.665   7.697   7.823  1.3003 -0.4890 -1.2531
  916MOL0     H23633   1.727   7.847   7.776  0.9326  0.2455 -0.3729
  916MOL0     H23634   1.866   7.637   7.938  0.3705 -1.9217 -0.9347
  916MOL0     H23635   1.944   7.809   7.915 -2.5893  2.0076  1.4599
  916MOL0     H23636   1.877   7.586   7.715  1.5511 -0.2224 -0.7456
  916MOL0     H23637   1.909   7.758   7.670 -1.9819 -0.7321  0.0358
  916MOL0     H23638   2.102   7.586   7.638 -0.3614  1.2021 -0.0902
  916MOL0     H23639   2.099   7.545   7.806 -0.4863 -1.5930 -0.9356
  916MOL0     H23640   2.281   7.698   7.756 -1.4611 -1.6495 -1.4815
  916MOL0     H23641   2.178   7.783   7.861 -1.2182 -2.8242  1.2854
  916MOL0     H23642   1.388   8.013   8.336 -2.3359 -0.0703 -0.6641
  916MOL0     H23643   1.222   8.034   8.491 -1.6898 -1.7454  1.4863
  916MOL0     H23644   0.754   7.961   8.655 -0.5518  3.2317  1.7282
  916MOL0     H23645   0.636   7.994   8.854 -0.1102  2.6255 -3.5746
  916MOL0     H23646   0.872   9.111   7.736 -3.4655  4.5210 -1.6839
  916MOL0     H23647   0.982   9.023   7.540  1.0713 -2.1629  2.3738
  916MOL0     H23648   1.034   8.919   7.197  0.3452  0.7336 -1.0464
  916MOL0     H23649   1.163   8.899   6.968 -0.2910  0.8636  0.4372
  916MOL0     H23650   1.023   8.577   6.701  0.7589 -2.0286 -3.5084
  916MOL0     H23651   1.164   8.627   6.615  0.3676 -0.8756  0.7582
  916MOL0     H23652   1.166   8.502   6.871  0.0973  1.2687  0.5930
  916MOL0     H23653   1.309   8.564   6.792  0.5440 -0.9068  0.9534
  916MOL0     H23654   1.127   8.357   6.665 -0.7764  1.5970 -0.4522
  916MOL0     H23655   1.240   8.326   6.797 -1.8443  1.1601  1.5274
  916MOL0     H23656   1.407   8.461   6.624  0.6738  0.1315 -3.4118
  916MOL0     H23657   1.286   8.412   6.507 -0.5011  0.2492  1.1679
  916MOL0     H23658   1.438   8.035   6.513 -4.5029 -1.8994 -0.9564
  916MOL0     H23659   0.893   8.570   6.874  0.4484 -1.3215  2.5268
  916MOL0     H23660   0.796   8.578   7.075  1.2319 -1.2870 -0.4230
  917MOL0     O23661   8.517   9.576  10.260  0.4980 -0.6969  0.4435
  917MOL0     C23662   8.494   9.491  10.344 -0.2068  1.0893 -0.1016
  917MOL0     O23663   8.527   9.494  10.479  0.4867 -0.6727 -0.5398
  917MOL0     C23664   8.588   9.620  10.518  0.3525  0.4033  0.0079
  917MOL0     C23665   8.719   9.629  10.479  0.4515 -0.8740  0.0925
  917MOL0     C23666   8.799   9.737  10.505 -0.7858  0.1186 -0.0939
  917MOL0     C23667   8.735   9.846  10.574 -0.7151  0.6184  0.4787
  917MOL0     O23668   8.800   9.963  10.605  0.2287  0.5963 -0.1991
  917MOL0     C23669   8.940   9.996  10.565  0.5019  1.0342  0.7752
  917MOL0     C23670   9.055   9.923  10.638 -0.0533 -0.0235 -0.2558
  917MOL0     C23671   9.043   9.959  10.785 -0.1985 -0.3223 -0.3996
  917MOL0     C23672   9.003  10.096  10.823  0.3818  0.3029  0.9747
  917MOL0     C23673   8.987  10.118  10.975 -0.6343  0.2554  0.2331
  917MOL0     C23674   9.113  10.086  11.058 -0.1324  0.4877  0.1247
  917MOL0     C23675   9.139  10.162  11.186 -0.3700  0.1501  0.6562
  917MOL0     C23676   9.276  10.121  11.237  0.4065  0.8115  0.5927
  917MOL0     N23677   9.304  10.176  11.363  0.1006  0.3096 -0.4684
  917MOL0     C23678   9.237  10.135  11.486 -0.1546 -0.1813  0.2150
  917MOL0     C23679   9.323  10.162  11.589  0.0890  0.2661  0.6063
  917MOL0     C23680   9.279  10.160  11.734 -1.0533  0.3107  0.4117
  917MOL0     C23681   9.211  10.286  11.786 -0.4558  0.0706 -0.7624
  917MOL0     C23682   9.298  10.387  11.860 -0.0949  0.7113  0.2112
  917MOL0     C23683   9.217  10.519  11.890 -0.0764  1.0826  0.3540
  917MOL0     O23684   9.310  10.613  11.956 -0.3393  0.0250 -0.0824
  917MOL0     C23685   9.267  10.691  12.061  0.4194  0.2450 -0.8813
  917MOL0     C23686   9.309  10.666  12.187  0.1305 -0.7366  0.7262
  917MOL0     C23687   9.270  10.742  12.294 -0.2239 -0.2541 -0.9175
  917MOL0     C23688   9.337  10.724  12.427  0.0367 -0.4425 -0.7911
  917MOL0     C23689   9.193  10.859  12.270 -0.4614 -0.4948 -0.1812
  917MOL0     C23690   9.148  10.943  12.364 -0.3794  0.7983  0.1253
  917MOL0     O23691   9.242  11.037  12.394 -0.0380 -0.2699 -0.9494
  917MOL0     C23692   9.221  11.152  12.460 -0.0910 -0.6299 -0.2318
  917MOL0     C23693   9.101  11.217  12.473  0.3938  0.2700  0.0554
  917MOL0     C23694   9.105  11.341  12.543 -0.4734 -0.0334 -0.8671
  917MOL0     C23695   9.224  11.392  12.589  0.9617  0.0166 -0.4302
  917MOL0     O23696   9.223  11.511  12.671  0.0482 -0.4993  0.2815
  917MOL0     C23697   9.108  11.541  12.749  0.2930  0.0034  0.6192
  917MOL0     C23698   8.992  11.626  12.695 -0.0916  0.3712 -0.3353
  917MOL0     C23699   9.014  11.773  12.701 -1.0341 -0.2263 -0.1004
  917MOL0     C23700   8.891  11.835  12.625  0.1430 -0.2890 -0.2713
  917MOL0     C23701   8.918  11.972  12.566  0.2083 -0.5299 -0.1198
  917MOL0     C23702   8.933  11.979  12.420 -0.0495 -0.1630 -0.7956
  917MOL0     C23703   8.999  12.112  12.375 -0.1911 -0.2539 -0.5083
  917MOL0     C23704   9.004  12.103  12.225  0.3427 -0.1135  0.4370
  917MOL0    Cl23705   9.129  11.985  12.168 -0.0035 -0.0103  0.0835
  917MOL0     C23706   9.347  11.326  12.571  0.1584 -1.6072 -0.6684
  917MOL0     C23707   9.341  11.208  12.503  0.1212  0.9044  0.5973
  917MOL0     O23708   9.041  10.934  12.412  0.0567 -0.0916  0.2021
  917MOL0     C23709   9.134  10.880  12.146  0.1665  0.2330  0.5128
  917MOL0     C23710   9.170  10.789  12.046  0.6342  0.4784 -0.4735
  917MOL0     N23711   9.446  10.195  11.532  0.5638 -0.6654 -0.0869
  917MOL0     N23712   9.431  10.212  11.402 -0.8037  0.0808 -0.1154
  917MOL0     C23713   8.600   9.839  10.600  0.0358 -0.5420 -0.3555
  917MOL0     C23714   8.525   9.731  10.574 -0.1404 -0.3817  0.5027
  917MOL0     C23715   8.419   9.369  10.299 -0.1105  0.1461 -0.0711
  917MOL0     C23716   8.395   9.350  10.162  0.3752 -1.4174 -0.2905
  917MOL0     C23717   8.347   9.228  10.119  0.9867 -0.8499  0.2295
  917MOL0     C23718   8.297   9.133  10.204  0.2026  0.9509 -0.4324
  917MOL0     O23719   8.268   8.998  10.181  0.2948 -0.1842 -0.3479
  917MOL0     C23720   8.242   8.967  10.040 -1.2249 -0.2848 -0.2239
  917MOL0     C23721   8.133   8.855  10.027 -0.7055 -0.4003  0.9441
  917MOL0     C23722   7.998   8.896  10.078 -0.3023  0.5584 -0.1210
  917MOL0     C23723   7.890   8.789  10.068  0.1467 -0.7235 -0.7583
  917MOL0     C23724   7.924   8.655  10.104 -0.2323  0.3003 -0.7049
  917MOL0     C23725   7.992   8.551  10.096  0.5681 -0.6717  1.0371
  917MOL0     C23726   8.320   9.152  10.339 -0.1548  0.2421  0.1633
  917MOL0     C23727   8.380   9.270  10.388 -0.3224 -0.1272 -0.6000
  917MOL0     H23728   8.761   9.551  10.418  0.0897 -0.5485 -0.5871
  917MOL0     H23729   8.904   9.741  10.475 -0.9551 -0.8520 -0.8480
  917MOL0     H23730   8.944   9.982  10.457  1.8720 -0.7166  1.0241
  917MOL0     H23731   8.953  10.104  10.582  2.7924  0.5191  2.9778
  917MOL0     H23732   9.040   9.816  10.625 -2.3044  0.5252 -3.2360
  917MOL0     H23733   9.153   9.950  10.598 -1.2789  5.3260 -0.4301
  917MOL0     H23734   8.977   9.882  10.825  1.7979 -2.2145 -0.5709
  917MOL0     H23735   9.143   9.947  10.828 -0.8981 -1.4351  0.9640
  917MOL0     H23736   9.061  10.180  10.784 -2.7296  1.0742 -2.6159
  917MOL0     H23737   8.901  10.109  10.783  0.6423 -3.5827 -1.4706
  917MOL0     H23738   8.928  10.207  10.999 -4.4689 -2.1599  0.6872
  917MOL0     H23739   8.916  10.044  11.014  1.4668 -0.7183  2.5207
  917MOL0     H23740   9.108   9.978  11.074 -2.1497  0.4417 -0.5582
  917MOL0     H23741   9.206  10.107  11.003 -1.0874 -0.1253 -1.8154
  917MOL0     H23742   9.136  10.269  11.163  1.4254  0.0759 -0.1016
  917MOL0     H23743   9.066  10.137  11.264 -0.4821 -1.8582 -0.0200
  917MOL0     H23744   9.348  10.165  11.167 -2.0496 -3.0428 -5.1230
  917MOL0     H23745   9.297  10.014  11.238 -1.6924  0.3491 -0.4560
  917MOL0     H23746   9.137  10.097  11.505  0.3941 -1.4440  0.6774
  917MOL0     H23747   9.198  10.087  11.745 -0.9655  0.2320  0.5364
  917MOL0     H23748   9.365  10.121  11.788 -0.8198 -0.9668 -0.8171
  917MOL0     H23749   9.130  10.262  11.855  1.2588 -0.4400  1.1581
  917MOL0     H23750   9.162  10.336  11.702 -0.8213  0.6539 -0.2048
  917MOL0     H23751   9.382  10.422  11.798 -0.1144 -0.7720 -0.6995
  917MOL0     H23752   9.344  10.345  11.949  0.6126  1.5148  0.2339
  917MOL0     H23753   9.137  10.489  11.958  0.4246 -3.4007 -0.7367
  917MOL0     H23754   9.165  10.555  11.801  0.5620  1.1348 -0.0097
  917MOL0     H23755   9.370  10.578  12.203 -3.0243 -2.8588  1.9478
  917MOL0     H23756   9.411  10.802  12.445 -1.8488  0.9383  1.7196
  917MOL0     H23757   9.264  10.725  12.508 -1.1370  0.5671 -1.8252
  917MOL0     H23758   9.394  10.631  12.427 -0.4530 -0.8766  2.4082
  917MOL0     H23759   9.007  11.178  12.435 -0.3535 -1.7692  3.5557
  917MOL0     H23760   9.015  11.396  12.569 -0.0029 -0.3405  1.6189
  917MOL0     H23761   9.068  11.443  12.776  4.1454 -2.7848 -2.5676
  917MOL0     H23762   9.133  11.599  12.838 -0.2796  1.8090 -0.3431
  917MOL0     H23763   8.975  11.600  12.590 -2.4433 -0.8111  0.2577
  917MOL0     H23764   8.893  11.606  12.738 -1.4075 -0.9928 -3.7070
  917MOL0     H23765   9.110  11.781  12.648 -1.2264 -3.1646 -1.1230
  917MOL0     H23766   9.009  11.803  12.806 -0.1031 -1.5631  0.3665
  917MOL0     H23767   8.858  11.765  12.549  0.5624 -0.0966 -0.6347
  917MOL0     H23768   8.804  11.853  12.689 -0.3598  2.4432 -1.5462
  917MOL0     H23769   9.018  11.995  12.603 -1.0736  1.8871  2.1268
  917MOL0     H23770   8.852  12.055  12.593  0.6164 -0.0166 -0.6649
  917MOL0     H23771   9.006  11.902  12.394 -0.4145 -0.9610  0.4375
  917MOL0     H23772   8.840  11.952  12.368 -0.4175  3.0572 -2.0337
  917MOL0     H23773   9.101  12.106  12.415  1.4178  2.1446 -3.8160
  917MOL0     H23774   8.952  12.200  12.420  1.3194  0.4356 -0.2132
  917MOL0     H23775   9.039  12.202  12.193  2.3987  0.3874  3.7413
  917MOL0     H23776   8.908  12.079  12.180  0.3402  0.7621 -0.0510
  917MOL0     H23777   9.438  11.375  12.602 -2.7880  2.5056  2.6516
  917MOL0     H23778   9.427  11.146  12.479 -1.5394 -2.1024  1.9373
  917MOL0     H23779   9.059  10.955  12.124 -1.1103 -0.8081  1.2020
  917MOL0     H23780   9.133  10.797  11.944  0.0396  0.9086 -0.2262
  917MOL0     H23781   8.551   9.932  10.627 -1.4232 -0.8379 -1.8351
  917MOL0     H23782   8.419   9.714  10.588 -0.0216 -1.1765  0.5185
  917MOL0     H23783   8.433   9.422  10.089 -0.3275 -0.5868  0.1471
  917MOL0     H23784   8.325   9.221  10.013 -1.5220  1.0798  0.5406
  917MOL0     H23785   8.207   9.056   9.987 -2.2915 -0.0659  0.8052
  917MOL0     H23786   8.333   8.950   9.982  0.9941  3.6598  1.6564
  917MOL0     H23787   8.170   8.771  10.086 -0.3764 -4.0094 -3.7952
  917MOL0     H23788   8.117   8.813   9.927 -1.8545  1.7650  0.1450
  917MOL0     H23789   7.951   8.978  10.022 -0.6088  2.3627  2.5817
  917MOL0     H23790   8.001   8.916  10.186 -0.7794 -0.7019  0.1471
  917MOL0     H23791   7.868   8.798   9.961  1.1352 -0.2429 -0.9273
  917MOL0     H23792   7.809   8.812  10.137  0.8347  0.4933 -0.3157
  917MOL0     H23793   8.053   8.462  10.093 -0.8436 -1.6386 -0.5186
  917MOL0     H23794   8.294   9.071  10.407  2.3356  0.0497  0.9798
  917MOL0     H23795   8.404   9.280  10.493  0.3963 -4.2095 -0.2079
  918MOL0     O23796   0.600   6.112   1.349  0.0812  0.1186 -0.0761
  918MOL0     C23797   0.564   6.217   1.301 -0.1721 -1.3618 -0.4275
  918MOL0     O23798   0.637   6.292   1.210 -0.4154 -0.3775  0.5316
  918MOL0     C23799   0.746   6.240   1.150  0.2185 -0.2355  0.0470
  918MOL0     C23800   0.869   6.278   1.205 -0.5089  0.5029  1.3430
  918MOL0     C23801   0.983   6.224   1.135  0.7996 -0.4499  0.3548
  918MOL0     C23802   0.972   6.133   1.026 -0.0150  0.9869  0.4614
  918MOL0     O23803   1.072   6.083   0.944 -0.2588 -0.7946 -0.5687
  918MOL0     C23804   1.206   6.106   0.992 -0.3834  0.6760 -0.2016
  918MOL0     C23805   1.301   6.061   0.886  0.2448  0.8157  0.0133
  918MOL0     C23806   1.324   5.913   0.861  0.2250  0.7436 -0.0820
  918MOL0     C23807   1.425   5.898   0.749 -0.2782  0.1006 -0.8023
  918MOL0     C23808   1.491   5.762   0.715  0.3379  0.7841 -0.4422
  918MOL0     C23809   1.567   5.752   0.582  0.1888  0.6308 -0.2600
  918MOL0     C23810   1.565   5.604   0.541  0.3264 -0.5451 -0.1565
  918MOL0     C23811   1.620   5.592   0.390 -0.0678  0.6351 -0.6390
  918MOL0     N23812   1.652   5.448   0.363 -0.0143  1.0517  0.6559
  918MOL0     C23813   1.779   5.389   0.384  0.6813 -0.1364 -0.1356
  918MOL0     C23814   1.770   5.264   0.338  0.0694 -0.6676 -0.3330
  918MOL0     C23815   1.885   5.170   0.341 -0.2959  0.9015 -0.1759
  918MOL0     C23816   1.879   5.076   0.222 -0.1420  0.7543  0.6389
  918MOL0     C23817   1.973   4.958   0.254 -0.1958  0.0280  0.0368
  918MOL0     C23818   1.977   4.857   0.140 -0.5408  0.1066  0.1402
  918MOL0     O23819   2.081   4.758   0.160  0.5328 -0.3737 -1.0615
  918MOL0     C23820   2.091   4.641   0.078  0.9217 -0.0132  0.0242
  918MOL0     C23821   1.999   4.607  -0.022  1.5582 -0.2982 -0.3104
  918MOL0     C23822   2.020   4.492  -0.104 -0.0254 -0.6457  0.3261
  918MOL0     C23823   1.908   4.447  -0.191  0.7639 -0.3962 -0.1993
  918MOL0     C23824   2.142   4.417  -0.095  0.1424  0.4762  0.1649
  918MOL0     C23825   2.166   4.293  -0.181  0.6880 -0.9917 -0.4997
  918MOL0     O23826   2.235   4.190  -0.119  0.4005 -0.4068  0.1227
  918MOL0     C23827   2.231   4.065  -0.179 -0.2020 -0.0982  0.0003
  918MOL0     C23828   2.191   3.953  -0.104 -0.0809  0.7630  0.1535
  918MOL0     C23829   2.199   3.827  -0.170  0.2685  0.7233  1.0049
  918MOL0     C23830   2.262   3.810  -0.298  0.6683  0.7626 -0.6880
  918MOL0     O23831   2.262   3.676  -0.347 -0.5625  0.0602  0.4381
  918MOL0     C23832   2.397   3.624  -0.360 -0.5854  0.1289  0.8458
  918MOL0     C23833   2.406   3.475  -0.343  0.5686  0.4779 -0.4355
  918MOL0     C23834   2.331   3.432  -0.217 -0.6491  0.5619 -1.2030
  918MOL0     C23835   2.415   3.454  -0.090  0.3705  0.2873  0.6862
  918MOL0     C23836   2.376   3.362   0.028  0.6747  0.1238  0.3900
  918MOL0     C23837   2.234   3.409   0.082 -0.4038 -0.1864  1.0547
  918MOL0     C23838   2.240   3.532   0.180  0.4362  0.0930 -0.2490
  918MOL0     C23839   2.103   3.554   0.246 -0.1698  0.4897  0.2521
  918MOL0    Cl23840   1.979   3.554   0.125  0.2394  0.0130 -0.4083
  918MOL0     C23841   2.310   3.919  -0.362 -0.5171 -0.5400  0.0512
  918MOL0     C23842   2.298   4.048  -0.305  0.5582 -1.2341 -0.0902
  918MOL0     O23843   2.120   4.299  -0.294 -0.3069  0.5950  0.4303
  918MOL0     C23844   2.226   4.456   0.014 -0.7628  0.1046 -0.6678
  918MOL0     C23845   2.205   4.558   0.089 -0.3716  0.2042 -0.0148
  918MOL0     N23846   1.643   5.240   0.289  0.7839  0.0419  0.4097
  918MOL0     N23847   1.575   5.344   0.312 -0.4729 -0.1553  0.3745
  918MOL0     C23848   0.843   6.104   0.980  0.5086 -1.0530 -0.6887
  918MOL0     C23849   0.732   6.162   1.040  0.7377  0.7769  0.1659
  918MOL0     C23850   0.425   6.267   1.330  0.3883  0.1330  0.4312
  918MOL0     C23851   0.399   6.403   1.354 -0.4320 -0.8529  0.1484
  918MOL0     C23852   0.275   6.452   1.389 -0.5432 -0.5974 -0.4084
  918MOL0     C23853   0.171   6.363   1.414 -0.0639  0.7667 -0.0248
  918MOL0     O23854   0.051   6.408   1.463 -0.7331  0.6229  0.5894
  918MOL0     C23855  -0.050   6.319   1.514 -0.4925 -1.2206  0.9884
  918MOL0     C23856  -0.178   6.389   1.493  0.3403 -0.4477 -1.1040
  918MOL0     C23857  -0.194   6.527   1.568  0.2613  0.1317 -0.2324
  918MOL0     C23858  -0.346   6.554   1.570  0.0203  0.5893  0.5388
  918MOL0     C23859  -0.386   6.669   1.652  0.1447  0.2500 -0.0449
  918MOL0     C23860  -0.429   6.768   1.705  0.1494  0.2853 -0.9122
  918MOL0     C23861   0.201   6.224   1.407  0.7726 -0.9209  0.2340
  918MOL0     C23862   0.323   6.181   1.366 -0.1742  0.5824  0.6597
  918MOL0     H23863   0.884   6.351   1.284  3.3036  1.4858 -0.0413
  918MOL0     H23864   1.081   6.257   1.169  1.2684 -2.5094  1.1907
  918MOL0     H23865   1.233   6.205   1.028 -0.4311 -0.0512  1.9904
  918MOL0     H23866   1.221   6.047   1.083  1.3556  2.7619  0.9403
  918MOL0     H23867   1.260   6.100   0.792  1.6086 -1.6487 -1.7058
  918MOL0     H23868   1.397   6.113   0.898  1.8240 -1.0569 -3.1137
  918MOL0     H23869   1.347   5.861   0.954  2.1165  0.8925 -0.4207
  918MOL0     H23870   1.231   5.869   0.822  0.4192  1.3765 -1.3284
  918MOL0     H23871   1.374   5.929   0.657 -0.9602 -3.2178 -1.6692
  918MOL0     H23872   1.505   5.967   0.778  1.3110 -1.9039 -0.1783
  918MOL0     H23873   1.564   5.736   0.792 -0.9879  1.4191  1.0831
  918MOL0     H23874   1.410   5.689   0.707  2.1988 -1.4009 -0.4328
  918MOL0     H23875   1.516   5.817   0.510 -3.6645 -0.8570  0.8384
  918MOL0     H23876   1.669   5.785   0.599  1.4434 -2.8368 -0.1898
  918MOL0     H23877   1.641   5.554   0.603  0.5489 -2.4054 -1.8398
  918MOL0     H23878   1.470   5.550   0.544  1.8132 -3.8202 -3.5597
  918MOL0     H23879   1.714   5.648   0.393 -1.1084  2.4481 -0.0935
  918MOL0     H23880   1.550   5.624   0.312 -1.8577  2.2826  1.4836
  918MOL0     H23881   1.867   5.439   0.424  0.6358  0.6643 -1.0234
  918MOL0     H23882   1.986   5.212   0.344  1.6445 -3.3125  3.0430
  918MOL0     H23883   1.875   5.107   0.429  1.0027 -0.2385 -0.8121
  918MOL0     H23884   1.915   5.121   0.129  1.5439 -0.0899  0.8381
  918MOL0     H23885   1.779   5.033   0.209  0.5486 -2.5943  4.2603
  918MOL0     H23886   1.945   4.903   0.344 -1.3698  3.2561  1.8270
  918MOL0     H23887   2.074   4.993   0.279 -0.3431  1.6535 -1.4068
  918MOL0     H23888   1.997   4.913   0.048 -1.1620 -0.9861 -0.6812
  918MOL0     H23889   1.882   4.809   0.117 -0.5978  1.2637 -2.2818
  918MOL0     H23890   1.906   4.661  -0.034  1.1160 -0.4062  2.1407
  918MOL0     H23891   1.928   4.473  -0.295  2.8954  1.1858  0.5220
  918MOL0     H23892   1.885   4.341  -0.181 -2.2062  0.3179  2.1378
  918MOL0     H23893   1.818   4.495  -0.152  0.5116 -2.3327  1.8036
  918MOL0     H23894   2.153   3.959  -0.003 -0.1365 -0.4786  0.2137
  918MOL0     H23895   2.159   3.741  -0.117 -1.1233  0.1217 -0.8986
  918MOL0     H23896   2.432   3.656  -0.458 -0.4224 -0.7050  0.6216
  918MOL0     H23897   2.462   3.670  -0.285 -1.3786  3.2819 -0.2872
  918MOL0     H23898   2.347   3.417  -0.413  0.1998  2.3911 -1.7712
  918MOL0     H23899   2.511   3.443  -0.337  0.4253  0.2331  1.5370
  918MOL0     H23900   2.315   3.324  -0.229  1.1700  0.0163  0.8160
  918MOL0     H23901   2.232   3.478  -0.208  0.0752  2.1714 -1.2072
  918MOL0     H23902   2.522   3.444  -0.111  0.1965  1.4253 -0.8862
  918MOL0     H23903   2.398   3.558  -0.064 -0.9159  0.1397  0.4716
  918MOL0     H23904   2.454   3.363   0.104  3.3443 -0.9643 -2.1435
  918MOL0     H23905   2.366   3.260  -0.009 -2.3207  0.7782 -0.8874
  918MOL0     H23906   2.165   3.414  -0.003  0.0566 -0.0631  0.6829
  918MOL0     H23907   2.196   3.334   0.152  0.7617 -0.7727  1.0726
  918MOL0     H23908   2.261   3.622   0.121 -1.3541  1.0762  0.5426
  918MOL0     H23909   2.315   3.514   0.258 -1.8455 -2.7397  1.5046
  918MOL0     H23910   2.103   3.649   0.301 -0.1466 -0.1805  1.4467
  918MOL0     H23911   2.083   3.481   0.324 -0.5637  0.2463 -0.0693
  918MOL0     H23912   2.354   3.923  -0.461 -0.2775  3.9473  0.1499
  918MOL0     H23913   2.333   4.133  -0.362  3.3037 -0.0182  3.0468
  918MOL0     H23914   2.312   4.391   0.024  0.2969  1.5852  0.0791
  918MOL0     H23915   2.260   4.576   0.181 -1.9579  0.4569  0.9209
  918MOL0     H23916   0.822   6.031   0.902 -2.1374 -1.4274  0.2694
  918MOL0     H23917   0.644   6.114   0.999 -0.0145 -0.2615  2.8104
  918MOL0     H23918   0.484   6.470   1.341 -0.8460 -0.4255 -0.4425
  918MOL0     H23919   0.257   6.559   1.387 -1.1252 -0.6443  1.1741
  918MOL0     H23920  -0.041   6.234   1.446  1.5184  0.4340 -0.9752
  918MOL0     H23921  -0.033   6.286   1.617 -1.4486  1.4438  2.0874
  918MOL0     H23922  -0.254   6.315   1.522 -1.1143  1.0352 -0.9831
  918MOL0     H23923  -0.187   6.411   1.387  0.0944  4.3806 -0.2966
  918MOL0     H23924  -0.136   6.601   1.512  3.0557 -2.5123 -1.1144
  918MOL0     H23925  -0.153   6.514   1.669 -2.2259  0.6483  0.9111
  918MOL0     H23926  -0.395   6.461   1.599 -1.5299  1.0127 -0.6079
  918MOL0     H23927  -0.381   6.575   1.468  1.6529  1.7717  0.1767
  918MOL0     H23928  -0.452   6.865   1.743 -0.7878  0.8423 -2.7497
  918MOL0     H23929   0.133   6.152   1.451 -3.5526  1.1792 -2.3558
  918MOL0     H23930   0.347   6.075   1.367  1.8512  0.9818  1.8407
  919MOL0     O23931   5.841  10.689   5.372 -0.6150  0.3059 -1.0778
  919MOL0     C23932   5.801  10.657   5.486 -0.4481 -1.2602  0.4418
  919MOL0     O23933   5.716  10.558   5.511 -0.0407 -0.3024 -1.4361
  919MOL0     C23934   5.669  10.454   5.431 -1.0347 -0.1409 -1.0020
  919MOL0     C23935   5.660  10.475   5.293 -0.4829 -0.3442 -0.2726
  919MOL0     C23936   5.623  10.372   5.212 -0.3125 -0.0995 -0.3386
  919MOL0     C23937   5.561  10.253   5.273  0.0605  0.3237 -0.1096
  919MOL0     O23938   5.518  10.145   5.205 -0.6404 -0.2658  0.1182
  919MOL0     C23939   5.427  10.153   5.094 -0.6309 -0.6591  0.2144
  919MOL0     C23940   5.297  10.229   5.139 -0.1666  0.1661 -0.0024
  919MOL0     C23941   5.179  10.254   5.034  0.0846 -0.8191 -0.9905
  919MOL0     C23942   5.049  10.297   5.113  0.8911 -0.3871  0.0656
  919MOL0     C23943   5.057  10.414   5.209 -0.4463 -0.4001 -0.1243
  919MOL0     C23944   5.064  10.556   5.137  0.0206 -0.4574 -0.1726
  919MOL0     C23945   5.071  10.661   5.248  0.6331 -0.1981 -1.0014
  919MOL0     C23946   4.930  10.678   5.292  0.6363  1.0606  0.5830
  919MOL0     N23947   4.930  10.733   5.423  0.9896 -0.2773 -0.5225
  919MOL0     C23948   4.912  10.660   5.548 -0.6338  0.2989  0.4499
  919MOL0     C23949   4.892  10.756   5.642 -0.4860 -0.6749  0.3190
  919MOL0     C23950   4.848  10.737   5.783 -0.2024 -0.1634  1.3252
  919MOL0     C23951   4.691  10.743   5.773  0.0946  0.2076 -0.2969
  919MOL0     C23952   4.640  10.886   5.773 -0.5084 -0.0256  0.6096
  919MOL0     C23953   4.487  10.889   5.822 -0.9738  0.5415 -0.4082
  919MOL0     O23954   4.448  11.029   5.847 -0.3597  0.1473 -0.2410
  919MOL0     C23955   4.348  11.046   5.944 -0.6232 -0.5694 -0.0918
  919MOL0     C23956   4.246  10.953   5.966  0.3818  0.3201 -0.6910
  919MOL0     C23957   4.161  10.963   6.083  0.1076 -1.0620 -0.1604
  919MOL0     C23958   4.058  10.855   6.106 -0.3329 -0.8135 -0.3629
  919MOL0     C23959   4.185  11.058   6.179  0.1439 -0.6306 -0.2130
  919MOL0     C23960   4.112  11.076   6.312  0.8258  1.1540 -1.2818
  919MOL0     O23961   4.095  10.971   6.393 -0.6404  0.8378 -0.2264
  919MOL0     C23962   4.058  10.991   6.519 -0.2481  0.2746  0.0556
  919MOL0     C23963   3.921  11.033   6.551  0.1379  0.0365 -0.4427
  919MOL0     C23964   3.874  11.030   6.671  0.9001  0.3353 -0.8443
  919MOL0     C23965   3.954  10.995   6.784  0.6702  0.4256 -0.1495
  919MOL0     O23966   3.890  10.983   6.901  1.1096  0.5088 -0.2219
  919MOL0     C23967   3.842  11.103   6.958 -0.1892  0.0528  0.0232
  919MOL0     C23968   3.781  11.071   7.107  0.2493  0.1347  0.4760
  919MOL0     C23969   3.888  11.030   7.208  0.0703  0.2736  0.5580
  919MOL0     C23970   3.828  11.004   7.345 -0.8501 -0.0919  0.6640
  919MOL0     C23971   3.928  10.935   7.432 -0.2509 -0.2616  0.4306
  919MOL0     C23972   3.895  10.938   7.586  0.4287 -0.8307  1.1151
  919MOL0     C23973   3.747  10.900   7.633 -0.5065  0.1617  0.0648
  919MOL0     C23974   3.729  10.889   7.786 -0.6261 -0.7458  0.1292
  919MOL0    Cl23975   3.561  10.865   7.810  0.0845 -0.3345  0.1166
  919MOL0     C23976   4.083  10.959   6.758 -0.1604  0.8428 -0.4913
  919MOL0     C23977   4.136  10.951   6.622  0.0940  0.6070  0.3918
  919MOL0     O23978   4.074  11.191   6.344  0.7906 -0.5701 -0.4838
  919MOL0     C23979   4.271  11.165   6.145  0.0014  0.6652 -1.0029
  919MOL0     C23980   4.354  11.156   6.034  1.2325  0.0611 -0.4917
  919MOL0     N23981   4.918  10.880   5.581  0.6362  0.2201  0.1597
  919MOL0     N23982   4.914  10.864   5.451  0.6581 -0.1428  0.6959
  919MOL0     C23983   5.541  10.249   5.413  0.1710  0.2029 -0.7613
  919MOL0     C23984   5.607  10.346   5.490  0.4903 -0.6075 -0.0364
  919MOL0     C23985   5.868  10.724   5.602 -0.1885 -0.0199  0.2063
  919MOL0     C23986   5.930  10.852   5.589  0.1206  0.0627 -0.4584
  919MOL0     C23987   5.984  10.926   5.692 -0.0929  0.4856 -0.9216
  919MOL0     C23988   5.977  10.878   5.825  0.6221  0.0000  0.4463
  919MOL0     O23989   6.031  10.932   5.930 -0.9006 -0.2574 -0.1460
  919MOL0     C23990   6.019  11.071   5.944 -0.0487  0.5092 -0.1752
  919MOL0     C23991   5.899  11.116   6.016 -0.0376  0.1607  0.1704
  919MOL0     C23992   5.880  11.046   6.153  0.3912 -0.5993  1.3821
  919MOL0     C23993   5.758  11.110   6.232 -0.5912  1.1673  0.2231
  919MOL0     C23994   5.634  11.129   6.152 -0.2032  0.5993 -0.1156
  919MOL0     C23995   5.533  11.157   6.104  0.0194 -0.0493  0.5408
  919MOL0     C23996   5.920  10.747   5.837 -0.5742 -0.5743  0.7830
  919MOL0     C23997   5.864  10.675   5.731  0.5920  0.5024 -0.0279
  919MOL0     H23998   5.714  10.558   5.248 -1.0735  0.4953  0.5358
  919MOL0     H23999   5.641  10.370   5.105  3.8377 -4.5147  0.0683
  919MOL0     H24000   5.473  10.196   5.004  0.9914 -1.1232  0.7908
  919MOL0     H24001   5.389  10.054   5.070 -1.5108 -0.5780  1.1868
  919MOL0     H24002   5.247  10.166   5.213 -0.8703  0.8522  0.1230
  919MOL0     H24003   5.324  10.330   5.169  1.1038  1.0247 -3.5350
  919MOL0     H24004   5.209  10.339   4.972 -1.4844 -0.0327 -0.6970
  919MOL0     H24005   5.166  10.157   4.984 -0.3115 -0.5270 -1.4580
  919MOL0     H24006   4.970  10.318   5.041  0.3980 -3.3982 -0.4327
  919MOL0     H24007   5.018  10.212   5.174  4.4755 -2.9063 -1.2026
  919MOL0     H24008   4.970  10.415   5.276  0.3413 -1.8736  0.9742
  919MOL0     H24009   5.149  10.407   5.267  0.3571  1.7409 -1.0365
  919MOL0     H24010   5.159  10.554   5.082  0.9979  0.7621  1.3892
  919MOL0     H24011   4.974  10.578   5.078 -2.4425  0.8300  3.6737
  919MOL0     H24012   5.153  10.643   5.318  0.0104 -1.8933 -0.6569
  919MOL0     H24013   5.085  10.760   5.204 -1.8316  0.7737  0.2421
  919MOL0     H24014   4.861  10.593   5.288 -2.0035  3.0881 -2.3381
  919MOL0     H24015   4.870  10.741   5.225 -1.5634 -1.9821 -0.5443
  919MOL0     H24016   4.896  10.553   5.562  0.2325  0.3213  1.8179
  919MOL0     H24017   4.885  10.639   5.816  0.7040 -1.1879 -2.2615
  919MOL0     H24018   4.887  10.809   5.856  0.1432  0.1295  0.8607
  919MOL0     H24019   4.660  10.686   5.861  0.4596 -3.3524 -2.2781
  919MOL0     H24020   4.656  10.685   5.688 -0.2415  3.1838 -2.3363
  919MOL0     H24021   4.661  10.931   5.676  1.4901 -2.4463 -0.2315
  919MOL0     H24022   4.701  10.933   5.850  0.1689 -1.3450  0.9210
  919MOL0     H24023   4.490  10.841   5.920  2.1316  2.0318  0.3499
  919MOL0     H24024   4.438  10.838   5.738 -1.1422  1.5273 -0.9216
  919MOL0     H24025   4.232  10.859   5.914 -0.5524 -1.2306  2.1133
  919MOL0     H24026   4.019  10.794   6.024 -0.6498 -1.8291  0.5171
  919MOL0     H24027   4.103  10.783   6.174  1.9144  0.8720  0.0357
  919MOL0     H24028   3.975  10.892   6.166  1.1940  1.2252  0.6207
  919MOL0     H24029   3.858  11.052   6.464  0.3783 -0.0543 -0.6398
  919MOL0     H24030   3.769  11.055   6.677  0.9275  0.6937 -1.7190
  919MOL0     H24031   3.919  11.180   6.950  0.4044 -0.7347 -4.2109
  919MOL0     H24032   3.758  11.133   6.894  1.9416 -1.3635 -3.8176
  919MOL0     H24033   3.722  11.151   7.153  2.6523 -0.1273  4.5812
  919MOL0     H24034   3.718  10.983   7.096 -0.8471  1.0742 -1.2379
  919MOL0     H24035   3.961  11.110   7.218  0.7335 -0.3601  0.8768
  919MOL0     H24036   3.938  10.936   7.184  1.7036  1.8775 -3.0269
  919MOL0     H24037   3.805  11.104   7.384 -2.0748 -0.1810  0.2089
  919MOL0     H24038   3.744  10.935   7.337 -1.0611 -0.2119  3.1520
  919MOL0     H24039   4.032  10.967   7.427  0.9595 -3.8801 -1.4765
  919MOL0     H24040   3.932  10.832   7.393  1.0518 -0.0700  0.0128
  919MOL0     H24041   3.964  10.879   7.646  1.4278  0.5153  1.3126
  919MOL0     H24042   3.917  11.041   7.613  1.7252  0.1494 -2.9555
  919MOL0     H24043   3.718  10.801   7.594 -0.6376 -0.7711  2.3896
  919MOL0     H24044   3.678  10.979   7.603  0.6115  2.1132  2.3159
  919MOL0     H24045   3.745  10.979   7.846 -0.5704  0.1391 -1.1558
  919MOL0     H24046   3.790  10.804   7.817 -1.0919 -0.4484  1.9838
  919MOL0     H24047   4.137  10.919   6.843 -1.0879 -0.5412 -0.5214
  919MOL0     H24048   4.231  10.904   6.598 -0.4214 -1.2884  1.8327
  919MOL0     H24049   4.287  11.248   6.213  0.9586  1.0700 -1.7065
  919MOL0     H24050   4.418  11.244   6.023  1.9412 -0.5101 -1.0713
  919MOL0     H24051   5.480  10.168   5.451  2.2230 -0.7304  0.7492
  919MOL0     H24052   5.591  10.349   5.598  1.1596  0.1061  0.0444
  919MOL0     H24053   5.952  10.898   5.493  3.1289  0.5563  0.3368
  919MOL0     H24054   6.023  11.025   5.672  0.3026  1.2699  2.9282
  919MOL0     H24055   6.104  11.093   6.009  0.8875  0.0100 -1.2049
  919MOL0     H24056   6.024  11.141   5.860 -1.7342 -0.0056 -0.7491
  919MOL0     H24057   5.813  11.104   5.949 -1.8659  2.8861  1.8185
  919MOL0     H24058   5.918  11.223   6.032  0.3490  0.0224  0.6504
  919MOL0     H24059   5.979  11.059   6.199  1.8639 -1.5828 -1.3169
  919MOL0     H24060   5.872  10.938   6.142  1.9793 -0.6408  0.2959
  919MOL0     H24061   5.796  11.200   6.283 -3.1659  0.9773  2.7235
  919MOL0     H24062   5.724  11.045   6.312 -2.6514  1.6080 -0.2354
  919MOL0     H24063   5.441  11.181   6.055 -0.1639  0.3009  1.0422
  919MOL0     H24064   5.912  10.703   5.936 -0.7163 -0.8345  0.6562
  919MOL0     H24065   5.831  10.573   5.746 -2.0859  1.2867 -0.0893
  920MOL0     O24066   8.445  10.280   6.398  0.2775  0.1540 -0.4267
  920MOL0     C24067   8.415  10.186   6.329 -0.5931  0.5702  0.0925
  920MOL0     O24068   8.417  10.186   6.199  0.4688 -0.7034 -0.2076
  920MOL0     C24069   8.482  10.089   6.128  0.3357 -0.4184 -0.7119
  920MOL0     C24070   8.447  10.061   5.998 -0.1751 -0.1927 -0.5645
  920MOL0     C24071   8.502   9.965   5.919 -0.3093 -0.1591 -0.0872
  920MOL0     C24072   8.622   9.905   5.965  0.3324  1.2934 -0.6464
  920MOL0     O24073   8.692   9.804   5.904  0.0659 -0.1691 -0.8738
  920MOL0     C24074   8.647   9.763   5.774 -0.6028  0.7294 -0.4314
  920MOL0     C24075   8.759   9.658   5.738 -0.2598  0.0659 -0.2754
  920MOL0     C24076   8.757   9.538   5.821  0.1301  0.4610 -0.1504
  920MOL0     C24077   8.846   9.423   5.763 -0.2391  0.2267 -0.3146
  920MOL0     C24078   8.819   9.282   5.826 -0.4993 -0.6730 -0.5167
  920MOL0     C24079   8.890   9.274   5.962 -0.4395  0.1057 -0.0163
  920MOL0     C24080   8.874   9.142   6.039  0.2201 -0.1754 -0.3486
  920MOL0     C24081   8.949   9.023   5.984  0.4387 -0.2056  0.3895
  920MOL0     N24082   8.990   8.926   6.089 -0.0147 -0.0488  0.8024
  920MOL0     C24083   9.087   8.948   6.176 -0.0511 -0.5378 -0.5426
  920MOL0     C24084   9.114   8.834   6.235  0.1118  0.2560 -0.5120
  920MOL0     C24085   9.200   8.808   6.349 -0.2245 -0.3847 -0.4006
  920MOL0     C24086   9.349   8.776   6.307 -0.6095 -0.1385  0.6565
  920MOL0     C24087   9.371   8.653   6.217  0.9904 -0.1813 -0.2866
  920MOL0     C24088   9.484   8.569   6.266  0.6077 -0.6637 -0.0702
  920MOL0     O24089   9.485   8.449   6.177  0.0339  0.2797  0.0407
  920MOL0     C24090   9.580   8.443   6.084  0.1338 -1.4375  0.0383
  920MOL0     C24091   9.607   8.546   6.002  0.6518  0.0769  0.6219
  920MOL0     C24092   9.713   8.542   5.906 -0.2947 -1.1647  0.5135
  920MOL0     C24093   9.728   8.673   5.820  0.1404  0.4913 -0.8347
  920MOL0     C24094   9.796   8.432   5.892  1.4207  0.0538  0.0323
  920MOL0     C24095   9.907   8.417   5.794 -0.8845  0.4615 -0.8605
  920MOL0     O24096   9.948   8.291   5.756 -0.1161 -0.0702 -0.6324
  920MOL0     C24097  10.060   8.278   5.681  0.0404 -0.4456  0.4001
  920MOL0     C24098  10.103   8.362   5.575  0.1267 -0.7869 -0.5385
  920MOL0     C24099  10.215   8.319   5.498  0.2246 -0.4472 -0.6933
  920MOL0     C24100  10.288   8.208   5.526  0.3264 -0.0501 -0.5874
  920MOL0     O24101  10.403   8.178   5.462  0.7235  0.1730 -0.3745
  920MOL0     C24102  10.492   8.284   5.425  0.0687 -1.0813  0.4502
  920MOL0     C24103  10.634   8.236   5.410  0.2948 -0.1109 -0.1855
  920MOL0     C24104  10.715   8.198   5.542  0.1120 -0.0177  0.2894
  920MOL0     C24105  10.673   8.065   5.614  0.0698 -0.7639 -0.2591
  920MOL0     C24106  10.774   8.023   5.716  0.4265 -0.1340  0.5794
  920MOL0     C24107  10.725   7.901   5.791 -0.2489 -0.3477 -0.3396
  920MOL0     C24108  10.842   7.810   5.848  0.2705  0.5662  0.1734
  920MOL0     C24109  10.926   7.726   5.753  0.3100 -0.7427 -1.1740
  920MOL0    Cl24110  10.818   7.619   5.653  0.0502 -0.1380  0.2822
  920MOL0     C24111  10.243   8.117   5.621  1.0892  0.6096 -0.6672
  920MOL0     C24112  10.125   8.150   5.696 -0.2264  0.1910  0.4141
  920MOL0     O24113   9.976   8.514   5.770  0.0104  0.0005 -1.0201
  920MOL0     C24114   9.755   8.328   5.965  0.4648 -0.7911  0.2436
  920MOL0     C24115   9.648   8.327   6.058  0.6831 -0.0849  1.0001
  920MOL0     N24116   9.023   8.744   6.193 -0.0483  0.2556 -0.1227
  920MOL0     N24117   8.942   8.805   6.112 -0.5329 -0.2005 -0.1265
  920MOL0     C24118   8.664   9.934   6.096  0.6091 -0.2698  0.4226
  920MOL0     C24119   8.603  10.031   6.175  1.0221 -0.0967 -0.7805
  920MOL0     C24120   8.350  10.073   6.397 -0.2589  0.1231 -0.8522
  920MOL0     C24121   8.255   9.988   6.337 -0.3467  1.1172  1.4901
  920MOL0     C24122   8.184   9.894   6.409  0.5962 -0.1542  0.0362
  920MOL0     C24123   8.208   9.884   6.545 -0.8124  0.4231  0.3170
  920MOL0     O24124   8.117   9.806   6.612  0.1916  0.3474  0.0892
  920MOL0     C24125   8.153   9.735   6.727 -1.1034  1.2104  0.0156
  920MOL0     C24126   8.056   9.618   6.750  0.3860  1.2802  0.0050
  920MOL0     C24127   7.904   9.646   6.710 -0.0150 -0.4785 -0.3197
  920MOL0     C24128   7.796   9.540   6.729 -0.1671 -0.2357  0.5739
  920MOL0     C24129   7.838   9.409   6.667  0.4277 -0.0301  0.2492
  920MOL0     C24130   7.879   9.311   6.618  0.5964 -0.7656  0.4346
  920MOL0     C24131   8.312   9.960   6.607  0.0312  0.5336 -0.2915
  920MOL0     C24132   8.383  10.052   6.534  0.3640 -0.1043 -0.2745
  920MOL0     H24133   8.359  10.116   5.965  0.4096  1.2437  0.1782
  920MOL0     H24134   8.450   9.945   5.826 -2.0927 -0.5680  0.9359
  920MOL0     H24135   8.551   9.712   5.770 -0.3005  0.1978 -3.3863
  920MOL0     H24136   8.650   9.850   5.707 -1.1362 -0.5371 -2.1726
  920MOL0     H24137   8.734   9.616   5.640 -3.5850 -2.9252  1.6012
  920MOL0     H24138   8.860   9.699   5.737  0.5047 -1.6402  1.1327
  920MOL0     H24139   8.781   9.563   5.925  2.4752 -0.9259 -0.2744
  920MOL0     H24140   8.658   9.494   5.840  0.2408  0.6247  0.8732
  920MOL0     H24141   8.835   9.428   5.654 -4.2613 -0.2860 -0.0867
  920MOL0     H24142   8.952   9.434   5.784  0.3461 -5.2570  1.3732
  920MOL0     H24143   8.712   9.261   5.834 -0.2054 -3.2564 -2.2502
  920MOL0     H24144   8.858   9.203   5.762  2.3809 -0.9825  1.4218
  920MOL0     H24145   8.998   9.288   5.952 -0.4386  1.7262  1.7828
  920MOL0     H24146   8.858   9.351   6.032  0.4469  0.3911  0.0913
  920MOL0     H24147   8.926   9.156   6.134  0.4260 -1.0019 -0.3258
  920MOL0     H24148   8.769   9.114   6.053  0.5966 -2.9739 -2.1458
  920MOL0     H24149   9.047   9.050   5.942  1.0727 -1.9394  0.6827
  920MOL0     H24150   8.893   8.963   5.912  1.2429  0.4807 -0.8416
  920MOL0     H24151   9.132   9.045   6.199 -1.9251  0.1051  0.7056
  920MOL0     H24152   9.193   8.902   6.404 -0.8839 -0.6241 -0.0519
  920MOL0     H24153   9.168   8.733   6.423  3.8030 -1.9776 -0.0401
  920MOL0     H24154   9.410   8.766   6.397  1.2898  0.1580 -0.5605
  920MOL0     H24155   9.395   8.859   6.252 -1.0288 -0.6606 -0.5066
  920MOL0     H24156   9.375   8.695   6.116  1.4894  1.2466  0.3055
  920MOL0     H24157   9.285   8.585   6.222  0.1875  0.9201  1.7329
  920MOL0     H24158   9.469   8.522   6.364  0.5377 -1.5718 -0.5044
  920MOL0     H24159   9.579   8.624   6.269  0.3950 -0.1859 -1.3887
  920MOL0     H24160   9.541   8.632   6.013 -2.0954 -1.6975 -0.8457
  920MOL0     H24161   9.810   8.740   5.849 -1.2176  1.7793  0.1664
  920MOL0     H24162   9.752   8.642   5.717  0.5957 -0.3123 -0.5030
  920MOL0     H24163   9.633   8.726   5.826  0.3451  1.0862 -2.3694
  920MOL0     H24164  10.041   8.448   5.555 -0.4494 -0.0767  3.4695
  920MOL0     H24165  10.245   8.391   5.422 -0.5549  1.1018  0.3980
  920MOL0     H24166  10.456   8.319   5.328  2.0095  0.5165  0.2527
  920MOL0     H24167  10.485   8.367   5.496  1.3070 -0.8504  0.3232
  920MOL0     H24168  10.629   8.148   5.344 -1.1606 -0.3831  0.2510
  920MOL0     H24169  10.694   8.316   5.367  1.0912 -0.5983  0.0031
  920MOL0     H24170  10.709   8.283   5.611  2.4167 -1.2150  2.1241
  920MOL0     H24171  10.818   8.195   5.506 -0.6467  1.3201 -2.2234
  920MOL0     H24172  10.576   8.081   5.662  2.0498  2.1034  3.3137
  920MOL0     H24173  10.664   7.983   5.542 -1.3447 -0.5682 -0.3279
  920MOL0     H24174  10.773   8.091   5.802  2.5545  0.8660 -0.1057
  920MOL0     H24175  10.874   8.004   5.675 -0.2595 -3.4123  0.1798
  920MOL0     H24176  10.656   7.927   5.871 -2.5986 -0.6648 -2.1437
  920MOL0     H24177  10.667   7.846   5.716 -3.0280  2.0114 -0.0881
  920MOL0     H24178  10.784   7.747   5.916 -0.2761  1.7524  0.8564
  920MOL0     H24179  10.908   7.883   5.897 -3.7312  4.3158  0.6154
  920MOL0     H24180  11.003   7.670   5.806  1.5785  3.5304  2.0673
  920MOL0     H24181  10.982   7.799   5.694  0.2776  1.7858  1.7037
  920MOL0     H24182  10.286   8.022   5.651  2.2591  2.2585  3.5237
  920MOL0     H24183  10.098   8.088   5.780  0.5556  1.5835  1.7612
  920MOL0     H24184   9.804   8.232   5.959 -1.0079 -1.6043  0.5705
  920MOL0     H24185   9.616   8.237   6.110 -1.4109  0.9064  1.5227
  920MOL0     H24186   8.747   9.879   6.140  1.3214  1.6362  1.5954
  920MOL0     H24187   8.645  10.073   6.266  1.4078 -1.6790 -0.1929
  920MOL0     H24188   8.240   9.989   6.229 -3.3982 -0.5336  1.7606
  920MOL0     H24189   8.102   9.848   6.355  2.1639 -1.1743 -1.5944
  920MOL0     H24190   8.254   9.695   6.719 -0.9813  1.1655  1.4543
  920MOL0     H24191   8.151   9.807   6.810  0.8896  1.9564 -0.5169
  920MOL0     H24192   8.055   9.602   6.858 -2.3160  4.3027  0.5793
  920MOL0     H24193   8.082   9.525   6.697 -0.5427  0.2996  1.2073
  920MOL0     H24194   7.920   9.660   6.603  0.6019  1.5568  0.0032
  920MOL0     H24195   7.863   9.739   6.749 -2.7032 -1.7211  0.0536
  920MOL0     H24196   7.706   9.581   6.681 -0.0486 -0.8660 -0.1982
  920MOL0     H24197   7.773   9.539   6.836 -1.2659  2.2281  0.4301
  920MOL0     H24198   7.928   9.217   6.609 -1.7755 -2.0723  0.5255
  920MOL0     H24199   8.325   9.937   6.713  2.4621 -0.0480 -0.6508
  920MOL0     H24200   8.465  10.104   6.582 -0.3260  3.0542 -2.1536
  921MOL0     O24201   1.340   1.954   1.637 -0.0783 -0.4116  0.0517
  921MOL0     C24202   1.377   2.066   1.586  0.1400  0.0461 -0.5487
  921MOL0     O24203   1.479   2.085   1.505  0.4445 -0.2309  0.3710
  921MOL0     C24204   1.534   1.992   1.423 -0.1228 -0.0985 -0.2062
  921MOL0     C24205   1.605   2.051   1.322 -0.3052 -0.0662  0.1694
  921MOL0     C24206   1.665   1.960   1.220  0.4644  0.1061  0.1228
  921MOL0     C24207   1.659   1.824   1.241  0.2974  0.2824 -0.7830
  921MOL0     O24208   1.726   1.752   1.145 -0.4114  0.3685  0.4922
  921MOL0     C24209   1.720   1.610   1.151 -0.2341 -0.2665 -1.1813
  921MOL0     C24210   1.805   1.549   1.038  0.4750  0.2806  0.0183
  921MOL0     C24211   1.737   1.510   0.907 -0.2860  0.0801 -0.7418
  921MOL0     C24212   1.627   1.617   0.869  0.0862 -0.1898 -0.1710
  921MOL0     C24213   1.578   1.585   0.725 -0.1057 -0.1268  0.9673
  921MOL0     C24214   1.442   1.630   0.690  0.0984  0.8870 -0.6810
  921MOL0     C24215   1.409   1.773   0.717 -0.2832 -0.4864 -0.6165
  921MOL0     C24216   1.268   1.829   0.689 -0.9772  0.1541 -0.0837
  921MOL0     N24217   1.231   1.840   0.550  0.2897  0.3763  0.7723
  921MOL0     C24218   1.150   1.939   0.509 -0.1139  0.4712  0.7111
  921MOL0     C24219   1.099   1.894   0.385 -1.0459  0.0341 -1.3447
  921MOL0     C24220   0.997   1.963   0.309  0.0372 -0.3766 -0.0687
  921MOL0     C24221   1.044   2.101   0.251  0.2278 -1.1726 -0.4822
  921MOL0     C24222   0.936   2.190   0.180  0.3941 -0.3290  0.3163
  921MOL0     C24223   0.861   2.274   0.279 -0.2101  0.1040 -0.0583
  921MOL0     O24224   0.757   2.337   0.212 -0.0828 -1.1502 -0.4244
  921MOL0     C24225   0.657   2.382   0.292 -0.5757 -0.5655  0.0465
  921MOL0     C24226   0.684   2.438   0.418 -0.5800 -0.4982 -0.7068
  921MOL0     C24227   0.581   2.477   0.513 -0.5123  0.1182 -0.0962
  921MOL0     C24228   0.641   2.541   0.640 -0.0637  0.3266 -0.0887
  921MOL0     C24229   0.448   2.448   0.465  0.4765  0.1046  0.3414
  921MOL0     C24230   0.329   2.455   0.565  0.4770 -0.8156 -0.4045
  921MOL0     O24231   0.211   2.401   0.529 -0.0220 -0.0297  0.0882
  921MOL0     C24232   0.109   2.391   0.624  0.4245 -0.8163  1.0257
  921MOL0     C24233  -0.001   2.476   0.603 -1.3977 -0.5192  0.0761
  921MOL0     C24234  -0.107   2.470   0.694 -0.8221 -0.0205  0.2289
  921MOL0     C24235  -0.107   2.372   0.798  0.2262 -0.4842  1.7714
  921MOL0     O24236  -0.218   2.363   0.873  0.2725  0.3085 -0.1164
  921MOL0     C24237  -0.224   2.282   0.984 -0.3535 -0.3530 -1.2595
  921MOL0     C24238  -0.361   2.308   1.042 -0.3878  0.0285 -1.0171
  921MOL0     C24239  -0.470   2.302   0.950 -0.1946  0.7220  1.2933
  921MOL0     C24240  -0.603   2.301   1.017 -0.2897  0.4088 -0.4544
  921MOL0     C24241  -0.629   2.419   1.114  0.5996  0.4079  0.2973
  921MOL0     C24242  -0.765   2.395   1.187  0.6320 -0.5631  0.6620
  921MOL0     C24243  -0.755   2.327   1.326  0.6291  0.2650  0.0112
  921MOL0     C24244  -0.688   2.409   1.441 -0.4029  1.8532 -0.6272
  921MOL0    Cl24245  -0.516   2.389   1.448  0.5200  0.5476 -0.3457
  921MOL0     C24246   0.009   2.295   0.822  0.6123  0.0695  0.1836
  921MOL0     C24247   0.117   2.307   0.733 -0.0375  0.6809 -0.6426
  921MOL0     O24248   0.342   2.521   0.675 -0.2778  0.4832  0.8174
  921MOL0     C24249   0.428   2.389   0.340  0.2550 -0.8718  0.1796
  921MOL0     C24250   0.530   2.373   0.252  0.7352 -0.2357 -0.1309
  921MOL0     N24251   1.162   1.777   0.353 -0.0949 -0.0672  0.0021
  921MOL0     N24252   1.236   1.737   0.462  0.2656  0.0700 -0.3853
  921MOL0     C24253   1.617   1.770   1.356 -0.0908  0.3306 -0.1254
  921MOL0     C24254   1.539   1.853   1.436 -0.3890  0.3107 -1.0221
  921MOL0     C24255   1.299   2.198   1.630 -0.4716  0.0735  1.0420
  921MOL0     C24256   1.302   2.306   1.542 -1.1863 -0.2088  0.0908
  921MOL0     C24257   1.242   2.425   1.582 -0.5281 -1.6887  1.0295
  921MOL0     C24258   1.166   2.435   1.706 -0.1929  0.3242 -0.5726
  921MOL0     O24259   1.117   2.556   1.736 -0.9944 -0.4233  0.5374
  921MOL0     C24260   1.009   2.569   1.823  0.0019 -0.7285 -0.1907
  921MOL0     C24261   0.875   2.523   1.761  0.0380 -0.4989 -0.0757
  921MOL0     C24262   0.751   2.573   1.847 -0.0489  0.8455  0.2637
  921MOL0     C24263   0.616   2.548   1.780  0.8143 -0.6125 -0.5596
  921MOL0     C24264   0.496   2.585   1.863  0.1381  0.3274 -0.0994
  921MOL0     C24265   0.416   2.636   1.945 -0.5058 -0.6733 -0.1167
  921MOL0     C24266   1.156   2.324   1.780  1.1181  0.3538 -0.4453
  921MOL0     C24267   1.215   2.201   1.741 -0.5179 -1.1941 -0.2738
  921MOL0     H24268   1.599   2.157   1.301  0.7910 -0.4213 -2.2516
  921MOL0     H24269   1.719   2.003   1.137 -0.2217  1.0044  0.1280
  921MOL0     H24270   1.766   1.572   1.243 -0.0014  0.3829 -1.0235
  921MOL0     H24271   1.618   1.574   1.142 -1.3347  2.5642 -1.1087
  921MOL0     H24272   1.875   1.629   1.013 -1.9306  2.7523  0.8045
  921MOL0     H24273   1.864   1.467   1.081  2.3490  1.6285  0.1199
  921MOL0     H24274   1.813   1.500   0.830  0.5339  2.7649 -0.3879
  921MOL0     H24275   1.690   1.414   0.932 -0.0305  0.5101  1.5546
  921MOL0     H24276   1.545   1.623   0.941  0.7862 -1.0806  0.7250
  921MOL0     H24277   1.665   1.719   0.863 -1.8322  0.8692  3.0533
  921MOL0     H24278   1.655   1.628   0.661 -0.3408  1.1268  1.5005
  921MOL0     H24279   1.594   1.477   0.713  5.5365  0.7128 -3.0814
  921MOL0     H24280   1.420   1.607   0.585  2.3591  2.2884 -1.5370
  921MOL0     H24281   1.369   1.570   0.744  1.2502 -0.3806 -0.4634
  921MOL0     H24282   1.438   1.803   0.818 -0.3360 -1.1881 -0.3867
  921MOL0     H24283   1.479   1.825   0.651  2.0730 -1.3823  1.0303
  921MOL0     H24284   1.253   1.929   0.729 -1.5591  0.8095 -1.8324
  921MOL0     H24285   1.198   1.766   0.744  0.1251 -2.0918 -1.0920
  921MOL0     H24286   1.134   2.034   0.559  2.4276  0.0670  2.5427
  921MOL0     H24287   0.972   1.905   0.219  0.7261  0.3386 -0.7328
  921MOL0     H24288   0.903   1.974   0.365  1.9070 -0.6085  3.3476
  921MOL0     H24289   1.123   2.079   0.179 -0.3534 -2.4003 -0.7797
  921MOL0     H24290   1.089   2.156   0.333 -3.2593  2.9674 -0.9661
  921MOL0     H24291   0.868   2.130   0.119 -0.7571 -0.1329  1.3935
  921MOL0     H24292   0.980   2.261   0.109 -0.3880 -0.4007 -0.2506
  921MOL0     H24293   0.929   2.341   0.333 -0.6292 -1.0646  2.0248
  921MOL0     H24294   0.829   2.205   0.358  1.6610 -2.1370 -1.1244
  921MOL0     H24295   0.784   2.471   0.446 -0.9150  0.6236 -0.7662
  921MOL0     H24296   0.592   2.501   0.729  2.0040 -0.2861  0.8350
  921MOL0     H24297   0.750   2.531   0.649 -0.1894  0.7726  3.7641
  921MOL0     H24298   0.624   2.648   0.632  3.1764  0.9284 -0.5217
  921MOL0     H24299   0.005   2.557   0.532  3.1345  0.5594  1.3549
  921MOL0     H24300  -0.187   2.543   0.697  1.6115  2.9280 -1.1591
  921MOL0     H24301  -0.220   2.176   0.955 -0.1959 -0.3581 -1.2215
  921MOL0     H24302  -0.141   2.300   1.053  0.8682 -2.2825 -2.1427
  921MOL0     H24303  -0.372   2.238   1.125  2.0324  1.0104  0.2400
  921MOL0     H24304  -0.360   2.406   1.090 -1.9993  0.0692 -1.0200
  921MOL0     H24305  -0.458   2.202   0.907 -0.4510  1.6496 -1.0994
  921MOL0     H24306  -0.472   2.374   0.868 -3.9636 -2.0908 -1.4867
  921MOL0     H24307  -0.686   2.290   0.947 -1.6305 -0.3176  1.1765
  921MOL0     H24308  -0.605   2.213   1.082 -0.1077  1.6458  1.3093
  921MOL0     H24309  -0.642   2.506   1.048 -2.7253 -0.5319 -0.4685
  921MOL0     H24310  -0.549   2.442   1.185 -0.3057  2.6984  0.6763
  921MOL0     H24311  -0.809   2.493   1.205  3.5453  1.7903 -3.3624
  921MOL0     H24312  -0.833   2.335   1.126  0.7055 -0.1209  0.1363
  921MOL0     H24313  -0.724   2.222   1.318 -4.2751 -1.6779  2.4213
  921MOL0     H24314  -0.853   2.312   1.372  2.3913  0.2858  4.2401
  921MOL0     H24315  -0.738   2.374   1.531 -1.7800 -0.1662 -2.0702
  921MOL0     H24316  -0.714   2.514   1.421  1.1259  2.3587 -0.1185
  921MOL0     H24317   0.014   2.216   0.896 -2.9347  1.4492  2.1383
  921MOL0     H24318   0.204   2.242   0.736 -0.2609  0.3331 -1.3386
  921MOL0     H24319   0.326   2.362   0.313 -0.5548  0.0207  2.1755
  921MOL0     H24320   0.503   2.336   0.154 -1.5013  2.0258 -0.5034
  921MOL0     H24321   1.633   1.664   1.376 -0.4595 -0.5208 -3.6028
  921MOL0     H24322   1.502   1.804   1.526  1.4454 -0.8058 -0.8242
  921MOL0     H24323   1.374   2.312   1.461  0.6847 -1.1788  1.6235
  921MOL0     H24324   1.246   2.519   1.529 -2.5595  0.5566  4.5040
  921MOL0     H24325   1.032   2.519   1.918  2.0595 -3.1954 -1.8419
  921MOL0     H24326   1.018   2.675   1.850  1.4274 -1.3079  1.9173
  921MOL0     H24327   0.865   2.414   1.751 -2.1871 -0.2962 -0.4428
  921MOL0     H24328   0.868   2.576   1.666 -3.1431  4.0450  2.3462
  921MOL0     H24329   0.748   2.681   1.857 -0.9026  0.7070  1.7295
  921MOL0     H24330   0.749   2.536   1.950 -1.0665 -0.2240 -0.1204
  921MOL0     H24331   0.609   2.444   1.747  2.5383 -0.3496 -1.9082
  921MOL0     H24332   0.617   2.622   1.700 -2.2627  1.8313  1.4224
  921MOL0     H24333   0.332   2.673   1.999  0.0691  2.1604 -1.0156
  921MOL0     H24334   1.085   2.320   1.862 -0.5285  3.5459 -1.5165
  921MOL0     H24335   1.210   2.113   1.804  1.2774 -0.3799  1.1353
  922MOL0     O24336   8.765   0.424   8.097 -0.8966  0.0221 -0.3365
  922MOL0     C24337   8.767   0.331   8.012  0.0912  0.2642 -0.7557
  922MOL0     O24338   8.807   0.339   7.889 -0.8133  0.3641  0.0798
  922MOL0     C24339   8.837   0.465   7.840  0.1714  0.4670 -0.7510
  922MOL0     C24340   8.920   0.557   7.912 -0.0917  0.2100  0.1188
  922MOL0     C24341   8.959   0.679   7.853  0.4566 -0.5843 -0.3733
  922MOL0     C24342   8.920   0.707   7.718  0.5244  0.2601  0.0328
  922MOL0     O24343   8.943   0.822   7.658 -0.6679 -0.2596  0.3446
  922MOL0     C24344   9.042   0.903   7.716  0.4419 -0.1306 -1.1120
  922MOL0     C24345   9.078   1.012   7.620 -0.9370  0.1216 -0.4618
  922MOL0     C24346   8.959   1.097   7.571 -0.0049 -0.4303  0.0951
  922MOL0     C24347   9.017   1.239   7.542  0.5970  0.0040  0.3725
  922MOL0     C24348   9.124   1.227   7.432 -0.2764 -0.4936 -0.0326
  922MOL0     C24349   9.155   1.371   7.378  0.2683  1.0893  0.9701
  922MOL0     C24350   9.233   1.356   7.239  0.3576  0.5061  0.5750
  922MOL0     C24351   9.382   1.410   7.258  0.4504  0.1023  0.2394
  922MOL0     N24352   9.449   1.327   7.360 -0.7235  0.4424  0.5755
  922MOL0     C24353   9.467   1.361   7.486  0.1370  0.7596  0.9461
  922MOL0     C24354   9.540   1.255   7.540 -0.2162 -0.4100 -1.0474
  922MOL0     C24355   9.612   1.254   7.682  0.4079 -0.1456  0.5662
  922MOL0     C24356   9.566   1.148   7.785 -0.7674 -1.0094 -0.2172
  922MOL0     C24357   9.412   1.162   7.817 -0.2519 -0.0673 -0.0861
  922MOL0     C24358   9.384   1.031   7.897 -0.1223 -0.5899 -1.2658
  922MOL0     O24359   9.261   1.034   7.966  0.0600 -0.6882 -0.4075
  922MOL0     C24360   9.240   0.930   8.052 -0.1293 -0.1119 -0.1790
  922MOL0     C24361   9.111   0.915   8.093 -0.8401 -0.6586  0.6683
  922MOL0     C24362   9.064   0.810   8.177  1.1262 -0.3541  0.3118
  922MOL0     C24363   8.911   0.813   8.210 -0.1412  0.0431  0.2820
  922MOL0     C24364   9.161   0.712   8.227  0.1706 -0.8254  0.1139
  922MOL0     C24365   9.123   0.603   8.317 -0.6040  0.0456  0.8367
  922MOL0     O24366   9.202   0.497   8.310 -0.0586  0.6477 -0.1168
  922MOL0     C24367   9.144   0.391   8.370  0.3907  0.1286  0.1176
  922MOL0     C24368   9.065   0.308   8.292  0.0288  0.0958 -0.4674
  922MOL0     C24369   9.009   0.183   8.349 -0.4907 -0.2531  0.1011
  922MOL0     C24370   9.044   0.153   8.482 -0.1043 -0.0053  0.4479
  922MOL0     O24371   8.983   0.047   8.544 -0.1474 -0.4262  0.4160
  922MOL0     C24372   8.853   0.055   8.587  0.2137 -0.0329 -0.4028
  922MOL0     C24373   8.778  -0.069   8.536  0.3252  0.4830 -0.2201
  922MOL0     C24374   8.872  -0.192   8.531  0.5592  1.2310  0.6012
  922MOL0     C24375   8.930  -0.223   8.667 -0.5219  0.1339  0.5693
  922MOL0     C24376   9.039  -0.336   8.650 -0.1635 -1.0282 -0.7948
  922MOL0     C24377   9.070  -0.409   8.778 -0.8673 -1.3189  0.0932
  922MOL0     C24378   8.955  -0.504   8.809 -0.2848 -0.3079 -0.2097
  922MOL0     C24379   8.972  -0.609   8.932 -0.6427 -0.0531 -0.0247
  922MOL0    Cl24380   9.099  -0.722   8.868 -0.2178 -0.4072 -0.3663
  922MOL0     C24381   9.126   0.231   8.561  0.1487 -0.1261  0.0186
  922MOL0     C24382   9.180   0.350   8.503 -0.3081 -0.4230 -1.1069
  922MOL0     O24383   9.021   0.612   8.381 -0.7728  0.0175  0.1297
  922MOL0     C24384   9.300   0.723   8.187 -0.0157 -0.7934 -0.6792
  922MOL0     C24385   9.326   0.833   8.103 -1.1935  0.1297  0.0678
  922MOL0     N24386   9.554   1.159   7.434  0.0763 -0.2242  0.4481
  922MOL0     N24387   9.505   1.208   7.333 -0.0064 -0.3787 -0.3782
  922MOL0     C24388   8.847   0.603   7.645 -0.4750 -0.0480 -0.1030
  922MOL0     C24389   8.806   0.489   7.710  0.4486  0.4110 -0.2371
  922MOL0     C24390   8.712   0.204   8.053  0.7406 -0.3753  0.7928
  922MOL0     C24391   8.662   0.184   8.181 -0.2176  0.5704  0.0561
  922MOL0     C24392   8.620   0.060   8.228 -0.1360  0.3355 -0.3140
  922MOL0     C24393   8.634  -0.055   8.145 -0.1465 -0.1896 -0.4938
  922MOL0     O24394   8.590  -0.175   8.195  0.6817 -0.2053  0.7791
  922MOL0     C24395   8.566  -0.293   8.127  0.0656  0.4207 -0.2716
  922MOL0     C24396   8.515  -0.385   8.245 -0.1903  0.2338 -0.3127
  922MOL0     C24397   8.498  -0.523   8.181  1.0205 -0.2121  0.2898
  922MOL0     C24398   8.433  -0.637   8.266 -0.1025  0.2334  0.2346
  922MOL0     C24399   8.372  -0.741   8.182 -0.3679  0.0404  0.2764
  922MOL0     C24400   8.324  -0.820   8.108  0.1413 -1.0843  0.1793
  922MOL0     C24401   8.686  -0.035   8.010 -0.8320  0.9379 -0.7364
  922MOL0     C24402   8.709   0.095   7.966 -0.0790 -0.6423  0.5515
  922MOL0     H24403   8.959   0.533   8.011 -0.0229  1.9241  0.5300
  922MOL0     H24404   9.028   0.742   7.907  0.5413 -1.5154  0.6397
  922MOL0     H24405   8.998   0.953   7.803  0.4822 -0.1748 -1.0668
  922MOL0     H24406   9.132   0.841   7.723 -0.9822 -2.3376 -1.1911
  922MOL0     H24407   9.151   1.068   7.678 -1.8770 -1.9593  3.0396
  922MOL0     H24408   9.134   0.987   7.529 -3.6167 -0.8796 -1.9762
  922MOL0     H24409   8.905   1.050   7.488  0.8934 -1.1446 -0.0996
  922MOL0     H24410   8.894   1.108   7.658  1.7250  2.3995  1.1770
  922MOL0     H24411   8.924   1.286   7.510  1.1155  1.2867  0.7068
  922MOL0     H24412   9.056   1.293   7.628  0.0544  1.4886 -0.2907
  922MOL0     H24413   9.215   1.188   7.480 -1.4540 -1.0914  1.8309
  922MOL0     H24414   9.095   1.159   7.351 -0.6796 -1.0999  0.6084
  922MOL0     H24415   9.062   1.415   7.342  0.9499  0.0852 -2.3056
  922MOL0     H24416   9.207   1.445   7.441  0.3147  3.3641 -1.5556
  922MOL0     H24417   9.232   1.256   7.195  1.8201  0.7322 -0.0460
  922MOL0     H24418   9.184   1.427   7.171  0.6803 -0.5700 -0.8408
  922MOL0     H24419   9.392   1.517   7.277 -1.5215  0.3158  0.2487
  922MOL0     H24420   9.429   1.393   7.161 -0.3519 -2.7714  0.2745
  922MOL0     H24421   9.437   1.456   7.528 -2.6171  0.4990 -0.1774
  922MOL0     H24422   9.720   1.244   7.668  0.2496 -0.0962 -0.7845
  922MOL0     H24423   9.609   1.358   7.716 -0.2032  0.9456 -2.5530
  922MOL0     H24424   9.628   1.170   7.872  1.7002  0.5538 -2.2079
  922MOL0     H24425   9.577   1.046   7.745 -2.7886 -0.6149 -1.9459
  922MOL0     H24426   9.353   1.164   7.725  3.6869  1.1604 -2.8241
  922MOL0     H24427   9.391   1.259   7.865 -2.4256 -0.1988 -0.6691
  922MOL0     H24428   9.466   1.005   7.964 -0.2903 -4.7017 -2.4059
  922MOL0     H24429   9.379   0.938   7.840 -2.6410 -0.4939 -1.3220
  922MOL0     H24430   9.052   1.002   8.066 -0.6786 -0.6983  0.1737
  922MOL0     H24431   8.847   0.852   8.131 -1.2981 -1.4818  0.4200
  922MOL0     H24432   8.869   0.712   8.221 -0.4473  0.1382 -0.0033
  922MOL0     H24433   8.893   0.880   8.295 -0.3404  0.2847  0.0513
  922MOL0     H24434   9.055   0.337   8.187  2.3426  1.8586 -0.2797
  922MOL0     H24435   8.937   0.139   8.281  1.3944  0.6008 -2.6419
  922MOL0     H24436   8.844   0.060   8.696  0.9054  0.2718 -0.3557
  922MOL0     H24437   8.798   0.140   8.544  1.3658  0.9539  0.0016
  922MOL0     H24438   8.690  -0.092   8.596 -0.0665 -0.1896 -1.0289
  922MOL0     H24439   8.738  -0.062   8.434 -0.6530 -0.0922  0.1180
  922MOL0     H24440   8.941  -0.183   8.446  1.4718  0.3227  1.2220
  922MOL0     H24441   8.809  -0.278   8.506  1.2575 -0.4015  3.9403
  922MOL0     H24442   8.983  -0.134   8.701  0.3321 -0.5163  0.9831
  922MOL0     H24443   8.852  -0.251   8.738 -0.7502 -2.2047 -0.5046
  922MOL0     H24444   9.136  -0.299   8.614 -0.1096 -1.7310 -1.3870
  922MOL0     H24445   9.009  -0.404   8.570  0.2404 -0.2983 -1.5809
  922MOL0     H24446   9.168  -0.454   8.763 -0.1611  0.4390 -0.8727
  922MOL0     H24447   9.089  -0.332   8.853  1.7540  0.3384 -2.0963
  922MOL0     H24448   8.937  -0.558   8.715 -0.3399  3.4772 -2.5606
  922MOL0     H24449   8.869  -0.436   8.812 -1.3865 -1.2823 -3.6785
  922MOL0     H24450   8.878  -0.665   8.936  1.5286 -4.2924 -1.8337
  922MOL0     H24451   8.983  -0.556   9.027 -0.2389 -1.1023  0.5357
  922MOL0     H24452   9.147   0.210   8.666 -3.5051 -1.2725  0.6887
  922MOL0     H24453   9.241   0.427   8.550  2.4607 -1.6199 -2.4938
  922MOL0     H24454   9.380   0.656   8.221 -1.5057 -1.6242  1.4564
  922MOL0     H24455   9.433   0.844   8.091 -1.0649  0.7991  1.6183
  922MOL0     H24456   8.826   0.620   7.540  0.2566  3.5375  0.2282
  922MOL0     H24457   8.747   0.415   7.657  0.5393 -0.7485  1.2128
  922MOL0     H24458   8.663   0.272   8.244 -0.6377  1.7641 -1.5276
  922MOL0     H24459   8.571   0.050   8.324 -4.3415  4.8040 -1.6107
  922MOL0     H24460   8.502  -0.277   8.040 -0.5773  0.2435  0.1676
  922MOL0     H24461   8.663  -0.324   8.088  0.4112  1.8452 -0.5964
  922MOL0     H24462   8.416  -0.348   8.276 -0.4225  0.1898 -0.9896
  922MOL0     H24463   8.583  -0.387   8.331  0.9240 -0.5375 -1.1841
  922MOL0     H24464   8.600  -0.548   8.150  1.2066  0.8652 -0.0162
  922MOL0     H24465   8.433  -0.505   8.095  2.1681 -0.1454 -0.6034
  922MOL0     H24466   8.351  -0.592   8.323  0.2709  2.3353 -0.7735
  922MOL0     H24467   8.516  -0.672   8.328  2.7540 -0.7368 -3.7054
  922MOL0     H24468   8.277  -0.893   8.046 -1.0871 -0.9319  0.8972
  922MOL0     H24469   8.712  -0.117   7.943 -0.4795 -0.1729  0.7040
  922MOL0     H24470   8.734   0.117   7.862  4.0852  2.2434  1.8830
  923MOL0     O24471   6.250   0.629   9.068  0.1468 -0.3039  0.4935
  923MOL0     C24472   6.172   0.684   8.986 -0.5453  0.5162 -0.0438
  923MOL0     O24473   6.190   0.698   8.848 -0.3340  0.6673  0.2640
  923MOL0     C24474   6.316   0.665   8.802  0.0908 -0.9195  0.2552
  923MOL0     C24475   6.366   0.535   8.816 -1.2119 -0.4279  0.4427
  923MOL0     C24476   6.496   0.504   8.764 -0.0828 -0.2786 -0.2571
  923MOL0     C24477   6.578   0.602   8.709  0.7525 -0.0026 -0.1262
  923MOL0     O24478   6.690   0.577   8.635 -0.4461 -0.3144  0.0158
  923MOL0     C24479   6.773   0.466   8.672 -0.9614  0.7773 -0.2842
  923MOL0     C24480   6.907   0.468   8.596 -0.2745  0.0461  0.7049
  923MOL0     C24481   6.899   0.517   8.446  0.6218 -0.2599  0.5281
  923MOL0     C24482   6.803   0.420   8.368 -0.4300 -0.0547 -0.7595
  923MOL0     C24483   6.781   0.486   8.232 -0.1578 -0.1567 -0.6030
  923MOL0     C24484   6.707   0.382   8.154 -0.4899 -0.3596  0.9202
  923MOL0     C24485   6.684   0.438   8.012  1.1081  0.1515  0.2453
  923MOL0     C24486   6.580   0.355   7.936 -0.3301 -0.0358  0.6806
  923MOL0     N24487   6.636   0.214   7.926  0.4607  0.4037  0.4237
  923MOL0     C24488   6.551   0.110   7.911 -0.5424  0.7220  1.5125
  923MOL0     C24489   6.629   0.006   7.864  0.8108  1.1443 -0.6569
  923MOL0     C24490   6.586  -0.138   7.815  0.1278 -0.4571 -0.0659
  923MOL0     C24491   6.536  -0.139   7.669  0.8892 -0.2968  0.1922
  923MOL0     C24492   6.520  -0.292   7.639 -0.2485  0.2280  0.0944
  923MOL0     C24493   6.450  -0.299   7.499 -0.3866 -1.2813 -0.5374
  923MOL0     O24494   6.439  -0.437   7.464  0.1917 -0.8326 -0.0939
  923MOL0     C24495   6.367  -0.510   7.549  0.2510  1.0912  1.2148
  923MOL0     C24496   6.244  -0.474   7.598 -0.3175 -0.1041  0.6019
  923MOL0     C24497   6.174  -0.562   7.681 -0.2289  0.8472  0.5877
  923MOL0     C24498   6.051  -0.503   7.746  0.4181  0.7146  0.4457
  923MOL0     C24499   6.225  -0.699   7.697  0.3061  0.0262  0.2340
  923MOL0     C24500   6.150  -0.798   7.773 -0.1808 -0.3780 -0.1230
  923MOL0     O24501   6.048  -0.858   7.717  0.2406  0.4785  0.0082
  923MOL0     C24502   5.968  -0.951   7.766  0.2756  0.4506 -0.1568
  923MOL0     C24503   5.906  -0.951   7.891  0.4424  0.1974 -0.8217
  923MOL0     C24504   5.818  -1.055   7.932 -0.4513  0.5386 -0.0615
  923MOL0     C24505   5.780  -1.152   7.839  0.2140 -0.6957 -0.1226
  923MOL0     O24506   5.698  -1.255   7.869 -0.4926  0.7930  0.9498
  923MOL0     C24507   5.571  -1.239   7.931 -0.0087 -0.0163 -0.6165
  923MOL0     C24508   5.581  -1.266   8.078 -0.2677 -0.8423  0.5001
  923MOL0     C24509   5.449  -1.263   8.149 -0.7221  0.0597 -0.1546
  923MOL0     C24510   5.345  -1.367   8.091  0.1252 -0.4745  0.8004
  923MOL0     C24511   5.208  -1.350   8.164  0.1384 -0.0064  0.1589
  923MOL0     C24512   5.176  -1.431   8.290  0.1939  1.1035 -0.1440
  923MOL0     C24513   5.205  -1.585   8.265  0.7109  0.1668  0.3065
  923MOL0     C24514   5.139  -1.653   8.382 -0.0929  0.1605 -0.5239
  923MOL0    Cl24515   4.961  -1.702   8.364 -0.0248  0.1996  0.1483
  923MOL0     C24516   5.830  -1.147   7.705  0.0354 -0.2005 -0.2568
  923MOL0     C24517   5.926  -1.049   7.679  0.1701  0.3820  0.6315
  923MOL0     O24518   6.181  -0.822   7.891 -0.0707  0.0940  0.7161
  923MOL0     C24519   6.350  -0.738   7.643  0.5851 -0.5160  0.2695
  923MOL0     C24520   6.418  -0.646   7.570 -0.1588  0.3965 -0.1395
  923MOL0     N24521   6.758   0.054   7.842 -0.3481 -0.4149  0.2676
  923MOL0     N24522   6.754   0.176   7.874 -0.1892  0.6455  0.9262
  923MOL0     C24523   6.524   0.731   8.701  0.9298 -0.7181  0.2418
  923MOL0     C24524   6.395   0.757   8.739  0.3875  0.0658  0.1664
  923MOL0     C24525   6.042   0.720   9.050 -0.3492 -0.8568 -0.8142
  923MOL0     C24526   6.005   0.657   9.172  0.0258 -0.5986 -0.4924
  923MOL0     C24527   5.890   0.709   9.231 -0.3619 -0.1708 -0.3472
  923MOL0     C24528   5.804   0.811   9.180 -1.1195 -0.5037  0.2762
  923MOL0     O24529   5.698   0.870   9.249 -0.1312  0.6476 -0.0670
  923MOL0     C24530   5.617   0.788   9.334  0.3777  1.0817 -0.0132
  923MOL0     C24531   5.665   0.766   9.483 -0.1379 -0.0175  0.4231
  923MOL0     C24532   5.609   0.646   9.556  0.0951  1.2004  0.4234
  923MOL0     C24533   5.459   0.668   9.596 -0.0045  0.4134  0.0033
  923MOL0     C24534   5.368   0.632   9.490 -0.4798  0.1776  0.4170
  923MOL0     C24535   5.304   0.603   9.396 -0.4279 -0.4358  0.0597
  923MOL0     C24536   5.852   0.858   9.049  0.9653 -0.4550 -1.3496
  923MOL0     C24537   5.967   0.821   8.983  0.0637  2.3544  0.0325
  923MOL0     H24538   6.309   0.460   8.870 -1.5692  1.3707  2.7587
  923MOL0     H24539   6.527   0.400   8.763 -3.4166 -1.4179  1.2935
  923MOL0     H24540   6.796   0.482   8.778 -3.7716  1.6507  0.2897
  923MOL0     H24541   6.732   0.366   8.655 -0.2191  0.1599  1.3482
  923MOL0     H24542   6.960   0.545   8.653  3.8871 -1.2575 -1.0575
  923MOL0     H24543   6.952   0.368   8.606 -3.8454 -2.0164 -1.6724
  923MOL0     H24544   6.877   0.623   8.432  1.8530 -0.2186 -1.3557
  923MOL0     H24545   6.999   0.509   8.403 -0.1638 -1.6915 -1.1363
  923MOL0     H24546   6.845   0.319   8.370 -2.4557 -0.9387 -0.1256
  923MOL0     H24547   6.706   0.424   8.419  0.8674  0.4145  1.8392
  923MOL0     H24548   6.725   0.579   8.245 -2.1591 -1.3422 -0.3839
  923MOL0     H24549   6.877   0.504   8.184  0.4886 -0.4712  0.5339
  923MOL0     H24550   6.766   0.290   8.153  0.4354  0.2099  1.3078
  923MOL0     H24551   6.609   0.369   8.201 -3.1436  2.7940 -3.0096
  923MOL0     H24552   6.653   0.542   8.021 -1.9216 -0.8458  3.5815
  923MOL0     H24553   6.780   0.443   7.960  0.8036  0.0708 -0.3415
  923MOL0     H24554   6.574   0.403   7.838  1.4763  0.7607  0.9098
  923MOL0     H24555   6.485   0.357   7.990 -1.1102 -2.9793 -0.4218
  923MOL0     H24556   6.445   0.120   7.931 -0.6042  2.4048  0.5592
  923MOL0     H24557   6.680  -0.195   7.819  1.9832  2.4385  2.3257
  923MOL0     H24558   6.513  -0.174   7.887  2.8554 -1.1314  2.5372
  923MOL0     H24559   6.622  -0.101   7.612  0.7676  3.3907  2.1885
  923MOL0     H24560   6.442  -0.083   7.666 -0.2589 -2.1246 -0.1008
  923MOL0     H24561   6.454  -0.347   7.706  0.5505  0.0864  0.7813
  923MOL0     H24562   6.611  -0.351   7.623  0.0289  0.5901  0.3037
  923MOL0     H24563   6.518  -0.252   7.428 -2.3022  0.7436 -1.1184
  923MOL0     H24564   6.350  -0.256   7.507 -1.0889 -2.8620 -0.3173
  923MOL0     H24565   6.203  -0.375   7.583  0.2108  0.4570  2.5940
  923MOL0     H24566   5.968  -0.571   7.723 -0.2688  1.3652  0.9385
  923MOL0     H24567   6.069  -0.507   7.854 -2.3636 -0.2966  0.9811
  923MOL0     H24568   6.037  -0.403   7.705 -2.3205 -0.6261 -2.2947
  923MOL0     H24569   5.940  -0.875   7.961  0.7894 -2.5171  2.1865
  923MOL0     H24570   5.775  -1.055   8.032 -0.0980  4.3560  0.2473
  923MOL0     H24571   5.531  -1.139   7.914 -1.3610 -0.0458  1.9107
  923MOL0     H24572   5.504  -1.307   7.878 -0.9792 -0.3512  0.9829
  923MOL0     H24573   5.621  -1.367   8.090 -2.2100 -1.7911 -0.5725
  923MOL0     H24574   5.658  -1.198   8.116  0.8152 -1.3494 -0.6995
  923MOL0     H24575   5.393  -1.170   8.136  2.3304  2.0556 -0.1047
  923MOL0     H24576   5.471  -1.274   8.255  2.2151  1.2226 -0.5227
  923MOL0     H24577   5.321  -1.353   7.985 -0.9834  1.6375  1.2703
  923MOL0     H24578   5.383  -1.469   8.098  0.8610 -0.2532  0.0884
  923MOL0     H24579   5.145  -1.397   8.087  2.1294 -1.7623 -0.5001
  923MOL0     H24580   5.193  -1.244   8.183  3.5396  0.5963  0.1645
  923MOL0     H24581   5.236  -1.412   8.379  0.1608  0.8865 -0.0751
  923MOL0     H24582   5.069  -1.423   8.313  0.0051  0.5249 -0.7600
  923MOL0     H24583   5.312  -1.604   8.270  0.4988 -1.2733 -0.0525
  923MOL0     H24584   5.162  -1.625   8.172  3.0781  0.3455 -0.9448
  923MOL0     H24585   5.151  -1.606   8.480 -0.1860  1.2171 -1.0027
  923MOL0     H24586   5.189  -1.748   8.400 -0.8010 -0.2185 -0.5387
  923MOL0     H24587   5.799  -1.212   7.624 -0.4008 -0.1944 -0.0943
  923MOL0     H24588   5.959  -1.041   7.576 -0.9919 -0.1217  0.2050
  923MOL0     H24589   6.396  -0.833   7.668  0.1286 -1.7282 -2.9884
  923MOL0     H24590   6.511  -0.661   7.516 -0.3635  0.3000 -0.4697
  923MOL0     H24591   6.587   0.801   8.647  1.6312 -1.8581 -0.4411
  923MOL0     H24592   6.353   0.857   8.742  2.3754  0.9357  1.9016
  923MOL0     H24593   6.063   0.579   9.222 -0.4406 -0.6395 -0.0068
  923MOL0     H24594   5.862   0.663   9.325  1.3489  2.2870  1.5103
  923MOL0     H24595   5.525   0.846   9.344  1.0877  2.3842 -0.6834
  923MOL0     H24596   5.597   0.690   9.289 -0.7701  0.7089  1.2368
  923MOL0     H24597   5.640   0.856   9.540 -0.4855  0.3810 -0.3468
  923MOL0     H24598   5.772   0.756   9.464 -0.8922 -0.9344 -4.7547
  923MOL0     H24599   5.669   0.634   9.646  4.0940 -0.3750 -2.1526
  923MOL0     H24600   5.614   0.555   9.495  3.6674  1.3946  0.2192
  923MOL0     H24601   5.438   0.771   9.627  1.5554  0.8092 -0.1868
  923MOL0     H24602   5.454   0.609   9.688  3.2703  0.5895  0.3934
  923MOL0     H24603   5.245   0.575   9.311  3.7823 -3.8417 -2.1449
  923MOL0     H24604   5.801   0.944   9.006 -1.5498  0.4765  2.8718
  923MOL0     H24605   6.001   0.856   8.886 -0.6311 -1.1568 -1.6563
  924MOL0     O24606   6.183  11.068   5.493 -0.4263 -0.4577  0.1384
  924MOL0     C24607   6.288  11.119   5.526 -0.2329 -0.8364 -0.7862
  924MOL0     O24608   6.320  11.251   5.514  0.5072 -0.2832 -0.8879
  924MOL0     C24609   6.245  11.322   5.419 -0.2164  0.1670 -0.0817
  924MOL0     C24610   6.193  11.281   5.294  0.1453  0.3156  0.3999
  924MOL0     C24611   6.109  11.362   5.226  0.3866  0.6466 -1.1476
  924MOL0     C24612   6.086  11.498   5.262 -1.2871  0.3894 -0.1940
  924MOL0     O24613   5.999  11.579   5.189  0.0205 -0.0421  0.5096
  924MOL0     C24614   5.884  11.516   5.120 -0.4457  0.0921  0.2387
  924MOL0     C24615   5.768  11.610   5.096 -0.4713 -0.1282 -0.0447
  924MOL0     C24616   5.712  11.665   5.224  0.7982  0.2261 -0.1121
  924MOL0     C24617   5.601  11.760   5.187  0.2373  0.6502  0.2394
  924MOL0     C24618   5.465  11.695   5.140  0.0045  0.0958 -0.5199
  924MOL0     C24619   5.425  11.572   5.235  0.1012  0.4896  1.0686
  924MOL0     C24620   5.289  11.506   5.200 -0.8207 -0.8395  0.4979
  924MOL0     C24621   5.314  11.422   5.074  0.0735 -0.6850  0.5826
  924MOL0     N24622   5.424  11.334   5.078 -0.2854  0.0708 -1.0803
  924MOL0     C24623   5.454  11.231   5.164 -0.4719  0.7593 -0.5538
  924MOL0     C24624   5.575  11.181   5.114  0.0366 -0.4738 -0.6300
  924MOL0     C24625   5.643  11.060   5.187  0.2255 -0.1904  0.3359
  924MOL0     C24626   5.529  10.958   5.222  0.0657 -0.6136  0.8703
  924MOL0     C24627   5.481  10.929   5.073 -0.0598 -0.0429  0.3332
  924MOL0     C24628   5.407  10.791   5.072 -0.4223  1.1688  0.6040
  924MOL0     O24629   5.501  10.688   5.049  0.3776  0.7478 -0.5385
  924MOL0     C24630   5.572  10.672   4.930 -0.4121 -0.9963 -0.4569
  924MOL0     C24631   5.538  10.731   4.809  1.0583 -0.2174  0.9888
  924MOL0     C24632   5.604  10.717   4.689 -0.6880 -0.5992  0.3010
  924MOL0     C24633   5.547  10.773   4.558  0.6461 -0.0616 -0.6563
  924MOL0     C24634   5.725  10.646   4.694 -0.5459 -0.0999  0.7898
  924MOL0     C24635   5.795  10.604   4.566 -0.7330  0.0031 -0.0461
  924MOL0     O24636   5.882  10.494   4.572  0.2984 -0.5961 -0.0464
  924MOL0     C24637   5.907  10.436   4.453 -0.4132  0.4814  0.4554
  924MOL0     C24638   5.802  10.410   4.364 -0.3836  0.4809  0.2411
  924MOL0     C24639   5.824  10.335   4.248  0.3601 -0.1449 -0.2493
  924MOL0     C24640   5.963  10.290   4.218  1.2976 -0.8618  0.4731
  924MOL0     O24641   6.001  10.213   4.112  0.3647 -0.1568  0.0607
  924MOL0     C24642   5.938  10.243   3.989 -0.1040  0.3057 -0.3772
  924MOL0     C24643   5.995  10.163   3.868  0.2417  0.6719  0.2035
  924MOL0     C24644   6.007  10.018   3.907  0.3382 -0.2990  0.4642
  924MOL0     C24645   6.037   9.929   3.788  0.2419  0.1137 -0.0099
  924MOL0     C24646   6.028   9.783   3.839 -0.1698  0.0603  0.6363
  924MOL0     C24647   5.893   9.728   3.883  0.1288 -0.0684  0.0881
  924MOL0     C24648   5.892   9.576   3.913 -0.1920 -0.8482 -0.4128
  924MOL0     C24649   5.773   9.509   3.846  0.3542 -0.7092  0.0758
  924MOL0    Cl24650   5.788   9.344   3.879 -0.7719 -0.2613 -0.0361
  924MOL0     C24651   6.062  10.307   4.319  0.2751 -0.2578 -0.3145
  924MOL0     C24652   6.036  10.383   4.432  0.7120  0.3251  0.7751
  924MOL0     O24653   5.806  10.696   4.478 -0.3058 -0.3423  0.6470
  924MOL0     C24654   5.773  10.602   4.820  0.1971 -0.7384 -0.1973
  924MOL0     C24655   5.694  10.609   4.935 -0.0775 -0.2840 -0.0668
  924MOL0     N24656   5.616  11.243   5.001 -0.0190  0.4306 -0.6923
  924MOL0     N24657   5.525  11.337   4.990 -0.5807  0.2339  0.0801
  924MOL0     C24658   6.147  11.535   5.388 -0.4626 -0.3997  0.1661
  924MOL0     C24659   6.221  11.447   5.460  0.2346  0.0644  0.6648
  924MOL0     C24660   6.395  11.037   5.581 -1.2046  0.6716 -0.3908
  924MOL0     C24661   6.382  10.895   5.575  0.0934  0.4334 -0.6843
  924MOL0     C24662   6.496  10.811   5.611  0.5108 -0.9952  1.0044
  924MOL0     C24663   6.611  10.869   5.660  0.3410 -0.6053  0.0057
  924MOL0     O24664   6.710  10.783   5.691 -0.6787 -0.1049 -0.0736
  924MOL0     C24665   6.808  10.806   5.786  0.2233 -0.3658  0.0278
  924MOL0     C24666   6.755  10.768   5.922 -0.1732 -0.6132 -0.1715
  924MOL0     C24667   6.670  10.637   5.938 -0.6339  0.0614  0.4724
  924MOL0     C24668   6.740  10.515   5.892 -1.4102  0.3610 -0.0398
  924MOL0     C24669   6.853  10.484   5.988  1.1321  0.7622  0.1203
  924MOL0     C24670   6.955  10.446   6.039 -0.2244 -1.1603  0.1604
  924MOL0     C24671   6.625  11.006   5.677  1.2905 -0.2732 -0.2702
  924MOL0     C24672   6.518  11.088   5.627 -0.5988 -0.4484  0.4777
  924MOL0     H24673   6.204  11.178   5.263 -1.0018  0.6550 -1.2707
  924MOL0     H24674   6.062  11.310   5.143 -0.1262  0.5194 -0.7871
  924MOL0     H24675   5.914  11.482   5.020 -0.8786  0.6061 -0.0683
  924MOL0     H24676   5.863  11.423   5.174  2.3301  1.1925  3.5459
  924MOL0     H24677   5.813  11.692   5.038 -0.2893 -0.2185 -0.0313
  924MOL0     H24678   5.697  11.568   5.024  0.1313 -0.3123 -0.5443
  924MOL0     H24679   5.684  11.575   5.280 -2.1183 -1.1916 -3.4230
  924MOL0     H24680   5.795  11.714   5.276 -1.4272  2.2871  1.6979
  924MOL0     H24681   5.579  11.816   5.278 -2.2179  0.4624 -0.1742
  924MOL0     H24682   5.626  11.832   5.109 -0.7422  1.2833  0.4937
  924MOL0     H24683   5.373  11.753   5.128  0.1182  0.0164 -1.9995
  924MOL0     H24684   5.490  11.659   5.039 -1.8816 -4.3639  0.3776
  924MOL0     H24685   5.501  11.493   5.234  0.4882  0.8316 -0.9712
  924MOL0     H24686   5.404  11.616   5.333 -1.8661 -0.6510  1.2091
  924MOL0     H24687   5.269  11.440   5.285  1.4922 -2.4363 -0.0975
  924MOL0     H24688   5.214  11.582   5.178 -0.5740 -0.5531  0.6507
  924MOL0     H24689   5.326  11.483   4.983 -2.5829 -2.7665 -1.3244
  924MOL0     H24690   5.228  11.359   5.050  0.8710 -1.3868 -0.5676
  924MOL0     H24691   5.383  11.203   5.241  0.8517 -3.7259 -0.6820
  924MOL0     H24692   5.728  11.020   5.131 -0.4245  0.9805 -1.5529
  924MOL0     H24693   5.686  11.095   5.282 -0.7122  0.5061  0.5112
  924MOL0     H24694   5.445  10.993   5.284 -2.6905  1.1888 -3.4528
  924MOL0     H24695   5.582  10.880   5.278  3.0792  2.9908  3.6176
  924MOL0     H24696   5.563  10.919   5.002  0.6066  0.1805  1.0537
  924MOL0     H24697   5.409  11.006   5.046 -0.6775 -0.4364  0.8241
  924MOL0     H24698   5.336  10.783   4.989  0.4440  0.7803 -0.1098
  924MOL0     H24699   5.369  10.762   5.171 -0.1834 -0.3254  0.2862
  924MOL0     H24700   5.438  10.772   4.801  1.3354  0.8412  2.5170
  924MOL0     H24701   5.504  10.688   4.504 -1.5316  0.6606 -0.1808
  924MOL0     H24702   5.465  10.841   4.580  0.3847 -1.2511  2.6458
  924MOL0     H24703   5.617  10.823   4.491 -0.3339  0.5127 -1.2759
  924MOL0     H24704   5.706  10.461   4.377  0.4027  1.9840  0.3724
  924MOL0     H24705   5.748  10.342   4.171  0.9105  0.4636 -0.7444
  924MOL0     H24706   5.828  10.246   3.984 -0.0935 -0.9320 -2.6023
  924MOL0     H24707   5.965  10.346   3.964  0.3634 -0.0323 -1.3058
  924MOL0     H24708   5.919  10.178   3.791  0.0088 -2.7568 -0.3830
  924MOL0     H24709   6.092  10.201   3.836 -0.0434  0.6950 -0.6606
  924MOL0     H24710   5.924   9.984   3.970  0.4025 -0.9700  0.1902
  924MOL0     H24711   6.096   9.998   3.967  1.5977  0.0850 -1.1851
  924MOL0     H24712   5.957   9.968   3.723  0.8062  2.7095  0.7258
  924MOL0     H24713   6.129   9.950   3.732  0.6960 -2.3125 -0.2633
  924MOL0     H24714   6.099   9.763   3.919  2.2107 -1.5980 -1.7252
  924MOL0     H24715   6.057   9.712   3.761 -1.1914  1.2248 -0.8631
  924MOL0     H24716   5.867   9.793   3.967 -1.0088 -0.2609 -0.1044
  924MOL0     H24717   5.819   9.751   3.806  1.4415  1.7249 -0.7269
  924MOL0     H24718   5.883   9.566   4.021 -3.3578  0.6942 -0.4490
  924MOL0     H24719   5.987   9.536   3.874  1.4237  2.8618 -0.7195
  924MOL0     H24720   5.783   9.526   3.738 -1.7926 -0.9688 -0.2090
  924MOL0     H24721   5.682   9.563   3.874 -0.1741  0.0057 -2.6926
  924MOL0     H24722   6.160  10.260   4.312  1.8604  2.2101  2.7617
  924MOL0     H24723   6.116  10.396   4.505  1.1455  3.7945 -0.1391
  924MOL0     H24724   5.874  10.567   4.838  0.6497  0.3108 -0.6308
  924MOL0     H24725   5.733  10.576   5.030  1.6113  2.2567  0.2110
  924MOL0     H24726   6.110  11.632   5.421 -2.2925  0.1152 -2.9918
  924MOL0     H24727   6.264  11.486   5.552  1.2954  0.6608 -0.0664
  924MOL0     H24728   6.290  10.850   5.539  0.5416 -0.9048 -0.2237
  924MOL0     H24729   6.495  10.703   5.599 -2.2711 -0.9893  0.6426
  924MOL0     H24730   6.897  10.748   5.760 -0.2583 -1.0940 -0.0338
  924MOL0     H24731   6.840  10.911   5.782 -0.8823 -0.0310 -0.3807
  924MOL0     H24732   6.692  10.854   5.947 -2.1053 -1.4678 -1.7430
  924MOL0     H24733   6.844  10.760   5.984  1.1338 -0.3636 -1.9539
  924MOL0     H24734   6.580  10.655   5.879 -0.0363  0.6935 -0.2677
  924MOL0     H24735   6.628  10.631   6.039  0.7453  0.7637  1.1255
  924MOL0     H24736   6.777  10.526   5.790 -3.9362  5.4059 -0.7665
  924MOL0     H24737   6.673  10.429   5.883  0.1316 -0.8575 -0.2815
  924MOL0     H24738   7.043  10.410   6.089 -1.1929  0.1606  3.0145
  924MOL0     H24739   6.716  11.053   5.713  0.7043 -2.1480  4.2948
  924MOL0     H24740   6.529  11.196   5.631 -3.2405 -0.0712 -0.7384
  925MOL0     O24741   7.768   5.354   3.338 -1.1044  0.7442  0.2741
  925MOL0     C24742   7.704   5.459   3.359 -0.2392 -0.4274 -0.4704
  925MOL0     O24743   7.754   5.568   3.423  0.0811  0.1947 -0.0119
  925MOL0     C24744   7.886   5.556   3.481  0.0621 -0.3725  0.8355
  925MOL0     C24745   7.940   5.448   3.549 -0.3986 -0.2228 -0.1458
  925MOL0     C24746   8.069   5.444   3.598 -0.0822 -0.3451  1.7714
  925MOL0     C24747   8.161   5.557   3.572  1.0865 -0.2875 -0.3486
  925MOL0     O24748   8.289   5.537   3.605 -0.4470 -0.4304 -0.5090
  925MOL0     C24749   8.352   5.630   3.701 -0.0321 -0.1281 -0.1215
  925MOL0     C24750   8.371   5.550   3.825  0.6092  0.6643  0.3577
  925MOL0     C24751   8.467   5.613   3.924  0.0947 -0.6605 -0.3644
  925MOL0     C24752   8.401   5.709   4.038 -0.3237  0.8247  0.1988
  925MOL0     C24753   8.509   5.794   4.110 -0.8320 -0.1710  0.4459
  925MOL0     C24754   8.611   5.692   4.181  0.4185  0.5278 -1.1422
  925MOL0     C24755   8.650   5.737   4.318 -0.5783 -0.1617  0.7055
  925MOL0     C24756   8.728   5.616   4.383  0.9080 -0.0968  0.3596
  925MOL0     N24757   8.872   5.605   4.346  0.1212  0.3869  0.5163
  925MOL0     C24758   8.964   5.705   4.336 -0.2622  0.5094 -0.0950
  925MOL0     C24759   9.079   5.654   4.286  0.7071 -0.1044  0.8116
  925MOL0     C24760   9.215   5.707   4.282 -0.5609  1.0872  0.6016
  925MOL0     C24761   9.314   5.595   4.315  0.2327 -0.5251  0.0273
  925MOL0     C24762   9.455   5.639   4.268 -0.6626 -0.6049 -0.1113
  925MOL0     C24763   9.524   5.732   4.367  0.6149  0.3698  0.5817
  925MOL0     O24764   9.563   5.651   4.486  0.0806 -0.3774  0.3187
  925MOL0     C24765   9.620   5.722   4.585  0.4767 -0.3828 -0.5809
  925MOL0     C24766   9.682   5.652   4.684 -1.0921 -0.4784 -0.0255
  925MOL0     C24767   9.762   5.711   4.788  0.1193 -0.9308  0.6771
  925MOL0     C24768   9.834   5.626   4.887 -1.2278 -0.1312 -0.3397
  925MOL0     C24769   9.770   5.855   4.793  0.3923  1.1541  0.6197
  925MOL0     C24770   9.835   5.928   4.902  0.5334 -1.1506  0.8546
  925MOL0     O24771   9.925   6.026   4.859 -0.1530 -0.0280  0.2358
  925MOL0     C24772   9.999   6.085   4.954 -0.0228 -0.3859  0.7052
  925MOL0     C24773   9.943   6.151   5.063  0.3904  0.0784  0.4348
  925MOL0     C24774  10.012   6.240   5.133  1.2322 -0.5146 -0.7743
  925MOL0     C24775  10.141   6.260   5.106 -0.1403 -0.4730  0.1062
  925MOL0     O24776  10.220   6.343   5.185 -0.8484  0.9908 -0.1118
  925MOL0     C24777  10.202   6.488   5.162 -0.0368 -0.8342 -0.1397
  925MOL0     C24778  10.213   6.559   5.307 -0.2848 -0.8457  0.7211
  925MOL0     C24779  10.107   6.519   5.404 -0.4247  0.6329  0.5941
  925MOL0     C24780   9.969   6.568   5.362 -0.7222 -0.4439  1.6610
  925MOL0     C24781   9.850   6.582   5.466 -0.2078 -0.0616  0.4587
  925MOL0     C24782   9.738   6.672   5.401  1.1575 -0.4610 -0.3539
  925MOL0     C24783   9.639   6.713   5.511  1.1188 -0.7510 -0.1993
  925MOL0     C24784   9.512   6.775   5.443  0.5031 -0.3043 -0.2779
  925MOL0    Cl24785   9.393   6.645   5.418 -0.2454  0.1868 -0.0384
  925MOL0     C24786  10.206   6.182   5.010  0.4288 -0.4251 -0.2287
  925MOL0     C24787  10.137   6.082   4.933  0.0058 -0.2590  0.2554
  925MOL0     O24788   9.818   5.892   5.018  0.3279 -0.1524  0.1215
  925MOL0     C24789   9.710   5.925   4.687 -0.5653  0.2655 -0.5150
  925MOL0     C24790   9.637   5.863   4.589  0.0908  0.0474  0.0017
  925MOL0     N24791   9.046   5.528   4.238 -0.2816 -0.0849  0.0080
  925MOL0     N24792   8.925   5.502   4.281  0.2651 -0.4526 -0.5890
  925MOL0     C24793   8.105   5.668   3.503  0.2031 -0.0240  0.7596
  925MOL0     C24794   7.974   5.662   3.448  0.5514 -0.1904  0.5705
  925MOL0     C24795   7.570   5.471   3.298 -0.8251  0.6920  0.4539
  925MOL0     C24796   7.489   5.579   3.333 -0.2062 -0.4742 -0.1059
  925MOL0     C24797   7.363   5.591   3.269 -0.3289 -0.5891 -0.9166
  925MOL0     C24798   7.312   5.485   3.191 -0.7423 -0.0616 -0.8587
  925MOL0     O24799   7.179   5.495   3.157  0.3534  0.5849  1.4950
  925MOL0     C24800   7.154   5.484   3.013  0.1256 -0.2913 -0.5955
  925MOL0     C24801   7.044   5.585   2.983  0.1199 -0.0044  1.1410
  925MOL0     C24802   7.027   5.590   2.837  0.2404 -0.2646  0.4483
  925MOL0     C24803   6.985   5.463   2.765  0.0069  0.9819 -0.6168
  925MOL0     C24804   6.910   5.475   2.639  0.2789  0.5083 -0.3525
  925MOL0     C24805   6.837   5.471   2.539 -0.8056  0.8452 -0.2367
  925MOL0     C24806   7.388   5.378   3.151 -0.8300 -0.2261  0.3029
  925MOL0     C24807   7.512   5.369   3.214  0.1561  0.7160 -0.7997
  925MOL0     H24808   7.873   5.366   3.568 -2.5867  1.2447 -1.0866
  925MOL0     H24809   8.100   5.343   3.623  4.5312 -0.2605 -2.1545
  925MOL0     H24810   8.445   5.662   3.653 -2.6399  2.6001 -3.9664
  925MOL0     H24811   8.286   5.712   3.732 -0.7204 -1.2789  1.5695
  925MOL0     H24812   8.284   5.513   3.880  1.4054  0.9343  1.8586
  925MOL0     H24813   8.407   5.455   3.785 -1.0183  0.9464 -2.0000
  925MOL0     H24814   8.534   5.538   3.967 -0.0452  0.4558  1.9520
  925MOL0     H24815   8.533   5.682   3.871  0.9685 -0.7471  0.5865
  925MOL0     H24816   8.329   5.771   3.986 -0.4271  0.7421  0.2428
  925MOL0     H24817   8.341   5.654   4.111  0.6126 -0.5868 -0.0480
  925MOL0     H24818   8.579   5.855   4.052  0.5248 -0.8065  1.3484
  925MOL0     H24819   8.455   5.852   4.186 -1.3713 -1.1477  0.8224
  925MOL0     H24820   8.547   5.604   4.190 -0.7896  1.5708  1.3410
  925MOL0     H24821   8.697   5.660   4.122  0.2471  0.6695 -1.4729
  925MOL0     H24822   8.711   5.825   4.296  0.2150 -1.4598 -2.8396
  925MOL0     H24823   8.566   5.767   4.382  0.7359 -0.4683  2.6616
  925MOL0     H24824   8.681   5.519   4.364  0.2522 -0.1525  2.0983
  925MOL0     H24825   8.715   5.629   4.491 -2.4884 -1.1890  0.2059
  925MOL0     H24826   8.949   5.804   4.379  1.0631 -0.2290  2.2685
  925MOL0     H24827   9.233   5.747   4.181  0.2358  0.1199  0.3460
  925MOL0     H24828   9.222   5.796   4.344 -3.5623  1.0423  1.1269
  925MOL0     H24829   9.291   5.505   4.259 -2.1802  0.0020  0.0758
  925MOL0     H24830   9.302   5.563   4.419  0.1926 -2.4581 -0.5457
  925MOL0     H24831   9.448   5.693   4.173 -0.9172 -1.1406 -0.4069
  925MOL0     H24832   9.523   5.559   4.240  1.3952  1.3274 -0.9393
  925MOL0     H24833   9.451   5.809   4.394  0.7618  0.4796  0.6659
  925MOL0     H24834   9.605   5.788   4.320 -1.5528  1.6356 -1.9334
  925MOL0     H24835   9.682   5.543   4.678 -0.1846 -0.4674 -0.4219
  925MOL0     H24836   9.929   5.676   4.907 -2.1257  2.2508 -1.6500
  925MOL0     H24837   9.772   5.626   4.978  1.6298 -0.8108  1.7729
  925MOL0     H24838   9.860   5.526   4.852  1.4716  0.8772 -1.4930
  925MOL0     H24839   9.846   6.130   5.106 -0.6792  3.2100 -0.1887
  925MOL0     H24840   9.963   6.282   5.220 -0.1721 -2.8016 -0.3652
  925MOL0     H24841  10.274   6.527   5.090 -0.5250 -0.0944 -0.2410
  925MOL0     H24842  10.109   6.511   5.109  0.7122  1.4085 -0.5961
  925MOL0     H24843  10.311   6.529   5.346 -0.5086 -0.6889  1.4249
  925MOL0     H24844  10.220   6.668   5.306 -1.7789 -0.7377 -0.1697
  925MOL0     H24845  10.127   6.578   5.494 -1.9181  1.7321  0.2317
  925MOL0     H24846  10.095   6.411   5.416 -1.1141  0.3501 -2.0829
  925MOL0     H24847   9.987   6.671   5.330  0.6957  0.6029  5.4311
  925MOL0     H24848   9.948   6.491   5.287 -1.2437  0.3099  1.0159
  925MOL0     H24849   9.893   6.619   5.560  3.4157  1.4230 -1.5534
  925MOL0     H24850   9.814   6.482   5.492  1.8745 -0.5122  1.8339
  925MOL0     H24851   9.785   6.767   5.374  1.4323 -0.3862  0.3426
  925MOL0     H24852   9.691   6.618   5.319  1.9254 -1.8415  0.0705
  925MOL0     H24853   9.686   6.792   5.570  0.4072  1.1645 -2.0659
  925MOL0     H24854   9.606   6.627   5.569 -0.8093  0.2727  0.2974
  925MOL0     H24855   9.536   6.804   5.340  3.7481 -0.8510  0.2187
  925MOL0     H24856   9.471   6.857   5.503  0.9629  2.3107 -3.2364
  925MOL0     H24857  10.314   6.185   5.005  0.4760 -0.6903  0.4696
  925MOL0     H24858  10.193   6.020   4.865 -0.9805 -3.0701  1.8527
  925MOL0     H24859   9.728   6.031   4.673  2.3493 -0.1931 -0.7816
  925MOL0     H24860   9.614   5.931   4.508  2.0989  0.1286 -0.5511
  925MOL0     H24861   8.170   5.750   3.474  0.8006 -0.3722  1.0956
  925MOL0     H24862   7.929   5.744   3.394  0.0992 -1.3215 -0.8551
  925MOL0     H24863   7.532   5.655   3.398  3.0648 -1.9974 -0.2758
  925MOL0     H24864   7.302   5.677   3.293 -1.0659 -1.3330 -0.0477
  925MOL0     H24865   7.249   5.514   2.970  0.9762 -1.5608  0.3130
  925MOL0     H24866   7.129   5.379   2.990  0.7715 -0.6790  0.4092
  925MOL0     H24867   7.084   5.685   3.002  2.4911 -0.7378  0.3235
  925MOL0     H24868   6.950   5.568   3.037 -1.3352 -0.7942 -1.4219
  925MOL0     H24869   7.120   5.619   2.788  2.1983 -2.7337  2.4692
  925MOL0     H24870   6.951   5.662   2.805 -0.6493  0.0457  3.0262
  925MOL0     H24871   6.923   5.403   2.832 -0.3615  1.8316 -0.1774
  925MOL0     H24872   7.074   5.404   2.742 -0.2866  0.3211 -0.0898
  925MOL0     H24873   6.772   5.448   2.457  1.4328 -4.7085 -0.8589
  925MOL0     H24874   7.339   5.308   3.083 -1.9688  3.3536 -2.9017
  925MOL0     H24875   7.565   5.276   3.198 -4.0081 -3.1237  4.1419
  926MOL0     O24876   8.251  11.057   7.884 -0.6588 -0.4303 -0.2784
  926MOL0     C24877   8.193  11.064   7.773 -0.9352  0.0637 -0.2095
  926MOL0     O24878   8.067  11.065   7.742 -0.5193 -0.6621 -0.2962
  926MOL0     C24879   7.985  11.014   7.833  0.1968  0.0579 -0.1467
  926MOL0     C24880   8.015  10.887   7.896  0.4506  0.6627 -0.3228
  926MOL0     C24881   7.910  10.833   7.976  0.6958 -0.1229  0.1499
  926MOL0     C24882   7.788  10.909   8.004 -0.1950  0.2025 -1.3757
  926MOL0     O24883   7.715  10.853   8.109  0.5595 -0.4183  0.0458
  926MOL0     C24884   7.631  10.932   8.192 -0.6685 -0.6440  0.1960
  926MOL0     C24885   7.720  11.007   8.291  0.4089 -0.2697  0.5958
  926MOL0     C24886   7.631  11.094   8.377 -0.2953 -1.1715  0.0991
  926MOL0     C24887   7.709  11.213   8.431  0.5630  0.0819  0.6926
  926MOL0     C24888   7.620  11.334   8.471  1.2616  0.4966  0.9277
  926MOL0     C24889   7.700  11.460   8.493  0.6558  0.5510  0.1971
  926MOL0     C24890   7.607  11.571   8.562 -0.6180  0.6728 -0.3360
  926MOL0     C24891   7.673  11.715   8.531  0.3153  0.0246 -1.0309
  926MOL0     N24892   7.815  11.724   8.562 -0.2538  0.1834 -0.3254
  926MOL0     C24893   7.903  11.771   8.465  0.1823  0.1951  0.1207
  926MOL0     C24894   8.020  11.782   8.535 -0.1837 -0.0521 -0.1624
  926MOL0     C24895   8.153  11.848   8.482  0.3753 -0.9088 -0.1585
  926MOL0     C24896   8.276  11.841   8.589  0.3009 -0.1329 -0.4139
  926MOL0     C24897   8.317  11.701   8.633 -0.2512  0.6436  0.2533
  926MOL0     C24898   8.446  11.711   8.717  0.5881  0.6969 -0.5514
  926MOL0     O24899   8.550  11.780   8.649  0.0621  1.1010  0.3089
  926MOL0     C24900   8.657  11.828   8.718  1.4898 -0.6450  0.9656
  926MOL0     C24901   8.720  11.756   8.819  0.3342  0.3912  0.0318
  926MOL0     C24902   8.846  11.786   8.879  0.8642  0.6425  0.1537
  926MOL0     C24903   8.908  11.684   8.965  0.2674 -0.1772 -0.3277
  926MOL0     C24904   8.911  11.900   8.829  0.8022  0.1839  0.0264
  926MOL0     C24905   9.034  11.956   8.893 -0.0539  1.2641 -0.6045
  926MOL0     O24906   9.068  12.082   8.860 -0.6377  0.0439  0.4036
  926MOL0     C24907   9.193  12.128   8.892  0.7315  0.2497 -0.1957
  926MOL0     C24908   9.282  12.188   8.787  0.1007  0.7679 -0.5026
  926MOL0     C24909   9.391  12.267   8.836  0.0900  0.2153  0.1243
  926MOL0     C24910   9.426  12.281   8.968  0.3261  0.3626 -0.0458
  926MOL0     O24911   9.520  12.372   9.015  0.1868  0.4742  0.1974
  926MOL0     C24912   9.547  12.492   8.941 -1.7679 -0.0687 -0.2130
  926MOL0     C24913   9.698  12.526   8.959 -0.2176  0.5643 -0.6073
  926MOL0     C24914   9.784  12.408   8.931  0.4848 -0.4296  0.9985
  926MOL0     C24915   9.811  12.412   8.780 -0.0726 -0.0414  0.4613
  926MOL0     C24916   9.871  12.280   8.721 -0.2911 -0.8223  0.5759
  926MOL0     C24917   9.936  12.308   8.581 -0.8628  0.1024 -0.8027
  926MOL0     C24918   9.953  12.168   8.508 -1.1438 -0.3035  0.3282
  926MOL0     C24919  10.047  12.190   8.384  0.0903  1.0484 -0.3423
  926MOL0    Cl24920  10.079  12.035   8.278  0.2092  0.5587 -0.1868
  926MOL0     C24921   9.355  12.200   9.059 -0.6739 -0.3468 -0.6275
  926MOL0     C24922   9.247  12.125   9.022  0.4992 -0.4167  0.0729
  926MOL0     O24923   9.094  11.884   8.976  0.0712 -0.4065  0.6236
  926MOL0     C24924   8.860  11.975   8.724  0.7647  0.4187 -0.3677
  926MOL0     C24925   8.729  11.938   8.674 -0.7184  0.7762  0.0931
  926MOL0     N24926   7.998  11.751   8.669 -0.4100  0.7925  0.3016
  926MOL0     N24927   7.876  11.718   8.684 -0.2621  0.5716 -0.0418
  926MOL0     C24928   7.770  11.026   7.938 -0.3204  0.7082 -0.5890
  926MOL0     C24929   7.855  11.078   7.842 -0.5783  0.2589  0.5483
  926MOL0     C24930   8.284  11.068   7.663  0.5162  0.1914 -0.5071
  926MOL0     C24931   8.261  10.975   7.553 -0.6865  0.1353 -0.2167
  926MOL0     C24932   8.353  10.974   7.446  0.2945  0.2503  0.1631
  926MOL0     C24933   8.457  11.059   7.439  0.2980 -0.8310 -0.0480
  926MOL0     O24934   8.538  11.062   7.324 -0.2428  0.8288  0.4292
  926MOL0     C24935   8.461  11.075   7.205 -0.9158  0.8335  0.2171
  926MOL0     C24936   8.518  11.179   7.104 -0.3366 -0.0543 -0.0980
  926MOL0     C24937   8.438  11.164   6.979  0.0322  0.5318  0.3667
  926MOL0     C24938   8.446  11.292   6.890  0.0695 -0.5045  0.5926
  926MOL0     C24939   8.377  11.274   6.765 -0.4819 -0.7248 -0.1470
  926MOL0     C24940   8.306  11.269   6.665 -0.6674 -0.1018 -0.5203
  926MOL0     C24941   8.475  11.147   7.544 -0.3364  0.3010 -0.6929
  926MOL0     C24942   8.391  11.147   7.656 -0.5975 -0.5081 -1.0041
  926MOL0     H24943   8.107  10.834   7.874  0.6598 -0.0125  1.8831
  926MOL0     H24944   7.921  10.746   8.039 -2.2741  0.5193  1.7903
  926MOL0     H24945   7.581  11.003   8.125  2.5094 -0.8575 -2.6868
  926MOL0     H24946   7.564  10.866   8.247  1.0823 -3.0552 -0.4166
  926MOL0     H24947   7.769  10.932   8.354 -1.6349 -1.3960  0.9272
  926MOL0     H24948   7.796  11.062   8.234 -1.5722  1.7047 -0.3042
  926MOL0     H24949   7.541  11.122   8.321  0.0530  1.7396  0.8233
  926MOL0     H24950   7.599  11.037   8.465  0.5048 -0.1636  1.0795
  926MOL0     H24951   7.772  11.169   8.508 -1.0127 -2.5683  0.6002
  926MOL0     H24952   7.777  11.248   8.353 -0.1331  0.0787  0.0672
  926MOL0     H24953   7.544  11.351   8.394  2.2725  0.4539 -0.1090
  926MOL0     H24954   7.579  11.318   8.571  1.7236  1.1017  1.2230
  926MOL0     H24955   7.786  11.440   8.557 -0.0522  1.0639  1.3408
  926MOL0     H24956   7.730  11.497   8.394 -0.3224 -0.9016 -0.6742
  926MOL0     H24957   7.502  11.575   8.531 -1.0826 -0.2578  1.0304
  926MOL0     H24958   7.596  11.565   8.671 -2.1262  0.1908 -0.4981
  926MOL0     H24959   7.620  11.771   8.609  0.1258 -1.5717  0.0567
  926MOL0     H24960   7.651  11.751   8.431 -0.3942  1.7725 -0.2759
  926MOL0     H24961   7.885  11.799   8.362  0.6361  0.6398  0.1597
  926MOL0     H24962   8.181  11.787   8.396  1.2549  0.8291 -1.1305
  926MOL0     H24963   8.140  11.948   8.442  4.1178 -1.1766 -2.4709
  926MOL0     H24964   8.242  11.892   8.680 -1.6194 -1.3844 -0.3608
  926MOL0     H24965   8.357  11.903   8.549 -2.3151 -0.0334 -6.7535
  926MOL0     H24966   8.347  11.647   8.543  0.8487  3.8642 -1.4726
  926MOL0     H24967   8.228  11.654   8.676 -0.0692  1.3702  1.4900
  926MOL0     H24968   8.478  11.613   8.755 -0.4710  1.4638  2.5738
  926MOL0     H24969   8.420  11.769   8.806  1.3053 -0.6852  0.6050
  926MOL0     H24970   8.682  11.660   8.854  0.9722 -0.3121 -1.1378
  926MOL0     H24971   8.921  11.712   9.070  1.5551  0.3646 -0.6025
  926MOL0     H24972   8.853  11.591   8.981 -0.3091  0.6556  3.5523
  926MOL0     H24973   9.011  11.668   8.930  0.9361 -1.1923  1.9468
  926MOL0     H24974   9.247  12.165   8.687 -1.3944 -0.0508  0.1685
  926MOL0     H24975   9.449  12.314   8.757  2.7962  1.0473  2.4231
  926MOL0     H24976   9.518  12.486   8.836 -1.3099  0.5735 -0.3867
  926MOL0     H24977   9.489  12.576   8.981 -1.8718 -0.3987  0.3299
  926MOL0     H24978   9.713  12.603   8.883  3.3939 -0.2248 -0.8853
  926MOL0     H24979   9.721  12.564   9.059 -0.0300 -1.1842  0.0576
  926MOL0     H24980   9.726  12.320   8.961 -1.8273 -0.1716 -2.1779
  926MOL0     H24981   9.879  12.419   8.984  1.9414  0.5815 -1.6308
  926MOL0     H24982   9.727  12.450   8.720  1.9316  1.7500 -1.3913
  926MOL0     H24983   9.885  12.491   8.765 -0.8986  1.1374  2.2257
  926MOL0     H24984   9.781  12.219   8.709 -1.8020  1.7931 -3.4357
  926MOL0     H24985   9.942  12.237   8.792 -2.1311 -2.0575  1.7782
  926MOL0     H24986   9.861  12.363   8.523 -1.9745  0.6792  1.0948
  926MOL0     H24987  10.028  12.366   8.578  0.4538 -1.8725 -0.5954
  926MOL0     H24988   9.856  12.128   8.477 -1.1488  0.2932 -0.4530
  926MOL0     H24989  10.010  12.094   8.565 -0.6876 -1.3127 -1.3736
  926MOL0     H24990  10.147  12.225   8.411  0.4483  2.0999 -2.7304
  926MOL0     H24991  10.000  12.257   8.311 -0.2395 -0.0301 -1.1351
  926MOL0     H24992   9.384  12.212   9.163  0.1100  2.8018 -1.1171
  926MOL0     H24993   9.190  12.071   9.097 -0.7664  3.7977  2.5020
  926MOL0     H24994   8.923  12.057   8.691  1.3065 -1.2019 -3.7429
  926MOL0     H24995   8.709  11.981   8.576  4.3848  0.4175 -1.4325
  926MOL0     H24996   7.679  11.081   7.959 -0.5491  1.2850 -2.8340
  926MOL0     H24997   7.832  11.165   7.782  2.3783 -0.2467 -1.5105
  926MOL0     H24998   8.183  10.900   7.545 -0.5011  0.1539 -3.1947
  926MOL0     H24999   8.320  10.913   7.363  0.6965 -0.2743  0.3869
  926MOL0     H25000   8.454  10.973   7.167 -1.4487 -0.2228  2.9206
  926MOL0     H25001   8.357  11.105   7.221 -1.1471 -0.1663  0.6442
  926MOL0     H25002   8.623  11.153   7.088 -0.0375  0.9354  0.1629
  926MOL0     H25003   8.506  11.280   7.146 -0.7468 -0.6452  1.2819
  926MOL0     H25004   8.333  11.139   6.996  0.2084 -0.2173  0.3863
  926MOL0     H25005   8.481  11.082   6.922 -3.2585 -2.6391  2.0335
  926MOL0     H25006   8.553  11.304   6.872  0.1217  2.7505  2.3979
  926MOL0     H25007   8.409  11.382   6.941  1.1955 -0.0405  0.6192
  926MOL0     H25008   8.249  11.262   6.574 -0.0302 -1.9299 -0.8026
  926MOL0     H25009   8.552  11.224   7.546  2.0863 -1.9201 -2.3161
  926MOL0     H25010   8.409  11.204   7.747 -2.3554 -2.9943  1.0535
  927MOL0     O25011   5.658   9.916   3.673  0.2507  0.7514  0.1705
  927MOL0     C25012   5.577   9.992   3.623 -0.3978 -0.6308  0.6747
  927MOL0     O25013   5.579  10.028   3.490  0.7835  0.0727  0.7768
  927MOL0     C25014   5.687   9.987   3.421 -0.4561  0.9242 -0.8113
  927MOL0     C25015   5.823  10.019   3.462  0.6710 -0.4910  0.0059
  927MOL0     C25016   5.943   9.977   3.400  0.9764  0.0866  0.2539
  927MOL0     C25017   5.921   9.903   3.289 -0.2237  1.4646 -0.0016
  927MOL0     O25018   6.032   9.834   3.242  0.2211  0.3154  0.3525
  927MOL0     C25019   6.032   9.804   3.102  0.0155 -0.6793  0.0847
  927MOL0     C25020   6.180   9.791   3.048 -0.2600 -0.1462  0.2926
  927MOL0     C25021   6.187   9.825   2.898  0.0431  0.5060  0.8165
  927MOL0     C25022   6.090   9.734   2.812 -1.0368 -0.2024 -0.7183
  927MOL0     C25023   6.088   9.768   2.672  0.1513 -0.2067  0.5074
  927MOL0     C25024   5.982   9.688   2.599  0.5524  0.3323  0.4783
  927MOL0     C25025   6.003   9.702   2.445  0.4326  0.2508 -0.5317
  927MOL0     C25026   5.965   9.842   2.380  0.9964  0.4770 -0.2028
  927MOL0     N25027   5.997   9.852   2.227 -0.3918 -1.0020 -0.7852
  927MOL0     C25028   5.918   9.799   2.126  0.4849  0.1804  0.1690
  927MOL0     C25029   5.967   9.853   2.012 -0.7035  0.6630 -0.7086
  927MOL0     C25030   5.909   9.839   1.874 -0.6840 -0.5616 -0.5406
  927MOL0     C25031   5.894   9.973   1.804 -0.3537  0.6247 -0.2269
  927MOL0     C25032   5.890   9.941   1.656  0.0097 -0.1801 -0.0808
  927MOL0     C25033   5.905  10.076   1.574  0.3156 -0.5749 -0.2874
  927MOL0     O25034   5.813  10.074   1.459 -0.5904 -0.0247 -0.7227
  927MOL0     C25035   5.839  10.008   1.339  0.0255  0.2866  1.1762
  927MOL0     C25036   5.753  10.038   1.233 -0.2917 -0.2514 -0.4314
  927MOL0     C25037   5.751   9.962   1.117  0.6599 -0.0738  0.6577
  927MOL0     C25038   5.629   9.985   1.023  0.0234  0.2382 -0.7616
  927MOL0     C25039   5.842   9.858   1.102 -0.7362 -1.3315 -1.4210
  927MOL0     C25040   5.858   9.761   0.977 -0.7300 -0.2700  0.0015
  927MOL0     O25041   5.782   9.799   0.871 -0.1163 -0.4724  0.1578
  927MOL0     C25042   5.780   9.714   0.754  0.5174  0.2818  0.1644
  927MOL0     C25043   5.678   9.614   0.756  0.4245  1.0506 -0.7072
  927MOL0     C25044   5.675   9.533   0.641  0.4704 -0.2390 -0.6632
  927MOL0     C25045   5.757   9.543   0.528 -1.0316  0.0671 -0.4571
  927MOL0     O25046   5.761   9.440   0.435  0.7583  0.4151  0.5544
  927MOL0     C25047   5.881   9.382   0.389 -0.0522  0.2440  0.4783
  927MOL0     C25048   5.911   9.238   0.438 -0.7538  0.1572 -0.7535
  927MOL0     C25049   5.896   9.223   0.591  0.0771 -0.1143 -0.5066
  927MOL0     C25050   5.990   9.111   0.654  0.1514 -0.1264  1.0277
  927MOL0     C25051   5.972   9.076   0.812 -0.2072 -0.2198  0.8039
  927MOL0     C25052   5.828   9.071   0.861  0.3269 -0.9407 -0.5310
  927MOL0     C25053   5.831   9.000   1.005  0.5429 -0.5194 -0.1731
  927MOL0     C25054   5.690   9.004   1.067 -0.0872 -0.1890  0.0172
  927MOL0    Cl25055   5.594   8.861   1.016 -0.2782  0.0758 -0.4702
  927MOL0     C25056   5.845   9.651   0.530 -0.6947  0.4866 -0.3352
  927MOL0     C25057   5.863   9.737   0.647  0.5417 -0.2168  0.0410
  927MOL0     O25058   5.933   9.665   0.983  0.0984 -0.2913  0.1281
  927MOL0     C25059   5.939   9.836   1.199  0.0336  0.6913 -0.0529
  927MOL0     C25060   5.933   9.903   1.320 -0.2850  0.8475 -0.6624
  927MOL0     N25061   6.082   9.924   2.043  0.2393 -0.2890 -0.5673
  927MOL0     N25062   6.096   9.925   2.174  0.2811  1.0251 -0.6660
  927MOL0     C25063   5.793   9.874   3.241 -0.6230 -0.1286 -0.6501
  927MOL0     C25064   5.684   9.909   3.309 -0.2616 -0.2190 -0.5225
  927MOL0     C25065   5.485  10.056   3.705  0.4967  0.0258 -0.8231
  927MOL0     C25066   5.446  10.002   3.828  0.2314  0.6879  0.5020
  927MOL0     C25067   5.352  10.072   3.905  0.0626  0.2242 -0.0868
  927MOL0     C25068   5.314  10.206   3.873 -0.4303  1.4332  0.0581
  927MOL0     O25069   5.208  10.248   3.953 -0.2021  0.4242  0.1365
  927MOL0     C25070   5.131  10.359   3.916  0.2899 -0.4002  0.2540
  927MOL0     C25071   4.986  10.331   3.963 -0.8825  0.4148  0.5612
  927MOL0     C25072   4.895  10.445   3.921  0.2470 -0.2509 -0.6825
  927MOL0     C25073   4.776  10.409   3.829  0.3166 -0.1215  0.5564
  927MOL0     C25074   4.817  10.390   3.689 -0.1031  1.0728  0.5365
  927MOL0     C25075   4.846  10.378   3.568  1.1656 -0.1365 -0.5877
  927MOL0     C25076   5.362  10.264   3.754 -0.5444  0.3319 -0.5687
  927MOL0     C25077   5.435  10.183   3.668  0.0678  0.0211 -0.8712
  927MOL0     H25078   5.836  10.072   3.556 -1.8859 -1.7806  1.1878
  927MOL0     H25079   6.043   9.996   3.437  1.5326  2.2403 -2.0892
  927MOL0     H25080   5.978   9.717   3.063  1.5704 -2.1812  1.1859
  927MOL0     H25081   5.995   9.895   3.052 -1.1289 -1.3845 -0.4040
  927MOL0     H25082   6.248   9.862   3.095  0.4887 -0.2882 -0.5549
  927MOL0     H25083   6.212   9.687   3.063  0.3111  0.4898  5.3621
  927MOL0     H25084   6.167   9.932   2.887 -1.5506  0.6095  3.7302
  927MOL0     H25085   6.286   9.811   2.854  0.0479  2.1984  0.2028
  927MOL0     H25086   6.123   9.630   2.815  1.9409  0.6255 -1.5439
  927MOL0     H25087   5.992   9.744   2.860  1.4384  2.4080  4.5743
  927MOL0     H25088   6.081   9.875   2.651  0.7858  0.0005  1.2741
  927MOL0     H25089   6.188   9.742   2.635 -0.0621 -1.8402  1.0008
  927MOL0     H25090   5.988   9.581   2.620 -1.6713 -0.5522 -2.6749
  927MOL0     H25091   5.882   9.729   2.617  1.9913  4.0336  0.8413
  927MOL0     H25092   6.111   9.696   2.427  0.4184 -1.2209 -0.2492
  927MOL0     H25093   5.980   9.613   2.385  1.5280  0.3261 -1.0900
  927MOL0     H25094   6.007   9.926   2.437 -1.8139  2.5896 -0.9764
  927MOL0     H25095   5.857   9.850   2.392  0.6006 -1.7934 -1.6136
  927MOL0     H25096   5.827   9.742   2.140  0.5249  0.3091  1.0373
  927MOL0     H25097   5.974   9.764   1.828  1.1294 -0.6342  1.9328
  927MOL0     H25098   5.807   9.799   1.882 -1.1964  0.4762 -1.6040
  927MOL0     H25099   5.988  10.027   1.824  0.9613 -2.9137  5.2164
  927MOL0     H25100   5.806  10.024   1.844 -0.5797 -1.4240  2.0792
  927MOL0     H25101   5.789   9.905   1.634 -0.3433  1.0348 -0.4884
  927MOL0     H25102   5.959   9.867   1.615  0.8584 -1.6414  3.5479
  927MOL0     H25103   6.004  10.097   1.532  0.9805 -2.2415  0.3822
  927MOL0     H25104   5.874  10.166   1.627 -0.9320  0.2713 -2.3279
  927MOL0     H25105   5.688  10.124   1.245 -0.2025  0.0463 -1.8823
  927MOL0     H25106   5.563   9.899   1.010  1.3469 -1.2954  1.9030
  927MOL0     H25107   5.572  10.065   1.072 -1.3289 -1.4266  0.5276
  927MOL0     H25108   5.667  10.012   0.924  1.9387  2.3963  0.4664
  927MOL0     H25109   5.603   9.596   0.833  0.7380 -2.0064 -1.0163
  927MOL0     H25110   5.603   9.453   0.642 -2.0497  1.9011  0.0211
  927MOL0     H25111   5.869   9.392   0.281  1.2792 -2.6727 -0.0266
  927MOL0     H25112   5.973   9.434   0.417  0.8328 -1.1701  0.2628
  927MOL0     H25113   5.854   9.158   0.389 -1.5054  0.3034 -0.1286
  927MOL0     H25114   6.014   9.228   0.401 -0.2500 -0.1108  0.6742
  927MOL0     H25115   5.790   9.213   0.616  0.0187  2.7427  0.8431
  927MOL0     H25116   5.919   9.319   0.639  0.6911  1.5186 -3.7856
  927MOL0     H25117   5.981   9.021   0.593  0.4153  0.7407 -0.3215
  927MOL0     H25118   6.091   9.151   0.643  0.1712  0.0304  1.6840
  927MOL0     H25119   6.028   9.159   0.857  0.0589 -0.6917  1.3736
  927MOL0     H25120   6.024   8.980   0.828 -0.1433 -0.4397 -0.5934
  927MOL0     H25121   5.796   9.175   0.872 -0.6538 -1.2763 -0.0863
  927MOL0     H25122   5.751   9.016   0.806 -0.9080  0.5439 -0.3765
  927MOL0     H25123   5.892   9.060   1.074 -2.9993  0.4308  2.3907
  927MOL0     H25124   5.871   8.898   1.003  1.4880 -0.2324  1.5473
  927MOL0     H25125   5.638   9.099   1.048 -1.5823 -0.8227  0.7830
  927MOL0     H25126   5.707   8.988   1.174  2.9483  0.6627 -0.2502
  927MOL0     H25127   5.912   9.674   0.448 -1.1605  0.1636 -0.8102
  927MOL0     H25128   5.938   9.815   0.640  2.0057 -1.5780 -0.0121
  927MOL0     H25129   6.010   9.755   1.190 -1.2147 -0.3862 -0.5988
  927MOL0     H25130   5.997   9.860   1.397  0.6315 -0.9080 -2.3037
  927MOL0     H25131   5.777   9.803   3.161  0.8989 -0.7880 -0.4057
  927MOL0     H25132   5.587   9.873   3.277 -0.3991  1.7672 -2.6324
  927MOL0     H25133   5.484   9.904   3.856  1.0022  1.3429  1.8630
  927MOL0     H25134   5.320  10.041   4.003 -1.6500  0.0060 -0.6832
  927MOL0     H25135   5.171  10.459   3.932  2.0102 -0.5556 -2.4285
  927MOL0     H25136   5.114  10.348   3.808  2.8317 -4.6354  0.0681
  927MOL0     H25137   4.991  10.309   4.070  0.9933 -0.0143  0.4122
  927MOL0     H25138   4.952  10.238   3.917 -1.6371  0.4303  1.0600
  927MOL0     H25139   4.947  10.526   3.870 -2.3001  0.3477 -2.5003
  927MOL0     H25140   4.861  10.487   4.016 -0.2640 -0.8639 -0.5920
  927MOL0     H25141   4.697  10.484   3.832 -0.1247 -0.5798  0.5216
  927MOL0     H25142   4.727  10.314   3.856 -4.6250  2.5276  2.1106
  927MOL0     H25143   4.849  10.371   3.461 -0.0219  0.0903 -0.6547
  927MOL0     H25144   5.335  10.368   3.735 -2.3738  1.0934  4.5666
  927MOL0     H25145   5.466  10.223   3.572 -1.5734 -2.1192 -2.3791
  928MOL0     O25146   3.319   3.514   9.143  0.2017 -0.3881 -0.4088
  928MOL0     C25147   3.274   3.416   9.195  0.3333 -0.1144  0.0195
  928MOL0     O25148   3.186   3.328   9.134  0.0802 -0.1333  0.1346
  928MOL0     C25149   3.091   3.371   9.039  0.0317 -0.2010  0.1185
  928MOL0     C25150   3.124   3.415   8.912 -0.1654 -0.3503  0.5378
  928MOL0     C25151   3.017   3.441   8.820 -0.3073  0.0960 -0.7238
  928MOL0     C25152   2.879   3.433   8.857  0.5858  0.9202  0.2431
  928MOL0     O25153   2.783   3.455   8.767 -0.3602  0.3252  0.1739
  928MOL0     C25154   2.789   3.586   8.709  0.5638  0.3449 -0.0779
  928MOL0     C25155   2.653   3.645   8.680 -0.2442 -0.3303 -0.0460
  928MOL0     C25156   2.603   3.695   8.812  0.3927  0.4053  0.6757
  928MOL0     C25157   2.473   3.769   8.784  0.0579  0.3336  0.5377
  928MOL0     C25158   2.407   3.817   8.913 -0.0831 -0.2205  0.6841
  928MOL0     C25159   2.342   3.714   9.001 -0.3832  0.3359 -0.6736
  928MOL0     C25160   2.288   3.778   9.138 -0.5976  0.2295 -0.3139
  928MOL0     C25161   2.173   3.865   9.116  0.3142 -0.1239  0.2386
  928MOL0     N25162   2.096   3.887   9.237 -0.2907  0.4305 -0.3777
  928MOL0     C25163   2.007   3.804   9.299 -0.1548  0.2779  0.7390
  928MOL0     C25164   1.948   3.866   9.405 -0.2178  0.0373  0.3952
  928MOL0     C25165   1.854   3.815   9.515 -0.9566 -0.3630 -0.5761
  928MOL0     C25166   1.709   3.881   9.516 -0.3880  0.1987 -0.1981
  928MOL0     C25167   1.701   4.031   9.482  0.2232 -0.4574 -0.5121
  928MOL0     C25168   1.766   4.124   9.591 -0.5861  0.0142 -0.3884
  928MOL0     O25169   1.685   4.119   9.706 -0.4318 -0.0234 -0.0890
  928MOL0     C25170   1.669   4.242   9.771  0.1093 -0.3456  1.1099
  928MOL0     C25171   1.547   4.270   9.828  0.2890  0.2479 -0.4383
  928MOL0     C25172   1.534   4.384   9.917 -0.2156 -0.1056  0.5449
  928MOL0     C25173   1.399   4.398   9.992 -0.3184 -0.1002  0.0898
  928MOL0     C25174   1.647   4.473   9.929 -0.0617  0.3969 -0.5545
  928MOL0     C25175   1.641   4.597  10.010  0.5970  0.0015  0.4070
  928MOL0     O25176   1.759   4.625  10.067 -0.1950  0.4500 -0.4106
  928MOL0     C25177   1.765   4.727  10.162  1.0034 -0.5951 -0.3327
  928MOL0     C25178   1.816   4.849  10.132  0.3306  0.0956 -0.6404
  928MOL0     C25179   1.832   4.942  10.228  0.6569 -0.0999 -0.7877
  928MOL0     C25180   1.818   4.917  10.363  0.5640  0.8203  0.3199
  928MOL0     O25181   1.852   4.999  10.464 -0.0684 -0.5630 -0.2105
  928MOL0     C25182   1.907   5.127  10.435 -0.3622 -0.3304  0.3464
  928MOL0     C25183   1.937   5.194  10.570 -0.0834  1.0396 -0.0673
  928MOL0     C25184   2.014   5.318  10.538 -0.3950 -0.8388 -0.0859
  928MOL0     C25185   2.162   5.292  10.540 -0.2143 -0.1125 -0.3775
  928MOL0     C25186   2.252   5.411  10.579  1.3469  0.4193 -0.8400
  928MOL0     C25187   2.395   5.387  10.545 -0.2022  1.3351  1.0369
  928MOL0     C25188   2.478   5.522  10.522  0.3544  0.7027  0.6846
  928MOL0     C25189   2.614   5.502  10.449  1.4187 -0.0135 -0.8413
  928MOL0    Cl25190   2.583   5.545  10.282  0.3632 -0.0855 -0.2196
  928MOL0     C25191   1.765   4.792  10.392 -0.3816 -0.3621 -0.4982
  928MOL0     C25192   1.740   4.702  10.291 -0.5245  0.4037 -0.4056
  928MOL0     O25193   1.535   4.651  10.034 -0.1127 -1.3243  0.0702
  928MOL0     C25194   1.766   4.449   9.863 -0.3505  0.5551  0.9917
  928MOL0     C25195   1.773   4.331   9.786 -1.3720 -0.1200  0.5925
  928MOL0     N25196   2.011   3.990   9.412  0.2536 -0.5537  0.6804
  928MOL0     N25197   2.099   3.996   9.311 -0.3936 -0.0536 -0.1070
  928MOL0     C25198   2.855   3.367   8.982 -0.2391 -0.4081  0.1814
  928MOL0     C25199   2.959   3.343   9.076  0.8109 -0.3806 -0.2165
  928MOL0     C25200   3.326   3.367   9.318  0.0308 -1.1518  0.0601
  928MOL0     C25201   3.258   3.280   9.408 -0.4831  0.0097 -0.3207
  928MOL0     C25202   3.316   3.250   9.528  0.0765 -0.1679 -0.3988
  928MOL0     C25203   3.447   3.279   9.563 -0.0275 -0.0095 -1.4916
  928MOL0     O25204   3.498   3.223   9.682  0.1340 -0.0598  0.4866
  928MOL0     C25205   3.632   3.261   9.730  1.6000  0.9163 -0.3679
  928MOL0     C25206   3.637   3.402   9.788 -0.0969 -1.2221  0.1586
  928MOL0     C25207   3.766   3.443   9.850 -0.7644 -0.8260  0.2686
  928MOL0     C25208   3.885   3.438   9.743  1.1034  0.6510 -0.6885
  928MOL0     C25209   3.874   3.520   9.621 -0.2604 -0.1468 -0.7895
  928MOL0     C25210   3.866   3.586   9.524 -0.0150 -0.9494  0.3653
  928MOL0     C25211   3.525   3.326   9.461  0.1423 -0.5290 -0.2387
  928MOL0     C25212   3.462   3.375   9.348  0.0276  0.0139  0.1212
  928MOL0     H25213   3.230   3.416   8.890  0.7940 -0.1849  4.4720
  928MOL0     H25214   3.046   3.472   8.720  0.4768 -0.2832 -0.6188
  928MOL0     H25215   2.850   3.656   8.767  1.2876 -1.5986  1.6254
  928MOL0     H25216   2.836   3.577   8.611  2.4011  3.9395  0.3209
  928MOL0     H25217   2.654   3.731   8.612 -2.2431  0.6323  1.0473
  928MOL0     H25218   2.586   3.570   8.637  1.2079 -0.7384 -1.7474
  928MOL0     H25219   2.589   3.608   8.876 -0.9068  1.5942  2.0880
  928MOL0     H25220   2.667   3.773   8.855 -3.3322  2.5111  2.9228
  928MOL0     H25221   2.493   3.859   8.726  1.3147 -0.8194 -0.9291
  928MOL0     H25222   2.406   3.706   8.725  2.0601 -0.4724 -1.0186
  928MOL0     H25223   2.489   3.860   8.972 -0.6683  0.0176  1.3373
  928MOL0     H25224   2.332   3.894   8.893  1.5185  0.6937 -2.3036
  928MOL0     H25225   2.259   3.670   8.944  0.8547 -1.6270 -1.0317
  928MOL0     H25226   2.418   3.641   9.028  0.1527  1.5391  1.2608
  928MOL0     H25227   2.262   3.694   9.202 -1.1724 -2.1552 -3.4256
  928MOL0     H25228   2.363   3.836   9.192 -0.2342 -2.3916  2.2314
  928MOL0     H25229   2.108   3.820   9.042 -0.7561 -1.5084  1.9514
  928MOL0     H25230   2.216   3.954   9.070 -0.7591  0.6893  0.7547
  928MOL0     H25231   1.984   3.706   9.258 -0.1827  0.5789  0.0184
  928MOL0     H25232   1.839   3.708   9.497  0.0388 -0.2141 -2.6524
  928MOL0     H25233   1.888   3.836   9.616 -2.5177  0.9609 -0.2857
  928MOL0     H25234   1.659   3.859   9.611 -0.5022  3.5624  0.6457
  928MOL0     H25235   1.656   3.834   9.432  0.9820 -1.4246 -0.2112
  928MOL0     H25236   1.594   4.054   9.480 -0.4893 -3.3299 -0.0391
  928MOL0     H25237   1.752   4.058   9.389  0.3541  0.7780 -0.1047
  928MOL0     H25238   1.774   4.228   9.556  2.6701  0.0232  0.0853
  928MOL0     H25239   1.870   4.097   9.608  0.5383  2.4417 -2.6709
  928MOL0     H25240   1.470   4.199   9.800  0.5993 -0.2767  0.0313
  928MOL0     H25241   1.366   4.501   9.976  1.2260  0.5847  1.0337
  928MOL0     H25242   1.325   4.330   9.950 -2.3343  1.5378  0.8053
  928MOL0     H25243   1.406   4.382  10.100  2.0179 -0.7701 -0.1053
  928MOL0     H25244   1.850   4.867  10.031  2.1476  0.9037  0.0585
  928MOL0     H25245   1.879   5.038  10.205 -0.2061  0.9071  1.3760
  928MOL0     H25246   2.001   5.112  10.381 -0.7031  0.4236 -0.4912
  928MOL0     H25247   1.832   5.176  10.372 -0.5859 -2.7344 -1.3845
  928MOL0     H25248   1.834   5.214  10.603 -0.9376 -0.5615 -1.6151
  928MOL0     H25249   1.990   5.131  10.641 -2.5269  0.3099  1.2266
  928MOL0     H25250   1.994   5.392  10.616 -0.9331  0.8961 -1.7894
  928MOL0     H25251   1.986   5.362  10.441 -2.0060 -0.8675  0.3467
  928MOL0     H25252   2.178   5.216  10.617  0.9894 -0.6104 -1.0847
  928MOL0     H25253   2.205   5.240  10.455 -2.0538 -1.3033 -0.6279
  928MOL0     H25254   2.239   5.427  10.686 -0.8297  1.3271 -1.1811
  928MOL0     H25255   2.209   5.499  10.530  0.8053 -0.5005 -2.0869
  928MOL0     H25256   2.442   5.320  10.617 -0.9838 -0.3640  0.0244
  928MOL0     H25257   2.378   5.339  10.448 -5.0662 -1.6691  3.0378
  928MOL0     H25258   2.509   5.560  10.620  3.4116  0.9729 -0.2886
  928MOL0     H25259   2.424   5.598  10.465 -0.2654  1.5953  2.3894
  928MOL0     H25260   2.648   5.398  10.454 -2.5519 -1.4776 -0.6391
  928MOL0     H25261   2.701   5.548  10.496  0.4780 -0.6897  1.7038
  928MOL0     H25262   1.764   4.774  10.499 -1.3207 -0.3454 -0.4911
  928MOL0     H25263   1.709   4.605  10.327 -0.4246  0.6901  0.4696
  928MOL0     H25264   1.849   4.516   9.885  0.9798 -0.9858  0.9156
  928MOL0     H25265   1.870   4.322   9.739 -2.0399  2.0749 -1.4002
  928MOL0     H25266   2.748   3.355   8.990 -0.5626  0.0051 -2.6436
  928MOL0     H25267   2.949   3.295   9.173  1.8613  1.1609  0.7043
  928MOL0     H25268   3.156   3.254   9.384  0.1549 -2.7637 -0.3538
  928MOL0     H25269   3.265   3.188   9.602  0.7473  0.0161  0.2180
  928MOL0     H25270   3.673   3.195   9.807  1.0792  0.9234 -0.0777
  928MOL0     H25271   3.707   3.254   9.650  3.0555  3.7752  0.5828
  928MOL0     H25272   3.559   3.413   9.864 -0.0994  3.4756 -0.2511
  928MOL0     H25273   3.614   3.477   9.712  2.6127  0.4108  0.8258
  928MOL0     H25274   3.789   3.380   9.936  0.8612 -2.8499 -1.5097
  928MOL0     H25275   3.752   3.547   9.879 -0.0368 -0.3920 -0.8497
  928MOL0     H25276   3.898   3.332   9.719  2.9876  0.5894  0.4087
  928MOL0     H25277   3.980   3.455   9.796  0.8261 -0.0937  0.0716
  928MOL0     H25278   3.878   3.652   9.441 -6.6204  2.1702  1.2889
  928MOL0     H25279   3.634   3.335   9.463  0.0246  4.2477  3.0050
  928MOL0     H25280   3.515   3.413   9.262 -2.7450  1.8772 -0.9178
  929MOL0     O25281   7.871   0.427   6.966 -0.4638 -0.5378 -0.3207
  929MOL0     C25282   7.887   0.401   7.087  0.1523 -0.4264  0.1970
  929MOL0     O25283   7.801   0.325   7.158 -0.2302 -0.5400  0.0775
  929MOL0     C25284   7.678   0.298   7.105  0.5371 -0.1361  0.0697
  929MOL0     C25285   7.573   0.351   7.173 -0.7420  0.8065  0.3726
  929MOL0     C25286   7.440   0.325   7.133 -0.0650 -0.1460 -0.6052
  929MOL0     C25287   7.414   0.241   7.021  0.1639  0.0136  0.3558
  929MOL0     O25288   7.279   0.224   6.997  0.6192  0.1236 -0.6493
  929MOL0     C25289   7.234   0.144   6.886 -0.8433 -0.2367  0.5593
  929MOL0     C25290   7.229   0.216   6.753 -1.4178 -0.5764  0.6017
  929MOL0     C25291   7.165   0.113   6.668 -0.1509 -0.3278  0.2541
  929MOL0     C25292   7.115   0.176   6.540 -0.4847  0.5125 -0.0480
  929MOL0     C25293   7.057   0.078   6.443  0.2378  0.1139 -0.4616
  929MOL0     C25294   7.056   0.139   6.303  0.5554  0.6704 -0.7285
  929MOL0     C25295   6.953   0.245   6.307  0.8382  0.2413 -0.8287
  929MOL0     C25296   6.889   0.259   6.182  0.0311  0.4248  0.0093
  929MOL0     N25297   6.982   0.273   6.061  1.3673 -0.6215  0.4633
  929MOL0     C25298   7.064   0.379   6.027 -1.3807  0.1125 -0.3667
  929MOL0     C25299   7.149   0.321   5.939  0.2019 -0.1807 -0.3417
  929MOL0     C25300   7.268   0.390   5.880  0.9024  0.1323 -0.2664
  929MOL0     C25301   7.296   0.362   5.734  0.8102  0.6350  0.5386
  929MOL0     C25302   7.426   0.416   5.682 -0.0804  0.1650  0.4349
  929MOL0     C25303   7.568   0.356   5.738 -0.3618 -0.2017 -0.1019
  929MOL0     O25304   7.681   0.448   5.707 -0.0152  0.2864  0.5684
  929MOL0     C25305   7.694   0.468   5.574  0.4401  0.2472 -1.1102
  929MOL0     C25306   7.771   0.371   5.506  0.8501 -0.4129  0.3139
  929MOL0     C25307   7.802   0.382   5.373  0.2172  0.5559  0.5912
  929MOL0     C25308   7.897   0.284   5.309 -0.3795  0.1580  0.0579
  929MOL0     C25309   7.745   0.493   5.306  0.0411 -0.5893  0.2731
  929MOL0     C25310   7.763   0.518   5.163 -0.1296 -0.3417  0.5390
  929MOL0     O25311   7.655   0.539   5.077  0.2885 -0.2254  0.5680
  929MOL0     C25312   7.701   0.606   4.968  0.6632 -0.6876 -1.1474
  929MOL0     C25313   7.694   0.748   4.960  1.1167  0.2413  0.7717
  929MOL0     C25314   7.734   0.807   4.835  0.2305  0.4519  0.2052
  929MOL0     C25315   7.778   0.728   4.726  0.2463 -0.6136  0.7393
  929MOL0     O25316   7.848   0.797   4.622  0.4216 -0.0126  0.3229
  929MOL0     C25317   7.877   0.729   4.506  0.4670 -0.2284  0.2863
  929MOL0     C25318   7.976   0.806   4.414  0.3805 -0.1710  0.0693
  929MOL0     C25319   8.007   0.726   4.284  0.4743  0.9117 -0.3991
  929MOL0     C25320   8.136   0.774   4.210 -0.4275  0.8549 -0.3764
  929MOL0     C25321   8.258   0.690   4.245  0.5400 -0.8528 -0.1755
  929MOL0     C25322   8.380   0.728   4.170  0.4553  0.1998 -0.0386
  929MOL0     C25323   8.387   0.668   4.028  1.0282 -0.6187 -0.7126
  929MOL0     C25324   8.405   0.517   4.021  1.4524  0.7777  0.3135
  929MOL0    Cl25325   8.492   0.464   3.878  0.1852 -0.4835  0.1453
  929MOL0     C25326   7.777   0.590   4.740 -0.3635 -0.5512 -0.5081
  929MOL0     C25327   7.731   0.534   4.857 -0.9800 -0.3309  0.0492
  929MOL0     O25328   7.874   0.550   5.136 -0.6050 -0.7593 -0.1980
  929MOL0     C25329   7.674   0.589   5.378  0.1445 -0.6483  0.2181
  929MOL0     C25330   7.645   0.579   5.514 -0.4033  0.0932 -0.0495
  929MOL0     N25331   7.110   0.194   5.903 -0.8445  0.3822 -0.0478
  929MOL0     N25332   7.014   0.171   5.981 -0.1096 -0.0351 -0.0716
  929MOL0     C25333   7.519   0.184   6.951 -0.2523 -0.0298  0.5023
  929MOL0     C25334   7.654   0.205   6.997 -0.2410  0.6457  0.4088
  929MOL0     C25335   8.007   0.445   7.150 -0.5363 -0.0184 -1.0871
  929MOL0     C25336   8.039   0.406   7.288  0.0560 -0.4908  0.5768
  929MOL0     C25337   8.165   0.445   7.340  0.3191  0.2680  0.0753
  929MOL0     C25338   8.248   0.529   7.271  0.4664 -0.6213  0.0765
  929MOL0     O25339   8.369   0.573   7.314 -0.6337  0.7260  0.0380
  929MOL0     C25340   8.404   0.599   7.454  0.0851  0.2767 -0.0079
  929MOL0     C25341   8.543   0.658   7.473 -0.4600  0.1942  0.1970
  929MOL0     C25342   8.533   0.805   7.439 -0.6189  0.3489 -0.0407
  929MOL0     C25343   8.668   0.875   7.450 -0.9589  0.0566 -0.1698
  929MOL0     C25344   8.649   1.006   7.399 -0.1095 -0.6884  0.6263
  929MOL0     C25345   8.612   1.114   7.348  1.2715  0.7515 -0.1040
  929MOL0     C25346   8.217   0.576   7.142  0.1519  0.7361  1.0202
  929MOL0     C25347   8.098   0.530   7.082 -0.1760 -1.0865 -0.3486
  929MOL0     H25348   7.586   0.409   7.263 -2.8000  2.9515 -0.6125
  929MOL0     H25349   7.352   0.357   7.189 -0.6117 -0.2461 -1.3920
  929MOL0     H25350   7.286   0.048   6.885 -0.2542  0.0786 -0.5477
  929MOL0     H25351   7.131   0.115   6.906 -0.8713 -0.0464  0.6996
  929MOL0     H25352   7.187   0.317   6.758  0.5147  0.5612 -2.9863
  929MOL0     H25353   7.323   0.235   6.700 -0.8667 -2.1834  0.9344
  929MOL0     H25354   7.226   0.028   6.636 -2.3043 -2.9088  2.4745
  929MOL0     H25355   7.075   0.065   6.708 -1.2145  0.5326 -1.0214
  929MOL0     H25356   7.040   0.253   6.560  1.4096  2.7235 -0.9626
  929MOL0     H25357   7.199   0.237   6.503 -0.5561  0.7064  0.1062
  929MOL0     H25358   7.116  -0.013   6.433 -1.2147 -1.1710  1.8607
  929MOL0     H25359   6.957   0.045   6.472  0.3238 -2.1169 -2.4090
  929MOL0     H25360   7.155   0.171   6.270 -0.9966  1.5294 -5.2714
  929MOL0     H25361   7.031   0.057   6.235  1.5136 -2.8076  2.7414
  929MOL0     H25362   6.874   0.226   6.380  0.3087  0.0735 -1.4328
  929MOL0     H25363   6.984   0.345   6.338 -0.3769  0.8392 -1.4499
  929MOL0     H25364   6.825   0.346   6.200  0.4236  0.5634  0.7886
  929MOL0     H25365   6.823   0.173   6.174 -0.4159  0.9669 -4.3416
  929MOL0     H25366   7.076   0.477   6.071 -0.6632 -0.7524  1.4394
  929MOL0     H25367   7.250   0.497   5.897 -0.6579 -0.1262 -0.1336
  929MOL0     H25368   7.357   0.351   5.930  1.9026  1.3073 -1.0690
  929MOL0     H25369   7.206   0.400   5.686 -1.3338 -2.1048  2.0971
  929MOL0     H25370   7.289   0.253   5.721 -0.3824  0.5848  1.4912
  929MOL0     H25371   7.414   0.522   5.706 -1.1231 -0.5001  3.2830
  929MOL0     H25372   7.438   0.405   5.573  0.1747 -0.7515  0.5475
  929MOL0     H25373   7.589   0.257   5.697  0.4426 -0.0280 -0.1277
  929MOL0     H25374   7.583   0.342   5.846 -1.2462 -2.7097 -0.2491
  929MOL0     H25375   7.828   0.301   5.565  1.2318 -0.6031 -0.2766
  929MOL0     H25376   7.941   0.338   5.225  0.5497  1.5156  1.3426
  929MOL0     H25377   7.976   0.260   5.381  2.4500 -0.3819 -3.0223
  929MOL0     H25378   7.867   0.187   5.269  4.2707 -1.3694 -0.2373
  929MOL0     H25379   7.653   0.808   5.040  1.2526 -1.3470  2.1014
  929MOL0     H25380   7.752   0.914   4.830 -1.1514  0.6515 -1.6009
  929MOL0     H25381   7.930   0.634   4.522  0.1099 -0.3459  0.7502
  929MOL0     H25382   7.784   0.700   4.456 -0.1142 -1.0670  1.7881
  929MOL0     H25383   7.934   0.903   4.386 -1.6051 -1.5379 -2.0232
  929MOL0     H25384   8.067   0.834   4.469  0.2381  0.3987  0.0252
  929MOL0     H25385   7.933   0.742   4.205 -0.0810 -1.2926 -0.3942
  929MOL0     H25386   8.004   0.618   4.302 -0.6217  0.7574 -1.4212
  929MOL0     H25387   8.119   0.756   4.103 -1.8656 -1.8482  0.2173
  929MOL0     H25388   8.166   0.876   4.234  3.1741 -0.1877  0.2366
  929MOL0     H25389   8.230   0.587   4.224 -0.1950 -0.4183 -1.5092
  929MOL0     H25390   8.275   0.698   4.353  1.6752 -0.6645 -0.3466
  929MOL0     H25391   8.409   0.834   4.169  0.1983  0.2796  0.6040
  929MOL0     H25392   8.447   0.688   4.246 -1.8248  0.7134  2.3641
  929MOL0     H25393   8.462   0.726   3.973  1.0013  1.7027  1.4974
  929MOL0     H25394   8.299   0.683   3.964  1.2507 -1.1527 -1.1547
  929MOL0     H25395   8.304   0.476   4.020  0.7897  2.3563 -0.5497
  929MOL0     H25396   8.458   0.491   4.113  2.2134  0.6541 -0.1495
  929MOL0     H25397   7.810   0.539   4.650 -0.7694  0.5381 -1.3084
  929MOL0     H25398   7.721   0.426   4.867 -0.5887 -0.5822 -1.9740
  929MOL0     H25399   7.642   0.682   5.332  1.0449  1.9073  4.3008
  929MOL0     H25400   7.611   0.662   5.574  2.1224  2.2032 -1.2930
  929MOL0     H25401   7.505   0.114   6.868 -0.6245  0.3440  0.2468
  929MOL0     H25402   7.742   0.160   6.951 -2.3512 -2.4060 -0.9798
  929MOL0     H25403   7.973   0.353   7.356  1.4310 -0.8205  1.7145
  929MOL0     H25404   8.191   0.395   7.433  0.5704 -1.9373 -1.1055
  929MOL0     H25405   8.325   0.668   7.485 -1.5711 -1.6349  0.2277
  929MOL0     H25406   8.406   0.503   7.506  0.5334  0.6103  0.6089
  929MOL0     H25407   8.613   0.602   7.411  0.4622  2.5854 -1.0339
  929MOL0     H25408   8.571   0.667   7.579  1.7866  1.4728 -0.4274
  929MOL0     H25409   8.456   0.847   7.503 -2.2263  0.3167 -1.8657
  929MOL0     H25410   8.486   0.813   7.340 -1.3583 -0.8537  0.1940
  929MOL0     H25411   8.752   0.835   7.393 -2.8593 -0.0754 -3.1389
  929MOL0     H25412   8.693   0.879   7.556  2.3589 -0.7064 -0.8247
  929MOL0     H25413   8.593   1.211   7.307 -0.1664 -0.7255 -3.2656
  929MOL0     H25414   8.283   0.640   7.084  0.4603 -1.0972 -0.7661
  929MOL0     H25415   8.078   0.561   6.980  0.8738  0.3435 -0.1509
  930MOL0     O25416   3.789   7.955   9.136 -0.1583  0.5690  0.0490
  930MOL0     C25417   3.911   7.948   9.138  0.1970 -0.0953  0.6270
  930MOL0     O25418   3.979   7.839   9.083 -0.0337  0.0458 -0.2325
  930MOL0     C25419   3.897   7.776   8.988  0.6314 -0.4055  0.1188
  930MOL0     C25420   3.884   7.640   8.997  0.8037 -0.3356  0.1748
  930MOL0     C25421   3.815   7.576   8.889  1.1001 -0.8750 -0.0919
  930MOL0     C25422   3.753   7.642   8.780  0.9547  0.2059  0.4284
  930MOL0     O25423   3.686   7.566   8.686  0.7911 -0.5661 -0.0916
  930MOL0     C25424   3.619   7.639   8.576 -0.2712  0.6123 -0.3819
  930MOL0     C25425   3.710   7.674   8.455 -0.9199 -0.5359 -0.9737
  930MOL0     C25426   3.635   7.766   8.358  0.0360  0.2880  0.1198
  930MOL0     C25427   3.626   7.908   8.418 -0.4024 -0.0360  0.6375
  930MOL0     C25428   3.586   8.006   8.313 -0.3358 -0.5939 -0.2035
  930MOL0     C25429   3.430   7.998   8.305 -0.0769  0.8852 -0.2011
  930MOL0     C25430   3.381   8.132   8.265  0.8725  1.0996  0.3130
  930MOL0     C25431   3.244   8.112   8.190  0.3074 -0.1997  0.3264
  930MOL0     N25432   3.253   8.049   8.060 -1.0470 -0.3614 -0.2871
  930MOL0     C25433   3.154   7.980   7.991 -0.1125  0.2862 -0.3527
  930MOL0     C25434   3.217   7.970   7.866 -0.0870  0.4822  0.9058
  930MOL0     C25435   3.157   7.909   7.741  0.0015 -0.3564 -0.1484
  930MOL0     C25436   3.241   7.783   7.692 -0.2542 -0.0810  0.8071
  930MOL0     C25437   3.165   7.692   7.590 -0.0841  0.3288 -0.3092
  930MOL0     C25438   3.265   7.579   7.560  0.2848 -0.6325 -1.0170
  930MOL0     O25439   3.390   7.630   7.490 -0.6972 -0.9958  0.1273
  930MOL0     C25440   3.499   7.554   7.482  0.4883  0.1897  0.4807
  930MOL0     C25441   3.503   7.418   7.446 -0.2551  0.0368 -0.1056
  930MOL0     C25442   3.625   7.352   7.452  0.6389  1.2621  0.0159
  930MOL0     C25443   3.618   7.210   7.400 -0.2971 -0.0443  0.1882
  930MOL0     C25444   3.745   7.420   7.488 -0.3785  0.1032  0.4525
  930MOL0     C25445   3.880   7.359   7.468 -0.3796 -0.0652  0.3698
  930MOL0     O25446   3.988   7.455   7.447  0.0478 -0.1798  0.4436
  930MOL0     C25447   4.115   7.402   7.426 -1.1147  0.0119 -1.0718
  930MOL0     C25448   4.176   7.430   7.305 -0.1621 -0.0577 -0.0502
  930MOL0     C25449   4.301   7.391   7.271 -0.3282  0.7381 -0.1881
  930MOL0     C25450   4.376   7.317   7.375  0.4168 -0.6079 -0.4352
  930MOL0     O25451   4.507   7.267   7.368  0.0225 -0.0975 -0.4665
  930MOL0     C25452   4.597   7.303   7.265 -0.2033 -0.2432  0.8991
  930MOL0     C25453   4.591   7.212   7.140 -0.8221 -0.5735 -0.6083
  930MOL0     C25454   4.618   7.066   7.159  0.2673 -0.5830  0.0726
  930MOL0     C25455   4.749   7.046   7.243 -1.6727 -0.6745 -0.6238
  930MOL0     C25456   4.879   7.110   7.190  0.2171  0.1250  0.6326
  930MOL0     C25457   5.002   7.089   7.288 -0.2523 -0.5915  0.4257
  930MOL0     C25458   5.133   7.128   7.216 -0.1857  0.5068 -0.1867
  930MOL0     C25459   5.249   7.119   7.319  0.0736 -0.1539  0.1848
  930MOL0    Cl25460   5.398   7.180   7.230 -0.5243  0.2843 -0.3480
  930MOL0     C25461   4.321   7.290   7.499  0.4800  0.5586  0.8481
  930MOL0     C25462   4.190   7.337   7.528 -1.1084 -0.3096 -0.2535
  930MOL0     O25463   3.893   7.243   7.487 -0.5275  0.3467 -0.4100
  930MOL0     C25464   3.741   7.557   7.521  1.3131  0.3628  0.0674
  930MOL0     C25465   3.618   7.623   7.513  0.0027 -0.4071  0.4150
  930MOL0     N25466   3.348   8.017   7.865  0.3243 -0.8366  0.3022
  930MOL0     N25467   3.362   8.071   7.977  0.1543 -0.4131  0.0108
  930MOL0     C25468   3.773   7.774   8.777  0.1976 -0.2077 -0.0591
  930MOL0     C25469   3.838   7.840   8.881  0.4151 -1.2470 -0.1644
  930MOL0     C25470   3.976   8.061   9.210 -0.1541 -0.8716 -0.1377
  930MOL0     C25471   3.903   8.137   9.308 -0.4911  0.1540 -0.2631
  930MOL0     C25472   3.965   8.216   9.399 -0.3699 -1.1172 -0.2974
  930MOL0     C25473   4.109   8.226   9.400 -0.4648  0.9574 -1.0624
  930MOL0     O25474   4.178   8.306   9.490  0.5416 -0.2015  0.3095
  930MOL0     C25475   4.137   8.309   9.633  0.4658 -0.5027  0.7059
  930MOL0     C25476   4.227   8.420   9.701 -1.0942  0.1192 -0.1937
  930MOL0     C25477   4.197   8.566   9.640  0.1562 -0.3873 -1.2624
  930MOL0     C25478   4.329   8.655   9.665  0.4849 -0.3778  0.0572
  930MOL0     C25479   4.354   8.667   9.811  0.3737 -0.0617 -0.8826
  930MOL0     C25480   4.347   8.668   9.926 -0.3539 -0.5595 -0.7086
  930MOL0     C25481   4.184   8.158   9.305  0.8491 -0.2565 -0.2542
  930MOL0     C25482   4.122   8.075   9.207  0.2730  0.0405  0.0564
  930MOL0     H25483   3.936   7.588   9.077 -0.1580 -2.4373 -0.5117
  930MOL0     H25484   3.824   7.468   8.903 -0.4484 -1.0209 -0.0330
  930MOL0     H25485   3.551   7.568   8.530 -0.1212  0.9427 -1.1406
  930MOL0     H25486   3.562   7.723   8.617 -1.5139  0.2029 -1.2246
  930MOL0     H25487   3.797   7.734   8.484 -0.6982 -0.4489 -1.8032
  930MOL0     H25488   3.742   7.579   8.411  0.4148 -0.2882 -0.5890
  930MOL0     H25489   3.683   7.772   8.260 -2.8593  1.1326 -1.3654
  930MOL0     H25490   3.534   7.722   8.358  0.3778 -0.6010 -1.7980
  930MOL0     H25491   3.564   7.907   8.508 -1.0288 -0.1084  0.2118
  930MOL0     H25492   3.725   7.939   8.452 -1.0036 -0.2390  2.7057
  930MOL0     H25493   3.622   8.105   8.345 -2.8073  1.4966 -3.2582
  930MOL0     H25494   3.633   7.975   8.219  0.7527 -1.7026  0.6737
  930MOL0     H25495   3.394   7.912   8.248 -0.9549 -0.1256  1.8105
  930MOL0     H25496   3.401   7.978   8.408  3.0973 -0.2388  0.5867
  930MOL0     H25497   3.359   8.191   8.354 -0.0319 -0.2332  1.0155
  930MOL0     H25498   3.444   8.203   8.210  0.9050  0.5982 -0.3087
  930MOL0     H25499   3.191   8.207   8.190 -0.8153 -0.7996  1.6277
  930MOL0     H25500   3.181   8.050   8.254 -2.0101 -1.1956 -2.6552
  930MOL0     H25501   3.054   7.951   8.023  0.0258 -1.9160 -1.6954
  930MOL0     H25502   3.055   7.881   7.768  0.1735  1.4557  2.7821
  930MOL0     H25503   3.147   7.987   7.665 -1.2474  0.8471  1.1970
  930MOL0     H25504   3.260   7.715   7.776  1.2380  0.5865  1.0522
  930MOL0     H25505   3.337   7.808   7.646  0.0322 -0.3597  1.2467
  930MOL0     H25506   3.118   7.745   7.507 -0.7580  2.7402  1.5003
  930MOL0     H25507   3.085   7.649   7.651  2.2367  0.2759  2.9446
  930MOL0     H25508   3.216   7.495   7.511  2.2184 -3.4028  1.4400
  930MOL0     H25509   3.280   7.537   7.660 -0.2565  2.2821  0.4194
  930MOL0     H25510   3.419   7.352   7.426  2.6869 -3.6895 -1.3376
  930MOL0     H25511   3.519   7.186   7.361  0.0319 -0.4157 -0.4477
  930MOL0     H25512   3.693   7.197   7.321  0.6449  2.7935  0.5165
  930MOL0     H25513   3.647   7.150   7.487 -0.7037  1.0539  1.1019
  930MOL0     H25514   4.114   7.491   7.240  0.3794  0.1740 -0.3543
  930MOL0     H25515   4.348   7.426   7.180 -2.7285  1.9157 -1.0541
  930MOL0     H25516   4.585   7.408   7.236  1.1997 -0.8231 -2.2426
  930MOL0     H25517   4.699   7.297   7.304  0.4277  1.9889 -0.2277
  930MOL0     H25518   4.490   7.225   7.100 -2.2988  1.9727  3.3597
  930MOL0     H25519   4.654   7.247   7.058 -2.7027  3.7118 -0.4894
  930MOL0     H25520   4.621   7.010   7.064  1.9028 -1.2697  0.4853
  930MOL0     H25521   4.538   7.026   7.222  0.2254  2.2848  1.9949
  930MOL0     H25522   4.733   7.083   7.345  0.6493 -1.4768  0.0750
  930MOL0     H25523   4.782   6.942   7.245  4.1108  0.8287  1.0496
  930MOL0     H25524   4.863   7.218   7.177  0.2739  0.1092  0.4123
  930MOL0     H25525   4.907   7.067   7.093  0.6278 -1.9821  1.6388
  930MOL0     H25526   4.981   7.161   7.368 -1.8220 -0.3160 -0.1768
  930MOL0     H25527   5.019   6.987   7.322  2.7129 -1.9133 -4.2088
  930MOL0     H25528   5.123   7.227   7.170 -0.9720 -0.5204 -2.3529
  930MOL0     H25529   5.158   7.076   7.123  1.2833  1.2761 -0.2562
  930MOL0     H25530   5.271   7.019   7.359  0.0121 -0.3993 -0.3952
  930MOL0     H25531   5.223   7.183   7.404  2.6425  2.3471 -0.7296
  930MOL0     H25532   4.376   7.243   7.580  1.2070  0.5462  0.3540
  930MOL0     H25533   4.143   7.332   7.625 -1.0241  3.9455  0.1952
  930MOL0     H25534   3.830   7.614   7.546  0.7688  2.3515 -2.1756
  930MOL0     H25535   3.617   7.727   7.544  0.4198  0.0817 -1.1337
  930MOL0     H25536   3.747   7.828   8.687  0.6251 -0.7191 -0.4908
  930MOL0     H25537   3.848   7.948   8.889  3.4251 -1.5343  1.3648
  930MOL0     H25538   3.795   8.126   9.314 -0.4682 -1.4190 -1.9861
  930MOL0     H25539   3.917   8.280   9.473 -2.7772 -0.2445 -2.4609
  930MOL0     H25540   4.030   8.328   9.639  0.0349 -2.0082 -1.1687
  930MOL0     H25541   4.153   8.211   9.680 -0.2773 -1.6991 -1.4076
  930MOL0     H25542   4.331   8.395   9.674 -1.3686 -2.5736  0.9294
  930MOL0     H25543   4.220   8.426   9.810 -2.4137 -1.2325 -0.1709
  930MOL0     H25544   4.105   8.610   9.680  1.3592 -0.1958  1.6085
  930MOL0     H25545   4.174   8.549   9.535  2.2774 -3.2740 -1.3649
  930MOL0     H25546   4.311   8.759   9.634  0.4009 -1.3241 -3.5027
  930MOL0     H25547   4.419   8.622   9.612  0.0092  0.3490 -1.2519
  930MOL0     H25548   4.323   8.676  10.029  3.1472 -0.6290  0.2621
  930MOL0     H25549   4.292   8.167   9.299  0.8537 -0.9915 -1.6664
  930MOL0     H25550   4.188   8.033   9.133  1.4664  1.0767  0.4815
  931MOL0     O25551   5.206   0.655   3.639  0.0214  0.5977  0.7821
  931MOL0     C25552   5.122   0.733   3.595  0.5480  0.4209 -0.0695
  931MOL0     O25553   5.146   0.824   3.495  0.3190 -0.9603 -0.0503
  931MOL0     C25554   5.267   0.840   3.438 -0.8686 -0.2397 -0.9739
  931MOL0     C25555   5.392   0.823   3.512 -0.9129 -0.5056 -0.4420
  931MOL0     C25556   5.513   0.835   3.440 -0.0786 -0.5492  0.5304
  931MOL0     C25557   5.523   0.881   3.310 -0.3479 -0.8603 -0.3592
  931MOL0     O25558   5.643   0.897   3.249 -0.2313 -0.1772  0.4630
  931MOL0     C25559   5.766   0.854   3.304  0.2095 -1.5560 -0.1166
  931MOL0     C25560   5.859   0.872   3.187 -0.8808  0.0647  0.2313
  931MOL0     C25561   6.012   0.866   3.220  0.9959  0.2853  0.1096
  931MOL0     C25562   6.093   0.904   3.100 -0.4340 -0.2076 -0.3969
  931MOL0     C25563   6.242   0.906   3.130 -1.0048  0.4905  0.1801
  931MOL0     C25564   6.299   0.774   3.172 -0.2950  0.7751  0.3546
  931MOL0     C25565   6.446   0.803   3.194 -0.5940  0.0065  0.4449
  931MOL0     C25566   6.517   0.727   3.297 -0.1482  0.6823 -0.4265
  931MOL0     N25567   6.505   0.578   3.273 -0.5520  0.3744  0.5905
  931MOL0     C25568   6.601   0.493   3.220 -0.2254  0.0231 -0.3355
  931MOL0     C25569   6.575   0.373   3.255  0.7274  0.4330 -0.3336
  931MOL0     C25570   6.650   0.249   3.209 -0.4929 -0.3215 -0.4062
  931MOL0     C25571   6.775   0.226   3.306 -0.3961 -0.8128  0.2286
  931MOL0     C25572   6.851   0.099   3.265  0.9271 -0.2487  0.3023
  931MOL0     C25573   6.985   0.102   3.326  0.9014  0.4377  0.3482
  931MOL0     O25574   6.967   0.070   3.459  0.6898 -0.1877 -0.2481
  931MOL0     C25575   7.077   0.087   3.539  0.1607 -0.9228 -0.4363
  931MOL0     C25576   7.194   0.156   3.504  0.2979 -0.8719 -0.0970
  931MOL0     C25577   7.296   0.164   3.594 -0.3378  0.3826 -0.1848
  931MOL0     C25578   7.414   0.244   3.550 -0.1383  0.1227  0.3388
  931MOL0     C25579   7.281   0.112   3.730 -0.1781  0.8991  0.2322
  931MOL0     C25580   7.374   0.123   3.845 -0.1812  0.0672  0.4031
  931MOL0     O25581   7.388   0.003   3.907 -0.1838  0.0359  0.4105
  931MOL0     C25582   7.462  -0.024   4.014  0.4845 -0.2781  0.3439
  931MOL0     C25583   7.451  -0.143   4.094 -0.4819  0.3216 -0.3068
  931MOL0     C25584   7.536  -0.178   4.202 -0.2552  0.4850  0.6398
  931MOL0     C25585   7.628  -0.085   4.250  0.1209 -0.1468 -0.0059
  931MOL0     O25586   7.710  -0.106   4.358 -0.1773  0.2805  0.4288
  931MOL0     C25587   7.722  -0.230   4.419 -0.1015 -0.6274 -0.4048
  931MOL0     C25588   7.797  -0.241   4.545  0.1790  0.2109  0.7288
  931MOL0     C25589   7.949  -0.211   4.525 -0.1383 -1.8140 -0.5842
  931MOL0     C25590   8.034  -0.224   4.653 -0.1855  0.4790  0.3250
  931MOL0     C25591   8.190  -0.211   4.627  0.1711  0.6951 -0.3074
  931MOL0     C25592   8.221  -0.070   4.562 -0.2074  0.4328  0.2229
  931MOL0     C25593   8.373  -0.065   4.539 -0.6930  0.3351 -0.0257
  931MOL0     C25594   8.409  -0.128   4.404 -0.6523 -1.3345  0.0671
  931MOL0    Cl25595   8.586  -0.171   4.393 -0.7457 -0.0168  0.0640
  931MOL0     C25596   7.640   0.035   4.178  0.1627  1.2332  0.9330
  931MOL0     C25597   7.560   0.063   4.066 -0.1035 -0.9041  0.0043
  931MOL0     O25598   7.437   0.233   3.853  0.5202  0.5499  0.3685
  931MOL0     C25599   7.158   0.058   3.768 -0.2848 -0.1717  0.4229
  931MOL0     C25600   7.062   0.045   3.669  0.0329  0.6866 -0.7027
  931MOL0     N25601   6.462   0.377   3.330 -0.0331  0.3100  0.9967
  931MOL0     N25602   6.421   0.499   3.340 -0.0585 -0.5653 -0.2082
  931MOL0     C25603   5.400   0.924   3.245  0.0511  0.1384 -0.7978
  931MOL0     C25604   5.273   0.890   3.309  0.6084  0.0170 -0.1024
  931MOL0     C25605   4.985   0.708   3.633  0.5372 -0.1813 -0.3104
  931MOL0     C25606   4.880   0.795   3.585 -0.8016  0.9017 -0.5547
  931MOL0     C25607   4.749   0.760   3.614 -0.4412 -0.2866 -0.0125
  931MOL0     C25608   4.717   0.653   3.699  0.6349  0.7806  0.2613
  931MOL0     O25609   4.582   0.634   3.701  0.0173  0.0677  0.3560
  931MOL0     C25610   4.536   0.508   3.750 -0.1958 -0.1120 -1.1974
  931MOL0     C25611   4.496   0.536   3.896  0.6302  0.0207 -0.4068
  931MOL0     C25612   4.420   0.408   3.962  0.1634 -0.6383  0.5451
  931MOL0     C25613   4.529   0.329   4.035 -0.5401  0.7597 -0.1730
  931MOL0     C25614   4.511   0.182   4.031 -0.0317  0.1300  0.5898
  931MOL0     C25615   4.516   0.065   4.050  0.3988 -0.5623  0.8922
  931MOL0     C25616   4.821   0.576   3.750  0.2833 -0.4827 -0.2591
  931MOL0     C25617   4.953   0.604   3.725  0.5418  0.0814 -0.4416
  931MOL0     H25618   5.397   0.776   3.610  0.0831 -0.6842 -0.5662
  931MOL0     H25619   5.593   0.791   3.499 -0.4138 -1.2614  0.4674
  931MOL0     H25620   5.794   0.919   3.387 -0.7893  0.0691 -1.0147
  931MOL0     H25621   5.773   0.750   3.339 -2.8124 -1.6144  0.5967
  931MOL0     H25622   5.842   0.785   3.124  3.9913 -1.5871  0.8311
  931MOL0     H25623   5.841   0.962   3.127 -1.1947 -0.9788 -1.3091
  931MOL0     H25624   6.040   0.935   3.300 -0.5069  0.8009  0.2305
  931MOL0     H25625   6.032   0.766   3.258 -1.2915  1.0700  3.8554
  931MOL0     H25626   6.071   0.840   3.014 -0.9151  0.6236 -0.9091
  931MOL0     H25627   6.077   1.008   3.072  1.5512  0.6012  1.2752
  931MOL0     H25628   6.296   0.944   3.042  0.3143 -1.0915  0.2538
  931MOL0     H25629   6.258   0.974   3.214  0.8118  1.6888 -1.0440
  931MOL0     H25630   6.248   0.744   3.264  2.1061  1.1657  1.8905
  931MOL0     H25631   6.278   0.700   3.094 -1.0514  0.6742  0.6455
  931MOL0     H25632   6.496   0.766   3.104 -0.7389 -1.9698  1.1221
  931MOL0     H25633   6.465   0.911   3.198  0.2354 -0.1665  3.1538
  931MOL0     H25634   6.481   0.758   3.396  0.0028  4.2246 -1.3355
  931MOL0     H25635   6.619   0.767   3.297  0.5167 -0.8142  2.3072
  931MOL0     H25636   6.697   0.518   3.175  0.6126 -1.3086  0.6208
  931MOL0     H25637   6.588   0.159   3.212  0.1782 -0.7865 -0.4416
  931MOL0     H25638   6.670   0.267   3.103 -0.8841  2.3107 -0.0975
  931MOL0     H25639   6.748   0.218   3.412  0.9075 -2.1688  0.4998
  931MOL0     H25640   6.849   0.307   3.306 -3.5519  2.3571  1.6143
  931MOL0     H25641   6.855   0.097   3.156 -1.2522  2.8379  0.0180
  931MOL0     H25642   6.787   0.016   3.297  1.3258 -1.3038 -1.5148
  931MOL0     H25643   7.029   0.200   3.302  1.3988  0.7150  2.2049
  931MOL0     H25644   7.046   0.028   3.274 -3.8390 -2.5082 -1.5895
  931MOL0     H25645   7.219   0.190   3.404 -1.2206  0.6297 -0.0156
  931MOL0     H25646   7.402   0.344   3.592  3.6603  0.3867  1.2010
  931MOL0     H25647   7.505   0.191   3.580  0.1485 -0.9762 -2.1614
  931MOL0     H25648   7.427   0.258   3.442  0.8644  3.5130  0.7742
  931MOL0     H25649   7.363  -0.198   4.062 -0.0590  0.4062 -1.6714
  931MOL0     H25650   7.527  -0.271   4.257  1.1773  1.8741  3.4600
  931MOL0     H25651   7.621  -0.267   4.437 -0.9741  0.0069 -3.5556
  931MOL0     H25652   7.773  -0.290   4.344 -0.4876  1.0922 -2.1213
  931MOL0     H25653   7.750  -0.177   4.621  0.3812  0.3149  0.7670
  931MOL0     H25654   7.781  -0.343   4.579 -0.4080 -0.6913 -1.9969
  931MOL0     H25655   7.942  -0.106   4.495 -1.4033 -0.4941  3.6309
  931MOL0     H25656   7.990  -0.283   4.453  1.1554 -1.5720 -0.1118
  931MOL0     H25657   8.010  -0.140   4.720 -4.2845  0.2905 -0.6599
  931MOL0     H25658   8.001  -0.310   4.712 -2.1641  1.3291  0.5657
  931MOL0     H25659   8.230  -0.300   4.579  0.0572 -0.9633  2.4723
  931MOL0     H25660   8.233  -0.211   4.727 -1.2548  4.4221  0.4981
  931MOL0     H25661   8.164  -0.053   4.470 -0.7430  3.1557  0.9821
  931MOL0     H25662   8.179   0.011   4.622 -1.3481  0.5663 -0.7271
  931MOL0     H25663   8.440  -0.112   4.612 -0.0052  0.4867 -0.5451
  931MOL0     H25664   8.404   0.040   4.533 -1.4485  0.7096  1.8491
  931MOL0     H25665   8.381  -0.070   4.316 -0.7239 -2.2877 -0.5623
  931MOL0     H25666   8.352  -0.222   4.402  1.4094 -2.6234 -1.2200
  931MOL0     H25667   7.723   0.092   4.218  1.4352  0.9895 -1.2201
  931MOL0     H25668   7.588   0.163   4.034  4.0799 -1.4289  1.3378
  931MOL0     H25669   7.154   0.022   3.870 -1.3951  2.2520  1.3271
  931MOL0     H25670   6.969  -0.000   3.701 -0.8122  1.6122 -1.7490
  931MOL0     H25671   5.404   0.958   3.142 -2.1538  2.4629 -0.2032
  931MOL0     H25672   5.180   0.914   3.258 -0.0726  2.5100  2.0634
  931MOL0     H25673   4.905   0.866   3.507  0.2484 -1.4804 -2.5464
  931MOL0     H25674   4.675   0.820   3.563 -0.0248  1.5806  1.4782
  931MOL0     H25675   4.450   0.478   3.690 -1.1312  0.3307 -0.1255
  931MOL0     H25676   4.614   0.432   3.756  1.3293  1.4617  0.4866
  931MOL0     H25677   4.430   0.624   3.898  0.2364 -0.2521 -1.0941
  931MOL0     H25678   4.582   0.570   3.954 -0.6958  0.4631  1.4170
  931MOL0     H25679   4.366   0.341   3.894  2.0975 -1.8534  0.1017
  931MOL0     H25680   4.352   0.452   4.035 -1.5782 -3.1628  0.5605
  931MOL0     H25681   4.522   0.355   4.141 -0.7289 -0.9234  0.2546
  931MOL0     H25682   4.625   0.358   3.993 -1.4601  1.0504 -2.1778
  931MOL0     H25683   4.521  -0.039   4.075  3.2957 -1.4647 -2.4638
  931MOL0     H25684   4.800   0.499   3.823  4.7334 -0.5539  1.2187
  931MOL0     H25685   5.037   0.549   3.766 -0.7598 -0.0179  2.3324
  932MOL0     O25686   3.758   1.164   6.698  0.2833  0.2078 -0.5991
  932MOL0     C25687   3.708   1.185   6.811  0.1800 -0.3560 -0.2902
  932MOL0     O25688   3.774   1.214   6.921 -0.5174  0.2977 -0.1474
  932MOL0     C25689   3.910   1.243   6.919 -0.5584  0.1002 -0.0128
  932MOL0     C25690   3.975   1.320   6.822  1.0135  0.3765  0.3155
  932MOL0     C25691   4.107   1.359   6.843 -0.3884  0.7949 -0.4081
  932MOL0     C25692   4.188   1.306   6.950 -0.1026 -0.4961 -0.4566
  932MOL0     O25693   4.318   1.335   6.973  0.4399 -0.0366  0.3441
  932MOL0     C25694   4.413   1.370   6.871 -0.0863 -0.1860 -0.7156
  932MOL0     C25695   4.550   1.327   6.930  0.6881 -0.1503 -0.3597
  932MOL0     C25696   4.640   1.295   6.804 -0.9348 -0.1952  0.4976
  932MOL0     C25697   4.652   1.423   6.713 -0.3897 -0.1131  0.6623
  932MOL0     C25698   4.729   1.541   6.781  0.5748  0.9827 -0.5768
  932MOL0     C25699   4.766   1.648   6.680 -0.4467 -0.3324 -0.2148
  932MOL0     C25700   4.814   1.614   6.533 -0.8258 -0.9538 -0.5685
  932MOL0     C25701   4.899   1.729   6.476  0.0448  0.3281  0.6047
  932MOL0     N25702   4.842   1.859   6.498 -0.0732  0.4630  0.5405
  932MOL0     C25703   4.904   1.967   6.554  1.1926  0.5694  0.5211
  932MOL0     C25704   4.811   2.069   6.547 -0.1396 -0.6308  0.9540
  932MOL0     C25705   4.828   2.211   6.601  0.6351 -0.4383 -0.3692
  932MOL0     C25706   4.836   2.234   6.753  1.0550 -0.3439  0.5634
  932MOL0     C25707   4.728   2.158   6.840 -0.4585  0.1308  1.6807
  932MOL0     C25708   4.800   2.024   6.887 -0.8035 -0.7672 -0.6375
  932MOL0     O25709   4.730   1.954   6.998  0.3447 -0.9823 -0.0735
  932MOL0     C25710   4.611   1.892   6.975  0.5843 -0.2564  0.8105
  932MOL0     C25711   4.541   1.880   6.853  0.0646  0.5491  0.7924
  932MOL0     C25712   4.417   1.821   6.824 -0.0365 -0.6864 -0.6373
  932MOL0     C25713   4.364   1.809   6.679  0.0484  1.1240 -0.1378
  932MOL0     C25714   4.343   1.778   6.941 -0.0383 -0.2703 -0.7408
  932MOL0     C25715   4.201   1.744   6.944  0.2310  0.0765 -0.2123
  932MOL0     O25716   4.132   1.743   7.063 -0.0694 -0.3749  0.6819
  932MOL0     C25717   3.998   1.715   7.054  1.0937 -0.3179  0.4749
  932MOL0     C25718   3.948   1.588   7.060 -0.8962 -0.5395 -0.6280
  932MOL0     C25719   3.819   1.549   7.043 -0.2064 -0.0151 -1.0650
  932MOL0     C25720   3.733   1.650   7.023 -0.5518  0.3403 -0.2988
  932MOL0     O25721   3.609   1.604   7.001  0.4692 -0.4806 -0.2678
  932MOL0     C25722   3.490   1.681   6.995  0.5922 -0.3541 -0.1248
  932MOL0     C25723   3.383   1.590   7.050  0.0091  0.5965 -0.0910
  932MOL0     C25724   3.229   1.635   7.047 -0.4906 -0.0672 -0.6921
  932MOL0     C25725   3.137   1.522   7.064  0.1941  0.2223  0.9664
  932MOL0     C25726   3.003   1.574   7.128 -0.8710 -0.3923  0.0159
  932MOL0     C25727   2.887   1.473   7.108 -0.0138 -0.3395  0.0771
  932MOL0     C25728   2.914   1.336   7.175 -0.3357  0.6790 -0.1604
  932MOL0     C25729   2.795   1.248   7.187 -0.9142 -0.2275  0.5360
  932MOL0    Cl25730   2.837   1.093   7.274  0.0647 -0.2215  0.4442
  932MOL0     C25731   3.768   1.786   7.018 -0.8047 -0.2468  0.2594
  932MOL0     C25732   3.903   1.822   7.043  0.5887  0.9033 -0.3483
  932MOL0     O25733   4.162   1.683   6.842  1.1237 -0.4016  0.0122
  932MOL0     C25734   4.412   1.776   7.064 -0.4761 -0.5305  0.1821
  932MOL0     C25735   4.542   1.832   7.080 -0.6824 -0.0952  0.0519
  932MOL0     N25736   4.703   2.020   6.474 -0.4015 -0.3665  0.7677
  932MOL0     N25737   4.724   1.897   6.446  0.1254 -0.1243 -0.4606
  932MOL0     C25738   4.130   1.217   7.044 -0.6267  0.1637  0.2059
  932MOL0     C25739   3.989   1.194   7.025 -0.0096  0.6946 -0.0890
  932MOL0     C25740   3.556   1.176   6.824  0.0387 -0.4991  0.8282
  932MOL0     C25741   3.460   1.125   6.738 -0.2751  0.9840  0.4981
  932MOL0     C25742   3.320   1.122   6.765 -0.0555  0.7318 -0.2165
  932MOL0     C25743   3.277   1.174   6.889 -0.9804 -0.2579 -1.1136
  932MOL0     O25744   3.148   1.145   6.923 -0.4805  0.7399 -0.9180
  932MOL0     C25745   3.057   1.229   6.853  0.2503  0.4633 -0.2518
  932MOL0     C25746   2.970   1.153   6.751  0.3291  0.1407  0.0667
  932MOL0     C25747   2.862   1.081   6.824  0.0846 -0.2325  0.2572
  932MOL0     C25748   2.904   0.949   6.870 -0.7559 -0.1306  0.3065
  932MOL0     C25749   2.795   0.878   6.941  0.0959  0.2186  0.4340
  932MOL0     C25750   2.694   0.824   6.992  0.2113  0.2280 -0.7772
  932MOL0     C25751   3.376   1.217   6.982  1.6058  0.8334  0.0412
  932MOL0     C25752   3.505   1.229   6.942 -0.2620  0.7176 -0.4131
  932MOL0     H25753   3.919   1.350   6.734  3.5462 -0.3532 -1.6576
  932MOL0     H25754   4.161   1.408   6.763  0.5795 -3.9570 -3.0536
  932MOL0     H25755   4.371   1.315   6.787 -0.6337  0.0734 -0.6158
  932MOL0     H25756   4.422   1.476   6.845  2.2882  0.5973  2.5832
  932MOL0     H25757   4.587   1.410   6.990  1.3245 -0.7378  0.0769
  932MOL0     H25758   4.530   1.242   6.996 -2.4112  0.6115 -0.1872
  932MOL0     H25759   4.740   1.264   6.835 -1.2407 -1.4847  0.2410
  932MOL0     H25760   4.601   1.211   6.746  1.1238  0.0895 -1.4460
  932MOL0     H25761   4.710   1.400   6.623  2.4464  0.8371  2.1303
  932MOL0     H25762   4.561   1.466   6.670  1.6427  1.6397 -2.2470
  932MOL0     H25763   4.669   1.579   6.863 -2.1319 -0.8376 -1.5644
  932MOL0     H25764   4.819   1.501   6.828  0.1337  0.3436 -0.2677
  932MOL0     H25765   4.672   1.703   6.677 -0.3810 -0.1949  0.2145
  932MOL0     H25766   4.834   1.715   6.733 -2.2320  0.9776  0.5140
  932MOL0     H25767   4.870   1.520   6.534  1.9474  0.5978 -0.9189
  932MOL0     H25768   4.727   1.585   6.472 -0.3064  0.4104 -2.0080
  932MOL0     H25769   4.911   1.703   6.371  0.8745 -2.0449  1.2323
  932MOL0     H25770   4.996   1.725   6.528  0.2946 -0.6388  0.0853
  932MOL0     H25771   5.005   1.966   6.594  1.0480 -0.2274  0.8919
  932MOL0     H25772   4.906   2.268   6.551 -0.8877 -0.7336 -3.2976
  932MOL0     H25773   4.735   2.257   6.566  1.4467 -0.8946 -3.4589
  932MOL0     H25774   4.830   2.343   6.762  0.9617  0.2349 -4.2010
  932MOL0     H25775   4.938   2.216   6.790  2.2044  0.8520 -1.7830
  932MOL0     H25776   4.637   2.143   6.782  0.1754 -1.9846  1.1378
  932MOL0     H25777   4.702   2.218   6.928 -3.4264 -0.1772  1.1198
  932MOL0     H25778   4.892   2.066   6.930 -2.7824  2.0988  1.1443
  932MOL0     H25779   4.832   1.957   6.807  1.4072 -1.3910  0.6742
  932MOL0     H25780   4.589   1.909   6.760 -4.3764  1.2058 -1.5714
  932MOL0     H25781   4.451   1.832   6.617  0.2409 -2.3330 -1.3365
  932MOL0     H25782   4.330   1.710   6.647  2.1059 -0.8312  3.1679
  932MOL0     H25783   4.283   1.882   6.667 -1.0010  0.3214  1.7182
  932MOL0     H25784   4.019   1.508   7.077 -0.3405  0.4124  1.9348
  932MOL0     H25785   3.792   1.444   7.043  2.6901 -0.8430 -0.8170
  932MOL0     H25786   3.503   1.772   7.056 -0.5295 -0.6127  0.5449
  932MOL0     H25787   3.467   1.730   6.900  0.3363  1.5173  0.8466
  932MOL0     H25788   3.389   1.497   6.992  0.2099  2.0322 -2.5237
  932MOL0     H25789   3.402   1.569   7.156  2.6218  0.6420 -0.4691
  932MOL0     H25790   3.204   1.705   6.968 -0.6221  1.8854  0.9956
  932MOL0     H25791   3.242   1.690   7.141  4.0871 -3.2792  0.9274
  932MOL0     H25792   3.112   1.488   6.964 -0.4453 -0.2102  1.2648
  932MOL0     H25793   3.180   1.442   7.126 -0.1735  0.1154  1.0830
  932MOL0     H25794   2.971   1.676   7.102 -3.1492 -0.5941  1.6768
  932MOL0     H25795   3.021   1.582   7.236  1.1853 -0.9423 -0.2511
  932MOL0     H25796   2.796   1.516   7.153  2.1845  1.8911  2.7410
  932MOL0     H25797   2.875   1.460   7.000 -1.1121  1.6755 -0.0921
  932MOL0     H25798   2.953   1.352   7.276  4.6522  0.0360 -1.7016
  932MOL0     H25799   2.993   1.270   7.138 -0.9815  0.0370 -0.4192
  932MOL0     H25800   2.749   1.215   7.093 -0.4835  0.2271  0.1595
  932MOL0     H25801   2.717   1.297   7.246  1.0406  2.1981  1.2416
  932MOL0     H25802   3.702   1.862   6.976  2.5717  3.0704  0.4265
  932MOL0     H25803   3.935   1.925   7.033 -0.4106  1.2199 -0.3692
  932MOL0     H25804   4.365   1.743   7.156  0.9429 -4.3124 -0.2595
  932MOL0     H25805   4.582   1.829   7.180  3.3460 -1.5638 -1.3817
  932MOL0     H25806   4.187   1.184   7.130 -0.1856  0.5708  0.0779
  932MOL0     H25807   3.932   1.148   7.106 -0.0937  0.0729 -0.4928
  932MOL0     H25808   3.494   1.074   6.649 -0.0161  1.4442  0.3275
  932MOL0     H25809   3.258   1.068   6.695  1.0161 -2.1837  0.9473
  932MOL0     H25810   2.986   1.258   6.931  0.1893  2.7365 -1.1063
  932MOL0     H25811   3.105   1.314   6.805 -1.4922  1.0943 -0.9403
  932MOL0     H25812   3.030   1.078   6.698 -0.1568 -0.0860 -0.1651
  932MOL0     H25813   2.926   1.218   6.675  0.4834  0.7219  0.4629
  932MOL0     H25814   2.788   1.066   6.745 -0.3396 -1.9721  0.9427
  932MOL0     H25815   2.835   1.143   6.910  3.1770 -2.1367  2.8033
  932MOL0     H25816   2.985   0.964   6.942 -0.5483 -0.9095  0.2432
  932MOL0     H25817   2.935   0.889   6.784 -4.4905 -0.6399 -0.9065
  932MOL0     H25818   2.613   0.773   7.041 -1.2315  1.8783 -1.3496
  932MOL0     H25819   3.340   1.237   7.082  0.4535  2.1860 -0.6227
  932MOL0     H25820   3.579   1.267   7.010  0.5347  0.6202 -1.2116
  933MOL0     O25821   0.383   4.385   7.898  0.0289  0.6749 -0.8444
  933MOL0     C25822   0.391   4.431   7.786  1.4295 -0.5492 -0.9668
  933MOL0     O25823   0.329   4.544   7.743 -0.4933  0.1578  0.0174
  933MOL0     C25824   0.243   4.614   7.824  0.3475  0.2740 -0.3353
  933MOL0     C25825   0.277   4.679   7.947 -0.3873  0.2343 -0.1310
  933MOL0     C25826   0.184   4.743   8.023 -0.0490 -0.9636 -0.2154
  933MOL0     C25827   0.063   4.760   7.971  0.1916 -0.1127 -0.0826
  933MOL0     O25828  -0.025   4.830   8.042 -0.6096 -0.1617 -0.5509
  933MOL0     C25829  -0.021   4.974   8.018  0.9660  0.0927 -0.6988
  933MOL0     C25830  -0.081   5.029   8.152  0.2379  0.0529 -1.1309
  933MOL0     C25831  -0.062   5.185   8.162 -0.3192 -0.3041 -0.9715
  933MOL0     C25832  -0.156   5.255   8.066 -0.0033 -1.2160  0.0006
  933MOL0     C25833  -0.173   5.398   8.114  0.3708 -0.0430  0.1883
  933MOL0     C25834  -0.263   5.409   8.232  0.0572 -0.2083  0.0398
  933MOL0     C25835  -0.276   5.552   8.281  0.0266  0.3338 -0.1709
  933MOL0     C25836  -0.342   5.554   8.419  1.1847  0.2016 -0.3551
  933MOL0     N25837  -0.314   5.677   8.496 -0.1750  0.5791  0.5488
  933MOL0     C25838  -0.373   5.796   8.490  0.0445  0.2469  0.8100
  933MOL0     C25839  -0.281   5.879   8.542 -0.3142  0.0397  0.3323
  933MOL0     C25840  -0.296   6.036   8.564 -0.1232 -0.3828 -0.5497
  933MOL0     C25841  -0.174   6.125   8.552 -0.7862 -0.6299  0.4112
  933MOL0     C25842  -0.117   6.115   8.412  0.4196 -0.4016  0.1712
  933MOL0     C25843   0.024   6.172   8.403  0.7476 -0.2479  0.5989
  933MOL0     O25844   0.072   6.183   8.275  1.0668  0.0748  0.4536
  933MOL0     C25845   0.060   6.294   8.205  0.3975  0.9241 -0.4139
  933MOL0     C25846  -0.030   6.400   8.232  0.5509 -0.0787 -0.9732
  933MOL0     C25847  -0.046   6.511   8.153 -0.1981 -0.3245  0.1346
  933MOL0     C25848  -0.145   6.614   8.215  0.3341  0.6709  0.4180
  933MOL0     C25849   0.016   6.525   8.033 -0.1274  0.2868  0.5201
  933MOL0     C25850   0.001   6.645   7.940  0.4538 -0.0781  0.7814
  933MOL0     O25851   0.086   6.636   7.827 -0.9626 -0.1460 -0.3003
  933MOL0     C25852   0.070   6.710   7.711 -0.6460 -0.5428  0.1599
  933MOL0     C25853   0.043   6.652   7.588  0.2340  0.4354  0.0944
  933MOL0     C25854   0.053   6.729   7.471  0.2011 -1.4916  0.5455
  933MOL0     C25855   0.062   6.872   7.471  0.8017 -0.3351  0.4913
  933MOL0     O25856   0.085   6.931   7.353 -0.1122  0.2742 -0.3858
  933MOL0     C25857   0.072   7.075   7.363  0.6685 -0.1293  0.4598
  933MOL0     C25858   0.203   7.147   7.407  0.1564 -0.0117 -0.2499
  933MOL0     C25859   0.311   7.140   7.306  0.1892 -0.1551  0.8971
  933MOL0     C25860   0.410   7.250   7.340 -0.6050  0.2024 -0.6729
  933MOL0     C25861   0.531   7.246   7.243  0.1608  0.0242  0.0722
  933MOL0     C25862   0.646   7.152   7.274  1.0644  0.4895 -0.6220
  933MOL0     C25863   0.731   7.108   7.156 -0.1051  0.4287 -0.0599
  933MOL0     C25864   0.731   6.955   7.133 -0.3252  1.3075  0.1860
  933MOL0    Cl25865   0.851   6.879   7.239 -0.3835  0.0567 -0.0811
  933MOL0     C25866   0.057   6.934   7.597 -0.7090 -0.2312 -0.0554
  933MOL0     C25867   0.076   6.852   7.717 -0.3019 -0.7137 -0.2963
  933MOL0     O25868  -0.059   6.743   7.972  0.3459 -0.5043 -0.2656
  933MOL0     C25869   0.114   6.418   7.999 -0.2781 -0.5228 -0.1331
  933MOL0     C25870   0.126   6.299   8.074 -0.1444  0.0195 -0.3617
  933MOL0     N25871  -0.172   5.808   8.596  0.1503  0.5287  0.8560
  933MOL0     N25872  -0.200   5.684   8.570  0.8838 -0.7119 -0.3320
  933MOL0     C25873   0.028   4.705   7.847  0.2526 -1.0925 -0.1835
  933MOL0     C25874   0.120   4.626   7.775 -0.0916 -0.1248  1.4077
  933MOL0     C25875   0.462   4.349   7.684  0.2316 -0.3692  0.0472
  933MOL0     C25876   0.420   4.363   7.549  0.0917 -0.7564 -0.6877
  933MOL0     C25877   0.484   4.293   7.448  0.2268 -0.1620 -0.1787
  933MOL0     C25878   0.587   4.204   7.476 -0.5274  0.3382  0.8938
  933MOL0     O25879   0.666   4.150   7.386  0.4537 -0.5697  0.0633
  933MOL0     C25880   0.595   4.098   7.266 -0.0089 -0.0222 -0.0514
  933MOL0     C25881   0.672   3.975   7.203 -0.4668 -0.2099  0.4671
  933MOL0     C25882   0.619   3.945   7.061 -0.7532  0.2629  0.4163
  933MOL0     C25883   0.703   3.851   6.972 -0.3832 -0.5771 -0.8912
  933MOL0     C25884   0.624   3.810   6.850  0.0209  0.2596 -0.4392
  933MOL0     C25885   0.563   3.767   6.757  0.3569 -0.4432 -0.8456
  933MOL0     C25886   0.627   4.197   7.614  0.9338 -0.3816 -0.7459
  933MOL0     C25887   0.557   4.261   7.714 -0.1230 -0.1633 -0.5168
  933MOL0     H25888   0.380   4.673   7.981 -0.5912  2.9037  1.2393
  933MOL0     H25889   0.188   4.780   8.125 -3.1765 -0.5407 -0.1546
  933MOL0     H25890   0.081   5.008   8.001  2.5660 -3.4985  0.7044
  933MOL0     H25891  -0.082   4.999   7.931 -1.0170  0.6005  0.7528
  933MOL0     H25892  -0.187   5.004   8.156  0.1010  0.8195  1.5193
  933MOL0     H25893  -0.027   4.975   8.231  0.1957 -0.8131 -1.6829
  933MOL0     H25894  -0.082   5.217   8.264 -0.4421  1.5605 -1.5415
  933MOL0     H25895   0.040   5.213   8.132 -0.2402 -0.6743 -1.0544
  933MOL0     H25896  -0.113   5.260   7.966 -1.1509  4.4234 -0.5463
  933MOL0     H25897  -0.255   5.208   8.069 -1.0996  1.0086  0.4677
  933MOL0     H25898  -0.079   5.452   8.116  0.2709  0.1820 -0.7386
  933MOL0     H25899  -0.225   5.455   8.036 -0.3478 -0.9165  0.0063
  933MOL0     H25900  -0.365   5.391   8.196  0.6348  3.4203 -4.3343
  933MOL0     H25901  -0.239   5.340   8.313 -3.3611 -1.5233  0.0924
  933MOL0     H25902  -0.177   5.593   8.305 -0.4421  0.9556  0.7886
  933MOL0     H25903  -0.330   5.623   8.217 -1.3125 -0.3439  0.1879
  933MOL0     H25904  -0.324   5.468   8.484 -2.8201  0.1998  1.0942
  933MOL0     H25905  -0.451   5.547   8.409  0.2208  2.1929  4.9513
  933MOL0     H25906  -0.470   5.805   8.444  0.5475 -0.7243 -0.4863
  933MOL0     H25907  -0.381   6.076   8.507 -0.3739 -0.4547 -0.2321
  933MOL0     H25908  -0.322   6.050   8.669  0.9284 -4.2114  0.3657
  933MOL0     H25909  -0.103   6.084   8.624  0.7632 -1.8305 -1.7096
  933MOL0     H25910  -0.194   6.232   8.566  1.8898 -0.0342  0.2137
  933MOL0     H25911  -0.177   6.174   8.343  0.9968 -1.3060 -1.1313
  933MOL0     H25912  -0.124   6.014   8.373 -3.1003  0.6281 -2.3303
  933MOL0     H25913   0.093   6.104   8.455  1.3504  0.5868  0.9073
  933MOL0     H25914   0.029   6.269   8.452 -0.5708  0.9823 -1.5572
  933MOL0     H25915  -0.079   6.414   8.328  3.9709  0.1363  0.8990
  933MOL0     H25916  -0.208   6.657   8.136  0.5223 -0.9918 -0.6834
  933MOL0     H25917  -0.213   6.571   8.288 -0.8271  2.7242  0.6329
  933MOL0     H25918  -0.084   6.700   8.244  0.5516  1.3801 -1.9075
  933MOL0     H25919   0.035   6.545   7.574 -1.1655  0.4368  0.7211
  933MOL0     H25920   0.063   6.668   7.382 -3.2926  0.3482 -1.2987
  933MOL0     H25921   0.049   7.106   7.260  0.1693  0.1824  0.6673
  933MOL0     H25922  -0.009   7.113   7.426 -0.4975 -0.9134 -0.5164
  933MOL0     H25923   0.175   7.249   7.435  2.2348 -0.1755  3.0807
  933MOL0     H25924   0.232   7.111   7.506 -1.1334  0.0126  0.1567
  933MOL0     H25925   0.275   7.157   7.204  1.2318  1.3490  0.7413
  933MOL0     H25926   0.362   7.044   7.316  2.1661  0.8874  1.3315
  933MOL0     H25927   0.368   7.350   7.345 -1.9613 -0.3919  0.8787
  933MOL0     H25928   0.444   7.223   7.441 -1.6215 -3.9404 -1.2218
  933MOL0     H25929   0.562   7.351   7.246 -0.4277  0.2025  0.1826
  933MOL0     H25930   0.482   7.231   7.146 -4.2838  1.7399  1.7912
  933MOL0     H25931   0.707   7.199   7.352 -0.7604 -0.0620  1.2369
  933MOL0     H25932   0.601   7.068   7.328  2.3061  0.5903  0.6112
  933MOL0     H25933   0.830   7.154   7.157 -0.5146  1.3591  1.2936
  933MOL0     H25934   0.689   7.139   7.059 -0.0496  0.0377 -0.2100
  933MOL0     H25935   0.765   6.932   7.032 -0.2571  1.7747  0.1003
  933MOL0     H25936   0.632   6.909   7.141 -0.5669  1.1216 -2.7778
  933MOL0     H25937   0.055   7.040   7.623 -0.0925 -0.3378  0.4806
  933MOL0     H25938   0.087   6.885   7.819  2.5006  0.8383 -0.9810
  933MOL0     H25939   0.160   6.419   7.901  1.8097 -0.0940  0.7947
  933MOL0     H25940   0.169   6.208   8.033 -2.6191 -1.9400  1.0762
  933MOL0     H25941  -0.069   4.727   7.803  0.3495 -1.6349 -0.6654
  933MOL0     H25942   0.100   4.582   7.678  0.4258 -2.1276  2.1637
  933MOL0     H25943   0.334   4.427   7.531  0.9264  0.4761 -0.4968
  933MOL0     H25944   0.439   4.299   7.349 -2.8242 -0.1303  1.0699
  933MOL0     H25945   0.500   4.060   7.303  0.0124  2.2003  2.5693
  933MOL0     H25946   0.585   4.177   7.191 -1.7988  0.1001  0.2814
  933MOL0     H25947   0.654   3.889   7.269 -1.6122 -0.3073  0.0426
  933MOL0     H25948   0.778   4.000   7.197 -0.6425  0.1595 -2.0848
  933MOL0     H25949   0.615   4.048   7.025 -0.5096  0.7186  1.6483
  933MOL0     H25950   0.525   3.895   7.084  0.3113 -1.2670  1.6969
  933MOL0     H25951   0.731   3.760   7.027 -0.3284 -0.1845 -0.2615
  933MOL0     H25952   0.797   3.901   6.948 -0.3426  0.5842  1.4087
  933MOL0     H25953   0.508   3.722   6.676  0.1931  0.5614 -1.3092
  933MOL0     H25954   0.708   4.133   7.644  0.7020 -0.4816 -0.3277
  933MOL0     H25955   0.603   4.238   7.810  0.7576 -0.5030 -1.0089
  934MOL0     O25956   3.684   9.298   4.530  0.3530  0.4976  0.4259
  934MOL0     C25957   3.761   9.379   4.474  0.1097  1.0705  0.0098
  934MOL0     O25958   3.786   9.370   4.342 -0.3801  0.0198  0.4860
  934MOL0     C25959   3.704   9.292   4.263 -1.0842  0.6998  0.1782
  934MOL0     C25960   3.691   9.150   4.276  0.4533 -0.5603 -0.4317
  934MOL0     C25961   3.597   9.081   4.215 -0.0198 -0.7500 -0.4611
  934MOL0     C25962   3.523   9.143   4.116  0.7319  0.3110 -0.0727
  934MOL0     O25963   3.416   9.082   4.051  0.0557 -0.2660  0.1123
  934MOL0     C25964   3.440   8.941   4.014 -0.2223 -0.7456  0.1241
  934MOL0     C25965   3.307   8.893   3.957  1.0685  0.3245 -0.2100
  934MOL0     C25966   3.337   8.779   3.862 -0.4253  0.3411  0.6094
  934MOL0     C25967   3.208   8.699   3.825  0.8430  1.2041  0.6373
  934MOL0     C25968   3.120   8.801   3.739 -0.4438 -0.5043  0.4925
  934MOL0     C25969   2.991   8.737   3.682 -0.4454  0.3357 -0.1243
  934MOL0     C25970   2.905   8.657   3.793 -0.2572  0.3370  0.3951
  934MOL0     C25971   2.760   8.694   3.771 -0.4647  0.1643  0.2599
  934MOL0     N25972   2.654   8.630   3.864  0.2101 -0.3752  0.4168
  934MOL0     C25973   2.544   8.691   3.912 -0.4616  0.0605  1.2304
  934MOL0     C25974   2.498   8.603   3.999  0.3402  0.0010  0.4007
  934MOL0     C25975   2.366   8.620   4.076 -0.6435 -0.2477  0.1233
  934MOL0     C25976   2.355   8.537   4.206 -0.1465 -0.5306  0.2196
  934MOL0     C25977   2.454   8.577   4.312  0.5282 -0.3147  0.1036
  934MOL0     C25978   2.451   8.472   4.435  0.4379 -0.0963 -0.0926
  934MOL0     O25979   2.546   8.491   4.537  0.6818 -0.5287 -0.4565
  934MOL0     C25980   2.552   8.420   4.656  0.0573 -0.9161  0.9880
  934MOL0     C25981   2.462   8.315   4.676 -1.1470 -0.1070  0.6830
  934MOL0     C25982   2.460   8.241   4.788  0.0736 -0.4205 -0.5290
  934MOL0     C25983   2.360   8.129   4.810  0.3340  0.2375  0.2713
  934MOL0     C25984   2.562   8.272   4.893  0.4681  0.3308  0.7832
  934MOL0     C25985   2.582   8.191   5.011 -0.2094 -0.0378 -0.0538
  934MOL0     O25986   2.688   8.244   5.088  0.5181  0.8436  0.1591
  934MOL0     C25987   2.725   8.165   5.193 -0.4416 -1.2985 -0.1347
  934MOL0     C25988   2.706   8.207   5.323 -1.3825 -0.3570  0.2093
  934MOL0     C25989   2.748   8.119   5.426  0.2202 -0.0008 -0.4779
  934MOL0     C25990   2.817   8.004   5.402  0.6373 -0.1240 -0.7419
  934MOL0     O25991   2.844   7.933   5.519  0.4587 -0.4562  0.1707
  934MOL0     C25992   2.860   7.791   5.527 -1.1841 -0.6950  1.0399
  934MOL0     C25993   2.847   7.728   5.662 -0.4598  0.6330  0.0419
  934MOL0     C25994   2.955   7.794   5.750 -0.6871 -0.1958  0.3256
  934MOL0     C25995   2.923   7.938   5.791 -0.1755  0.3222  0.3210
  934MOL0     C25996   3.004   7.990   5.898 -0.5681  0.0529  0.8199
  934MOL0     C25997   2.984   8.143   5.932  0.4272 -0.1873  0.1934
  934MOL0     C25998   3.103   8.217   5.983 -1.2123  0.3152 -0.5641
  934MOL0     C25999   3.148   8.158   6.116  0.0276 -0.2386  0.1507
  934MOL0    Cl26000   3.022   8.133   6.247 -0.4756  0.0412  0.5670
  934MOL0     C26001   2.842   7.966   5.273 -0.4675 -1.3839 -0.2811
  934MOL0     C26002   2.799   8.048   5.174  0.0993  0.0488  0.5233
  934MOL0     O26003   2.521   8.093   5.038 -0.2023 -0.7410  0.9051
  934MOL0     C26004   2.655   8.376   4.873 -0.2318 -0.3474  0.4952
  934MOL0     C26005   2.656   8.447   4.753  0.7454 -0.2529 -0.1354
  934MOL0     N26006   2.578   8.494   4.008  0.1836 -0.1430  0.4811
  934MOL0     N26007   2.671   8.509   3.919 -0.4249  0.3672  0.1010
  934MOL0     C26008   3.540   9.278   4.095  0.5099 -0.6362 -0.4685
  934MOL0     C26009   3.620   9.360   4.174  0.7609 -0.0174 -0.4976
  934MOL0     C26010   3.822   9.486   4.560  0.1837  0.4081  0.0833
  934MOL0     C26011   3.889   9.590   4.497 -0.7633 -0.0673  0.3537
  934MOL0     C26012   3.971   9.672   4.568 -0.2414 -0.1286 -0.1560
  934MOL0     C26013   3.993   9.657   4.708 -0.4864 -0.4251  1.2514
  934MOL0     O26014   4.076   9.722   4.792 -1.0340 -0.3695 -0.2896
  934MOL0     C26015   4.168   9.810   4.724 -0.7124  0.4071  0.1677
  934MOL0     C26016   4.277   9.741   4.655  0.0095  0.1970 -0.0420
  934MOL0     C26017   4.357   9.650   4.747  0.6691 -0.0811 -0.6227
  934MOL0     C26018   4.484   9.596   4.691 -0.0569 -0.3634  0.5162
  934MOL0     C26019   4.557   9.543   4.808 -0.2883  0.5029 -0.2215
  934MOL0     C26020   4.636   9.506   4.897 -0.1274  0.0596 -0.1179
  934MOL0     C26021   3.914   9.561   4.771  0.0278 -0.8433  0.4130
  934MOL0     C26022   3.834   9.475   4.700 -0.1701  1.0053 -0.1279
  934MOL0     H26023   3.743   9.095   4.355 -0.3393 -0.2817  0.3008
  934MOL0     H26024   3.589   8.975   4.238  1.3261 -1.6305 -3.4835
  934MOL0     H26025   3.516   8.948   3.935  0.3353 -2.8094  0.4162
  934MOL0     H26026   3.489   8.873   4.085  0.1267  1.6450  2.3206
  934MOL0     H26027   3.242   8.870   4.043  2.1860 -0.3419  0.4871
  934MOL0     H26028   3.256   8.975   3.906  1.0495 -0.7841 -2.0437
  934MOL0     H26029   3.392   8.822   3.778 -0.6158  3.5907  1.9916
  934MOL0     H26030   3.405   8.710   3.913 -2.4701 -1.0647  1.6117
  934MOL0     H26031   3.229   8.608   3.769 -2.8303 -0.3109  1.4697
  934MOL0     H26032   3.158   8.663   3.915 -1.1830 -0.2205 -0.9745
  934MOL0     H26033   3.085   8.876   3.811  1.0462  2.0487 -1.2748
  934MOL0     H26034   3.183   8.862   3.674 -0.6657  1.8199  2.3268
  934MOL0     H26035   2.924   8.809   3.632 -0.9414 -0.1126 -0.1147
  934MOL0     H26036   3.018   8.663   3.606 -4.0441 -2.1926  0.8002
  934MOL0     H26037   2.911   8.549   3.808  0.3110 -0.1433 -2.5650
  934MOL0     H26038   2.936   8.706   3.885  0.2418 -1.5528  1.2724
  934MOL0     H26039   2.724   8.660   3.674  3.6825  1.0057 -1.7667
  934MOL0     H26040   2.742   8.802   3.782 -0.5186 -0.0019  2.1306
  934MOL0     H26041   2.507   8.786   3.873 -2.4148 -1.0384  0.2849
  934MOL0     H26042   2.368   8.727   4.098  1.7886 -0.3907  0.8183
  934MOL0     H26043   2.281   8.592   4.013 -2.6810 -1.7738  3.2632
  934MOL0     H26044   2.365   8.428   4.196  1.4137 -0.5783  1.8528
  934MOL0     H26045   2.256   8.556   4.249  0.4638  0.0120  1.4129
  934MOL0     H26046   2.418   8.673   4.352 -2.4966 -0.9255 -0.8587
  934MOL0     H26047   2.555   8.587   4.272 -0.0918 -0.8792 -1.7206
  934MOL0     H26048   2.464   8.370   4.396  1.3933 -0.1206  0.2598
  934MOL0     H26049   2.352   8.474   4.482  1.2057  1.7631  1.5438
  934MOL0     H26050   2.383   8.289   4.607 -1.3210  1.7462  0.1169
  934MOL0     H26051   2.401   8.028   4.806 -2.0018 -0.7588 -0.7447
  934MOL0     H26052   2.314   8.150   4.907  1.2676 -0.7126  0.9404
  934MOL0     H26053   2.286   8.131   4.729  1.3262 -0.4200 -0.6701
  934MOL0     H26054   2.669   8.308   5.337  0.8282  0.6155 -0.6270
  934MOL0     H26055   2.741   8.144   5.532  1.6965  1.2420 -0.6445
  934MOL0     H26056   2.788   7.744   5.459 -0.0747 -1.2182  0.1851
  934MOL0     H26057   2.963   7.768   5.495 -2.2058 -0.9322 -2.4885
  934MOL0     H26058   2.755   7.741   5.721  1.0844 -0.5529  2.9093
  934MOL0     H26059   2.872   7.622   5.659 -2.7612  0.0458 -0.2205
  934MOL0     H26060   3.056   7.783   5.710 -0.2022  0.8284  1.2023
  934MOL0     H26061   2.966   7.733   5.840  0.6910 -0.5892 -0.0814
  934MOL0     H26062   2.941   8.011   5.711 -1.5165  1.1078  0.7137
  934MOL0     H26063   2.815   7.937   5.800 -0.0618 -0.7918  2.0143
  934MOL0     H26064   3.109   7.975   5.873 -0.2913 -4.3576  3.4850
  934MOL0     H26065   2.985   7.929   5.987 -0.3895 -0.2785  0.6327
  934MOL0     H26066   2.952   8.198   5.844  0.4267 -4.5381 -2.8305
  934MOL0     H26067   2.911   8.148   6.013 -2.9081  0.3289 -2.6403
  934MOL0     H26068   3.088   8.325   5.995  2.9023  1.1960 -1.7305
  934MOL0     H26069   3.182   8.218   5.907 -0.7577 -1.5073 -0.1491
  934MOL0     H26070   3.223   8.230   6.151  0.8131 -0.2007 -1.4878
  934MOL0     H26071   3.178   8.056   6.089  1.2206  0.7980 -2.8728
  934MOL0     H26072   2.894   7.871   5.267  0.8022 -0.6038 -2.6349
  934MOL0     H26073   2.808   8.006   5.074 -3.3951 -0.4116  0.2764
  934MOL0     H26074   2.734   8.411   4.939  1.7520  1.0591 -2.4136
  934MOL0     H26075   2.725   8.529   4.740 -0.2016  0.3272 -1.8409
  934MOL0     H26076   3.471   9.326   4.025  0.2416  1.3776  1.0810
  934MOL0     H26077   3.612   9.468   4.159 -2.8848 -0.3215 -1.5985
  934MOL0     H26078   3.872   9.607   4.392  0.8379  1.2661  0.2675
  934MOL0     H26079   4.035   9.738   4.511 -1.1180 -0.6841 -1.8549
  934MOL0     H26080   4.120   9.886   4.662  1.0147  2.7903  1.5870
  934MOL0     H26081   4.217   9.869   4.802 -1.3545  0.9131  0.1906
  934MOL0     H26082   4.358   9.811   4.631  0.0316  0.0835 -0.2982
  934MOL0     H26083   4.255   9.690   4.561  1.1884 -0.2855 -0.0746
  934MOL0     H26084   4.285   9.570   4.764 -1.2359  1.6095 -0.2896
  934MOL0     H26085   4.370   9.711   4.837 -0.8817 -1.1699  0.3893
  934MOL0     H26086   4.548   9.673   4.645  1.6104 -1.7156  0.4604
  934MOL0     H26087   4.462   9.519   4.617  1.9062  1.1176 -1.7684
  934MOL0     H26088   4.709   9.466   4.964  1.9056  0.0195 -2.2390
  934MOL0     H26089   3.915   9.544   4.878  1.6463  3.1877  1.2310
  934MOL0     H26090   3.791   9.391   4.754  0.5259  0.2013 -0.7882
  935MOL0     O26091   7.604   1.089   0.480  0.4209 -0.5492  0.4611
  935MOL0     C26092   7.578   0.988   0.547 -0.1982  0.4106  0.1514
  935MOL0     O26093   7.609   0.972   0.672 -0.5693 -0.4840 -0.2095
  935MOL0     C26094   7.682   1.067   0.747 -0.3836 -0.1593 -0.4179
  935MOL0     C26095   7.686   1.205   0.719  0.1971 -0.1431  0.2209
  935MOL0     C26096   7.764   1.297   0.793  0.0936 -0.1156 -0.1808
  935MOL0     C26097   7.838   1.249   0.908  0.1027  0.8841 -0.7192
  935MOL0     O26098   7.926   1.316   0.990 -0.2316 -0.9858 -0.3936
  935MOL0     C26099   7.926   1.458   0.958 -1.3492  0.1641 -0.4539
  935MOL0     C26100   7.827   1.545   1.048 -0.4650  0.9069  0.5671
  935MOL0     C26101   7.842   1.533   1.200 -0.1912 -0.1222 -0.9476
  935MOL0     C26102   7.738   1.610   1.280  0.0410 -0.7380 -0.8923
  935MOL0     C26103   7.773   1.763   1.289  0.1834 -0.8536  0.1490
  935MOL0     C26104   7.677   1.838   1.374 -0.0833  0.5862 -0.1769
  935MOL0     C26105   7.707   1.993   1.381  0.5083  0.8877  1.3988
  935MOL0     C26106   7.612   2.070   1.475  0.8129 -0.4273  0.2774
  935MOL0     N26107   7.683   2.183   1.544  0.2029  1.3132  0.9387
  935MOL0     C26108   7.699   2.315   1.513  0.3914  0.3299 -0.7126
  935MOL0     C26109   7.768   2.375   1.609  0.1291  0.0418 -0.1022
  935MOL0     C26110   7.801   2.518   1.609 -0.2554 -0.7390 -0.7786
  935MOL0     C26111   7.705   2.578   1.711  0.2967 -1.3715  0.6424
  935MOL0     C26112   7.717   2.723   1.705 -0.6349 -1.0218  0.6347
  935MOL0     C26113   7.699   2.807   1.571  0.0356  0.1506  0.0127
  935MOL0     O26114   7.813   2.786   1.477 -0.4121 -0.3992  0.2115
  935MOL0     C26115   7.856   2.896   1.401 -0.1383 -0.2287  0.8114
  935MOL0     C26116   7.772   2.989   1.334  0.0136 -0.7002  0.3953
  935MOL0     C26117   7.817   3.099   1.260  0.8276 -0.1712  0.1553
  935MOL0     C26118   7.712   3.187   1.189 -0.4305 -0.9348 -0.2877
  935MOL0     C26119   7.956   3.123   1.244  0.2362  0.2981  0.7914
  935MOL0     C26120   8.019   3.223   1.152  0.3008 -0.1366 -0.4660
  935MOL0     O26121   7.935   3.318   1.106  0.5923 -0.5858 -0.2661
  935MOL0     C26122   7.993   3.423   1.037 -0.2663 -0.0522 -0.9566
  935MOL0     C26123   8.036   3.417   0.902  0.7599  0.7816  0.0250
  935MOL0     C26124   8.087   3.523   0.829 -0.0081  0.8084 -0.1364
  935MOL0     C26125   8.115   3.635   0.902  0.1384 -0.5757 -0.4001
  935MOL0     O26126   8.181   3.738   0.842  0.3879  0.2550  0.6468
  935MOL0     C26127   8.131   3.878   0.860  1.4767 -0.1525  0.3933
  935MOL0     C26128   8.158   3.964   0.734 -0.0118 -0.5278  0.6927
  935MOL0     C26129   8.113   4.108   0.729 -0.5067 -0.6690  0.4585
  935MOL0     C26130   7.970   4.128   0.693 -0.7206  0.1845  0.1179
  935MOL0     C26131   7.930   4.275   0.716  0.7852 -0.2764  1.1392
  935MOL0     C26132   7.775   4.278   0.700  0.1591 -0.4012 -0.2994
  935MOL0     C26133   7.724   4.422   0.689 -0.6505 -1.0477  0.5228
  935MOL0     C26134   7.568   4.416   0.695 -0.3898 -0.3071  0.4850
  935MOL0    Cl26135   7.507   4.584   0.716  0.2857  0.2126  0.1714
  935MOL0     C26136   8.094   3.641   1.037  0.5534 -0.2770  0.4146
  935MOL0     C26137   8.024   3.537   1.108 -0.0943  0.7022 -0.6678
  935MOL0     O26138   8.140   3.213   1.126 -0.0782  0.5492  0.8442
  935MOL0     C26139   8.048   3.026   1.303  0.5822 -0.4542 -0.0967
  935MOL0     C26140   7.991   2.921   1.387  0.2669  0.8010 -0.0557
  935MOL0     N26141   7.781   2.280   1.709 -0.3942 -1.3032 -0.3964
  935MOL0     N26142   7.738   2.171   1.670  0.2824  0.8587 -0.1539
  935MOL0     C26143   7.825   1.110   0.932  0.4513  0.3018  0.0666
  935MOL0     C26144   7.748   1.026   0.854  0.1782 -0.0811  0.6330
  935MOL0     C26145   7.497   0.886   0.478 -0.3190  0.4952  0.2858
  935MOL0     C26146   7.469   0.901   0.340  0.2255  0.9212 -0.5109
  935MOL0     C26147   7.385   0.804   0.277 -0.5325  0.8442 -0.6348
  935MOL0     C26148   7.328   0.697   0.348  0.4901  1.2879  0.7777
  935MOL0     O26149   7.260   0.597   0.277  0.1128 -0.0198  0.3638
  935MOL0     C26150   7.233   0.470   0.328  0.2245  0.0964 -0.1249
  935MOL0     C26151   7.260   0.359   0.224 -0.4272 -0.6159  0.1296
  935MOL0     C26152   7.265   0.213   0.265 -0.1890 -0.9867  0.1322
  935MOL0     C26153   7.336   0.129   0.163 -0.3867 -0.0743  0.4508
  935MOL0     C26154   7.300  -0.018   0.182  0.1893 -0.0057 -0.3743
  935MOL0     C26155   7.253  -0.126   0.173 -1.0494  1.0352  0.1499
  935MOL0     C26156   7.351   0.697   0.493 -0.1998  0.4155 -0.5532
  935MOL0     C26157   7.433   0.785   0.555 -0.8127 -0.4181 -0.3645
  935MOL0     H26158   7.613   1.247   0.650 -2.1723  2.2677  3.8764
  935MOL0     H26159   7.730   1.396   0.766 -1.7820 -1.4947 -3.4784
  935MOL0     H26160   8.025   1.496   0.986 -0.9276 -1.4613  0.3689
  935MOL0     H26161   7.917   1.476   0.851 -1.0402  0.6902 -0.3948
  935MOL0     H26162   7.832   1.650   1.015  1.6794  0.5084 -0.5574
  935MOL0     H26163   7.727   1.510   1.020 -0.0514 -1.9600  2.2800
  935MOL0     H26164   7.835   1.428   1.230 -3.3435  0.4430  0.7284
  935MOL0     H26165   7.939   1.574   1.229  0.8400 -2.1254 -1.4093
  935MOL0     H26166   7.642   1.602   1.228  1.1451  1.7221 -3.6000
  935MOL0     H26167   7.726   1.557   1.375 -1.6952  1.3328  0.1374
  935MOL0     H26168   7.875   1.788   1.319  1.1092 -1.7212 -2.0192
  935MOL0     H26169   7.774   1.799   1.186  3.2327  1.0498  0.7048
  935MOL0     H26170   7.576   1.816   1.339 -0.7546  0.0489  1.9278
  935MOL0     H26171   7.685   1.806   1.478  3.5604  0.0471 -0.4874
  935MOL0     H26172   7.812   2.006   1.409  1.5670  0.1193 -1.8132
  935MOL0     H26173   7.698   2.037   1.281  2.4678  1.1746  1.2958
  935MOL0     H26174   7.585   2.012   1.564  2.4586  1.1242  1.8663
  935MOL0     H26175   7.522   2.104   1.423  1.7027  1.5035 -0.0906
  935MOL0     H26176   7.658   2.363   1.424 -3.6401 -1.0716  0.1722
  935MOL0     H26177   7.898   2.538   1.655 -0.4025  4.1331 -1.9414
  935MOL0     H26178   7.804   2.560   1.508  2.5357  2.1945  0.3480
  935MOL0     H26179   7.718   2.540   1.813  0.8229 -0.7986  0.7955
  935MOL0     H26180   7.605   2.544   1.685 -0.0730 -0.8627  1.3720
  935MOL0     H26181   7.812   2.744   1.755 -1.2527 -3.1265  2.8485
  935MOL0     H26182   7.642   2.763   1.773 -0.8359 -0.3437  0.0394
  935MOL0     H26183   7.687   2.910   1.606  0.8041 -0.4269  2.1213
  935MOL0     H26184   7.607   2.772   1.523  0.0997 -2.5050  1.6156
  935MOL0     H26185   7.666   2.966   1.330 -0.6563  2.2073 -1.8360
  935MOL0     H26186   7.706   3.290   1.223 -3.9133 -1.6294  1.7311
  935MOL0     H26187   7.740   3.175   1.084  0.1583 -1.3138 -0.0932
  935MOL0     H26188   7.612   3.144   1.176 -1.1063  0.9854 -1.7155
  935MOL0     H26189   8.020   3.322   0.851  1.4652  0.0144  1.1959
  935MOL0     H26190   8.111   3.517   0.724  1.7235 -0.2267  0.2794
  935MOL0     H26191   8.022   3.871   0.863  1.3073  1.7655  0.2235
  935MOL0     H26192   8.162   3.927   0.952  1.7838  1.8499 -0.7062
  935MOL0     H26193   8.266   3.968   0.717  0.5363 -0.1637  3.6602
  935MOL0     H26194   8.110   3.910   0.652  1.8503 -1.7446  0.3591
  935MOL0     H26195   8.176   4.170   0.665  0.4322 -1.7666  0.2874
  935MOL0     H26196   8.135   4.149   0.828 -0.2854  0.6083 -0.0900
  935MOL0     H26197   7.945   4.112   0.587 -0.4168  1.4120 -0.1517
  935MOL0     H26198   7.919   4.051   0.752 -1.2027 -2.2284 -3.1483
  935MOL0     H26199   7.971   4.346   0.644  0.4216  3.1280  4.0244
  935MOL0     H26200   7.959   4.308   0.816 -1.9069  3.5261  0.8956
  935MOL0     H26201   7.753   4.220   0.610  0.3948 -0.7576 -0.1286
  935MOL0     H26202   7.738   4.228   0.789  2.9312 -1.3601  0.4073
  935MOL0     H26203   7.765   4.444   0.590  1.0547  0.1259  1.4329
  935MOL0     H26204   7.774   4.477   0.769 -2.8469 -3.0312  3.4643
  935MOL0     H26205   7.532   4.359   0.781 -1.0970  2.1485  1.9375
  935MOL0     H26206   7.523   4.361   0.612  0.2609  1.1152 -0.8663
  935MOL0     H26207   8.110   3.733   1.092 -1.4765 -0.2632  1.0643
  935MOL0     H26208   7.999   3.549   1.213 -1.0793  0.3198 -0.8475
  935MOL0     H26209   8.155   3.035   1.288  0.5402  1.6837  0.5644
  935MOL0     H26210   8.041   2.840   1.440  0.3541  0.5663 -0.4901
  935MOL0     H26211   7.881   1.072   1.017  0.0559 -2.4457 -0.7974
  935MOL0     H26212   7.745   0.921   0.879  1.6012 -1.0915 -2.7909
  935MOL0     H26213   7.504   0.982   0.277 -0.6430 -1.3908 -4.3054
  935MOL0     H26214   7.368   0.824   0.172  0.0247 -0.2856 -0.9589
  935MOL0     H26215   7.304   0.450   0.408  1.1665 -0.8689 -1.1587
  935MOL0     H26216   7.133   0.462   0.371  0.7923  0.2876  1.2834
  935MOL0     H26217   7.351   0.386   0.169 -2.1187  0.3444 -2.3480
  935MOL0     H26218   7.185   0.361   0.145 -0.5068  0.3834  0.2226
  935MOL0     H26219   7.166   0.167   0.276 -1.0199  1.0927  2.3929
  935MOL0     H26220   7.324   0.199   0.356  0.7496 -1.3622 -0.5173
  935MOL0     H26221   7.445   0.129   0.180 -0.5801 -0.8384  1.8360
  935MOL0     H26222   7.301   0.162   0.065 -2.0187 -0.6576  0.8104
  935MOL0     H26223   7.213  -0.225   0.184 -1.3855  1.3059  1.5075
  935MOL0     H26224   7.299   0.616   0.544  2.0817 -2.0133 -1.8525
  935MOL0     H26225   7.462   0.778   0.659 -0.2586  4.2185  0.0043
  936MOL0     O26226   9.239   8.685  11.104 -0.3067 -0.2838 -0.7706
  936MOL0     C26227   9.190   8.651  10.996  0.8701  0.5944 -1.6289
  936MOL0     O26228   9.070   8.697  10.943  0.0303  0.2870 -0.2001
  936MOL0     C26229   8.984   8.783  11.003 -0.1337 -0.7673 -0.3154
  936MOL0     C26230   8.849   8.770  10.979 -0.0730 -0.1556 -0.7950
  936MOL0     C26231   8.750   8.858  11.026  0.3549 -0.9011  0.1622
  936MOL0     C26232   8.792   8.960  11.111  0.2594  0.4156  0.2604
  936MOL0     O26233   8.712   9.057  11.165 -0.1273  0.1138 -0.6293
  936MOL0     C26234   8.608   9.021  11.260 -0.0011  0.3217  0.8368
  936MOL0     C26235   8.670   8.948  11.384  0.1073 -0.1664  0.7470
  936MOL0     C26236   8.787   9.010  11.455  0.0236  1.2021  0.5674
  936MOL0     C26237   8.747   9.151  11.509  0.1023  1.0732  0.2153
  936MOL0     C26238   8.859   9.193  11.594  0.0272  0.4808 -0.7696
  936MOL0     C26239   8.816   9.306  11.683 -0.2319 -0.1723 -0.1625
  936MOL0     C26240   8.821   9.437  11.598 -0.5283 -0.4462 -0.5924
  936MOL0     C26241   8.772   9.556  11.681  0.1705 -0.0057 -1.1908
  936MOL0     N26242   8.635   9.541  11.742  0.1225  0.4149  0.1454
  936MOL0     C26243   8.605   9.507  11.874  0.1424  0.4685  0.0014
  936MOL0     C26244   8.484   9.550  11.898 -0.1391  0.6313  0.3501
  936MOL0     C26245   8.403   9.548  12.029 -0.4974  0.3917 -0.6213
  936MOL0     C26246   8.445   9.427  12.112  0.2539 -0.4684  0.1028
  936MOL0     C26247   8.358   9.407  12.241 -0.1645  0.0886  0.4519
  936MOL0     C26248   8.402   9.498  12.360 -0.0173 -0.5283  0.3633
  936MOL0     O26249   8.330   9.474  12.474 -0.6227 -0.7332 -0.0820
  936MOL0     C26250   8.359   9.568  12.568  0.0649 -0.1155  0.7985
  936MOL0     C26251   8.463   9.551  12.661 -0.4068 -0.1773 -0.0279
  936MOL0     C26252   8.469   9.632  12.773 -0.4754 -0.1988  0.5227
  936MOL0     C26253   8.591   9.603  12.862  0.2383  0.7584  1.2340
  936MOL0     C26254   8.384   9.748  12.791  1.2715  0.5747  0.1163
  936MOL0     C26255   8.381   9.843  12.908 -0.4050  1.0035  0.0928
  936MOL0     O26256   8.269   9.919  12.919  0.2685 -0.6518 -0.4328
  936MOL0     C26257   8.265  10.040  12.989 -0.1802 -1.1629 -0.6019
  936MOL0     C26258   8.137  10.084  13.029 -0.6237 -0.8882  0.0135
  936MOL0     C26259   8.124  10.203  13.107 -0.6783 -0.1990 -0.5791
  936MOL0     C26260   8.244  10.277  13.140  0.5645 -0.3164  0.0684
  936MOL0     O26261   8.238  10.402  13.199  1.2683 -0.0821  0.3271
  936MOL0     C26262   8.353  10.440  13.292  0.2775 -0.2449  0.1100
  936MOL0     C26263   8.321  10.545  13.394  0.3293 -0.3581 -0.2638
  936MOL0     C26264   8.208  10.508  13.492 -0.3043 -0.2154 -0.1379
  936MOL0     C26265   8.187  10.612  13.597 -0.6638  0.0472  1.1562
  936MOL0     C26266   8.052  10.613  13.660 -0.2981  0.7116  0.2890
  936MOL0     C26267   7.956  10.716  13.597 -0.1252  0.3965  0.2289
  936MOL0     C26268   7.817  10.681  13.636  1.2487 -0.5431 -0.8214
  936MOL0     C26269   7.708  10.780  13.606  0.0792 -0.5625 -0.2994
  936MOL0    Cl26270   7.647  10.772  13.442 -0.0670  0.3839 -0.2015
  936MOL0     C26271   8.361  10.232  13.093 -0.5186  0.2049 -0.0457
  936MOL0     C26272   8.373  10.116  13.009  0.4643  0.0558 -0.2266
  936MOL0     O26273   8.471   9.836  12.987 -0.3788  0.5727 -1.1183
  936MOL0     C26274   8.290   9.768  12.687  0.2491  0.3362  0.0485
  936MOL0     C26275   8.270   9.675  12.580 -0.9350 -0.7169 -0.0548
  936MOL0     N26276   8.442   9.618  11.781 -0.3344 -0.1534  0.1950
  936MOL0     N26277   8.535   9.616  11.696 -0.2887 -0.0946 -0.5753
  936MOL0     C26278   8.926   8.977  11.132  1.1214  0.1972 -0.0111
  936MOL0     C26279   9.024   8.892  11.087 -0.5186  0.6026 -0.6318
  936MOL0     C26280   9.274   8.567  10.916  0.1233 -0.1680 -0.5471
  936MOL0     C26281   9.417   8.585  10.925  0.7093  0.3201  0.0115
  936MOL0     C26282   9.496   8.505  10.843  0.0637  0.3552 -0.0474
  936MOL0     C26283   9.433   8.412  10.759  0.0110 -1.0908  0.2877
  936MOL0     O26284   9.502   8.343  10.666  0.0860  0.1300 -0.1999
  936MOL0     C26285   9.644   8.343  10.653 -0.7363  0.5135 -0.8293
  936MOL0     C26286   9.687   8.230  10.559  0.2058  0.0093 -0.0461
  936MOL0     C26287   9.650   8.273  10.414  0.2127 -0.0350 -0.1526
  936MOL0     C26288   9.740   8.204  10.307  0.0800  0.0547  0.1671
  936MOL0     C26289   9.707   8.060  10.292 -0.2778 -0.3706  0.2291
  936MOL0     C26290   9.685   7.941  10.281  0.2459 -0.6739  0.2851
  936MOL0     C26291   9.296   8.389  10.763  0.6686  0.4200 -0.2497
  936MOL0     C26292   9.212   8.470  10.838 -0.2317  0.3936 -0.1861
  936MOL0     H26293   8.838   8.681  10.918  0.1233 -0.0851 -0.9354
  936MOL0     H26294   8.644   8.853  11.004  0.2338  0.5598  0.2689
  936MOL0     H26295   8.553   9.109  11.294  1.2003  0.7548  1.7363
  936MOL0     H26296   8.553   8.936  11.218  1.4401 -0.2099 -0.0590
  936MOL0     H26297   8.592   8.922  11.455  0.9955 -3.0321  0.7669
  936MOL0     H26298   8.695   8.854  11.334 -0.0095  1.0443 -1.7859
  936MOL0     H26299   8.821   8.946  11.537  2.3934 -0.5820 -1.6150
  936MOL0     H26300   8.873   9.018  11.387 -0.6044  2.4592 -0.1211
  936MOL0     H26301   8.727   9.222  11.429 -2.3004 -0.5439 -0.7240
  936MOL0     H26302   8.654   9.142  11.567  0.9535 -0.3363  1.4325
  936MOL0     H26303   8.876   9.114  11.668  0.8248 -0.0964 -1.5303
  936MOL0     H26304   8.951   9.201  11.535  0.0740 -0.6498 -0.8778
  936MOL0     H26305   8.720   9.292  11.734  0.4200  0.9560  1.4432
  936MOL0     H26306   8.876   9.314  11.774  1.2389 -2.1300 -0.8978
  936MOL0     H26307   8.927   9.455  11.582  0.2819 -0.2866  3.6292
  936MOL0     H26308   8.763   9.424  11.506  1.4116  3.6968 -2.6658
  936MOL0     H26309   8.769   9.642  11.613  0.1772 -1.3667 -3.0040
  936MOL0     H26310   8.846   9.575  11.759 -0.7755  3.9666 -1.0371
  936MOL0     H26311   8.676   9.467  11.946  0.3652 -0.1021 -0.5184
  936MOL0     H26312   8.427   9.628  12.100 -0.9338  0.4215 -0.5030
  936MOL0     H26313   8.296   9.555  12.007 -1.0746 -0.7772  1.5474
  936MOL0     H26314   8.546   9.449  12.148  0.0961 -0.1902  0.3726
  936MOL0     H26315   8.443   9.334  12.054 -4.6982 -0.4898 -0.0703
  936MOL0     H26316   8.377   9.309  12.287 -2.2833  0.0546  1.3553
  936MOL0     H26317   8.252   9.410  12.215  0.5540 -0.3897 -3.1915
  936MOL0     H26318   8.398   9.606  12.341 -2.6151 -0.0960  2.6764
  936MOL0     H26319   8.504   9.474  12.389  0.3625 -1.5842 -1.7138
  936MOL0     H26320   8.533   9.468  12.648  2.3976  2.1583 -0.9937
  936MOL0     H26321   8.576   9.609  12.970  4.5504  2.0723  1.9499
  936MOL0     H26322   8.642   9.509  12.838  4.4611  2.8618  0.9769
  936MOL0     H26323   8.670   9.675  12.838  1.6555 -0.9107  0.7084
  936MOL0     H26324   8.047  10.037  12.988 -0.7612  2.4308 -4.2664
  936MOL0     H26325   8.025  10.244  13.126 -0.1502  0.0619  2.0096
  936MOL0     H26326   8.378  10.355  13.357 -0.2766  1.2694  2.4191
  936MOL0     H26327   8.442  10.459  13.232  0.4777  0.6130  0.6636
  936MOL0     H26328   8.418  10.570  13.439  0.2879  0.0834 -0.4123
  936MOL0     H26329   8.288  10.637  13.345 -0.5393 -1.5893 -2.0770
  936MOL0     H26330   8.243  10.417  13.542 -3.3433 -0.1261  2.4731
  936MOL0     H26331   8.122  10.467  13.438  1.2093 -0.2430 -2.6885
  936MOL0     H26332   8.269  10.603  13.669  2.4990 -1.0474 -2.2549
  936MOL0     H26333   8.189  10.714  13.558 -0.1730 -0.8826 -1.4122
  936MOL0     H26334   8.080  10.623  13.765  4.6585 -1.3442 -0.5394
  936MOL0     H26335   8.012  10.511  13.662  1.8300 -0.2659 -1.8599
  936MOL0     H26336   7.984  10.817  13.630  1.3955  1.3010 -3.4166
  936MOL0     H26337   7.964  10.710  13.488 -1.5861  0.8008  0.0808
  936MOL0     H26338   7.821  10.669  13.744  2.1889 -1.2026 -0.9189
  936MOL0     H26339   7.794  10.579  13.605  0.7732 -1.4351  2.1476
  936MOL0     H26340   7.743  10.883  13.613 -1.5779  0.0245 -0.0874
  936MOL0     H26341   7.611  10.770  13.657 -0.6632  1.2857 -1.2438
  936MOL0     H26342   8.456  10.284  13.103 -0.0557 -0.8482  1.2644
  936MOL0     H26343   8.475  10.089  12.984  0.1153 -0.9133 -0.6212
  936MOL0     H26344   8.225   9.854  12.683  0.3769  0.4666  0.7015
  936MOL0     H26345   8.183   9.682  12.516  1.1181  2.6145 -2.8797
  936MOL0     H26346   8.953   9.074  11.171 -1.6387  2.0277 -2.2372
  936MOL0     H26347   9.130   8.907  11.108 -1.0562  1.7829  1.5989
  936MOL0     H26348   9.462   8.658  10.992  2.1791 -1.8976  1.5626
  936MOL0     H26349   9.601   8.527  10.827 -0.1268  2.3065  1.0379
  936MOL0     H26350   9.677   8.444  10.626  0.3650  0.3337 -0.2198
  936MOL0     H26351   9.677   8.325  10.756 -1.5966  0.7728 -0.4959
  936MOL0     H26352   9.645   8.132  10.585 -1.6540  0.7921  0.0529
  936MOL0     H26353   9.790   8.203  10.584  0.1560  0.3530  0.5535
  936MOL0     H26354   9.659   8.382  10.410  0.4477 -0.0029  0.9202
  936MOL0     H26355   9.544   8.245  10.408  0.4956 -1.1850 -0.1082
  936MOL0     H26356   9.845   8.231  10.327  0.5232 -0.3932 -1.4115
  936MOL0     H26357   9.719   8.242  10.207  3.0471  3.3931  0.6002
  936MOL0     H26358   9.656   7.838  10.281  1.1867 -0.9535  0.7342
  936MOL0     H26359   9.247   8.314  10.703 -0.4211 -0.0052  1.1148
  936MOL0     H26360   9.107   8.452  10.856 -0.1548  0.2493  0.1269
  937MOL0     O26361   5.333   8.479   2.181  0.3808 -0.0234  0.0915
  937MOL0     C26362   5.301   8.578   2.119  1.0272  0.8089  0.3686
  937MOL0     O26363   5.389   8.667   2.064  1.0267  0.9779  0.4905
  937MOL0     C26364   5.518   8.628   2.057  0.6112 -0.4337  0.0988
  937MOL0     C26365   5.601   8.660   2.163  0.2227  1.2160 -0.7764
  937MOL0     C26366   5.739   8.632   2.154  0.9578 -0.3619 -0.1592
  937MOL0     C26367   5.786   8.584   2.033  0.0695 -0.0797  0.0272
  937MOL0     O26368   5.919   8.579   2.028 -0.1753  0.3533  0.6016
  937MOL0     C26369   5.968   8.467   1.961 -0.5655 -0.9080  0.4809
  937MOL0     C26370   6.120   8.457   1.982 -0.0883 -0.9003 -0.1833
  937MOL0     C26371   6.204   8.380   1.877 -0.1203  0.1408 -0.3386
  937MOL0     C26372   6.353   8.407   1.880  0.2730  0.9960  0.2410
  937MOL0     C26373   6.442   8.337   1.776 -0.2184  0.2894  1.1247
  937MOL0     C26374   6.592   8.367   1.801  0.4157 -0.8745 -0.5456
  937MOL0     C26375   6.703   8.277   1.725  0.2561 -0.8454  0.1494
  937MOL0     C26376   6.696   8.130   1.760 -0.3360 -0.6398 -0.0460
  937MOL0     N26377   6.713   8.097   1.899 -0.6082  0.2038 -0.7217
  937MOL0     C26378   6.784   8.175   1.983  0.2293 -0.4159 -0.3042
  937MOL0     C26379   6.775   8.101   2.097  0.3145 -0.6202 -0.0255
  937MOL0     C26380   6.853   8.125   2.231  0.1091 -0.3069 -1.3258
  937MOL0     C26381   6.860   8.265   2.289  0.1390  0.2739  0.1556
  937MOL0     C26382   6.932   8.251   2.413 -0.4448 -0.1046 -0.7365
  937MOL0     C26383   6.973   8.393   2.465  0.4224  1.3815 -0.1310
  937MOL0     O26384   6.871   8.482   2.490  0.4139  0.4099 -0.2316
  937MOL0     C26385   6.893   8.577   2.585  0.3721  0.4030 -0.5325
  937MOL0     C26386   7.022   8.625   2.624 -0.6662 -0.0780  0.5766
  937MOL0     C26387   7.040   8.750   2.700 -0.4185  0.1484  0.2625
  937MOL0     C26388   7.176   8.796   2.734 -0.4608 -0.2288  0.4833
  937MOL0     C26389   6.922   8.818   2.720 -0.0521 -1.1138  0.4078
  937MOL0     C26390   6.922   8.945   2.795 -0.2974 -0.0924  0.2405
  937MOL0     O26391   7.028   9.031   2.809 -0.7285 -0.5064 -0.0090
  937MOL0     C26392   7.016   9.137   2.883 -0.8601  0.2044 -0.3546
  937MOL0     C26393   6.922   9.224   2.839 -0.8819  0.6273  0.6749
  937MOL0     C26394   6.906   9.348   2.902  0.7051  0.5484  0.2247
  937MOL0     C26395   6.975   9.377   3.016  0.1423  0.8400  1.0083
  937MOL0     O26396   6.946   9.495   3.081 -0.2724  0.2350  0.0357
  937MOL0     C26397   7.032   9.526   3.194  0.7841 -0.7843  0.6298
  937MOL0     C26398   7.017   9.678   3.230 -0.1528  0.5873 -0.4972
  937MOL0     C26399   7.019   9.765   3.108 -0.3758 -0.7808  0.9762
  937MOL0     C26400   7.031   9.919   3.130 -0.4300 -0.7313 -1.0052
  937MOL0     C26401   6.896   9.970   3.194  0.2799  0.9924  0.3165
  937MOL0     C26402   6.905  10.117   3.217  0.1468 -0.7906  0.5074
  937MOL0     C26403   6.832  10.200   3.111  0.3911 -0.1077  0.2397
  937MOL0     C26404   6.856  10.355   3.116 -0.4403 -0.4473  0.5756
  937MOL0    Cl26405   7.021  10.374   3.033  0.1954 -0.2284 -0.2913
  937MOL0     C26406   7.068   9.287   3.058  0.0826  0.3666 -0.3024
  937MOL0     C26407   7.088   9.173   2.995 -0.7731  0.0261 -0.1932
  937MOL0     O26408   6.820   8.962   2.854  0.8095  1.6102 -0.4184
  937MOL0     C26409   6.794   8.759   2.684  0.1019  0.1540  0.0143
  937MOL0     C26410   6.775   8.642   2.619  0.2191 -0.2633  0.1232
  937MOL0     N26411   6.703   7.986   2.077 -0.5893  0.0142 -0.5576
  937MOL0     N26412   6.662   7.983   1.957  0.7573 -0.7985  0.2729
  937MOL0     C26413   5.701   8.546   1.929 -0.5064  0.4158  0.0733
  937MOL0     C26414   5.566   8.586   1.934  0.7318  1.7034 -1.1931
  937MOL0     C26415   5.152   8.615   2.117  0.8161 -0.2036  0.1939
  937MOL0     C26416   5.051   8.534   2.170  0.8612 -0.4115 -1.1056
  937MOL0     C26417   4.916   8.572   2.163 -0.2058 -0.5757 -0.4076
  937MOL0     C26418   4.878   8.692   2.095  0.6547 -0.0200  0.3429
  937MOL0     O26419   4.743   8.744   2.078 -0.1821 -0.5452 -0.0781
  937MOL0     C26420   4.688   8.771   2.212  0.7448 -0.1368  1.2405
  937MOL0     C26421   4.551   8.836   2.182  1.1119 -1.1718 -0.0119
  937MOL0     C26422   4.452   8.768   2.089  0.1074  0.2862  0.7558
  937MOL0     C26423   4.454   8.614   2.101  0.2744 -0.1486  0.6435
  937MOL0     C26424   4.352   8.568   2.002 -0.0634  0.8674 -0.7620
  937MOL0     C26425   4.289   8.538   1.900  0.2761 -0.2660 -1.2593
  937MOL0     C26426   4.982   8.767   2.042 -0.2807  0.2897  0.4609
  937MOL0     C26427   5.116   8.738   2.054 -0.3174 -0.6019 -1.6456
  937MOL0     H26428   5.551   8.689   2.255 -1.7628 -0.4528 -1.2706
  937MOL0     H26429   5.814   8.646   2.231 -0.0807  0.4126  0.7376
  937MOL0     H26430   5.921   8.369   1.979 -2.5170 -0.3536 -1.1747
  937MOL0     H26431   5.957   8.494   1.855  1.4686  1.3579  0.7753
  937MOL0     H26432   6.155   8.560   1.992  0.8278 -0.2222 -6.2554
  937MOL0     H26433   6.140   8.391   2.067 -0.2269 -0.6973  0.0048
  937MOL0     H26434   6.179   8.273   1.882  0.6232 -0.0322 -0.2306
  937MOL0     H26435   6.167   8.402   1.777  0.3840 -1.8703 -1.0268
  937MOL0     H26436   6.360   8.516   1.871  2.3582  0.9230  0.4387
  937MOL0     H26437   6.403   8.386   1.975 -1.0677 -3.1389  0.2035
  937MOL0     H26438   6.440   8.228   1.789  0.9685  0.0079 -0.7039
  937MOL0     H26439   6.407   8.371   1.678 -1.4976  0.5808  1.6598
  937MOL0     H26440   6.602   8.476   1.789 -0.8195 -0.3953  2.1093
  937MOL0     H26441   6.611   8.359   1.908  3.0757  1.0991 -0.7483
  937MOL0     H26442   6.682   8.289   1.619  0.2560  0.9646  0.3219
  937MOL0     H26443   6.803   8.313   1.752 -0.2895 -1.2350  3.0668
  937MOL0     H26444   6.782   8.096   1.702  0.0942  0.6506 -0.2109
  937MOL0     H26445   6.606   8.090   1.712 -1.2883  2.2279 -0.8536
  937MOL0     H26446   6.842   8.266   1.970  1.2656 -1.0955 -0.5030
  937MOL0     H26447   6.820   8.054   2.308  0.0142  2.9209  1.8974
  937MOL0     H26448   6.953   8.091   2.203  0.2348 -1.3665  0.2912
  937MOL0     H26449   6.760   8.307   2.305  0.0148 -0.7992  2.8034
  937MOL0     H26450   6.913   8.331   2.220 -2.5146  2.8201  0.3567
  937MOL0     H26451   7.027   8.197   2.402 -1.7187 -2.4171 -0.9446
  937MOL0     H26452   6.875   8.209   2.496 -0.9198 -2.7023 -2.2603
  937MOL0     H26453   7.041   8.436   2.390 -0.3846  1.1805 -0.9928
  937MOL0     H26454   7.032   8.388   2.557 -0.0364  1.8638  0.1901
  937MOL0     H26455   7.114   8.578   2.591 -2.6002 -1.7750 -2.9586
  937MOL0     H26456   7.207   8.890   2.687 -0.9311 -0.5932 -0.5819
  937MOL0     H26457   7.188   8.821   2.840  0.6447 -0.5617  0.4425
  937MOL0     H26458   7.251   8.718   2.720  1.5740  1.3035  2.0841
  937MOL0     H26459   6.867   9.207   2.747 -0.3737  0.4315  0.4080
  937MOL0     H26460   6.821   9.414   2.887 -0.2767 -1.0795 -1.7968
  937MOL0     H26461   7.010   9.455   3.274  0.6138  2.0377  3.2528
  937MOL0     H26462   7.136   9.519   3.159  0.2824  0.3894 -1.2874
  937MOL0     H26463   6.933   9.710   3.293  0.3580  3.8586 -1.2664
  937MOL0     H26464   7.108   9.702   3.287 -0.5220  1.3796 -0.2139
  937MOL0     H26465   6.929   9.745   3.049  1.9602 -1.9859 -2.4824
  937MOL0     H26466   7.096   9.733   3.038 -1.8188 -1.9532 -0.1342
  937MOL0     H26467   7.117   9.951   3.189 -1.7820  0.7795  0.2488
  937MOL0     H26468   7.047   9.974   3.037 -0.9770 -0.4204 -0.9207
  937MOL0     H26469   6.862   9.908   3.277  0.1259  0.0043 -0.4753
  937MOL0     H26470   6.821   9.949   3.117 -0.3580  0.0158  1.1797
  937MOL0     H26471   6.844  10.122   3.308 -0.6457 -2.6749  0.1280
  937MOL0     H26472   7.002  10.163   3.237 -0.4104  0.9339 -0.4669
  937MOL0     H26473   6.725  10.189   3.130  0.6963 -1.8338  1.1056
  937MOL0     H26474   6.842  10.158   3.010 -0.1610 -3.5621  1.5107
  937MOL0     H26475   6.861  10.393   3.219  1.8082  2.3315 -0.4201
  937MOL0     H26476   6.783  10.410   3.056  3.2778  2.3036 -1.8892
  937MOL0     H26477   7.133   9.296   3.144  0.0225 -1.2321 -0.0572
  937MOL0     H26478   7.170   9.107   3.019 -1.9554 -1.2185  0.6104
  937MOL0     H26479   6.699   8.809   2.699 -0.8852 -0.1777 -3.9478
  937MOL0     H26480   6.680   8.612   2.576  1.3703 -1.3524 -1.8178
  937MOL0     H26481   5.731   8.483   1.846 -1.8911  0.0822 -0.2068
  937MOL0     H26482   5.498   8.560   1.853  0.3940  2.7462 -1.2530
  937MOL0     H26483   5.078   8.441   2.218 -3.3287 -1.9893 -1.4379
  937MOL0     H26484   4.833   8.521   2.211 -1.0406  0.5246 -0.6258
  937MOL0     H26485   4.676   8.675   2.262  0.6058 -1.3003 -0.8884
  937MOL0     H26486   4.752   8.832   2.276  1.0690  0.2488  0.5654
  937MOL0     H26487   4.563   8.928   2.125 -2.0889 -1.3622 -1.2300
  937MOL0     H26488   4.497   8.864   2.273  0.4149 -0.8519 -0.5226
  937MOL0     H26489   4.471   8.788   1.983  1.7306 -1.4441  0.6758
  937MOL0     H26490   4.354   8.813   2.109 -1.3068 -1.5961 -1.4109
  937MOL0     H26491   4.436   8.584   2.204 -0.3691 -2.8226 -0.1744
  937MOL0     H26492   4.551   8.570   2.075  0.3791  0.4705 -0.0457
  937MOL0     H26493   4.226   8.524   1.814  1.1300 -0.2252 -1.9078
  937MOL0     H26494   4.953   8.852   1.980  1.6465  4.4944  4.6545
  937MOL0     H26495   5.180   8.814   2.012  2.2946 -0.6312  1.7967
  938MOL0     O26496   8.321   7.879   8.567 -0.6943 -0.3895 -0.3131
  938MOL0     C26497   8.209   7.918   8.572 -0.2538  0.1532 -0.0826
  938MOL0     O26498   8.152   7.982   8.679  0.0044  0.3906 -0.1776
  938MOL0     C26499   8.227   8.038   8.777  0.1665 -0.4009 -0.3577
  938MOL0     C26500   8.352   7.996   8.825 -0.1082  0.0446 -0.8476
  938MOL0     C26501   8.430   8.076   8.912 -0.5742  0.0185 -0.4055
  938MOL0     C26502   8.385   8.196   8.962 -0.7659  0.2075  0.2182
  938MOL0     O26503   8.474   8.265   9.051 -0.9485 -0.1462  0.9839
  938MOL0     C26504   8.503   8.403   9.023  0.4316  0.1182  0.3268
  938MOL0     C26505   8.585   8.441   9.138  1.2713  0.1475 -0.2245
  938MOL0     C26506   8.614   8.583   9.102 -0.4570  0.6031  0.2178
  938MOL0     C26507   8.712   8.624   9.217 -0.2552 -0.7862 -0.3985
  938MOL0     C26508   8.738   8.772   9.212  0.2136  0.2809 -0.0192
  938MOL0     C26509   8.827   8.829   9.326  1.1200  0.7195  0.5034
  938MOL0     C26510   8.827   8.981   9.307 -1.0879 -0.4253 -0.7042
  938MOL0     C26511   8.690   9.052   9.334 -0.2991 -0.6024 -0.1884
  938MOL0     N26512   8.706   9.189   9.387 -0.1200 -0.7709 -0.9961
  938MOL0     C26513   8.796   9.286   9.347 -0.3846 -0.5116  0.0741
  938MOL0     C26514   8.784   9.385   9.434 -0.0548 -0.6481  0.2639
  938MOL0     C26515   8.874   9.502   9.447  0.1874  0.0315  0.1873
  938MOL0     C26516   9.017   9.469   9.472  0.2806 -0.0499 -0.9736
  938MOL0     C26517   9.111   9.590   9.449 -0.7086 -0.3520 -0.2514
  938MOL0     C26518   9.104   9.693   9.562 -0.1369 -0.4744 -0.6427
  938MOL0     O26519   9.099   9.627   9.689  0.4661 -0.8130 -0.1814
  938MOL0     C26520   9.124   9.689   9.809  0.1825  0.1182 -0.6453
  938MOL0     C26521   9.147   9.622   9.931  0.6544  0.2250  0.7088
  938MOL0     C26522   9.176   9.687  10.050  0.0425 -0.0824  0.5164
  938MOL0     C26523   9.206   9.598  10.166 -0.2337 -0.3502  0.6419
  938MOL0     C26524   9.195   9.823  10.041 -0.4381 -0.1049 -0.3080
  938MOL0     C26525   9.240   9.904  10.161 -0.3769  0.1147 -0.4154
  938MOL0     O26526   9.263  10.035  10.148 -0.2724  0.4293  0.0679
  938MOL0     C26527   9.277  10.112  10.258 -1.2077  0.1266 -0.0709
  938MOL0     C26528   9.192  10.226  10.272 -0.3589  0.1597  0.3186
  938MOL0     C26529   9.209  10.311  10.390 -0.0670 -0.4846  1.0184
  938MOL0     C26530   9.297  10.287  10.491 -0.4515  0.1768  0.2888
  938MOL0     O26531   9.305  10.363  10.604 -0.1602  0.6617  0.1742
  938MOL0     C26532   9.231  10.486  10.606 -0.1409  0.1696  0.7453
  938MOL0     C26533   9.249  10.543  10.750 -0.0494  0.7855  0.5535
  938MOL0     C26534   9.186  10.467  10.860 -0.3886 -0.4710 -0.4369
  938MOL0     C26535   9.175  10.544  10.995 -0.5891 -0.7386  0.2189
  938MOL0     C26536   9.313  10.565  11.059 -1.3230  0.5785 -0.9066
  938MOL0     C26537   9.300  10.623  11.207  0.2234  0.2095 -0.1652
  938MOL0     C26538   9.425  10.607  11.296 -0.0832 -0.6896  1.2097
  938MOL0     C26539   9.404  10.687  11.423 -0.5679 -0.4922  0.6081
  938MOL0    Cl26540   9.316  10.603  11.559  0.2194  0.6583  0.3619
  938MOL0     C26541   9.385  10.184  10.473 -0.0506  0.2975  0.1400
  938MOL0     C26542   9.379  10.097  10.358  0.2087 -0.5142  0.6954
  938MOL0     O26543   9.264   9.845  10.270 -0.2818  0.0717 -0.2237
  938MOL0     C26544   9.162   9.894   9.924 -0.3733 -0.4938  0.1311
  938MOL0     C26545   9.133   9.829   9.809 -0.0772  0.7279 -0.2798
  938MOL0     N26546   8.690   9.349   9.526  0.7198 -0.6351  0.2469
  938MOL0     N26547   8.642   9.237   9.493  1.2119  0.0100  0.7721
  938MOL0     C26548   8.265   8.238   8.912  0.2980 -1.2281 -0.1972
  938MOL0     C26549   8.181   8.168   8.827  0.3971 -0.3366 -0.3973
  938MOL0     C26550   8.121   7.884   8.455  0.4208 -0.9736 -0.5692
  938MOL0     C26551   7.999   7.941   8.434  0.6535  0.5394 -0.5547
  938MOL0     C26552   7.907   7.902   8.331  0.2969  0.4009  0.6982
  938MOL0     C26553   7.952   7.807   8.243 -0.1566 -0.0641 -0.3160
  938MOL0     O26554   7.858   7.782   8.146 -0.3127  0.7137 -0.4241
  938MOL0     C26555   7.890   7.693   8.039 -0.0564 -1.3668  0.5402
  938MOL0     C26556   7.991   7.778   7.949 -0.1271 -0.0827  0.2984
  938MOL0     C26557   7.972   7.723   7.803 -0.7673 -0.9866 -0.3522
  938MOL0     C26558   8.080   7.780   7.708 -0.4124  1.0515 -0.0340
  938MOL0     C26559   8.213   7.723   7.736 -0.3620  0.0723 -0.4708
  938MOL0     C26560   8.321   7.663   7.738 -0.7032 -1.4186 -0.4235
  938MOL0     C26561   8.079   7.752   8.262  0.2975  0.6076  0.7684
  938MOL0     C26562   8.161   7.788   8.368  0.6594  0.5158  1.2335
  938MOL0     H26563   8.387   7.901   8.786  1.0130  0.1395 -0.1275
  938MOL0     H26564   8.536   8.057   8.929 -0.7031 -0.6792 -0.3437
  938MOL0     H26565   8.566   8.405   8.934 -0.0842  1.3040 -0.0304
  938MOL0     H26566   8.411   8.463   9.014  2.4155  3.1132 -1.6493
  938MOL0     H26567   8.528   8.451   9.231 -0.5681  0.0595 -1.3139
  938MOL0     H26568   8.672   8.375   9.146 -0.7688 -2.6651  0.0050
  938MOL0     H26569   8.654   8.609   9.003  0.3387  0.8288  0.5880
  938MOL0     H26570   8.520   8.637   9.112 -0.6475  0.4232 -0.5382
  938MOL0     H26571   8.659   8.603   9.311  0.1694  1.7178  0.4875
  938MOL0     H26572   8.801   8.560   9.215 -1.5195 -2.9136  2.6173
  938MOL0     H26573   8.772   8.784   9.108 -2.1531 -4.1427 -1.5780
  938MOL0     H26574   8.640   8.819   9.224 -0.0048 -0.0072 -0.5994
  938MOL0     H26575   8.777   8.801   9.419 -2.4019  1.7641 -0.8834
  938MOL0     H26576   8.924   8.779   9.328 -0.7763 -3.4635  0.5077
  938MOL0     H26577   8.892   9.018   9.387 -2.8561  0.0840  0.5705
  938MOL0     H26578   8.866   9.008   9.208  0.1319 -2.3325 -0.7833
  938MOL0     H26579   8.631   8.983   9.395 -1.2108  1.6059  1.5363
  938MOL0     H26580   8.640   9.059   9.237 -2.2760 -0.5253  0.8064
  938MOL0     H26581   8.867   9.282   9.265 -1.5429  0.1969 -1.0054
  938MOL0     H26582   8.874   9.555   9.352  1.7592 -3.1216 -1.7330
  938MOL0     H26583   8.835   9.572   9.522 -4.0878 -1.6773 -0.1647
  938MOL0     H26584   9.035   9.378   9.413  0.6076 -2.0536  1.9950
  938MOL0     H26585   9.028   9.434   9.575  1.6358  1.6038 -0.5207
  938MOL0     H26586   9.081   9.637   9.355 -1.7520 -1.8000 -0.6681
  938MOL0     H26587   9.214   9.555   9.440 -0.4437  0.3461  0.0350
  938MOL0     H26588   9.017   9.754   9.538  0.4984  1.5895  1.8735
  938MOL0     H26589   9.196   9.751   9.570  1.0350 -2.1695 -1.1698
  938MOL0     H26590   9.148   9.515   9.912  0.0072  0.1705  0.9738
  938MOL0     H26591   9.150   9.631  10.254 -3.9152  2.7397 -2.4616
  938MOL0     H26592   9.165   9.498  10.144  2.9183 -2.3070  2.8614
  938MOL0     H26593   9.313   9.580  10.179  0.0117  1.3947  1.2079
  938MOL0     H26594   9.116  10.250  10.198 -1.0675 -2.7588 -0.0166
  938MOL0     H26595   9.129  10.383  10.404 -0.8042 -1.3577  1.4147
  938MOL0     H26596   9.276  10.553  10.532  1.6703 -2.0547 -0.2959
  938MOL0     H26597   9.124  10.468  10.594  0.2347 -1.0057 -1.1481
  938MOL0     H26598   9.357  10.542  10.770  0.4310  1.1169 -1.7265
  938MOL0     H26599   9.222  10.648  10.760 -2.2140  0.1111  2.6785
  938MOL0     H26600   9.241  10.374  10.867 -0.5333 -0.5957 -0.8923
  938MOL0     H26601   9.080  10.448  10.838 -1.1169  0.8908  1.5428
  938MOL0     H26602   9.143  10.648  10.990 -0.7873 -0.6457  2.3753
  938MOL0     H26603   9.114  10.483  11.062 -0.1949 -1.1089  0.2417
  938MOL0     H26604   9.381  10.628  11.001 -1.1288  1.8635  0.6529
  938MOL0     H26605   9.372  10.474  11.074 -3.0223 -0.4168 -0.0373
  938MOL0     H26606   9.269  10.728  11.212  0.3544  0.2011  1.2754
  938MOL0     H26607   9.223  10.566  11.261  1.6734 -1.6252  0.0613
  938MOL0     H26608   9.510  10.655  11.246 -0.3212  2.4636  3.5016
  938MOL0     H26609   9.434  10.503  11.327 -0.6287 -0.3770  2.4761
  938MOL0     H26610   9.366  10.787  11.402 -2.0537 -1.5615 -2.3965
  938MOL0     H26611   9.509  10.693  11.455  0.7786 -3.1442 -2.6326
  938MOL0     H26612   9.448  10.172  10.561  1.9683  1.4998 -1.0648
  938MOL0     H26613   9.443  10.010  10.345 -1.5181 -1.5676 -1.3076
  938MOL0     H26614   9.176  10.000   9.904 -0.8827 -0.5270 -0.4383
  938MOL0     H26615   9.123   9.896   9.724  3.6021  3.8741  1.4626
  938MOL0     H26616   8.243   8.333   8.959  1.0557 -1.4506  0.6294
  938MOL0     H26617   8.085   8.211   8.801  0.4122  0.0761  0.1985
  938MOL0     H26618   7.968   8.022   8.500  0.2089  1.2631 -1.6130
  938MOL0     H26619   7.811   7.954   8.325 -0.9461 -1.9545 -2.1665
  938MOL0     H26620   7.928   7.593   8.061 -0.2117 -1.5122  0.1628
  938MOL0     H26621   7.797   7.686   7.981  0.0488  1.9700 -0.2157
  938MOL0     H26622   8.095   7.774   7.982  0.4903  3.2151 -0.8691
  938MOL0     H26623   7.962   7.883   7.942  0.4748 -0.0082 -1.6553
  938MOL0     H26624   7.876   7.761   7.769 -0.3568 -2.6075 -3.7643
  938MOL0     H26625   7.982   7.614   7.800  1.1008 -0.9006  1.1514
  938MOL0     H26626   8.075   7.889   7.719  0.5644  1.2591 -1.4151
  938MOL0     H26627   8.052   7.755   7.606  0.6487 -2.0113  0.3325
  938MOL0     H26628   8.415   7.612   7.743 -0.2454 -0.6766 -1.0274
  938MOL0     H26629   8.113   7.683   8.185  1.1634  0.2389  1.4553
  938MOL0     H26630   8.257   7.737   8.379  0.9939 -0.2413 -3.1938
  939MOL0     O26631   8.278   3.184   6.695 -1.4931 -0.7560  0.1160
  939MOL0     C26632   8.249   3.186   6.813  0.8863 -0.0995 -0.3860
  939MOL0     O26633   8.288   3.283   6.900 -0.4840  0.0130  0.0855
  939MOL0     C26634   8.367   3.382   6.843 -0.7225  0.6042 -0.5217
  939MOL0     C26635   8.499   3.363   6.798 -0.0691  0.4159  0.2708
  939MOL0     C26636   8.583   3.466   6.743  0.6695 -0.4154 -0.1409
  939MOL0     C26637   8.534   3.600   6.755 -0.2825  0.2274 -1.1047
  939MOL0     O26638   8.611   3.714   6.728 -0.0602  0.2552  0.0172
  939MOL0     C26639   8.755   3.691   6.710  0.8906 -0.0189  0.0958
  939MOL0     C26640   8.795   3.673   6.562 -0.2533  0.0508  0.7695
  939MOL0     C26641   8.930   3.747   6.543  0.3285  0.6631 -0.1682
  939MOL0     C26642   8.913   3.896   6.520  0.2631 -0.5552 -0.5954
  939MOL0     C26643   9.041   3.963   6.475  0.4025 -0.5336 -0.2495
  939MOL0     C26644   9.024   4.116   6.459  0.1907 -0.2698  0.4490
  939MOL0     C26645   9.147   4.180   6.404  0.0640  0.2771 -0.1127
  939MOL0     C26646   9.177   4.128   6.258 -0.4164 -0.7439 -0.3251
  939MOL0     N26647   9.272   4.205   6.177 -0.2612 -0.4644  0.1330
  939MOL0     C26648   9.388   4.149   6.130  0.2988 -0.2225 -0.0493
  939MOL0     C26649   9.449   4.242   6.060  0.1130  0.1833  0.0451
  939MOL0     C26650   9.583   4.204   5.990 -0.6719 -1.0669 -1.2151
  939MOL0     C26651   9.578   4.207   5.829 -0.4508  0.3922  0.0555
  939MOL0     C26652   9.483   4.092   5.785  0.1295 -0.5455  0.1707
  939MOL0     C26653   9.456   4.094   5.646  0.1646 -0.8303  0.1164
  939MOL0     O26654   9.350   4.191   5.613 -0.2380 -0.0444 -0.7352
  939MOL0     C26655   9.315   4.197   5.482  0.6293 -0.5849  0.5688
  939MOL0     C26656   9.244   4.304   5.438 -0.6987  0.1305 -0.2500
  939MOL0     C26657   9.206   4.318   5.301  0.0143  0.4823 -0.1454
  939MOL0     C26658   9.094   4.411   5.273  0.3543  1.1377 -0.0405
  939MOL0     C26659   9.273   4.243   5.197  0.1690  1.1233  0.3771
  939MOL0     C26660   9.266   4.258   5.044 -0.0768 -0.4503 -0.8869
  939MOL0     O26661   9.199   4.374   5.012 -0.0021  0.3548  0.2948
  939MOL0     C26662   9.168   4.403   4.881 -0.0570  0.3474  0.9162
  939MOL0     C26663   9.045   4.467   4.868  0.2022 -0.4170 -0.3307
  939MOL0     C26664   9.004   4.519   4.749 -0.0685  1.2640  0.3755
  939MOL0     C26665   9.093   4.511   4.635  0.5532 -0.6360  0.1422
  939MOL0     O26666   9.045   4.582   4.526  0.0592 -0.5716  0.1203
  939MOL0     C26667   9.094   4.539   4.399 -0.4816 -0.1533  0.4870
  939MOL0     C26668   8.993   4.593   4.300  0.6594 -0.6232 -0.0920
  939MOL0     C26669   9.003   4.745   4.291 -0.9447 -0.6723  0.4269
  939MOL0     C26670   8.916   4.805   4.173  0.2240  0.1726  0.1425
  939MOL0     C26671   8.975   4.761   4.035  0.0106 -0.7352 -0.0938
  939MOL0     C26672   8.936   4.841   3.913  0.6335 -0.1135 -0.1409
  939MOL0     C26673   8.994   4.774   3.790  0.0388  0.4517 -0.1583
  939MOL0     C26674   8.958   4.863   3.663 -0.2775 -0.5422  0.2704
  939MOL0    Cl26675   9.019   4.798   3.509  0.2374  0.2290  0.0701
  939MOL0     C26676   9.212   4.450   4.648  0.1549  0.3768 -0.3281
  939MOL0     C26677   9.256   4.397   4.771  0.2918 -0.6989  1.3493
  939MOL0     O26678   9.302   4.168   4.973 -0.3355  1.1078 -0.0298
  939MOL0     C26679   9.348   4.135   5.255  0.1243  0.0223 -0.7855
  939MOL0     C26680   9.369   4.118   5.386  0.3404  0.3034 -0.3495
  939MOL0     N26681   9.363   4.349   6.044 -0.7800 -0.1033  0.0053
  939MOL0     N26682   9.257   4.325   6.105 -0.5622 -0.0717 -0.1582
  939MOL0     C26683   8.408   3.625   6.812  0.5674  0.5716 -0.8975
  939MOL0     C26684   8.323   3.515   6.847 -0.5480  0.4261  0.6250
  939MOL0     C26685   8.185   3.056   6.870 -0.5866 -0.7649 -0.2025
  939MOL0     C26686   8.210   3.014   7.004  0.1007 -1.1322 -0.9628
  939MOL0     C26687   8.150   2.904   7.064 -0.6016  0.1862 -0.2004
  939MOL0     C26688   8.095   2.807   6.980  0.6793 -0.7303 -0.2141
  939MOL0     O26689   8.073   2.686   7.035 -0.4956 -0.3005 -0.2658
  939MOL0     C26690   8.108   2.568   6.957  0.1638 -0.9277  0.0385
  939MOL0     C26691   7.997   2.461   6.964 -0.6815 -0.9928  0.9459
  939MOL0     C26692   8.017   2.352   6.864 -0.6505  0.5218  0.3527
  939MOL0     C26693   7.906   2.249   6.894 -0.6353  0.6817  1.1619
  939MOL0     C26694   7.928   2.155   7.005 -0.4381 -1.0362  0.9447
  939MOL0     C26695   7.943   2.067   7.088 -0.0085 -0.6280  0.4119
  939MOL0     C26696   8.077   2.846   6.846 -0.4869  0.2472 -0.0356
  939MOL0     C26697   8.111   2.974   6.782 -0.1381 -0.5673 -0.3897
  939MOL0     H26698   8.533   3.260   6.796 -2.3579 -0.4608 -3.3885
  939MOL0     H26699   8.681   3.445   6.701 -0.2776  2.0463 -4.2165
  939MOL0     H26700   8.804   3.778   6.754  0.2803  1.4015 -1.8827
  939MOL0     H26701   8.797   3.609   6.770 -0.2994  0.2319  1.3224
  939MOL0     H26702   8.803   3.571   6.524  2.1981 -0.3871  2.2783
  939MOL0     H26703   8.719   3.728   6.504  2.2788  0.5655 -2.3228
  939MOL0     H26704   8.993   3.730   6.631 -1.5327  0.7122  1.2325
  939MOL0     H26705   8.972   3.716   6.447 -1.7555  0.4741 -1.0918
  939MOL0     H26706   8.830   3.927   6.455 -0.5207 -0.8518  0.2400
  939MOL0     H26707   8.878   3.935   6.616  0.3895 -3.5025  0.7653
  939MOL0     H26708   9.129   3.950   6.537  1.6136  0.4007 -1.6793
  939MOL0     H26709   9.054   3.915   6.377 -0.7754  1.0436 -1.2341
  939MOL0     H26710   8.942   4.141   6.391  2.0338  1.5001 -1.2557
  939MOL0     H26711   9.007   4.167   6.554 -1.1075  0.4488 -0.1339
  939MOL0     H26712   9.134   4.288   6.392  1.2152  0.4515  0.1548
  939MOL0     H26713   9.218   4.161   6.484  1.1578 -0.8083 -1.3060
  939MOL0     H26714   9.084   4.134   6.201  0.8742 -0.5608 -2.5461
  939MOL0     H26715   9.222   4.029   6.250  0.7368 -0.1540 -1.5891
  939MOL0     H26716   9.410   4.044   6.151 -0.2723  0.2375  3.3817
  939MOL0     H26717   9.658   4.275   6.026 -0.4700 -0.9043 -1.9256
  939MOL0     H26718   9.614   4.104   6.022 -1.5261 -1.6419 -2.1222
  939MOL0     H26719   9.680   4.191   5.793  0.2437  0.7855  1.7388
  939MOL0     H26720   9.542   4.302   5.787 -2.8014 -0.7159 -0.5899
  939MOL0     H26721   9.382   4.105   5.825 -0.7272  0.4025 -2.1618
  939MOL0     H26722   9.526   3.995   5.813 -0.3631 -0.9936 -0.6148
  939MOL0     H26723   9.430   3.993   5.613 -2.5412 -0.4854  0.9852
  939MOL0     H26724   9.553   4.108   5.595  0.9075 -1.4007  1.3307
  939MOL0     H26725   9.203   4.374   5.510 -1.0570 -0.4087  0.0719
  939MOL0     H26726   9.137   4.503   5.231  0.2142 -0.7788 -5.1294
  939MOL0     H26727   9.034   4.370   5.191  0.2570  1.2783 -0.0413
  939MOL0     H26728   9.020   4.420   5.353  1.2549 -1.4072  1.1562
  939MOL0     H26729   9.001   4.501   4.961  1.5225  2.0769 -0.5233
  939MOL0     H26730   8.910   4.572   4.753 -0.6027  0.2972  1.2224
  939MOL0     H26731   9.185   4.594   4.373 -1.4385  3.2048  3.4185
  939MOL0     H26732   9.117   4.432   4.391 -2.3692 -0.5077 -0.5997
  939MOL0     H26733   9.012   4.543   4.204  0.7346 -0.5306 -0.1249
  939MOL0     H26734   8.894   4.586   4.344  2.4674  0.6313  4.7251
  939MOL0     H26735   9.107   4.765   4.264 -0.9150  1.2579  1.7601
  939MOL0     H26736   8.975   4.791   4.386  0.0804 -0.7722  0.7849
  939MOL0     H26737   8.811   4.777   4.177  0.4853 -0.7400  1.6499
  939MOL0     H26738   8.909   4.915   4.177 -0.1186  0.2031 -1.1173
  939MOL0     H26739   8.945   4.657   4.016 -0.6288 -0.4587 -0.6248
  939MOL0     H26740   9.083   4.767   4.050 -0.4341  0.2487  4.1100
  939MOL0     H26741   8.827   4.840   3.905  0.6621 -3.2410 -1.3780
  939MOL0     H26742   8.973   4.943   3.922  1.2473 -0.4452  1.4533
  939MOL0     H26743   8.947   4.675   3.789  1.5369 -0.2960  0.7739
  939MOL0     H26744   9.103   4.764   3.791  0.1079 -0.1948 -3.2774
  939MOL0     H26745   8.996   4.965   3.667 -2.9275  0.5785 -1.0860
  939MOL0     H26746   8.849   4.867   3.670 -0.6514  5.1364 -3.1871
  939MOL0     H26747   9.292   4.449   4.576  0.5525  2.9431 -0.0392
  939MOL0     H26748   9.358   4.362   4.779  2.0333  3.5503  0.1340
  939MOL0     H26749   9.390   4.056   5.194  1.6986  0.9230 -0.9447
  939MOL0     H26750   9.428   4.029   5.404 -2.6384 -1.2729  2.5931
  939MOL0     H26751   8.371   3.724   6.836 -0.8972  0.6955 -3.3466
  939MOL0     H26752   8.232   3.548   6.897 -1.6766  1.1631 -1.7852
  939MOL0     H26753   8.267   3.086   7.063 -2.8278  3.3476 -3.0423
  939MOL0     H26754   8.172   2.881   7.168  1.8089 -1.0733 -0.9086
  939MOL0     H26755   8.153   2.576   6.858  1.2097  0.1561  0.5711
  939MOL0     H26756   8.186   2.529   7.023 -1.0606  0.6177  2.5837
  939MOL0     H26757   7.900   2.505   6.941 -1.1245 -3.6586 -3.3113
  939MOL0     H26758   7.989   2.433   7.070  0.9694  0.4487  1.5051
  939MOL0     H26759   8.118   2.310   6.870 -0.8726 -0.1148 -0.3022
  939MOL0     H26760   8.007   2.393   6.763  1.9105 -1.6036 -0.8680
  939MOL0     H26761   7.902   2.181   6.809 -1.1555  0.6485  1.2058
  939MOL0     H26762   7.811   2.303   6.905  0.2754  2.7727 -0.5296
  939MOL0     H26763   7.966   1.980   7.146 -1.3751 -2.4854 -1.6848
  939MOL0     H26764   8.020   2.769   6.795 -5.6520  0.7824  4.0419
  939MOL0     H26765   8.085   2.982   6.677 -1.0735 -0.0409 -0.1335
  940MOL0     O26766   7.018   5.039   7.841 -0.3721 -0.3282  0.5386
  940MOL0     C26767   6.960   4.941   7.878  0.0307  0.5208  0.3442
  940MOL0     O26768   6.821   4.906   7.849 -0.5226 -0.3454  0.1240
  940MOL0     C26769   6.756   5.006   7.778  0.0319  0.6745 -0.9213
  940MOL0     C26770   6.784   5.054   7.649 -0.0152 -0.3080 -0.3061
  940MOL0     C26771   6.702   5.148   7.587  0.6380 -0.0583 -0.0205
  940MOL0     C26772   6.578   5.185   7.647 -0.4593  0.4567  0.2399
  940MOL0     O26773   6.505   5.285   7.586  0.2250  0.4381 -0.7731
  940MOL0     C26774   6.373   5.297   7.637 -0.4356 -0.5331 -0.2994
  940MOL0     C26775   6.274   5.195   7.581  0.4590 -0.5334 -0.1408
  940MOL0     C26776   6.288   5.177   7.432  0.6057  1.0097 -1.1844
  940MOL0     C26777   6.207   5.052   7.391  0.3348 -0.1892  0.1146
  940MOL0     C26778   6.241   5.003   7.251 -0.9316  0.1887  0.4989
  940MOL0     C26779   6.220   5.086   7.133  0.1330  0.2606 -0.2621
  940MOL0     C26780   6.085   5.148   7.125  0.5849  0.0905 -0.3767
  940MOL0     C26781   6.047   5.180   6.981 -0.7586 -1.0615 -1.4349
  940MOL0     N26782   5.910   5.221   6.957  0.1075 -0.5048  0.0679
  940MOL0     C26783   5.864   5.344   6.936 -0.1434  0.9838 -0.9176
  940MOL0     C26784   5.734   5.334   6.917  0.3764  0.1813  0.4226
  940MOL0     C26785   5.643   5.443   6.864 -0.4278  0.0089  0.0656
  940MOL0     C26786   5.563   5.504   6.982 -0.6322 -0.0680 -0.0906
  940MOL0     C26787   5.446   5.415   7.024 -0.8302 -0.9433 -0.6295
  940MOL0     C26788   5.326   5.488   7.086 -0.2564  0.4138  0.1156
  940MOL0     O26789   5.258   5.551   6.983 -0.3531  0.0410 -0.4413
  940MOL0     C26790   5.158   5.632   7.026  0.6011  0.0512  0.1912
  940MOL0     C26791   5.106   5.642   7.159 -0.1253 -0.2398  0.2089
  940MOL0     C26792   4.998   5.739   7.189 -0.4547  0.1554  0.3707
  940MOL0     C26793   4.951   5.738   7.331 -0.6670  0.1876 -0.0763
  940MOL0     C26794   4.944   5.827   7.090 -0.5614  1.0477 -0.8503
  940MOL0     C26795   4.831   5.913   7.103 -0.3457 -0.4513 -0.3771
  940MOL0     O26796   4.809   5.991   6.994  0.5249  0.2121  0.1027
  940MOL0     C26797   4.685   6.056   6.998 -0.4243  0.5065 -0.8637
  940MOL0     C26798   4.665   6.190   6.988  0.3509 -0.8406 -0.5401
  940MOL0     C26799   4.543   6.250   6.967  0.6566  0.4269 -0.2240
  940MOL0     C26800   4.425   6.174   6.957  0.4724  0.7479 -0.0127
  940MOL0     O26801   4.312   6.237   6.927  0.1934  0.6762  0.8923
  940MOL0     C26802   4.184   6.198   6.972  0.6743 -0.3368  0.6461
  940MOL0     C26803   4.081   6.288   6.902  0.6056  0.4242  0.8489
  940MOL0     C26804   4.090   6.435   6.953  0.4138 -0.5747 -0.0944
  940MOL0     C26805   4.011   6.531   6.861 -0.5455 -0.4370 -0.5980
  940MOL0     C26806   3.971   6.669   6.927  0.0162 -0.0302  0.6806
  940MOL0     C26807   3.962   6.783   6.829 -0.7706 -0.4016 -0.3952
  940MOL0     C26808   3.898   6.903   6.898  0.3968  0.5111  0.4629
  940MOL0     C26809   3.936   7.028   6.818 -1.1804 -0.6318  0.7297
  940MOL0    Cl26810   3.942   7.003   6.644  0.2779  0.3059  0.0395
  940MOL0     C26811   4.442   6.036   6.967 -0.5032  0.1449  0.0148
  940MOL0     C26812   4.572   5.975   6.984  1.1417  0.0392 -0.5014
  940MOL0     O26813   4.759   5.907   7.205  0.1283 -0.3059 -0.6068
  940MOL0     C26814   5.006   5.815   6.965  0.2258  1.2879  1.1913
  940MOL0     C26815   5.101   5.714   6.926  0.4794 -0.3663 -0.5483
  940MOL0     N26816   5.702   5.202   6.940 -0.2069 -0.4670  0.2238
  940MOL0     N26817   5.809   5.132   6.958  0.3473 -0.1770  0.3537
  940MOL0     C26818   6.544   5.122   7.771 -0.1206  0.5628  0.6876
  940MOL0     C26819   6.632   5.038   7.835  0.3296 -0.4497 -0.2562
  940MOL0     C26820   7.035   4.846   7.956 -0.0078  0.7197 -0.1440
  940MOL0     C26821   6.985   4.731   8.019  0.9142 -0.1836 -0.5750
  940MOL0     C26822   7.062   4.646   8.102 -0.7085  0.2063  0.2369
  940MOL0     C26823   7.202   4.689   8.125 -0.3040 -0.4617  0.8446
  940MOL0     O26824   7.296   4.624   8.191 -0.7139  0.2864 -0.7622
  940MOL0     C26825   7.251   4.524   8.283 -0.1377 -0.9621  0.1649
  940MOL0     C26826   7.239   4.387   8.216 -0.0041  0.3356 -1.1910
  940MOL0     C26827   7.153   4.281   8.294  0.5808 -1.1492 -0.0680
  940MOL0     C26828   7.208   4.261   8.435 -0.0079  0.4284 -1.1692
  940MOL0     C26829   7.351   4.231   8.430 -0.0779  0.0001 -0.8688
  940MOL0     C26830   7.465   4.216   8.437 -1.2533 -0.0310  0.1466
  940MOL0     C26831   7.259   4.791   8.054 -0.3164 -0.6270 -0.1797
  940MOL0     C26832   7.178   4.869   7.977 -0.3838  0.5549  0.1948
  940MOL0     H26833   6.882   5.023   7.615 -1.2559 -2.2915 -2.3523
  940MOL0     H26834   6.731   5.191   7.491  0.1646 -1.9554 -1.0609
  940MOL0     H26835   6.366   5.300   7.746 -2.6292 -1.5279 -0.3749
  940MOL0     H26836   6.343   5.397   7.603  0.6119 -0.4615 -1.0737
  940MOL0     H26837   6.292   5.097   7.625 -0.7923 -0.8473 -0.2796
  940MOL0     H26838   6.180   5.243   7.610  1.5729  2.4296 -0.9953
  940MOL0     H26839   6.246   5.260   7.374 -0.3019 -0.7363 -3.1804
  940MOL0     H26840   6.393   5.154   7.409 -0.0847  0.1334 -3.8548
  940MOL0     H26841   6.223   4.972   7.464 -1.2967 -3.4378 -2.8153
  940MOL0     H26842   6.099   5.066   7.394  0.4149  0.3064  2.4471
  940MOL0     H26843   6.346   4.974   7.245 -1.3890 -1.5362  0.2644
  940MOL0     H26844   6.184   4.911   7.240 -0.7124 -0.1089  1.7037
  940MOL0     H26845   6.284   5.175   7.123 -0.7418  1.0661  1.1022
  940MOL0     H26846   6.242   5.021   7.047  1.4032  0.3648 -0.0468
  940MOL0     H26847   6.008   5.086   7.171 -0.6563  0.5335 -1.7673
  940MOL0     H26848   6.079   5.248   7.170  0.5769  1.2922 -2.8670
  940MOL0     H26849   6.068   5.088   6.926 -0.4733 -1.1027 -1.2573
  940MOL0     H26850   6.118   5.255   6.944  0.5006 -0.6171  1.5624
  940MOL0     H26851   5.931   5.429   6.939  3.2374 -1.4903  2.6533
  940MOL0     H26852   5.707   5.521   6.821 -0.3343  0.0816  0.3367
  940MOL0     H26853   5.582   5.403   6.782  1.7574 -0.2651 -1.5129
  940MOL0     H26854   5.524   5.600   6.949  0.8827  0.1834 -1.2879
  940MOL0     H26855   5.628   5.517   7.069 -0.6642  0.7350 -0.1769
  940MOL0     H26856   5.493   5.350   7.098  1.4535  3.2931  2.0485
  940MOL0     H26857   5.405   5.358   6.940 -0.5790 -2.1699  0.0518
  940MOL0     H26858   5.359   5.562   7.160 -0.5340 -2.2248  3.0817
  940MOL0     H26859   5.271   5.412   7.143  1.3622  0.0257  1.2166
  940MOL0     H26860   5.150   5.587   7.242 -0.9339  2.2403  2.4001
  940MOL0     H26861   5.009   5.679   7.403 -2.2118 -1.2176  0.0802
  940MOL0     H26862   4.951   5.837   7.377  0.8692  0.3243 -0.3133
  940MOL0     H26863   4.851   5.694   7.341  1.3947 -5.0454  0.9405
  940MOL0     H26864   4.756   6.249   6.994 -0.5048  0.6890 -1.6995
  940MOL0     H26865   4.543   6.359   6.971  4.0585  0.5178  0.0098
  940MOL0     H26866   4.149   6.095   6.962 -0.3056  0.0910 -0.8127
  940MOL0     H26867   4.181   6.224   7.078 -1.0687 -1.5803  0.9476
  940MOL0     H26868   4.105   6.288   6.795  0.2666 -1.1246  0.7562
  940MOL0     H26869   3.980   6.250   6.918  0.5280  0.7139  1.0694
  940MOL0     H26870   4.186   6.487   6.947 -1.4076  3.5856  1.9926
  940MOL0     H26871   4.053   6.455   7.054  2.0589  2.0855  0.0905
  940MOL0     H26872   4.069   6.537   6.769  5.4841  1.2180  2.7930
  940MOL0     H26873   3.918   6.478   6.836 -0.0683 -1.7012  0.1769
  940MOL0     H26874   4.048   6.701   6.998 -0.1580  1.0120  0.4119
  940MOL0     H26875   3.878   6.657   6.982  0.8702  0.9055  2.4101
  940MOL0     H26876   4.062   6.824   6.812 -1.4753  2.1936  1.1530
  940MOL0     H26877   3.909   6.755   6.737 -1.9758 -1.1215  0.4758
  940MOL0     H26878   3.954   6.921   6.990  1.3495 -2.7357  0.6204
  940MOL0     H26879   3.791   6.887   6.908  0.3444  1.8000  2.5999
  940MOL0     H26880   4.035   7.065   6.850 -0.5100 -0.4179 -1.4350
  940MOL0     H26881   3.863   7.108   6.835 -1.9726 -1.2079  0.0442
  940MOL0     H26882   4.351   5.977   6.972 -0.4255  0.0569  0.4466
  940MOL0     H26883   4.584   5.868   6.999 -1.3218 -0.2974 -0.5474
  940MOL0     H26884   4.961   5.867   6.881 -1.1503 -0.1835  0.9705
  940MOL0     H26885   5.137   5.712   6.823  1.5289 -0.5670 -0.1881
  940MOL0     H26886   6.459   5.150   7.833 -0.0815  1.6352  0.2856
  940MOL0     H26887   6.597   4.998   7.930 -2.0663  3.8108  0.9310
  940MOL0     H26888   6.881   4.703   8.013  1.0068 -0.7518  0.3501
  940MOL0     H26889   7.027   4.573   8.174  1.9753 -2.1033 -0.6170
  940MOL0     H26890   7.317   4.513   8.370  0.1006 -0.8791 -0.0041
  940MOL0     H26891   7.155   4.554   8.325  0.3078  0.2622  0.3482
  940MOL0     H26892   7.339   4.344   8.204 -0.4028 -0.7707 -0.7186
  940MOL0     H26893   7.197   4.403   8.116 -2.4224 -1.7050 -0.6071
  940MOL0     H26894   7.173   4.186   8.243  1.4196 -0.9454 -0.1373
  940MOL0     H26895   7.045   4.297   8.296  0.9987  2.5065 -0.5848
  940MOL0     H26896   7.165   4.175   8.489  0.4431  1.0139  0.1801
  940MOL0     H26897   7.195   4.351   8.496  0.5276 -1.0187  1.2172
  940MOL0     H26898   7.567   4.184   8.443 -0.3172  1.7296 -3.3637
  940MOL0     H26899   7.363   4.815   8.073 -0.3525 -1.3106  0.9265
  940MOL0     H26900   7.227   4.943   7.914 -2.3570  0.3405 -1.7221
  941MOL0     O26901  11.193   4.071   7.069  1.1363 -0.5258  0.7807
  941MOL0     C26902  11.200   3.959   7.023 -0.0997 -0.6111 -0.7963
  941MOL0     O26903  11.155   3.849   7.081  0.2876 -0.3112  0.8601
  941MOL0     C26904  11.106   3.856   7.205 -0.7650 -0.4484 -0.6475
  941MOL0     C26905  10.993   3.940   7.243 -0.6299 -0.1535 -0.0862
  941MOL0     C26906  10.949   3.949   7.371 -0.2667 -0.8477 -0.2423
  941MOL0     C26907  11.011   3.876   7.479  0.6149  0.2431  0.3403
  941MOL0     O26908  10.972   3.870   7.608  0.2542  0.6647 -0.3513
  941MOL0     C26909  10.872   3.960   7.656 -0.4866 -0.7958  0.0899
  941MOL0     C26910  10.924   4.109   7.678  0.9397  0.9452 -0.8388
  941MOL0     C26911  10.815   4.198   7.734 -0.0126 -0.2428 -0.1018
  941MOL0     C26912  10.761   4.150   7.868 -0.1088  0.1222 -1.2049
  941MOL0     C26913  10.638   4.240   7.897 -1.3411 -0.4763 -0.2615
  941MOL0     C26914  10.593   4.227   8.040  1.0201 -0.1170  0.8202
  941MOL0     C26915  10.560   4.082   8.078 -0.2536  0.6702  1.0283
  941MOL0     C26916  10.508   4.078   8.215  0.2836  1.2086 -0.4044
  941MOL0     N26917  10.480   3.937   8.240  0.2301 -0.6615 -0.0636
  941MOL0     C26918  10.568   3.839   8.282 -0.5238 -0.0361 -0.1693
  941MOL0     C26919  10.499   3.733   8.323  0.6675 -0.1205 -1.1608
  941MOL0     C26920  10.559   3.606   8.387  1.0356  0.2713  0.7198
  941MOL0     C26921  10.630   3.533   8.278 -0.4496  0.0547  0.5937
  941MOL0     C26922  10.544   3.503   8.157  0.3599 -0.2385 -0.5536
  941MOL0     C26923  10.597   3.397   8.070 -0.6093 -0.1541 -0.6095
  941MOL0     O26924  10.493   3.357   7.973  0.4674  0.9297  0.0825
  941MOL0     C26925  10.520   3.269   7.872 -1.5064 -0.0865  0.2915
  941MOL0     C26926  10.647   3.222   7.857  0.7984  0.2089  0.5687
  941MOL0     C26927  10.674   3.121   7.767  0.0009 -0.0234 -0.4370
  941MOL0     C26928  10.826   3.075   7.770  0.9214 -0.5360 -0.4825
  941MOL0     C26929  10.575   3.074   7.680 -0.4134 -0.1089  0.0602
  941MOL0     C26930  10.593   2.968   7.571 -0.1133 -0.6970  0.6999
  941MOL0     O26931  10.474   2.906   7.526 -0.5502 -0.2323 -0.3626
  941MOL0     C26932  10.489   2.804   7.427  0.3052 -0.4694 -0.4975
  941MOL0     C26933  10.393   2.796   7.317  0.2270  0.7226 -0.4218
  941MOL0     C26934  10.414   2.694   7.224 -0.0732  1.4843 -0.6500
  941MOL0     C26935  10.522   2.601   7.235  0.3912  0.0074  0.2136
  941MOL0     O26936  10.565   2.519   7.132  0.4647  0.1991  0.2579
  941MOL0     C26937  10.521   2.535   7.003 -0.0749 -0.7932 -0.2308
  941MOL0     C26938  10.562   2.416   6.914 -0.1587 -0.5124  0.6352
  941MOL0     C26939  10.565   2.446   6.759 -0.4694 -0.2732 -0.7563
  941MOL0     C26940  10.598   2.313   6.681 -0.2864 -0.2888 -1.3638
  941MOL0     C26941  10.556   2.338   6.542  0.3556 -0.1219  0.8197
  941MOL0     C26942  10.649   2.429   6.463  0.3533  0.4116  0.5353
  941MOL0     C26943  10.592   2.435   6.315 -0.4520 -0.7983  0.1268
  941MOL0     C26944  10.676   2.506   6.218 -0.0396 -0.3346 -0.2033
  941MOL0    Cl26945  10.627   2.440   6.058 -0.2310 -0.4072  0.1564
  941MOL0     C26946  10.599   2.605   7.347 -0.4997 -0.4236 -0.2211
  941MOL0     C26947  10.595   2.707   7.438  0.5895 -0.3758 -0.5205
  941MOL0     O26948  10.704   2.966   7.514  0.7003  0.0727 -0.3844
  941MOL0     C26949  10.441   3.126   7.709  0.8117  1.3041  0.1413
  941MOL0     C26950  10.414   3.219   7.798 -0.3325  0.6895  0.5822
  941MOL0     N26951  10.375   3.758   8.281 -1.0846 -0.0406 -0.4299
  941MOL0     N26952  10.351   3.876   8.233 -0.7484 -0.1468 -0.7146
  941MOL0     C26953  11.120   3.796   7.439 -0.4362  0.6092 -1.0335
  941MOL0     C26954  11.171   3.790   7.311 -0.0251 -0.4395 -0.0820
  941MOL0     C26955  11.257   3.939   6.885 -0.1621  1.1115  0.1199
  941MOL0     C26956  11.311   4.051   6.821  0.4115  0.3730  0.4994
  941MOL0     C26957  11.352   4.038   6.690 -0.1580 -1.0748  0.2663
  941MOL0     C26958  11.345   3.916   6.624  0.6631 -0.0082  0.4239
  941MOL0     O26959  11.389   3.872   6.504  0.3056 -0.3278  0.1633
  941MOL0     C26960  11.398   3.979   6.403 -0.7713 -0.0072  0.8407
  941MOL0     C26961  11.408   3.942   6.257 -0.9011 -0.0805 -0.9747
  941MOL0     C26962  11.407   3.796   6.223  0.0354 -0.7563 -0.4542
  941MOL0     C26963  11.458   3.768   6.075 -0.4140 -1.3929 -0.2647
  941MOL0     C26964  11.455   3.628   6.041  0.2510  0.9100  0.1376
  941MOL0     C26965  11.423   3.510   6.017 -0.3300  0.0368 -0.4700
  941MOL0     C26966  11.295   3.815   6.697  0.3820 -0.4735 -0.3236
  941MOL0     C26967  11.258   3.817   6.827 -0.1991  0.0436 -0.5915
  941MOL0     H26968  10.949   3.995   7.161  3.0300 -1.2779 -3.1068
  941MOL0     H26969  10.874   4.027   7.385  0.4449  0.2920 -2.3532
  941MOL0     H26970  10.784   3.963   7.591 -0.2712 -1.7456 -0.2658
  941MOL0     H26971  10.843   3.908   7.748  0.2943 -1.6064 -0.1059
  941MOL0     H26972  11.013   4.113   7.742 -1.4165  0.0252  2.7896
  941MOL0     H26973  10.943   4.153   7.580 -0.0571  0.1654 -1.3904
  941MOL0     H26974  10.861   4.297   7.735  1.4363 -0.8881 -0.2489
  941MOL0     H26975  10.727   4.194   7.670  0.5958  0.4859 -1.0066
  941MOL0     H26976  10.721   4.049   7.854  3.6206 -1.3697 -2.5060
  941MOL0     H26977  10.831   4.151   7.952 -1.1383  1.7070 -0.3267
  941MOL0     H26978  10.669   4.342   7.877 -1.7163 -0.0052  1.3639
  941MOL0     H26979  10.560   4.218   7.823 -1.6024  1.0679 -0.4617
  941MOL0     H26980  10.678   4.253   8.104  1.4016 -2.7997  1.5374
  941MOL0     H26981  10.512   4.298   8.055 -0.6109 -1.4579 -1.0233
  941MOL0     H26982  10.483   4.038   8.014 -0.3542  1.7763  0.3499
  941MOL0     H26983  10.657   4.032   8.076  0.1924  1.3696  2.7420
  941MOL0     H26984  10.414   4.135   8.218  0.8293  2.1557 -0.8361
  941MOL0     H26985  10.580   4.120   8.287 -1.1122  2.2119  0.4629
  941MOL0     H26986  10.676   3.847   8.284 -0.5313  0.0570 -0.1440
  941MOL0     H26987  10.620   3.629   8.474  2.1774 -3.1165  0.9614
  941MOL0     H26988  10.474   3.545   8.419  0.5824  1.3456  1.6326
  941MOL0     H26989  10.657   3.439   8.327 -0.1848 -1.7816 -2.7257
  941MOL0     H26990  10.723   3.587   8.257 -0.1411  0.8456  3.5893
  941MOL0     H26991  10.518   3.592   8.100  4.2486  1.3657 -0.1212
  941MOL0     H26992  10.451   3.458   8.192  0.4536 -0.2755 -0.3483
  941MOL0     H26993  10.624   3.310   8.130 -0.0655 -0.1308 -0.8113
  941MOL0     H26994  10.690   3.426   8.020  3.1279 -1.8877  4.4128
  941MOL0     H26995  10.733   3.248   7.918  1.5627  2.0727 -1.1414
  941MOL0     H26996  10.880   3.064   7.864  3.7726 -1.5369 -2.0880
  941MOL0     H26997  10.833   2.976   7.725  0.5665  0.0322 -1.8483
  941MOL0     H26998  10.895   3.138   7.712  1.2591 -0.3643  0.0993
  941MOL0     H26999  10.320   2.875   7.310  1.4319  1.9212  0.0376
  941MOL0     H27000  10.363   2.702   7.128  4.3942 -1.6198 -3.6825
  941MOL0     H27001  10.413   2.543   6.990 -0.1505  0.0672  0.8077
  941MOL0     H27002  10.579   2.619   6.964 -1.4447 -0.8067 -2.4635
  941MOL0     H27003  10.661   2.379   6.942  0.2408 -0.8138 -1.0467
  941MOL0     H27004  10.485   2.338   6.923  0.0194 -1.2628 -2.9345
  941MOL0     H27005  10.639   2.524   6.741 -1.2124  0.6671  0.1232
  941MOL0     H27006  10.470   2.486   6.722 -0.6102  0.2721  0.1476
  941MOL0     H27007  10.700   2.273   6.681 -0.4388 -0.7862  0.6273
  941MOL0     H27008  10.542   2.232   6.728  0.3602 -0.8372 -1.5111
  941MOL0     H27009  10.455   2.382   6.541 -0.1815 -1.2676 -1.0831
  941MOL0     H27010  10.536   2.250   6.480 -1.5865  1.2590 -0.6660
  941MOL0     H27011  10.645   2.529   6.508 -0.3052  0.3493  0.6269
  941MOL0     H27012  10.746   2.379   6.454 -0.0275 -0.0697 -1.5285
  941MOL0     H27013  10.494   2.484   6.317  0.2384  0.7349 -1.0627
  941MOL0     H27014  10.570   2.333   6.283 -2.5908  0.0798 -1.4497
  941MOL0     H27015  10.780   2.479   6.239 -0.8185 -0.2359  5.2868
  941MOL0     H27016  10.659   2.613   6.236  2.0619 -0.2834  1.9551
  941MOL0     H27017  10.675   2.528   7.355 -1.0200 -0.9419 -0.1799
  941MOL0     H27018  10.661   2.702   7.524  0.9014  1.9968 -0.5593
  941MOL0     H27019  10.363   3.084   7.647  0.5529  2.4778 -0.3504
  941MOL0     H27020  10.310   3.240   7.822 -1.2021 -2.4409 -0.0828
  941MOL0     H27021  11.172   3.733   7.511  4.6883  0.5580 -4.2491
  941MOL0     H27022  11.247   3.717   7.283 -1.7888 -1.7658 -1.6910
  941MOL0     H27023  11.323   4.142   6.878  4.1954 -1.0304  2.2579
  941MOL0     H27024  11.392   4.122   6.633 -0.5290 -1.2756 -0.2881
  941MOL0     H27025  11.308   4.041   6.416 -0.3019  0.5222  1.6603
  941MOL0     H27026  11.479   4.048   6.429 -0.4642  0.6606 -1.6434
  941MOL0     H27027  11.489   3.995   6.207 -0.6230 -0.3320 -0.7897
  941MOL0     H27028  11.317   3.988   6.216 -0.9555  1.5412  0.8613
  941MOL0     H27029  11.305   3.761   6.238 -1.0752  0.8436 -3.4955
  941MOL0     H27030  11.464   3.735   6.295 -2.9912  0.5275  3.3945
  941MOL0     H27031  11.561   3.805   6.074 -0.4740 -1.1732  0.8992
  941MOL0     H27032  11.396   3.836   6.017 -1.1621 -1.7424  0.1179
  941MOL0     H27033  11.421   3.413   5.972 -1.1585 -0.6278  0.9233
  941MOL0     H27034  11.278   3.713   6.666 -3.3764 -0.6150  1.5505
  941MOL0     H27035  11.226   3.728   6.881  1.7420  1.1553  2.6940
  942MOL0     O27036   5.249   2.807   7.397 -0.3125 -0.3070  0.3554
  942MOL0     C27037   5.351   2.850   7.443 -0.2311  0.9286 -0.8190
  942MOL0     O27038   5.453   2.771   7.505  0.0725  0.5775 -0.2856
  942MOL0     C27039   5.420   2.643   7.547 -0.6689  0.5819  0.0920
  942MOL0     C27040   5.396   2.623   7.685  0.7745  0.6271  0.4592
  942MOL0     C27041   5.376   2.490   7.732  0.4724  0.5592 -0.3189
  942MOL0     C27042   5.402   2.380   7.655  0.2045 -0.2174  0.6711
  942MOL0     O27043   5.377   2.249   7.687 -0.2740  0.3539  0.0488
  942MOL0     C27044   5.402   2.215   7.825 -0.4656 -0.9640  0.8112
  942MOL0     C27045   5.423   2.065   7.846  0.8517  0.9924 -0.1327
  942MOL0     C27046   5.472   2.048   7.993  0.8181 -0.4598  0.1957
  942MOL0     C27047   5.451   1.912   8.058 -0.3934 -0.3099 -0.0256
  942MOL0     C27048   5.502   1.800   7.969  0.2565  0.4839 -0.2686
  942MOL0     C27049   5.520   1.671   8.048 -0.1180  0.4289  0.9666
  942MOL0     C27050   5.385   1.616   8.083 -0.2100  0.2363 -0.3712
  942MOL0     C27051   5.403   1.465   8.129 -0.6341 -0.6833 -0.5539
  942MOL0     N27052   5.439   1.384   8.011  0.1152 -0.4791 -0.1337
  942MOL0     C27053   5.369   1.381   7.890 -0.3205  0.1930 -0.3629
  942MOL0     C27054   5.441   1.288   7.818 -0.6210  0.7500  0.5838
  942MOL0     C27055   5.391   1.239   7.677  0.2079 -0.3264 -0.2615
  942MOL0     C27056   5.433   1.343   7.578  0.0150  0.1789  0.2148
  942MOL0     C27057   5.448   1.274   7.441  0.0368 -0.1905 -0.2463
  942MOL0     C27058   5.498   1.364   7.320 -0.7621 -0.0357 -0.3540
  942MOL0     O27059   5.606   1.310   7.247  0.5315  0.7131  0.1059
  942MOL0     C27060   5.573   1.192   7.177 -0.3804  0.0866  1.2611
  942MOL0     C27061   5.677   1.099   7.141 -0.7160 -0.8554  1.1020
  942MOL0     C27062   5.648   0.956   7.107 -1.3172  0.4624 -0.6610
  942MOL0     C27063   5.768   0.858   7.117  0.4198 -0.2615 -0.0039
  942MOL0     C27064   5.516   0.925   7.070 -0.2918  0.5069 -0.0487
  942MOL0     C27065   5.474   0.791   7.019 -0.4489  0.7077  0.1589
  942MOL0     O27066   5.573   0.716   6.973 -0.1635 -0.4400  0.5108
  942MOL0     C27067   5.564   0.641   6.856 -0.1807  0.5147 -0.2395
  942MOL0     C27068   5.481   0.672   6.745 -0.3583  0.1456  0.4570
  942MOL0     C27069   5.481   0.587   6.627  0.8393  0.1888  0.2441
  942MOL0     C27070   5.558   0.474   6.627 -1.0680  0.5468 -0.7617
  942MOL0     O27071   5.556   0.395   6.517  0.9385 -0.6862 -0.1788
  942MOL0     C27072   5.683   0.342   6.472  0.6417 -0.2936 -0.3799
  942MOL0     C27073   5.743   0.451   6.374  0.4845 -0.2091 -0.3505
  942MOL0     C27074   5.639   0.511   6.283  0.0501  1.0575 -0.5662
  942MOL0     C27075   5.654   0.661   6.270 -0.7127  0.0638 -0.6192
  942MOL0     C27076   5.787   0.707   6.203 -0.2313  0.0105  0.2103
  942MOL0     C27077   5.798   0.693   6.054  0.3301 -0.4833 -0.7625
  942MOL0     C27078   5.705   0.788   5.966 -0.0831  0.2441  0.6699
  942MOL0     C27079   5.768   0.814   5.830  0.2941  0.0008  0.2017
  942MOL0    Cl27080   5.907   0.923   5.865 -0.1710  0.1557  0.3376
  942MOL0     C27081   5.633   0.446   6.741  0.2994  0.7723  0.4217
  942MOL0     C27082   5.638   0.527   6.852  0.2512 -0.5299  0.0493
  942MOL0     O27083   5.357   0.762   7.015 -0.2262  0.0742 -0.2324
  942MOL0     C27084   5.422   1.024   7.089  1.1767  0.4954 -0.2575
  942MOL0     C27085   5.444   1.149   7.145 -0.1171  0.8242 -0.4414
  942MOL0     N27086   5.544   1.245   7.895 -0.7876  0.5473  0.9746
  942MOL0     N27087   5.550   1.303   8.006  0.1327 -0.3299 -0.4034
  942MOL0     C27088   5.438   2.405   7.523 -0.8932 -0.0690  0.7468
  942MOL0     C27089   5.448   2.538   7.465  0.5218  0.2971 -0.1615
  942MOL0     C27090   5.372   2.989   7.424 -0.7416 -0.3114  0.4528
  942MOL0     C27091   5.277   3.073   7.369  0.7250 -0.2677  0.3619
  942MOL0     C27092   5.313   3.209   7.352  0.3631 -0.3773 -0.5930
  942MOL0     C27093   5.440   3.262   7.384  0.0492 -0.2275  1.0489
  942MOL0     O27094   5.474   3.394   7.343  0.0331 -0.0660 -0.3786
  942MOL0     C27095   5.375   3.491   7.294 -0.6516  0.5282 -0.6456
  942MOL0     C27096   5.447   3.613   7.224  0.2120  0.1868 -0.3317
  942MOL0     C27097   5.346   3.721   7.191  0.4108  0.3062  0.1956
  942MOL0     C27098   5.412   3.839   7.094 -0.0393  0.1907  0.0006
  942MOL0     C27099   5.352   3.975   7.110  0.1688  0.9338 -0.0136
  942MOL0     C27100   5.311   4.093   7.118 -0.4945 -0.0166  1.3014
  942MOL0     C27101   5.536   3.176   7.426 -0.8677  0.2101  0.1761
  942MOL0     C27102   5.503   3.038   7.446  0.2533 -0.2383 -0.5490
  942MOL0     H27103   5.391   2.706   7.755  3.8922  1.0731  0.3176
  942MOL0     H27104   5.340   2.480   7.834 -0.9901 -1.2159 -0.9603
  942MOL0     H27105   5.491   2.276   7.845 -1.1318  0.2704  0.1155
  942MOL0     H27106   5.321   2.253   7.887  1.8019  2.6853  1.8850
  942MOL0     H27107   5.331   2.009   7.827  0.7812  2.0000 -3.3590
  942MOL0     H27108   5.501   2.024   7.780 -1.2948 -2.2003 -0.8798
  942MOL0     H27109   5.571   2.092   8.006 -0.5771  2.6450  1.2244
  942MOL0     H27110   5.417   2.120   8.055  0.5730  0.3297 -0.8974
  942MOL0     H27111   5.510   1.909   8.151  3.7182  2.0494 -2.2604
  942MOL0     H27112   5.343   1.911   8.071 -0.7808 -3.5990 -2.4162
  942MOL0     H27113   5.427   1.776   7.894  1.6353 -0.8207 -1.2804
  942MOL0     H27114   5.596   1.822   7.916  0.7479 -2.5417 -0.8326
  942MOL0     H27115   5.560   1.596   7.980  0.3192 -0.3594  2.0667
  942MOL0     H27116   5.591   1.673   8.132 -1.8482 -2.2473  2.6494
  942MOL0     H27117   5.347   1.684   8.159 -3.0296 -1.7633  0.1644
  942MOL0     H27118   5.323   1.625   7.993  0.5890  1.8221 -0.8047
  942MOL0     H27119   5.308   1.431   8.171  1.3342 -2.9469  2.4067
  942MOL0     H27120   5.472   1.451   8.213 -1.0678 -2.8006 -0.5058
  942MOL0     H27121   5.286   1.445   7.860 -0.1668 -0.6330 -2.7488
  942MOL0     H27122   5.437   1.141   7.664  3.6143  1.1705 -0.6360
  942MOL0     H27123   5.282   1.225   7.682  0.2091 -0.6468 -1.0313
  942MOL0     H27124   5.524   1.395   7.609  0.2903  1.3212 -2.2434
  942MOL0     H27125   5.351   1.415   7.575 -0.8882 -0.8590 -0.6860
  942MOL0     H27126   5.344   1.251   7.420 -0.1616  0.7465 -0.3206
  942MOL0     H27127   5.511   1.185   7.450 -1.7798 -1.3854  1.4414
  942MOL0     H27128   5.525   1.463   7.358 -1.7692 -0.2520  1.0148
  942MOL0     H27129   5.421   1.383   7.245  0.8548  1.0554 -1.8391
  942MOL0     H27130   5.778   1.137   7.142 -0.5846 -0.8433 -2.3137
  942MOL0     H27131   5.818   0.835   7.022 -1.1958 -1.8648 -0.5265
  942MOL0     H27132   5.836   0.897   7.193 -0.9043  3.7674 -0.6807
  942MOL0     H27133   5.738   0.758   7.150  3.2504 -1.3740 -0.4701
  942MOL0     H27134   5.411   0.754   6.749 -1.6865 -1.0037  1.9525
  942MOL0     H27135   5.412   0.610   6.546  0.9209 -0.4750 -0.0224
  942MOL0     H27136   5.749   0.308   6.552  0.5676  0.4931  0.0243
  942MOL0     H27137   5.660   0.252   6.415 -1.5781 -0.2541  0.3482
  942MOL0     H27138   5.790   0.525   6.439 -2.9460  0.0858  2.0624
  942MOL0     H27139   5.823   0.403   6.316 -0.8909 -2.5696 -0.4191
  942MOL0     H27140   5.535   0.497   6.315  0.6847 -2.2515  0.4985
  942MOL0     H27141   5.645   0.464   6.184 -3.5280 -3.7702  1.0838
  942MOL0     H27142   5.576   0.694   6.201  0.9097 -1.3910 -3.2919
  942MOL0     H27143   5.636   0.711   6.366 -0.9022 -0.8535 -0.1604
  942MOL0     H27144   5.873   0.653   6.242  1.2726  0.3817 -2.3769
  942MOL0     H27145   5.791   0.812   6.232 -3.0919  0.4471 -0.5904
  942MOL0     H27146   5.901   0.719   6.030  0.4626 -0.4337 -0.1517
  942MOL0     H27147   5.777   0.589   6.027 -0.1334 -1.0778  1.6026
  942MOL0     H27148   5.709   0.886   6.015  0.5014 -0.5587  2.3230
  942MOL0     H27149   5.604   0.747   5.967  1.1069 -3.1562 -1.4073
  942MOL0     H27150   5.696   0.875   5.775  1.1480  2.5724  1.7697
  942MOL0     H27151   5.799   0.716   5.792 -2.3151 -0.9142  0.2652
  942MOL0     H27152   5.696   0.359   6.747  2.2486  2.1133  0.2759
  942MOL0     H27153   5.704   0.496   6.932 -0.0454  1.4399  1.1231
  942MOL0     H27154   5.319   1.004   7.063  0.5367  2.6564  0.4249
  942MOL0     H27155   5.360   1.213   7.169  0.5369  0.8397  1.9830
  942MOL0     H27156   5.481   2.321   7.469  0.0589  1.2798 -0.6735
  942MOL0     H27157   5.499   2.550   7.370  1.2943 -4.4348 -0.6209
  942MOL0     H27158   5.176   3.036   7.349  0.9937 -1.6211  1.3302
  942MOL0     H27159   5.229   3.276   7.335  0.2970  0.3995  2.2399
  942MOL0     H27160   5.294   3.452   7.231  0.5299 -0.4264 -1.6222
  942MOL0     H27161   5.322   3.526   7.383 -2.0622  1.3417 -1.7559
  942MOL0     H27162   5.483   3.571   7.130 -2.6174 -1.0813 -0.9282
  942MOL0     H27163   5.533   3.649   7.282  2.8260 -0.2860 -3.5683
  942MOL0     H27164   5.276   3.752   7.269 -0.4683 -1.8187  0.3235
  942MOL0     H27165   5.285   3.658   7.127  2.1173 -0.8843 -0.3292
  942MOL0     H27166   5.417   3.813   6.987 -1.7543  2.1000 -0.6146
  942MOL0     H27167   5.517   3.861   7.112  0.3313 -1.1486 -0.4199
  942MOL0     H27168   5.268   4.190   7.120  0.5930  0.4824  1.3987
  942MOL0     H27169   5.639   3.202   7.450 -2.0590  2.6419  3.3236
  942MOL0     H27170   5.583   2.988   7.499  0.2861  0.2297 -0.1449
  943MOL0     O27171   0.047   3.841  10.978  0.1369  0.5220 -0.1098
  943MOL0     C27172   0.086   3.914  10.883  0.6539  0.5755 -0.3047
  943MOL0     O27173   0.018   4.034  10.836 -0.2433  1.2746  0.0471
  943MOL0     C27174  -0.093   4.089  10.893  0.2671  0.0180  0.2635
  943MOL0     C27175  -0.173   4.168  10.813 -0.7111 -0.1695 -0.0391
  943MOL0     C27176  -0.289   4.232  10.855  0.8200 -0.5261 -1.6113
  943MOL0     C27177  -0.331   4.206  10.989 -0.0822  1.0536 -0.5026
  943MOL0     O27178  -0.430   4.289  11.034  0.1409 -0.2072 -0.8466
  943MOL0     C27179  -0.510   4.230  11.138  0.8880  0.0928  0.1961
  943MOL0     C27180  -0.633   4.309  11.165  0.5453 -0.3599  0.5360
  943MOL0     C27181  -0.617   4.413  11.276 -0.0918 -0.1171 -0.2707
  943MOL0     C27182  -0.517   4.526  11.231  0.0692 -0.4349 -0.1060
  943MOL0     C27183  -0.520   4.661  11.316 -0.0878  0.2526  0.5754
  943MOL0     C27184  -0.440   4.630  11.443  0.0811  0.5828 -0.1907
  943MOL0     C27185  -0.446   4.757  11.535  0.8958  0.2623 -0.2746
  943MOL0     C27186  -0.386   4.717  11.672 -0.3743  0.0347  0.5090
  943MOL0     N27187  -0.355   4.834  11.754 -0.8740 -0.7728 -0.4912
  943MOL0     C27188  -0.237   4.910  11.745 -0.1483  0.0469 -0.1847
  943MOL0     C27189  -0.266   5.021  11.821  0.3273  0.6474 -0.1665
  943MOL0     C27190  -0.182   5.144  11.836 -0.1690 -0.4664  0.1644
  943MOL0     C27191  -0.217   5.245  11.949  0.0205  0.4973  0.5715
  943MOL0     C27192  -0.115   5.365  11.939  0.3505  0.4928  0.3044
  943MOL0     C27193  -0.100   5.445  12.075  0.3846 -0.2775 -0.3563
  943MOL0     O27194  -0.229   5.482  12.136 -0.5465  0.6157  0.1056
  943MOL0     C27195  -0.231   5.552  12.256  0.4649 -0.9783 -0.1143
  943MOL0     C27196  -0.354   5.539  12.321 -0.0140 -0.4260  0.3633
  943MOL0     C27197  -0.380   5.595  12.447  0.3708  0.0271 -0.4300
  943MOL0     C27198  -0.521   5.576  12.509  0.1285 -0.4624 -0.0422
  943MOL0     C27199  -0.273   5.657  12.518 -0.3212 -0.3631  0.5929
  943MOL0     C27200  -0.289   5.726  12.648  0.2432 -0.5286  0.8892
  943MOL0     O27201  -0.165   5.767  12.696  0.0808  0.2836 -0.1530
  943MOL0     C27202  -0.159   5.845  12.811  0.2199 -0.0638  0.3556
  943MOL0     C27203  -0.041   5.836  12.879  0.5955  0.1314  0.1887
  943MOL0     C27204  -0.030   5.902  12.996 -0.3058  1.0573 -0.6089
  943MOL0     C27205  -0.118   5.984  13.053 -0.3499  1.3080 -1.3103
  943MOL0     O27206  -0.092   6.045  13.180  0.0241 -0.1071  0.2812
  943MOL0     C27207  -0.211   6.027  13.264 -0.4064  0.2538 -0.4918
  943MOL0     C27208  -0.164   6.073  13.414  0.1305  0.7098 -0.1464
  943MOL0     C27209  -0.153   6.223  13.428  0.5014 -0.3554  0.2047
  943MOL0     C27210  -0.296   6.282  13.414  0.9366 -0.0095  0.2866
  943MOL0     C27211  -0.283   6.427  13.473 -0.7950  0.1859  0.5324
  943MOL0     C27212  -0.412   6.502  13.455 -0.0481 -0.2522  0.7984
  943MOL0     C27213  -0.407   6.630  13.546  0.0714  0.1834 -0.3220
  943MOL0     C27214  -0.545   6.691  13.537 -0.2364  0.1779  0.9339
  943MOL0    Cl27215  -0.553   6.828  13.651 -0.0795 -0.1701  0.1644
  943MOL0     C27216  -0.230   6.010  12.976  0.2991  0.8601  0.4208
  943MOL0     C27217  -0.261   5.932  12.865  0.4568  0.1033 -0.5798
  943MOL0     O27218  -0.394   5.735  12.704 -0.1683 -0.4967 -1.0870
  943MOL0     C27219  -0.146   5.669  12.454 -0.1217 -0.4249  0.2399
  943MOL0     C27220  -0.124   5.604  12.328 -0.3328 -0.0354 -0.8831
  943MOL0     N27221  -0.390   5.013  11.876 -0.4579  0.6811 -0.0643
  943MOL0     N27222  -0.437   4.900  11.841  0.6459  0.6399  0.7059
  943MOL0     C27223  -0.254   4.117  11.073 -0.2089 -0.1134  0.6294
  943MOL0     C27224  -0.137   4.056  11.022 -0.8203 -0.1488 -0.0558
  943MOL0     C27225   0.204   3.868  10.811 -0.0546 -0.2330 -0.0465
  943MOL0     C27226   0.274   3.757  10.866 -1.4385  0.5610  0.0445
  943MOL0     C27227   0.396   3.715  10.806  1.2353  1.4306 -0.4955
  943MOL0     C27228   0.443   3.765  10.693 -0.9588  0.0804  0.0205
  943MOL0     O27229   0.560   3.718  10.642 -0.0112  0.5133 -0.4038
  943MOL0     C27230   0.565   3.632  10.530 -0.2163 -0.7184  0.4596
  943MOL0     C27231   0.717   3.599  10.503 -0.1956  0.8825 -0.0391
  943MOL0     C27232   0.725   3.466  10.426 -0.7213  0.7263  0.0237
  943MOL0     C27233   0.859   3.433  10.358 -0.2717  0.5800  0.8340
  943MOL0     C27234   0.853   3.297  10.299 -0.8931 -1.1392  1.3076
  943MOL0     C27235   0.858   3.177  10.268  1.1422 -0.0977  0.8621
  943MOL0     C27236   0.373   3.874  10.633 -0.8656 -0.7152  0.5248
  943MOL0     C27237   0.256   3.928  10.689  0.1559 -0.5167 -0.0698
  943MOL0     H27238  -0.159   4.178  10.706 -0.9903  1.5432  0.0543
  943MOL0     H27239  -0.355   4.294  10.795  2.5752  0.5761 -2.4772
  943MOL0     H27240  -0.549   4.135  11.099  1.8328  0.4036 -1.6634
  943MOL0     H27241  -0.452   4.223  11.231 -0.7112 -1.2277  1.1474
  943MOL0     H27242  -0.667   4.369  11.080  0.4195  0.7925  1.3709
  943MOL0     H27243  -0.713   4.240  11.195  0.3934 -0.0824  0.7774
  943MOL0     H27244  -0.718   4.443  11.307 -0.9899 -4.0983  1.3096
  943MOL0     H27245  -0.563   4.369  11.361  2.4697 -2.2986 -2.8592
  943MOL0     H27246  -0.412   4.498  11.228  0.7780  1.4198  2.8370
  943MOL0     H27247  -0.556   4.547  11.131 -1.3615 -0.4202  0.4307
  943MOL0     H27248  -0.473   4.748  11.269 -0.5396  0.4068  0.4020
  943MOL0     H27249  -0.627   4.668  11.338 -1.2339 -5.5905 -1.5312
  943MOL0     H27250  -0.480   4.537  11.485 -0.8238  0.9408 -0.2498
  943MOL0     H27251  -0.337   4.607  11.414  0.6852  0.9603  1.5155
  943MOL0     H27252  -0.393   4.842  11.492  0.4771  0.8915  0.4210
  943MOL0     H27253  -0.550   4.788  11.548  0.8686 -0.4773  1.6507
  943MOL0     H27254  -0.301   4.649  11.668 -1.7013 -1.7015  0.7423
  943MOL0     H27255  -0.466   4.657  11.716 -0.8153  0.6187  0.5176
  943MOL0     H27256  -0.145   4.896  11.689 -0.2773  0.9121 -0.6421
  943MOL0     H27257  -0.080   5.107  11.848 -0.9381 -3.4984 -1.4830
  943MOL0     H27258  -0.196   5.196  11.741 -0.0285  0.7579  0.8051
  943MOL0     H27259  -0.207   5.184  12.040 -0.7091  2.1526  1.8067
  943MOL0     H27260  -0.317   5.284  11.931  0.5143  2.0510  1.0555
  943MOL0     H27261  -0.133   5.440  11.862  1.8176  1.9890  1.3435
  943MOL0     H27262  -0.021   5.313  11.921  0.2958 -0.1905  1.8725
  943MOL0     H27263  -0.035   5.530  12.052  0.3689 -0.0982  0.2587
  943MOL0     H27264  -0.042   5.393  12.152  0.3667  2.2414  1.4791
  943MOL0     H27265  -0.429   5.476  12.276 -0.2285 -0.3859  0.6575
  943MOL0     H27266  -0.579   5.506  12.449 -1.0402  1.8848 -1.8467
  943MOL0     H27267  -0.510   5.532  12.608 -2.6422 -0.2863  0.4250
  943MOL0     H27268  -0.581   5.668  12.497 -2.3720 -2.0185 -0.2728
  943MOL0     H27269   0.032   5.767  12.836  0.1001 -0.2256 -0.0888
  943MOL0     H27270   0.065   5.902  13.048 -0.0456  0.5691 -1.0762
  943MOL0     H27271  -0.304   6.079  13.243 -0.2605  1.2256  1.0543
  943MOL0     H27272  -0.231   5.920  13.257  1.1928 -0.2619  1.6344
  943MOL0     H27273  -0.236   6.047  13.492  1.4024  2.4102  1.6577
  943MOL0     H27274  -0.069   6.025  13.439  0.6957  2.2705  0.8402
  943MOL0     H27275  -0.094   6.262  13.345 -1.6068 -1.4304 -1.9198
  943MOL0     H27276  -0.111   6.246  13.526  0.5818 -0.9367  0.3080
  943MOL0     H27277  -0.323   6.297  13.309 -0.7010  3.1743  1.0339
  943MOL0     H27278  -0.365   6.225  13.475 -0.3886 -0.1476 -1.2722
  943MOL0     H27279  -0.199   6.462  13.413 -1.8410 -2.9194 -3.2159
  943MOL0     H27280  -0.265   6.434  13.581 -0.8059 -2.4492  0.7685
  943MOL0     H27281  -0.443   6.516  13.351 -1.2803  0.7967  1.2789
  943MOL0     H27282  -0.492   6.438  13.492 -1.2419  1.7810  1.9629
  943MOL0     H27283  -0.321   6.690  13.515  2.4002 -2.0028  1.4316
  943MOL0     H27284  -0.395   6.593  13.649  2.8567 -1.2995 -1.0526
  943MOL0     H27285  -0.616   6.613  13.566  0.4505  0.1309  2.5831
  943MOL0     H27286  -0.577   6.709  13.434  0.3638  1.7368  0.9879
  943MOL0     H27287  -0.302   6.081  13.013  2.1115  3.0962 -0.1208
  943MOL0     H27288  -0.360   5.949  12.824  0.3954 -1.1924 -1.0140
  943MOL0     H27289  -0.069   5.733  12.498 -1.7290  1.3364  0.6361
  943MOL0     H27290  -0.024   5.619  12.288  0.2605 -0.3344  0.4364
  943MOL0     H27291  -0.283   4.092  11.175  0.4197 -1.4955  0.4822
  943MOL0     H27292  -0.088   3.987  11.090  2.1639  0.2659 -1.6232
  943MOL0     H27293   0.230   3.704  10.950 -2.5742  2.5241  0.7780
  943MOL0     H27294   0.434   3.629  10.859 -1.4349  1.5793  1.9311
  943MOL0     H27295   0.527   3.532  10.549  1.0375 -1.2438  0.3130
  943MOL0     H27296   0.520   3.677  10.441  1.1746 -1.7617 -0.8211
  943MOL0     H27297   0.782   3.581  10.589  1.1048 -0.4079 -1.2466
  943MOL0     H27298   0.765   3.687  10.460 -0.2224  3.1573  4.0548
  943MOL0     H27299   0.650   3.460  10.347 -0.0627 -5.0597 -0.5416
  943MOL0     H27300   0.705   3.387  10.498 -2.1843  0.6615 -0.4139
  943MOL0     H27301   0.947   3.438  10.424 -1.5392  0.8807  2.5762
  943MOL0     H27302   0.880   3.499  10.274  4.4199 -0.7509  0.6786
  943MOL0     H27303   0.873   3.088  10.210  1.6136 -1.1318  2.5205
  943MOL0     H27304   0.411   3.901  10.535 -2.9575 -0.9682 -0.4180
  943MOL0     H27305   0.204   4.005  10.634 -0.4111 -0.9059 -0.0932
  944MOL0     O27306   4.310  11.008   4.405  0.2735  0.2629 -0.2633
  944MOL0     C27307   4.278  11.090   4.486  0.3555 -0.6362 -0.7383
  944MOL0     O27308   4.198  11.070   4.591  0.6963  0.3886  0.0130
  944MOL0     C27309   4.118  10.955   4.595 -0.6876 -0.5316 -0.1754
  944MOL0     C27310   4.144  10.878   4.710 -0.2328  0.8715  0.2320
  944MOL0     C27311   4.084  10.751   4.737  0.5033 -0.7412  0.0724
  944MOL0     C27312   3.985  10.711   4.643  0.0423  0.7247 -1.0931
  944MOL0     O27313   3.924  10.589   4.671 -0.2103 -0.3897  0.5542
  944MOL0     C27314   3.819  10.559   4.572 -0.5800 -0.2878 -0.5072
  944MOL0     C27315   3.737  10.440   4.600 -0.3422 -0.5914  0.2348
  944MOL0     C27316   3.623  10.423   4.507 -0.3946 -0.2264 -0.3490
  944MOL0     C27317   3.674  10.385   4.378 -0.9837  0.7540 -0.7693
  944MOL0     C27318   3.570  10.342   4.283  0.1888 -1.0629  0.4889
  944MOL0     C27319   3.507  10.212   4.307  0.2543  0.2206 -0.8674
  944MOL0     C27320   3.379  10.197   4.232  0.3707 -0.2989  0.6363
  944MOL0     C27321   3.329  10.054   4.243  1.0516  0.3268  0.9557
  944MOL0     N27322   3.208  10.036   4.162  0.4982  0.2872 -0.1548
  944MOL0     C27323   3.184   9.919   4.095  0.2183  0.8101  0.9423
  944MOL0     C27324   3.076   9.947   4.012  0.2388 -0.2961  0.3857
  944MOL0     C27325   3.049   9.864   3.893 -0.0026  0.1475  0.5140
  944MOL0     C27326   2.933   9.770   3.908  0.4481  0.1690  0.0770
  944MOL0     C27327   2.782   9.824   3.918 -0.5077 -0.5334  0.3162
  944MOL0     C27328   2.706   9.811   3.791 -0.0611 -0.3005  0.5297
  944MOL0     O27329   2.810   9.851   3.692  0.2045 -0.5617 -0.5196
  944MOL0     C27330   2.764   9.853   3.560  0.1020 -0.4666 -0.3880
  944MOL0     C27331   2.635   9.823   3.519 -0.0532 -0.6638 -0.2857
  944MOL0     C27332   2.600   9.824   3.385 -0.2646 -0.6360  1.1773
  944MOL0     C27333   2.461   9.775   3.349  0.3346  0.3759 -0.0725
  944MOL0     C27334   2.706   9.856   3.287 -0.5918 -0.2047 -1.4902
  944MOL0     C27335   2.672   9.877   3.153 -0.5939 -0.2968 -0.0819
  944MOL0     O27336   2.558   9.951   3.130  0.0403  0.7087 -0.0311
  944MOL0     C27337   2.535   9.971   2.994 -0.3378  0.1842 -0.4227
  944MOL0     C27338   2.415   9.927   2.936  0.4251 -0.4170  0.0949
  944MOL0     C27339   2.381   9.951   2.807 -0.1585  0.0124 -0.7471
  944MOL0     C27340   2.464  10.019   2.722  0.2515 -0.7775 -0.6664
  944MOL0     O27341   2.441  10.054   2.597  0.1285 -0.5967  0.5748
  944MOL0     C27342   2.425   9.947   2.511 -0.6135 -0.4927  0.4729
  944MOL0     C27343   2.382  10.011   2.378 -0.2470 -0.0515  0.5955
  944MOL0     C27344   2.479  10.119   2.327 -0.3160 -0.4988  0.0433
  944MOL0     C27345   2.432  10.198   2.216  0.5118 -0.4824  0.3757
  944MOL0     C27346   2.533  10.295   2.164 -0.7641 -0.1106  0.5831
  944MOL0     C27347   2.469  10.409   2.084  0.4608  1.0376  0.1000
  944MOL0     C27348   2.543  10.541   2.075 -0.2130  0.2226  0.1157
  944MOL0     C27349   2.472  10.640   1.992 -0.4657 -0.1266 -0.5330
  944MOL0    Cl27350   2.489  10.593   1.821 -0.1893 -0.0590 -0.0160
  944MOL0     C27351   2.578  10.073   2.784  0.8545  0.4775  0.5801
  944MOL0     C27352   2.624  10.035   2.913  0.3101  0.2066 -0.1226
  944MOL0     O27353   2.751   9.835   3.069 -0.1196  0.2310  0.4941
  944MOL0     C27354   2.841   9.879   3.337  0.3857 -0.7338 -0.4456
  944MOL0     C27355   2.867   9.883   3.474 -0.4056  0.6252  1.1571
  944MOL0     N27356   3.027  10.070   4.046 -0.3048  0.1193  0.2245
  944MOL0     N27357   3.107  10.125   4.125 -0.0560  0.3841 -0.1514
  944MOL0     C27358   3.954  10.797   4.527 -0.0480  1.3168 -0.3870
  944MOL0     C27359   4.015  10.914   4.507 -0.4593 -0.7368 -0.4737
  944MOL0     C27360   4.369  11.218   4.491  0.5823  0.8851  1.2050
  944MOL0     C27361   4.473  11.235   4.397  1.2034  0.9588  0.4867
  944MOL0     C27362   4.553  11.351   4.391 -0.0554  0.6788  0.9740
  944MOL0     C27363   4.540  11.454   4.481 -0.5183 -0.2249 -0.4766
  944MOL0     O27364   4.613  11.565   4.476 -0.0909 -1.5214  0.0624
  944MOL0     C27365   4.721  11.588   4.378 -0.0811 -0.1424  0.0724
  944MOL0     C27366   4.797  11.710   4.408  0.6754 -0.1654 -1.3078
  944MOL0     C27367   4.900  11.744   4.298 -0.6048 -0.1365 -0.8392
  944MOL0     C27368   4.828  11.810   4.180  0.0706 -0.0023 -0.5023
  944MOL0     C27369   4.938  11.864   4.091  0.4237  0.4175  0.6468
  944MOL0     C27370   5.020  11.919   4.021  0.5452 -0.0968  0.9573
  944MOL0     C27371   4.437  11.435   4.575  0.2933 -0.3614 -1.0784
  944MOL0     C27372   4.355  11.322   4.585  0.6798 -0.2571  1.1994
  944MOL0     H27373   4.227  10.918   4.766  1.0327  1.5860 -2.0103
  944MOL0     H27374   4.106  10.691   4.824  0.9736 -1.1867 -0.3500
  944MOL0     H27375   3.749  10.641   4.589 -2.3949 -2.0147  0.7650
  944MOL0     H27376   3.860  10.552   4.470 -1.6337  2.4891 -1.1833
  944MOL0     H27377   3.804  10.354   4.596 -1.1758 -1.2285 -0.6039
  944MOL0     H27378   3.698  10.443   4.702 -3.4986 -0.0550 -0.8558
  944MOL0     H27379   3.563  10.339   4.544  1.0817 -0.8205  0.7646
  944MOL0     H27380   3.568  10.517   4.501 -3.1005 -1.6622  0.2757
  944MOL0     H27381   3.739  10.457   4.328  1.4639 -2.8775 -3.2701
  944MOL0     H27382   3.740  10.298   4.382 -0.3351  1.2309 -0.9808
  944MOL0     H27383   3.496  10.422   4.285 -0.4453 -1.6363  0.1193
  944MOL0     H27384   3.612  10.334   4.183 -1.5501 -1.0522 -0.2712
  944MOL0     H27385   3.585  10.139   4.282  3.4409  2.8981  0.6560
  944MOL0     H27386   3.483  10.192   4.412 -1.5732  1.4828 -0.9872
  944MOL0     H27387   3.305  10.274   4.254  1.5255  2.0866 -2.8323
  944MOL0     H27388   3.396  10.214   4.125 -1.3824  2.5839  0.7079
  944MOL0     H27389   3.301  10.039   4.347  2.3091  0.8180  1.3806
  944MOL0     H27390   3.405   9.981   4.214 -1.9845 -2.1057 -1.7113
  944MOL0     H27391   3.242   9.827   4.091 -2.2639 -0.8769 -3.3543
  944MOL0     H27392   3.037   9.948   3.825  0.1514  0.9447  1.4399
  944MOL0     H27393   3.140   9.819   3.854 -0.7525 -0.0203 -1.1118
  944MOL0     H27394   2.955   9.713   3.999 -0.5659  0.0963  0.2942
  944MOL0     H27395   2.933   9.704   3.821 -0.6671  1.2075 -0.7476
  944MOL0     H27396   2.767   9.926   3.955 -1.2898 -1.5032  2.9124
  944MOL0     H27397   2.728   9.753   3.981  0.3815 -2.0696 -0.5927
  944MOL0     H27398   2.624   9.883   3.793  1.8265  2.0409 -1.2874
  944MOL0     H27399   2.675   9.706   3.788  1.8235 -0.9607  1.9466
  944MOL0     H27400   2.560   9.814   3.597  1.3907  0.7913  1.3599
  944MOL0     H27401   2.392   9.778   3.434  0.6774  0.8219  0.1930
  944MOL0     H27402   2.420   9.832   3.265  1.1286 -0.0749 -0.7766
  944MOL0     H27403   2.468   9.672   3.314 -0.0001  0.4534 -0.3802
  944MOL0     H27404   2.326   9.887   2.985 -1.0277 -1.1415 -2.8886
  944MOL0     H27405   2.284   9.922   2.768 -1.9654  0.1120  3.2355
  944MOL0     H27406   2.523   9.901   2.495  1.4858  3.2986  1.4082
  944MOL0     H27407   2.350   9.875   2.545 -1.4158  0.1799  0.1542
  944MOL0     H27408   2.372   9.930   2.306 -3.3504  1.4772 -0.8625
  944MOL0     H27409   2.281  10.048   2.393 -0.0813  0.2502  1.0059
  944MOL0     H27410   2.573  10.078   2.289 -1.2763 -2.2853 -0.5021
  944MOL0     H27411   2.507  10.193   2.403  1.8993  1.5017 -2.5174
  944MOL0     H27412   2.400  10.143   2.127  0.4994  0.2253 -0.0601
  944MOL0     H27413   2.340  10.250   2.242  1.2535  0.9792  0.1515
  944MOL0     H27414   2.618  10.258   2.106  1.7596  2.5025  2.3262
  944MOL0     H27415   2.572  10.345   2.254 -2.9148 -1.2462  2.2550
  944MOL0     H27416   2.434  10.381   1.985  1.8032 -1.5830  0.2810
  944MOL0     H27417   2.387  10.440   2.149  1.3434  2.5387  0.5664
  944MOL0     H27418   2.649  10.527   2.049 -0.3326  0.2170 -0.3729
  944MOL0     H27419   2.540  10.592   2.172  0.4326 -2.6356  1.7650
  944MOL0     H27420   2.510  10.742   2.006 -3.1522  1.0428 -1.0890
  944MOL0     H27421   2.364  10.634   2.008 -1.0123  0.7779 -3.3208
  944MOL0     H27422   2.635  10.143   2.724  2.5668 -2.2159 -1.1710
  944MOL0     H27423   2.706  10.088   2.961 -1.4718  2.7815  0.2427
  944MOL0     H27424   2.904   9.886   3.249 -0.1007 -0.3138 -0.7712
  944MOL0     H27425   2.966   9.903   3.515 -1.4754  0.4109  4.1127
  944MOL0     H27426   3.878  10.764   4.456  0.3775 -0.8047  0.0692
  944MOL0     H27427   3.982  10.974   4.423 -1.9861 -0.5442  0.2408
  944MOL0     H27428   4.495  11.163   4.319  0.9852  0.7259  0.6382
  944MOL0     H27429   4.614  11.371   4.303 -2.2446  2.1238 -0.2856
  944MOL0     H27430   4.786  11.500   4.378  0.3100  0.1162  1.5301
  944MOL0     H27431   4.683  11.594   4.276 -1.4838  2.5562  0.6559
  944MOL0     H27432   4.849  11.698   4.503 -1.9560  1.5353  0.4936
  944MOL0     H27433   4.731  11.798   4.412  3.1568  1.8432 -2.1108
  944MOL0     H27434   4.957  11.655   4.273 -0.2646 -0.5960  1.3913
  944MOL0     H27435   4.968  11.816   4.345 -1.4621  0.5772 -0.6317
  944MOL0     H27436   4.767  11.896   4.209  1.5648  1.2942 -1.0108
  944MOL0     H27437   4.778  11.728   4.129  2.7220 -1.9948 -0.0782
  944MOL0     H27438   5.100  11.962   3.963 -2.1867  2.5399 -1.1875
  944MOL0     H27439   4.409  11.515   4.643  0.9794  2.7118 -4.1140
  944MOL0     H27440   4.281  11.321   4.664 -0.4883  0.3824  0.1486
  945MOL0     O27441  10.694  10.102   2.357 -0.1324  0.3828 -1.5355
  945MOL0     C27442  10.702  10.165   2.251 -0.1534 -0.4343 -0.4036
  945MOL0     O27443  10.761  10.290   2.236  0.3250 -0.4274 -0.3061
  945MOL0     C27444  10.797  10.365   2.345  0.1533 -0.1877  0.0102
  945MOL0     C27445  10.692  10.393   2.436 -0.1787  0.6293 -0.2190
  945MOL0     C27446  10.721  10.489   2.537 -0.4353 -0.7926 -0.1554
  945MOL0     C27447  10.853  10.539   2.556  0.1581 -0.0600  1.4897
  945MOL0     O27448  10.894  10.596   2.671  0.0001 -1.0046  0.4521
  945MOL0     C27449  10.971  10.712   2.655 -0.4887 -0.0857 -0.1593
  945MOL0     C27450  10.960  10.776   2.790 -0.7078  0.2381 -0.4461
  945MOL0     C27451  11.005  10.926   2.799  0.4636  0.1002  0.7723
  945MOL0     C27452  10.913  11.007   2.708  0.5460  0.1602  0.6250
  945MOL0     C27453  10.973  11.146   2.680 -1.4138  0.7566 -1.0390
  945MOL0     C27454  10.981  11.228   2.812 -0.4693 -0.5333 -0.1736
  945MOL0     C27455  11.043  11.372   2.800  1.0240 -0.0093  0.0851
  945MOL0     C27456  11.194  11.377   2.833  0.2969 -0.6525 -0.6858
  945MOL0     N27457  11.282  11.306   2.740  0.1960  0.2660 -0.1336
  945MOL0     C27458  11.345  11.188   2.763  0.0248 -0.9440 -0.1420
  945MOL0     C27459  11.419  11.161   2.654  0.7504  0.4590  0.5631
  945MOL0     C27460  11.503  11.042   2.630 -0.2892  0.7103 -0.5816
  945MOL0     C27461  11.461  10.977   2.499 -0.8904  1.0639  0.4053
  945MOL0     C27462  11.510  10.833   2.486 -0.4352 -0.9033  0.8885
  945MOL0     C27463  11.459  10.760   2.361 -0.2883  0.2208  0.7398
  945MOL0     O27464  11.321  10.779   2.346  0.5694 -0.3200  0.3254
  945MOL0     C27465  11.262  10.744   2.226  0.1550  0.3888 -0.4555
  945MOL0     C27466  11.132  10.784   2.212 -0.4001 -0.0347  1.0735
  945MOL0     C27467  11.052  10.744   2.106 -0.2754  0.3587 -0.1604
  945MOL0     C27468  10.918  10.810   2.086  0.3040 -0.2587 -0.1148
  945MOL0     C27469  11.104  10.658   2.011 -0.4646  0.7699 -0.5421
  945MOL0     C27470  11.018  10.619   1.899 -0.3460  0.3416 -0.1781
  945MOL0     O27471  11.072  10.603   1.781 -0.0990  0.2000 -0.3638
  945MOL0     C27472  10.999  10.574   1.671  0.0433  0.3885  1.2042
  945MOL0     C27473  11.003  10.441   1.621  0.0209  0.1028  1.1140
  945MOL0     C27474  10.930  10.397   1.514 -0.2132 -0.6018  0.1530
  945MOL0     C27475  10.830  10.487   1.462 -0.1981 -0.1376 -0.3319
  945MOL0     O27476  10.737  10.459   1.355  0.5383 -0.1457  0.1157
  945MOL0     C27477  10.764  10.353   1.262 -0.2747 -0.7114 -0.2866
  945MOL0     C27478  10.890  10.380   1.181  0.3456  0.2441  0.3648
  945MOL0     C27479  10.929  10.271   1.081  0.2033  0.3009 -0.4538
  945MOL0     C27480  11.030  10.336   0.992  0.3582  0.1435  0.4914
  945MOL0     C27481  11.057  10.251   0.861 -0.8939 -0.3545  0.2165
  945MOL0     C27482  10.938  10.265   0.767  0.3738 -0.9527 -0.9369
  945MOL0     C27483  10.970  10.205   0.622  0.5605  0.1781 -0.3807
  945MOL0     C27484  10.963  10.311   0.518 -0.4801  0.6635  0.0779
  945MOL0    Cl27485  11.067  10.448   0.537 -0.0046  0.2536  0.7139
  945MOL0     C27486  10.814  10.616   1.529 -0.0807 -0.5141 -0.1899
  945MOL0     C27487  10.900  10.661   1.627 -0.5802  0.3957  0.1094
  945MOL0     O27488  10.903  10.567   1.933 -1.2991 -0.7773 -0.7036
  945MOL0     C27489  11.234  10.604   2.033  0.0081  0.4421  0.3103
  945MOL0     C27490  11.316  10.650   2.137  0.0631 -0.3624 -0.8226
  945MOL0     N27491  11.396  11.264   2.567 -0.6512  0.0960  0.1537
  945MOL0     N27492  11.323  11.357   2.617  0.4886  0.4949 -0.6708
  945MOL0     C27493  10.947  10.513   2.448  0.1007  0.2195  0.5255
  945MOL0     C27494  10.920  10.437   2.345  0.7318  0.2813 -0.9747
  945MOL0     C27495  10.656  10.088   2.132  0.5846 -0.3716  0.0677
  945MOL0     C27496  10.582   9.969   2.136  0.6604 -0.3567 -0.7500
  945MOL0     C27497  10.555   9.901   2.014  0.4152 -1.0836 -0.4281
  945MOL0     C27498  10.583   9.956   1.890  0.4739  1.0210  0.6634
  945MOL0     O27499  10.552   9.883   1.780  0.0713 -0.5509 -0.2524
  945MOL0     C27500  10.567   9.944   1.647 -0.4877 -0.9249  0.2764
  945MOL0     C27501  10.516   9.836   1.546  1.0574 -0.2338  0.0186
  945MOL0     C27502  10.477   9.903   1.417 -0.0092  0.5851  0.2728
  945MOL0     C27503  10.412   9.803   1.319 -0.5911 -0.1671 -0.5649
  945MOL0     C27504  10.268   9.774   1.360 -0.1799 -0.1686  0.1159
  945MOL0     C27505  10.164   9.741   1.414  0.6249  0.0479  0.7435
  945MOL0     C27506  10.639  10.086   1.888  0.1246  0.6887  0.2042
  945MOL0     C27507  10.685  10.147   2.007 -0.2705  0.3490 -0.2230
  945MOL0     H27508  10.595  10.350   2.413 -1.7599  2.1871  2.8800
  945MOL0     H27509  10.642  10.509   2.608 -0.2157 -2.8217  0.7295
  945MOL0     H27510  11.079  10.692   2.646 -0.4996 -0.2958  0.1455
  945MOL0     H27511  10.931  10.775   2.575 -0.2059  2.7889  1.8188
  945MOL0     H27512  10.858  10.756   2.822  0.7113 -0.4179  4.4383
  945MOL0     H27513  11.017  10.714   2.859 -0.7513  0.4098 -0.2554
  945MOL0     H27514  10.997  10.957   2.904  1.8683  2.6095  0.2273
  945MOL0     H27515  11.111  10.933   2.773  0.5755 -1.1980  0.8290
  945MOL0     H27516  10.894  10.956   2.613  1.1768 -0.2654  0.7232
  945MOL0     H27517  10.816  11.019   2.756  0.8138 -1.3856  1.6059
  945MOL0     H27518  11.076  11.137   2.645 -1.6752 -0.8869 -1.4912
  945MOL0     H27519  10.899  11.190   2.612 -0.9833  1.1456 -1.2634
  945MOL0     H27520  10.883  11.238   2.859 -0.4397  2.4562 -0.5794
  945MOL0     H27521  11.043  11.171   2.882 -0.0636 -0.2329 -0.2830
  945MOL0     H27522  11.030  11.412   2.699  2.1491  1.0926  0.3585
  945MOL0     H27523  11.000  11.446   2.868  0.2506 -1.4844  1.2693
  945MOL0     H27524  11.196  11.340   2.936 -0.4609  1.0420 -0.0315
  945MOL0     H27525  11.225  11.481   2.844 -2.4034  0.0213  1.7583
  945MOL0     H27526  11.350  11.126   2.852 -0.2508 -1.0595 -0.2052
  945MOL0     H27527  11.608  11.072   2.627 -0.2276  0.4039 -2.2204
  945MOL0     H27528  11.475  10.965   2.703 -1.7892  0.1669 -1.6788
  945MOL0     H27529  11.489  11.026   2.406  0.9032 -1.1960 -0.3413
  945MOL0     H27530  11.352  10.982   2.502 -0.8644  1.4704  0.7997
  945MOL0     H27531  11.478  10.781   2.577 -1.6437  3.3776  3.1833
  945MOL0     H27532  11.619  10.843   2.476 -0.6017 -1.3295 -2.6405
  945MOL0     H27533  11.461  10.652   2.381 -3.6391 -0.2196 -0.7007
  945MOL0     H27534  11.524  10.796   2.281  0.0534  0.4662  1.1174
  945MOL0     H27535  11.098  10.853   2.288  1.4113  4.2909 -1.6620
  945MOL0     H27536  10.840  10.741   2.117  1.5559 -1.5245  0.3520
  945MOL0     H27537  10.903  10.905   2.137 -1.5085  0.1343 -1.2963
  945MOL0     H27538  10.907  10.826   1.978  4.2754 -1.4940 -0.8673
  945MOL0     H27539  11.078  10.375   1.664  1.1124 -1.0556 -2.2596
  945MOL0     H27540  10.937  10.294   1.481 -1.6286 -0.6999  0.0922
  945MOL0     H27541  10.768  10.260   1.320 -1.8517 -1.5485 -1.4611
  945MOL0     H27542  10.687  10.335   1.187 -1.0432  1.6264 -0.1447
  945MOL0     H27543  10.873  10.477   1.133 -0.9185  1.3437  2.8618
  945MOL0     H27544  10.971  10.403   1.251  0.8633 -1.7854  0.4983
  945MOL0     H27545  10.838  10.247   1.025  0.6451 -2.8725 -0.0094
  945MOL0     H27546  10.961  10.180   1.133  1.8048  0.7080 -0.6909
  945MOL0     H27547  10.998  10.434   0.957  3.1649  1.0278  0.1989
  945MOL0     H27548  11.124  10.344   1.047  0.3885  0.8273  0.3445
  945MOL0     H27549  11.081  10.147   0.885 -2.3559 -0.8444 -0.3830
  945MOL0     H27550  11.149  10.285   0.812 -0.6969 -2.4348 -0.9718
  945MOL0     H27551  10.860  10.204   0.813  0.6276  0.5978  1.7558
  945MOL0     H27552  10.901  10.367   0.759 -3.0701 -2.0137 -0.2007
  945MOL0     H27553  10.896  10.126   0.604 -2.1763  2.3357  0.6936
  945MOL0     H27554  11.061  10.145   0.615 -0.4680 -1.5422  0.1455
  945MOL0     H27555  10.866  10.361   0.511 -0.4416  0.7281  0.0035
  945MOL0     H27556  10.987  10.274   0.418 -0.1516 -4.2113  1.7233
  945MOL0     H27557  10.741  10.686   1.490 -0.2663 -1.0087 -0.7495
  945MOL0     H27558  10.896  10.759   1.673 -0.6827  0.5582 -0.2386
  945MOL0     H27559  11.276  10.535   1.961 -0.2161 -1.3860  1.8711
  945MOL0     H27560  11.416  10.612   2.153  0.7373  0.7103 -2.3063
  945MOL0     H27561  11.050  10.547   2.457  0.2658 -0.4584  1.2520
  945MOL0     H27562  10.986  10.410   2.263 -0.5008 -0.3972 -1.7623
  945MOL0     H27563  10.555   9.920   2.229  1.2125  0.9500  0.1202
  945MOL0     H27564  10.512   9.801   2.008 -1.3651 -0.4694  1.0286
  945MOL0     H27565  10.504  10.032   1.635 -0.4156 -0.8262  0.6309
  945MOL0     H27566  10.668   9.976   1.620 -0.5107  0.6783  1.9367
  945MOL0     H27567  10.424   9.792   1.585  0.8768 -1.4195 -1.6659
  945MOL0     H27568  10.585   9.752   1.531  1.9481  0.9301 -3.1540
  945MOL0     H27569  10.557   9.958   1.366 -3.0342  1.5480 -3.9751
  945MOL0     H27570  10.405   9.983   1.434  1.3531  1.8416  0.3600
  945MOL0     H27571  10.474   9.712   1.317  0.0118  0.2552 -1.9389
  945MOL0     H27572  10.421   9.836   1.215  2.9756  0.5466 -0.1626
  945MOL0     H27573  10.071   9.708   1.457 -0.3548  1.2484 -0.3610
  945MOL0     H27574  10.653  10.138   1.794 -0.6884 -2.4375 -1.7617
  945MOL0     H27575  10.718  10.250   1.995  0.6623 -0.2202 -3.6794
  946MOL0     O27576   9.526   6.064   6.772 -0.3491  0.1959 -0.2076
  946MOL0     C27577   9.526   6.184   6.790 -0.0880  0.0187  1.1527
  946MOL0     O27578   9.614   6.260   6.857  0.6360 -0.3470  0.4353
  946MOL0     C27579   9.734   6.219   6.905 -0.9034 -0.1037 -0.0541
  946MOL0     C27580   9.789   6.305   6.996  0.1048 -1.1087  0.5085
  946MOL0     C27581   9.919   6.285   7.049 -0.8461  0.3257 -0.0473
  946MOL0     C27582   9.989   6.174   7.008  0.0484 -0.3877  0.7414
  946MOL0     O27583  10.118   6.170   7.048 -0.6397  0.8902 -0.4076
  946MOL0     C27584  10.202   6.053   7.027  0.1619  0.1192 -1.1465
  946MOL0     C27585  10.333   6.048   7.106  0.3353 -0.2378  0.1709
  946MOL0     C27586  10.304   6.057   7.264 -0.3595  0.6770  0.3242
  946MOL0     C27587  10.335   6.194   7.317 -0.5822  0.8006 -0.8338
  946MOL0     C27588  10.290   6.224   7.454 -0.7754 -0.9548  0.5944
  946MOL0     C27589  10.140   6.236   7.457 -0.1582 -0.2357  0.7461
  946MOL0     C27590  10.091   6.283   7.591  0.5265 -0.3303 -0.0663
  946MOL0     C27591  10.135   6.196   7.708  0.0048  0.1384 -0.5873
  946MOL0     N27592  10.041   6.087   7.720  0.3499  0.6286  0.4045
  946MOL0     C27593  10.040   5.971   7.640  0.1462 -1.3846  1.0037
  946MOL0     C27594   9.955   5.886   7.700 -0.4674 -0.4183  0.6468
  946MOL0     C27595   9.906   5.746   7.668 -0.7424  0.0458  0.1156
  946MOL0     C27596   9.790   5.749   7.565 -0.4376 -0.3205  0.4403
  946MOL0     C27597   9.754   5.605   7.529  0.1150  0.2426  0.3436
  946MOL0     C27598   9.680   5.590   7.390  0.3187 -0.3342  0.8139
  946MOL0     O27599   9.765   5.613   7.284  0.3712 -0.8733 -0.2653
  946MOL0     C27600   9.694   5.607   7.160 -0.4674  0.1512  0.1521
  946MOL0     C27601   9.773   5.628   7.055  0.8051 -0.5300 -0.2457
  946MOL0     C27602   9.716   5.627   6.922 -0.0591 -0.4058  1.4150
  946MOL0     C27603   9.809   5.663   6.803  0.0390  0.1983  0.1397
  946MOL0     C27604   9.571   5.610   6.900 -0.0585  0.3698 -0.3733
  946MOL0     C27605   9.495   5.631   6.772  0.0386  0.1971  0.8816
  946MOL0     O27606   9.371   5.675   6.791 -0.0081 -0.0001 -0.0774
  946MOL0     C27607   9.292   5.710   6.677  0.2701 -0.1040 -0.5712
  946MOL0     C27608   9.179   5.632   6.647 -0.1187  0.1573  0.0869
  946MOL0     C27609   9.115   5.652   6.525 -0.4565 -0.4385 -0.2074
  946MOL0     C27610   9.150   5.753   6.435  0.3754  0.6906 -0.4645
  946MOL0     O27611   9.083   5.771   6.319 -0.2804 -0.0147 -0.4572
  946MOL0     C27612   9.005   5.886   6.309 -0.2847 -0.4898 -0.1785
  946MOL0     C27613   8.858   5.841   6.350  0.0864  0.2048 -0.0435
  946MOL0     C27614   8.757   5.943   6.314  0.0099  0.5854  0.1774
  946MOL0     C27615   8.629   5.917   6.400 -0.2925  0.5266  0.6152
  946MOL0     C27616   8.518   6.010   6.356 -1.0987  0.2286 -0.5255
  946MOL0     C27617   8.411   5.999   6.461 -0.5267  0.5770  0.3740
  946MOL0     C27618   8.427   6.094   6.582 -0.0093 -0.1710 -0.1784
  946MOL0     C27619   8.437   6.039   6.718 -0.1608  0.7212 -0.5029
  946MOL0    Cl27620   8.278   5.992   6.774 -0.0314 -0.1789  0.0039
  946MOL0     C27621   9.253   5.830   6.464  1.4378  0.2383 -0.5017
  946MOL0     C27622   9.329   5.809   6.582 -1.1279  0.1473  0.7258
  946MOL0     O27623   9.533   5.594   6.658  0.2863 -0.0455  0.6117
  946MOL0     C27624   9.502   5.588   7.020 -0.2566 -0.4490  0.6341
  946MOL0     C27625   9.554   5.589   7.144 -1.0154  0.4348 -1.0264
  946MOL0     N27626   9.910   5.948   7.812  0.6048  0.9639 -0.3795
  946MOL0     N27627   9.962   6.057   7.820  0.8434 -1.2866 -0.5135
  946MOL0     C27628   9.941   6.088   6.911 -0.1317  0.3116 -0.2194
  946MOL0     C27629   9.816   6.112   6.858  0.4805  0.1030  0.0963
  946MOL0     C27630   9.404   6.243   6.736 -0.0615 -0.4238  0.2921
  946MOL0     C27631   9.317   6.166   6.660  0.1009 -1.0280 -0.3999
  946MOL0     C27632   9.193   6.212   6.621  0.6769 -0.8853  0.1437
  946MOL0     C27633   9.147   6.337   6.658  0.2652 -0.0350  0.8258
  946MOL0     O27634   9.029   6.369   6.608  0.6783  0.4932 -0.6285
  946MOL0     C27635   8.935   6.425   6.705 -0.6241  0.3326 -0.9330
  946MOL0     C27636   8.794   6.382   6.671  0.1574  0.1249  0.0619
  946MOL0     C27637   8.695   6.494   6.671  0.5090  0.7169 -0.1296
  946MOL0     C27638   8.550   6.431   6.666 -0.6900  0.1853 -0.9707
  946MOL0     C27639   8.511   6.408   6.524 -0.6014  0.2133  0.9801
  946MOL0     C27640   8.475   6.380   6.409  0.1928 -0.7527 -0.6695
  946MOL0     C27641   9.236   6.424   6.718  0.2781 -0.6070  0.7573
  946MOL0     C27642   9.360   6.371   6.767  0.2115  0.6063  0.1162
  946MOL0     H27643   9.741   6.392   7.039  0.1094 -1.2642  0.8349
  946MOL0     H27644   9.954   6.353   7.125 -1.0323  1.5013 -0.9798
  946MOL0     H27645  10.150   5.961   7.053 -2.6371  1.8666 -0.1269
  946MOL0     H27646  10.230   6.044   6.922  0.5633 -2.3214 -0.8903
  946MOL0     H27647  10.370   5.946   7.088  2.4465  0.2669  1.3209
  946MOL0     H27648  10.413   6.113   7.070  1.8974 -0.3764  3.0738
  946MOL0     H27649  10.198   6.034   7.278 -0.4530 -0.1529 -1.5549
  946MOL0     H27650  10.361   5.984   7.322  1.3745  2.3210  0.8102
  946MOL0     H27651  10.443   6.215   7.315 -0.0724 -1.3605  0.3366
  946MOL0     H27652  10.283   6.262   7.249 -1.4348 -0.8938 -1.9766
  946MOL0     H27653  10.321   6.147   7.525  0.4329 -1.3373 -0.3036
  946MOL0     H27654  10.332   6.311   7.505 -2.4989  0.0898  0.3173
  946MOL0     H27655  10.106   6.309   7.383  0.5866  0.8227  1.3977
  946MOL0     H27656  10.091   6.139   7.448 -0.7935 -0.2814  3.7728
  946MOL0     H27657  10.134   6.383   7.603  1.1143 -0.3897 -1.4185
  946MOL0     H27658   9.982   6.288   7.585  0.4315 -1.7127  0.2275
  946MOL0     H27659  10.123   6.253   7.801 -1.4415 -3.0650  1.3457
  946MOL0     H27660  10.242   6.174   7.706 -0.0876 -0.2794 -0.9463
  946MOL0     H27661  10.090   5.946   7.548  3.0207  0.5977  1.9072
  946MOL0     H27662   9.994   5.688   7.637 -0.3801 -0.3360  1.7559
  946MOL0     H27663   9.882   5.702   7.765 -0.2828  1.1312  0.7422
  946MOL0     H27664   9.828   5.801   7.477  2.4596 -1.6555  0.8171
  946MOL0     H27665   9.697   5.793   7.604 -0.1216  0.0217  0.8256
  946MOL0     H27666   9.686   5.560   7.602  0.4194 -1.7737 -0.5372
  946MOL0     H27667   9.840   5.539   7.512  0.8688  1.3265 -0.1337
  946MOL0     H27668   9.598   5.662   7.388 -1.3788 -2.1897  0.8610
  946MOL0     H27669   9.651   5.484   7.390  2.6166 -1.0145  1.3688
  946MOL0     H27670   9.881   5.628   7.072  0.6622 -0.7009  0.7005
  946MOL0     H27671   9.910   5.697   6.828  0.1277  2.8106 -3.0740
  946MOL0     H27672   9.815   5.569   6.748 -2.2467  0.4051 -0.5828
  946MOL0     H27673   9.762   5.743   6.745  5.3214  1.5261 -2.9157
  946MOL0     H27674   9.162   5.546   6.711  0.1450 -1.1896 -1.5825
  946MOL0     H27675   9.034   5.581   6.506 -0.5941 -0.0107 -1.2444
  946MOL0     H27676   9.033   5.968   6.376  3.4212 -3.8279  2.8775
  946MOL0     H27677   9.016   5.929   6.209  0.2456  3.8224  1.5389
  946MOL0     H27678   8.833   5.748   6.300 -1.0327 -0.9049  2.3971
  946MOL0     H27679   8.860   5.822   6.458  1.9676  1.2216  0.1494
  946MOL0     H27680   8.738   5.927   6.207  3.6012 -1.4917 -0.3107
  946MOL0     H27681   8.786   6.048   6.327 -3.5454  1.8678 -1.1144
  946MOL0     H27682   8.592   5.816   6.378  0.7259  0.3297 -0.3087
  946MOL0     H27683   8.649   5.930   6.506  0.4526 -2.7140  0.9823
  946MOL0     H27684   8.477   5.979   6.260 -0.9158  0.4270 -0.6694
  946MOL0     H27685   8.560   6.111   6.356  2.3176 -0.9829  1.9575
  946MOL0     H27686   8.313   6.026   6.419  0.9726  2.3035 -2.3239
  946MOL0     H27687   8.411   5.897   6.502 -0.7030  0.2846 -0.3367
  946MOL0     H27688   8.351   6.173   6.580  0.9705  0.8156 -0.0922
  946MOL0     H27689   8.524   6.144   6.571  1.2772 -2.5749 -0.3713
  946MOL0     H27690   8.480   6.116   6.784 -0.4675  1.3392 -1.0064
  946MOL0     H27691   8.503   5.953   6.727 -4.2184 -2.6228  0.7127
  946MOL0     H27692   9.273   5.909   6.392 -0.7641  0.4208 -0.9740
  946MOL0     H27693   9.421   5.864   6.599  0.0156 -0.7866 -1.9285
  946MOL0     H27694   9.399   5.554   7.014 -2.0896  4.2126  1.2863
  946MOL0     H27695   9.500   5.566   7.235 -1.0295  0.0928 -1.1215
  946MOL0     H27696   9.992   6.006   6.862 -0.7153  0.8113 -1.7153
  946MOL0     H27697   9.787   6.045   6.777  2.4386  0.1348 -0.6988
  946MOL0     H27698   9.351   6.071   6.620 -0.3714 -0.2113 -2.9014
  946MOL0     H27699   9.125   6.149   6.564 -0.1433 -0.7676  0.9741
  946MOL0     H27700   8.967   6.394   6.805  1.7261 -0.4565 -1.8589
  946MOL0     H27701   8.952   6.533   6.702  1.2926  0.0586 -0.8692
  946MOL0     H27702   8.755   6.312   6.746 -2.6999  0.7921 -0.6533
  946MOL0     H27703   8.791   6.333   6.573  1.9776 -0.5854  0.3350
  946MOL0     H27704   8.722   6.566   6.594  0.3116  2.1312  1.0781
  946MOL0     H27705   8.699   6.545   6.768  0.0242 -1.3564  1.0542
  946MOL0     H27706   8.485   6.504   6.714 -1.1302 -1.4914  1.0987
  946MOL0     H27707   8.539   6.346   6.734 -4.6325  1.5571  0.3185
  946MOL0     H27708   8.458   6.353   6.307 -0.8449  0.3215 -0.8039
  946MOL0     H27709   9.199   6.526   6.721  0.2910 -0.5753 -0.0076
  946MOL0     H27710   9.415   6.436   6.834  0.9289  0.6791 -0.5274
  947MOL0     O27711   6.784   4.121   7.841 -0.4371 -0.6708  0.3086
  947MOL0     C27712   6.812   4.228   7.891  0.4879 -0.1921 -0.2851
  947MOL0     O27713   6.930   4.254   7.961  1.1873  0.0702 -0.3435
  947MOL0     C27714   7.020   4.156   7.960 -0.1861  0.2929  0.2391
  947MOL0     C27715   7.142   4.187   7.899  0.3280  0.0400  0.8631
  947MOL0     C27716   7.245   4.088   7.889  0.5070  0.6000  0.3005
  947MOL0     C27717   7.233   3.968   7.974  1.2450 -0.7170 -0.6629
  947MOL0     O27718   7.339   3.887   7.980 -0.0677 -0.3948  0.2950
  947MOL0     C27719   7.323   3.748   7.956  0.3347  0.3094 -0.0332
  947MOL0     C27720   7.271   3.712   7.818 -0.5324 -0.3191  0.9161
  947MOL0     C27721   7.363   3.771   7.717  0.2042 -0.7957 -0.1492
  947MOL0     C27722   7.307   3.730   7.586 -0.0885 -0.0755 -0.3058
  947MOL0     C27723   7.363   3.812   7.461  0.7995  0.1070  0.1337
  947MOL0     C27724   7.500   3.748   7.410 -0.7274 -0.7801  0.3514
  947MOL0     C27725   7.577   3.854   7.330 -0.4883  0.1190  0.2122
  947MOL0     C27726   7.722   3.814   7.325  0.5369 -0.2170  0.3335
  947MOL0     N27727   7.753   3.706   7.225  0.3977 -0.7611  0.3630
  947MOL0     C27728   7.863   3.629   7.232 -0.2014 -0.0510 -0.7703
  947MOL0     C27729   7.859   3.529   7.138 -0.4293  0.0462 -0.0740
  947MOL0     C27730   7.939   3.396   7.119 -0.1307  0.4241  0.3247
  947MOL0     C27731   7.870   3.292   7.212 -0.5827 -0.6071 -0.0460
  947MOL0     C27732   7.940   3.163   7.230  0.1137  0.8454 -0.0373
  947MOL0     C27733   7.845   3.069   7.314 -0.7876  0.4844 -0.3607
  947MOL0     O27734   7.827   3.112   7.447 -0.0165 -0.9739  0.2859
  947MOL0     C27735   7.788   3.023   7.542 -0.4620 -0.5993  0.1736
  947MOL0     C27736   7.776   3.068   7.667  0.3531 -0.3676  0.2574
  947MOL0     C27737   7.743   2.995   7.781  0.7586 -0.7780 -0.4078
  947MOL0     C27738   7.769   3.076   7.909  0.2438 -0.0292 -0.2134
  947MOL0     C27739   7.707   2.860   7.748 -0.3579 -0.1470  1.0718
  947MOL0     C27740   7.684   2.764   7.863  0.3296  0.7639 -0.1537
  947MOL0     O27741   7.704   2.806   7.989 -0.2618 -0.8276  0.7223
  947MOL0     C27742   7.589   2.852   8.060 -0.2031  0.2538  0.4359
  947MOL0     C27743   7.585   2.861   8.197  0.4085  0.1780  0.1458
  947MOL0     C27744   7.477   2.918   8.270 -0.6296 -0.6203 -0.4795
  947MOL0     C27745   7.366   2.975   8.203 -0.2516 -0.1423 -0.0521
  947MOL0     O27746   7.265   3.031   8.273  0.1391 -0.0438  0.5610
  947MOL0     C27747   7.134   3.048   8.207  0.0261 -0.6046 -0.1845
  947MOL0     C27748   7.024   3.064   8.316 -0.1022 -0.7477 -0.1365
  947MOL0     C27749   7.033   3.204   8.389 -0.0033 -0.6159  0.1450
  947MOL0     C27750   7.095   3.213   8.533 -0.4896 -0.3262  0.6191
  947MOL0     C27751   7.151   3.345   8.566  0.4921 -0.4811 -0.9155
  947MOL0     C27752   7.059   3.452   8.624 -0.0873 -0.4646  0.4596
  947MOL0     C27753   7.146   3.573   8.672 -0.1599 -0.0627 -0.0286
  947MOL0     C27754   7.052   3.689   8.720  0.0456  0.4427 -0.2007
  947MOL0    Cl27755   6.997   3.754   8.569  0.2445  0.2285 -0.0187
  947MOL0     C27756   7.369   2.968   8.065 -0.4601  0.1670 -0.3100
  947MOL0     C27757   7.483   2.915   7.996 -0.3223  0.5220 -1.3255
  947MOL0     O27758   7.636   2.648   7.836  0.2085  0.3166 -0.4976
  947MOL0     C27759   7.699   2.811   7.610 -0.2173 -0.5844 -0.5048
  947MOL0     C27760   7.749   2.892   7.512 -0.4838 -0.2309  0.8170
  947MOL0     N27761   7.740   3.561   7.074 -0.1403 -0.3129  0.6615
  947MOL0     N27762   7.680   3.663   7.126 -0.1410  0.0594 -0.1976
  947MOL0     C27763   7.117   3.943   8.042 -0.0894  0.3950 -0.7452
  947MOL0     C27764   7.011   4.031   8.030 -0.1331 -0.7868  1.2558
  947MOL0     C27765   6.713   4.338   7.893 -0.5158 -0.5313 -0.7156
  947MOL0     C27766   6.592   4.324   7.817  0.9342 -0.1065 -0.3991
  947MOL0     C27767   6.490   4.424   7.828  0.0524  0.0512  1.0097
  947MOL0     C27768   6.512   4.537   7.904 -0.1815 -0.1198  0.1218
  947MOL0     O27769   6.395   4.616   7.928  0.4040  0.2028  0.3130
  947MOL0     C27770   6.411   4.758   7.902  0.0031  0.4174 -0.4739
  947MOL0     C27771   6.273   4.837   7.919 -0.7676 -0.6166 -0.8455
  947MOL0     C27772   6.161   4.783   7.830  0.3002 -0.2794 -0.0096
  947MOL0     C27773   6.086   4.903   7.773 -0.2972  0.2632 -0.9680
  947MOL0     C27774   6.054   5.023   7.863  0.4137  0.0840  0.7809
  947MOL0     C27775   6.015   5.122   7.932  0.6790  1.0130  0.9733
  947MOL0     C27776   6.636   4.550   7.974  0.9545  0.1958  0.4001
  947MOL0     C27777   6.732   4.453   7.972  0.2684 -0.3511  0.8522
  947MOL0     H27778   7.153   4.277   7.839  1.7494 -1.1415 -0.7512
  947MOL0     H27779   7.340   4.101   7.839  0.6911 -0.7713  0.2393
  947MOL0     H27780   7.419   3.695   7.957  0.5212  0.6491  0.0579
  947MOL0     H27781   7.255   3.707   8.031 -1.8924  1.6617 -1.2319
  947MOL0     H27782   7.263   3.604   7.808  3.2614 -0.5626 -1.4486
  947MOL0     H27783   7.177   3.767   7.812  0.3611  1.5953  2.9340
  947MOL0     H27784   7.356   3.880   7.725 -1.3294 -0.9374  0.8403
  947MOL0     H27785   7.464   3.736   7.740  0.2243  0.2846  1.5267
  947MOL0     H27786   7.331   3.625   7.569  1.0244  0.1184 -0.0714
  947MOL0     H27787   7.199   3.742   7.583  0.0860  1.6037 -1.4732
  947MOL0     H27788   7.304   3.797   7.371  1.7994  1.2734 -0.7403
  947MOL0     H27789   7.368   3.919   7.481  1.1435 -0.2208  2.0718
  947MOL0     H27790   7.561   3.730   7.499  1.0196  2.2636 -0.0979
  947MOL0     H27791   7.477   3.662   7.347 -4.8807  0.4528 -0.1524
  947MOL0     H27792   7.546   3.853   7.225 -0.0857 -0.2437  0.0904
  947MOL0     H27793   7.560   3.956   7.365 -0.6678 -0.0591  0.6585
  947MOL0     H27794   7.754   3.779   7.423  0.6208  2.2530  1.2564
  947MOL0     H27795   7.774   3.908   7.306  2.7945 -1.7414 -1.5658
  947MOL0     H27796   7.927   3.615   7.319 -2.3703 -0.7384  0.8187
  947MOL0     H27797   7.909   3.376   7.016 -1.5659 -0.5876  0.9178
  947MOL0     H27798   8.046   3.403   7.143  0.2105  1.3014 -1.3350
  947MOL0     H27799   7.773   3.277   7.163 -1.0071  0.6574  0.3430
  947MOL0     H27800   7.856   3.336   7.311 -1.3242 -1.3572  0.1925
  947MOL0     H27801   8.028   3.188   7.290  1.0156  1.0800 -1.4244
  947MOL0     H27802   7.974   3.112   7.140  2.2662 -0.2005  1.2914
  947MOL0     H27803   7.892   2.971   7.302 -0.2564  0.9867 -3.0063
  947MOL0     H27804   7.742   3.063   7.276 -1.1595 -0.4346  0.7459
  947MOL0     H27805   7.808   3.171   7.681  0.0252 -0.1294 -0.6746
  947MOL0     H27806   7.788   3.183   7.899 -2.0108  0.4194 -0.2597
  947MOL0     H27807   7.679   3.061   7.969 -0.8167  0.7610 -1.5508
  947MOL0     H27808   7.851   3.029   7.965  2.5637 -1.7270 -4.5703
  947MOL0     H27809   7.667   2.823   8.256  1.5477  0.7589 -1.0091
  947MOL0     H27810   7.479   2.934   8.378  1.7745 -0.8375 -0.4304
  947MOL0     H27811   7.129   3.125   8.130  0.4706 -0.9906 -0.6060
  947MOL0     H27812   7.107   2.952   8.160  0.1303 -0.0928 -1.3177
  947MOL0     H27813   6.928   3.050   8.265 -0.2462  0.7195 -0.3233
  947MOL0     H27814   7.050   2.991   8.393 -0.5831  0.2351  0.9927
  947MOL0     H27815   6.934   3.250   8.388  0.1008 -0.3876 -1.2266
  947MOL0     H27816   7.089   3.265   8.317 -0.8030  0.5512  0.4867
  947MOL0     H27817   7.044   3.172   8.620  2.3356 -1.0780  2.0649
  947MOL0     H27818   7.184   3.149   8.528  2.2461  3.1804 -0.5954
  947MOL0     H27819   7.178   3.383   8.467  2.1858 -2.7616 -1.4058
  947MOL0     H27820   7.236   3.332   8.635 -0.7945  0.0541  0.8381
  947MOL0     H27821   6.988   3.482   8.546 -3.2583 -0.8096  2.9978
  947MOL0     H27822   7.002   3.416   8.710 -0.5629  0.3375  0.4854
  947MOL0     H27823   7.202   3.622   8.593  2.1290  0.2276  1.6809
  947MOL0     H27824   7.215   3.540   8.750  2.2423  2.2767 -1.0419
  947MOL0     H27825   7.119   3.757   8.775  0.5641 -0.0681 -0.1862
  947MOL0     H27826   6.973   3.649   8.784  0.3205 -0.4579 -0.4109
  947MOL0     H27827   7.287   3.007   8.005  0.2459  0.6891 -0.9486
  947MOL0     H27828   7.478   2.924   7.887 -4.0188  1.8184 -1.2168
  947MOL0     H27829   7.672   2.708   7.590 -1.4047 -0.3347 -0.2887
  947MOL0     H27830   7.743   2.858   7.409  0.6855 -0.3117  0.7632
  947MOL0     H27831   7.105   3.853   8.102  2.6540 -0.3504 -1.1941
  947MOL0     H27832   6.911   4.007   8.066 -1.3687 -0.6105 -1.7425
  947MOL0     H27833   6.573   4.229   7.769 -0.7322 -0.3745  0.7135
  947MOL0     H27834   6.392   4.399   7.787  0.4597  1.8114 -1.2374
  947MOL0     H27835   6.483   4.787   7.980  0.1647  2.3750 -1.2911
  947MOL0     H27836   6.457   4.766   7.804  0.6104  1.1240 -0.1432
  947MOL0     H27837   6.306   4.928   7.868  2.3334 -1.0953  0.1237
  947MOL0     H27838   6.230   4.845   8.019 -3.4031 -1.0863 -1.8529
  947MOL0     H27839   6.095   4.729   7.899  2.0355  1.1401  2.9908
  947MOL0     H27840   6.200   4.715   7.754 -1.9594 -1.3372 -0.2853
  947MOL0     H27841   5.988   4.864   7.746 -0.1085  0.2153 -1.5926
  947MOL0     H27842   6.138   4.933   7.681 -0.2987 -0.0343 -1.0659
  947MOL0     H27843   5.975   5.206   7.984  2.2445  2.5075 -0.1392
  947MOL0     H27844   6.645   4.636   8.040 -1.9159  0.3686  0.6897
  947MOL0     H27845   6.817   4.468   8.038 -0.1750 -1.7814  1.7820
  948MOL0     O27846   4.640   2.134   5.870  0.0267 -0.5506  0.1125
  948MOL0     C27847   4.664   2.131   5.990  0.2907  0.6519  0.3413
  948MOL0     O27848   4.676   2.021   6.074  0.0176 -0.4125  0.5265
  948MOL0     C27849   4.661   1.897   6.024  0.8341  0.0358 -0.6771
  948MOL0     C27850   4.735   1.794   6.081 -0.0279  0.0777 -0.0593
  948MOL0     C27851   4.719   1.655   6.028  0.3008 -0.8789 -0.7329
  948MOL0     C27852   4.624   1.626   5.928  0.0096 -0.0013  0.1284
  948MOL0     O27853   4.611   1.486   5.890  0.2536  0.4341  0.1113
  948MOL0     C27854   4.489   1.436   5.842  0.1834  0.6538 -0.3070
  948MOL0     C27855   4.484   1.428   5.688 -0.4487  0.2672 -0.4135
  948MOL0     C27856   4.614   1.350   5.635  1.2416  0.5016 -0.3218
  948MOL0     C27857   4.664   1.414   5.500 -0.2194  0.1523 -0.7898
  948MOL0     C27858   4.767   1.325   5.427  0.0451  0.8808  0.0481
  948MOL0     C27859   4.764   1.363   5.280 -1.5708 -0.7310  0.2087
  948MOL0     C27860   4.902   1.343   5.214  0.4142  0.0782 -0.2861
  948MOL0     C27861   4.895   1.266   5.080 -0.7273  0.9293  0.4396
  948MOL0     N27862   4.830   1.364   4.983 -0.7426  0.8131 -0.6799
  948MOL0     C27863   4.731   1.331   4.900 -0.6436 -0.0878 -0.4482
  948MOL0     C27864   4.717   1.444   4.827 -0.3762 -0.4928 -0.7399
  948MOL0     C27865   4.623   1.464   4.722  0.8237 -0.1441  0.2511
  948MOL0     C27866   4.512   1.568   4.742  0.9101  0.5680  0.4686
  948MOL0     C27867   4.416   1.545   4.633 -0.3391  0.0326  0.5829
  948MOL0     C27868   4.302   1.650   4.617 -0.2003 -0.4187 -0.3026
  948MOL0     O27869   4.225   1.625   4.500 -0.3516  0.8652 -0.3187
  948MOL0     C27870   4.150   1.513   4.503 -0.2976 -0.0814 -0.4404
  948MOL0     C27871   4.103   1.478   4.374 -0.0250  0.0094  0.5361
  948MOL0     C27872   4.023   1.363   4.356  0.0885 -0.8927 -0.6179
  948MOL0     C27873   3.961   1.332   4.219  0.2920 -0.3810  0.0153
  948MOL0     C27874   4.000   1.287   4.467  0.2297  1.0760  0.9167
  948MOL0     C27875   3.942   1.156   4.462  0.5910  0.2634 -0.0928
  948MOL0     O27876   3.825   1.129   4.389  0.3814 -0.8805  0.0952
  948MOL0     C27877   3.784   1.007   4.361 -0.6791  0.9282 -0.2068
  948MOL0     C27878   3.664   0.962   4.422  0.1823  0.9274  0.3910
  948MOL0     C27879   3.617   0.840   4.384 -0.7235 -0.4939  0.0957
  948MOL0     C27880   3.695   0.755   4.303  0.0301  0.1773  0.9934
  948MOL0     O27881   3.637   0.632   4.264  0.0093 -0.4220  0.0185
  948MOL0     C27882   3.493   0.630   4.255  0.6628 -0.2093 -0.0712
  948MOL0     C27883   3.438   0.522   4.158  0.2287 -0.7983 -0.6079
  948MOL0     C27884   3.463   0.373   4.177  0.1000 -0.8510  0.2798
  948MOL0     C27885   3.571   0.322   4.070 -0.2579  0.3645 -0.0769
  948MOL0     C27886   3.596   0.167   4.095 -0.1317 -0.3260 -0.2571
  948MOL0     C27887   3.594   0.071   3.977 -0.9064  0.2081  0.2195
  948MOL0     C27888   3.608  -0.074   4.021 -0.1096  0.3213  0.2616
  948MOL0     C27889   3.565  -0.172   3.914  0.5047 -0.6491  0.1556
  948MOL0    Cl27890   3.388  -0.192   3.941 -0.1220 -0.3892  0.1759
  948MOL0     C27891   3.821   0.800   4.252 -0.2492  0.3941  1.0083
  948MOL0     C27892   3.861   0.927   4.274  0.1783 -0.3995  0.4617
  948MOL0     O27893   4.011   1.063   4.510  0.5851 -1.3109  0.0803
  948MOL0     C27894   4.033   1.316   4.595  0.4281 -0.7595 -0.2438
  948MOL0     C27895   4.109   1.439   4.612 -0.4151 -0.8163  0.3699
  948MOL0     N27896   4.809   1.542   4.863 -0.1131 -0.0369  0.8636
  948MOL0     N27897   4.880   1.492   4.959  0.3528  0.3362  0.2001
  948MOL0     C27898   4.542   1.731   5.885  0.4057  0.6697 -0.6787
  948MOL0     C27899   4.563   1.859   5.932 -0.1952  0.3747 -0.1770
  948MOL0     C27900   4.699   2.257   6.059 -0.2529  0.8089  0.8992
  948MOL0     C27901   4.730   2.258   6.197  1.0057  0.3323  0.8273
  948MOL0     C27902   4.775   2.377   6.263 -0.9390 -0.1499  0.1117
  948MOL0     C27903   4.772   2.495   6.194  0.5577 -0.3653  0.0313
  948MOL0     O27904   4.800   2.599   6.275  0.7689  0.8385 -0.4661
  948MOL0     C27905   4.822   2.735   6.227 -0.1728  0.1345 -0.0653
  948MOL0     C27906   4.960   2.768   6.169 -0.7586 -0.3773  0.3352
  948MOL0     C27907   4.966   2.922   6.130 -0.2436 -0.2845  0.1914
  948MOL0     C27908   5.098   2.972   6.063 -0.0399  0.0261  0.0387
  948MOL0     C27909   5.076   3.108   6.007 -0.2159 -0.4212  0.0271
  948MOL0     C27910   5.045   3.212   5.950 -0.6970 -0.0256  0.6615
  948MOL0     C27911   4.761   2.499   6.053 -0.6021  0.4847  0.6109
  948MOL0     C27912   4.730   2.380   5.986 -0.5383 -0.4520  0.6956
  948MOL0     H27913   4.816   1.807   6.152  0.2309 -3.4390  0.4941
  948MOL0     H27914   4.772   1.569   6.069 -1.3665 -2.6845 -2.1123
  948MOL0     H27915   4.486   1.338   5.891  0.2112  1.3580  1.1549
  948MOL0     H27916   4.406   1.494   5.882 -0.0759 -1.1270  1.9657
  948MOL0     H27917   4.394   1.383   5.645 -0.5422  1.3814 -1.4346
  948MOL0     H27918   4.495   1.531   5.652  0.0425  0.0998 -0.7525
  948MOL0     H27919   4.702   1.345   5.701  0.9204 -3.1098  0.0653
  948MOL0     H27920   4.581   1.248   5.616  1.4235  0.5777 -1.0631
  948MOL0     H27921   4.582   1.420   5.427  0.4774 -1.2632 -1.7286
  948MOL0     H27922   4.697   1.517   5.517 -2.0756  0.8110 -0.9402
  948MOL0     H27923   4.869   1.350   5.457  0.4014  2.3241 -2.1110
  948MOL0     H27924   4.747   1.218   5.439 -1.1213  0.6107 -3.1783
  948MOL0     H27925   4.691   1.301   5.226 -1.9061 -0.5115  0.4048
  948MOL0     H27926   4.747   1.470   5.266  1.6812 -0.1114  0.2728
  948MOL0     H27927   4.959   1.436   5.199  1.5996 -0.8108 -1.5874
  948MOL0     H27928   4.971   1.295   5.284 -0.6934 -0.1039  0.7142
  948MOL0     H27929   4.861   1.165   5.101 -0.3090  0.8256  0.6302
  948MOL0     H27930   4.996   1.237   5.049 -1.2176  0.8209 -1.1283
  948MOL0     H27931   4.669   1.243   4.889 -0.3908 -0.5187  1.3349
  948MOL0     H27932   4.668   1.481   4.623 -1.2527  1.9823 -0.4323
  948MOL0     H27933   4.576   1.366   4.711  0.5532  0.0149 -0.0541
  948MOL0     H27934   4.560   1.666   4.737  2.7777 -0.2973  0.5759
  948MOL0     H27935   4.464   1.555   4.840 -0.7918 -0.6821 -0.4743
  948MOL0     H27936   4.369   1.447   4.650 -1.4622  0.5259  0.3703
  948MOL0     H27937   4.486   1.559   4.550 -1.4899  3.7034  0.0642
  948MOL0     H27938   4.342   1.751   4.602  0.5962 -0.8284 -1.0384
  948MOL0     H27939   4.238   1.657   4.706 -0.3095  2.7204 -0.4867
  948MOL0     H27940   4.130   1.537   4.287 -1.7312 -0.7077 -0.5415
  948MOL0     H27941   3.852   1.342   4.225  0.4377  1.0950  0.7901
  948MOL0     H27942   3.997   1.409   4.150 -2.1004  0.6504 -0.1959
  948MOL0     H27943   3.987   1.232   4.183  0.7038  0.5120 -2.3396
  948MOL0     H27944   3.599   1.030   4.476 -1.4676  0.5959 -1.0834
  948MOL0     H27945   3.532   0.803   4.441  0.0094 -1.1284  0.8077
  948MOL0     H27946   3.451   0.620   4.355 -2.4784  0.8016 -1.1744
  948MOL0     H27947   3.446   0.719   4.211 -0.7677 -0.8038  0.2022
  948MOL0     H27948   3.331   0.541   4.147  0.3186  0.4165  0.3587
  948MOL0     H27949   3.465   0.545   4.054  2.2875 -1.5867 -0.3047
  948MOL0     H27950   3.375   0.317   4.143  1.6859 -2.0793 -2.0742
  948MOL0     H27951   3.482   0.345   4.280  2.8923  6.0832  2.2093
  948MOL0     H27952   3.541   0.334   3.966 -1.7219 -0.5825  0.1986
  948MOL0     H27953   3.657   0.386   4.090  0.0448 -0.6299  2.0934
  948MOL0     H27954   3.522   0.130   4.166  0.6677  0.9553  1.3042
  948MOL0     H27955   3.694   0.158   4.144  0.8114  0.7631 -1.8441
  948MOL0     H27956   3.503   0.079   3.917 -0.7295  0.1887 -0.0514
  948MOL0     H27957   3.679   0.084   3.910 -0.1581  0.5166  1.1884
  948MOL0     H27958   3.553  -0.093   4.113  2.0071 -0.6522  1.4042
  948MOL0     H27959   3.714  -0.092   4.043 -0.6355 -1.2031  1.7814
  948MOL0     H27960   3.623  -0.261   3.937  2.5075  0.8741  1.3598
  948MOL0     H27961   3.581  -0.136   3.812 -3.1567  2.5689  0.4683
  948MOL0     H27962   3.872   0.734   4.183 -1.3094  1.1287 -0.5414
  948MOL0     H27963   3.956   0.954   4.229  0.8876 -0.6456  1.7616
  948MOL0     H27964   4.024   1.251   4.681 -0.4859  1.1921  1.2000
  948MOL0     H27965   4.124   1.471   4.715 -2.8472 -0.8141  0.7908
  948MOL0     H27966   4.476   1.712   5.801 -1.0426  0.9302  0.3496
  948MOL0     H27967   4.485   1.926   5.898 -1.3916  0.5398  2.5958
  948MOL0     H27968   4.728   2.164   6.251  3.3437  0.5542  1.4317
  948MOL0     H27969   4.801   2.375   6.368 -2.1489 -0.2754  0.4229
  948MOL0     H27970   4.747   2.771   6.157  2.8213  1.5614 -2.8371
  948MOL0     H27971   4.796   2.808   6.304  0.7988 -2.7056  3.2141
  948MOL0     H27972   4.971   2.707   6.078  2.7878 -0.8864  0.9690
  948MOL0     H27973   5.035   2.735   6.240 -0.3081 -1.4583 -0.6018
  948MOL0     H27974   4.962   2.986   6.219 -1.1742 -0.7986  0.5370
  948MOL0     H27975   4.888   2.943   6.056 -1.7267 -0.2511  1.6963
  948MOL0     H27976   5.128   2.900   5.986 -1.2818  1.5671 -1.9928
  948MOL0     H27977   5.178   2.971   6.137 -1.0444 -2.3090  1.1938
  948MOL0     H27978   5.021   3.305   5.902  1.2050  0.5222  0.6807
  948MOL0     H27979   4.769   2.589   5.992  0.4246 -0.9211 -1.4564
  948MOL0     H27980   4.717   2.390   5.878  1.6652 -2.4897  0.1497
  949MOL0     O27981   6.399  11.442   1.775  0.4554  0.7036  0.6535
  949MOL0     C27982   6.370  11.501   1.671  0.3150 -0.6963 -0.3734
  949MOL0     O27983   6.377  11.459   1.545 -0.6117  0.4249 -0.1415
  949MOL0     C27984   6.462  11.349   1.527 -0.0410  0.2368 -1.2005
  949MOL0     C27985   6.418  11.218   1.559  0.3639  0.0671  0.4880
  949MOL0     C27986   6.512  11.112   1.548  0.0333 -0.0386 -0.1900
  949MOL0     C27987   6.646  11.135   1.510  0.2665 -0.3681 -0.3678
  949MOL0     O27988   6.749  11.044   1.511 -0.9274 -0.4014  0.4304
  949MOL0     C27989   6.740  10.928   1.587 -0.4081  0.7323 -0.1087
  949MOL0     C27990   6.747  10.951   1.737  0.4885 -0.5487  0.5486
  949MOL0     C27991   6.878  10.895   1.795 -2.3532 -0.4078 -0.9715
  949MOL0     C27992   6.997  10.991   1.757  0.2207  0.0090  0.2108
  949MOL0     C27993   7.130  10.949   1.827 -0.7782  0.0911 -0.1009
  949MOL0     C27994   7.256  11.020   1.778  0.3308  0.8162  0.3698
  949MOL0     C27995   7.244  11.175   1.777  0.8531 -1.2139  0.1511
  949MOL0     C27996   7.384  11.239   1.745  0.7906  0.8314  0.5913
  949MOL0     N27997   7.386  11.375   1.789 -0.1222  0.4712 -0.0602
  949MOL0     C27998   7.368  11.418   1.918 -1.3624  0.1100 -0.0266
  949MOL0     C27999   7.394  11.550   1.912 -0.3859 -0.9812  0.7769
  949MOL0     C28000   7.376  11.659   2.019 -0.3712 -0.3982 -0.1150
  949MOL0     C28001   7.485  11.763   1.996 -0.6528 -0.0360 -0.6545
  949MOL0     C28002   7.633  11.713   2.022  0.1329  0.4599  0.9875
  949MOL0     C28003   7.740  11.818   2.034 -0.4711 -0.3271  0.6396
  949MOL0     O28004   7.691  11.915   2.129  0.3017 -0.2337 -0.3030
  949MOL0     C28005   7.772  12.016   2.180 -0.0589  0.8433  1.4390
  949MOL0     C28006   7.747  12.071   2.303 -0.2911  0.0094  0.8127
  949MOL0     C28007   7.821  12.172   2.360 -0.8606 -0.2733 -0.1006
  949MOL0     C28008   7.768  12.235   2.492  0.6359 -0.0004  0.2138
  949MOL0     C28009   7.939  12.230   2.300  1.0130  0.4140  0.1052
  949MOL0     C28010   8.022  12.352   2.347 -0.5688 -0.5332 -1.2302
  949MOL0     O28011   7.963  12.461   2.412  0.3443 -0.3391  0.4375
  949MOL0     C28012   8.053  12.544   2.480 -0.0890 -0.3227  0.8271
  949MOL0     C28013   8.085  12.664   2.427 -0.7440  0.0730 -0.1260
  949MOL0     C28014   8.172  12.746   2.499  0.2885 -0.3897  0.0657
  949MOL0     C28015   8.220  12.706   2.623 -0.0748  0.3466  0.1347
  949MOL0     O28016   8.314  12.793   2.667 -0.3019 -0.1230  0.1794
  949MOL0     C28017   8.330  12.801   2.808  0.0328  0.6149  0.9741
  949MOL0     C28018   8.423  12.919   2.852 -0.1495 -0.4516  0.4274
  949MOL0     C28019   8.359  13.066   2.827 -1.3317 -0.6980  0.2933
  949MOL0     C28020   8.262  13.113   2.933 -0.7159 -0.1213 -0.1365
  949MOL0     C28021   8.251  13.265   2.918  0.0931  0.2407  0.0154
  949MOL0     C28022   8.171  13.317   2.798  0.2057  0.2270  0.0173
  949MOL0     C28023   8.182  13.470   2.786  0.1276  0.2754  0.0015
  949MOL0     C28024   8.122  13.541   2.664 -0.0835  0.4699 -0.0324
  949MOL0    Cl28025   8.207  13.708   2.644 -0.2513 -0.1171  0.3662
  949MOL0     C28026   8.173  12.591   2.685  0.6259 -0.7087 -0.1042
  949MOL0     C28027   8.079  12.510   2.617 -0.1933 -0.6428  0.3502
  949MOL0     O28028   8.146  12.342   2.331  0.4583  0.0069 -1.2738
  949MOL0     C28029   7.978  12.164   2.180  0.6185  0.0100 -0.9746
  949MOL0     C28030   7.894  12.070   2.113 -0.2438  0.1632  0.7730
  949MOL0     N28031   7.419  11.582   1.783  0.3593 -1.1423  0.6157
  949MOL0     N28032   7.416  11.479   1.713  1.0055  0.1066  0.1678
  949MOL0     C28033   6.684  11.257   1.476  0.2339 -0.7453  0.6543
  949MOL0     C28034   6.596  11.373   1.489  0.1214  0.3260 -0.2405
  949MOL0     C28035   6.355  11.651   1.688  0.1201 -0.3544  0.0623
  949MOL0     C28036   6.363  11.735   1.575 -0.1096  0.8623  0.3072
  949MOL0     C28037   6.350  11.874   1.583 -0.7037  0.6565 -0.5464
  949MOL0     C28038   6.338  11.937   1.714  1.3686  0.6617 -0.7073
  949MOL0     O28039   6.322  12.070   1.710  0.8410  0.0859  0.2461
  949MOL0     C28040   6.262  12.136   1.820  0.2809  0.7206 -1.0105
  949MOL0     C28041   6.253  12.292   1.795  0.1501  0.9245 -0.1851
  949MOL0     C28042   6.389  12.360   1.781  0.7824 -0.1826  0.3714
  949MOL0     C28043   6.469  12.391   1.920 -0.6653 -0.8790  0.1194
  949MOL0     C28044   6.587  12.466   1.883 -1.2524  0.1265  0.1951
  949MOL0     C28045   6.694  12.513   1.851 -0.9140 -0.8654 -0.6741
  949MOL0     C28046   6.330  11.857   1.824 -0.3348  0.0610  0.0119
  949MOL0     C28047   6.340  11.718   1.809 -0.3903  0.3114 -0.5656
  949MOL0     H28048   6.319  11.187   1.591  0.2126  1.8340  1.8987
  949MOL0     H28049   6.480  11.010   1.570 -0.2261 -0.3233 -1.7468
  949MOL0     H28050   6.653  10.868   1.557  1.3887 -0.3526 -3.7846
  949MOL0     H28051   6.824  10.869   1.548 -0.0082  0.3818  1.2240
  949MOL0     H28052   6.731  11.058   1.754  1.9419 -0.3454  0.7837
  949MOL0     H28053   6.669  10.891   1.785  0.3782  0.6307  1.9041
  949MOL0     H28054   6.870  10.882   1.904  2.3814  4.4127  0.4664
  949MOL0     H28055   6.897  10.799   1.746 -2.6523 -0.6482 -0.6194
  949MOL0     H28056   7.013  10.978   1.650 -1.1673 -1.4619  0.1337
  949MOL0     H28057   6.965  11.093   1.777  2.4046  0.4528  1.8537
  949MOL0     H28058   7.119  10.980   1.931  2.6056 -1.4801  0.8825
  949MOL0     H28059   7.137  10.840   1.818 -0.8355  0.2195 -2.1595
  949MOL0     H28060   7.343  10.982   1.833  0.5160 -0.0788 -0.5180
  949MOL0     H28061   7.271  10.992   1.673  0.3543  3.2065 -0.3455
  949MOL0     H28062   7.167  11.206   1.705 -0.4680  1.3442  2.4876
  949MOL0     H28063   7.199  11.221   1.866  1.2369 -1.7228  0.6147
  949MOL0     H28064   7.414  11.230   1.641  2.2778 -0.3576  1.0902
  949MOL0     H28065   7.459  11.178   1.796  2.7973  1.6674 -1.1992
  949MOL0     H28066   7.352  11.359   2.008  2.0839  0.8589  1.2321
  949MOL0     H28067   7.283  11.712   1.997  0.9616  2.6244  0.9403
  949MOL0     H28068   7.370  11.624   2.123 -0.2329 -0.4184 -0.1136
  949MOL0     H28069   7.475  11.844   2.069  0.8649  1.0143 -1.5688
  949MOL0     H28070   7.469  11.799   1.894 -1.2697 -0.7200 -0.8065
  949MOL0     H28071   7.658  11.648   1.937 -0.0617 -1.6774  2.5042
  949MOL0     H28072   7.642  11.646   2.108  0.3321 -0.7703  0.0396
  949MOL0     H28073   7.764  11.867   1.939  2.2669 -2.2205  0.2459
  949MOL0     H28074   7.831  11.778   2.078  0.2563  0.1488 -0.3919
  949MOL0     H28075   7.661  12.023   2.349 -0.3069 -1.1415 -0.3799
  949MOL0     H28076   7.693  12.171   2.539  0.3341  0.3495  0.2231
  949MOL0     H28077   7.846  12.263   2.563  0.3293  1.8897 -0.1364
  949MOL0     H28078   7.722  12.330   2.461 -0.1532 -0.6385 -0.6515
  949MOL0     H28079   8.063  12.695   2.325 -0.5558 -2.5513 -1.0429
  949MOL0     H28080   8.200  12.835   2.443 -2.8736  0.5357 -0.2424
  949MOL0     H28081   8.229  12.805   2.850 -1.0617 -0.2443 -1.4116
  949MOL0     H28082   8.381  12.715   2.852  1.6081  0.5807 -0.8108
  949MOL0     H28083   8.449  12.921   2.958  0.4064  1.4066  0.2854
  949MOL0     H28084   8.512  12.907   2.789 -1.4283 -1.3562 -1.3058
  949MOL0     H28085   8.302  13.072   2.734 -2.2157  1.0716  0.8961
  949MOL0     H28086   8.438  13.143   2.823 -1.5160 -0.4758  0.8741
  949MOL0     H28087   8.169  13.058   2.920 -0.9444 -0.2202  1.6346
  949MOL0     H28088   8.293  13.087   3.034 -1.4450 -1.5376 -0.2603
  949MOL0     H28089   8.353  13.303   2.917  0.6967 -1.2844 -0.8220
  949MOL0     H28090   8.217  13.302   3.016 -0.1912  1.5338 -0.5532
  949MOL0     H28091   8.221  13.273   2.711  3.1035  2.1964  0.5029
  949MOL0     H28092   8.068  13.282   2.809 -0.0809  1.1646  0.3934
  949MOL0     H28093   8.285  13.506   2.795 -0.6909  2.6327  0.6229
  949MOL0     H28094   8.130  13.515   2.871  1.5365  1.0798  0.4626
  949MOL0     H28095   8.015  13.562   2.675  0.0780  1.6068 -0.4756
  949MOL0     H28096   8.133  13.478   2.576 -2.0180  1.2869 -0.9122
  949MOL0     H28097   8.206  12.559   2.783  1.4644 -0.1345 -0.1889
  949MOL0     H28098   8.043  12.414   2.652 -0.5388 -1.8063 -2.8951
  949MOL0     H28099   8.061  12.203   2.121 -0.0587 -1.8311 -3.2856
  949MOL0     H28100   7.917  12.046   2.010 -0.6233  1.0637  0.4633
  949MOL0     H28101   6.791  11.268   1.458  0.7267 -0.6871  3.1932
  949MOL0     H28102   6.617  11.478   1.472  1.0100  0.1668 -0.2008
  949MOL0     H28103   6.380  11.695   1.476 -0.3691 -3.0212  1.6698
  949MOL0     H28104   6.358  11.949   1.505 -0.2138  1.1834  0.0062
  949MOL0     H28105   6.160  12.097   1.833  0.8099  0.1885  2.7453
  949MOL0     H28106   6.309  12.122   1.918 -2.1424 -0.6653  0.0687
  949MOL0     H28107   6.198  12.338   1.878  0.7360 -0.8863  1.2677
  949MOL0     H28108   6.185  12.315   1.712 -1.0449  0.6099  0.6848
  949MOL0     H28109   6.367  12.450   1.724 -1.4760 -2.6763 -3.0761
  949MOL0     H28110   6.456  12.298   1.720 -1.4001 -2.4491  0.1116
  949MOL0     H28111   6.490  12.297   1.973 -0.6997  0.4754  2.7021
  949MOL0     H28112   6.407  12.455   1.983 -0.8715 -0.1913 -0.7574
  949MOL0     H28113   6.779  12.564   1.812 -1.4712 -1.9053 -3.4966
  949MOL0     H28114   6.315  11.915   1.915 -0.5070  2.8074 -1.6399
  949MOL0     H28115   6.333  11.663   1.902 -3.3280 -0.5888 -1.2103
  950MOL0     O28116   5.306   8.007   4.920  0.2581 -0.7534  0.1830
  950MOL0     C28117   5.372   7.943   4.838  0.9161 -0.5941  0.7097
  950MOL0     O28118   5.329   7.916   4.711  0.2159 -0.3632  0.1633
  950MOL0     C28119   5.227   7.993   4.662 -0.0765  0.7005  1.1246
  950MOL0     C28120   5.118   7.932   4.601 -0.6340  0.8679 -0.4063
  950MOL0     C28121   5.017   8.006   4.530 -0.4350  0.4133  0.0698
  950MOL0     C28122   5.019   8.138   4.526  0.0665  0.4835  1.1552
  950MOL0     O28123   4.918   8.205   4.459 -0.0231  0.7236 -0.2985
  950MOL0     C28124   4.941   8.331   4.397 -0.3149 -0.7350 -0.6044
  950MOL0     C28125   5.060   8.327   4.300  0.9590  0.5142 -0.0703
  950MOL0     C28126   5.109   8.468   4.267 -0.4726 -0.8247 -0.1003
  950MOL0     C28127   5.014   8.518   4.159 -0.5132 -0.5189 -0.1043
  950MOL0     C28128   5.086   8.638   4.093  0.0493  0.3216  0.4120
  950MOL0     C28129   5.195   8.607   3.990  0.5631  0.5741  0.1323
  950MOL0     C28130   5.343   8.655   4.028  1.1718 -0.2418  0.4980
  950MOL0     C28131   5.349   8.803   4.021 -1.2306  0.3434 -0.5816
  950MOL0     N28132   5.376   8.855   3.885  0.6753 -0.6508  0.7754
  950MOL0     C28133   5.286   8.903   3.798 -0.4555  0.0182  1.0523
  950MOL0     C28134   5.349   8.927   3.675  0.0325 -0.2097  0.0765
  950MOL0     C28135   5.298   8.992   3.535 -1.1330 -0.3724 -1.0812
  950MOL0     C28136   5.379   9.114   3.496  0.3425  1.1475 -0.4985
  950MOL0     C28137   5.522   9.078   3.436  0.9354 -0.5467 -0.1454
  950MOL0     C28138   5.516   8.993   3.317 -0.0666  0.2086  1.0814
  950MOL0     O28139   5.413   9.055   3.233 -0.5010 -0.6063  0.1509
  950MOL0     C28140   5.436   9.056   3.097  0.1422 -0.5600 -1.1477
  950MOL0     C28141   5.483   8.941   3.028 -1.0516 -0.7436 -1.2573
  950MOL0     C28142   5.517   8.939   2.896  0.0400  0.1417  0.0847
  950MOL0     C28143   5.589   8.814   2.850  1.0203 -0.0704  0.1417
  950MOL0     C28144   5.487   9.048   2.811 -0.9082 -0.7603 -0.7189
  950MOL0     C28145   5.520   9.057   2.677 -0.0843 -1.1090  0.7028
  950MOL0     O28146   5.440   9.136   2.594  0.1999  0.1515  0.0696
  950MOL0     C28147   5.408   9.106   2.461  0.0563  0.5573 -0.4012
  950MOL0     C28148   5.455   8.996   2.393 -1.3550 -0.2575  0.6461
  950MOL0     C28149   5.419   8.973   2.259  0.3851 -0.5114 -0.1000
  950MOL0     C28150   5.346   9.069   2.192 -0.0372  0.3508  0.3273
  950MOL0     O28151   5.309   9.049   2.059 -0.0972  0.7825  0.4636
  950MOL0     C28152   5.377   9.134   1.976 -0.4899 -0.2554 -0.1109
  950MOL0     C28153   5.332   9.124   1.840 -0.9365  0.4895  0.3487
  950MOL0     C28154   5.333   8.994   1.765 -0.1769  0.4034 -0.6137
  950MOL0     C28155   5.471   8.931   1.719 -0.0189 -1.2662 -0.0583
  950MOL0     C28156   5.449   8.804   1.662  0.2176  0.7720  0.4118
  950MOL0     C28157   5.562   8.735   1.592  0.0519 -0.0105 -0.3285
  950MOL0     C28158   5.618   8.811   1.471  0.7157 -0.4983 -0.2573
  950MOL0     C28159   5.725   8.738   1.387  0.5706 -0.2113 -0.4222
  950MOL0    Cl28160   5.863   8.673   1.493  0.3740 -0.1220 -0.5331
  950MOL0     C28161   5.301   9.183   2.256  0.2672 -0.0579 -0.4480
  950MOL0     C28162   5.331   9.197   2.394  0.5402 -0.6207  0.2318
  950MOL0     O28163   5.625   9.006   2.639 -0.1291 -0.0621 -0.0145
  950MOL0     C28164   5.420   9.155   2.875  0.5397 -0.3893 -0.0693
  950MOL0     C28165   5.386   9.155   3.012 -0.3035 -0.0980 -0.0230
  950MOL0     N28166   5.478   8.894   3.704 -0.0632  0.4022  0.0769
  950MOL0     N28167   5.498   8.839   3.821  0.3946 -0.0291  0.6555
  950MOL0     C28168   5.120   8.200   4.589  0.0503 -1.0107 -0.2021
  950MOL0     C28169   5.226   8.137   4.656 -0.3823 -0.0900 -0.4113
  950MOL0     C28170   5.493   7.883   4.881  0.1455  0.5509  0.2758
  950MOL0     C28171   5.559   7.789   4.805 -0.0365  0.1725  0.0252
  950MOL0     C28172   5.663   7.718   4.857  0.9979  0.3107  0.2075
  950MOL0     C28173   5.709   7.743   4.983 -0.3747 -0.5011  0.5889
  950MOL0     O28174   5.793   7.657   5.046  0.0906  0.4798 -0.1549
  950MOL0     C28175   5.922   7.625   4.984  0.9730 -0.1692  0.5028
  950MOL0     C28176   6.017   7.750   4.984 -0.0017 -0.5282 -0.0184
  950MOL0     C28177   6.158   7.711   4.959  0.2141 -0.3889  0.5819
  950MOL0     C28178   6.255   7.820   5.010 -1.0243  1.2762  0.8948
  950MOL0     C28179   6.254   7.940   4.925 -0.0365 -0.6462 -0.2579
  950MOL0     C28180   6.289   8.046   4.872  0.4861  0.4658 -0.3434
  950MOL0     C28181   5.645   7.842   5.056 -0.5642 -0.5935 -0.9298
  950MOL0     C28182   5.551   7.920   5.003  0.2142 -0.7282  0.7543
  950MOL0     H28183   5.111   7.824   4.593  1.1674  0.7564 -0.7983
  950MOL0     H28184   4.935   7.964   4.472 -2.0506  1.4228  1.5208
  950MOL0     H28185   4.851   8.358   4.340 -0.5834  1.3310  0.6699
  950MOL0     H28186   4.963   8.423   4.451  0.0603 -0.0564 -1.8894
  950MOL0     H28187   5.147   8.273   4.340  1.3031 -0.9834 -2.5933
  950MOL0     H28188   5.034   8.280   4.204  2.4307  1.7959 -1.1398
  950MOL0     H28189   5.118   8.536   4.352 -5.7960  2.3319 -1.6241
  950MOL0     H28190   5.206   8.442   4.223  1.0889 -1.1626  3.1991
  950MOL0     H28191   4.975   8.444   4.088 -1.1141  0.4699 -0.8259
  950MOL0     H28192   4.929   8.560   4.213 -0.8597 -1.1055 -0.1775
  950MOL0     H28193   5.020   8.710   4.044  1.5587  0.7425 -1.1275
  950MOL0     H28194   5.132   8.698   4.173 -1.5482  0.8350  0.9697
  950MOL0     H28195   5.208   8.500   3.970  1.9616  0.5664  0.9512
  950MOL0     H28196   5.169   8.650   3.893  1.7816 -0.2527 -0.5942
  950MOL0     H28197   5.370   8.606   4.122  4.9578 -2.0183 -1.2838
  950MOL0     H28198   5.402   8.616   3.944 -0.3037  2.1288 -1.7969
  950MOL0     H28199   5.433   8.841   4.081 -0.5044  3.2915 -3.1342
  950MOL0     H28200   5.253   8.847   4.050 -2.2844 -0.1492 -3.0472
  950MOL0     H28201   5.187   8.941   3.817 -0.8385 -2.0082  3.7243
  950MOL0     H28202   5.296   8.907   3.466 -6.8741 -4.7188  3.3883
  950MOL0     H28203   5.198   9.031   3.559 -0.0452  1.6780  0.3981
  950MOL0     H28204   5.389   9.186   3.578 -0.1557 -0.4113  0.9806
  950MOL0     H28205   5.325   9.174   3.422 -0.4840  0.9033 -0.1050
  950MOL0     H28206   5.570   9.023   3.517  3.6803  2.4162  0.4457
  950MOL0     H28207   5.575   9.173   3.431  2.3290 -1.2510  0.5196
  950MOL0     H28208   5.481   8.894   3.345 -0.2681 -0.0365  0.0266
  950MOL0     H28209   5.610   8.988   3.260 -0.9948  0.7529 -0.5732
  950MOL0     H28210   5.507   8.858   3.093  0.8080 -0.5746 -1.6553
  950MOL0     H28211   5.529   8.757   2.778  0.8623  1.7629 -1.2643
  950MOL0     H28212   5.684   8.842   2.803  0.7687 -0.3132 -0.5241
  950MOL0     H28213   5.608   8.738   2.927  0.5960 -1.4025 -1.0122
  950MOL0     H28214   5.508   8.914   2.441 -0.7957  0.0441  0.5624
  950MOL0     H28215   5.440   8.885   2.200 -0.7802  1.3580 -3.6129
  950MOL0     H28216   5.363   9.238   2.009  0.7113 -0.4855  1.2157
  950MOL0     H28217   5.482   9.106   1.991 -0.1033  1.4927  0.8015
  950MOL0     H28218   5.228   9.156   1.837 -0.2964  2.6965 -0.4033
  950MOL0     H28219   5.381   9.200   1.777 -1.7734  1.1695  0.5042
  950MOL0     H28220   5.273   9.004   1.674 -0.3692 -0.1925 -0.5546
  950MOL0     H28221   5.264   8.932   1.823 -0.4757  2.1496  0.9925
  950MOL0     H28222   5.507   9.004   1.646 -2.0862  2.3010  2.1824
  950MOL0     H28223   5.539   8.918   1.804  0.4517 -0.7140 -0.3423
  950MOL0     H28224   5.359   8.808   1.600  0.6814  1.2125 -0.2377
  950MOL0     H28225   5.413   8.741   1.744 -0.7175  1.8156  0.8364
  950MOL0     H28226   5.652   8.718   1.652  0.3804 -1.2395 -1.1104
  950MOL0     H28227   5.533   8.633   1.565  0.1161 -0.4730  1.2472
  950MOL0     H28228   5.642   8.913   1.504 -2.8796  1.0058 -1.6650
  950MOL0     H28229   5.545   8.850   1.399  2.6130  0.0952 -1.9660
  950MOL0     H28230   5.761   8.812   1.315  0.6688 -0.4179 -0.5869
  950MOL0     H28231   5.679   8.651   1.340  0.8877 -0.5030 -0.2048
  950MOL0     H28232   5.248   9.266   2.208  0.2773  0.8327  1.0221
  950MOL0     H28233   5.290   9.281   2.449  0.5642 -0.9492  0.7568
  950MOL0     H28234   5.380   9.230   2.807  0.4878  0.8070  1.2336
  950MOL0     H28235   5.325   9.235   3.054  0.1602 -0.5891  1.6801
  950MOL0     H28236   5.119   8.308   4.582 -0.4961 -1.0742 -1.3516
  950MOL0     H28237   5.295   8.203   4.709 -1.4613 -0.5499  1.6630
  950MOL0     H28238   5.515   7.755   4.712  0.6672  0.9610 -0.6079
  950MOL0     H28239   5.692   7.625   4.809  3.9044  1.9891 -1.5790
  950MOL0     H28240   5.965   7.538   5.035 -0.1164 -1.8011 -1.2325
  950MOL0     H28241   5.909   7.595   4.880  0.4373 -1.3466  0.8912
  950MOL0     H28242   6.002   7.810   5.074  1.5367 -0.0265 -0.0654
  950MOL0     H28243   5.980   7.818   4.906  1.0157  1.6095  1.2719
  950MOL0     H28244   6.179   7.671   4.859 -0.5475 -3.2218  1.4534
  950MOL0     H28245   6.186   7.619   5.011  2.0395 -1.5820 -2.2284
  950MOL0     H28246   6.350   7.767   4.995 -2.1519 -1.4825  2.7392
  950MOL0     H28247   6.248   7.834   5.118  1.3068  0.2562  1.2546
  950MOL0     H28248   6.316   8.138   4.824 -3.3177  3.4210  2.4520
  950MOL0     H28249   5.657   7.847   5.164 -3.6174  0.5685 -0.5453
  950MOL0     H28250   5.507   7.997   5.065  0.1411 -0.7227  0.6953
  951MOL0     O28251   1.823   5.608  10.355  0.2737  0.8670  0.3941
  951MOL0     C28252   1.906   5.557  10.276 -0.6887 -0.2054 -0.1583
  951MOL0     O28253   2.035   5.598  10.261 -0.6785 -0.3402  0.4449
  951MOL0     C28254   2.098   5.682  10.348  0.3109  0.1817 -0.4238
  951MOL0     C28255   2.204   5.749  10.299 -1.1656  1.2643 -0.8118
  951MOL0     C28256   2.283   5.831  10.387 -0.1191  0.9256  0.9888
  951MOL0     C28257   2.243   5.841  10.523 -0.2232 -0.0591 -0.7058
  951MOL0     O28258   2.319   5.936  10.582 -1.0081 -0.1230 -0.6874
  951MOL0     C28259   2.311   5.998  10.712 -0.1025 -0.4306 -1.2095
  951MOL0     C28260   2.371   5.905  10.822  0.4854 -0.1328 -0.1834
  951MOL0     C28261   2.512   5.834  10.806 -0.7914  0.1958 -0.1264
  951MOL0     C28262   2.625   5.920  10.753 -0.0270  0.2385  0.2149
  951MOL0     C28263   2.734   5.840  10.673 -0.4515 -0.1633 -0.3853
  951MOL0     C28264   2.791   5.725  10.754 -0.5103  0.6947 -0.4536
  951MOL0     C28265   2.913   5.660  10.683 -0.4115  0.0735 -0.2257
  951MOL0     C28266   2.960   5.535  10.766  0.0403  0.5372  0.0729
  951MOL0     N28267   2.902   5.408  10.716 -0.2275  0.0604  0.6269
  951MOL0     C28268   2.973   5.295  10.671 -0.4206  0.5342 -0.4556
  951MOL0     C28269   2.873   5.219  10.635 -0.2686  1.3765 -0.1507
  951MOL0     C28270   2.888   5.090  10.568 -0.5998  0.1151  1.4232
  951MOL0     C28271   2.768   4.994  10.551  0.3796  0.1344  0.6287
  951MOL0     C28272   2.822   4.870  10.474  1.0645 -0.1247 -0.2394
  951MOL0     C28273   2.710   4.762  10.451  0.4216  0.9151  0.5089
  951MOL0     O28274   2.589   4.799  10.387  0.4898 -0.5245 -0.2957
  951MOL0     C28275   2.475   4.727  10.420  0.0610 -0.2314  0.3118
  951MOL0     C28276   2.371   4.784  10.484  0.4674  0.0733 -0.8003
  951MOL0     C28277   2.250   4.703  10.500  0.4015  0.2226  0.7377
  951MOL0     C28278   2.136   4.747  10.589 -0.8458 -0.3639 -0.2336
  951MOL0     C28279   2.244   4.568  10.447 -0.6690  0.7209 -0.3208
  951MOL0     C28280   2.122   4.490  10.430  0.3343 -0.0392 -0.3903
  951MOL0     O28281   2.123   4.394  10.330  0.1561 -0.1175  0.0100
  951MOL0     C28282   2.008   4.325  10.308 -0.1911 -1.2043 -1.0753
  951MOL0     C28283   1.923   4.349  10.205  0.7775 -0.3737  0.1605
  951MOL0     C28284   1.804   4.274  10.193  0.0502 -0.1820  0.5280
  951MOL0     C28285   1.780   4.160  10.274 -0.1933 -0.7921 -0.5199
  951MOL0     O28286   1.667   4.083  10.267  0.5789 -0.0273 -1.1238
  951MOL0     C28287   1.559   4.092  10.170  0.4460 -0.3423 -0.2012
  951MOL0     C28288   1.589   4.014  10.038 -0.5016  0.1278  0.1129
  951MOL0     C28289   1.631   3.874  10.079  0.0137 -0.6821  0.0236
  951MOL0     C28290   1.643   3.796   9.947  0.0483  0.0104  0.2248
  951MOL0     C28291   1.669   3.648   9.957  0.3928  0.6234 -1.1978
  951MOL0     C28292   1.681   3.572   9.824  0.4762 -0.4964 -0.5100
  951MOL0     C28293   1.695   3.424   9.829 -0.4865 -0.6907 -0.2439
  951MOL0     C28294   1.666   3.369   9.692  0.2442 -0.9425 -0.0155
  951MOL0    Cl28295   1.780   3.421   9.568  0.4227  0.3965  0.0557
  951MOL0     C28296   1.860   4.140  10.383 -0.6671  1.1098  0.2833
  951MOL0     C28297   1.971   4.230  10.405 -0.1826  0.9080 -0.3013
  951MOL0     O28298   2.026   4.497  10.508 -0.2837 -0.4692 -0.5471
  951MOL0     C28299   2.366   4.525  10.387  0.5945  0.2412  0.7804
  951MOL0     C28300   2.477   4.604  10.381 -0.0454 -0.3045 -0.4735
  951MOL0     N28301   2.749   5.263  10.664 -0.8104  0.1123 -0.5929
  951MOL0     N28302   2.767   5.379  10.712 -0.5443  0.6711  0.1872
  951MOL0     C28303   2.132   5.779  10.573  1.0569  0.9548  0.5253
  951MOL0     C28304   2.068   5.691  10.481 -0.2094  0.1824  0.4842
  951MOL0     C28305   1.866   5.437  10.200  0.4644 -0.7459 -0.4336
  951MOL0     C28306   1.956   5.346  10.139 -0.1136 -0.2725 -0.7497
  951MOL0     C28307   1.917   5.242  10.052  0.4044  0.3355  1.0999
  951MOL0     C28308   1.784   5.225  10.018 -0.5222 -0.8815 -0.1212
  951MOL0     O28309   1.746   5.130   9.927 -0.1031 -0.5799  0.0118
  951MOL0     C28310   1.603   5.120   9.893  0.1933 -0.8558 -0.3150
  951MOL0     C28311   1.521   5.031   9.978  0.2454  0.5442  0.1358
  951MOL0     C28312   1.398   4.973   9.910  0.3036  0.4915  0.5441
  951MOL0     C28313   1.275   5.059   9.934 -0.5068  0.0486  0.4492
  951MOL0     C28314   1.154   4.997   9.878  0.2848 -0.2770  0.4757
  951MOL0     C28315   1.045   4.964   9.829 -0.6271  0.9696 -0.0790
  951MOL0     C28316   1.694   5.290  10.110  0.0143  0.3130 -0.8328
  951MOL0     C28317   1.733   5.393  10.193 -0.1053 -0.3127 -0.1004
  951MOL0     H28318   2.221   5.744  10.192 -3.4033 -0.5328 -1.1671
  951MOL0     H28319   2.366   5.887  10.348 -0.5791  2.6230  2.3231
  951MOL0     H28320   2.369   6.091  10.705 -1.8815  0.8461 -0.1514
  951MOL0     H28321   2.216   6.045  10.740  1.7213  2.4082  0.8381
  951MOL0     H28322   2.387   5.955  10.918  3.3660  1.0137 -1.1526
  951MOL0     H28323   2.298   5.824  10.831 -1.0799  1.3632  1.5547
  951MOL0     H28324   2.552   5.802  10.903 -2.3289  1.2434  0.8941
  951MOL0     H28325   2.509   5.756  10.729  1.6056  0.3779 -0.4795
  951MOL0     H28326   2.580   5.987  10.679 -5.1554  0.9469  3.4436
  951MOL0     H28327   2.656   5.992  10.829 -0.3206  2.7719 -1.9327
  951MOL0     H28328   2.691   5.799  10.581 -1.4211  0.6699 -0.3178
  951MOL0     H28329   2.813   5.914  10.658 -2.4017  2.0071 -0.5073
  951MOL0     H28330   2.814   5.748  10.858 -0.8420 -1.0110  0.0246
  951MOL0     H28331   2.709   5.654  10.764 -1.4519  1.9560  1.1532
  951MOL0     H28332   2.891   5.625  10.581  0.5257 -2.1875  0.2671
  951MOL0     H28333   2.978   5.747  10.680  0.9869 -0.9563 -0.7133
  951MOL0     H28334   2.926   5.559  10.867 -0.2644  0.5487 -0.0339
  951MOL0     H28335   3.066   5.519  10.745 -0.5067 -0.6494 -2.0787
  951MOL0     H28336   3.080   5.281  10.669 -0.3877  0.6693  0.0607
  951MOL0     H28337   2.937   5.115  10.473 -0.6301  1.0970  1.6537
  951MOL0     H28338   2.960   5.036  10.630  0.4193  0.4273  0.5423
  951MOL0     H28339   2.693   5.032  10.482  0.3544 -2.3634 -0.8276
  951MOL0     H28340   2.729   4.965  10.649  1.4767 -0.2455  0.9679
  951MOL0     H28341   2.903   4.826  10.533  0.0133 -1.9963 -0.1258
  951MOL0     H28342   2.867   4.892  10.376  0.9703 -1.5112 -0.6129
  951MOL0     H28343   2.704   4.706  10.545  4.1208  2.6585  2.0075
  951MOL0     H28344   2.766   4.707  10.375 -0.2549 -0.0666  0.7082
  951MOL0     H28345   2.377   4.880  10.534  1.6046  0.6448 -1.9879
  951MOL0     H28346   2.055   4.781  10.525 -1.3855 -1.3367 -0.0811
  951MOL0     H28347   2.103   4.665  10.654 -1.6888 -2.2210 -2.8626
  951MOL0     H28348   2.180   4.821  10.657 -2.6718 -0.1412  0.7636
  951MOL0     H28349   1.942   4.432  10.138 -2.6519  2.8277  2.7782
  951MOL0     H28350   1.742   4.295  10.106  0.2615  3.5447  1.1193
  951MOL0     H28351   1.473   4.042  10.216 -1.2656  2.4016 -0.1616
  951MOL0     H28352   1.537   4.197  10.150  2.5790  0.1271 -0.2716
  951MOL0     H28353   1.491   4.017   9.991 -1.0132  1.8923  1.1841
  951MOL0     H28354   1.659   4.067   9.973 -0.9259  1.7626  0.9387
  951MOL0     H28355   1.544   3.832  10.131 -0.9898 -0.0290 -1.0698
  951MOL0     H28356   1.718   3.867  10.145 -0.1742  0.9025  0.4701
  951MOL0     H28357   1.554   3.810   9.885  3.6200 -1.3168 -6.0336
  951MOL0     H28358   1.722   3.847   9.890 -0.3889  1.0804  0.5592
  951MOL0     H28359   1.595   3.600  10.022  1.5690  1.3116  0.7517
  951MOL0     H28360   1.768   3.637  10.003 -0.6783 -2.1801  0.7128
  951MOL0     H28361   1.588   3.602   9.775  1.6206  2.3029 -1.1774
  951MOL0     H28362   1.774   3.604   9.777  1.7085 -3.8787 -0.5971
  951MOL0     H28363   1.618   3.377   9.891 -0.2837  1.4788  1.7749
  951MOL0     H28364   1.800   3.407   9.857  0.5494  0.6095 -3.0112
  951MOL0     H28365   1.564   3.395   9.660  0.0739 -3.3485 -1.6506
  951MOL0     H28366   1.656   3.260   9.692  1.3302 -1.0752 -1.6323
  951MOL0     H28367   1.832   4.060  10.451  1.7276  0.5357  0.6897
  951MOL0     H28368   2.041   4.216  10.487  0.7679 -0.3650 -1.2777
  951MOL0     H28369   2.363   4.433  10.329 -1.2492  2.5615 -3.2392
  951MOL0     H28370   2.564   4.564  10.331 -0.3054  1.2938 -2.3016
  951MOL0     H28371   2.091   5.804  10.670 -0.8626 -2.6447  0.8225
  951MOL0     H28372   1.992   5.632  10.532 -1.3734  3.0244  2.2808
  951MOL0     H28373   2.064   5.357  10.150 -0.1073  0.0021 -1.0497
  951MOL0     H28374   1.984   5.172  10.002 -1.3180 -0.9720  0.5254
  951MOL0     H28375   1.553   5.217   9.889  2.0629  0.1188 -0.7571
  951MOL0     H28376   1.604   5.079   9.792  3.2371  0.8525 -1.0777
  951MOL0     H28377   1.506   5.087  10.071 -0.9626 -1.6277  1.3307
  951MOL0     H28378   1.573   4.942  10.016 -1.6995 -0.0179  1.6803
  951MOL0     H28379   1.384   4.869   9.944 -1.5690 -0.0874 -1.7539
  951MOL0     H28380   1.402   4.955   9.803 -0.1025 -1.0243  0.7571
  951MOL0     H28381   1.292   5.158   9.891 -1.7595 -1.1735 -3.2831
  951MOL0     H28382   1.256   5.077  10.040  0.2431 -1.7423  0.9271
  951MOL0     H28383   0.965   4.922   9.772 -0.0810  0.2585 -0.3349
  951MOL0     H28384   1.588   5.265  10.105 -0.3858  1.8163 -0.4432
  951MOL0     H28385   1.657   5.444  10.252  0.3905  0.7268 -0.3453
  952MOL0     O28386   1.113   9.709   1.546 -0.3479 -0.1429 -0.3172
  952MOL0     C28387   1.176   9.807   1.597  0.3277  0.4456 -0.3655
  952MOL0     O28388   1.319   9.802   1.618  0.1578 -1.1295 -0.3098
  952MOL0     C28389   1.398   9.691   1.626 -0.3429 -0.9010 -0.3027
  952MOL0     C28390   1.536   9.707   1.611  0.2163  0.7678 -0.4380
  952MOL0     C28391   1.629   9.593   1.619  0.7244  0.7323  0.0001
  952MOL0     C28392   1.581   9.461   1.620 -0.5501  0.3367 -0.4581
  952MOL0     O28393   1.672   9.359   1.627  0.0800 -0.2960  0.0299
  952MOL0     C28394   1.616   9.231   1.609 -0.1184  0.9430 -0.1237
  952MOL0     C28395   1.727   9.130   1.588 -0.7080  0.1472  1.0880
  952MOL0     C28396   1.819   9.102   1.703 -0.4737  0.0035 -0.5757
  952MOL0     C28397   1.947   9.027   1.674 -0.0607  1.1084 -0.6479
  952MOL0     C28398   2.028   8.975   1.797  0.4447  0.0052 -0.0940
  952MOL0     C28399   2.111   9.098   1.851 -0.1095 -0.3465 -0.0736
  952MOL0     C28400   2.234   9.043   1.931 -0.6253 -0.1664  0.0049
  952MOL0     C28401   2.342   8.977   1.841 -0.4709  0.5517 -0.1758
  952MOL0     N28402   2.470   8.980   1.916 -0.1047 -0.2089 -0.8478
  952MOL0     C28403   2.541   9.081   1.976 -0.1291 -0.9810  0.8789
  952MOL0     C28404   2.629   9.021   2.060  0.1318 -0.0090 -0.4288
  952MOL0     C28405   2.717   9.086   2.160  0.6742 -0.6246  0.0687
  952MOL0     C28406   2.624   9.121   2.284 -0.1925  0.1523 -1.1372
  952MOL0     C28407   2.581   9.003   2.376  0.1339  0.4957  0.5346
  952MOL0     C28408   2.689   8.962   2.485 -0.2825  0.5604 -0.4945
  952MOL0     O28409   2.665   9.007   2.621 -0.3376 -0.3456  0.3754
  952MOL0     C28410   2.585   8.927   2.692 -0.2460  0.0919 -0.5789
  952MOL0     C28411   2.601   8.932   2.832 -0.3562  0.0077  0.8391
  952MOL0     C28412   2.527   8.865   2.923 -0.4486  0.7981 -0.5746
  952MOL0     C28413   2.564   8.886   3.062 -0.3424 -0.4801  0.6017
  952MOL0     C28414   2.428   8.770   2.872  0.2544 -0.2061  0.0228
  952MOL0     C28415   2.353   8.675   2.962  0.7404  1.1535 -0.3302
  952MOL0     O28416   2.229   8.623   2.921  0.0779  0.4969 -0.3539
  952MOL0     C28417   2.168   8.523   3.001  0.5025 -0.3307 -1.0176
  952MOL0     C28418   2.092   8.430   2.932 -0.6797 -0.0193  0.6264
  952MOL0     C28419   2.042   8.326   3.004  0.9925 -0.2052 -0.0866
  952MOL0     C28420   2.026   8.328   3.138  0.5704  0.2597  0.3485
  952MOL0     O28421   1.956   8.217   3.196 -0.2542 -0.2697 -0.9168
  952MOL0     C28422   2.036   8.105   3.221 -0.5024  0.3008 -0.9105
  952MOL0     C28423   2.107   8.119   3.362 -0.3660 -0.5283  0.7511
  952MOL0     C28424   2.179   7.993   3.411 -0.0755  0.0103  0.6125
  952MOL0     C28425   2.294   7.942   3.326  0.2138 -0.0080  0.6525
  952MOL0     C28426   2.375   7.837   3.403  0.4064 -0.7459 -0.0121
  952MOL0     C28427   2.448   7.734   3.310 -0.2847 -0.3587  0.2219
  952MOL0     C28428   2.519   7.625   3.381  0.2586 -0.4564 -0.2343
  952MOL0     C28429   2.428   7.522   3.448  0.1406 -0.2308  0.0105
  952MOL0    Cl28430   2.524   7.382   3.491 -0.1231 -0.3937 -0.2555
  952MOL0     C28431   2.083   8.433   3.207  0.9108  0.0655 -0.4895
  952MOL0     C28432   2.157   8.525   3.146 -0.1837  0.1897  0.0855
  952MOL0     O28433   2.421   8.635   3.060  0.1412  0.2434  0.1564
  952MOL0     C28434   2.412   8.764   2.740 -0.0629  0.0790  0.0429
  952MOL0     C28435   2.489   8.837   2.650  0.8620 -1.3716  0.0857
  952MOL0     N28436   2.619   8.886   2.048  0.9814 -0.4743 -0.0159
  952MOL0     N28437   2.525   8.861   1.969 -0.6958 -0.1602  0.3704
  952MOL0     C28438   1.440   9.448   1.608 -0.1949  0.8337 -0.0572
  952MOL0     C28439   1.354   9.559   1.631 -0.0464  0.1381  0.5865
  952MOL0     C28440   1.103   9.937   1.615 -0.1052  0.8946  0.2928
  952MOL0     C28441   1.172  10.052   1.650  0.5189  0.8685 -0.6385
  952MOL0     C28442   1.118  10.170   1.664  0.4624 -0.6319  0.8667
  952MOL0     C28443   0.981  10.188   1.636  0.7487  0.5405 -0.0205
  952MOL0     O28444   0.922  10.312   1.645 -0.5849  0.1290 -0.2558
  952MOL0     C28445   0.894  10.379   1.518 -0.4721 -0.9592 -1.4076
  952MOL0     C28446   1.026  10.409   1.448  0.7091 -0.6810  0.6347
  952MOL0     C28447   1.128  10.498   1.515 -0.0378  0.3019  0.1960
  952MOL0     C28448   1.269  10.498   1.460  0.5374 -0.5326  0.0812
  952MOL0     C28449   1.333  10.364   1.478 -0.4222 -0.6872  0.1610
  952MOL0     C28450   1.396  10.262   1.478 -0.0456 -0.5822  0.1035
  952MOL0     C28451   0.910  10.070   1.596  0.0800  0.7450 -0.4370
  952MOL0     C28452   0.969   9.949   1.585 -0.4908  0.1357  0.0298
  952MOL0     H28453   1.570   9.810   1.601 -0.1760  0.7198 -2.6838
  952MOL0     H28454   1.737   9.608   1.621  0.7683  0.4653 -0.4013
  952MOL0     H28455   1.559   9.195   1.695 -0.5520 -0.6223 -1.0359
  952MOL0     H28456   1.545   9.219   1.526  1.7062  3.1908 -2.1699
  952MOL0     H28457   1.689   9.036   1.546  0.1170  1.0962 -2.0290
  952MOL0     H28458   1.781   9.171   1.502 -0.6587 -1.4160  0.3409
  952MOL0     H28459   1.845   9.200   1.744  1.5932 -1.5533  2.1408
  952MOL0     H28460   1.756   9.052   1.777 -3.2054  3.2059 -0.4723
  952MOL0     H28461   1.927   8.955   1.595 -2.5870  1.7355 -0.6613
  952MOL0     H28462   2.020   9.094   1.626 -1.2489  0.7133 -3.1388
  952MOL0     H28463   1.968   8.932   1.878 -1.5808  1.2744 -0.8383
  952MOL0     H28464   2.092   8.892   1.766 -0.9659 -0.7335 -1.1934
  952MOL0     H28465   2.155   9.177   1.791  1.5852  2.1209  4.0246
  952MOL0     H28466   2.053   9.159   1.920 -0.2516  0.9623 -1.3077
  952MOL0     H28467   2.274   9.134   1.975 -0.1550  0.2731 -1.2896
  952MOL0     H28468   2.211   8.965   2.004 -4.3795 -0.0818 -0.8984
  952MOL0     H28469   2.350   9.022   1.741 -0.7802  2.4871  0.6117
  952MOL0     H28470   2.307   8.875   1.823  0.0948  0.4830 -0.9411
  952MOL0     H28471   2.519   9.187   1.973  0.1794 -0.8195  2.8669
  952MOL0     H28472   2.785   9.004   2.185 -0.3106 -1.7133 -0.6999
  952MOL0     H28473   2.757   9.179   2.120  1.3503 -0.4035  1.2153
  952MOL0     H28474   2.538   9.170   2.237  2.3200  2.0740 -4.1126
  952MOL0     H28475   2.676   9.199   2.342  2.3198 -3.2124  1.5841
  952MOL0     H28476   2.562   8.915   2.315  2.3531  0.4336 -0.1584
  952MOL0     H28477   2.489   9.035   2.427  0.7215  2.8062  0.2588
  952MOL0     H28478   2.775   9.022   2.454 -1.0280  1.4860 -0.8697
  952MOL0     H28479   2.714   8.856   2.483 -1.4248  0.2333  0.9239
  952MOL0     H28480   2.672   9.007   2.865 -1.3335  1.2078  0.3204
  952MOL0     H28481   2.494   8.854   3.140 -0.1933 -0.3708  0.7809
  952MOL0     H28482   2.644   8.817   3.091 -0.1146 -3.0374 -4.8885
  952MOL0     H28483   2.588   8.992   3.073  1.4659 -0.5286 -2.0082
  952MOL0     H28484   2.081   8.408   2.826 -1.8976 -0.3262  0.7970
  952MOL0     H28485   2.006   8.239   2.951 -1.2741  0.9215 -0.5068
  952MOL0     H28486   1.968   8.021   3.238 -1.3210  1.3722  1.4679
  952MOL0     H28487   2.117   8.093   3.148  0.9652 -1.6096  0.8965
  952MOL0     H28488   2.175   8.205   3.362 -1.5973  0.7774 -4.1876
  952MOL0     H28489   2.026   8.145   3.431 -0.2380  1.3847  0.2529
  952MOL0     H28490   2.116   7.904   3.411 -1.8274  1.1904  1.3838
  952MOL0     H28491   2.216   8.019   3.510  1.0591  0.3865  0.1105
  952MOL0     H28492   2.268   7.914   3.224  0.2099  0.2463  0.5828
  952MOL0     H28493   2.367   8.024   3.319  2.1214 -1.4885  1.9355
  952MOL0     H28494   2.297   7.782   3.457 -0.0233 -0.4068 -0.2880
  952MOL0     H28495   2.441   7.885   3.476 -1.9397  1.0894  1.0382
  952MOL0     H28496   2.376   7.706   3.233  1.3010  2.2987 -2.4538
  952MOL0     H28497   2.524   7.788   3.253  0.8496 -1.2143  0.8802
  952MOL0     H28498   2.590   7.670   3.451 -1.6360 -0.9307  2.1130
  952MOL0     H28499   2.582   7.556   3.324 -0.1190 -1.1826  0.2241
  952MOL0     H28500   2.352   7.502   3.372  0.0316  1.5430 -0.3777
  952MOL0     H28501   2.386   7.573   3.535 -2.3006 -2.9536  0.5883
  952MOL0     H28502   2.076   8.428   3.315 -1.5984 -2.0946 -0.6522
  952MOL0     H28503   2.206   8.605   3.200  3.0555 -1.3854 -0.2610
  952MOL0     H28504   2.330   8.709   2.696  0.4722 -0.6150 -0.0968
  952MOL0     H28505   2.453   8.832   2.548 -1.9477  0.3512  0.9057
  952MOL0     H28506   1.383   9.357   1.595 -2.4238  2.2930 -1.0542
  952MOL0     H28507   1.247   9.543   1.632  0.0943 -0.9515  2.4723
  952MOL0     H28508   1.279  10.035   1.662  0.1758 -1.6324 -0.6168
  952MOL0     H28509   1.176  10.260   1.685  0.9825 -0.8301  0.3237
  952MOL0     H28510   0.840  10.303   1.461 -2.8670 -0.1862 -0.2856
  952MOL0     H28511   0.833  10.469   1.532 -1.7933 -1.6350 -2.7193
  952MOL0     H28512   1.018  10.449   1.347 -1.1547 -2.5179 -0.0232
  952MOL0     H28513   1.077  10.316   1.420 -0.2630 -0.6910 -1.2823
  952MOL0     H28514   1.133  10.479   1.623  1.5074  2.1486  0.5015
  952MOL0     H28515   1.086  10.598   1.511 -2.7812 -0.6922  1.6991
  952MOL0     H28516   1.325  10.573   1.517  0.0596 -1.1839  1.4589
  952MOL0     H28517   1.270  10.525   1.354  0.4926 -0.8431 -0.0000
  952MOL0     H28518   1.464  10.179   1.483 -1.0281 -1.4861 -0.9572
  952MOL0     H28519   0.804  10.065   1.573 -0.3206  2.3495  0.8604
  952MOL0     H28520   0.910   9.865   1.549 -0.8262  1.1213 -1.8732
  953MOL0     O28521   3.156   5.859   7.268 -0.6246 -0.7714  0.3590
  953MOL0     C28522   3.078   5.952   7.235 -0.2450  0.3697  0.0091
  953MOL0     O28523   2.943   5.939   7.250  0.2815 -0.7296  0.1303
  953MOL0     C28524   2.881   5.813   7.255  0.2676  0.1196  0.6030
  953MOL0     C28525   2.926   5.701   7.174  0.1571  0.5287  0.1338
  953MOL0     C28526   2.843   5.585   7.168  0.4518  0.3138 -1.5058
  953MOL0     C28527   2.722   5.575   7.242 -0.6477  0.1282  0.5568
  953MOL0     O28528   2.639   5.463   7.226 -0.5206 -0.4033  0.8072
  953MOL0     C28529   2.506   5.462   7.279 -0.0093  0.2385 -0.4049
  953MOL0     C28530   2.411   5.390   7.179 -0.6440 -0.1333  1.0148
  953MOL0     C28531   2.290   5.347   7.260  0.2435  0.1457  0.0566
  953MOL0     C28532   2.188   5.247   7.193 -0.5522  0.3820  0.0554
  953MOL0     C28533   2.062   5.231   7.281 -0.6997 -0.7635  0.1077
  953MOL0     C28534   1.973   5.122   7.218 -0.2008  0.2516  0.8422
  953MOL0     C28535   1.878   5.040   7.307 -0.3288 -0.4751  0.7303
  953MOL0     C28536   1.941   4.917   7.374 -0.5405 -0.3845 -0.8597
  953MOL0     N28537   2.030   4.957   7.490 -0.6835 -0.8241 -0.0341
  953MOL0     C28538   2.161   4.974   7.490 -1.0769 -0.4805 -0.8220
  953MOL0     C28539   2.195   5.020   7.613  0.3416 -0.4432 -0.5170
  953MOL0     C28540   2.333   5.048   7.663  0.7996  0.2256  1.1101
  953MOL0     C28541   2.346   5.201   7.676  0.0117  0.0736  0.0794
  953MOL0     C28542   2.501   5.243   7.690  0.1639  0.7389 -0.4966
  953MOL0     C28543   2.534   5.281   7.833 -1.1402  1.7438  0.0494
  953MOL0     O28544   2.662   5.342   7.836 -0.8703 -0.5068 -0.4311
  953MOL0     C28545   2.781   5.270   7.869  0.4422  0.3559 -0.2533
  953MOL0     C28546   2.797   5.129   7.887 -0.4829 -0.1889 -0.1769
  953MOL0     C28547   2.923   5.075   7.915  0.0802  0.1853  0.7234
  953MOL0     C28548   2.929   4.929   7.954 -0.4696 -0.1394 -0.2228
  953MOL0     C28549   3.047   5.158   7.908  0.4726  0.9191  0.2180
  953MOL0     C28550   3.176   5.124   7.970 -0.2628  0.0199 -0.1695
  953MOL0     O28551   3.258   5.229   8.015  0.0159  0.6460  0.3776
  953MOL0     C28552   3.242   5.275   8.148  0.1648  0.0398 -0.2180
  953MOL0     C28553   3.345   5.357   8.194  0.5004 -0.9356 -0.2360
  953MOL0     C28554   3.344   5.392   8.332 -0.1913  0.2927  0.1937
  953MOL0     C28555   3.240   5.371   8.417  0.6235  0.6430  0.0673
  953MOL0     O28556   3.231   5.414   8.544  0.1354  0.1655 -0.2962
  953MOL0     C28557   3.338   5.407   8.637 -0.1716 -0.1039  0.4723
  953MOL0     C28558   3.302   5.477   8.773 -0.8573  0.2569  0.1959
  953MOL0     C28559   3.415   5.549   8.849 -0.3528 -0.1340 -0.4420
  953MOL0     C28560   3.408   5.706   8.848 -0.1718  0.6100 -0.3934
  953MOL0     C28561   3.533   5.790   8.880 -0.0540  0.7034  0.7083
  953MOL0     C28562   3.635   5.732   8.989 -0.7919  0.2853  0.8877
  953MOL0     C28563   3.743   5.657   8.912  0.3169 -0.0447  0.4361
  953MOL0     C28564   3.816   5.580   9.021  0.4673  0.5723  0.7128
  953MOL0    Cl28565   3.858   5.680   9.167 -0.1230 -0.6716  0.0958
  953MOL0     C28566   3.134   5.301   8.373  0.6331 -0.3346  0.9959
  953MOL0     C28567   3.139   5.251   8.238  0.1018 -0.6760  0.4114
  953MOL0     O28568   3.200   5.012   7.993  0.5267  0.2115 -0.3493
  953MOL0     C28569   3.028   5.297   7.881  0.7592  1.1016 -0.1408
  953MOL0     C28570   2.898   5.347   7.864 -0.0269 -0.0199 -1.0920
  953MOL0     N28571   2.079   5.039   7.686 -0.0610  0.1506  0.0940
  953MOL0     N28572   1.982   5.011   7.602  0.4129 -0.4758  0.2851
  953MOL0     C28573   2.688   5.683   7.329 -0.0764  0.3129  0.2523
  953MOL0     C28574   2.774   5.797   7.339 -1.3845 -0.5133 -0.1304
  953MOL0     C28575   3.125   6.091   7.205 -0.0225 -0.1295  0.0817
  953MOL0     C28576   3.263   6.117   7.196  0.9560  0.3383 -1.0063
  953MOL0     C28577   3.304   6.251   7.176 -0.2011  0.0225  0.6417
  953MOL0     C28578   3.208   6.351   7.133  0.0391  0.5637 -0.5938
  953MOL0     O28579   3.249   6.472   7.095 -0.5940  0.4417  0.3847
  953MOL0     C28580   3.234   6.580   7.190 -0.3817 -0.4175 -0.4851
  953MOL0     C28581   3.374   6.637   7.242  0.3776  0.2678  1.3444
  953MOL0     C28582   3.451   6.722   7.129 -0.6006  0.0168 -0.4146
  953MOL0     C28583   3.578   6.789   7.200 -0.2004  0.2347  0.1535
  953MOL0     C28584   3.579   6.927   7.152  0.0270 -0.6510  0.2375
  953MOL0     C28585   3.570   7.042   7.113 -0.1089  0.5737 -0.3342
  953MOL0     C28586   3.081   6.312   7.110 -0.2025 -0.2787  0.7879
  953MOL0     C28587   3.040   6.192   7.172 -0.0968 -0.0102 -0.0906
  953MOL0     H28588   3.009   5.713   7.105  0.5893  2.2850  0.8975
  953MOL0     H28589   2.866   5.500   7.106 -0.0487 -1.5367  0.7039
  953MOL0     H28590   2.522   5.408   7.373  0.3477 -1.9883 -1.6946
  953MOL0     H28591   2.449   5.552   7.306 -3.8737 -1.4149 -2.4010
  953MOL0     H28592   2.387   5.454   7.094  2.3745  0.5580  0.5942
  953MOL0     H28593   2.460   5.298   7.145 -0.9732  0.6889 -1.9188
  953MOL0     H28594   2.331   5.293   7.346  1.7143  0.0612 -0.6771
  953MOL0     H28595   2.238   5.438   7.292  0.4817  1.7143 -3.5938
  953MOL0     H28596   2.147   5.288   7.100 -3.5971 -1.0818  0.6160
  953MOL0     H28597   2.246   5.156   7.177  0.0564  1.3130 -4.2083
  953MOL0     H28598   2.094   5.201   7.382  1.7949  3.5943  0.8745
  953MOL0     H28599   2.028   5.334   7.288  1.2962 -0.0219 -0.3735
  953MOL0     H28600   1.914   5.173   7.142 -0.9696 -0.9352  0.6252
  953MOL0     H28601   2.035   5.051   7.163 -0.3698  1.7857 -1.4866
  953MOL0     H28602   1.843   5.101   7.390 -2.2424 -4.0045  2.7680
  953MOL0     H28603   1.788   5.017   7.250 -0.4914  0.2980  0.6624
  953MOL0     H28604   2.002   4.860   7.304  0.6625 -0.1004 -0.0694
  953MOL0     H28605   1.872   4.844   7.418 -0.0713  0.8532  2.1876
  953MOL0     H28606   2.223   4.937   7.409 -2.6684 -2.9840 -0.9950
  953MOL0     H28607   2.349   4.992   7.755 -3.1026 -1.6875  0.8521
  953MOL0     H28608   2.398   5.011   7.582  0.9084 -1.2850  1.8519
  953MOL0     H28609   2.285   5.241   7.758 -0.4794  0.6615 -0.5665
  953MOL0     H28610   2.299   5.250   7.590 -2.8466 -3.0712 -0.4187
  953MOL0     H28611   2.520   5.334   7.632  0.3506  1.0171  0.0030
  953MOL0     H28612   2.562   5.159   7.655 -0.9384  0.0377 -0.7980
  953MOL0     H28613   2.529   5.195   7.899  0.8906  1.0745 -0.5623
  953MOL0     H28614   2.464   5.358   7.866 -3.7592 -0.8812  0.9409
  953MOL0     H28615   2.708   5.067   7.891 -3.4256  3.5683 -1.8424
  953MOL0     H28616   2.960   4.917   8.058  0.9084  0.4344 -0.5469
  953MOL0     H28617   2.832   4.879   7.941 -0.0952 -1.2436  1.0807
  953MOL0     H28618   3.001   4.874   7.892  1.2666 -1.2815  2.6173
  953MOL0     H28619   3.422   5.400   8.131  0.2851 -2.0813 -1.3217
  953MOL0     H28620   3.432   5.452   8.353  2.9673 -2.9165 -2.7190
  953MOL0     H28621   3.374   5.305   8.652 -4.3327 -1.5555  2.0266
  953MOL0     H28622   3.424   5.463   8.599  0.1729 -0.6491  0.4356
  953MOL0     H28623   3.230   5.556   8.752 -0.6964  0.1817 -0.6785
  953MOL0     H28624   3.261   5.394   8.832 -0.5088  0.7198  1.0891
  953MOL0     H28625   3.511   5.523   8.803 -0.0448  3.0112 -1.8229
  953MOL0     H28626   3.419   5.518   8.954 -0.9204  0.8688 -0.1163
  953MOL0     H28627   3.361   5.746   8.758  0.6456 -1.5223 -1.8217
  953MOL0     H28628   3.344   5.739   8.931  0.9235 -1.8623  1.5778
  953MOL0     H28629   3.498   5.887   8.915  3.2249  2.3925 -0.3284
  953MOL0     H28630   3.586   5.818   8.788  1.4280  2.3920  2.0174
  953MOL0     H28631   3.674   5.818   9.045  0.8420 -1.1649  2.0758
  953MOL0     H28632   3.594   5.651   9.051 -2.3515  1.0983  0.9928
  953MOL0     H28633   3.812   5.719   8.852  1.6022  0.6482  2.5165
  953MOL0     H28634   3.709   5.597   8.827 -0.1751 -1.2149  1.4337
  953MOL0     H28635   3.906   5.549   8.968 -1.4835  1.3918 -3.4972
  953MOL0     H28636   3.750   5.500   9.056 -1.1472  1.3228 -0.5074
  953MOL0     H28637   3.050   5.292   8.441  0.2642  3.4059  1.2691
  953MOL0     H28638   3.061   5.184   8.202  2.5851 -2.3861 -2.2000
  953MOL0     H28639   3.110   5.363   7.855  0.2006  0.8829 -2.7083
  953MOL0     H28640   2.902   5.454   7.844  1.5434 -0.4536 -3.6092
  953MOL0     H28641   2.592   5.695   7.379 -1.8142  0.9231 -2.9644
  953MOL0     H28642   2.765   5.886   7.401 -1.7155  1.9579 -3.4361
  953MOL0     H28643   3.332   6.036   7.218 -0.0252  0.4174  3.2079
  953MOL0     H28644   3.401   6.295   7.194 -0.8000  0.7517  2.2133
  953MOL0     H28645   3.204   6.660   7.122  1.4081 -1.5257 -2.7243
  953MOL0     H28646   3.161   6.557   7.269 -1.1000  2.4822 -0.2141
  953MOL0     H28647   3.425   6.544   7.268  0.1544 -0.1133  0.4646
  953MOL0     H28648   3.340   6.697   7.327 -2.0902  3.2995 -1.5103
  953MOL0     H28649   3.391   6.799   7.081 -0.7550  1.0276  1.3371
  953MOL0     H28650   3.492   6.670   7.041 -1.3277  3.0499 -2.7039
  953MOL0     H28651   3.667   6.736   7.165  0.0414  0.2158  0.7724
  953MOL0     H28652   3.568   6.777   7.308 -0.0354  0.0879  0.1533
  953MOL0     H28653   3.551   7.128   7.052 -0.3346  0.6689 -0.1339
  953MOL0     H28654   3.006   6.378   7.066  0.4798  0.8325  1.2404
  953MOL0     H28655   2.932   6.176   7.167 -0.1680  0.0172  1.0926
  954MOL0     O28656   4.266   4.289   0.863  0.2896  0.1229 -0.2096
  954MOL0     C28657   4.256   4.166   0.857  0.0135 -1.2635 -0.6082
  954MOL0     O28658   4.182   4.092   0.767 -0.2603  0.7457 -0.2363
  954MOL0     C28659   4.118   4.166   0.668  0.9084 -0.2839 -0.6952
  954MOL0     C28660   4.185   4.262   0.587  0.3721  0.6089 -0.1822
  954MOL0     C28661   4.111   4.340   0.495 -0.4172 -0.3266 -0.3878
  954MOL0     C28662   3.975   4.315   0.474 -0.6807  0.0208 -0.1843
  954MOL0     O28663   3.901   4.383   0.387  0.1487 -0.3609  0.0402
  954MOL0     C28664   3.866   4.297   0.273  0.0104 -0.8730 -0.1383
  954MOL0     C28665   3.848   4.391   0.149 -0.7663 -0.1558 -0.1290
  954MOL0     C28666   3.860   4.311   0.021  0.2731  0.1940 -0.2281
  954MOL0     C28667   3.724   4.260  -0.033 -0.0426 -1.1440  0.5565
  954MOL0     C28668   3.663   4.145   0.058 -0.7999 -0.7264 -0.1439
  954MOL0     C28669   3.601   4.044  -0.036 -0.4588 -0.3655 -0.4143
  954MOL0     C28670   3.564   3.910   0.042  0.1198 -0.2609  0.8486
  954MOL0     C28671   3.515   3.799  -0.057 -0.3734  0.0254 -0.1407
  954MOL0     N28672   3.461   3.693   0.025 -0.0724 -0.4156  0.5569
  954MOL0     C28673   3.354   3.703   0.107 -0.1183  0.5336  0.2441
  954MOL0     C28674   3.338   3.581   0.146  0.2465 -0.2564 -1.1725
  954MOL0     C28675   3.230   3.531   0.244  0.6762 -0.0229 -0.3440
  954MOL0     C28676   3.137   3.442   0.159 -0.3109  0.6189 -0.0590
  954MOL0     C28677   3.072   3.340   0.251 -0.1307  0.0415  0.6550
  954MOL0     C28678   2.948   3.270   0.184  0.1418  0.2909  0.4204
  954MOL0     O28679   2.991   3.205   0.069 -0.2827 -0.3299 -0.5122
  954MOL0     C28680   2.894   3.153  -0.021 -0.3040  0.3876  0.1283
  954MOL0     C28681   2.935   3.111  -0.140  0.1924  0.6559 -0.1360
  954MOL0     C28682   2.846   3.055  -0.239  0.1833 -0.5071  0.6849
  954MOL0     C28683   2.899   3.017  -0.375  0.1141  0.6272  0.5360
  954MOL0     C28684   2.708   3.054  -0.217 -0.6682 -1.1016 -0.1687
  954MOL0     C28685   2.608   3.020  -0.324  1.7553  0.6426 -0.0211
  954MOL0     O28686   2.481   3.071  -0.315  0.0548  0.0999  0.0485
  954MOL0     C28687   2.404   3.065  -0.428  0.8654 -0.2842  0.2542
  954MOL0     C28688   2.422   3.131  -0.552 -0.1930  0.4656  0.7445
  954MOL0     C28689   2.337   3.107  -0.661  0.6113 -0.2547  0.5513
  954MOL0     C28690   2.228   3.021  -0.658 -0.3433  0.6082  0.5214
  954MOL0     O28691   2.168   3.001  -0.782  0.6478 -1.1082 -0.0211
  954MOL0     C28692   2.051   2.921  -0.793  0.6923 -0.2807  0.6999
  954MOL0     C28693   2.081   2.769  -0.800 -0.4082  0.2111 -0.3224
  954MOL0     C28694   2.211   2.726  -0.874  1.3445 -0.1882  0.5819
  954MOL0     C28695   2.237   2.773  -1.016  0.1269 -0.1841  0.5987
  954MOL0     C28696   2.382   2.768  -1.079  0.2240 -0.7353  0.1569
  954MOL0     C28697   2.407   2.865  -1.194 -0.0025  0.4666 -0.0035
  954MOL0     C28698   2.328   2.823  -1.316  0.4870 -1.0444  0.7064
  954MOL0     C28699   2.351   2.917  -1.434  0.5604  0.8583 -1.0619
  954MOL0    Cl28700   2.199   2.965  -1.506 -0.4309 -0.1294 -0.6172
  954MOL0     C28701   2.204   2.968  -0.533  0.1431 -0.4770 -0.2272
  954MOL0     C28702   2.284   2.999  -0.418  0.5567  0.7464  0.3823
  954MOL0     O28703   2.638   2.935  -0.405 -0.1245  0.9537  0.5281
  954MOL0     C28704   2.661   3.096  -0.084  0.0413  0.3322 -1.6187
  954MOL0     C28705   2.758   3.132   0.017  0.2111 -0.1368 -0.0580
  954MOL0     N28706   3.441   3.499   0.092  0.8538 -0.3155 -1.2815
  954MOL0     N28707   3.510   3.567   0.012 -0.0071  0.0920  0.2262
  954MOL0     C28708   3.910   4.225   0.555  0.4058  0.4434 -0.6240
  954MOL0     C28709   3.986   4.138   0.643 -0.1230 -0.1241  0.1419
  954MOL0     C28710   4.355   4.099   0.949 -0.9156 -1.1783  0.4860
  954MOL0     C28711   4.353   3.960   0.958  0.9182 -0.9391 -0.2715
  954MOL0     C28712   4.443   3.898   1.044  0.4985 -0.4215 -0.0641
  954MOL0     C28713   4.553   3.954   1.101  0.7585  0.5400  0.2603
  954MOL0     O28714   4.660   3.887   1.163  0.0985 -0.7528 -0.6370
  954MOL0     C28715   4.633   3.760   1.222  0.5841  0.5463  0.4291
  954MOL0     C28716   4.727   3.716   1.326 -0.5877  0.6934  0.5967
  954MOL0     C28717   4.682   3.619   1.435  0.5608 -0.1502 -1.1284
  954MOL0     C28718   4.804   3.606   1.527  0.7105 -0.4767  0.1321
  954MOL0     C28719   4.778   3.500   1.622 -0.6852  0.2184 -0.4121
  954MOL0     C28720   4.777   3.424   1.715  0.1279  0.9340 -0.4033
  954MOL0     C28721   4.554   4.087   1.098  0.3374  0.1081 -0.6637
  954MOL0     C28722   4.457   4.160   1.029 -0.5129  0.1992  0.2416
  954MOL0     H28723   4.288   4.283   0.614 -0.3175  0.9351  2.5100
  954MOL0     H28724   4.154   4.397   0.413 -2.4700  1.5080 -0.2779
  954MOL0     H28725   3.957   4.239   0.254  0.6150 -0.4574  1.2852
  954MOL0     H28726   3.776   4.243   0.304  0.6866 -1.0324  1.6861
  954MOL0     H28727   3.755   4.447   0.152 -1.2679 -0.9557 -0.4125
  954MOL0     H28728   3.929   4.464   0.140 -0.5415 -0.1778  1.4915
  954MOL0     H28729   3.896   4.379  -0.057 -1.6261  3.0249  1.1617
  954MOL0     H28730   3.930   4.229   0.035  0.7102  0.6633  0.3919
  954MOL0     H28731   3.646   4.335  -0.044  0.3244 -0.8264  0.0762
  954MOL0     H28732   3.751   4.219  -0.131  1.6801 -1.5232  1.1424
  954MOL0     H28733   3.746   4.095   0.108 -1.5845 -0.6811  1.2475
  954MOL0     H28734   3.586   4.180   0.127 -0.0072  0.0847  0.3445
  954MOL0     H28735   3.521   4.090  -0.094 -2.1436  0.0953  2.1413
  954MOL0     H28736   3.672   4.024  -0.118 -0.9679  1.3557 -1.3252
  954MOL0     H28737   3.662   3.872   0.073  0.5779 -0.1329 -0.3529
  954MOL0     H28738   3.497   3.923   0.127 -0.5619 -0.2767  0.3264
  954MOL0     H28739   3.603   3.776  -0.118  1.2336  1.5577  1.4674
  954MOL0     H28740   3.442   3.847  -0.123 -0.1894  0.1288 -0.2733
  954MOL0     H28741   3.302   3.794   0.133 -0.0596  0.2310  1.5244
  954MOL0     H28742   3.276   3.477   0.328  0.5803 -0.9727 -0.8939
  954MOL0     H28743   3.179   3.622   0.277 -0.1259 -0.0258 -1.5304
  954MOL0     H28744   3.202   3.396   0.084  0.7902  1.9694  0.0252
  954MOL0     H28745   3.062   3.508   0.115  0.0463 -0.8006 -3.0620
  954MOL0     H28746   3.029   3.388   0.339  2.7635 -0.6572  2.6046
  954MOL0     H28747   3.143   3.263   0.282 -1.3918 -0.9454  1.2104
  954MOL0     H28748   2.885   3.353   0.150 -0.4040  0.7496  2.4517
  954MOL0     H28749   2.907   3.202   0.259 -0.1385  0.2266  0.2102
  954MOL0     H28750   3.041   3.120  -0.161  0.2155  0.6646 -0.0152
  954MOL0     H28751   2.903   2.908  -0.377 -2.3940  0.4622  0.1630
  954MOL0     H28752   2.841   3.062  -0.457  0.9840 -0.1986 -0.5710
  954MOL0     H28753   3.003   3.050  -0.383 -0.3750  1.8223 -4.7111
  954MOL0     H28754   2.499   3.207  -0.547  1.6844 -1.4099  3.7619
  954MOL0     H28755   2.355   3.169  -0.749 -0.3088 -4.1223 -2.6958
  954MOL0     H28756   1.993   2.953  -0.706  0.8627 -0.4591  0.8780
  954MOL0     H28757   2.004   2.948  -0.888  0.7290  0.3642  0.8561
  954MOL0     H28758   2.072   2.741  -0.695 -3.6832  3.7763  0.5861
  954MOL0     H28759   1.993   2.724  -0.847  0.4096 -0.8013 -0.9115
  954MOL0     H28760   2.206   2.617  -0.869 -0.2962 -0.1143  1.3884
  954MOL0     H28761   2.293   2.769  -0.817  1.0074  0.6305  0.4654
  954MOL0     H28762   2.170   2.707  -1.072  0.4518 -1.5909  1.7934
  954MOL0     H28763   2.195   2.873  -1.031 -1.6667 -0.9661  0.1238
  954MOL0     H28764   2.408   2.675  -1.130 -0.2006  1.8483 -5.5261
  954MOL0     H28765   2.442   2.782  -0.989  0.9284  0.2421 -0.4512
  954MOL0     H28766   2.384   2.969  -1.167  2.4199  1.1870 -0.4830
  954MOL0     H28767   2.511   2.867  -1.228 -0.0198  0.5155 -0.0555
  954MOL0     H28768   2.222   2.837  -1.294  1.0764 -0.2609  3.4262
  954MOL0     H28769   2.345   2.721  -1.350 -0.2490 -0.2980 -2.1742
  954MOL0     H28770   2.410   2.878  -1.517  0.7433  2.3035 -1.6466
  954MOL0     H28771   2.401   3.010  -1.406  2.1676 -0.5937  1.1707
  954MOL0     H28772   2.125   2.893  -0.533 -0.2994 -0.0977 -2.8426
  954MOL0     H28773   2.270   2.950  -0.322 -0.0337 -1.3596 -0.7304
  954MOL0     H28774   2.559   3.105  -0.047  0.9040 -0.0678  1.0106
  954MOL0     H28775   2.724   3.152   0.118  1.7230 -0.2578  0.4907
  954MOL0     H28776   3.803   4.221   0.539  0.1283  0.4620  1.0530
  954MOL0     H28777   3.922   4.080   0.709 -1.1999  1.8464  0.9294
  954MOL0     H28778   4.273   3.900   0.916  0.7477 -0.0923 -1.1976
  954MOL0     H28779   4.433   3.791   1.056  1.3637 -0.4049  0.9818
  954MOL0     H28780   4.538   3.753   1.275 -1.0484 -1.5890 -2.5076
  954MOL0     H28781   4.638   3.685   1.142 -0.9926 -1.1682  1.8722
  954MOL0     H28782   4.786   3.801   1.363  0.9534  0.0004 -0.1632
  954MOL0     H28783   4.799   3.653   1.272 -0.8526 -1.1169  2.2489
  954MOL0     H28784   4.641   3.530   1.385 -2.0092 -0.4684  1.3102
  954MOL0     H28785   4.608   3.663   1.502  0.5497 -0.5078 -0.9016
  954MOL0     H28786   4.821   3.693   1.591 -2.5255  1.4102 -1.3230
  954MOL0     H28787   4.893   3.581   1.469  0.0651 -2.8882  0.0870
  954MOL0     H28788   4.768   3.364   1.803 -5.2120 -0.2066 -1.3393
  954MOL0     H28789   4.634   4.131   1.156  0.7497 -1.8032  0.2812
  954MOL0     H28790   4.479   4.266   1.032 -1.8228  0.4725  0.6339
  955MOL0     O28791   8.053   7.981   6.521 -0.1202  0.5128 -0.0032
  955MOL0     C28792   8.142   7.998   6.437  1.0678 -1.2954 -1.1049
  955MOL0     O28793   8.268   7.985   6.469 -0.1380  0.5249  0.0031
  955MOL0     C28794   8.317   7.931   6.590 -0.6707  0.1913 -0.1183
  955MOL0     C28795   8.298   7.978   6.722  0.0398 -0.6886  1.2175
  955MOL0     C28796   8.344   7.914   6.836  0.8737 -0.0807  0.0504
  955MOL0     C28797   8.426   7.798   6.824  0.5006 -0.9923 -0.3421
  955MOL0     O28798   8.482   7.746   6.940 -0.2197  0.3532  0.3181
  955MOL0     C28799   8.572   7.636   6.944  0.5983  0.3226  0.2239
  955MOL0     C28800   8.634   7.639   7.080  0.2908 -0.1260  0.1432
  955MOL0     C28801   8.751   7.734   7.092 -0.2188 -0.1599 -0.4316
  955MOL0     C28802   8.886   7.688   7.022  0.5314 -0.4498 -0.2834
  955MOL0     C28803   8.924   7.799   6.923 -0.5863  0.2438 -0.5384
  955MOL0     C28804   9.080   7.812   6.900  0.9731 -0.0446  1.3926
  955MOL0     C28805   9.101   7.919   6.791 -0.0235  0.8104  0.5313
  955MOL0     C28806   9.236   7.985   6.792  0.7325  0.3951  0.5614
  955MOL0     N28807   9.240   8.091   6.686  0.2208  0.2448 -0.0519
  955MOL0     C28808   9.331   8.095   6.576 -0.5923  0.1845 -0.3261
  955MOL0     C28809   9.273   8.192   6.503  0.0095  0.7510  0.0741
  955MOL0     C28810   9.326   8.233   6.365  0.1398 -0.4963  0.1433
  955MOL0     C28811   9.266   8.172   6.237  0.4492 -1.5075  0.5757
  955MOL0     C28812   9.274   8.021   6.252  0.2573  0.2726  0.8877
  955MOL0     C28813   9.215   7.951   6.134  0.6784 -0.2534 -0.0910
  955MOL0     O28814   9.308   7.949   6.032  0.0540 -0.5919 -0.0041
  955MOL0     C28815   9.270   7.893   5.911  0.6353 -0.1121 -0.2632
  955MOL0     C28816   9.174   7.787   5.902 -0.3174 -0.1278 -0.3370
  955MOL0     C28817   9.134   7.747   5.774  0.6769  0.3792 -0.4723
  955MOL0     C28818   9.010   7.648   5.762  0.1262  0.4851  0.7545
  955MOL0     C28819   9.192   7.809   5.658  0.0593  0.9667 -0.1392
  955MOL0     C28820   9.161   7.770   5.519  0.1755 -0.1788 -0.2929
  955MOL0     O28821   9.184   7.864   5.419 -1.0716  0.6327  0.3459
  955MOL0     C28822   9.187   7.826   5.287  0.0972  0.8544  0.3600
  955MOL0     C28823   9.131   7.897   5.180  0.5152  0.0716  0.5872
  955MOL0     C28824   9.133   7.837   5.052 -0.1580 -0.3820  0.3357
  955MOL0     C28825   9.199   7.714   5.027 -0.4676 -0.1922 -0.9108
  955MOL0     O28826   9.182   7.633   4.916  0.4447 -0.1039 -0.5368
  955MOL0     C28827   9.140   7.703   4.793 -0.7779 -0.0952  0.0485
  955MOL0     C28828   9.150   7.610   4.676  0.6707 -0.6247 -0.7142
  955MOL0     C28829   9.055   7.638   4.556 -0.0813  0.6582  0.3007
  955MOL0     C28830   9.122   7.687   4.427 -0.2588 -0.6132 -0.0725
  955MOL0     C28831   9.017   7.696   4.313 -0.1689  0.0322 -0.1227
  955MOL0     C28832   8.942   7.837   4.310  0.3807 -0.6430  0.0551
  955MOL0     C28833   9.021   7.966   4.271  0.1539  0.5823 -0.0074
  955MOL0     C28834   8.928   8.075   4.217 -0.4828 -0.0300  0.3367
  955MOL0    Cl28835   8.865   8.014   4.061 -0.1148 -0.0892 -0.0240
  955MOL0     C28836   9.266   7.650   5.127 -0.1491 -1.1755 -0.4356
  955MOL0     C28837   9.257   7.705   5.253  0.0265 -0.6641  0.2137
  955MOL0     O28838   9.149   7.650   5.500  0.0701  0.6050 -0.5330
  955MOL0     C28839   9.302   7.888   5.673 -0.0054 -0.6303 -0.6257
  955MOL0     C28840   9.336   7.939   5.798 -1.1500 -0.4386 -0.2852
  955MOL0     N28841   9.166   8.242   6.557  0.3729  0.1399  0.5531
  955MOL0     N28842   9.151   8.189   6.670  0.2079 -0.5618 -1.0142
  955MOL0     C28843   8.456   7.747   6.700 -0.8267  0.1471 -0.4223
  955MOL0     C28844   8.392   7.805   6.586 -0.0553 -0.4031 -0.2443
  955MOL0     C28845   8.109   8.020   6.295  0.5955  0.8240 -0.3581
  955MOL0     C28846   7.976   8.013   6.257 -0.1578  0.6197  0.1103
  955MOL0     C28847   7.939   8.033   6.128 -0.6559  0.5292 -0.4682
  955MOL0     C28848   8.030   8.050   6.022 -0.2975  0.2674  0.3500
  955MOL0     O28849   7.995   8.053   5.887  0.4698  0.0098 -0.0069
  955MOL0     C28850   7.933   7.929   5.835  0.0206  0.3197 -1.1404
  955MOL0     C28851   7.886   7.964   5.694 -0.5675 -0.6106 -0.7716
  955MOL0     C28852   7.790   7.858   5.640 -0.0898 -0.2992  0.3809
  955MOL0     C28853   7.744   7.896   5.495  0.8508 -0.3908 -0.3857
  955MOL0     C28854   7.842   7.883   5.386 -0.3755  0.8208 -0.1413
  955MOL0     C28855   7.909   7.852   5.288 -0.2145 -1.4648 -0.1911
  955MOL0     C28856   8.168   8.053   6.055 -0.1491  0.0094 -0.4109
  955MOL0     C28857   8.201   8.054   6.192 -1.4309 -0.1507  0.2522
  955MOL0     H28858   8.226   8.059   6.730  0.7521  0.2344 -0.9330
  955MOL0     H28859   8.296   7.949   6.927  1.6731  2.0398 -0.2846
  955MOL0     H28860   8.529   7.536   6.930 -1.7712  1.3754 -0.5406
  955MOL0     H28861   8.654   7.631   6.873 -0.3206  0.0917 -0.8545
  955MOL0     H28862   8.563   7.683   7.151  0.2773 -0.3286  0.2558
  955MOL0     H28863   8.657   7.537   7.111  0.8752  0.1372  0.5929
  955MOL0     H28864   8.716   7.828   7.047  0.9773 -0.0803 -1.2571
  955MOL0     H28865   8.783   7.744   7.196 -0.6353 -1.2543 -0.1906
  955MOL0     H28866   8.972   7.662   7.085  1.0200 -1.3593 -1.3022
  955MOL0     H28867   8.878   7.605   6.952  1.5282 -1.1012  0.3607
  955MOL0     H28868   8.879   7.770   6.827 -1.6160  0.9402 -0.2843
  955MOL0     H28869   8.871   7.892   6.946 -3.6932 -1.4865 -0.1902
  955MOL0     H28870   9.126   7.860   6.986  3.4791 -1.0884  0.7395
  955MOL0     H28871   9.131   7.718   6.875  3.6147  1.5869  0.2297
  955MOL0     H28872   9.063   7.888   6.693 -0.2676  0.4770  0.7278
  955MOL0     H28873   9.023   7.987   6.827 -1.6661 -1.6840  1.9647
  955MOL0     H28874   9.317   7.911   6.783  0.5602  0.3468 -0.7697
  955MOL0     H28875   9.241   8.036   6.889 -0.3198  2.0687 -0.2337
  955MOL0     H28876   9.408   8.022   6.555 -2.7532 -2.3992  0.1127
  955MOL0     H28877   9.327   8.343   6.363  0.1754 -0.5043 -0.4865
  955MOL0     H28878   9.431   8.206   6.373  0.3843  0.5967  0.9920
  955MOL0     H28879   9.320   8.217   6.153  2.6527  0.6763  3.0163
  955MOL0     H28880   9.162   8.204   6.224  1.1981  0.8328 -0.3507
  955MOL0     H28881   9.216   7.996   6.341 -0.7320  0.1537  0.2184
  955MOL0     H28882   9.377   7.985   6.260  0.8647  1.0220 -2.2291
  955MOL0     H28883   9.119   7.996   6.108  1.3782  1.8726  0.7232
  955MOL0     H28884   9.196   7.847   6.160 -0.5783  0.0182  0.1172
  955MOL0     H28885   9.110   7.754   5.984  1.4124 -0.7124  0.8331
  955MOL0     H28886   8.978   7.641   5.867  0.0981 -3.3462  0.6423
  955MOL0     H28887   8.942   7.697   5.692 -2.6906 -0.0507  2.9404
  955MOL0     H28888   9.049   7.556   5.719 -0.1899  1.4491 -1.7546
  955MOL0     H28889   9.075   7.988   5.200 -1.4539 -1.3036  1.5448
  955MOL0     H28890   9.074   7.898   4.984 -0.0787  1.7649  2.0843
  955MOL0     H28891   9.040   7.747   4.799  0.0154  1.7044  1.0039
  955MOL0     H28892   9.210   7.785   4.778  0.1625 -1.2405 -2.2423
  955MOL0     H28893   9.254   7.604   4.644  1.3014  1.8538  0.6123
  955MOL0     H28894   9.117   7.513   4.714  0.6469  0.6000  2.6935
  955MOL0     H28895   8.969   7.690   4.598 -0.5822  0.0283  0.0609
  955MOL0     H28896   9.041   7.535   4.523  0.6477  0.8057 -0.5035
  955MOL0     H28897   9.162   7.788   4.440  0.8619 -0.9550 -0.7592
  955MOL0     H28898   9.211   7.626   4.409  1.1463  1.0635  0.8676
  955MOL0     H28899   8.948   7.612   4.320 -0.0911  0.1098  2.5402
  955MOL0     H28900   9.082   7.696   4.225  0.9551  4.0027  0.4917
  955MOL0     H28901   8.878   7.829   4.222  3.6401  1.9459 -2.8310
  955MOL0     H28902   8.890   7.839   4.406 -0.5810  0.8782 -0.4683
  955MOL0     H28903   9.084   7.927   4.190 -2.7366 -2.0436 -1.1761
  955MOL0     H28904   9.085   7.995   4.354  2.8423  2.1070 -2.4078
  955MOL0     H28905   8.981   8.170   4.204  0.8393 -0.6401  1.0948
  955MOL0     H28906   8.848   8.097   4.289  0.7911  0.7808  1.5530
  955MOL0     H28907   9.320   7.558   5.109 -1.9243 -2.4271  0.2780
  955MOL0     H28908   9.307   7.655   5.336 -0.1423 -1.5861 -0.2241
  955MOL0     H28909   9.360   7.913   5.584 -0.3309 -2.1384 -1.2994
  955MOL0     H28910   9.421   8.006   5.811 -1.9602  0.1667  2.6045
  955MOL0     H28911   8.526   7.666   6.681 -1.5750 -0.6613  0.2336
  955MOL0     H28912   8.434   7.764   6.495 -1.5045  1.2492 -1.7381
  955MOL0     H28913   7.911   7.996   6.342  1.1015  0.7782  1.1297
  955MOL0     H28914   7.834   8.021   6.103 -0.1309 -2.0029 -1.7425
  955MOL0     H28915   8.019   7.862   5.832  1.5241  2.0053  1.0806
  955MOL0     H28916   7.858   7.887   5.902 -0.7137 -0.7014 -2.5514
  955MOL0     H28917   7.975   7.977   5.632  0.9911 -1.3778  1.1920
  955MOL0     H28918   7.840   8.063   5.699  2.1493  0.6766  1.1263
  955MOL0     H28919   7.697   7.862   5.697  0.2221  1.9923  0.8327
  955MOL0     H28920   7.837   7.759   5.638 -3.3010 -1.9499 -1.9965
  955MOL0     H28921   7.715   8.001   5.498  0.3839 -0.3127 -3.5679
  955MOL0     H28922   7.660   7.834   5.462  1.6280 -1.4238 -0.5023
  955MOL0     H28923   7.968   7.836   5.201  2.0461  3.2150  0.1610
  955MOL0     H28924   8.233   8.068   5.970 -1.5897  0.4869 -1.4645
  955MOL0     H28925   8.307   8.043   6.213 -0.8265  0.7858 -2.0043
  956MOL0     O28926  10.137   0.961   9.790 -0.1734 -1.0482  0.4657
  956MOL0     C28927  10.058   1.048   9.763  0.9406 -0.9194 -0.1427
  956MOL0     O28928  10.058   1.122   9.646 -0.5286 -0.1595 -0.4309
  956MOL0     C28929  10.158   1.122   9.549 -0.5885  0.5036  0.0787
  956MOL0     C28930  10.221   0.998   9.499  0.4949 -0.0367 -0.1863
  956MOL0     C28931  10.322   0.993   9.402 -0.3272 -0.0730  0.3264
  956MOL0     C28932  10.370   1.118   9.359 -1.0170  1.0333 -0.1940
  956MOL0     O28933  10.470   1.122   9.263  0.7428  0.0173  0.0406
  956MOL0     C28934  10.599   1.168   9.309 -0.2043  1.4771 -0.2253
  956MOL0     C28935  10.677   1.200   9.178 -0.0507 -0.2635 -0.0380
  956MOL0     C28936  10.743   1.071   9.121 -0.8643 -0.2158  0.5328
  956MOL0     C28937  10.892   1.070   9.162  1.2312 -0.1193  1.5320
  956MOL0     C28938  10.971   0.961   9.086  0.5419 -0.6845  0.7387
  956MOL0     C28939  11.112   0.934   9.146  1.2382  0.1869  0.1668
  956MOL0     C28940  11.214   1.044   9.128 -0.2310  0.3972 -0.2811
  956MOL0     C28941  11.337   0.990   9.217  1.5971  0.3089  0.0779
  956MOL0     N28942  11.462   1.059   9.190 -0.2206 -0.1380 -0.5643
  956MOL0     C28943  11.495   1.188   9.193  0.0870  0.1363  0.6722
  956MOL0     C28944  11.618   1.196   9.143 -1.1116  0.3226 -0.1205
  956MOL0     C28945  11.693   1.326   9.124  0.3061 -0.0088  0.2719
  956MOL0     C28946  11.849   1.311   9.146  0.3517 -0.3471 -0.0086
  956MOL0     C28947  11.922   1.423   9.073 -0.0022 -0.3507 -0.0160
  956MOL0     C28948  12.073   1.401   9.077  0.0053 -0.1185 -0.5102
  956MOL0     O28949  12.133   1.421   9.206  0.9388  0.2363  0.7972
  956MOL0     C28950  12.139   1.544   9.263  0.3762  0.3251  0.4379
  956MOL0     C28951  12.201   1.550   9.394  0.3810  0.6574  0.0271
  956MOL0     C28952  12.205   1.673   9.468  0.3484  0.2307 -0.4737
  956MOL0     C28953  12.248   1.660   9.609  0.1329 -0.1091 -0.0703
  956MOL0     C28954  12.169   1.791   9.407 -0.4924  0.1442 -1.3926
  956MOL0     C28955  12.195   1.927   9.469  0.4021 -0.3849  0.0237
  956MOL0     O28956  12.304   1.929   9.554  0.4770 -0.0663  0.1058
  956MOL0     C28957  12.354   2.035   9.622  0.6528  0.4628 -0.2161
  956MOL0     C28958  12.317   2.165   9.625  0.6785  0.0205  0.3263
  956MOL0     C28959  12.368   2.259   9.715  0.1111  0.6882  0.2446
  956MOL0     C28960  12.476   2.223   9.793 -0.0009  0.0582 -0.0252
  956MOL0     O28961  12.552   2.309   9.863  0.2013 -0.0924  0.3317
  956MOL0     C28962  12.508   2.440   9.877 -0.5397 -0.1105 -0.2154
  956MOL0     C28963  12.598   2.527   9.969  0.7117  1.0093 -0.3502
  956MOL0     C28964  12.591   2.469  10.113  0.3766  0.0334  0.7274
  956MOL0     C28965  12.699   2.530  10.196 -0.1029 -1.0090  0.1593
  956MOL0     C28966  12.698   2.684  10.199  0.6753 -0.0359  0.5081
  956MOL0     C28967  12.557   2.737  10.225 -0.1532 -0.0283 -0.7648
  956MOL0     C28968  12.499   2.689  10.361 -0.8045 -0.1341  0.2202
  956MOL0     C28969  12.412   2.800  10.419 -0.7902 -0.3126  0.1967
  956MOL0    Cl28970  12.248   2.826  10.352  0.2026 -0.2077 -0.5088
  956MOL0     C28971  12.512   2.092   9.797 -0.4025 -0.2611 -0.5417
  956MOL0     C28972  12.448   1.999   9.717  0.5671 -0.6461 -0.6263
  956MOL0     O28973  12.129   2.022   9.438  0.2783 -0.3369  0.4214
  956MOL0     C28974  12.111   1.785   9.275 -0.0350  0.1627 -1.4444
  956MOL0     C28975  12.091   1.667   9.206  0.3360 -0.0527  0.5740
  956MOL0     N28976  11.673   1.074   9.107 -0.2308  0.4491 -0.0116
  956MOL0     N28977  11.571   0.995   9.142 -0.6258 -0.4187 -0.0144
  956MOL0     C28978  10.322   1.238   9.404  0.6124  0.0648  0.2375
  956MOL0     C28979  10.221   1.243   9.497 -0.1334 -0.1213 -0.1940
  956MOL0     C28980   9.927   1.059   9.842 -0.5690  0.1321 -0.1923
  956MOL0     C28981   9.837   1.162   9.833 -0.7930  0.2330 -0.0399
  956MOL0     C28982   9.728   1.168   9.918  0.7548  0.0266  0.2943
  956MOL0     C28983   9.704   1.068  10.010 -0.4839  0.3682 -0.7476
  956MOL0     O28984   9.592   1.091  10.091  0.7210 -0.1033 -0.1578
  956MOL0     C28985   9.580   1.025  10.220 -0.2153 -0.3485 -1.0070
  956MOL0     C28986   9.473   1.087  10.300  0.6792  0.3765 -0.6221
  956MOL0     C28987   9.344   1.091  10.222  0.0677 -0.4649 -0.7244
  956MOL0     C28988   9.228   1.182  10.277 -0.5942  0.5634  0.6745
  956MOL0     C28989   9.115   1.190  10.186  0.4662 -0.3071 -0.0163
  956MOL0     C28990   9.024   1.189  10.112  0.5414  0.2575  0.1731
  956MOL0     C28991   9.782   0.951  10.022 -0.8983  0.5256 -0.7149
  956MOL0     C28992   9.894   0.947   9.936 -0.2067 -0.3323 -0.3064
  956MOL0     H28993  10.185   0.900   9.526 -2.5518  0.8097 -0.8802
  956MOL0     H28994  10.359   0.897   9.367  1.7468  0.9726 -0.5082
  956MOL0     H28995  10.586   1.251   9.379 -2.4526 -1.3157  3.0323
  956MOL0     H28996  10.646   1.093   9.374 -0.5606  0.9051 -0.6189
  956MOL0     H28997  10.607   1.236   9.103 -1.1604 -1.5559  0.3489
  956MOL0     H28998  10.751   1.279   9.197 -1.7893  0.8841  2.5209
  956MOL0     H28999  10.702   0.976   9.156 -0.3991 -0.3785  0.6403
  956MOL0     H29000  10.723   1.075   9.013  0.8838  1.3406  0.2168
  956MOL0     H29001  10.927   1.170   9.134 -1.5442 -0.2961 -4.1784
  956MOL0     H29002  10.892   1.069   9.271  0.0194 -1.5445  1.5489
  956MOL0     H29003  10.908   0.872   9.099 -1.4550  0.4198 -0.8904
  956MOL0     H29004  10.970   0.969   8.977 -6.9661 -3.8589 -0.0076
  956MOL0     H29005  11.103   0.901   9.250  4.3688 -0.5097  0.3093
  956MOL0     H29006  11.147   0.847   9.090 -1.9272  0.3950 -2.4520
  956MOL0     H29007  11.253   1.031   9.026 -0.6473  0.5072 -0.4534
  956MOL0     H29008  11.176   1.144   9.152 -0.0630  0.7020 -1.2239
  956MOL0     H29009  11.352   0.882   9.218  0.0941  0.0863  0.9700
  956MOL0     H29010  11.310   1.009   9.321  4.3561  0.7940  0.7808
  956MOL0     H29011  11.435   1.278   9.206  0.1349  0.5268 -1.3622
  956MOL0     H29012  11.688   1.344   9.016 -0.8470  1.4271  0.5377
  956MOL0     H29013  11.661   1.407   9.189  2.1365  1.5233 -0.6208
  956MOL0     H29014  11.883   1.218   9.098 -1.9802 -2.4100  2.0745
  956MOL0     H29015  11.870   1.314   9.253 -3.1535  1.1107  0.7603
  956MOL0     H29016  11.904   1.514   9.132  0.6021  0.7229 -1.4531
  956MOL0     H29017  11.899   1.444   8.969 -1.4886  1.8324  0.6830
  956MOL0     H29018  12.129   1.457   9.002  1.6993  1.1259  1.5511
  956MOL0     H29019  12.084   1.296   9.049  3.0649  0.3258 -1.3538
  956MOL0     H29020  12.235   1.458   9.440 -0.4997  0.6261  0.6404
  956MOL0     H29021  12.357   1.670   9.611  0.2840 -1.5712  0.1477
  956MOL0     H29022  12.195   1.727   9.677  1.7677  2.5289 -1.2375
  956MOL0     H29023  12.229   1.560   9.648  1.6449 -0.3144  0.1987
  956MOL0     H29024  12.226   2.191   9.573  0.5578 -0.3825  0.3334
  956MOL0     H29025  12.313   2.352   9.711 -1.1097 -0.0472 -1.9629
  956MOL0     H29026  12.500   2.490   9.780  0.6056 -0.6045 -0.5847
  956MOL0     H29027  12.408   2.439   9.922  0.2553  2.3179  1.8497
  956MOL0     H29028  12.689   2.519   9.909 -0.1802 -0.9784 -1.5365
  956MOL0     H29029  12.554   2.626   9.958 -2.3919 -0.3729 -1.6318
  956MOL0     H29030  12.617   2.363  10.112  4.2815  0.8442 -1.1101
  956MOL0     H29031  12.488   2.476  10.149 -0.7381 -0.0104 -2.2307
  956MOL0     H29032  12.695   2.486  10.296  0.2941 -1.0137  0.1755
  956MOL0     H29033  12.794   2.502  10.149  0.3527  0.5836  0.0682
  956MOL0     H29034  12.729   2.734  10.107 -2.2361 -0.3260 -0.7445
  956MOL0     H29035  12.768   2.715  10.277  1.2473 -2.2806  0.9696
  956MOL0     H29036  12.559   2.846  10.212  2.0521  0.0946  0.2106
  956MOL0     H29037  12.496   2.705  10.140  0.4147 -1.0914 -0.7886
  956MOL0     H29038  12.585   2.673  10.427  1.6469  1.8687 -2.2420
  956MOL0     H29039  12.450   2.592  10.355 -2.1042  0.2862  2.8962
  956MOL0     H29040  12.455   2.899  10.402  0.6947 -0.8031  0.9088
  956MOL0     H29041  12.416   2.780  10.526  0.9012  2.5843  0.7815
  956MOL0     H29042  12.602   2.067   9.852  2.7094 -1.1715 -5.4148
  956MOL0     H29043  12.466   1.892   9.729  0.5106 -0.3932  2.4428
  956MOL0     H29044  12.072   1.875   9.229 -1.2571 -0.6468 -2.0168
  956MOL0     H29045  12.036   1.670   9.113 -4.6974  1.5869  3.2275
  956MOL0     H29046  10.371   1.330   9.376  2.6765 -1.0100  0.1599
  956MOL0     H29047  10.171   1.334   9.530 -0.8092 -0.1976 -0.9797
  956MOL0     H29048   9.858   1.241   9.762  1.9662  0.2493  0.6858
  956MOL0     H29049   9.645   1.235   9.901 -0.5675 -2.2242 -3.0465
  956MOL0     H29050   9.592   0.916  10.221  2.5638 -0.1299 -1.2352
  956MOL0     H29051   9.675   1.056  10.265 -0.4629  0.2447 -0.8879
  956MOL0     H29052   9.501   1.192  10.314 -0.9236  1.0354 -2.0000
  956MOL0     H29053   9.459   1.033  10.393 -1.2941 -1.4629 -1.9008
  956MOL0     H29054   9.298   0.992  10.225  0.6104 -0.7398 -1.1537
  956MOL0     H29055   9.358   1.122  10.118 -2.0725  0.7217 -0.7218
  956MOL0     H29056   9.277   1.280  10.270 -0.3531  0.3204 -1.9366
  956MOL0     H29057   9.189   1.158  10.377  0.0830  1.0879  1.0748
  956MOL0     H29058   8.943   1.186  10.041  0.4291  0.1862  0.3040
  956MOL0     H29059   9.761   0.863  10.081  1.1342 -0.0715 -0.7891
  956MOL0     H29060   9.959   0.861   9.948  3.2522  2.1607  0.3757
  957MOL0     O29061   2.419   8.948   4.511 -0.0151  0.4098 -0.4853
  957MOL0     C29062   2.478   8.965   4.622  0.4482 -0.0951  1.0735
  957MOL0     O29063   2.539   9.085   4.663  0.2342  0.2226 -0.3108
  957MOL0     C29064   2.550   9.178   4.560 -0.3562  0.5118  0.5458
  957MOL0     C29065   2.478   9.290   4.562  0.7430  0.0027 -0.4973
  957MOL0     C29066   2.489   9.389   4.465  0.1087  0.2326 -0.5966
  957MOL0     C29067   2.591   9.370   4.365 -0.0025 -0.4159 -0.5971
  957MOL0     O29068   2.587   9.465   4.275  0.0928 -0.2226  0.8601
  957MOL0     C29069   2.702   9.491   4.199 -0.4908  0.1971  0.8401
  957MOL0     C29070   2.800   9.584   4.271  0.7315  0.6835  0.4210
  957MOL0     C29071   2.722   9.701   4.328  0.3139  0.1766 -0.3709
  957MOL0     C29072   2.810   9.829   4.343  0.4960 -0.1937  0.4427
  957MOL0     C29073   2.739   9.961   4.370 -0.7882 -0.4640 -0.4281
  957MOL0     C29074   2.689  10.015   4.241 -0.3259  0.0658 -0.2522
  957MOL0     C29075   2.601  10.141   4.248 -0.5369 -0.1919  0.4731
  957MOL0     C29076   2.457  10.115   4.209 -0.3004  0.0980 -0.0678
  957MOL0     N29077   2.384  10.013   4.286 -0.2151  0.5798  0.8569
  957MOL0     C29078   2.383  10.012   4.426 -0.9609 -0.4528  0.5381
  957MOL0     C29079   2.279   9.939   4.450  0.0585 -0.1496  0.1120
  957MOL0     C29080   2.240   9.897   4.590 -1.0369 -0.9070 -0.1914
  957MOL0     C29081   2.312   9.762   4.627  0.6620 -0.5018  0.0596
  957MOL0     C29082   2.280   9.713   4.775  0.3694 -0.0718  0.3367
  957MOL0     C29083   2.372   9.595   4.820 -0.1651  0.3516  0.2837
  957MOL0     O29084   2.514   9.637   4.825 -0.3721  0.3920  0.3665
  957MOL0     C29085   2.600   9.528   4.813 -0.1625  0.5256  1.0571
  957MOL0     C29086   2.705   9.528   4.725 -0.5852 -0.0596 -0.2769
  957MOL0     C29087   2.804   9.427   4.720 -0.7688  0.8658  0.3917
  957MOL0     C29088   2.915   9.444   4.616 -0.0035 -0.2806  0.9785
  957MOL0     C29089   2.789   9.311   4.792 -0.4522 -0.4791 -0.4921
  957MOL0     C29090   2.880   9.199   4.789  0.3594  0.6844 -0.2521
  957MOL0     O29091   2.825   9.077   4.836 -0.3169  0.2834  0.9080
  957MOL0     C29092   2.878   8.961   4.781 -0.3499 -0.3148 -0.4566
  957MOL0     C29093   3.005   8.923   4.831 -0.2196  0.1484 -1.0910
  957MOL0     C29094   3.071   8.813   4.766  0.2393  0.4761 -0.7299
  957MOL0     C29095   3.009   8.737   4.672  0.8910  0.6732 -0.0814
  957MOL0     O29096   3.077   8.639   4.606  0.5331  0.4286 -0.0511
  957MOL0     C29097   3.018   8.507   4.616 -0.2559 -0.6127 -0.2435
  957MOL0     C29098   3.118   8.412   4.690 -0.9196 -0.1257 -0.3614
  957MOL0     C29099   3.259   8.418   4.634 -0.2843 -0.0470  0.8825
  957MOL0     C29100   3.326   8.281   4.654 -0.1608  0.1130 -0.5866
  957MOL0     C29101   3.460   8.283   4.577  0.3381  0.6072 -0.2356
  957MOL0     C29102   3.542   8.156   4.606 -0.4545 -0.4309 -0.7306
  957MOL0     C29103   3.491   8.038   4.525  0.3523 -0.8624  0.2387
  957MOL0     C29104   3.539   7.902   4.578  0.5600 -0.4851  0.7340
  957MOL0    Cl29105   3.718   7.891   4.550 -0.1547 -0.3669 -0.0042
  957MOL0     C29106   2.879   8.782   4.620 -1.2773  0.9241 -0.5007
  957MOL0     C29107   2.818   8.887   4.678 -0.8059 -0.5413  0.2964
  957MOL0     O29108   2.995   9.222   4.768  0.0859  0.4847 -0.2660
  957MOL0     C29109   2.681   9.311   4.880  0.4498  0.1468  0.3457
  957MOL0     C29110   2.583   9.412   4.885  0.6392  0.1068 -0.5369
  957MOL0     N29111   2.219   9.884   4.344  0.4289 -0.4339  0.4861
  957MOL0     N29112   2.288   9.927   4.239 -0.1998 -0.5923 -0.9579
  957MOL0     C29113   2.670   9.255   4.364 -0.4287  0.1283 -1.0300
  957MOL0     C29114   2.648   9.157   4.458 -0.5581 -0.4251  0.1024
  957MOL0     C29115   2.470   8.866   4.730  0.5425 -0.2519 -0.1214
  957MOL0     C29116   2.539   8.882   4.857 -0.6874 -0.9552 -0.1350
  957MOL0     C29117   2.514   8.788   4.960 -0.1972 -0.0768  0.0749
  957MOL0     C29118   2.432   8.678   4.953 -0.5915  0.1647 -0.4151
  957MOL0     O29119   2.419   8.610   5.073 -0.3575  0.0358  0.8764
  957MOL0     C29120   2.338   8.489   5.063  1.0799  0.1476 -0.7972
  957MOL0     C29121   2.362   8.392   5.180  0.3073 -0.0974  0.7751
  957MOL0     C29122   2.356   8.462   5.311 -0.3549 -0.4328 -0.4156
  957MOL0     C29123   2.232   8.555   5.331 -0.4519 -0.1295 -0.2590
  957MOL0     C29124   2.251   8.639   5.450 -0.5471  0.5574  0.4369
  957MOL0     C29125   2.280   8.697   5.556 -0.6025 -0.2102  0.6033
  957MOL0     C29126   2.367   8.667   4.832 -0.0982 -1.0113 -0.2387
  957MOL0     C29127   2.387   8.749   4.725  0.3411 -1.2071  0.0642
  957MOL0     H29128   2.404   9.306   4.640 -2.8682 -0.1586 -3.6180
  957MOL0     H29129   2.418   9.472   4.467 -3.6003 -2.6222 -2.0262
  957MOL0     H29130   2.747   9.411   4.139  1.2058  1.4833  0.3318
  957MOL0     H29131   2.659   9.556   4.122  1.3195 -1.1091 -1.4151
  957MOL0     H29132   2.843   9.523   4.351  0.1054 -0.5629 -0.1528
  957MOL0     H29133   2.884   9.606   4.205  0.1331 -1.8325 -1.3236
  957MOL0     H29134   2.646   9.722   4.253  2.0587  2.9472 -1.5537
  957MOL0     H29135   2.683   9.660   4.422  0.3150  2.1219  0.5319
  957MOL0     H29136   2.874   9.806   4.429 -0.3302 -1.0071  0.8571
  957MOL0     H29137   2.864   9.840   4.248 -1.7012 -2.2533 -1.1600
  957MOL0     H29138   2.658   9.964   4.444 -1.9443 -0.0925 -1.6632
  957MOL0     H29139   2.823  10.028   4.389  1.4840 -3.0953 -0.5965
  957MOL0     H29140   2.782  10.032   4.187  0.4325 -1.1179  0.6323
  957MOL0     H29141   2.623   9.944   4.190 -2.7373  0.7397  1.7145
  957MOL0     H29142   2.617  10.184   4.347 -2.1569 -0.6096  0.9495
  957MOL0     H29143   2.649  10.215   4.183  2.0236  0.9335  3.3887
  957MOL0     H29144   2.454  10.089   4.102 -1.6107  4.0108 -1.1440
  957MOL0     H29145   2.394  10.203   4.222  0.7546  0.9317 -0.4745
  957MOL0     H29146   2.440  10.068   4.499 -0.7439  0.7941 -0.5455
  957MOL0     H29147   2.252   9.977   4.663 -1.7971  1.7037 -2.7489
  957MOL0     H29148   2.133   9.876   4.598 -1.0573 -0.5087  0.6339
  957MOL0     H29149   2.417   9.763   4.597  0.5202 -0.9794 -0.4868
  957MOL0     H29150   2.266   9.690   4.558  0.1390  0.1011 -0.2361
  957MOL0     H29151   2.178   9.673   4.771 -0.3984  1.8740 -3.2772
  957MOL0     H29152   2.275   9.784   4.858  0.6992 -1.3531  1.4999
  957MOL0     H29153   2.356   9.514   4.748  1.5252 -2.2654  2.6574
  957MOL0     H29154   2.343   9.553   4.917  1.7926 -0.9290  0.3695
  957MOL0     H29155   2.719   9.619   4.668  0.7341 -0.4462 -0.5801
  957MOL0     H29156   2.900   9.544   4.573 -0.4869 -0.8858 -0.3249
  957MOL0     H29157   3.013   9.435   4.663  0.7155  2.6124  0.2652
  957MOL0     H29158   2.898   9.379   4.530  1.2041  1.6545 -0.8228
  957MOL0     H29159   3.052   8.969   4.918 -0.7680 -1.5417  0.1503
  957MOL0     H29160   3.162   8.769   4.806 -0.0545  0.2277 -0.3271
  957MOL0     H29161   2.930   8.507   4.681  2.0442 -1.8062  3.1580
  957MOL0     H29162   2.994   8.477   4.513 -2.2234 -1.3074  0.3761
  957MOL0     H29163   3.100   8.420   4.798 -1.8386 -1.5675 -0.3838
  957MOL0     H29164   3.084   8.309   4.677  1.1088 -0.8719 -0.2754
  957MOL0     H29165   3.312   8.501   4.682  1.2072  1.4378 -2.9430
  957MOL0     H29166   3.252   8.450   4.530 -0.6968  0.9128  1.1919
  957MOL0     H29167   3.352   8.272   4.760  0.6824  2.5501 -0.5353
  957MOL0     H29168   3.271   8.196   4.612  0.3209 -0.0530 -0.8941
  957MOL0     H29169   3.521   8.370   4.606 -2.0486  1.6753  2.0216
  957MOL0     H29170   3.436   8.291   4.470 -1.7875  0.8648  0.2094
  957MOL0     H29171   3.641   8.186   4.570  0.2227 -1.9066 -0.1759
  957MOL0     H29172   3.555   8.134   4.712  4.2476 -0.5210 -1.1129
  957MOL0     H29173   3.536   8.056   4.428 -1.7725  0.9954 -0.4991
  957MOL0     H29174   3.383   8.032   4.507  0.0547 -3.0033  2.2121
  957MOL0     H29175   3.479   7.825   4.529  0.3011 -1.1893  2.0941
  957MOL0     H29176   3.534   7.888   4.686 -1.1375 -1.5165  0.5505
  957MOL0     H29177   2.833   8.738   4.532 -0.5542  1.9456 -1.4103
  957MOL0     H29178   2.730   8.922   4.626 -0.1291 -0.5555 -0.8864
  957MOL0     H29179   2.657   9.218   4.931  1.4197  0.8159  2.0949
  957MOL0     H29180   2.501   9.401   4.955 -0.0938  0.5517 -1.3013
  957MOL0     H29181   2.749   9.244   4.289  0.9838 -1.2302  0.5753
  957MOL0     H29182   2.711   9.068   4.459 -1.4120 -1.0535  1.0836
  957MOL0     H29183   2.614   8.957   4.876 -0.4341 -0.4251 -2.8171
  957MOL0     H29184   2.570   8.790   5.053 -0.9544 -0.7619  0.5586
  957MOL0     H29185   2.233   8.518   5.058  0.9743 -0.1232 -0.2111
  957MOL0     H29186   2.357   8.421   4.980 -3.4347 -4.0199  1.0857
  957MOL0     H29187   2.463   8.351   5.168 -0.2757 -1.2620 -0.4155
  957MOL0     H29188   2.291   8.309   5.186  0.5653 -0.7764 -2.9632
  957MOL0     H29189   2.440   8.531   5.323 -1.2613  0.1636  4.3267
  957MOL0     H29190   2.367   8.388   5.392  1.9381  0.2383 -0.0430
  957MOL0     H29191   2.144   8.492   5.322  0.9619 -2.0303 -1.5445
  957MOL0     H29192   2.221   8.623   5.245  0.6818 -1.2916 -1.3632
  957MOL0     H29193   2.311   8.753   5.642  0.9464 -0.2644  0.1214
  957MOL0     H29194   2.302   8.581   4.819 -0.0091 -1.8397  3.6666
  957MOL0     H29195   2.333   8.750   4.631  1.0241  2.3209 -0.4383
  958MOL0     O29196   9.558   6.203   5.393  0.7556  0.3759  0.0054
  958MOL0     C29197   9.582   6.083   5.388  0.0681 -0.5807  0.9276
  958MOL0     O29198   9.674   6.009   5.464  0.1198 -0.3090  0.5996
  958MOL0     C29199   9.748   6.068   5.561  0.2811  0.3155 -0.1085
  958MOL0     C29200   9.847   6.161   5.533  0.2625  0.5520 -0.2722
  958MOL0     C29201   9.915   6.213   5.636  0.1330  1.2279  1.1683
  958MOL0     C29202   9.903   6.174   5.770  0.0415 -0.5232  0.1085
  958MOL0     O29203   9.993   6.216   5.863 -0.0694 -0.2223 -0.8052
  958MOL0     C29204  10.063   6.344   5.860  0.2047 -0.4945  0.1691
  958MOL0     C29205  10.202   6.347   5.788  0.1435 -0.5749 -0.4532
  958MOL0     C29206  10.308   6.318   5.896  0.0447  0.6239  0.1846
  958MOL0     C29207  10.456   6.336   5.846 -0.0114 -0.2449 -0.3165
  958MOL0     C29208  10.566   6.280   5.947 -0.0906  0.4345  0.1794
  958MOL0     C29209  10.709   6.312   5.910 -0.8323  0.9785 -0.7341
  958MOL0     C29210  10.743   6.289   5.763 -0.2939  0.2499  1.0076
  958MOL0     C29211  10.890   6.266   5.761 -0.2243 -0.1648  0.6187
  958MOL0     N29212  10.947   6.292   5.622  0.2270  0.0053 -0.8877
  958MOL0     C29213  11.028   6.395   5.598 -0.0281 -0.2125  0.5978
  958MOL0     C29214  11.041   6.398   5.466 -0.2431  0.3117  1.2815
  958MOL0     C29215  11.132   6.483   5.379 -0.6828 -0.0346 -0.0375
  958MOL0     C29216  11.239   6.389   5.309  0.0568 -1.0310  0.3527
  958MOL0     C29217  11.369   6.473   5.291  0.1032 -0.3605 -0.9395
  958MOL0     C29218  11.455   6.412   5.189 -0.1789 -0.1004  1.1730
  958MOL0     O29219  11.393   6.412   5.061 -0.0072 -0.0203  0.5599
  958MOL0     C29220  11.468   6.361   4.957  0.0641  0.0407  0.3177
  958MOL0     C29221  11.392   6.290   4.868  0.2602 -0.3369  0.3041
  958MOL0     C29222  11.451   6.219   4.758  0.6692  0.0194 -0.0074
  958MOL0     C29223  11.355   6.153   4.668 -0.2278  0.2862 -0.2905
  958MOL0     C29224  11.589   6.220   4.739 -0.8700 -0.0249 -0.4728
  958MOL0     C29225  11.662   6.159   4.630  0.4485  0.5858 -0.4791
  958MOL0     O29226  11.796   6.157   4.648 -0.5603 -0.9487  0.3737
  958MOL0     C29227  11.881   6.090   4.561 -0.9602 -0.4748  0.1799
  958MOL0     C29228  11.957   6.174   4.486 -0.1872  1.2643  0.2628
  958MOL0     C29229  12.046   6.124   4.396 -0.1658 -0.1017 -0.2919
  958MOL0     C29230  12.049   5.986   4.368  0.1414  0.4815  0.9403
  958MOL0     O29231  12.147   5.947   4.285 -0.1122 -0.5921  0.3532
  958MOL0     C29232  12.097   5.962   4.147  0.4909  0.6295 -0.7648
  958MOL0     C29233  12.197   5.890   4.058  0.0052 -0.6154 -0.4637
  958MOL0     C29234  12.200   5.739   4.091 -0.0937  0.4721  0.5369
  958MOL0     C29235  12.295   5.672   3.990  0.2117 -0.0842 -0.3592
  958MOL0     C29236  12.277   5.517   3.991 -0.0280 -0.5540  0.5151
  958MOL0     C29237  12.371   5.445   3.888  1.8499 -1.3877  0.2957
  958MOL0     C29238  12.519   5.459   3.914 -0.5450  0.2659  0.4361
  958MOL0     C29239  12.580   5.344   3.822  0.0863  0.5425  0.9974
  958MOL0    Cl29240  12.751   5.376   3.849 -0.2716  0.1767  0.0280
  958MOL0     C29241  11.972   5.896   4.447  0.5346 -0.0103 -0.6556
  958MOL0     C29242  11.886   5.953   4.541 -0.7320 -0.6931 -0.8598
  958MOL0     O29243  11.605   6.102   4.539 -0.9145 -0.2276 -0.4542
  958MOL0     C29244  11.666   6.294   4.838 -0.1331  0.2201 -0.0747
  958MOL0     C29245  11.603   6.355   4.954 -0.1487 -0.1183  0.3525
  958MOL0     N29246  10.961   6.302   5.412  0.3268 -0.4465  0.1132
  958MOL0     N29247  10.910   6.236   5.510  0.5177 -0.3246 -1.0548
  958MOL0     C29248   9.827   6.064   5.795 -0.3993 -0.2621 -0.2635
  958MOL0     C29249   9.747   6.009   5.692  0.0256 -0.4358 -0.1641
  958MOL0     C29250   9.517   6.005   5.281 -1.0252  0.2790 -0.6543
  958MOL0     C29251   9.588   5.889   5.234  0.7280 -0.5415 -0.1872
  958MOL0     C29252   9.535   5.822   5.126 -0.6179  0.1658 -0.1570
  958MOL0     C29253   9.401   5.850   5.072 -0.6405  0.2371  0.6139
  958MOL0     O29254   9.334   5.789   4.974 -0.6668  0.1184  0.3581
  958MOL0     C29255   9.410   5.695   4.899 -0.4068 -0.0930  0.5893
  958MOL0     C29256   9.336   5.632   4.778  0.0493 -0.0533  0.5567
  958MOL0     C29257   9.190   5.634   4.784  0.5502  0.8015 -0.7354
  958MOL0     C29258   9.108   5.567   4.672 -0.1112  0.0695  0.1723
  958MOL0     C29259   9.136   5.419   4.648  0.0377  0.7235  0.7036
  958MOL0     C29260   9.159   5.313   4.603 -0.8123 -0.2316 -0.2229
  958MOL0     C29261   9.337   5.960   5.117 -0.4604 -1.3437 -0.0721
  958MOL0     C29262   9.401   6.036   5.224  0.5477  0.2632  0.5410
  958MOL0     H29263   9.864   6.185   5.428 -2.3210  0.9191 -0.6924
  958MOL0     H29264   9.988   6.290   5.614  1.1633  0.0778  0.3592
  958MOL0     H29265  10.001   6.418   5.810  1.7442  0.0220 -1.0782
  958MOL0     H29266  10.067   6.386   5.961  0.2499 -0.1750  0.0358
  958MOL0     H29267  10.203   6.274   5.707 -1.9993 -3.1130  1.6299
  958MOL0     H29268  10.210   6.451   5.755 -1.6796 -0.7837 -1.7227
  958MOL0     H29269  10.301   6.390   5.978  3.1959  1.0987  0.1427
  958MOL0     H29270  10.289   6.216   5.929  0.0153  0.8453  0.8677
  958MOL0     H29271  10.462   6.285   5.749 -2.2457  1.5324 -1.5013
  958MOL0     H29272  10.470   6.442   5.821 -0.6975 -0.3626 -1.2459
  958MOL0     H29273  10.549   6.327   6.045  0.9574  1.9935 -0.3602
  958MOL0     H29274  10.544   6.174   5.962 -2.6415  0.6214 -1.5108
  958MOL0     H29275  10.734   6.414   5.940 -2.2129  1.5021 -1.2615
  958MOL0     H29276  10.764   6.244   5.974  0.3562 -0.2168 -2.8996
  958MOL0     H29277  10.681   6.215   5.712  1.2244  0.5915 -1.5190
  958MOL0     H29278  10.714   6.390   5.729  1.4140  0.3857 -0.1837
  958MOL0     H29279  10.914   6.165   5.797 -3.3319 -1.1763  0.1499
  958MOL0     H29280  10.941   6.338   5.826  0.7084 -0.1688 -0.0752
  958MOL0     H29281  11.080   6.456   5.671  0.7317 -0.4927  0.2994
  958MOL0     H29282  11.067   6.530   5.305 -2.5458 -1.7702  0.3992
  958MOL0     H29283  11.188   6.555   5.439 -0.0549 -0.4962 -0.0544
  958MOL0     H29284  11.199   6.350   5.215  3.1902  0.7600 -1.9368
  958MOL0     H29285  11.270   6.300   5.365  1.9162 -1.0911 -0.6909
  958MOL0     H29286  11.416   6.465   5.390  1.6505  1.5962 -1.4551
  958MOL0     H29287  11.344   6.576   5.265  0.8175  0.8185  2.4560
  958MOL0     H29288  11.476   6.308   5.215 -0.4206 -0.5256 -0.2501
  958MOL0     H29289  11.550   6.466   5.182 -2.1011  3.3637 -0.9789
  958MOL0     H29290  11.286   6.297   4.891 -0.1025  0.7776 -1.4850
  958MOL0     H29291  11.259   6.124   4.712  1.0942 -0.3767  2.3676
  958MOL0     H29292  11.341   6.187   4.564 -1.7825 -1.7880 -0.8312
  958MOL0     H29293  11.401   6.057   4.644  1.7394  1.8052 -3.2066
  958MOL0     H29294  11.942   6.281   4.494 -1.3062  1.5315 -3.3728
  958MOL0     H29295  12.106   6.190   4.334  0.6279 -1.8200 -1.4322
  958MOL0     H29296  12.007   5.904   4.127 -0.1575  1.5164 -0.5072
  958MOL0     H29297  12.076   6.068   4.127 -2.5437  0.3808  0.5388
  958MOL0     H29298  12.175   5.922   3.956 -0.0715 -0.5189 -0.4165
  958MOL0     H29299  12.299   5.927   4.069 -0.1875  0.3945 -1.8603
  958MOL0     H29300  12.107   5.684   4.075  0.0984  0.5182 -0.8737
  958MOL0     H29301  12.239   5.713   4.190 -1.2154  1.0476  1.1489
  958MOL0     H29302  12.266   5.713   3.893 -3.5796 -0.0738  0.5953
  958MOL0     H29303  12.396   5.708   4.009 -0.1577  0.2159  1.1512
  958MOL0     H29304  12.172   5.497   3.970 -1.4503  4.4051  1.6533
  958MOL0     H29305  12.294   5.472   4.089  0.6263 -3.7010 -0.9008
  958MOL0     H29306  12.335   5.342   3.894 -1.3846 -0.6020 -2.3797
  958MOL0     H29307  12.350   5.493   3.792  2.9191  0.2627  0.8357
  958MOL0     H29308  12.533   5.441   4.021 -2.5201  0.4932  0.7610
  958MOL0     H29309  12.577   5.548   3.887  0.6649 -1.1083 -1.7363
  958MOL0     H29310  12.550   5.346   3.716  0.3270  1.8567  0.9383
  958MOL0     H29311  12.551   5.244   3.854  1.2559 -1.3657 -3.1188
  958MOL0     H29312  11.982   5.789   4.435  0.7254  0.0145 -0.7068
  958MOL0     H29313  11.817   5.889   4.595 -2.7198  0.4920 -1.9239
  958MOL0     H29314  11.775   6.289   4.838  0.2076  4.2389  0.5413
  958MOL0     H29315  11.665   6.402   5.030  0.2407  1.2166 -0.7604
  958MOL0     H29316   9.818   6.030   5.897 -2.2118  0.4856 -0.1378
  958MOL0     H29317   9.682   5.924   5.706 -1.7276  0.6288 -1.4571
  958MOL0     H29318   9.687   5.863   5.272  2.5646  2.2026 -2.6749
  958MOL0     H29319   9.594   5.737   5.092 -0.8557  0.5011 -1.4804
  958MOL0     H29320   9.501   5.739   4.858 -0.0991  0.1762  1.5437
  958MOL0     H29321   9.436   5.607   4.959 -1.6460 -0.7101  0.2742
  958MOL0     H29322   9.375   5.532   4.755 -0.5544  0.4446 -3.5018
  958MOL0     H29323   9.369   5.689   4.691  3.2672  0.2114  1.8155
  958MOL0     H29324   9.160   5.739   4.774 -4.7513 -0.2320  0.8072
  958MOL0     H29325   9.161   5.599   4.883  0.5877 -0.9623 -1.3121
  958MOL0     H29326   9.128   5.624   4.581  2.2629  0.9613  1.1542
  958MOL0     H29327   9.002   5.575   4.696 -0.2556  1.0119 -0.7173
  958MOL0     H29328   9.159   5.210   4.573  1.8260 -0.9813  1.9694
  958MOL0     H29329   9.246   5.996   5.071 -0.9201 -1.4885  0.6939
  958MOL0     H29330   9.356   6.128   5.261  1.5005  0.2360  1.8620
  959MOL0     O29331   7.568   3.522  10.331 -0.3313 -0.2147 -0.2656
  959MOL0     C29332   7.634   3.507  10.436  0.6433 -0.2126 -0.3563
  959MOL0     O29333   7.584   3.452  10.552 -0.1238 -0.0802  0.3547
  959MOL0     C29334   7.447   3.420  10.581  0.2064 -0.8238  0.7940
  959MOL0     C29335   7.349   3.379  10.486 -0.0518  0.6392  0.1534
  959MOL0     C29336   7.217   3.352  10.518 -0.1374 -0.0759  0.1479
  959MOL0     C29337   7.193   3.369  10.656  0.4101 -0.0900  0.3280
  959MOL0     O29338   7.058   3.341  10.684 -0.4214  0.1587  0.3528
  959MOL0     C29339   6.977   3.451  10.647  0.2037  0.2891 -0.6048
  959MOL0     C29340   6.830   3.436  10.710 -0.0487 -0.2379  0.7040
  959MOL0     C29341   6.753   3.570  10.740  0.0671 -0.7913 -0.7669
  959MOL0     C29342   6.835   3.650  10.845  0.4488 -0.8401 -0.4643
  959MOL0     C29343   6.743   3.769  10.872 -0.1791 -0.4542  0.6481
  959MOL0     C29344   6.803   3.882  10.952 -0.8615 -0.4644  0.3594
  959MOL0     C29345   6.688   3.990  10.969 -0.6453  0.3669 -0.9634
  959MOL0     C29346   6.733   4.122  11.029  0.6463 -0.5299  0.4496
  959MOL0     N29347   6.633   4.231  11.029  0.3401  0.3603 -0.8562
  959MOL0     C29348   6.513   4.212  11.100  0.3390 -1.1952 -0.0895
  959MOL0     C29349   6.461   4.335  11.121 -0.4055  0.3536 -0.0109
  959MOL0     C29350   6.326   4.354  11.176 -0.7483 -0.1122  0.1341
  959MOL0     C29351   6.352   4.463  11.275  0.8160 -0.0188 -0.3255
  959MOL0     C29352   6.232   4.497  11.378 -0.3063  0.1664  0.1160
  959MOL0     C29353   6.105   4.521  11.299 -0.1523 -0.2834  0.6102
  959MOL0     O29354   5.988   4.579  11.372  0.6810  0.2773 -0.6706
  959MOL0     C29355   5.946   4.543  11.495 -1.1703 -0.1854  0.6560
  959MOL0     C29356   5.915   4.649  11.587  0.6331 -0.5399  0.1760
  959MOL0     C29357   5.858   4.634  11.715 -1.1702 -0.2959  0.5962
  959MOL0     C29358   5.812   4.758  11.796 -0.1165 -0.7457 -0.0288
  959MOL0     C29359   5.860   4.503  11.774 -0.2278  0.5539  0.4690
  959MOL0     C29360   5.813   4.457  11.904 -0.4892  0.1540 -0.0197
  959MOL0     O29361   5.873   4.345  11.948  0.0231 -0.9223 -1.0680
  959MOL0     C29362   5.821   4.275  12.055 -0.3656  0.0611 -0.1614
  959MOL0     C29363   5.822   4.329  12.183  0.9533 -0.4139  0.0037
  959MOL0     C29364   5.765   4.268  12.290  0.1881 -0.8045  0.2733
  959MOL0     C29365   5.715   4.137  12.282 -0.1791 -0.0063 -0.5953
  959MOL0     O29366   5.661   4.056  12.381  0.6866 -0.0945 -0.0991
  959MOL0     C29367   5.611   4.103  12.503  0.1825 -0.3670 -0.2522
  959MOL0     C29368   5.472   4.160  12.483 -0.4339  0.0972 -0.2467
  959MOL0     C29369   5.439   4.252  12.593  0.0676  0.1170 -0.5706
  959MOL0     C29370   5.298   4.307  12.595 -0.3289 -0.1410 -0.1083
  959MOL0     C29371   5.291   4.438  12.683  0.5564  0.5727  0.3435
  959MOL0     C29372   5.157   4.498  12.676  0.1308 -0.0645 -0.3873
  959MOL0     C29373   5.109   4.586  12.561  0.3501 -0.1964  0.7525
  959MOL0     C29374   5.174   4.727  12.552 -0.7887 -0.0204 -1.0389
  959MOL0    Cl29375   5.352   4.715  12.498  0.4751  0.1025 -0.1849
  959MOL0     C29376   5.717   4.073  12.156 -0.3260 -0.9355  0.5520
  959MOL0     C29377   5.784   4.138  12.042 -0.1432 -0.1618 -0.1087
  959MOL0     O29378   5.710   4.508  11.948 -0.3834  0.5270 -0.2702
  959MOL0     C29379   5.894   4.395  11.681  0.7161  0.1749  1.0846
  959MOL0     C29380   5.937   4.416  11.538  0.9991  0.4772 -0.2352
  959MOL0     N29381   6.551   4.425  11.072  0.3960 -0.5657  0.1221
  959MOL0     N29382   6.640   4.361  10.999  0.1393 -0.2393  0.1175
  959MOL0     C29383   7.286   3.405  10.751  0.5104 -0.3073 -0.3109
  959MOL0     C29384   7.411   3.439  10.715 -0.7210  0.7359  0.2579
  959MOL0     C29385   7.767   3.556  10.445 -0.7623 -1.0236  0.6886
  959MOL0     C29386   7.829   3.583  10.573  0.3813  0.1970  0.8419
  959MOL0     C29387   7.963   3.617  10.580 -0.2787 -0.4035 -0.7478
  959MOL0     C29388   8.044   3.634  10.465 -0.8002 -0.3433 -0.7218
  959MOL0     O29389   8.178   3.672  10.475  0.1833  0.0681 -0.8543
  959MOL0     C29390   8.264   3.577  10.547 -0.1703  0.3501 -0.0307
  959MOL0     C29391   8.372   3.652  10.622  0.7195 -1.0155 -0.1509
  959MOL0     C29392   8.475   3.717  10.548 -0.6131 -0.9925  0.8202
  959MOL0     C29393   8.586   3.768  10.633 -0.1606 -0.0786 -0.5540
  959MOL0     C29394   8.528   3.879  10.708 -0.3488 -0.7083  0.1485
  959MOL0     C29395   8.469   3.977  10.745  0.6151  0.3081  0.6636
  959MOL0     C29396   7.980   3.625  10.342  0.3355 -0.1171  0.5687
  959MOL0     C29397   7.844   3.581  10.330  0.2145  0.6692  0.8952
  959MOL0     H29398   7.374   3.373  10.380 -0.8605  1.0368 -0.0742
  959MOL0     H29399   7.137   3.324  10.451 -2.9839  2.8422  2.0552
  959MOL0     H29400   7.025   3.547  10.671 -0.7446  1.5936 -3.4636
  959MOL0     H29401   6.974   3.451  10.537 -1.4878  2.7966 -0.6286
  959MOL0     H29402   6.775   3.391  10.626 -0.8038  3.8793 -1.2855
  959MOL0     H29403   6.835   3.369  10.796  0.4188  1.2652  1.8938
  959MOL0     H29404   6.732   3.616  10.643  1.2996  2.2820  0.3042
  959MOL0     H29405   6.651   3.554  10.776  0.7983 -1.8603  0.9238
  959MOL0     H29406   6.856   3.593  10.936  2.0463  0.6308  0.1368
  959MOL0     H29407   6.927   3.699  10.812 -0.4853  1.9698  0.8254
  959MOL0     H29408   6.707   3.820  10.782 -0.3339 -1.4219  0.1485
  959MOL0     H29409   6.666   3.716  10.930  0.9983 -0.1723  2.5427
  959MOL0     H29410   6.829   3.840  11.050  1.0757 -0.3594 -0.0767
  959MOL0     H29411   6.896   3.927  10.919 -0.8915 -0.5097  0.2127
  959MOL0     H29412   6.645   4.022  10.874 -2.8242  1.2288  0.2315
  959MOL0     H29413   6.603   3.958  11.031 -0.8808  4.0397  0.9310
  959MOL0     H29414   6.825   4.143  10.973  0.1890 -3.0086 -1.3887
  959MOL0     H29415   6.776   4.109  11.129 -1.1375 -3.1679  0.9505
  959MOL0     H29416   6.454   4.129  11.137 -3.1883 -0.8145 -4.1220
  959MOL0     H29417   6.241   4.365  11.107 -2.1849 -2.7344  1.3480
  959MOL0     H29418   6.290   4.266  11.230 -0.3894 -0.3433  0.0061
  959MOL0     H29419   6.377   4.555  11.223  0.6418  1.1806  1.6072
  959MOL0     H29420   6.434   4.436  11.343 -1.0988  1.0886  2.6300
  959MOL0     H29421   6.249   4.579  11.448  3.0236 -3.7802  4.6692
  959MOL0     H29422   6.216   4.407  11.438  0.0532  0.2757  0.3830
  959MOL0     H29423   6.062   4.426  11.265 -3.8858  1.8984 -1.4915
  959MOL0     H29424   6.124   4.592  11.219 -2.5043  1.0486  1.1376
  959MOL0     H29425   5.926   4.751  11.552 -0.3141 -0.1171  1.0759
  959MOL0     H29426   5.706   4.738  11.818 -0.2046  1.1702  1.5681
  959MOL0     H29427   5.862   4.783  11.890 -1.9686 -1.8929  1.3214
  959MOL0     H29428   5.814   4.845  11.729 -3.0173 -2.1291 -2.1215
  959MOL0     H29429   5.873   4.425  12.190 -0.5028  0.3006  1.3717
  959MOL0     H29430   5.777   4.312  12.389  0.3760 -0.4483  0.0915
  959MOL0     H29431   5.600   4.032  12.585 -1.7892  1.3711  1.1164
  959MOL0     H29432   5.675   4.184  12.539  1.4415 -0.9872 -1.0139
  959MOL0     H29433   5.463   4.213  12.387  0.4157 -0.6565 -0.7573
  959MOL0     H29434   5.397   4.082  12.465  0.7571 -0.8606 -1.2636
  959MOL0     H29435   5.501   4.340  12.573  1.5205 -1.1792 -2.0970
  959MOL0     H29436   5.456   4.221  12.696  0.5523  0.4707 -0.5402
  959MOL0     H29437   5.278   4.335  12.491  1.4761 -0.2566 -0.5124
  959MOL0     H29438   5.223   4.238  12.634  0.2199 -1.9472 -2.1014
  959MOL0     H29439   5.365   4.517  12.665 -0.3774  1.3752 -0.0702
  959MOL0     H29440   5.308   4.399  12.783  0.1629  0.7501  0.4814
  959MOL0     H29441   5.087   4.415  12.691  1.3987 -0.7016  3.0746
  959MOL0     H29442   5.146   4.552  12.770  1.2764 -1.3744  0.5516
  959MOL0     H29443   5.001   4.599  12.572  0.6294  1.4721  1.8109
  959MOL0     H29444   5.114   4.533  12.465 -3.2072 -2.9381  1.8661
  959MOL0     H29445   5.168   4.773  12.651 -0.7605  0.6478 -1.3455
  959MOL0     H29446   5.125   4.796  12.484 -2.1844 -1.1612 -1.2584
  959MOL0     H29447   5.678   3.972  12.150 -1.1781 -0.5499 -0.9276
  959MOL0     H29448   5.797   4.097  11.942  0.9122 -0.0983 -0.0043
  959MOL0     H29449   5.904   4.292  11.712  1.6830  0.7369  2.7883
  959MOL0     H29450   5.954   4.339  11.464 -1.1745  1.8239 -2.2835
  959MOL0     H29451   7.261   3.413  10.856  1.7993 -1.6547  0.1345
  959MOL0     H29452   7.488   3.469  10.786 -0.6851  2.9734 -0.6393
  959MOL0     H29453   7.761   3.584  10.657 -0.9774 -5.5952  0.2185
  959MOL0     H29454   8.002   3.624  10.681 -4.1591 -2.4888  1.1077
  959MOL0     H29455   8.198   3.513  10.606  1.6676 -0.5911  1.0917
  959MOL0     H29456   8.322   3.507  10.486  1.0087  0.4027  0.9726
  959MOL0     H29457   8.418   3.587  10.697 -0.0816 -0.0033  1.2618
  959MOL0     H29458   8.334   3.731  10.687  1.3470 -1.5425  0.8854
  959MOL0     H29459   8.434   3.805  10.498  4.1309  0.8716 -0.2914
  959MOL0     H29460   8.506   3.646  10.471  1.2917 -0.6282  1.2186
  959MOL0     H29461   8.670   3.784  10.565 -0.2069 -1.0329 -0.8552
  959MOL0     H29462   8.609   3.690  10.706  0.6524 -0.6649 -1.4108
  959MOL0     H29463   8.412   4.065  10.767  2.0789  1.9632 -1.7507
  959MOL0     H29464   8.027   3.654  10.249  0.9393 -1.9128  0.2756
  959MOL0     H29465   7.790   3.573  10.237  0.4530 -1.4478  0.8948
  960MOL0     O29466   5.835   8.279   1.741  0.4883  0.0231  0.3598
  960MOL0     C29467   5.807   8.173   1.694  0.1938 -1.1520 -0.9875
  960MOL0     O29468   5.852   8.054   1.748  0.2865 -0.9024  0.2084
  960MOL0     C29469   5.945   8.050   1.843 -0.1170 -0.7506 -0.3685
  960MOL0     C29470   6.076   8.002   1.818  0.1227 -0.8466  0.3817
  960MOL0     C29471   6.173   8.001   1.919  0.7064  0.0269  0.6461
  960MOL0     C29472   6.135   8.019   2.048 -0.0089  0.2474 -0.1494
  960MOL0     O29473   6.216   8.003   2.158  0.2110  0.3166  0.7360
  960MOL0     C29474   6.358   8.031   2.143 -0.0907 -0.3435 -0.2447
  960MOL0     C29475   6.423   8.065   2.281 -0.0147  1.2733  0.0769
  960MOL0     C29476   6.359   8.176   2.355  0.9243  0.2632  0.3028
  960MOL0     C29477   6.423   8.303   2.298 -0.5089  0.5737 -0.3435
  960MOL0     C29478   6.347   8.435   2.341 -0.4048  0.1084  0.0141
  960MOL0     C29479   6.383   8.551   2.245  0.8758  0.6158 -0.2322
  960MOL0     C29480   6.292   8.675   2.251  0.8615 -0.4117 -0.3981
  960MOL0     C29481   6.272   8.739   2.394 -0.1080  0.3813 -0.5176
  960MOL0     N29482   6.191   8.860   2.379  0.3321  0.6258 -0.0240
  960MOL0     C29483   6.051   8.853   2.374 -0.5853 -0.2622 -0.0006
  960MOL0     C29484   6.014   8.985   2.362  0.5899 -0.0841 -1.2198
  960MOL0     C29485   5.879   9.061   2.354 -0.6138  0.5130 -0.6612
  960MOL0     C29486   5.810   9.032   2.222  0.1147  0.8735 -0.1481
  960MOL0     C29487   5.877   9.099   2.102 -0.1560 -0.1744 -0.0363
  960MOL0     C29488   5.798   9.073   1.974 -0.3905  1.7013 -0.5765
  960MOL0     O29489   5.858   9.135   1.868  0.6420 -0.6298 -0.1912
  960MOL0     C29490   5.962   9.068   1.808  0.5041 -0.0736  0.2188
  960MOL0     C29491   6.025   8.954   1.846  0.0580  0.0718 -0.1742
  960MOL0     C29492   6.124   8.902   1.759 -0.0980  0.0338  0.1491
  960MOL0     C29493   6.202   8.778   1.821  0.0618 -0.6804  0.5295
  960MOL0     C29494   6.157   8.956   1.630  0.4548  0.2254  0.2392
  960MOL0     C29495   6.265   8.905   1.541  0.1800  0.3783 -0.4111
  960MOL0     O29496   6.374   8.826   1.587 -0.1123 -0.2075  0.6152
  960MOL0     C29497   6.449   8.751   1.508  0.4017 -0.2921 -0.1168
  960MOL0     C29498   6.485   8.793   1.377 -0.2782 -1.1471  0.1448
  960MOL0     C29499   6.576   8.709   1.306  0.0764 -0.3805 -0.6743
  960MOL0     C29500   6.625   8.589   1.368 -0.3126  0.0565 -1.1539
  960MOL0     O29501   6.706   8.505   1.292  0.5366 -1.0672  0.4306
  960MOL0     C29502   6.747   8.376   1.330 -0.2356 -0.0664  0.3516
  960MOL0     C29503   6.836   8.313   1.227  0.4371  0.0625 -0.8183
  960MOL0     C29504   6.950   8.417   1.206  0.0859 -0.2597  0.6919
  960MOL0     C29505   7.069   8.357   1.120 -0.0281  0.5315 -0.2988
  960MOL0     C29506   7.201   8.442   1.115  0.4725  0.8144  0.7803
  960MOL0     C29507   7.309   8.376   1.028  0.6349 -0.0214 -0.0507
  960MOL0     C29508   7.288   8.383   0.875 -0.1281 -0.7904 -0.1648
  960MOL0     C29509   7.421   8.369   0.797  0.2620 -0.3497 -1.0618
  960MOL0    Cl29510   7.372   8.386   0.628  0.3518  0.2203  0.4458
  960MOL0     C29511   6.586   8.551   1.499  0.1915 -0.1687  0.4712
  960MOL0     C29512   6.498   8.637   1.573  0.1840 -0.1766 -0.0426
  960MOL0     O29513   6.255   8.939   1.421 -0.3307 -0.9717 -0.1324
  960MOL0     C29514   6.076   9.060   1.593  0.5410  0.2863 -0.3004
  960MOL0     C29515   5.982   9.120   1.681  0.2237  0.0525 -0.5886
  960MOL0     N29516   6.135   9.060   2.353  0.6179 -0.0607  0.0612
  960MOL0     N29517   6.237   8.985   2.350  0.7717 -0.3816 -0.5497
  960MOL0     C29518   6.001   8.047   2.076  0.5843 -0.1166  0.2901
  960MOL0     C29519   5.908   8.073   1.973 -0.0992  0.3676  0.8321
  960MOL0     C29520   5.734   8.162   1.570  0.0624  0.1931 -0.0082
  960MOL0     C29521   5.705   8.276   1.494 -0.4228 -0.3221 -0.0797
  960MOL0     C29522   5.634   8.263   1.381  0.0658 -0.2998 -0.3004
  960MOL0     C29523   5.595   8.140   1.332  0.4762  0.7916 -0.6332
  960MOL0     O29524   5.553   8.140   1.206 -0.9158 -0.4133  0.0758
  960MOL0     C29525   5.422   8.150   1.172  0.7671 -0.2763  1.0664
  960MOL0     C29526   5.369   8.009   1.185  0.1001 -0.2193 -0.5254
  960MOL0     C29527   5.411   7.919   1.066  0.8252  0.2354 -0.8242
  960MOL0     C29528   5.283   7.873   0.992  0.0775 -1.1919 -0.3434
  960MOL0     C29529   5.246   7.978   0.889  0.6785  0.0753 -0.4099
  960MOL0     C29530   5.229   8.064   0.808 -0.1747 -0.2276 -0.1589
  960MOL0     C29531   5.633   8.022   1.403 -0.7324  0.6681  0.2479
  960MOL0     C29532   5.702   8.032   1.528 -0.1919 -0.3736 -0.3350
  960MOL0     H29533   6.101   7.984   1.714  0.6628 -0.4486  0.4373
  960MOL0     H29534   6.274   7.967   1.901  0.9678  1.9031 -2.0592
  960MOL0     H29535   6.415   7.943   2.114  0.1608 -0.8498  1.6478
  960MOL0     H29536   6.371   8.111   2.069 -1.1955  1.0157  0.9410
  960MOL0     H29537   6.414   7.974   2.341 -1.1004 -1.5537 -3.9290
  960MOL0     H29538   6.529   8.078   2.258  0.4142 -1.8600 -0.1057
  960MOL0     H29539   6.253   8.186   2.329  1.7515  0.6704 -3.6096
  960MOL0     H29540   6.393   8.173   2.459  2.2113  2.4956  0.0136
  960MOL0     H29541   6.522   8.319   2.343 -1.1358  0.1329  1.2519
  960MOL0     H29542   6.424   8.294   2.188  2.1248 -2.8898 -0.2139
  960MOL0     H29543   6.240   8.413   2.334 -0.1494 -0.7203 -3.0307
  960MOL0     H29544   6.377   8.454   2.444 -2.2898  1.6172  0.3425
  960MOL0     H29545   6.489   8.568   2.265  0.4798 -0.1968  3.1566
  960MOL0     H29546   6.370   8.513   2.143 -0.2027  2.9623 -1.0437
  960MOL0     H29547   6.340   8.753   2.191  0.0152  1.7295  1.5120
  960MOL0     H29548   6.194   8.652   2.208  0.6489  0.6156 -0.4870
  960MOL0     H29549   6.370   8.758   2.439 -0.0507 -2.6690  0.9458
  960MOL0     H29550   6.217   8.666   2.454  1.1193  3.2627  4.7359
  960MOL0     H29551   5.986   8.767   2.383  2.1791 -2.6723 -1.4518
  960MOL0     H29552   5.826   9.037   2.447  0.2896  0.5680 -0.1169
  960MOL0     H29553   5.894   9.169   2.365  2.4964 -0.1019  3.9442
  960MOL0     H29554   5.712   9.077   2.242  0.0195 -0.1414  1.9343
  960MOL0     H29555   5.797   8.924   2.218  3.2827  0.4208 -3.1887
  960MOL0     H29556   5.979   9.065   2.084  0.6792  0.2403  3.3231
  960MOL0     H29557   5.872   9.208   2.112  0.7371 -0.3468  3.5300
  960MOL0     H29558   5.692   9.096   1.986 -0.5660  1.5133 -1.7031
  960MOL0     H29559   5.794   8.968   1.943  4.7214  0.5236  1.7392
  960MOL0     H29560   6.012   8.916   1.947 -0.5633 -0.3755 -0.4154
  960MOL0     H29561   6.309   8.800   1.819  0.0156  0.2800 -4.1817
  960MOL0     H29562   6.170   8.752   1.922 -0.9596 -3.1376 -0.3358
  960MOL0     H29563   6.176   8.698   1.751 -1.1092  0.7243 -0.6821
  960MOL0     H29564   6.452   8.885   1.331 -0.5840  0.1570  2.7784
  960MOL0     H29565   6.619   8.736   1.210 -0.4282 -1.6830 -1.2878
  960MOL0     H29566   6.808   8.385   1.421  1.7542 -0.9467 -0.8287
  960MOL0     H29567   6.662   8.315   1.363  1.7121 -2.6084  1.0148
  960MOL0     H29568   6.869   8.211   1.247 -0.1073 -0.6664 -3.3326
  960MOL0     H29569   6.783   8.314   1.131 -1.7306 -1.1672  0.2889
  960MOL0     H29570   6.990   8.449   1.303  1.0722  0.2271  0.1353
  960MOL0     H29571   6.917   8.499   1.142  2.1552  0.7929  0.9111
  960MOL0     H29572   7.101   8.261   1.161 -2.9690  0.6213  2.6792
  960MOL0     H29573   7.046   8.331   1.017  0.0742 -1.2438  0.1056
  960MOL0     H29574   7.246   8.438   1.215  2.7368  1.3781 -0.1624
  960MOL0     H29575   7.180   8.540   1.073  3.0764  0.2693 -2.1181
  960MOL0     H29576   7.392   8.439   1.060 -0.2386  1.8660 -1.3015
  960MOL0     H29577   7.333   8.273   1.054  3.5269  0.3224 -0.9724
  960MOL0     H29578   7.230   8.474   0.853  1.2656 -0.3306 -2.1110
  960MOL0     H29579   7.226   8.296   0.853 -1.5094 -0.6426  2.6368
  960MOL0     H29580   7.459   8.267   0.806 -1.3974 -0.9081 -0.0004
  960MOL0     H29581   7.486   8.453   0.820 -1.2596  0.7614 -0.6956
  960MOL0     H29582   6.615   8.457   1.543  1.4846 -0.3437 -0.6921
  960MOL0     H29583   6.476   8.617   1.677  0.2336  0.8243  0.1689
  960MOL0     H29584   6.089   9.120   1.504  5.9513 -0.5778 -0.3898
  960MOL0     H29585   5.932   9.212   1.654 -1.4827 -1.0406 -1.3211
  960MOL0     H29586   5.967   8.054   2.178  1.4128 -0.6064  0.6122
  960MOL0     H29587   5.803   8.103   1.983  0.3552  2.2554  0.3983
  960MOL0     H29588   5.726   8.379   1.520 -2.5670  1.1405 -3.4487
  960MOL0     H29589   5.599   8.360   1.347  0.0753  0.8377  2.6316
  960MOL0     H29590   5.363   8.217   1.234  0.4365  1.2907 -0.8199
  960MOL0     H29591   5.420   8.193   1.071  1.6012 -3.3245 -0.3954
  960MOL0     H29592   5.260   8.011   1.197  0.1940 -2.0744  1.0451
  960MOL0     H29593   5.390   7.955   1.277  0.1045 -1.0405 -1.0013
  960MOL0     H29594   5.454   7.833   1.119  0.9485 -0.5770 -2.2138
  960MOL0     H29595   5.489   7.963   1.004  2.1840  0.6696  1.0929
  960MOL0     H29596   5.206   7.862   1.069 -0.9054 -0.0343 -1.1182
  960MOL0     H29597   5.304   7.783   0.933  3.2516 -2.0051  1.8125
  960MOL0     H29598   5.232   8.138   0.730 -2.1465  0.7894  0.6688
  960MOL0     H29599   5.630   7.934   1.340 -2.3806 -0.5015  1.8561
  960MOL0     H29600   5.723   7.942   1.585 -1.0145 -0.3001  0.1084
  961MOL0     O29601   1.854   0.914   5.575  0.8975  0.4468 -0.3140
  961MOL0     C29602   1.880   0.930   5.692  0.1752 -0.1992  0.1203
  961MOL0     O29603   1.909   0.831   5.783  0.6101  0.3322 -0.3776
  961MOL0     C29604   1.860   0.700   5.750 -0.3969 -0.1319 -0.2663
  961MOL0     C29605   1.753   0.638   5.816  0.4380  0.2473  0.5724
  961MOL0     C29606   1.711   0.508   5.772 -0.5355  0.0466  0.0242
  961MOL0     C29607   1.794   0.421   5.695 -0.3266 -0.2229 -0.8328
  961MOL0     O29608   1.774   0.292   5.662  0.3128 -0.1174 -0.2027
  961MOL0     C29609   1.664   0.218   5.728 -1.0973 -0.0676  0.4197
  961MOL0     C29610   1.702   0.167   5.863  0.7438 -0.2912  0.2615
  961MOL0     C29611   1.806   0.057   5.856 -0.0042  0.2788  0.1512
  961MOL0     C29612   1.855  -0.004   5.993 -0.0783  1.2111  0.2162
  961MOL0     C29613   1.923   0.083   6.097  0.7424 -0.4853 -0.2664
  961MOL0     C29614   2.068   0.099   6.057  0.4404 -0.0796 -0.0895
  961MOL0     C29615   2.145   0.183   6.151  1.2621 -0.2259 -1.3076
  961MOL0     C29616   2.121   0.332   6.167  0.7933 -0.1939  1.2448
  961MOL0     N29617   2.214   0.402   6.254  0.3239 -0.0427  0.0867
  961MOL0     C29618   2.197   0.418   6.395 -0.2987  0.2149  0.2406
  961MOL0     C29619   2.319   0.474   6.444 -0.4264 -0.2126 -0.2008
  961MOL0     C29620   2.339   0.527   6.577 -0.2806 -0.2662  0.0074
  961MOL0     C29621   2.435   0.652   6.575 -0.3019  0.4880  0.3085
  961MOL0     C29622   2.446   0.738   6.710 -0.4068 -0.3365 -0.1588
  961MOL0     C29623   2.315   0.814   6.737 -0.0391 -0.9472  0.1605
  961MOL0     O29624   2.319   0.894   6.850 -0.5004  0.3800 -0.4430
  961MOL0     C29625   2.372   1.016   6.852  0.5388 -0.1739  0.7591
  961MOL0     C29626   2.435   1.075   6.741  0.7945  0.3156  0.4233
  961MOL0     C29627   2.488   1.199   6.752 -0.0910 -0.2307 -0.2034
  961MOL0     C29628   2.543   1.268   6.621  0.0055  0.2436 -0.6018
  961MOL0     C29629   2.495   1.278   6.868 -0.5585  0.0820 -0.6760
  961MOL0     C29630   2.541   1.423   6.895 -0.1767 -0.0192  0.4676
  961MOL0     O29631   2.641   1.465   6.814  0.1759 -0.6812 -0.0868
  961MOL0     C29632   2.690   1.593   6.813 -0.5589 -0.0552 -0.4924
  961MOL0     C29633   2.814   1.594   6.749 -0.8681  0.2236 -0.4075
  961MOL0     C29634   2.898   1.713   6.742  0.2173 -0.1221  0.0677
  961MOL0     C29635   2.851   1.829   6.805 -0.0597 -0.0133 -0.3097
  961MOL0     O29636   2.923   1.945   6.806  0.2258  0.6062  0.3924
  961MOL0     C29637   3.012   1.956   6.929  0.6183 -0.2145 -0.5151
  961MOL0     C29638   3.095   2.086   6.916  1.1886  0.3694  0.4399
  961MOL0     C29639   3.222   2.089   7.006 -1.2533 -0.2060  0.4481
  961MOL0     C29640   3.317   2.200   6.977 -0.8369  0.3410 -1.3870
  961MOL0     C29641   3.415   2.201   7.095 -0.1885 -0.4275  0.0373
  961MOL0     C29642   3.527   2.293   7.063  0.6580 -0.2074 -0.2311
  961MOL0     C29643   3.645   2.217   6.988  0.3802  0.0352 -0.5778
  961MOL0     C29644   3.769   2.318   6.960 -0.7006  0.2994 -0.8429
  961MOL0    Cl29645   3.920   2.220   6.952  0.6638  0.1568 -0.2713
  961MOL0     C29646   2.723   1.832   6.862 -0.9979 -0.4532  1.6887
  961MOL0     C29647   2.648   1.713   6.878 -0.4055  0.5807 -0.3984
  961MOL0     O29648   2.513   1.479   7.004 -0.3307  0.1446  0.2937
  961MOL0     C29649   2.427   1.215   6.976 -0.0775  1.2051 -0.1144
  961MOL0     C29650   2.369   1.087   6.970 -0.5582  0.3495  1.1150
  961MOL0     N29651   2.400   0.498   6.335  0.5266  0.8006 -0.3934
  961MOL0     N29652   2.346   0.441   6.225 -0.9406  0.1908  0.2634
  961MOL0     C29653   1.908   0.483   5.644 -0.2420 -0.4957  1.1879
  961MOL0     C29654   1.942   0.622   5.653 -0.4403  0.4377 -0.1685
  961MOL0     C29655   1.910   1.070   5.721 -1.0059  0.6669 -0.2016
  961MOL0     C29656   1.851   1.177   5.656  0.3272  0.0821  0.0744
  961MOL0     C29657   1.868   1.304   5.713  0.3131 -0.5746  0.2479
  961MOL0     C29658   1.958   1.321   5.822  1.2998  0.1776 -0.7133
  961MOL0     O29659   1.963   1.440   5.883  0.8814 -0.3031  0.5020
  961MOL0     C29660   2.096   1.495   5.897  0.0756 -0.7466  1.2132
  961MOL0     C29661   2.078   1.639   5.911 -0.7694 -0.3956 -0.6582
  961MOL0     C29662   2.213   1.716   5.895 -0.6542 -0.3178 -0.4635
  961MOL0     C29663   2.290   1.706   6.018  0.2806  0.0733 -0.7818
  961MOL0     C29664   2.403   1.798   6.010  0.2826  0.8970 -0.9074
  961MOL0     C29665   2.498   1.866   6.000 -0.2641  0.2069 -0.4156
  961MOL0     C29666   2.028   1.213   5.878  0.9053 -0.1166 -0.9496
  961MOL0     C29667   1.996   1.091   5.833 -0.1923  0.0374  1.1658
  961MOL0     H29668   1.680   0.691   5.876 -3.1887 -1.1437 -2.2272
  961MOL0     H29669   1.619   0.475   5.818 -0.4035 -1.8577 -0.9863
  961MOL0     H29670   1.573   0.278   5.741 -0.2720  1.4853 -0.6803
  961MOL0     H29671   1.631   0.137   5.663 -0.9406  1.1809 -1.2756
  961MOL0     H29672   1.733   0.253   5.924  0.9730 -0.5358  0.4945
  961MOL0     H29673   1.615   0.123   5.912  1.2673  1.7414  3.2846
  961MOL0     H29674   1.758  -0.018   5.794 -0.3772  1.9912 -1.7266
  961MOL0     H29675   1.886   0.093   5.790 -0.6855 -1.3845 -1.6584
  961MOL0     H29676   1.765  -0.043   6.041 -2.7927  3.9074 -2.2350
  961MOL0     H29677   1.913  -0.095   5.982 -0.1905  1.2992 -1.3155
  961MOL0     H29678   1.877   0.182   6.098 -2.1638 -1.7139 -0.5773
  961MOL0     H29679   1.909   0.039   6.196 -0.3957  1.1139  0.3278
  961MOL0     H29680   2.113  -0.001   6.055  0.7411  0.0197  1.0074
  961MOL0     H29681   2.078   0.139   5.955 -3.0365  1.8191  0.1784
  961MOL0     H29682   2.129   0.141   6.250  2.7526  2.9078  0.3970
  961MOL0     H29683   2.252   0.188   6.129  1.4157 -2.1830 -1.1758
  961MOL0     H29684   2.021   0.339   6.210  0.4619  0.8868  0.3594
  961MOL0     H29685   2.123   0.390   6.074  0.5186 -0.4800  1.0577
  961MOL0     H29686   2.110   0.401   6.457 -1.5253  0.4379 -1.3343
  961MOL0     H29687   2.242   0.574   6.598  0.0461  1.1358 -1.4339
  961MOL0     H29688   2.378   0.455   6.649  1.6431  0.6938 -0.0253
  961MOL0     H29689   2.415   0.711   6.485  0.2154 -1.0805 -0.8744
  961MOL0     H29690   2.534   0.607   6.573 -1.8844 -3.3103 -0.2043
  961MOL0     H29691   2.521   0.816   6.692  0.8149 -1.8003 -1.6775
  961MOL0     H29692   2.477   0.675   6.793  1.9305  2.2124  1.0850
  961MOL0     H29693   2.241   0.738   6.765  2.3599 -1.9421  4.8322
  961MOL0     H29694   2.300   0.870   6.644  2.0332 -0.0727  0.2823
  961MOL0     H29695   2.432   1.034   6.641  2.8248 -2.2317  1.2805
  961MOL0     H29696   2.652   1.276   6.626  0.0211 -0.2030 -0.1617
  961MOL0     H29697   2.525   1.208   6.531 -1.9231  0.7535 -0.6018
  961MOL0     H29698   2.496   1.367   6.617 -2.1350 -0.7332 -1.3019
  961MOL0     H29699   2.843   1.495   6.718 -2.5131 -1.0878  1.9014
  961MOL0     H29700   2.985   1.726   6.678  0.1844  1.8095  0.3748
  961MOL0     H29701   2.960   1.963   7.025  1.2255 -0.2061 -0.1810
  961MOL0     H29702   3.074   1.867   6.945  1.2571  0.1814 -0.7622
  961MOL0     H29703   3.134   2.087   6.813 -3.1037  0.0566 -1.3933
  961MOL0     H29704   3.038   2.177   6.938  0.3840  0.9771 -3.4592
  961MOL0     H29705   3.273   1.993   6.993  0.4101  0.5414  1.2280
  961MOL0     H29706   3.177   2.100   7.105  0.3811  0.2235  1.1815
  961MOL0     H29707   3.368   2.174   6.883 -0.0410 -1.0354 -0.6136
  961MOL0     H29708   3.262   2.292   6.956  0.6858  1.1629 -1.9351
  961MOL0     H29709   3.466   2.105   7.105  1.8263  0.4476 -1.2686
  961MOL0     H29710   3.363   2.236   7.185 -0.4771  3.5442 -1.4731
  961MOL0     H29711   3.482   2.369   6.999  1.6941  0.9352  0.3539
  961MOL0     H29712   3.551   2.341   7.158  2.4813 -1.3054 -0.0912
  961MOL0     H29713   3.612   2.178   6.891  2.4672  0.2299 -1.4257
  961MOL0     H29714   3.683   2.125   7.033  0.9523 -0.6833 -2.4110
  961MOL0     H29715   3.785   2.393   7.038  2.2977 -1.9979  0.9382
  961MOL0     H29716   3.754   2.372   6.866  1.1810  2.4749  0.0250
  961MOL0     H29717   2.689   1.927   6.902  0.3708 -0.0654  1.9800
  961MOL0     H29718   2.560   1.730   6.938  0.6131  0.4700  1.1885
  961MOL0     H29719   2.430   1.265   7.072 -0.1649  0.1980  0.4299
  961MOL0     H29720   2.328   1.042   7.060 -1.3751 -1.0916  0.0726
  961MOL0     H29721   1.973   0.425   5.580 -1.6225  1.8158 -2.6685
  961MOL0     H29722   2.036   0.669   5.626 -0.3296  0.3249  0.0152
  961MOL0     H29723   1.789   1.150   5.571  1.0147 -0.9340 -0.1120
  961MOL0     H29724   1.808   1.382   5.667  0.4777 -1.5491 -1.7328
  961MOL0     H29725   2.140   1.465   5.992  0.8298  1.4820  1.6133
  961MOL0     H29726   2.144   1.466   5.803 -2.7387 -0.9658 -0.2798
  961MOL0     H29727   2.030   1.657   6.008 -0.2427  1.5067 -0.7136
  961MOL0     H29728   2.013   1.667   5.828  1.5347  1.5976 -1.9206
  961MOL0     H29729   2.181   1.814   5.857 -0.2663 -0.7720 -2.0332
  961MOL0     H29730   2.271   1.669   5.815 -0.8460 -2.3650  0.5430
  961MOL0     H29731   2.318   1.603   6.042  1.1790  0.0818 -1.7072
  961MOL0     H29732   2.227   1.741   6.100  1.2640  3.6740 -1.4012
  961MOL0     H29733   2.584   1.926   5.979  1.0519 -1.8062 -1.1543
  961MOL0     H29734   2.092   1.221   5.965 -1.5034  2.5394  0.7427
  961MOL0     H29735   2.047   1.009   5.882  1.4182  1.1530  1.4826
  962MOL0     O29736  11.421   9.540  11.123 -0.4218 -0.0188  0.2003
  962MOL0     C29737  11.412   9.423  11.156  0.4969  0.0346  0.1350
  962MOL0     O29738  11.346   9.367  11.268  0.0913  0.0858 -0.4735
  962MOL0     C29739  11.281   9.445  11.363  0.3679 -0.1795 -0.1573
  962MOL0     C29740  11.248   9.579  11.362  0.0070 -0.4032  0.9116
  962MOL0     C29741  11.191   9.647  11.470  0.3174  0.1014 -0.6893
  962MOL0     C29742  11.167   9.574  11.586 -0.6558  0.0310  0.6079
  962MOL0     O29743  11.102   9.638  11.693  0.0045  0.3410 -0.3521
  962MOL0     C29744  11.106   9.781  11.712 -0.8028 -0.2147 -0.3450
  962MOL0     C29745  11.082   9.826  11.856 -1.2025 -0.0868  0.9847
  962MOL0     C29746  10.934   9.822  11.888  0.8286  0.6787 -0.9389
  962MOL0     C29747  10.922   9.825  12.034 -0.3573 -0.2422 -0.7376
  962MOL0     C29748  10.781   9.820  12.095  0.4461 -0.4625 -0.6444
  962MOL0     C29749  10.781   9.828  12.249 -0.5961 -0.1798  0.0310
  962MOL0     C29750  10.645   9.880  12.300 -0.4234 -0.3250  0.0537
  962MOL0     C29751  10.642   9.883  12.441 -0.4230 -0.6585 -0.3767
  962MOL0     N29752  10.650   9.746  12.505 -0.2722 -0.8831 -0.1956
  962MOL0     C29753  10.541   9.663  12.513 -0.4332 -0.7269  0.1678
  962MOL0     C29754  10.591   9.550  12.580 -0.1242  0.2000  1.0212
  962MOL0     C29755  10.495   9.433  12.619  0.4496 -0.0118  0.1786
  962MOL0     C29756  10.555   9.287  12.655  0.2963 -0.0654  0.7761
  962MOL0     C29757  10.442   9.182  12.685 -0.2233  0.4312  0.6695
  962MOL0     C29758  10.483   9.060  12.781 -0.1737 -0.8132 -0.5067
  962MOL0     O29759  10.557   8.962  12.715 -0.2876 -0.2246 -0.9002
  962MOL0     C29760  10.618   8.856  12.793  0.9073  0.0651 -0.4026
  962MOL0     C29761  10.604   8.846  12.937  1.1551  1.1037  1.0062
  962MOL0     C29762  10.663   8.739  13.008 -0.0557 -0.9158 -0.4464
  962MOL0     C29763  10.633   8.743  13.154 -0.5743  0.0895  0.0989
  962MOL0     C29764  10.732   8.641  12.932 -0.5091 -0.2039 -0.9524
  962MOL0     C29765  10.813   8.536  12.997  0.3075  0.5801  0.3621
  962MOL0     O29766  10.830   8.420  12.932 -0.0808  0.1410 -0.1498
  962MOL0     C29767  10.941   8.347  12.958 -1.2371 -0.2073  0.0815
  962MOL0     C29768  10.953   8.263  13.061  0.0600  0.9995 -0.6608
  962MOL0     C29769  11.059   8.183  13.088 -0.1144  0.4123  0.4804
  962MOL0     C29770  11.170   8.180  12.995  0.6470 -0.2803 -1.0164
  962MOL0     O29771  11.273   8.094  13.035 -0.4670  0.6123  0.4580
  962MOL0     C29772  11.407   8.098  12.978  0.1526 -0.5622 -0.4358
  962MOL0     C29773  11.429   8.004  12.861  0.8199 -0.5938  0.2564
  962MOL0     C29774  11.433   7.854  12.913  0.6295 -0.5648  0.0613
  962MOL0     C29775  11.374   7.770  12.801 -0.4526  0.4938 -0.2548
  962MOL0     C29776  11.424   7.623  12.818  0.0724 -0.7563  0.4985
  962MOL0     C29777  11.428   7.544  12.689  0.3350  0.2217  0.1930
  962MOL0     C29778  11.563   7.570  12.617 -0.0999 -0.5870  0.3087
  962MOL0     C29779  11.562   7.499  12.485 -0.3197  0.8694  0.3308
  962MOL0    Cl29780  11.548   7.613  12.347  0.0876  0.0114  0.3122
  962MOL0     C29781  11.152   8.249  12.877 -0.7931 -0.2021 -0.3763
  962MOL0     C29782  11.042   8.336  12.854  0.5775 -0.2185 -0.0460
  962MOL0     O29783  10.863   8.556  13.106  0.0041 -0.2170 -0.1591
  962MOL0     C29784  10.732   8.646  12.793  0.2962 -1.0923  0.5673
  962MOL0     C29785  10.671   8.754  12.728  0.5466  0.3700 -0.4719
  962MOL0     N29786  10.712   9.575  12.626 -0.0192 -0.7846 -0.4652
  962MOL0     N29787  10.748   9.682  12.572 -0.3247  0.2467  0.3064
  962MOL0     C29788  11.193   9.445  11.588  0.0790  0.1288  0.2014
  962MOL0     C29789  11.248   9.381  11.477 -0.7151  0.1449  1.0115
  962MOL0     C29790  11.495   9.337  11.073  0.4206  0.5210  0.0676
  962MOL0     C29791  11.572   9.379  10.961  0.8252  0.0534  0.9987
  962MOL0     C29792  11.643   9.284  10.879  0.2513  0.5399  0.5519
  962MOL0     C29793  11.631   9.153  10.908 -0.9493 -0.1653  0.5680
  962MOL0     O29794  11.696   9.069  10.824  1.1467  0.0111  0.1195
  962MOL0     C29795  11.661   8.934  10.816 -0.1160 -0.1394 -0.4229
  962MOL0     C29796  11.701   8.882  10.674 -0.1566  0.5070  0.4241
  962MOL0     C29797  11.670   8.730  10.641 -0.5731 -0.9087 -0.2481
  962MOL0     C29798  11.753   8.628  10.726  0.3096  0.5411  0.2132
  962MOL0     C29799  11.890   8.642  10.687  0.3067 -0.2240 -0.7630
  962MOL0     C29800  12.005   8.665  10.659 -0.0049 -0.2311 -0.2605
  962MOL0     C29801  11.554   9.111  11.015 -0.1092 -0.0588 -0.8257
  962MOL0     C29802  11.490   9.202  11.097 -0.4098  0.8137  0.0562
  962MOL0     H29803  11.263   9.631  11.268  0.5902 -1.3134  0.4922
  962MOL0     H29804  11.163   9.752  11.464 -1.4449 -0.1714  1.3490
  962MOL0     H29805  11.206   9.815  11.684 -2.3653  4.7906 -0.8134
  962MOL0     H29806  11.038   9.826  11.639 -0.5347 -3.0317 -2.4636
  962MOL0     H29807  11.140   9.763  11.924 -0.0736 -2.8972 -2.2896
  962MOL0     H29808  11.119   9.925  11.883  1.6734 -1.3727  2.1411
  962MOL0     H29809  10.899   9.919  11.853  0.5439  0.7947 -0.3279
  962MOL0     H29810  10.871   9.747  11.839 -3.6200  2.7613  1.1227
  962MOL0     H29811  10.975   9.739  12.076 -5.0279 -2.4238  1.5561
  962MOL0     H29812  10.976   9.911  12.073  2.1793 -2.0963  0.1296
  962MOL0     H29813  10.722   9.902  12.053  0.0827 -0.4963 -0.2090
  962MOL0     H29814  10.729   9.726  12.073 -0.4898  0.3065 -1.8481
  962MOL0     H29815  10.800   9.723  12.271  2.1253 -0.2284 -2.0270
  962MOL0     H29816  10.864   9.880  12.297  2.5067 -4.7230  0.1794
  962MOL0     H29817  10.628   9.982  12.266  0.4048 -0.3948 -0.6312
  962MOL0     H29818  10.565   9.829  12.247 -2.5495  2.9982 -0.2032
  962MOL0     H29819  10.553   9.931  12.482  1.4364  1.8563  1.0026
  962MOL0     H29820  10.729   9.938  12.477  0.4234 -0.7142 -2.2385
  962MOL0     H29821  10.444   9.681  12.469 -0.9457 -1.0896  1.1043
  962MOL0     H29822  10.429   9.455  12.704  2.8384 -2.2449  2.8096
  962MOL0     H29823  10.434   9.429  12.528  0.5992 -0.1851  0.0866
  962MOL0     H29824  10.612   9.308  12.746  0.6695 -0.5984  0.6682
  962MOL0     H29825  10.618   9.247  12.575 -0.6713 -1.4717  0.6861
  962MOL0     H29826  10.422   9.141  12.585  4.1479  0.6980 -0.5207
  962MOL0     H29827  10.359   9.231  12.737 -0.5994  0.0237  0.4658
  962MOL0     H29828  10.390   9.030  12.829  0.1838  3.2079  3.3269
  962MOL0     H29829  10.554   9.098  12.855  0.4622  0.1460 -1.5684
  962MOL0     H29830  10.568   8.932  12.992 -3.2847  1.0981 -1.4366
  962MOL0     H29831  10.603   8.649  13.202  1.1011 -1.8722 -2.4122
  962MOL0     H29832  10.722   8.780  13.206  0.7240 -0.4731 -1.6373
  962MOL0     H29833  10.556   8.816  13.181  0.5491  0.6119  2.1401
  962MOL0     H29834  10.881   8.273  13.142  0.2333 -1.8489 -0.0503
  962MOL0     H29835  11.066   8.113  13.170  1.3298 -1.2974 -1.0208
  962MOL0     H29836  11.418   8.201  12.941 -5.1750  0.5981  0.4319
  962MOL0     H29837  11.488   8.083  13.051  3.9254  2.3194 -3.5490
  962MOL0     H29838  11.356   8.021  12.781 -2.0109  3.9523  3.3463
  962MOL0     H29839  11.532   8.029  12.831  0.5978  2.5540  1.7293
  962MOL0     H29840  11.371   7.831  13.000 -0.9055 -0.7145 -1.0417
  962MOL0     H29841  11.536   7.837  12.946  0.6993 -3.4698 -1.3205
  962MOL0     H29842  11.266   7.783  12.814 -0.2619  0.5704  1.4113
  962MOL0     H29843  11.385   7.805  12.698 -5.4144  2.7368 -0.3165
  962MOL0     H29844  11.362   7.567  12.888 -1.4962 -0.5938 -0.7122
  962MOL0     H29845  11.523   7.636  12.862 -0.5861  1.8653  1.4186
  962MOL0     H29846  11.432   7.437  12.713  0.4449  0.1223 -0.2468
  962MOL0     H29847  11.332   7.561  12.640  0.9668  2.1253 -0.4704
  962MOL0     H29848  11.637   7.519  12.679 -0.1369  0.1849  0.9997
  962MOL0     H29849  11.576   7.678  12.601 -2.7885 -0.1164  0.9335
  962MOL0     H29850  11.483   7.424  12.477 -0.6779  1.3593 -1.0371
  962MOL0     H29851  11.656   7.445  12.465 -0.4222  1.0481 -0.7036
  962MOL0     H29852  11.237   8.254  12.809  0.2162  0.6468  0.9143
  962MOL0     H29853  11.037   8.390  12.761  0.0823 -1.2501 -0.6401
  962MOL0     H29854  10.788   8.569  12.741 -1.2735 -0.2977 -2.5367
  962MOL0     H29855  10.689   8.760  12.621  0.5609 -0.6220 -0.5320
  962MOL0     H29856  11.167   9.391  11.679  1.8873 -2.0359 -0.4661
  962MOL0     H29857  11.274   9.276  11.479 -2.0711 -0.1957  1.0123
  962MOL0     H29858  11.574   9.485  10.940  1.4977  0.3493  2.4022
  962MOL0     H29859  11.697   9.321  10.793 -1.7040  1.9283 -0.1599
  962MOL0     H29860  11.725   8.887  10.891  1.8866  1.6836 -0.8650
  962MOL0     H29861  11.554   8.918  10.831  0.0340 -0.1435  0.7229
  962MOL0     H29862  11.808   8.899  10.658  0.4823  0.3307  3.8657
  962MOL0     H29863  11.646   8.947  10.606 -2.0846 -0.2959  1.1671
  962MOL0     H29864  11.692   8.721  10.534 -0.9823 -0.3343 -0.3886
  962MOL0     H29865  11.564   8.718  10.666 -0.1987 -0.6618  1.5467
  962MOL0     H29866  11.714   8.529  10.703  1.5752  0.0721 -0.0184
  962MOL0     H29867  11.736   8.643  10.833 -3.7631 -1.9649  0.1060
  962MOL0     H29868  12.109   8.689  10.644  0.0644 -0.0477  0.4584
  962MOL0     H29869  11.533   9.005  11.011 -1.8905  0.0875  1.9713
  962MOL0     H29870  11.420   9.164  11.172 -1.1980  0.5344 -0.7913
  963MOL0     O29871  10.261   5.640   7.719  0.5080  0.2200  0.5552
  963MOL0     C29872  10.314   5.734   7.657  0.1797  0.3975  0.9065
  963MOL0     O29873  10.315   5.754   7.522  0.4157  0.3028 -0.3804
  963MOL0     C29874  10.243   5.664   7.446 -0.5169  0.1659 -0.2827
  963MOL0     C29875  10.139   5.722   7.374 -1.0854  0.6024  0.1798
  963MOL0     C29876  10.068   5.638   7.291  0.3862  0.0477 -0.2535
  963MOL0     C29877  10.100   5.500   7.281  0.5469  0.3977  0.6388
  963MOL0     O29878  10.035   5.411   7.201  0.6540 -0.3228 -0.1098
  963MOL0     C29879  10.072   5.432   7.070  0.6253  0.9328  0.5682
  963MOL0     C29880  10.088   5.298   6.988  0.3685 -0.4335  1.0631
  963MOL0     C29881  10.175   5.204   7.065 -0.1219 -0.6302 -0.1192
  963MOL0     C29882  10.165   5.068   6.998  1.3105 -0.1308 -0.0464
  963MOL0     C29883  10.232   4.966   7.095 -0.9001  0.4419 -0.9121
  963MOL0     C29884  10.384   4.960   7.096 -0.2560 -0.2345  0.4303
  963MOL0     C29885  10.455   4.844   7.167 -0.8558  0.2788 -1.1053
  963MOL0     C29886  10.397   4.821   7.314 -0.3480 -0.3993  0.0412
  963MOL0     N29887  10.427   4.933   7.396 -0.3374  0.4662 -0.0384
  963MOL0     C29888  10.540   4.935   7.467 -0.1201  0.1685 -0.3238
  963MOL0     C29889  10.521   5.036   7.556  0.3762 -0.5264 -0.5369
  963MOL0     C29890  10.608   5.094   7.667 -0.0832  1.2697 -0.5622
  963MOL0     C29891  10.538   5.141   7.792 -0.5647 -0.2683 -0.7315
  963MOL0     C29892  10.504   5.289   7.792 -0.2721  0.1087 -0.9002
  963MOL0     C29893  10.399   5.337   7.900  0.4987  0.3382  0.6758
  963MOL0     O29894  10.465   5.344   8.031  1.0985 -0.1613 -0.5463
  963MOL0     C29895  10.384   5.310   8.136 -0.1055  0.2784 -0.2654
  963MOL0     C29896  10.347   5.412   8.213  0.1643 -0.0887 -0.2821
  963MOL0     C29897  10.297   5.392   8.343  0.2214 -0.1173  0.7101
  963MOL0     C29898  10.254   5.507   8.425  0.6868 -0.1712 -0.1177
  963MOL0     C29899  10.285   5.257   8.385 -0.0367  0.2956 -0.2210
  963MOL0     C29900  10.238   5.227   8.520  0.3101  0.5525 -0.1149
  963MOL0     O29901  10.137   5.140   8.530 -0.2350  0.1962 -0.9085
  963MOL0     C29902  10.111   5.095   8.659  0.5416  0.2359  0.0061
  963MOL0     C29903  10.019   5.162   8.739 -0.0998  0.9426  0.1491
  963MOL0     C29904   9.999   5.113   8.870  0.2023 -0.2546  0.4074
  963MOL0     C29905  10.067   5.005   8.924  0.0677  0.0024  0.5179
  963MOL0     O29906  10.053   4.974   9.056  0.6466  0.1437  0.2070
  963MOL0     C29907  10.174   4.939   9.131 -0.3085  0.3600 -0.4860
  963MOL0     C29908  10.150   4.970   9.280 -0.1974 -0.2124 -0.6768
  963MOL0     C29909  10.183   5.122   9.313 -0.4478  0.0332  0.5740
  963MOL0     C29910  10.308   5.129   9.405 -0.6238 -0.5775 -0.3626
  963MOL0     C29911  10.325   5.262   9.458  0.4866 -0.2098 -1.1804
  963MOL0     C29912  10.428   5.276   9.568  0.8972 -0.3190  0.1160
  963MOL0     C29913  10.416   5.171   9.680 -0.6257 -1.1510 -0.5506
  963MOL0     C29914  10.532   5.189   9.780 -0.0556  0.1811 -0.1392
  963MOL0    Cl29915  10.489   5.338   9.871  0.1168  0.6289 -0.0027
  963MOL0     C29916  10.159   4.946   8.839  1.1917 -0.6110 -0.5604
  963MOL0     C29917  10.181   4.992   8.710 -0.3253 -0.9115 -0.3243
  963MOL0     O29918  10.294   5.289   8.612 -0.4625  0.3428  0.7655
  963MOL0     C29919  10.329   5.153   8.299  0.3892  0.3877 -0.8239
  963MOL0     C29920  10.367   5.180   8.170 -0.2029 -0.0539 -0.5110
  963MOL0     N29921  10.408   5.097   7.521  0.2821 -0.9937 -0.3728
  963MOL0     N29922  10.347   5.036   7.431 -0.1776  1.3256  1.2245
  963MOL0     C29923  10.190   5.436   7.368  0.4147 -0.7073  0.1024
  963MOL0     C29924  10.272   5.521   7.439  0.8925  0.4181  0.1016
  963MOL0     C29925  10.382   5.826   7.748  0.7663 -0.5680  0.4775
  963MOL0     C29926  10.368   5.831   7.884  0.7040 -0.7046 -0.0818
  963MOL0     C29927  10.437   5.917   7.964 -0.2977 -0.1256 -0.0586
  963MOL0     C29928  10.545   5.993   7.908  0.0570 -0.4239  0.1908
  963MOL0     O29929  10.629   6.058   7.989  0.0692 -0.1229  0.4114
  963MOL0     C29930  10.620   6.083   8.134  0.6661  0.0816  0.0023
  963MOL0     C29931  10.538   6.211   8.163 -1.4371  0.6980 -0.2934
  963MOL0     C29932  10.605   6.333   8.108  0.0725  1.5076  0.3221
  963MOL0     C29933  10.535   6.455   8.163 -0.2962  0.1955  0.1568
  963MOL0     C29934  10.547   6.475   8.310 -0.4238 -1.0075 -0.4168
  963MOL0     C29935  10.544   6.498   8.430 -0.0982  0.1988  0.2684
  963MOL0     C29936  10.553   5.998   7.766 -0.7349  0.4794  0.3591
  963MOL0     C29937  10.473   5.914   7.688  0.6332  0.0116  0.3207
  963MOL0     H29938  10.128   5.829   7.388 -0.9324  0.6700 -0.1889
  963MOL0     H29939  10.002   5.692   7.224  4.1765  4.1069 -1.1988
  963MOL0     H29940  10.000   5.499   7.023  1.2148  1.8115  0.8903
  963MOL0     H29941  10.175   5.470   7.065  1.6118 -1.6662 -2.7658
  963MOL0     H29942   9.990   5.255   6.964  1.3364 -1.0090 -2.4059
  963MOL0     H29943  10.126   5.330   6.890 -0.2726  0.9194  1.2286
  963MOL0     H29944  10.282   5.219   7.046 -0.5610  0.1428 -2.3587
  963MOL0     H29945  10.156   5.209   7.172  0.6181  1.5545 -0.0308
  963MOL0     H29946  10.062   5.032   6.990  1.3077 -0.5579  1.5824
  963MOL0     H29947  10.207   5.080   6.898  2.8789  1.5292  0.7465
  963MOL0     H29948  10.194   4.965   7.197 -1.6213 -0.7751 -1.1636
  963MOL0     H29949  10.196   4.867   7.065  1.1345 -1.3040  1.9651
  963MOL0     H29950  10.429   4.964   6.996 -0.4590  1.1281  0.3725
  963MOL0     H29951  10.407   5.058   7.139  1.7266 -0.2798 -0.3856
  963MOL0     H29952  10.450   4.754   7.104  3.2331 -0.7800 -0.1908
  963MOL0     H29953  10.557   4.874   7.188 -1.9268  3.5051  0.0739
  963MOL0     H29954  10.435   4.725   7.350  0.6222  0.1321  0.4795
  963MOL0     H29955  10.289   4.808   7.306 -0.2324 -0.2797 -3.1566
  963MOL0     H29956  10.623   4.865   7.458 -0.6091 -0.4022 -0.4429
  963MOL0     H29957  10.680   5.017   7.694 -0.3572  1.3640  0.4846
  963MOL0     H29958  10.654   5.178   7.614  1.7448 -0.1991 -1.3987
  963MOL0     H29959  10.587   5.108   7.884 -2.9592 -1.0855  0.3378
  963MOL0     H29960  10.442   5.089   7.795 -1.2853  1.0751  1.1172
  963MOL0     H29961  10.468   5.322   7.694 -0.3055 -1.1155 -1.3120
  963MOL0     H29962  10.599   5.342   7.805  0.6765 -0.6084 -4.0765
  963MOL0     H29963  10.314   5.267   7.897  3.5965 -3.7487 -0.5015
  963MOL0     H29964  10.370   5.438   7.870  1.6902 -0.0711 -2.1195
  963MOL0     H29965  10.357   5.517   8.190 -2.1131  0.3566  0.5114
  963MOL0     H29966  10.247   5.593   8.357 -0.2887 -0.3197 -0.2212
  963MOL0     H29967  10.153   5.499   8.467 -0.0769 -1.0351 -1.9961
  963MOL0     H29968  10.328   5.534   8.500 -1.1079  4.4138  0.3951
  963MOL0     H29969   9.977   5.259   8.712 -1.8391  0.0207 -0.5983
  963MOL0     H29970   9.942   5.175   8.937  1.3097  0.4572  0.7104
  963MOL0     H29971  10.192   4.831   9.124 -0.4376  0.2020  1.2161
  963MOL0     H29972  10.264   4.992   9.099 -0.4452  0.7007 -0.3049
  963MOL0     H29973  10.042   4.959   9.291 -0.2636  1.1257  0.3693
  963MOL0     H29974  10.206   4.907   9.350 -2.7645 -2.5463 -0.5777
  963MOL0     H29975  10.105   5.188   9.351  0.3240  2.2646 -1.4615
  963MOL0     H29976  10.212   5.167   9.218 -0.6253 -0.0401  0.4861
  963MOL0     H29977  10.293   5.055   9.484 -2.0802  0.7636  0.6843
  963MOL0     H29978  10.400   5.101   9.351 -0.1344 -0.1323  0.2295
  963MOL0     H29979  10.226   5.275   9.502  1.9430 -1.6043  3.0376
  963MOL0     H29980  10.349   5.341   9.386  0.4611  1.7521  0.8339
  963MOL0     H29981  10.530   5.281   9.529  0.2366 -0.2336 -1.7006
  963MOL0     H29982  10.410   5.377   9.605  0.9086 -1.3669  3.3504
  963MOL0     H29983  10.435   5.075   9.631  0.6505 -1.4473  0.4590
  963MOL0     H29984  10.319   5.170   9.729  0.0189  1.2779  0.9844
  963MOL0     H29985  10.629   5.196   9.730  0.2719 -0.6763  0.3518
  963MOL0     H29986  10.543   5.100   9.843  1.1488 -0.1392 -0.7630
  963MOL0     H29987  10.212   4.858   8.873 -0.7846 -1.0367  1.7443
  963MOL0     H29988  10.243   4.955   8.629  1.6657  0.0481  0.6991
  963MOL0     H29989  10.317   5.050   8.329 -0.5459  0.7896  0.2725
  963MOL0     H29990  10.382   5.092   8.108  1.6428 -0.1709  0.0258
  963MOL0     H29991  10.205   5.329   7.369  0.5654 -0.7078 -0.9157
  963MOL0     H29992  10.343   5.476   7.507 -0.2917  1.8212  2.3958
  963MOL0     H29993  10.311   5.757   7.941  1.4926 -1.5356 -0.3431
  963MOL0     H29994  10.413   5.913   8.070 -1.8162  1.0532 -0.3343
  963MOL0     H29995  10.578   6.002   8.193 -3.1389  1.4840 -0.5132
  963MOL0     H29996  10.726   6.090   8.160  1.0606  2.0438 -1.8242
  963MOL0     H29997  10.529   6.209   8.272  0.5352 -1.9896 -0.0908
  963MOL0     H29998  10.440   6.215   8.113 -1.8484  0.1897  0.4478
  963MOL0     H29999  10.601   6.342   7.999  2.3889  4.2816  0.3295
  963MOL0     H30000  10.710   6.337   8.139  0.3931 -3.3640  0.6017
  963MOL0     H30001  10.427   6.444   8.150 -0.3952 -0.9654  1.6674
  963MOL0     H30002  10.558   6.552   8.118  3.1846 -1.0114 -0.9907
  963MOL0     H30003  10.554   6.541   8.528  2.5992  1.8675 -0.6352
  963MOL0     H30004  10.629   6.060   7.719 -2.4374  1.3936 -1.3353
  963MOL0     H30005  10.479   5.931   7.581  1.5185  0.4123  0.4261
  964MOL0     O30006   2.590   0.907   2.682  0.4183  0.0023 -0.2065
  964MOL0     C30007   2.590   0.986   2.590 -0.1801  1.0951 -0.5508
  964MOL0     O30008   2.578   1.121   2.596  0.2352 -0.0045 -0.7357
  964MOL0     C30009   2.570   1.162   2.727 -0.6642  0.3523 -1.0407
  964MOL0     C30010   2.674   1.167   2.819  0.1450 -0.1406 -0.0233
  964MOL0     C30011   2.662   1.212   2.949 -0.1184  0.0774  0.4712
  964MOL0     C30012   2.534   1.257   2.993  0.0419 -0.1948 -0.1034
  964MOL0     O30013   2.529   1.293   3.125  0.6657  0.1274 -0.7631
  964MOL0     C30014   2.402   1.352   3.175  0.2351 -0.6511 -0.6139
  964MOL0     C30015   2.422   1.447   3.292 -0.8215  0.3967  0.0974
  964MOL0     C30016   2.294   1.473   3.352 -0.4758 -1.2711 -0.3040
  964MOL0     C30017   2.190   1.514   3.239 -1.0635 -0.5123 -0.9080
  964MOL0     C30018   2.057   1.553   3.303 -0.3636  0.7922  1.3315
  964MOL0     C30019   1.947   1.571   3.191  0.2725 -0.2794 -1.4332
  964MOL0     C30020   1.818   1.602   3.268  0.5788 -0.6295  0.1481
  964MOL0     C30021   1.698   1.622   3.170 -0.3234  0.0334 -0.1250
  964MOL0     N30022   1.579   1.681   3.233  0.2457  0.3249  0.1182
  964MOL0     C30023   1.552   1.813   3.263  0.3287 -0.3301  0.1095
  964MOL0     C30024   1.432   1.811   3.332  0.5609  0.4843  0.0387
  964MOL0     C30025   1.353   1.937   3.370  0.2958 -0.7981  0.4646
  964MOL0     C30026   1.289   2.008   3.244 -0.1058 -0.1576 -0.0373
  964MOL0     C30027   1.153   1.955   3.198 -0.1251 -0.4939 -0.2039
  964MOL0     C30028   1.045   2.003   3.291 -0.2144 -0.1558 -0.3069
  964MOL0     O30029   1.044   2.138   3.328  0.2457 -0.2997  0.3637
  964MOL0     C30030   0.999   2.215   3.221 -0.5682  0.1181  0.4498
  964MOL0     C30031   0.922   2.175   3.101  0.1114  0.8172 -0.4837
  964MOL0     C30032   0.879   2.277   3.007  0.3881 -0.6026 -0.3440
  964MOL0     C30033   0.804   2.239   2.887 -0.7722  0.3853  0.4591
  964MOL0     C30034   0.899   2.420   3.030  0.4860  0.1398 -0.8624
  964MOL0     C30035   0.840   2.534   2.943 -0.0003 -1.2364  0.1587
  964MOL0     O30036   0.891   2.660   2.963  0.3891 -0.3882  0.7744
  964MOL0     C30037   0.847   2.775   2.900  0.5462 -0.4172 -0.6686
  964MOL0     C30038   0.915   2.882   2.950 -0.5132  0.1986 -0.4961
  964MOL0     C30039   0.872   3.015   2.924 -1.0707 -0.3845 -0.8660
  964MOL0     C30040   0.772   3.042   2.830 -0.1071  0.2362 -0.3167
  964MOL0     O30041   0.739   3.173   2.817 -0.4591 -0.5403  0.2074
  964MOL0     C30042   0.722   3.232   2.685 -0.3587 -0.5002  0.0878
  964MOL0     C30043   0.759   3.378   2.682  0.8992  0.6069  0.5667
  964MOL0     C30044   0.914   3.378   2.695 -0.4756 -0.2898 -0.1398
  964MOL0     C30045   0.974   3.386   2.833 -0.3295 -0.7818  0.1268
  964MOL0     C30046   1.129   3.406   2.846 -0.2126 -0.1160  0.6396
  964MOL0     C30047   1.167   3.363   2.996 -0.7992 -0.2467 -1.0544
  964MOL0     C30048   1.318   3.368   3.005 -0.5574  0.0863  0.1299
  964MOL0     C30049   1.374   3.325   3.137 -0.1036 -0.0136  0.3146
  964MOL0    Cl30050   1.329   3.432   3.269 -0.6628 -0.4049 -0.1453
  964MOL0     C30051   0.713   2.930   2.772  0.9298 -0.5899  0.0563
  964MOL0     C30052   0.742   2.798   2.810 -0.0075  0.4392  0.2998
  964MOL0     O30053   0.753   2.514   2.854 -0.9682  0.2443 -1.4990
  964MOL0     C30054   0.976   2.460   3.144  1.0788  0.7231  0.0531
  964MOL0     C30055   1.020   2.351   3.231 -0.1310 -1.2149  0.6588
  964MOL0     N30056   1.390   1.679   3.340 -0.6094 -0.6196  1.0119
  964MOL0     N30057   1.475   1.601   3.280 -0.1775 -0.6640  0.3008
  964MOL0     C30058   2.427   1.260   2.902 -0.2022 -0.0333 -0.2409
  964MOL0     C30059   2.448   1.205   2.775  0.3692 -0.8460 -0.3018
  964MOL0     C30060   2.612   0.935   2.456  0.0179  0.5861 -0.0663
  964MOL0     C30061   2.621   1.014   2.340 -0.1199 -0.4302 -0.1926
  964MOL0     C30062   2.647   0.974   2.211  0.1378 -1.4231 -0.3693
  964MOL0     C30063   2.699   0.849   2.199  0.8619  0.5891 -0.2077
  964MOL0     O30064   2.740   0.785   2.078 -0.6854  0.2990 -0.2020
  964MOL0     C30065   2.710   0.854   1.961  0.4602 -0.6779 -0.1844
  964MOL0     C30066   2.563   0.848   1.926  0.8238 -0.0185  0.2824
  964MOL0     C30067   2.540   0.921   1.795 -0.4314  0.3846  0.6200
  964MOL0     C30068   2.509   1.071   1.799 -0.3698 -0.2826  0.2402
  964MOL0     C30069   2.385   1.097   1.874  0.5456 -0.4214  0.2174
  964MOL0     C30070   2.278   1.118   1.926 -0.3197  0.4359 -0.6119
  964MOL0     C30071   2.688   0.756   2.306  1.1510 -0.4484 -0.3690
  964MOL0     C30072   2.643   0.795   2.428  1.0866  0.1890  0.1510
  964MOL0     H30073   2.770   1.122   2.796  2.0532  3.4101  0.1548
  964MOL0     H30074   2.746   1.210   3.017 -1.0575  1.6269  1.7294
  964MOL0     H30075   2.358   1.414   3.096  0.4849  3.5740  2.2071
  964MOL0     H30076   2.343   1.262   3.196  1.9120 -1.3736  1.2708
  964MOL0     H30077   2.490   1.395   3.360  0.7932 -0.2249 -1.8870
  964MOL0     H30078   2.466   1.541   3.256 -2.6101  1.3878  0.3827
  964MOL0     H30079   2.257   1.379   3.395 -0.9737 -1.3770 -0.9475
  964MOL0     H30080   2.290   1.544   3.435 -0.4645  1.4134 -2.4371
  964MOL0     H30081   2.232   1.595   3.179  1.8743  0.0281  1.6132
  964MOL0     H30082   2.165   1.433   3.169 -0.0408 -1.1012 -0.6263
  964MOL0     H30083   2.016   1.484   3.377  3.1258 -1.7722  1.1166
  964MOL0     H30084   2.072   1.652   3.347  1.8164  1.3078 -0.4103
  964MOL0     H30085   1.976   1.659   3.134  1.7340 -0.6256 -1.2511
  964MOL0     H30086   1.950   1.480   3.131 -2.3219 -1.9385  0.7282
  964MOL0     H30087   1.786   1.516   3.327  0.9494  0.1862  1.5939
  964MOL0     H30088   1.833   1.693   3.327  2.7171 -1.3033  0.7112
  964MOL0     H30089   1.682   1.519   3.137  0.8519 -0.8513  1.8785
  964MOL0     H30090   1.732   1.682   3.085  1.7742 -0.7453  0.1066
  964MOL0     H30091   1.604   1.904   3.234  1.2378 -1.3829 -1.7399
  964MOL0     H30092   1.272   1.916   3.441  0.1451 -1.1543  0.1901
  964MOL0     H30093   1.423   2.010   3.412 -0.6571  2.0993 -2.5816
  964MOL0     H30094   1.353   1.990   3.157 -2.4046 -2.0025 -1.4872
  964MOL0     H30095   1.284   2.116   3.265 -0.5010 -0.4245  1.3550
  964MOL0     H30096   1.154   1.846   3.193  1.7183 -0.6471  2.2659
  964MOL0     H30097   1.126   1.997   3.100 -1.3402 -1.8331 -0.4807
  964MOL0     H30098   1.066   1.948   3.383  0.8679 -0.3538 -0.6545
  964MOL0     H30099   0.947   1.971   3.253 -0.0870  2.1132 -2.8423
  964MOL0     H30100   0.905   2.069   3.082 -1.2386  1.2603 -1.9428
  964MOL0     H30101   0.823   2.296   2.796 -3.7965 -0.1453 -0.6446
  964MOL0     H30102   0.825   2.134   2.866  0.1582  0.9577 -1.6529
  964MOL0     H30103   0.695   2.234   2.898 -0.9344 -2.5752 -1.3420
  964MOL0     H30104   0.992   2.860   3.024 -0.1186 -1.8511 -1.4315
  964MOL0     H30105   0.919   3.093   2.983  0.8220 -1.4801 -0.8516
  964MOL0     H30106   0.767   3.174   2.604 -1.0871 -1.4637  0.3437
  964MOL0     H30107   0.613   3.236   2.678 -0.5297 -2.1358  1.1311
  964MOL0     H30108   0.716   3.438   2.601 -3.3863 -1.1553  1.2493
  964MOL0     H30109   0.710   3.421   2.770 -0.6922  1.8380 -0.8503
  964MOL0     H30110   0.960   3.462   2.643 -0.0548 -0.9303 -0.8326
  964MOL0     H30111   0.953   3.288   2.646  1.2473 -0.1989  0.9593
  964MOL0     H30112   0.930   3.463   2.897  1.9156  1.4849 -0.8748
  964MOL0     H30113   0.954   3.288   2.878 -0.4812 -1.2613 -0.9731
  964MOL0     H30114   1.159   3.510   2.826  0.5231 -0.3456  0.4997
  964MOL0     H30115   1.170   3.333   2.776 -1.8267  0.9557 -1.5345
  964MOL0     H30116   1.118   3.425   3.071 -2.6644 -3.4117  0.5474
  964MOL0     H30117   1.134   3.263   3.024 -1.6288  1.4988  6.3090
  964MOL0     H30118   1.351   3.471   3.024  0.6140 -0.9151  4.6501
  964MOL0     H30119   1.361   3.327   2.913 -2.4435  0.7389 -1.1281
  964MOL0     H30120   1.483   3.336   3.124  0.0426 -2.5254 -1.1713
  964MOL0     H30121   1.349   3.220   3.152 -1.4659 -0.1600 -2.4344
  964MOL0     H30122   0.631   2.949   2.703 -0.2483 -0.2459  1.5167
  964MOL0     H30123   0.692   2.721   2.753 -0.0153  2.0812 -2.0352
  964MOL0     H30124   0.985   2.564   3.173 -2.2078  0.9321  0.7904
  964MOL0     H30125   1.073   2.384   3.319  0.1321  0.0852  0.0488
  964MOL0     H30126   2.329   1.277   2.944  0.5055  0.0862  1.4425
  964MOL0     H30127   2.368   1.202   2.702  0.9643  0.7475 -1.0672
  964MOL0     H30128   2.596   1.120   2.348  1.1362 -0.2537  2.7064
  964MOL0     H30129   2.670   1.054   2.141  0.1417  0.2168  1.4195
  964MOL0     H30130   2.749   0.957   1.954 -0.6889 -0.3345 -2.4961
  964MOL0     H30131   2.765   0.789   1.892  2.2217 -0.5535  1.0363
  964MOL0     H30132   2.494   0.880   2.005 -0.1396 -2.2883  0.4354
  964MOL0     H30133   2.547   0.741   1.911  1.2053  0.0269 -0.4492
  964MOL0     H30134   2.454   0.875   1.746  0.7912  0.0045 -1.2702
  964MOL0     H30135   2.627   0.908   1.732 -1.9741 -1.1044 -1.3206
  964MOL0     H30136   2.496   1.097   1.693 -3.8477 -0.2244  0.5673
  964MOL0     H30137   2.592   1.134   1.832 -1.0425  0.3741  0.7175
  964MOL0     H30138   2.185   1.140   1.975 -0.1776 -0.7495  0.2545
  964MOL0     H30139   2.720   0.652   2.295  2.2296 -0.0676 -1.0736
  964MOL0     H30140   2.638   0.720   2.507 -0.7250  0.1581  0.0447
  965MOL0     O30141   1.377   0.818   1.067 -0.2757 -0.1218  0.1442
  965MOL0     C30142   1.491   0.846   1.029  0.6743  0.8413  0.0490
  965MOL0     O30143   1.532   0.973   1.018  0.1022  0.5072  0.0545
  965MOL0     C30144   1.456   1.071   1.070 -0.8104 -0.4958 -0.8410
  965MOL0     C30145   1.486   1.138   1.194  0.3900  0.7236  0.3430
  965MOL0     C30146   1.393   1.221   1.267 -0.4530 -0.3796  0.0495
  965MOL0     C30147   1.273   1.249   1.201  0.8192  0.5710  0.1699
  965MOL0     O30148   1.177   1.333   1.244  0.4002 -0.6892  0.2244
  965MOL0     C30149   1.215   1.450   1.313 -0.0572 -0.9824 -0.1598
  965MOL0     C30150   1.216   1.567   1.214  0.3261 -0.0520 -0.7663
  965MOL0     C30151   1.234   1.699   1.289  0.4330  0.4032  0.1243
  965MOL0     C30152   1.184   1.815   1.196  0.8502  0.4827 -0.7682
  965MOL0     C30153   1.250   1.945   1.216 -0.1724 -0.2584 -1.4016
  965MOL0     C30154   1.223   2.047   1.117 -0.2645 -0.3591  0.5514
  965MOL0     C30155   1.087   2.126   1.126 -0.6522  0.3671  0.5630
  965MOL0     C30156   1.058   2.237   1.020  0.3609  0.8649  0.4553
  965MOL0     N30157   0.987   2.183   0.905  0.3742 -0.3379 -0.0458
  965MOL0     C30158   0.863   2.226   0.867 -0.4288  0.0795  0.2793
  965MOL0     C30159   0.826   2.156   0.753 -0.3882  0.2995  0.1687
  965MOL0     C30160   0.700   2.181   0.669 -0.0826  0.6283  0.0968
  965MOL0     C30161   0.651   2.058   0.588  0.6490 -0.6669  0.4552
  965MOL0     C30162   0.591   1.962   0.689 -0.1267  0.8099 -0.4754
  965MOL0     C30163   0.442   1.966   0.690  0.5248 -0.0991  0.5244
  965MOL0     O30164   0.386   2.094   0.731  0.1413  0.3354  0.0040
  965MOL0     C30165   0.380   2.119   0.872  0.6041 -0.3025 -0.0913
  965MOL0     C30166   0.426   2.245   0.917  0.7234  0.3979  0.6855
  965MOL0     C30167   0.440   2.272   1.048 -0.0845  0.7095  0.9053
  965MOL0     C30168   0.487   2.405   1.074 -0.7928  0.5334 -0.6090
  965MOL0     C30169   0.389   2.185   1.148  0.0112 -0.0956  0.4832
  965MOL0     C30170   0.403   2.208   1.299  0.3924 -0.3383 -0.0329
  965MOL0     O30171   0.360   2.099   1.377 -0.1286 -0.2347  0.4135
  965MOL0     C30172   0.370   2.099   1.515  0.4605 -0.6896 -0.5128
  965MOL0     C30173   0.318   2.208   1.586  0.3150  0.3982  0.3730
  965MOL0     C30174   0.314   2.213   1.731  0.2090  0.3303 -0.1131
  965MOL0     C30175   0.379   2.120   1.805  0.1789 -0.4540 -0.2528
  965MOL0     O30176   0.381   2.144   1.945  0.4750  0.1086  0.0149
  965MOL0     C30177   0.504   2.202   1.983  0.3032 -0.2475 -1.4078
  965MOL0     C30178   0.507   2.228   2.137 -0.9677  1.3898  0.5176
  965MOL0     C30179   0.485   2.100   2.231 -0.1653 -0.1275  0.9943
  965MOL0     C30180   0.558   2.096   2.360 -0.2727 -0.4932  0.0437
  965MOL0     C30181   0.505   1.997   2.464 -0.2426  0.6482 -0.2640
  965MOL0     C30182   0.551   2.018   2.604  1.0054 -0.0235  0.7343
  965MOL0     C30183   0.499   1.905   2.692 -0.2003  0.0420 -1.4349
  965MOL0     C30184   0.528   1.921   2.840  0.2394 -0.3925 -0.0203
  965MOL0    Cl30185   0.442   2.049   2.914 -0.2670 -0.4522 -0.0807
  965MOL0     C30186   0.428   2.011   1.732  0.6682  0.5523 -0.8240
  965MOL0     C30187   0.423   1.996   1.588 -0.0701  0.0803 -1.0775
  965MOL0     O30188   0.462   2.310   1.342  0.2976  0.7155 -0.1864
  965MOL0     C30189   0.329   2.066   1.103 -0.8594 -1.2615 -0.5431
  965MOL0     C30190   0.333   2.028   0.970 -0.8432 -0.3673  0.3696
  965MOL0     N30191   0.922   2.053   0.733 -0.6645 -0.1545 -0.7760
  965MOL0     N30192   1.015   2.071   0.820  0.3421  0.0769  0.5548
  965MOL0     C30193   1.237   1.183   1.082  0.4238  0.1271 -0.3931
  965MOL0     C30194   1.323   1.104   1.017 -0.8110  0.5896  0.0411
  965MOL0     C30195   1.591   0.741   1.002  0.4296 -0.0892 -0.2848
  965MOL0     C30196   1.563   0.612   1.031 -1.0264  0.3810 -0.2959
  965MOL0     C30197   1.658   0.516   1.013  0.6766 -0.4430  0.3723
  965MOL0     C30198   1.787   0.552   0.974 -0.4202 -0.8755  0.2280
  965MOL0     O30199   1.877   0.447   0.970 -0.4951  0.4606 -0.0271
  965MOL0     C30200   2.001   0.469   0.906  1.1382 -0.5316 -0.2712
  965MOL0     C30201   2.089   0.350   0.906 -0.2207  0.8679  0.3654
  965MOL0     C30202   2.049   0.252   0.795  0.5547 -0.7769 -0.0473
  965MOL0     C30203   2.088   0.289   0.653 -0.1741  0.6227 -0.9390
  965MOL0     C30204   2.218   0.242   0.610 -0.3440 -0.3627 -0.6739
  965MOL0     C30205   2.338   0.217   0.585  1.2162  0.1905 -1.2416
  965MOL0     C30206   1.817   0.682   0.940  0.1411  0.1040  0.4332
  965MOL0     C30207   1.715   0.780   0.956 -0.7601 -0.4361  0.0738
  965MOL0     H30208   1.582   1.107   1.232  0.0085 -0.9472  0.0343
  965MOL0     H30209   1.414   1.262   1.365 -1.7134  1.1568 -0.2817
  965MOL0     H30210   1.149   1.463   1.399  0.9830  0.7684  0.4178
  965MOL0     H30211   1.313   1.439   1.361 -1.2603 -1.6582  2.2889
  965MOL0     H30212   1.293   1.544   1.141 -0.9011 -0.8317 -1.8633
  965MOL0     H30213   1.115   1.572   1.171 -0.1148  0.5209  0.2834
  965MOL0     H30214   1.190   1.700   1.389  1.0690 -1.7728  0.4809
  965MOL0     H30215   1.338   1.717   1.321  0.8715 -1.6503 -0.0135
  965MOL0     H30216   1.168   1.781   1.094 -3.2317 -1.2210  0.2476
  965MOL0     H30217   1.079   1.837   1.217  1.3520  1.9933  0.3930
  965MOL0     H30218   1.242   1.975   1.321 -2.1950  0.3783 -1.7018
  965MOL0     H30219   1.358   1.928   1.216  0.3928  1.4811  3.7207
  965MOL0     H30220   1.298   2.126   1.128 -2.1799  1.4787  0.9692
  965MOL0     H30221   1.231   1.984   1.028 -2.1996 -3.0465  2.1242
  965MOL0     H30222   1.008   2.050   1.123  1.0692 -1.4750 -1.3615
  965MOL0     H30223   1.086   2.167   1.227 -0.9924  0.5090  0.5024
  965MOL0     H30224   1.148   2.269   0.967  0.0792  0.5403 -0.2422
  965MOL0     H30225   1.004   2.321   1.064  0.3488  2.3765 -2.2255
  965MOL0     H30226   0.811   2.305   0.919 -0.5590 -0.3141  0.7542
  965MOL0     H30227   0.618   2.211   0.735 -2.1744 -0.7561 -1.7574
  965MOL0     H30228   0.734   2.267   0.610  3.7078 -0.5167  0.3309
  965MOL0     H30229   0.748   2.021   0.551  0.8714  0.4939 -0.1932
  965MOL0     H30230   0.590   2.087   0.502 -0.0432  0.2188  1.2258
  965MOL0     H30231   0.620   1.987   0.792  0.0704 -0.6803 -0.1380
  965MOL0     H30232   0.616   1.864   0.648  0.7050  0.1850  1.4260
  965MOL0     H30233   0.409   1.882   0.752  3.2147  0.0495  2.3109
  965MOL0     H30234   0.409   1.949   0.587 -0.8040 -0.3625  0.9782
  965MOL0     H30235   0.452   2.325   0.849 -0.2095 -1.3498 -1.8989
  965MOL0     H30236   0.592   2.407   1.105 -0.3679  1.3875 -1.9747
  965MOL0     H30237   0.476   2.475   0.990  1.9231  0.8414 -0.8251
  965MOL0     H30238   0.424   2.443   1.155  0.3510 -0.7115  0.9250
  965MOL0     H30239   0.281   2.290   1.524  0.7927  1.0822  0.9746
  965MOL0     H30240   0.259   2.300   1.767  0.5955  0.9215 -0.9072
  965MOL0     H30241   0.591   2.139   1.961 -0.0646 -1.6334  0.7591
  965MOL0     H30242   0.515   2.294   1.925 -0.6175 -1.2553 -3.2956
  965MOL0     H30243   0.593   2.292   2.160 -0.8077  0.5512  2.4042
  965MOL0     H30244   0.421   2.293   2.158 -2.7826  0.3194 -2.8997
  965MOL0     H30245   0.507   2.008   2.177  1.6049 -0.5671  2.3651
  965MOL0     H30246   0.383   2.105   2.271  0.6342  0.8492  3.0427
  965MOL0     H30247   0.668   2.091   2.354 -0.0594  2.1958  0.7322
  965MOL0     H30248   0.540   2.190   2.413  2.4687 -0.0896  0.4136
  965MOL0     H30249   0.531   1.894   2.437 -0.2096 -0.2969  3.0234
  965MOL0     H30250   0.396   2.006   2.463 -0.3284 -0.3092 -0.4126
  965MOL0     H30251   0.659   2.003   2.601  0.8353 -1.2780  0.3314
  965MOL0     H30252   0.517   2.116   2.639 -0.0613  1.3405 -3.5623
  965MOL0     H30253   0.544   1.809   2.662 -3.1710 -3.1097  3.0199
  965MOL0     H30254   0.391   1.906   2.679 -0.3830 -0.2332 -0.0233
  965MOL0     H30255   0.635   1.937   2.859  0.0510  2.1599 -0.6437
  965MOL0     H30256   0.486   1.832   2.887 -0.9089 -0.9543 -1.9929
  965MOL0     H30257   0.459   1.926   1.791 -3.8491 -0.9753 -0.3201
  965MOL0     H30258   0.463   1.905   1.543  2.0261 -0.1789  1.0854
  965MOL0     H30259   0.288   2.003   1.181 -1.8108 -0.7125 -0.5858
  965MOL0     H30260   0.269   1.942   0.950 -2.8815  1.3455 -1.0252
  965MOL0     H30261   1.139   1.199   1.039  0.6779  1.1292 -0.6143
  965MOL0     H30262   1.292   1.049   0.928  3.1236 -3.3017  0.7072
  965MOL0     H30263   1.463   0.576   1.052 -1.0160 -1.3251 -2.7889
  965MOL0     H30264   1.644   0.414   1.048  0.4489  0.0808  1.8928
  965MOL0     H30265   1.996   0.515   0.806  3.2380  1.8202  0.5678
  965MOL0     H30266   2.048   0.549   0.965  1.8480  0.2137 -1.7659
  965MOL0     H30267   2.075   0.289   0.996 -4.8505 -0.4132 -0.9772
  965MOL0     H30268   2.192   0.386   0.896 -0.8490  3.5209  2.1247
  965MOL0     H30269   1.941   0.236   0.805  0.0004  2.3206  0.0530
  965MOL0     H30270   2.091   0.155   0.822  1.7809  0.3476  2.4616
  965MOL0     H30271   2.090   0.398   0.642  1.1385  0.8341  0.9401
  965MOL0     H30272   2.011   0.232   0.602  1.2173  0.7385 -3.3350
  965MOL0     H30273   2.435   0.220   0.539  0.8587 -1.3977 -2.1569
  965MOL0     H30274   1.914   0.700   0.895 -0.0387 -3.0133 -1.4567
  965MOL0     H30275   1.724   0.886   0.932  2.4607 -0.2386  1.6438
  966MOL0     O30276   1.060   0.622   9.724  0.7851  1.1916 -0.5764
  966MOL0     C30277   1.154   0.551   9.761  0.3672 -0.8178 -0.4523
  966MOL0     O30278   1.139   0.421   9.812  0.3032 -1.2172  0.3756
  966MOL0     C30279   1.017   0.353   9.822  0.0216 -0.6815 -0.1670
  966MOL0     C30280   1.028   0.215   9.841 -0.4590  1.0776  0.6647
  966MOL0     C30281   0.920   0.130   9.860 -0.2584  0.0256 -0.4063
  966MOL0     C30282   0.795   0.180   9.862 -0.1413 -0.4517  0.7680
  966MOL0     O30283   0.679   0.104   9.854  0.6243  0.9801  0.5567
  966MOL0     C30284   0.674  -0.043   9.852 -0.2070 -0.0628 -0.5402
  966MOL0     C30285   0.685  -0.085   9.998  0.6119  0.0239 -0.0856
  966MOL0     C30286   0.556  -0.050  10.072  0.4421  0.0665  0.7431
  966MOL0     C30287   0.561  -0.087  10.212  0.3749  0.6824 -0.2363
  966MOL0     C30288   0.410  -0.095  10.251  0.1626 -0.6919 -1.2552
  966MOL0     C30289   0.394  -0.157  10.393 -0.5566  0.0952 -0.6461
  966MOL0     C30290   0.251  -0.172  10.452 -0.9797 -0.1518 -0.2970
  966MOL0     C30291   0.248  -0.231  10.591  0.6742 -0.2685  0.0601
  966MOL0     N30292   0.121  -0.232  10.660  0.1052 -0.4413  0.1324
  966MOL0     C30293   0.051  -0.116  10.702  0.6294 -0.4105  0.7169
  966MOL0     C30294  -0.064  -0.158  10.755  0.7732  0.1905  0.4376
  966MOL0     C30295  -0.170  -0.072  10.815 -0.6088 -0.6690 -0.1478
  966MOL0     C30296  -0.108  -0.011  10.943  0.2518 -0.2004 -0.6095
  966MOL0     C30297  -0.202   0.088  11.015  0.2027  0.8402  0.0267
  966MOL0     C30298  -0.204   0.221  10.950  0.1597 -1.0113 -0.5379
  966MOL0     O30299  -0.296   0.302  11.024 -0.0505  0.8614  0.2146
  966MOL0     C30300  -0.421   0.312  10.976  0.7320 -0.7301  0.0689
  966MOL0     C30301  -0.448   0.410  10.881 -0.3104 -0.6508  0.2136
  966MOL0     C30302  -0.579   0.422  10.831 -0.1567  0.3088 -0.5266
  966MOL0     C30303  -0.592   0.531  10.719  0.8346 -0.2185  1.1083
  966MOL0     C30304  -0.681   0.340  10.881 -0.0362 -0.7518 -0.5356
  966MOL0     C30305  -0.820   0.356  10.826  0.6214 -0.4978 -0.6420
  966MOL0     O30306  -0.912   0.368  10.923  0.4754  0.4534  0.7555
  966MOL0     C30307  -1.051   0.345  10.881  0.0494  0.6231 -0.6164
  966MOL0     C30308  -1.096   0.279  10.765  1.1442 -0.1748  0.3613
  966MOL0     C30309  -1.232   0.240  10.763 -0.1149  0.4529 -0.2035
  966MOL0     C30310  -1.318   0.269  10.871 -0.5458 -1.1248 -0.5435
  966MOL0     O30311  -1.447   0.253  10.848  0.0860  0.5622  0.4412
  966MOL0     C30312  -1.499   0.157  10.931 -0.4120  0.7245 -0.3979
  966MOL0     C30313  -1.611   0.085  10.857 -0.2676 -0.0222 -0.1407
  966MOL0     C30314  -1.573   0.003  10.733 -0.3900  0.7323  0.5330
  966MOL0     C30315  -1.538  -0.139  10.776 -0.0300  0.3022  0.1521
  966MOL0     C30316  -1.563  -0.234  10.664  0.0626  0.7805  1.0317
  966MOL0     C30317  -1.553  -0.385  10.698  0.3302  0.2730 -0.3071
  966MOL0     C30318  -1.541  -0.481  10.577 -0.0718 -1.0861  0.1462
  966MOL0     C30319  -1.507  -0.619  10.619  0.3713  0.4292  0.3345
  966MOL0    Cl30320  -1.336  -0.621  10.660 -0.2931  0.1672  0.5459
  966MOL0     C30321  -1.276   0.353  10.969  0.0073 -0.9605  0.4619
  966MOL0     C30322  -1.140   0.381  10.985 -0.4807 -0.0273  0.0842
  966MOL0     O30323  -0.842   0.377  10.705 -0.6107  0.2270  0.1213
  966MOL0     C30324  -0.648   0.246  10.984  0.8520  0.2385  0.0766
  966MOL0     C30325  -0.516   0.223  11.025  0.5283 -0.5689  0.1971
  966MOL0     N30326  -0.074  -0.295  10.726 -0.2511  1.1818 -0.2357
  966MOL0     N30327   0.039  -0.338  10.675  0.4961 -0.3862 -0.3408
  966MOL0     C30328   0.775   0.311   9.827  0.1257  0.4061 -0.5373
  966MOL0     C30329   0.886   0.402   9.822  0.1110 -0.0536 -0.7364
  966MOL0     C30330   1.291   0.586   9.729  0.4853 -0.6411 -0.8002
  966MOL0     C30331   1.401   0.515   9.780  1.2281 -0.9109 -0.2346
  966MOL0     C30332   1.525   0.573   9.758 -0.6265 -0.1679 -0.7926
  966MOL0     C30333   1.554   0.690   9.691  0.1016 -0.5921 -0.3500
  966MOL0     O30334   1.683   0.734   9.696 -0.4588  0.3849  0.6354
  966MOL0     C30335   1.737   0.823   9.598  0.6622 -0.0482  0.9863
  966MOL0     C30336   1.884   0.815   9.604  0.4021  0.2900  0.1343
  966MOL0     C30337   1.936   0.671   9.561 -0.1725  0.0879 -0.8641
  966MOL0     C30338   1.888   0.623   9.424 -0.2101  0.3660 -0.9371
  966MOL0     C30339   1.935   0.486   9.402 -0.3109 -0.9272  0.0403
  966MOL0     C30340   1.989   0.387   9.379 -0.2414 -0.4527  0.8202
  966MOL0     C30341   1.443   0.751   9.631 -0.6537  0.7736 -0.0358
  966MOL0     C30342   1.318   0.692   9.643  0.4734  0.5765  0.3810
  966MOL0     H30343   1.127   0.171   9.848 -0.3259 -0.1662 -4.8125
  966MOL0     H30344   0.930   0.023   9.874 -1.2297  0.0093  0.3270
  966MOL0     H30345   0.586  -0.081   9.799  0.4273 -0.1452 -1.5528
  966MOL0     H30346   0.753  -0.086   9.790 -1.1627 -1.4729 -0.8281
  966MOL0     H30347   0.704  -0.192  10.005  1.7487 -0.2740 -4.6529
  966MOL0     H30348   0.766  -0.031  10.047 -1.6988  0.7711  3.2550
  966MOL0     H30349   0.527   0.056  10.068  3.5122  1.0309  1.3958
  966MOL0     H30350   0.479  -0.103  10.015  0.9745  1.0597 -0.9956
  966MOL0     H30351   0.607  -0.185  10.226  0.9389  0.7421 -1.5761
  966MOL0     H30352   0.622  -0.015  10.268  0.7818 -0.8304  1.3782
  966MOL0     H30353   0.360   0.003  10.246 -1.0510 -1.3007 -1.4826
  966MOL0     H30354   0.357  -0.159  10.179 -2.1366 -0.2557 -0.0416
  966MOL0     H30355   0.440  -0.256  10.392 -1.2932 -0.2868  0.9114
  966MOL0     H30356   0.440  -0.085  10.461 -1.1504 -0.8330  0.7846
  966MOL0     H30357   0.208  -0.072  10.438  2.2567  1.3834 -0.4569
  966MOL0     H30358   0.206  -0.235  10.375  0.2874  0.1909 -1.3650
  966MOL0     H30359   0.320  -0.172  10.648  0.1127  0.7730 -0.2782
  966MOL0     H30360   0.285  -0.332  10.570 -2.5448 -1.5501  0.0694
  966MOL0     H30361   0.094  -0.020  10.676 -1.4099 -0.4339 -3.7876
  966MOL0     H30362  -0.199   0.004  10.742  1.9535  1.3485  0.7930
  966MOL0     H30363  -0.257  -0.135  10.838  0.3219 -2.2552 -0.8168
  966MOL0     H30364  -0.019   0.042  10.909  0.1041 -0.5617 -1.5734
  966MOL0     H30365  -0.082  -0.088  11.017  0.5900  0.3494 -0.1516
  966MOL0     H30366  -0.159   0.110  11.113 -1.3798  0.9962  0.7205
  966MOL0     H30367  -0.305   0.051  11.024  0.3701  0.8164  2.2258
  966MOL0     H30368  -0.243   0.209  10.848  2.0862  0.3249 -1.4923
  966MOL0     H30369  -0.104   0.263  10.962 -0.1709  0.0776 -1.3823
  966MOL0     H30370  -0.368   0.474  10.846 -1.9762  1.0431 -0.7649
  966MOL0     H30371  -0.686   0.571  10.759  1.3298 -0.0981  2.1775
  966MOL0     H30372  -0.515   0.608  10.731 -1.5942  2.2587  1.7201
  966MOL0     H30373  -0.602   0.502  10.614  0.7114  2.2159  0.3754
  966MOL0     H30374  -1.036   0.242  10.682  0.5374 -0.1037 -0.1147
  966MOL0     H30375  -1.267   0.191  10.673  0.9857  0.1141 -0.4613
  966MOL0     H30376  -1.427   0.087  10.974 -1.4694  0.4569  1.0114
  966MOL0     H30377  -1.548   0.214  11.011  0.7801  0.5083  0.5064
  966MOL0     H30378  -1.660   0.024  10.934  4.0751 -0.3807  2.7177
  966MOL0     H30379  -1.684   0.155  10.816 -0.7725  0.2776  1.1854
  966MOL0     H30380  -1.496   0.043  10.667  0.1763 -2.0459 -0.6601
  966MOL0     H30381  -1.658  -0.003  10.664  0.9706  0.6095 -1.1990
  966MOL0     H30382  -1.432  -0.136  10.802 -0.1345  0.5440  0.5483
  966MOL0     H30383  -1.595  -0.161  10.867 -0.8875  1.5238 -0.0699
  966MOL0     H30384  -1.483  -0.213  10.592 -1.5334  0.7444 -0.8527
  966MOL0     H30385  -1.659  -0.207  10.619  0.4249 -0.1969 -0.3713
  966MOL0     H30386  -1.466  -0.405  10.762  2.0193  0.6608 -2.3368
  966MOL0     H30387  -1.632  -0.412  10.768  2.4859  1.7322  2.9138
  966MOL0     H30388  -1.451  -0.453  10.522  0.4837  1.3182  2.1330
  966MOL0     H30389  -1.632  -0.477  10.516 -1.9075 -0.5067  2.7974
  966MOL0     H30390  -1.525  -0.686  10.534  1.0955  0.1692  0.3732
  966MOL0     H30391  -1.564  -0.662  10.702 -2.0115  3.4553  0.4188
  966MOL0     H30392  -1.338   0.399  11.045 -1.1147  0.6626 -1.3255
  966MOL0     H30393  -1.114   0.446  11.067 -1.8685 -2.8971  3.0294
  966MOL0     H30394  -0.725   0.193  11.040  0.2156 -1.0913 -1.8979
  966MOL0     H30395  -0.489   0.141  11.089  4.5640  1.2699  1.1405
  966MOL0     H30396   0.677   0.353   9.807  0.0786  0.2116 -0.7158
  966MOL0     H30397   0.869   0.509   9.814 -1.3359  0.4388  4.6790
  966MOL0     H30398   1.389   0.415   9.822  1.3145 -1.1490 -0.7681
  966MOL0     H30399   1.608   0.508   9.785 -0.3538 -0.2915 -1.8766
  966MOL0     H30400   1.701   0.811   9.495  3.0393 -1.4176  0.2497
  966MOL0     H30401   1.702   0.918   9.641 -0.8112  0.3711 -0.9650
  966MOL0     H30402   1.907   0.820   9.711  2.3372 -1.7575 -0.1158
  966MOL0     H30403   1.928   0.896   9.545 -0.1712 -0.2352 -1.0268
  966MOL0     H30404   1.906   0.595   9.634  0.5869  0.8265  0.2431
  966MOL0     H30405   2.045   0.677   9.550 -0.1392 -1.2488 -1.5571
  966MOL0     H30406   1.929   0.694   9.352 -0.5113 -0.0690 -1.5516
  966MOL0     H30407   1.778   0.628   9.424 -0.2932  2.0918 -4.8467
  966MOL0     H30408   2.042   0.295   9.360  1.3328  0.8667 -1.7751
  966MOL0     H30409   1.459   0.848   9.586  3.1735  0.9912  1.4118
  966MOL0     H30410   1.252   0.759   9.588 -0.0457  0.2222  0.5689
  967MOL0     O30411   7.111   4.427  11.233 -0.6340 -0.7858  0.2854
  967MOL0     C30412   7.013   4.483  11.281 -0.0699  0.3339 -0.4845
  967MOL0     O30413   6.961   4.450  11.406  0.0948 -0.9495 -0.4541
  967MOL0     C30414   6.987   4.329  11.462 -0.0651  0.3141 -0.0615
  967MOL0     C30415   6.898   4.224  11.444  0.5597  0.0043 -0.5505
  967MOL0     C30416   6.916   4.101  11.519  0.7024 -0.4498  0.6941
  967MOL0     C30417   7.022   4.093  11.612  0.4982 -0.1394 -0.0037
  967MOL0     O30418   7.038   3.971  11.664  0.4224 -0.1870 -0.7977
  967MOL0     C30419   7.127   3.951  11.771  0.9607 -0.1925 -0.3406
  967MOL0     C30420   7.089   3.802  11.821 -0.6015 -0.7099 -0.0446
  967MOL0     C30421   7.100   3.693  11.723  0.1396  0.1459  0.6617
  967MOL0     C30422   7.251   3.672  11.689 -0.0154  1.0458  0.9748
  967MOL0     C30423   7.290   3.582  11.571 -0.1630  0.6882  0.8602
  967MOL0     C30424   7.446   3.533  11.584  0.3124  0.0949 -0.4976
  967MOL0     C30425   7.541   3.642  11.584 -0.3470 -0.1282  0.4963
  967MOL0     C30426   7.542   3.727  11.452 -1.2102 -1.1084 -1.0850
  967MOL0     N30427   7.605   3.657  11.343 -0.2479 -1.0928 -0.0853
  967MOL0     C30428   7.736   3.615  11.345 -0.3567 -0.3792 -0.1496
  967MOL0     C30429   7.749   3.533  11.227  0.1825 -0.4077 -0.6810
  967MOL0     C30430   7.870   3.456  11.190 -1.2500  0.3465 -0.4019
  967MOL0     C30431   7.894   3.330  11.289  0.4067 -0.8699  0.3892
  967MOL0     C30432   7.817   3.210  11.234 -0.4974  0.0525 -0.4110
  967MOL0     C30433   7.819   3.093  11.325  0.6337  0.5581  0.0869
  967MOL0     O30434   7.737   2.983  11.282  0.2556 -0.2194 -0.4038
  967MOL0     C30435   7.742   2.867  11.356 -0.5113  0.6730  0.1154
  967MOL0     C30436   7.651   2.773  11.314 -0.7381 -0.5370 -0.4994
  967MOL0     C30437   7.640   2.648  11.379 -0.2352 -0.3230 -0.0977
  967MOL0     C30438   7.532   2.561  11.325  0.3516  0.6741  1.4670
  967MOL0     C30439   7.714   2.616  11.497 -0.9574  0.7989  0.6067
  967MOL0     C30440   7.710   2.480  11.574  0.2792 -0.0755 -0.7572
  967MOL0     O30441   7.822   2.437  11.646 -0.3839 -0.0808  0.1316
  967MOL0     C30442   7.847   2.304  11.664 -0.2426 -0.0489  0.4337
  967MOL0     C30443   7.787   2.207  11.591 -0.1706 -0.4414 -0.1930
  967MOL0     C30444   7.824   2.074  11.610 -0.3475  0.0922  0.0386
  967MOL0     C30445   7.917   2.033  11.708 -0.8162 -0.0989  0.0070
  967MOL0     O30446   7.948   1.905  11.747 -0.2991 -0.4990  0.1218
  967MOL0     C30447   7.966   1.803  11.642  0.4313  0.2617  0.2624
  967MOL0     C30448   7.831   1.738  11.585  0.0262 -0.5341  0.4065
  967MOL0     C30449   7.824   1.584  11.605  0.6598  0.6423 -0.1653
  967MOL0     C30450   7.933   1.505  11.538 -0.3590 -0.5838 -0.0153
  967MOL0     C30451   8.008   1.437  11.644 -0.0351 -0.4617  0.2400
  967MOL0     C30452   7.940   1.332  11.728 -1.2711 -0.4707  0.9955
  967MOL0     C30453   7.897   1.213  11.641  0.3982 -0.6634 -0.9645
  967MOL0     C30454   7.869   1.099  11.738 -0.1927  0.8066  0.1949
  967MOL0    Cl30455   7.815   0.965  11.632  0.0106  0.5134  0.2096
  967MOL0     C30456   7.967   2.140  11.785  0.5532  0.0492 -0.8217
  967MOL0     C30457   7.934   2.267  11.757  0.9048  0.7085  0.2271
  967MOL0     O30458   7.594   2.429  11.587  0.5156  0.3128 -0.0442
  967MOL0     C30459   7.801   2.721  11.554  0.3916 -0.7442  0.6072
  967MOL0     C30460   7.812   2.839  11.477  0.4980 -0.9862  0.1811
  967MOL0     N30461   7.633   3.545  11.158  0.5129 -0.8143  0.1254
  967MOL0     N30462   7.551   3.610  11.230 -0.4830  0.7081 -0.8356
  967MOL0     C30463   7.113   4.200  11.625 -0.1859  0.5463  0.0555
  967MOL0     C30464   7.103   4.310  11.544 -0.3390  0.0804 -0.0545
  967MOL0     C30465   6.935   4.583  11.199  0.6955  1.1061  0.5017
  967MOL0     C30466   6.972   4.607  11.067  0.6449 -0.1120  0.5928
  967MOL0     C30467   6.892   4.675  10.984 -0.3754 -0.3143  0.8395
  967MOL0     C30468   6.771   4.737  11.026 -0.8449 -0.2043  0.2005
  967MOL0     O30469   6.678   4.800  10.956 -0.1628 -0.7092  0.1428
  967MOL0     C30470   6.684   4.801  10.820  0.2541  0.4651  0.0922
  967MOL0     C30471   6.563   4.866  10.764  0.0063 -0.2567  0.5501
  967MOL0     C30472   6.440   4.797  10.822  0.4756 -0.6296 -0.5078
  967MOL0     C30473   6.300   4.841  10.773  1.2954  0.7888  0.0599
  967MOL0     C30474   6.290   4.863  10.626  0.7357 -0.6230  0.2616
  967MOL0     C30475   6.285   4.884  10.506  0.8125  0.1864  0.0027
  967MOL0     C30476   6.731   4.701  11.158 -0.6044 -0.2744  0.3099
  967MOL0     C30477   6.816   4.637  11.246  0.5786  0.5967  0.8962
  967MOL0     H30478   6.808   4.233  11.385  0.0399  1.5151  0.4166
  967MOL0     H30479   6.851   4.018  11.493 -0.4656  1.4247 -3.1231
  967MOL0     H30480   7.232   3.962  11.740  0.8093  1.8496 -0.2011
  967MOL0     H30481   7.123   4.031  11.844  1.7193  1.4910 -2.0606
  967MOL0     H30482   7.149   3.785  11.910 -3.3217  1.0905  2.2949
  967MOL0     H30483   6.985   3.806  11.854 -0.3568  0.4312  0.6338
  967MOL0     H30484   7.063   3.603  11.775 -0.4540 -0.7845 -1.2810
  967MOL0     H30485   7.038   3.714  11.636 -0.7687  0.4103  1.3579
  967MOL0     H30486   7.310   3.764  11.688  3.7018 -1.1115 -0.2351
  967MOL0     H30487   7.300   3.615  11.770  3.9072 -0.7516 -2.2816
  967MOL0     H30488   7.226   3.495  11.553  1.9702 -0.8136  0.0379
  967MOL0     H30489   7.267   3.648  11.488 -2.4876 -2.6180 -1.3812
  967MOL0     H30490   7.468   3.472  11.673  0.4258 -0.8005 -1.1280
  967MOL0     H30491   7.468   3.486  11.488  4.3023  0.0152  0.2488
  967MOL0     H30492   7.517   3.707  11.669 -0.0987  1.6180 -0.7202
  967MOL0     H30493   7.640   3.595  11.588  0.9204  2.4256  1.4584
  967MOL0     H30494   7.600   3.816  11.479  0.9017 -2.2347 -1.6251
  967MOL0     H30495   7.442   3.752  11.417 -2.4781 -1.9133  1.7044
  967MOL0     H30496   7.814   3.633  11.419  0.4972 -1.0032 -0.8783
  967MOL0     H30497   7.876   3.427  11.085  2.6522 -3.9704  0.7014
  967MOL0     H30498   7.954   3.522  11.213 -1.9575  0.0810  3.8339
  967MOL0     H30499   7.870   3.364  11.390  1.0295  0.6308  0.0655
  967MOL0     H30500   8.000   3.306  11.285  0.4467 -0.9031  1.3405
  967MOL0     H30501   7.859   3.175  11.139 -1.2956 -0.3631 -0.6209
  967MOL0     H30502   7.713   3.240  11.222 -0.2705  3.0826  3.2988
  967MOL0     H30503   7.803   3.135  11.425 -0.7968 -0.1112  0.1643
  967MOL0     H30504   7.918   3.047  11.315 -1.2131 -3.6868 -1.1525
  967MOL0     H30505   7.584   2.801  11.233 -3.0252  1.4246  1.8769
  967MOL0     H30506   7.481   2.594  11.234 -1.7478  0.1580  2.3952
  967MOL0     H30507   7.565   2.458  11.310 -4.7268 -0.8428 -2.1052
  967MOL0     H30508   7.453   2.566  11.401 -0.2942  4.8487  0.7533
  967MOL0     H30509   7.713   2.237  11.517  0.2422 -2.1820 -1.3640
  967MOL0     H30510   7.780   1.996  11.547  1.0507 -2.2961  1.8440
  967MOL0     H30511   8.018   1.860  11.564 -0.4254 -0.8698 -1.2086
  967MOL0     H30512   8.039   1.735  11.686  0.5615  0.4139  0.2817
  967MOL0     H30513   7.739   1.785  11.622  1.0115  0.1763  2.0610
  967MOL0     H30514   7.829   1.761  11.478  0.0282 -3.9938 -0.4427
  967MOL0     H30515   7.733   1.548  11.555  2.1343  2.1505 -4.4017
  967MOL0     H30516   7.812   1.559  11.710 -1.3913 -1.2843 -0.7667
  967MOL0     H30517   7.888   1.439  11.463 -1.7742  2.5767 -2.1868
  967MOL0     H30518   8.009   1.563  11.485 -0.0447 -0.7650  0.2360
  967MOL0     H30519   8.057   1.508  11.711  2.1925 -1.4809 -0.2047
  967MOL0     H30520   8.084   1.382  11.586  0.1583  0.8800 -0.8277
  967MOL0     H30521   8.019   1.290  11.791 -0.5075 -2.5907 -1.1782
  967MOL0     H30522   7.855   1.375  11.782 -1.6704  0.9069 -0.6416
  967MOL0     H30523   7.966   1.167  11.570 -1.1450 -2.5798 -1.2985
  967MOL0     H30524   7.803   1.238  11.591 -1.0127  0.1433  1.8604
  967MOL0     H30525   7.792   1.117  11.813 -2.0943  0.6109 -1.6072
  967MOL0     H30526   7.970   1.070  11.768  1.5903  1.4646 -4.3459
  967MOL0     H30527   8.042   2.113  11.859  1.9896 -0.3746 -2.3681
  967MOL0     H30528   7.976   2.346  11.818  0.4365  1.4590 -0.4047
  967MOL0     H30529   7.839   2.720  11.655 -1.5067  1.0585  1.4283
  967MOL0     H30530   7.885   2.909  11.514 -0.3265 -0.7134  1.3210
  967MOL0     H30531   7.200   4.178  11.687 -0.0008 -1.9749 -0.9647
  967MOL0     H30532   7.175   4.390  11.560 -0.5892 -0.1491  2.7535
  967MOL0     H30533   7.061   4.555  11.031 -0.4114 -0.9233 -0.9739
  967MOL0     H30534   6.938   4.667  10.886  1.1716  0.6796  1.4427
  967MOL0     H30535   6.777   4.844  10.780  0.2937  1.1047  0.8528
  967MOL0     H30536   6.679   4.695  10.795 -2.2855  0.4792  0.2972
  967MOL0     H30537   6.574   4.851  10.656  1.7247  0.0079  0.6592
  967MOL0     H30538   6.560   4.969  10.800  0.1916 -1.0217  2.9669
  967MOL0     H30539   6.438   4.777  10.929  0.1024 -4.1334 -1.0476
  967MOL0     H30540   6.441   4.692  10.790 -1.0673 -0.2669 -1.8935
  967MOL0     H30541   6.274   4.937  10.819 -1.1884  0.5318 -0.6325
  967MOL0     H30542   6.216   4.774  10.798  0.9664  0.5187 -1.6299
  967MOL0     H30543   6.268   4.894  10.401  1.2888  1.7147  0.0380
  967MOL0     H30544   6.640   4.750  11.193 -1.2354  0.6234 -2.3343
  967MOL0     H30545   6.787   4.616  11.349  1.8626  0.1594  1.1880
  968MOL0     O30546   8.878   6.665   6.907 -0.1374 -0.6461  0.8189
  968MOL0     C30547   8.869   6.786   6.925  1.0275  0.4185 -0.7068
  968MOL0     O30548   8.962   6.882   6.880  0.2093 -0.1677 -0.2317
  968MOL0     C30549   9.072   6.834   6.826  0.8540 -0.0291  0.3625
  968MOL0     C30550   9.186   6.833   6.907  0.0055 -0.2597 -0.9773
  968MOL0     C30551   9.313   6.785   6.863  0.5221  0.1312 -0.1902
  968MOL0     C30552   9.324   6.749   6.738 -0.7337  0.1765  0.2436
  968MOL0     O30553   9.443   6.695   6.683 -0.2707 -0.5254 -0.1811
  968MOL0     C30554   9.561   6.758   6.718  0.7480  0.2309 -0.1056
  968MOL0     C30555   9.675   6.724   6.629 -0.0253 -0.2934 -0.4636
  968MOL0     C30556   9.802   6.791   6.685  0.0184 -0.4367  0.6898
  968MOL0     C30557   9.847   6.747   6.820 -0.4166  0.1477 -1.3515
  968MOL0     C30558   9.849   6.600   6.842  0.3098 -0.5502  0.1986
  968MOL0     C30559   9.950   6.526   6.752  0.1654  0.9428 -0.0944
  968MOL0     C30560  10.096   6.518   6.806 -0.8683  0.6320 -0.0846
  968MOL0     C30561  10.150   6.394   6.721 -0.2721  0.1158  0.6306
  968MOL0     N30562  10.300   6.371   6.707  0.4000 -0.6598  0.2681
  968MOL0     C30563  10.381   6.341   6.817 -0.6730 -0.2486 -0.3003
  968MOL0     C30564  10.505   6.322   6.763  0.6954  0.5955 -0.0757
  968MOL0     C30565  10.633   6.280   6.829 -0.2692 -0.2208 -1.3632
  968MOL0     C30566  10.735   6.230   6.727 -0.6108 -0.3969 -0.3025
  968MOL0     C30567  10.863   6.192   6.806  0.4159 -0.4104 -0.0007
  968MOL0     C30568  10.947   6.103   6.716  0.3776 -0.9014  0.8145
  968MOL0     O30569  11.052   6.047   6.798  0.0884 -0.8977  0.1259
  968MOL0     C30570  11.160   5.979   6.735  0.1912  0.1511  0.1881
  968MOL0     C30571  11.251   5.923   6.828  0.0586 -0.7968  0.6076
  968MOL0     C30572  11.358   5.854   6.775 -0.9375 -0.7435  0.4990
  968MOL0     C30573  11.467   5.826   6.870 -0.4653 -0.1568  0.5192
  968MOL0     C30574  11.371   5.836   6.635  0.1776 -1.0938 -0.6847
  968MOL0     C30575  11.470   5.753   6.582  0.0797 -0.4945 -0.1535
  968MOL0     O30576  11.525   5.793   6.466 -0.6541 -0.3809  0.3402
  968MOL0     C30577  11.635   5.730   6.415 -0.3233 -0.5490  0.1096
  968MOL0     C30578  11.635   5.676   6.285 -0.3973 -0.1941 -0.1909
  968MOL0     C30579  11.756   5.628   6.237 -1.1727 -0.1116  0.8870
  968MOL0     C30580  11.881   5.648   6.294 -0.3710 -0.1587 -0.3120
  968MOL0     O30581  12.006   5.610   6.243 -0.2709  0.8753  0.4193
  968MOL0     C30582  12.039   5.622   6.103 -0.7686  0.2650 -0.1141
  968MOL0     C30583  12.198   5.626   6.097 -0.0899  0.3386 -0.0126
  968MOL0     C30584  12.244   5.615   5.959 -0.5945  0.0582 -0.8150
  968MOL0     C30585  12.398   5.621   5.959 -0.7616 -0.8572 -0.5808
  968MOL0     C30586  12.473   5.558   5.838  0.9371  0.3180 -1.6720
  968MOL0     C30587  12.445   5.631   5.704 -0.2752 -0.2165 -1.0969
  968MOL0     C30588  12.503   5.567   5.587  0.8268  0.2180  0.8163
  968MOL0     C30589  12.518   5.675   5.483 -0.4134  0.0603 -0.2566
  968MOL0    Cl30590  12.556   5.600   5.327  0.5921 -0.1077 -0.1560
  968MOL0     C30591  11.872   5.695   6.428 -0.5163  0.5318  0.5936
  968MOL0     C30592  11.751   5.728   6.486 -0.0018  0.6891  0.0520
  968MOL0     O30593  11.488   5.641   6.624 -0.5031 -0.6118 -0.2044
  968MOL0     C30594  11.276   5.888   6.546 -1.0305 -1.1436  0.0145
  968MOL0     C30595  11.178   5.971   6.596  0.3101 -0.9956 -0.0827
  968MOL0     N30596  10.488   6.325   6.626  1.1212 -0.0543 -0.5419
  968MOL0     N30597  10.370   6.366   6.592 -0.3524 -0.5180 -0.0887
  968MOL0     C30598   9.219   6.759   6.649 -1.2562 -0.5836 -0.2909
  968MOL0     C30599   9.088   6.788   6.695 -0.7911  0.7246 -0.3197
  968MOL0     C30600   8.759   6.829   7.013  0.4628  0.4745 -0.1190
  968MOL0     C30601   8.750   6.962   7.055 -0.1137  0.6593 -0.5991
  968MOL0     C30602   8.655   7.000   7.145 -0.6011 -1.1485 -0.3346
  968MOL0     C30603   8.552   6.920   7.192 -0.2116  0.4673  0.5044
  968MOL0     O30604   8.463   6.980   7.281 -0.0070 -0.0873 -0.1647
  968MOL0     C30605   8.348   6.906   7.321  0.6246 -0.6274 -0.0996
  968MOL0     C30606   8.378   6.825   7.444  0.1466  0.6965  0.2289
  968MOL0     C30607   8.317   6.682   7.452  0.3318  0.2556  0.0724
  968MOL0     C30608   8.162   6.673   7.427 -0.1014  0.5337  0.1329
  968MOL0     C30609   8.092   6.759   7.516  0.1834 -0.9705 -0.3297
  968MOL0     C30610   8.035   6.831   7.590  0.5750  0.2363 -0.3301
  968MOL0     C30611   8.550   6.785   7.144  1.5151 -0.9323  0.3135
  968MOL0     C30612   8.651   6.745   7.058 -0.2888 -0.5139  0.3738
  968MOL0     H30613   9.172   6.861   7.011 -0.7945  1.5068 -1.5111
  968MOL0     H30614   9.391   6.776   6.937 -0.2875 -0.5751  0.6015
  968MOL0     H30615   9.538   6.865   6.717 -2.3003 -0.2641  1.7589
  968MOL0     H30616   9.589   6.730   6.820 -2.2470 -4.9576 -0.3393
  968MOL0     H30617   9.690   6.617   6.608  1.0996  0.0644 -1.5926
  968MOL0     H30618   9.662   6.766   6.529  0.0103  1.8945  0.3908
  968MOL0     H30619   9.879   6.784   6.608 -0.8281 -0.8678 -0.1349
  968MOL0     H30620   9.774   6.896   6.687 -1.8516 -0.8832 -0.0853
  968MOL0     H30621   9.949   6.777   6.845 -0.1894 -1.0474 -0.7662
  968MOL0     H30622   9.778   6.796   6.889  2.2716  4.0746 -1.1248
  968MOL0     H30623   9.886   6.574   6.942  2.9136  1.5872 -0.0735
  968MOL0     H30624   9.748   6.566   6.819 -0.1785  1.1544 -0.2397
  968MOL0     H30625   9.916   6.423   6.741  0.2662  0.9650 -0.6711
  968MOL0     H30626   9.958   6.562   6.649 -3.7741  1.8922 -0.2424
  968MOL0     H30627  10.138   6.609   6.762 -1.3579 -0.8306 -3.8917
  968MOL0     H30628  10.101   6.506   6.915 -1.0051  0.1756 -0.1279
  968MOL0     H30629  10.121   6.404   6.616  4.3432 -3.1188 -1.2158
  968MOL0     H30630  10.107   6.305   6.767 -0.2679  0.7599  1.9496
  968MOL0     H30631  10.353   6.329   6.921  1.1565 -1.6937  0.0669
  968MOL0     H30632  10.668   6.363   6.891 -0.5466 -2.8372  2.7160
  968MOL0     H30633  10.612   6.199   6.899  2.3086 -0.0961 -0.3261
  968MOL0     H30634  10.751   6.299   6.644 -1.3439  0.8873  0.6006
  968MOL0     H30635  10.688   6.139   6.687  2.1166 -2.1642  0.2452
  968MOL0     H30636  10.838   6.139   6.899  1.9689  2.6357  2.3604
  968MOL0     H30637  10.914   6.283   6.840  0.3402  0.6597 -2.5605
  968MOL0     H30638  10.986   6.166   6.635  1.1919 -2.3676  0.0270
  968MOL0     H30639  10.888   6.025   6.668  1.1179  1.2414 -4.2132
  968MOL0     H30640  11.244   5.939   6.935 -1.1651 -2.8725  0.9030
  968MOL0     H30641  11.564   5.838   6.821 -1.0665  3.2385 -0.0886
  968MOL0     H30642  11.473   5.897   6.954 -1.4437 -1.9632  2.1887
  968MOL0     H30643  11.452   5.722   6.901  0.8807 -1.0254 -1.5384
  968MOL0     H30644  11.540   5.673   6.231  0.7316  0.8565 -2.3829
  968MOL0     H30645  11.751   5.570   6.145  1.8890 -1.1688  1.2816
  968MOL0     H30646  12.001   5.537   6.046 -0.2288  1.5854 -2.5703
  968MOL0     H30647  12.005   5.722   6.073  0.9737  1.5909  1.9510
  968MOL0     H30648  12.238   5.713   6.150  1.0864 -0.4822  0.4855
  968MOL0     H30649  12.247   5.544   6.151  0.6498  0.2637 -0.7819
  968MOL0     H30650  12.210   5.704   5.907 -0.6596  1.0312  0.8268
  968MOL0     H30651  12.218   5.516   5.920  0.4397  0.8617 -3.7458
  968MOL0     H30652  12.434   5.724   5.954 -0.1636 -1.0874 -1.1916
  968MOL0     H30653  12.443   5.577   6.048 -0.3599 -0.0784 -0.3899
  968MOL0     H30654  12.440   5.454   5.837 -0.3268  0.5347  2.2606
  968MOL0     H30655  12.580   5.558   5.860  0.1942  2.2670  3.3642
  968MOL0     H30656  12.338   5.650   5.690 -0.4897  0.0312  0.6792
  968MOL0     H30657  12.483   5.733   5.711 -0.3033 -0.0754 -2.6909
  968MOL0     H30658  12.441   5.484   5.552 -1.4176  2.5879 -1.2956
  968MOL0     H30659  12.603   5.531   5.610 -0.7004 -3.8633  1.9609
  968MOL0     H30660  12.598   5.744   5.512 -2.4172  0.9976  3.6925
  968MOL0     H30661  12.430   5.738   5.462  2.7162  4.7852 -0.6944
  968MOL0     H30662  11.963   5.708   6.484  1.8403  0.5046 -2.9035
  968MOL0     H30663  11.740   5.755   6.591  0.1931  4.7034 -0.8312
  968MOL0     H30664  11.289   5.861   6.442 -0.4743 -5.0100  0.9063
  968MOL0     H30665  11.103   6.017   6.532 -1.5212  2.8628  4.2824
  968MOL0     H30666   9.235   6.725   6.548  0.6273  0.3340 -0.3512
  968MOL0     H30667   9.001   6.781   6.631 -0.2739 -2.2513 -0.8735
  968MOL0     H30668   8.836   7.024   7.033  2.0915 -1.6838  0.8459
  968MOL0     H30669   8.656   7.108   7.156  0.2723 -0.8852 -2.5572
  968MOL0     H30670   8.273   6.985   7.328  2.4863  1.1261  1.2937
  968MOL0     H30671   8.315   6.840   7.240  2.2079 -0.1432 -1.1940
  968MOL0     H30672   8.341   6.877   7.533  1.0747 -0.2228  1.1943
  968MOL0     H30673   8.485   6.805   7.436 -0.0700 -0.2905 -0.4673
  968MOL0     H30674   8.340   6.638   7.550 -0.6824 -1.0429 -0.2545
  968MOL0     H30675   8.366   6.628   7.371  1.1586  2.4862 -1.0047
  968MOL0     H30676   8.122   6.574   7.454 -4.1137  1.9216  0.0434
  968MOL0     H30677   8.138   6.707   7.326  0.1412  2.6400  0.7473
  968MOL0     H30678   7.976   6.882   7.665  2.7082  0.5858  1.1953
  968MOL0     H30679   8.476   6.710   7.167 -0.5406  0.3198 -1.8125
  968MOL0     H30680   8.652   6.643   7.021  0.3375  0.0001 -1.0780
  969MOL0     O30681  11.162   9.575   0.685  0.1401 -0.8452 -0.4174
  969MOL0     C30682  11.127   9.512   0.589  0.1214  0.6952 -0.6835
  969MOL0     O30683  11.204   9.475   0.485 -0.1846  0.5035  0.2070
  969MOL0     C30684  11.345   9.468   0.477  1.0395  0.1148 -0.3081
  969MOL0     C30685  11.435   9.507   0.582 -0.7328 -0.2997 -0.4008
  969MOL0     C30686  11.570   9.501   0.567 -0.1652 -0.0125 -0.0572
  969MOL0     C30687  11.624   9.455   0.446  0.1699  0.6912 -0.2608
  969MOL0     O30688  11.751   9.453   0.408 -0.0933 -0.2433 -0.1865
  969MOL0     C30689  11.837   9.537   0.492  0.1678  0.7970 -0.3447
  969MOL0     C30690  11.983   9.527   0.462  0.5337  0.1205  0.3663
  969MOL0     C30691  12.073   9.624   0.540  0.0324  0.2643  0.2876
  969MOL0     C30692  12.046   9.639   0.687  0.6115  0.5766 -0.3357
  969MOL0     C30693  12.187   9.676   0.736 -0.1607 -0.8416  0.1896
  969MOL0     C30694  12.194   9.710   0.881 -0.6360  0.3083 -0.0946
  969MOL0     C30695  12.111   9.822   0.937 -0.4618 -0.2926  0.4197
  969MOL0     C30696  12.101   9.943   0.839 -0.2304  1.1773  0.4837
  969MOL0     N30697  12.044  10.055   0.905 -0.0647  0.9799  0.0994
  969MOL0     C30698  11.903  10.080   0.920 -1.2475 -0.1800 -0.4098
  969MOL0     C30699  11.899  10.211   0.961 -0.5327  0.4993 -0.0031
  969MOL0     C30700  11.789  10.305   0.972 -0.7620  0.5583 -0.1606
  969MOL0     C30701  11.659  10.238   0.912  0.4793 -0.0542 -0.5971
  969MOL0     C30702  11.540  10.330   0.883 -0.0352 -0.3850  0.7376
  969MOL0     C30703  11.554  10.433   0.754 -0.0292  0.6177 -0.0106
  969MOL0     O30704  11.572  10.566   0.809 -0.3461  0.1520  0.1055
  969MOL0     C30705  11.612  10.662   0.717 -0.4166 -0.1205  0.3644
  969MOL0     C30706  11.565  10.664   0.589 -0.1667 -1.0700  0.7106
  969MOL0     C30707  11.607  10.748   0.495 -0.1266 -0.1704  0.8766
  969MOL0     C30708  11.532  10.739   0.364  0.4364 -0.0843 -0.0203
  969MOL0     C30709  11.711  10.842   0.521 -0.3063 -0.1338 -0.6311
  969MOL0     C30710  11.755  10.937   0.425 -0.3145 -0.0080  0.6122
  969MOL0     O30711  11.726  10.920   0.296  0.8395 -0.2389  0.1875
  969MOL0     C30712  11.771  10.989   0.195  0.5849  0.9053  0.3176
  969MOL0     C30713  11.868  11.085   0.194  0.1714 -0.5691 -0.3202
  969MOL0     C30714  11.902  11.163   0.082  0.0861  0.2689 -0.2636
  969MOL0     C30715  11.817  11.149  -0.040  0.0709 -0.2092 -0.6576
  969MOL0     O30716  11.846  11.229  -0.149  0.0238  0.0021 -0.4555
  969MOL0     C30717  11.750  11.231  -0.259 -0.3153  0.3153 -0.0103
  969MOL0     C30718  11.808  11.319  -0.371 -0.3493  0.4022 -0.4004
  969MOL0     C30719  11.764  11.461  -0.359  0.8837 -0.7751 -0.4563
  969MOL0     C30720  11.810  11.535  -0.498  0.3243 -0.8239  0.1453
  969MOL0     C30721  11.819  11.687  -0.468  0.1291 -0.2972  0.2853
  969MOL0     C30722  11.924  11.717  -0.365 -0.8199  0.0446 -0.5498
  969MOL0     C30723  11.951  11.868  -0.366  0.0739 -1.4548  0.3661
  969MOL0     C30724  11.994  11.939  -0.497  0.2284  0.3559  0.1057
  969MOL0    Cl30725  12.123  12.069  -0.485  0.1372  0.2394  0.0349
  969MOL0     C30726  11.720  11.049  -0.043  0.4353  0.3408  0.1606
  969MOL0     C30727  11.708  10.970   0.075 -0.3147 -0.1298  0.6809
  969MOL0     O30728  11.812  11.036   0.480 -0.0778 -0.1367  0.3483
  969MOL0     C30729  11.759  10.850   0.658  1.1067  0.5503 -0.9494
  969MOL0     C30730  11.704  10.768   0.759  0.0221  1.1767  1.1608
  969MOL0     N30731  12.025  10.261   0.972  0.0394 -0.6772  0.0071
  969MOL0     N30732  12.110  10.172   0.931 -0.3538  0.3275 -0.4089
  969MOL0     C30733  11.536   9.401   0.350 -0.4822 -0.3813  0.5049
  969MOL0     C30734  11.404   9.412   0.370  0.6582  0.5992 -0.5394
  969MOL0     C30735  10.995   9.446   0.601  0.5057 -0.3037 -0.0662
  969MOL0     C30736  10.921   9.443   0.734  1.2183  0.9413  0.4021
  969MOL0     C30737  10.801   9.367   0.736  1.5417  0.3193 -0.2278
  969MOL0     C30738  10.745   9.307   0.622  0.2149 -0.5680  0.4665
  969MOL0     O30739  10.630   9.237   0.638 -0.7706  0.4510  0.1985
  969MOL0     C30740  10.528   9.251   0.545  0.4151  0.1008  0.3396
  969MOL0     C30741  10.392   9.205   0.610 -0.4776  0.0725  1.6686
  969MOL0     C30742  10.330   9.296   0.712  0.5464 -1.1571  0.8002
  969MOL0     C30743  10.187   9.258   0.750 -0.3464  0.5502  0.3607
  969MOL0     C30744  10.192   9.142   0.846  0.2582 -0.2341 -0.3629
  969MOL0     C30745  10.189   9.055   0.935 -0.0058  0.2413  0.1044
  969MOL0     C30746  10.813   9.310   0.499 -0.4232 -0.4540  0.7015
  969MOL0     C30747  10.931   9.393   0.484  0.2652 -1.1963  0.3034
  969MOL0     H30748  11.398   9.544   0.677 -1.2679  0.1570 -0.7809
  969MOL0     H30749  11.640   9.524   0.646 -1.1949  1.2887  0.5172
  969MOL0     H30750  11.805   9.641   0.505  0.3964  0.9174 -0.7227
  969MOL0     H30751  11.837   9.490   0.591  2.9826  1.3290  0.0167
  969MOL0     H30752  12.011   9.427   0.497 -0.8043  0.4375  2.5220
  969MOL0     H30753  11.990   9.549   0.355  0.3510  3.3926  0.9348
  969MOL0     H30754  12.174   9.592   0.513  0.7923 -0.8709  3.9267
  969MOL0     H30755  12.056   9.724   0.500 -0.0564 -0.5628 -1.8872
  969MOL0     H30756  11.968   9.714   0.705  0.5682 -0.3148  4.6174
  969MOL0     H30757  12.013   9.553   0.746 -0.6222  2.7408  2.4182
  969MOL0     H30758  12.259   9.599   0.708 -0.0604  0.3072 -3.0957
  969MOL0     H30759  12.221   9.767   0.687 -1.3961  1.4748  3.3058
  969MOL0     H30760  12.182   9.625   0.949 -0.4577  0.1944 -0.2055
  969MOL0     H30761  12.298   9.738   0.900 -0.9869  0.8569  1.1523
  969MOL0     H30762  12.016   9.769   0.945 -0.4272 -0.5315 -0.5537
  969MOL0     H30763  12.151   9.852   1.034  0.0216  0.6998 -0.0704
  969MOL0     H30764  12.051   9.924   0.744  2.5544 -1.3439 -0.6483
  969MOL0     H30765  12.204   9.977   0.823 -0.3335  1.6912  0.8857
  969MOL0     H30766  11.821  10.018   0.886 -1.6756 -0.4269  1.0076
  969MOL0     H30767  11.763  10.329   1.075  0.0650 -0.9504  0.4292
  969MOL0     H30768  11.816  10.392   0.912  5.1140  1.5992  3.2348
  969MOL0     H30769  11.630  10.157   0.980 -1.9502 -2.0341 -3.6779
  969MOL0     H30770  11.690  10.187   0.820  2.5037  0.6871 -0.3706
  969MOL0     H30771  11.528  10.395   0.969 -1.6705  0.2274  0.0886
  969MOL0     H30772  11.450  10.267   0.878  1.3491 -2.4375  0.2929
  969MOL0     H30773  11.466  10.430   0.689 -0.8902  2.1194  1.0353
  969MOL0     H30774  11.637  10.403   0.689 -1.3138 -1.7083 -0.7270
  969MOL0     H30775  11.486  10.602   0.548  2.0386 -2.2785 -2.0557
  969MOL0     H30776  11.520  10.839   0.322  1.6122 -0.2615 -0.8278
  969MOL0     H30777  11.590  10.669   0.304 -0.3742 -0.5867 -0.2295
  969MOL0     H30778  11.433  10.696   0.377  1.0665 -1.5011  0.3143
  969MOL0     H30779  11.929  11.119   0.277 -0.0212  0.4325 -0.5720
  969MOL0     H30780  11.979  11.240   0.086 -0.7961  1.1473  0.2768
  969MOL0     H30781  11.722  11.136  -0.305 -1.4390  1.1411 -1.1049
  969MOL0     H30782  11.653  11.265  -0.223 -0.4815  1.4587 -1.4678
  969MOL0     H30783  11.917  11.315  -0.370 -0.3364  0.6695 -0.4909
  969MOL0     H30784  11.791  11.271  -0.468  0.9937 -1.6805  0.3248
  969MOL0     H30785  11.803  11.508  -0.268 -2.6486 -0.2112  0.9089
  969MOL0     H30786  11.656  11.455  -0.347  1.0848 -0.0588  2.4221
  969MOL0     H30787  11.905  11.501  -0.539  0.1325 -1.4128  0.1920
  969MOL0     H30788  11.744  11.519  -0.584  2.6135 -2.0817 -1.4884
  969MOL0     H30789  11.718  11.713  -0.435  1.8117  4.4087  2.5958
  969MOL0     H30790  11.841  11.746  -0.558 -1.9066 -0.8247 -0.5947
  969MOL0     H30791  11.898  11.684  -0.264  0.0937 -2.7707 -1.1467
  969MOL0     H30792  12.016  11.664  -0.390  0.0566 -0.4980  3.2318
  969MOL0     H30793  12.021  11.878  -0.284 -0.4884 -0.6331  0.7658
  969MOL0     H30794  11.867  11.930  -0.333 -1.4838 -2.9993 -0.5147
  969MOL0     H30795  11.905  11.986  -0.539  0.6800  1.0554 -0.0909
  969MOL0     H30796  12.045  11.864  -0.559  0.3444 -0.4492  1.1534
  969MOL0     H30797  11.668  11.028  -0.136  2.5603  4.6964 -2.3460
  969MOL0     H30798  11.634  10.890   0.081 -1.2172  0.4344 -1.7098
  969MOL0     H30799  11.833  10.917   0.699  1.2340 -1.1820  1.9433
  969MOL0     H30800  11.744  10.787   0.858  2.8419 -0.6593  0.4903
  969MOL0     H30801  11.581   9.353   0.264 -1.0204 -5.2612  2.5585
  969MOL0     H30802  11.342   9.361   0.296  1.2262 -1.4828  0.3491
  969MOL0     H30803  10.956   9.486   0.827  1.9376 -0.6527  0.9085
  969MOL0     H30804  10.738   9.351   0.823 -2.3028  2.1417 -2.4214
  969MOL0     H30805  10.514   9.351   0.503 -3.4812 -0.3840  0.0322
  969MOL0     H30806  10.542   9.178   0.464  0.1436 -2.6871  2.6244
  969MOL0     H30807  10.421   9.111   0.658  3.1852 -0.2903 -0.9163
  969MOL0     H30808  10.320   9.183   0.530  0.5563 -0.9216  0.9850
  969MOL0     H30809  10.324   9.401   0.682  0.8521 -1.7174 -1.4095
  969MOL0     H30810  10.389   9.299   0.805 -1.0247 -2.7076  1.9013
  969MOL0     H30811  10.131   9.232   0.659  2.3415 -2.1253 -0.7068
  969MOL0     H30812  10.132   9.331   0.809  0.4226  2.1543 -0.8309
  969MOL0     H30813  10.196   8.983   1.014  0.7762  2.5773  2.2825
  969MOL0     H30814  10.774   9.257   0.413  3.0729 -0.0078 -1.3572
  969MOL0     H30815  10.975   9.401   0.385  1.1381 -1.8947  0.6238
  970MOL0     O30816  10.507   2.038   5.205 -0.3398  0.2454 -0.6558
  970MOL0     C30817  10.625   2.070   5.197  0.3117 -0.4325  0.4107
  970MOL0     O30818  10.709   2.102   5.302  0.5119  0.0206 -0.5168
  970MOL0     C30819  10.651   2.103   5.431 -0.2565 -1.1308  0.1260
  970MOL0     C30820  10.697   2.020   5.531 -0.4312  0.1068 -0.0121
  970MOL0     C30821  10.635   2.016   5.649  0.8243  0.1561  1.3505
  970MOL0     C30822  10.538   2.108   5.682  0.3170  0.0858  0.3561
  970MOL0     O30823  10.496   2.122   5.810  0.8741 -0.1195  0.0779
  970MOL0     C30824  10.581   2.131   5.927  0.3782 -0.1985  0.7106
  970MOL0     C30825  10.586   2.011   6.018  0.7471  0.2780 -0.1790
  970MOL0     C30826  10.448   1.954   6.066  0.0304 -0.9193  0.7494
  970MOL0     C30827  10.408   2.013   6.205 -1.3095 -1.1241 -0.7545
  970MOL0     C30828  10.257   1.992   6.229 -0.2316  0.2834  0.6188
  970MOL0     C30829  10.205   2.003   6.372 -0.1626 -0.6798  0.4836
  970MOL0     C30830  10.225   2.146   6.424  0.3447  0.2979 -0.7124
  970MOL0     C30831  10.161   2.154   6.564  0.4945 -0.0455 -0.2977
  970MOL0     N30832  10.205   2.054   6.660  0.0704 -0.4105  0.1319
  970MOL0     C30833  10.115   1.996   6.748  0.8211  0.0151 -0.6397
  970MOL0     C30834  10.194   1.939   6.838  1.0309 -0.3409 -0.1119
  970MOL0     C30835  10.160   1.878   6.973  0.0603  0.3183  0.0903
  970MOL0     C30836  10.145   1.982   7.086 -0.3021  0.6188  0.5580
  970MOL0     C30837  10.271   2.063   7.098  1.0462 -0.1966  0.6137
  970MOL0     C30838  10.400   1.986   7.139  0.8691  1.1324  0.1172
  970MOL0     O30839  10.387   1.950   7.276 -0.5450 -0.1591  0.8923
  970MOL0     C30840  10.395   2.051   7.372 -0.8040 -0.3953 -0.2100
  970MOL0     C30841  10.344   2.029   7.499 -0.1863 -0.2652  0.7181
  970MOL0     C30842  10.366   2.110   7.612 -1.4015 -0.9336 -0.8981
  970MOL0     C30843  10.312   2.055   7.743 -0.6796 -0.4163 -0.0956
  970MOL0     C30844  10.449   2.227   7.589  0.0580 -0.1820  0.0769
  970MOL0     C30845  10.469   2.334   7.685 -0.7914 -0.2124 -0.0050
  970MOL0     O30846  10.548   2.430   7.654  0.4410 -0.6126  1.2042
  970MOL0     C30847  10.569   2.529   7.739  0.1216 -1.0724  0.0000
  970MOL0     C30848  10.688   2.535   7.820 -0.5953 -0.0453  0.1713
  970MOL0     C30849  10.710   2.643   7.910 -0.0674 -0.9803  0.4798
  970MOL0     C30850  10.617   2.742   7.926 -0.3357  0.2505  1.1663
  970MOL0     O30851  10.639   2.844   8.013  0.2277  0.3107  0.3131
  970MOL0     C30852  10.539   2.878   8.111  0.9841  0.2979 -0.5124
  970MOL0     C30853  10.616   2.931   8.240 -0.3564  1.3923 -0.3917
  970MOL0     C30854  10.537   2.972   8.360  1.1158  0.6244  0.5829
  970MOL0     C30855  10.495   3.121   8.347  0.1619  0.2568  0.1485
  970MOL0     C30856  10.397   3.155   8.454  0.1364 -0.4800  0.4890
  970MOL0     C30857  10.248   3.140   8.426  0.1725  0.9819  0.3897
  970MOL0     C30858  10.162   3.174   8.546  0.1193 -0.2294 -0.2535
  970MOL0     C30859  10.025   3.103   8.547 -0.0314  0.3219 -0.0625
  970MOL0    Cl30860   9.920   3.157   8.404 -0.3948 -0.1145  0.2534
  970MOL0     C30861  10.509   2.745   7.839  0.2916  0.7024  0.6794
  970MOL0     C30862  10.482   2.645   7.747  0.7701  0.4133  0.0764
  970MOL0     O30863  10.403   2.326   7.786 -0.2810 -0.9855 -0.6688
  970MOL0     C30864  10.503   2.252   7.456  0.0285  0.3850 -0.9031
  970MOL0     C30865  10.484   2.166   7.357  0.1679  0.2504 -0.9964
  970MOL0     N30866  10.328   1.948   6.794  0.0810 -0.9916 -0.1680
  970MOL0     N30867  10.334   2.018   6.689 -0.0619  0.1437  0.1758
  970MOL0     C30868  10.492   2.194   5.585  0.3250 -0.0286 -0.2918
  970MOL0     C30869  10.544   2.187   5.460  0.0669 -0.7371  0.3810
  970MOL0     C30870  10.681   2.055   5.061  0.4499  0.4731  0.2793
  970MOL0     C30871  10.593   2.022   4.955  0.6965 -0.6151 -0.5655
  970MOL0     C30872  10.634   1.999   4.831 -0.7439 -1.1711 -0.1798
  970MOL0     C30873  10.774   1.990   4.792  0.4452 -0.2931  0.0568
  970MOL0     O30874  10.807   1.948   4.668 -0.0452  0.2260  0.2991
  970MOL0     C30875  10.720   1.992   4.564  0.1618 -0.0989 -0.0923
  970MOL0     C30876  10.783   1.974   4.420 -0.4395  0.1776 -0.5483
  970MOL0     C30877  10.832   1.841   4.388 -0.7681  0.2174  1.0103
  970MOL0     C30878  10.796   1.811   4.244  0.3085  0.8228 -0.3189
  970MOL0     C30879  10.804   1.673   4.211  0.0963  0.7786 -1.2189
  970MOL0     C30880  10.810   1.547   4.188  0.1276  0.6470 -0.0165
  970MOL0     C30881  10.853   2.017   4.903 -0.6654 -0.9181  0.3463
  970MOL0     C30882  10.816   2.054   5.028  0.1740  0.7157  0.3118
  970MOL0     H30883  10.787   1.962   5.512 -0.5353  0.0804 -0.4527
  970MOL0     H30884  10.661   1.955   5.736  0.6770  3.4776  3.9235
  970MOL0     H30885  10.683   2.164   5.905  0.4242 -1.4284 -1.1939
  970MOL0     H30886  10.547   2.204   6.001 -1.2006 -1.1235  0.9485
  970MOL0     H30887  10.626   1.923   5.967  0.3357 -0.7498  1.1990
  970MOL0     H30888  10.651   2.028   6.104 -2.2286 -0.9333  2.5164
  970MOL0     H30889  10.375   1.963   5.986  3.9714  1.4044 -2.9798
  970MOL0     H30890  10.460   1.845   6.076  0.4715 -0.8197  1.3786
  970MOL0     H30891  10.467   1.960   6.280 -0.1739 -3.1517 -2.9580
  970MOL0     H30892  10.422   2.121   6.210 -0.1410 -1.3225  0.9598
  970MOL0     H30893  10.202   2.047   6.152 -0.9603 -2.6104 -1.0707
  970MOL0     H30894  10.238   1.888   6.204  0.7132  0.5927 -1.6013
  970MOL0     H30895  10.101   1.971   6.380  0.4230 -2.3333  2.5301
  970MOL0     H30896  10.272   1.929   6.417  0.4047 -1.2879 -1.2946
  970MOL0     H30897  10.331   2.173   6.430  0.9247 -1.7049 -1.2473
  970MOL0     H30898  10.171   2.205   6.350 -0.2663  0.3376 -0.2411
  970MOL0     H30899  10.053   2.147   6.545  0.5157  0.8165 -0.8112
  970MOL0     H30900  10.177   2.260   6.586  1.2515  1.1554 -5.2743
  970MOL0     H30901  10.007   2.010   6.745 -0.1848 -5.1216  1.2499
  970MOL0     H30902  10.070   1.816   6.962  1.3820 -1.6218 -0.3432
  970MOL0     H30903  10.238   1.810   7.009 -0.1977 -0.7024 -1.2283
  970MOL0     H30904  10.124   1.938   7.184  0.5450  1.8317  1.3122
  970MOL0     H30905  10.066   2.052   7.056 -1.4901  0.1598  2.4805
  970MOL0     H30906  10.255   2.133   7.181  0.5547 -0.7893  1.0256
  970MOL0     H30907  10.293   2.122   7.009  2.7881 -1.9124 -0.1569
  970MOL0     H30908  10.490   2.042   7.110  1.8193 -0.3924  0.0256
  970MOL0     H30909  10.424   1.893   7.087  2.4749  1.2909  0.5083
  970MOL0     H30910  10.281   1.941   7.497 -1.7681  0.8282 -1.6319
  970MOL0     H30911  10.380   2.083   7.825  2.6465  2.5688 -3.4404
  970MOL0     H30912  10.212   2.095   7.759 -0.8358  1.0392 -3.7639
  970MOL0     H30913  10.307   1.946   7.740 -2.6495 -0.3832  0.6787
  970MOL0     H30914  10.755   2.450   7.811  0.2628  0.7941 -1.9169
  970MOL0     H30915  10.795   2.673   7.970 -0.7366 -0.7783  1.3495
  970MOL0     H30916  10.483   2.965   8.077 -0.7960 -0.4893  0.3032
  970MOL0     H30917  10.471   2.795   8.132  1.7791 -0.5260 -1.1016
  970MOL0     H30918  10.676   2.844   8.270 -0.4252  2.4730  3.4085
  970MOL0     H30919  10.687   3.011   8.218 -0.4075  2.1595  1.9657
  970MOL0     H30920  10.588   2.967   8.457 -0.4855 -1.6867  1.4002
  970MOL0     H30921  10.452   2.903   8.365  2.6567 -1.3069  1.1566
  970MOL0     H30922  10.578   3.190   8.362 -2.0985  2.5823  3.3525
  970MOL0     H30923  10.455   3.141   8.247 -3.2428 -1.3375  1.0503
  970MOL0     H30924  10.415   3.261   8.474 -0.9589  0.0539 -1.1057
  970MOL0     H30925  10.429   3.090   8.536 -0.3299 -2.5991 -0.9280
  970MOL0     H30926  10.226   3.190   8.331 -0.0686  0.3468  0.1051
  970MOL0     H30927  10.233   3.035   8.402  1.3886  0.1078  3.0377
  970MOL0     H30928  10.166   3.282   8.560  1.5896 -0.2488 -0.3266
  970MOL0     H30929  10.216   3.127   8.629  1.1677 -1.3252 -1.5106
  970MOL0     H30930   9.980   3.134   8.642  1.1498 -2.4639  1.5344
  970MOL0     H30931  10.037   2.994   8.548 -2.0777 -0.1115 -4.2563
  970MOL0     H30932  10.443   2.829   7.855 -0.6925  0.7123 -2.7141
  970MOL0     H30933  10.399   2.644   7.677  0.2428  0.5809  0.6937
  970MOL0     H30934  10.562   2.343   7.446  0.6354  0.8311  3.9663
  970MOL0     H30935  10.528   2.190   7.261  1.3499 -1.3983 -0.9158
  970MOL0     H30936  10.419   2.269   5.612  2.3373  1.4534  1.4355
  970MOL0     H30937  10.521   2.267   5.390 -2.3285  2.7647  4.6214
  970MOL0     H30938  10.488   2.020   4.984  0.7690  0.3798 -0.2156
  970MOL0     H30939  10.571   1.983   4.744  1.7000  0.9424 -2.5436
  970MOL0     H30940  10.632   1.926   4.563  0.3988 -0.4736  1.4624
  970MOL0     H30941  10.689   2.097   4.572 -1.2628 -0.6034  1.5682
  970MOL0     H30942  10.863   2.048   4.423  0.1052 -0.3605 -1.3310
  970MOL0     H30943  10.704   2.005   4.350  0.4609  0.0004 -1.6857
  970MOL0     H30944  10.776   1.771   4.450 -0.6040 -0.3237  0.5640
  970MOL0     H30945  10.940   1.833   4.403 -0.7628  1.5056  1.7465
  970MOL0     H30946  10.877   1.864   4.193  1.2046  1.5209  1.7069
  970MOL0     H30947  10.693   1.842   4.220 -0.9103 -0.2790  2.9147
  970MOL0     H30948  10.820   1.446   4.155 -0.8334  0.7234 -0.5816
  970MOL0     H30949  10.960   2.002   4.893 -0.1574  1.3997  1.6786
  970MOL0     H30950  10.902   2.071   5.091  0.8524 -0.5388 -0.2297
  971MOL0     O30951   5.025   9.633  11.346 -0.0646  0.3273 -0.1279
  971MOL0     C30952   5.042   9.511  11.343  0.1060 -0.4443  0.0597
  971MOL0     O30953   4.991   9.423  11.252 -0.7342 -0.1637 -0.6257
  971MOL0     C30954   4.928   9.458  11.137 -0.2421  0.4810  0.4488
  971MOL0     C30955   4.949   9.583  11.077  0.3496 -0.2114  0.3324
  971MOL0     C30956   4.877   9.623  10.967  1.0045  0.3633  0.0734
  971MOL0     C30957   4.788   9.538  10.899  0.4634  0.2621 -0.4341
  971MOL0     O30958   4.719   9.576  10.785 -0.0720  0.2288  0.1804
  971MOL0     C30959   4.618   9.667  10.801  0.1539 -0.5691  0.0963
  971MOL0     C30960   4.506   9.602  10.891  0.8281 -0.9841  0.2794
  971MOL0     C30961   4.369   9.679  10.863 -0.4054  0.0453 -0.6399
  971MOL0     C30962   4.304   9.705  11.005 -0.4069 -0.2667  1.3211
  971MOL0     C30963   4.169   9.781  11.001  0.1647 -0.3599  0.9412
  971MOL0     C30964   4.045   9.695  10.967 -1.1062 -0.1251 -0.7459
  971MOL0     C30965   3.927   9.769  11.019  0.7215  0.4050  0.3109
  971MOL0     C30966   3.901   9.782  11.164  0.0239  0.4218  0.3439
  971MOL0     N30967   3.768   9.833  11.200 -0.6734  0.4342  0.3622
  971MOL0     C30968   3.720   9.952  11.137 -0.5858 -0.2809 -0.0578
  971MOL0     C30969   3.593   9.948  11.185  0.4020 -0.1169 -0.4103
  971MOL0     C30970   3.486  10.049  11.165 -0.4265 -0.7937  0.5045
  971MOL0     C30971   3.515  10.174  11.244 -0.2737 -0.0562  0.3607
  971MOL0     C30972   3.438  10.298  11.184 -0.1408  1.0752  0.1555
  971MOL0     C30973   3.476  10.415  11.278  0.2624 -0.4569 -0.6269
  971MOL0     O30974   3.345  10.482  11.309 -0.1446  0.2100 -0.1836
  971MOL0     C30975   3.246  10.414  11.376 -0.0313 -0.4450 -0.1960
  971MOL0     C30976   3.264  10.315  11.471  0.9267  0.9263  0.0530
  971MOL0     C30977   3.161  10.249  11.540 -0.5635  0.9545  0.1919
  971MOL0     C30978   3.204  10.143  11.643  0.3128  0.1872  0.0694
  971MOL0     C30979   3.029  10.303  11.510 -1.5043  0.5242  0.6219
  971MOL0     C30980   2.912  10.261  11.594  0.4378 -0.1215  0.2543
  971MOL0     O30981   2.801  10.310  11.551  0.0139 -0.4057 -0.0749
  971MOL0     C30982   2.684  10.266  11.607  0.3829  0.3885 -0.0760
  971MOL0     C30983   2.610  10.159  11.554 -0.2260 -0.7130  0.4570
  971MOL0     C30984   2.482  10.115  11.608 -0.8627  0.3882  0.2151
  971MOL0     C30985   2.435  10.175  11.730 -0.3053  1.3909  0.1193
  971MOL0     O30986   2.319  10.123  11.788 -0.7947 -0.2570  0.8469
  971MOL0     C30987   2.307  10.152  11.921 -0.9189 -0.2097 -0.4747
  971MOL0     C30988   2.194  10.062  11.979  0.1760  0.2472 -0.0119
  971MOL0     C30989   2.050  10.107  11.961  0.6167  0.5507  0.1511
  971MOL0     C30990   1.948   9.980  11.976 -0.4403  0.4604 -0.6660
  971MOL0     C30991   1.961   9.885  12.092  0.1256 -0.1563 -0.2080
  971MOL0     C30992   1.842   9.800  12.122 -0.5956 -0.1592  0.1421
  971MOL0     C30993   1.871   9.691  12.223 -0.4618  0.3689 -0.6868
  971MOL0     C30994   1.762   9.583  12.211  0.0134  0.2534 -0.2736
  971MOL0    Cl30995   1.767   9.485  12.064 -0.5207 -0.0353 -1.0084
  971MOL0     C30996   2.510  10.276  11.785  0.0799 -0.4288 -0.0823
  971MOL0     C30997   2.631  10.319  11.725 -0.4882  0.3112 -0.6526
  971MOL0     O30998   2.926  10.187  11.695  0.4533  0.4954 -0.2975
  971MOL0     C30999   3.009  10.402  11.408 -0.4512 -0.2988 -0.2241
  971MOL0     C31000   3.124  10.458  11.347  1.4449 -0.3839  1.0850
  971MOL0     N31001   3.567   9.844  11.271 -0.4469 -0.3496  0.5114
  971MOL0     N31002   3.677   9.773  11.272  0.1950 -0.2298 -0.3856
  971MOL0     C31003   4.777   9.411  10.944  0.6268  0.2442 -0.9277
  971MOL0     C31004   4.840   9.370  11.065  0.4804 -0.1113 -0.0779
  971MOL0     C31005   5.128   9.449  11.454  0.6333  0.1451  0.2815
  971MOL0     C31006   5.185   9.526  11.553 -0.0394 -0.2259  0.5285
  971MOL0     C31007   5.261   9.467  11.654  0.2006  0.3009 -0.1695
  971MOL0     C31008   5.278   9.334  11.660  0.4127  0.3540  0.1381
  971MOL0     O31009   5.339   9.271  11.768  0.2050  0.9130  0.1026
  971MOL0     C31010   5.375   9.346  11.886 -0.3105 -0.5300  0.2442
  971MOL0     C31011   5.430   9.258  11.992 -0.4294  0.4645  1.1193
  971MOL0     C31012   5.339   9.132  12.013 -0.9404 -0.7371  0.2403
  971MOL0     C31013   5.384   9.036  12.130  0.1641 -0.2651 -0.1040
  971MOL0     C31014   5.436   9.101  12.248 -0.1329 -0.0535  0.2986
  971MOL0     C31015   5.479   9.174  12.342  1.6497  0.5596  0.1871
  971MOL0     C31016   5.220   9.254  11.563  0.5062 -0.9439  0.2783
  971MOL0     C31017   5.139   9.308  11.460 -0.8210 -0.4726  0.9751
  971MOL0     H31018   5.010   9.654  11.132  2.5964  0.0781 -2.3335
  971MOL0     H31019   4.875   9.722  10.921 -1.8310  1.2600  1.8934
  971MOL0     H31020   4.650   9.758  10.852  0.2936 -1.3463  1.4235
  971MOL0     H31021   4.568   9.686  10.705  0.2690  1.8128  0.4398
  971MOL0     H31022   4.503   9.494  10.880 -3.5515 -1.2876  2.4504
  971MOL0     H31023   4.520   9.599  10.999 -1.9783 -1.7483  0.6836
  971MOL0     H31024   4.387   9.775  10.813 -1.9181  1.6002  1.6029
  971MOL0     H31025   4.296   9.623  10.804 -3.2665  1.7661  1.0371
  971MOL0     H31026   4.298   9.611  11.061  1.1437  0.3185  2.5367
  971MOL0     H31027   4.381   9.763  11.057  1.4492  0.1963 -1.7179
  971MOL0     H31028   4.156   9.828  11.098 -1.1034  0.1629  0.5394
  971MOL0     H31029   4.183   9.862  10.928 -0.6151 -0.7091  0.3816
  971MOL0     H31030   4.041   9.684  10.858 -0.7005  3.9251 -1.3447
  971MOL0     H31031   4.046   9.609  11.034 -0.1450  1.4668  1.4173
  971MOL0     H31032   3.932   9.868  10.972  1.2555  0.1389 -0.2036
  971MOL0     H31033   3.839   9.722  10.974  1.7697 -1.0365 -0.2992
  971MOL0     H31034   3.972   9.852  11.210  0.6319 -0.6765  1.1319
  971MOL0     H31035   3.910   9.677  11.195 -2.0688 -0.4659 -1.8085
  971MOL0     H31036   3.774  10.015  11.067  0.9126 -1.8631 -0.3934
  971MOL0     H31037   3.485  10.068  11.057 -0.6143  1.0616  0.8047
  971MOL0     H31038   3.386  10.011  11.186 -1.2709  1.6738  1.3616
  971MOL0     H31039   3.619  10.202  11.230  0.1825 -1.5042  0.7022
  971MOL0     H31040   3.497  10.156  11.350 -0.0893 -2.7003  0.0257
  971MOL0     H31041   3.329  10.286  11.186 -0.1175  0.8006 -0.1699
  971MOL0     H31042   3.481  10.321  11.086 -1.9756  1.7386 -0.5303
  971MOL0     H31043   3.547  10.474  11.219  2.2460 -3.2229 -1.2203
  971MOL0     H31044   3.523  10.401  11.375 -0.8348  1.1483  0.1790
  971MOL0     H31045   3.359  10.283  11.512  0.8898  1.7822  0.8402
  971MOL0     H31046   3.134  10.059  11.640 -0.5745  0.8206  1.8432
  971MOL0     H31047   3.306  10.110  11.620  0.7986  3.1985 -2.9917
  971MOL0     H31048   3.194  10.182  11.745 -1.4553  0.0255 -0.0176
  971MOL0     H31049   2.644  10.122  11.458  0.7538  1.5581 -0.1338
  971MOL0     H31050   2.425  10.028  11.578 -0.7061  0.1683  0.5434
  971MOL0     H31051   2.404  10.134  11.969  0.2439 -2.0872 -3.2351
  971MOL0     H31052   2.277  10.257  11.930 -0.3642  0.0310 -1.3152
  971MOL0     H31053   2.205   9.963  11.933  3.4335 -1.2403  3.3960
  971MOL0     H31054   2.210  10.036  12.084  1.1073  0.4761 -0.0827
  971MOL0     H31055   2.044  10.157  11.864  3.4402  1.4409  0.3320
  971MOL0     H31056   2.032  10.188  12.033  2.4057  1.0343  0.1006
  971MOL0     H31057   1.846  10.018  11.974  0.5430  3.4060 -3.8963
  971MOL0     H31058   1.953   9.920  11.885 -0.1711  1.2311 -1.1758
  971MOL0     H31059   1.981   9.942  12.183  2.0269 -0.0264 -0.6562
  971MOL0     H31060   2.044   9.820  12.064  0.4919  0.8395 -1.5395
  971MOL0     H31061   1.767   9.868  12.164 -0.1859 -0.3399  1.1678
  971MOL0     H31062   1.798   9.762  12.029  0.1058 -1.2008  0.2196
  971MOL0     H31063   1.872   9.727  12.326 -3.8863 -0.5673 -0.2189
  971MOL0     H31064   1.967   9.643  12.200  0.9714  1.5549  2.2842
  971MOL0     H31065   1.669   9.640  12.214  1.2479  2.3074  1.8318
  971MOL0     H31066   1.753   9.518  12.298 -2.4332  2.6142  1.4005
  971MOL0     H31067   2.475  10.320  11.878 -0.6395 -0.7420 -0.1980
  971MOL0     H31068   2.694  10.391  11.775  0.5961 -0.6881 -0.5194
  971MOL0     H31069   2.914  10.449  11.384  0.9114  1.9989 -1.4819
  971MOL0     H31070   3.124  10.531  11.266  0.0180 -0.4401  1.0207
  971MOL0     H31071   4.708   9.344  10.893  1.1368  0.4319 -1.8750
  971MOL0     H31072   4.837   9.266  11.098 -0.2831  0.1539  0.7054
  971MOL0     H31073   5.180   9.634  11.557  2.1115 -0.0869  3.3157
  971MOL0     H31074   5.304   9.538  11.724 -0.9659  0.4535  0.4144
  971MOL0     H31075   5.458   9.406  11.848  2.1085 -4.5088 -1.4686
  971MOL0     H31076   5.292   9.407  11.923  0.4473 -0.4380  1.8661
  971MOL0     H31077   5.433   9.309  12.088  0.9129  1.8972  0.3673
  971MOL0     H31078   5.534   9.229  11.973 -0.3913  0.3888  1.4382
  971MOL0     H31079   5.333   9.066  11.926 -2.9378 -1.2127  0.6983
  971MOL0     H31080   5.237   9.166  12.034 -0.2814  1.2671  0.4337
  971MOL0     H31081   5.446   8.953  12.093 -1.9069 -2.2346  0.5697
  971MOL0     H31082   5.299   8.980  12.170  0.9762 -0.6686  1.1421
  971MOL0     H31083   5.507   9.232  12.428 -0.4170 -2.0485  2.8123
  971MOL0     H31084   5.217   9.146  11.561 -1.4340 -0.9848  2.1324
  971MOL0     H31085   5.095   9.253  11.377 -1.4786  4.3231 -2.2673
  972MOL0     O31086   5.815   0.660   0.974  0.3887 -0.2066  0.1802
  972MOL0     C31087   5.688   0.681   0.969  0.2178  0.3026 -0.5870
  972MOL0     O31088   5.629   0.795   0.929 -0.2754 -0.7661 -0.8051
  972MOL0     C31089   5.715   0.894   0.903 -0.2741  0.6783  0.1239
  972MOL0     C31090   5.711   0.937   0.767 -0.6497 -0.2353 -0.0890
  972MOL0     C31091   5.794   1.040   0.720 -0.4871 -0.3972  0.2126
  972MOL0     C31092   5.897   1.087   0.810 -0.4722  0.2434  0.8299
  972MOL0     O31093   5.987   1.173   0.754  0.0300 -0.1196  0.2577
  972MOL0     C31094   6.112   1.116   0.763 -0.4975  0.9637 -0.8230
  972MOL0     C31095   6.215   1.172   0.668 -0.3348  0.7957  1.1031
  972MOL0     C31096   6.176   1.191   0.529 -0.0673  0.2544  0.0159
  972MOL0     C31097   6.271   1.288   0.447 -0.9267  0.0530  0.3905
  972MOL0     C31098   6.233   1.305   0.304  0.5406 -0.1786  0.4393
  972MOL0     C31099   6.346   1.387   0.233  0.1135  0.1877  0.5624
  972MOL0     C31100   6.367   1.536   0.277  1.0864  0.0308  0.6922
  972MOL0     C31101   6.454   1.611   0.183 -0.3517  0.3331  0.4439
  972MOL0     N31102   6.449   1.762   0.201  0.1934 -0.0440 -0.0083
  972MOL0     C31103   6.547   1.842   0.249 -0.2988 -0.3097 -0.7065
  972MOL0     C31104   6.499   1.961   0.261  0.1218 -0.1268 -0.2415
  972MOL0     C31105   6.569   2.096   0.290 -0.8304  0.4847 -0.2117
  972MOL0     C31106   6.665   2.070   0.403 -1.0438  0.4378  0.2103
  972MOL0     C31107   6.724   2.201   0.453  0.7455 -0.4698 -0.0260
  972MOL0     C31108   6.822   2.181   0.573 -0.1522  0.1834  0.3095
  972MOL0     O31109   6.771   2.079   0.665 -1.2256 -0.2849 -0.5330
  972MOL0     C31110   6.679   2.097   0.768  0.9022  0.3675 -0.8302
  972MOL0     C31111   6.664   2.221   0.828  0.5351 -0.0522 -1.4307
  972MOL0     C31112   6.577   2.221   0.948 -0.4600 -0.3582  0.3219
  972MOL0     C31113   6.555   2.361   1.008  0.3117  0.4349  0.0127
  972MOL0     C31114   6.507   2.107   0.989  0.7247  0.1811 -0.3017
  972MOL0     C31115   6.413   2.100   1.101  0.1213  0.0223 -0.2597
  972MOL0     O31116   6.372   1.974   1.126 -0.4036 -0.7912  0.1518
  972MOL0     C31117   6.278   1.935   1.219 -0.9756  0.2839  0.7110
  972MOL0     C31118   6.174   2.014   1.270 -0.6172  0.3880  0.0905
  972MOL0     C31119   6.100   1.973   1.379 -0.2442  0.6864 -0.2078
  972MOL0     C31120   6.118   1.846   1.441  0.3229 -0.1863 -0.3580
  972MOL0     O31121   6.030   1.818   1.542  0.2564  0.1934  0.0787
  972MOL0     C31122   6.028   1.678   1.587 -0.5723  0.1469 -0.2448
  972MOL0     C31123   5.917   1.656   1.675  0.1178  0.5222  0.4959
  972MOL0     C31124   5.792   1.634   1.593 -0.0202  0.0034  0.7287
  972MOL0     C31125   5.667   1.588   1.683  0.4066 -0.3185 -0.3868
  972MOL0     C31126   5.539   1.588   1.605  0.4448 -0.8460 -0.1850
  972MOL0     C31127   5.405   1.572   1.688  0.3679  0.0100  1.1195
  972MOL0     C31128   5.285   1.640   1.625 -0.1328 -0.5642 -0.2528
  972MOL0     C31129   5.157   1.554   1.650 -0.0782  0.3062  0.4580
  972MOL0    Cl31130   5.023   1.650   1.588 -0.1136 -0.4494  0.4510
  972MOL0     C31131   6.213   1.760   1.372 -1.0718  0.5495 -0.3528
  972MOL0     C31132   6.294   1.807   1.271 -0.8810 -0.5819 -0.1030
  972MOL0     O31133   6.374   2.195   1.162  0.2463 -0.2166 -0.1245
  972MOL0     C31134   6.526   1.989   0.926 -1.1579  0.3485  0.0635
  972MOL0     C31135   6.613   1.986   0.818 -0.3034  0.1627 -0.5196
  972MOL0     N31136   6.369   1.961   0.213 -0.6023  0.3372  0.2205
  972MOL0     N31137   6.330   1.840   0.187 -0.4404 -0.3343 -0.2253
  972MOL0     C31138   5.902   1.035   0.938  0.0131  0.2498  0.5353
  972MOL0     C31139   5.809   0.946   0.989 -0.6893  0.1255 -0.1523
  972MOL0     C31140   5.594   0.579   1.010  0.2414  0.6209 -0.7854
  972MOL0     C31141   5.458   0.572   0.975  0.9191 -0.9092  0.8674
  972MOL0     C31142   5.388   0.465   1.024  0.1897  0.4023 -0.3042
  972MOL0     C31143   5.444   0.369   1.111  0.3698 -0.7098  0.9261
  972MOL0     O31144   5.369   0.261   1.138  0.0126  0.0473  0.0057
  972MOL0     C31145   5.364   0.163   1.033  0.0307  0.8620 -0.2546
  972MOL0     C31146   5.428   0.039   1.082  0.1387 -0.2887  0.4759
  972MOL0     C31147   5.431  -0.070   0.980  0.4631 -0.5504 -0.2206
  972MOL0     C31148   5.526  -0.188   1.015  0.5623 -0.4700  0.3476
  972MOL0     C31149   5.483  -0.255   1.137 -0.2895 -0.5695  0.0219
  972MOL0     C31150   5.453  -0.294   1.246 -0.2879 -0.9426 -0.7484
  972MOL0     C31151   5.576   0.379   1.149 -0.1578  0.9073  1.0568
  972MOL0     C31152   5.648   0.473   1.089  0.1904 -0.1008  0.2453
  972MOL0     H31153   5.635   0.891   0.705 -1.3855  2.7622 -1.5960
  972MOL0     H31154   5.781   1.084   0.621 -3.0672 -1.7194 -0.1140
  972MOL0     H31155   6.141   1.125   0.868  1.2493  0.5882 -1.2401
  972MOL0     H31156   6.113   1.007   0.749  2.3838  0.2898  3.1044
  972MOL0     H31157   6.241   1.270   0.709 -0.2388  1.2537 -0.0289
  972MOL0     H31158   6.296   1.098   0.676 -1.7294 -0.6614  2.4436
  972MOL0     H31159   6.178   1.086   0.496 -3.7111 -0.2160  0.8280
  972MOL0     H31160   6.072   1.225   0.520  0.1117  0.8199  0.0703
  972MOL0     H31161   6.283   1.388   0.492  3.0308 -0.1883  0.2461
  972MOL0     H31162   6.369   1.241   0.454 -0.8991 -0.0524 -0.6866
  972MOL0     H31163   6.224   1.203   0.265  0.6697 -1.4104  3.3254
  972MOL0     H31164   6.140   1.359   0.291  2.8028  3.2712 -4.7957
  972MOL0     H31165   6.437   1.327   0.229 -1.8420 -3.1438  1.5815
  972MOL0     H31166   6.311   1.397   0.130  2.8398  0.3207 -0.4267
  972MOL0     H31167   6.272   1.589   0.288  0.6807 -0.1300 -1.5230
  972MOL0     H31168   6.402   1.529   0.380 -2.4938  0.2367  2.0540
  972MOL0     H31169   6.415   1.577   0.087 -2.2397  1.2587  0.8324
  972MOL0     H31170   6.559   1.581   0.190  0.4292  3.1888  3.4727
  972MOL0     H31171   6.648   1.806   0.265 -0.1879  0.4378  0.3973
  972MOL0     H31172   6.619   2.110   0.193  0.0108 -5.2483 -0.9842
  972MOL0     H31173   6.499   2.177   0.310 -2.9042 -0.6402 -2.4102
  972MOL0     H31174   6.742   2.003   0.364  0.0730 -0.1767  3.1594
  972MOL0     H31175   6.614   2.010   0.479 -1.9571 -1.2270 -1.6070
  972MOL0     H31176   6.651   2.266   0.502  0.5086 -1.3181  0.7803
  972MOL0     H31177   6.773   2.259   0.374 -0.7733 -0.8184 -1.2943
  972MOL0     H31178   6.842   2.278   0.620  4.3629 -0.9619  1.2783
  972MOL0     H31179   6.915   2.143   0.529  0.0344  1.0845 -0.0814
  972MOL0     H31180   6.716   2.311   0.796  0.5192 -0.1324 -1.6795
  972MOL0     H31181   6.607   2.363   1.105 -2.4810  1.7070  1.5870
  972MOL0     H31182   6.600   2.438   0.945 -1.4159  0.3333 -1.4119
  972MOL0     H31183   6.449   2.377   1.027 -0.4666 -1.8256 -1.8798
  972MOL0     H31184   6.151   2.111   1.227  1.1698  0.4047 -0.9136
  972MOL0     H31185   6.016   2.030   1.418  2.0229  3.5433  0.8388
  972MOL0     H31186   6.029   1.612   1.500  0.4258  2.5731 -2.2120
  972MOL0     H31187   6.118   1.656   1.645  0.0548 -0.9602 -1.5953
  972MOL0     H31188   5.933   1.569   1.740 -0.1026  1.5276  1.9470
  972MOL0     H31189   5.900   1.739   1.745  0.7265 -0.3911  1.7607
  972MOL0     H31190   5.789   1.548   1.526 -0.5431  0.2625  0.4107
  972MOL0     H31191   5.755   1.722   1.539  0.4577  0.6098  1.3630
  972MOL0     H31192   5.691   1.494   1.732  2.6674  1.4791  2.2836
  972MOL0     H31193   5.656   1.669   1.756  2.1285  0.6333 -1.1246
  972MOL0     H31194   5.541   1.514   1.525  2.0099  0.9871 -1.9267
  972MOL0     H31195   5.541   1.687   1.560  0.7371 -0.5927  0.3736
  972MOL0     H31196   5.390   1.464   1.696 -4.8296  0.5293  1.4898
  972MOL0     H31197   5.413   1.614   1.789 -1.1907  2.3373  0.3576
  972MOL0     H31198   5.309   1.674   1.524  1.3414 -1.1559 -0.1248
  972MOL0     H31199   5.280   1.732   1.684  0.3536 -2.1575  2.4524
  972MOL0     H31200   5.149   1.557   1.759  1.2319  4.9509  0.6334
  972MOL0     H31201   5.155   1.449   1.620  0.7348  1.0957 -2.6627
  972MOL0     H31202   6.235   1.658   1.400  2.0484  0.5202 -2.4376
  972MOL0     H31203   6.363   1.741   1.220  1.2750  2.5147 -1.4983
  972MOL0     H31204   6.501   1.888   0.956 -2.2377  0.8416  0.8815
  972MOL0     H31205   6.631   1.886   0.778 -4.3357 -2.7054  3.7004
  972MOL0     H31206   5.979   1.086   0.996  0.3650  0.3586 -0.0178
  972MOL0     H31207   5.815   0.931   1.097 -0.9565  1.0078 -0.0014
  972MOL0     H31208   5.407   0.637   0.905  0.5557 -2.2442 -0.1457
  972MOL0     H31209   5.288   0.438   0.992 -0.7198 -0.8299  3.1980
  972MOL0     H31210   5.259   0.141   1.009 -0.0419  1.9329 -1.0152
  972MOL0     H31211   5.409   0.200   0.940  1.4217  0.5534  0.2758
  972MOL0     H31212   5.387   0.004   1.177  2.3200 -1.1579  1.1773
  972MOL0     H31213   5.532   0.070   1.098 -0.8683  2.9844  1.2734
  972MOL0     H31214   5.465  -0.024   0.887  1.3869 -0.1496  0.2955
  972MOL0     H31215   5.331  -0.113   0.970 -0.0637  0.3720  0.7868
  972MOL0     H31216   5.625  -0.142   1.006 -0.0014  0.6676 -0.1712
  972MOL0     H31217   5.520  -0.264   0.936  1.1221 -0.1725  0.0056
  972MOL0     H31218   5.430  -0.315   1.348  2.9553  1.4775  0.6344
  972MOL0     H31219   5.620   0.298   1.207  2.5746 -1.4473 -3.6461
  972MOL0     H31220   5.753   0.467   1.117  0.8637 -1.6404 -2.3039
  973MOL0     O31221   4.882   4.771   4.061  0.2233  0.2884  0.6017
  973MOL0     C31222   4.912   4.876   4.114 -0.4001 -0.2120  0.4142
  973MOL0     O31223   4.860   4.929   4.231 -0.4044 -0.0792  0.2226
  973MOL0     C31224   4.751   4.876   4.293  0.2381  0.0946 -0.5929
  973MOL0     C31225   4.675   4.756   4.275  0.4017  0.2942 -0.1128
  973MOL0     C31226   4.545   4.736   4.325  0.1244 -0.0784  0.5512
  973MOL0     C31227   4.496   4.831   4.411  0.7561 -0.6580 -0.3690
  973MOL0     O31228   4.384   4.812   4.483  0.3472 -0.4200  0.3816
  973MOL0     C31229   4.253   4.837   4.430 -0.5872  0.2333  0.6056
  973MOL0     C31230   4.168   4.727   4.502 -0.2489  0.2215 -0.4337
  973MOL0     C31231   4.207   4.583   4.467 -0.7871 -0.5685 -0.5899
  973MOL0     C31232   4.128   4.487   4.551  0.0531 -0.1151  1.2972
  973MOL0     C31233   4.126   4.343   4.493  0.0741  0.3146 -0.9263
  973MOL0     C31234   4.065   4.250   4.597 -0.8543  0.3121  0.1408
  973MOL0     C31235   3.915   4.244   4.573 -1.2230 -0.3378  0.1862
  973MOL0     C31236   3.842   4.214   4.702  0.1765  0.3739 -0.1490
  973MOL0     N31237   3.883   4.081   4.763 -0.1594  0.3387 -0.4567
  973MOL0     C31238   3.998   4.042   4.832  0.1944  0.1501  0.2302
  973MOL0     C31239   3.982   3.905   4.861 -0.3739 -0.2773 -0.1494
  973MOL0     C31240   4.097   3.832   4.900  0.4464 -0.3555 -0.1416
  973MOL0     C31241   4.068   3.716   4.996 -0.3217 -0.1861  0.6802
  973MOL0     C31242   3.970   3.751   5.113 -0.2646  0.5138  0.4271
  973MOL0     C31243   3.946   3.618   5.194 -0.0930  0.2225 -1.3605
  973MOL0     O31244   3.848   3.541   5.128  0.3989 -0.0660  0.2439
  973MOL0     C31245   3.805   3.429   5.204 -0.2417  0.2660  0.8193
  973MOL0     C31246   3.711   3.344   5.144  0.1227  0.2692  0.8736
  973MOL0     C31247   3.668   3.219   5.202 -0.4052  0.4530  0.6992
  973MOL0     C31248   3.573   3.139   5.109  0.3194  0.4648  0.5887
  973MOL0     C31249   3.727   3.178   5.324 -0.0365 -0.9664 -0.0591
  973MOL0     C31250   3.681   3.060   5.397 -0.2483 -0.5318 -0.6154
  973MOL0     O31251   3.757   3.010   5.493  0.1598 -0.4950 -0.5972
  973MOL0     C31252   3.752   2.875   5.525 -0.2150 -0.5443 -0.8649
  973MOL0     C31253   3.879   2.815   5.553 -0.2587 -0.2694 -0.8795
  973MOL0     C31254   3.885   2.684   5.599 -0.3486 -0.3561 -0.3949
  973MOL0     C31255   3.769   2.604   5.605  0.1453 -1.0450  0.1197
  973MOL0     O31256   3.784   2.489   5.667 -0.9162  0.9723  0.5394
  973MOL0     C31257   3.692   2.376   5.641  0.5649  0.6366 -0.6760
  973MOL0     C31258   3.595   2.357   5.755 -0.9969 -0.3766  0.0405
  973MOL0     C31259   3.509   2.225   5.753 -0.6342 -0.8184  1.0253
  973MOL0     C31260   3.573   2.105   5.819 -1.3376  0.6221  0.8651
  973MOL0     C31261   3.491   1.977   5.822 -0.1981  0.1024  1.0830
  973MOL0     C31262   3.562   1.847   5.861  0.2347  0.7547 -0.1474
  973MOL0     C31263   3.463   1.730   5.834 -0.0915 -0.1866  0.9597
  973MOL0     C31264   3.540   1.605   5.850 -0.6650  0.2554 -0.0822
  973MOL0    Cl31265   3.606   1.572   6.013 -0.5409 -0.3498 -0.2711
  973MOL0     C31266   3.649   2.661   5.571  1.0511  0.9422 -0.8335
  973MOL0     C31267   3.634   2.796   5.533 -0.1159  0.8249  0.9177
  973MOL0     O31268   3.568   3.013   5.372 -0.0373 -0.1085 -0.1879
  973MOL0     C31269   3.825   3.264   5.386 -0.0673 -0.0196  0.2293
  973MOL0     C31270   3.868   3.383   5.325 -0.2776 -0.5919 -0.0729
  973MOL0     N31271   3.859   3.866   4.827  0.4738  0.3562 -0.4654
  973MOL0     N31272   3.800   3.968   4.768 -0.1272 -0.1160  0.8263
  973MOL0     C31273   4.580   4.940   4.445 -0.5018 -0.3229  0.1608
  973MOL0     C31274   4.701   4.959   4.389 -0.0305 -0.2525 -0.5214
  973MOL0     C31275   5.019   4.952   4.059 -0.6782  0.1453  0.2184
  973MOL0     C31276   5.028   4.972   3.917  0.4251 -0.5654 -1.4935
  973MOL0     C31277   5.116   5.060   3.864 -1.0844 -0.3662  0.2678
  973MOL0     C31278   5.215   5.124   3.938  0.4436 -1.0530  0.2565
  973MOL0     O31279   5.330   5.192   3.893  0.4566  0.1129  0.1666
  973MOL0     C31280   5.366   5.201   3.756 -0.4792 -0.5698  0.1198
  973MOL0     C31281   5.471   5.301   3.734  0.5656 -0.4165  1.1046
  973MOL0     C31282   5.425   5.437   3.679 -0.1770 -0.2149  0.2111
  973MOL0     C31283   5.477   5.542   3.772  0.2913 -0.5641  0.1549
  973MOL0     C31284   5.621   5.555   3.783 -0.3672  0.6391 -0.2076
  973MOL0     C31285   5.744   5.561   3.784 -0.2778  0.3689  1.5052
  973MOL0     C31286   5.205   5.107   4.081  0.3287 -0.6735  0.9203
  973MOL0     C31287   5.108   5.027   4.138  0.0282 -0.2174 -0.1035
  973MOL0     H31288   4.709   4.687   4.198 -2.5368 -0.7815 -0.6046
  973MOL0     H31289   4.485   4.647   4.311 -0.6556  0.5739 -0.4194
  973MOL0     H31290   4.225   4.938   4.462 -1.0178 -0.5781  3.0042
  973MOL0     H31291   4.253   4.835   4.321 -3.1330  1.1804  0.5166
  973MOL0     H31292   4.175   4.731   4.611 -0.7398  1.6797 -0.4350
  973MOL0     H31293   4.062   4.745   4.482  0.0620  2.6853 -0.2251
  973MOL0     H31294   4.200   4.566   4.359  1.5896 -0.9796 -0.7299
  973MOL0     H31295   4.316   4.577   4.475 -0.9181 -2.3161  0.2555
  973MOL0     H31296   4.182   4.469   4.644 -3.1458 -0.8683  3.1312
  973MOL0     H31297   4.025   4.514   4.577 -0.4361  0.6461 -1.1846
  973MOL0     H31298   4.059   4.331   4.407 -0.5160 -1.9867 -0.2295
  973MOL0     H31299   4.224   4.308   4.462 -0.4165 -2.4863  0.4036
  973MOL0     H31300   4.112   4.151   4.592  0.5836  0.9714  0.0455
  973MOL0     H31301   4.091   4.294   4.694 -1.9764 -0.7514  0.9555
  973MOL0     H31302   3.874   4.341   4.543 -3.0671 -1.0041  0.4092
  973MOL0     H31303   3.885   4.181   4.489 -0.3728  3.2300 -3.0419
  973MOL0     H31304   3.734   4.204   4.688  0.4372 -0.3739 -1.9991
  973MOL0     H31305   3.864   4.288   4.779  3.8993 -0.8783  0.1978
  973MOL0     H31306   4.089   4.097   4.852  0.3943 -0.7599  2.1084
  973MOL0     H31307   4.150   3.792   4.813 -0.1458 -0.7840 -0.3115
  973MOL0     H31308   4.171   3.898   4.946 -0.4759 -0.5750  1.7462
  973MOL0     H31309   4.168   3.692   5.033 -0.1233  0.0574  0.3158
  973MOL0     H31310   4.028   3.632   4.938  1.6100  0.1242 -1.2173
  973MOL0     H31311   3.873   3.789   5.081  0.9955  2.8692 -0.8412
  973MOL0     H31312   4.026   3.822   5.175 -1.2404  0.1295  1.7736
  973MOL0     H31313   3.903   3.641   5.292  1.3686 -0.2455 -0.5877
  973MOL0     H31314   4.037   3.559   5.207 -1.5809 -2.4881 -2.4472
  973MOL0     H31315   3.672   3.372   5.047  0.9779  2.8863  1.2265
  973MOL0     H31316   3.467   3.148   5.133  0.4749 -1.5035  2.2467
  973MOL0     H31317   3.599   3.149   5.003  2.1494 -0.8382  0.8743
  973MOL0     H31318   3.601   3.034   5.114  0.4935  0.5059  0.5054
  973MOL0     H31319   3.966   2.879   5.565 -1.1560  0.5272  2.5895
  973MOL0     H31320   3.976   2.643   5.641 -0.4503 -1.7790 -1.5122
  973MOL0     H31321   3.644   2.386   5.543 -0.1306  1.9647 -0.2284
  973MOL0     H31322   3.756   2.288   5.649  1.7315  1.6466  4.1093
  973MOL0     H31323   3.657   2.354   5.845 -0.1429 -1.7600 -0.5574
  973MOL0     H31324   3.524   2.440   5.764 -1.3588 -0.7794  0.9746
  973MOL0     H31325   3.488   2.204   5.647  0.8041  0.9016  0.3485
  973MOL0     H31326   3.416   2.243   5.808  0.1247 -1.6404  2.6373
  973MOL0     H31327   3.671   2.080   5.776 -2.1293 -3.1730  0.9790
  973MOL0     H31328   3.586   2.126   5.926 -1.1296  0.0133  0.9614
  973MOL0     H31329   3.458   1.959   5.719  2.8393  0.4942 -0.0585
  973MOL0     H31330   3.393   1.989   5.870 -0.5138 -2.1409  1.1155
  973MOL0     H31331   3.650   1.838   5.796  0.5584 -1.5647  0.5285
  973MOL0     H31332   3.590   1.848   5.967 -0.2542  0.6614 -0.0166
  973MOL0     H31333   3.421   1.734   5.733 -1.0826  1.5968  1.4100
  973MOL0     H31334   3.379   1.745   5.903 -2.2134 -1.5250 -1.1643
  973MOL0     H31335   3.633   1.621   5.794 -0.2285 -2.3595 -0.2383
  973MOL0     H31336   3.485   1.519   5.812 -0.9578  0.5496 -0.3373
  973MOL0     H31337   3.557   2.603   5.574  0.7242  1.4028 -1.7171
  973MOL0     H31338   3.534   2.831   5.510  0.9903  2.9470 -0.9554
  973MOL0     H31339   3.877   3.252   5.481 -1.1854  2.7389  1.2964
  973MOL0     H31340   3.954   3.431   5.371 -0.4062 -0.4088 -0.0224
  973MOL0     H31341   4.542   5.013   4.516  0.8708 -0.4592  1.0674
  973MOL0     H31342   4.749   5.049   4.428 -1.4258  0.5199 -0.5251
  973MOL0     H31343   4.956   4.924   3.851 -0.4795  0.2430 -1.1230
  973MOL0     H31344   5.120   5.067   3.756  0.9131 -1.5104  0.2068
  973MOL0     H31345   5.398   5.105   3.716  0.2894 -0.6176  0.8412
  973MOL0     H31346   5.272   5.224   3.704 -0.5627 -0.1787  0.4381
  973MOL0     H31347   5.538   5.275   3.652  2.2114  3.1434  1.1517
  973MOL0     H31348   5.529   5.316   3.826  1.9076 -2.0377  0.5908
  973MOL0     H31349   5.316   5.440   3.675 -0.1568  0.8726  0.2094
  973MOL0     H31350   5.453   5.449   3.574 -1.7595  0.1211 -0.1988
  973MOL0     H31351   5.423   5.523   3.866 -3.8865  3.8287 -0.9964
  973MOL0     H31352   5.441   5.641   3.745  0.6115 -0.6927 -0.7758
  973MOL0     H31353   5.849   5.555   3.805 -0.2397 -0.2797  1.1619
  973MOL0     H31354   5.267   5.174   4.139  0.4903 -0.3343  0.3666
  973MOL0     H31355   5.114   5.017   4.246  1.6609  3.7622  0.3386
  974MOL0     O31356   8.643   1.126   1.064  0.0007  0.5268  0.5749
  974MOL0     C31357   8.709   1.105   1.171 -0.7203  1.2813 -0.0581
  974MOL0     O31358   8.790   1.191   1.232  0.4773 -0.7790 -0.7549
  974MOL0     C31359   8.764   1.326   1.232 -0.2689  0.0572  0.9271
  974MOL0     C31360   8.866   1.409   1.288  0.4364  0.1064  0.5599
  974MOL0     C31361   8.850   1.547   1.296 -0.5973  0.0341 -0.5890
  974MOL0     C31362   8.729   1.604   1.263 -1.0478  0.4501  0.0619
  974MOL0     O31363   8.718   1.741   1.253  0.2495 -0.2848 -0.2096
  974MOL0     C31364   8.746   1.823   1.371  0.1417 -0.6612  0.4198
  974MOL0     C31365   8.647   1.789   1.484 -1.1147 -0.2357  0.2388
  974MOL0     C31366   8.500   1.804   1.432 -0.7838  0.1187  0.0726
  974MOL0     C31367   8.407   1.743   1.541  1.0719  0.0003 -0.0020
  974MOL0     C31368   8.249   1.754   1.514 -1.0831  0.3378  0.3499
  974MOL0     C31369   8.175   1.869   1.588 -0.0414 -0.3015  0.0408
  974MOL0     C31370   8.182   2.008   1.517  0.4083  0.9632  0.0039
  974MOL0     C31371   8.068   2.106   1.563  0.2104 -0.2092  0.3495
  974MOL0     N31372   8.065   2.229   1.482  0.1420 -0.9683  0.4936
  974MOL0     C31373   8.130   2.345   1.503 -0.7537 -0.1057  0.0547
  974MOL0     C31374   8.131   2.406   1.384 -0.1815  0.0277  0.1072
  974MOL0     C31375   8.179   2.542   1.348  0.8074 -0.2426  0.1401
  974MOL0     C31376   8.246   2.623   1.452  0.4564  0.3426 -0.0074
  974MOL0     C31377   8.320   2.749   1.414  0.3983 -0.3280  0.1837
  974MOL0     C31378   8.404   2.805   1.518 -0.3888  0.1503  0.6035
  974MOL0     O31379   8.517   2.865   1.456 -1.1909 -0.3109 -0.2504
  974MOL0     C31380   8.498   2.998   1.410 -0.2080  0.1785  0.2444
  974MOL0     C31381   8.572   3.048   1.301  0.3384  0.8425 -0.6247
  974MOL0     C31382   8.567   3.180   1.269 -0.3568  0.1302  0.1900
  974MOL0     C31383   8.648   3.210   1.146  0.4938 -0.6544 -0.1967
  974MOL0     C31384   8.478   3.271   1.332 -0.0463  0.0138  0.0996
  974MOL0     C31385   8.471   3.418   1.309  0.0958 -0.1804 -0.7662
  974MOL0     O31386   8.353   3.488   1.357  0.6489 -0.3452 -0.2093
  974MOL0     C31387   8.338   3.624   1.320 -0.1320  0.6546 -0.1662
  974MOL0     C31388   8.251   3.698   1.394 -0.8642 -0.6884  0.3493
  974MOL0     C31389   8.230   3.835   1.368  0.0211  0.2093 -0.3808
  974MOL0     C31390   8.285   3.900   1.262  0.3524  0.3138  1.2524
  974MOL0     O31391   8.268   4.037   1.238  0.5350 -0.3250 -0.7466
  974MOL0     C31392   8.130   4.072   1.249 -0.2699 -0.5319  0.1317
  974MOL0     C31393   8.121   4.226   1.240  0.7127  0.0960  0.1009
  974MOL0     C31394   8.125   4.268   1.093  0.2892 -0.0290 -0.3169
  974MOL0     C31395   8.115   4.420   1.067 -0.6203 -0.5671 -0.0154
  974MOL0     C31396   8.005   4.495   1.140  0.1200 -0.6239 -0.2180
  974MOL0     C31397   7.870   4.455   1.091  0.7169  0.4830 -0.7331
  974MOL0     C31398   7.761   4.553   1.134  0.4578 -0.4185  0.1045
  974MOL0     C31399   7.636   4.532   1.044  0.3449 -0.1973  0.6976
  974MOL0    Cl31400   7.507   4.646   1.098  0.0343  0.1789  0.1307
  974MOL0     C31401   8.355   3.815   1.171  0.0637 -0.7326 -0.2560
  974MOL0     C31402   8.380   3.677   1.200 -0.0957  0.2827 -0.2966
  974MOL0     O31403   8.564   3.471   1.258  0.3271 -0.6426 -0.0975
  974MOL0     C31404   8.386   3.214   1.415  0.2971 -0.1721 -0.3462
  974MOL0     C31405   8.408   3.087   1.474  0.3191  0.0857 -0.4219
  974MOL0     N31406   8.029   2.346   1.300 -0.1802  0.6887  0.3388
  974MOL0     N31407   8.000   2.233   1.358  0.3915 -0.2103 -0.5796
  974MOL0     C31408   8.627   1.524   1.219  0.2536  0.3776 -0.2909
  974MOL0     C31409   8.636   1.386   1.206  0.8161 -0.8739  0.1054
  974MOL0     C31410   8.701   0.966   1.231 -0.3507 -0.5461 -1.0253
  974MOL0     C31411   8.768   0.936   1.360 -0.2486  0.0158  0.0926
  974MOL0     C31412   8.751   0.804   1.408 -0.1270 -0.0015 -1.1653
  974MOL0     C31413   8.666   0.711   1.351 -0.0200 -0.2863  0.1607
  974MOL0     O31414   8.631   0.588   1.396  0.0770 -0.6105 -0.2252
  974MOL0     C31415   8.594   0.573   1.536 -0.4784  0.5462 -0.0667
  974MOL0     C31416   8.695   0.511   1.632  0.4740  0.9793  0.2605
  974MOL0     C31417   8.770   0.395   1.568 -0.6801 -0.4887  0.0361
  974MOL0     C31418   8.919   0.370   1.614  0.2035 -0.4390 -0.2394
  974MOL0     C31419   8.902   0.334   1.758 -0.3932  0.9567 -0.5724
  974MOL0     C31420   8.906   0.296   1.872 -1.0759  0.3588 -0.8340
  974MOL0     C31421   8.604   0.748   1.229 -1.2670  0.4360  0.2559
  974MOL0     C31422   8.629   0.865   1.162  0.0965 -0.4727  0.2371
  974MOL0     H31423   8.954   1.359   1.329  0.7980  2.3887  2.8853
  974MOL0     H31424   8.932   1.602   1.341  0.0406 -2.3449  1.4123
  974MOL0     H31425   8.846   1.801   1.411  1.5361  1.4497 -1.6465
  974MOL0     H31426   8.725   1.929   1.353  1.7023 -0.0517  1.9381
  974MOL0     H31427   8.664   1.687   1.519 -3.2742  0.4628  3.8277
  974MOL0     H31428   8.656   1.862   1.565 -1.9424 -0.5073  0.5803
  974MOL0     H31429   8.478   1.906   1.398  0.9170  0.9392  1.2906
  974MOL0     H31430   8.498   1.742   1.342  1.8021 -0.2949  0.2330
  974MOL0     H31431   8.442   1.646   1.577  2.0336  1.3055  2.9064
  974MOL0     H31432   8.418   1.798   1.635  1.5280  0.8135 -0.5207
  974MOL0     H31433   8.226   1.747   1.407 -0.0617  1.7674  0.0069
  974MOL0     H31434   8.215   1.656   1.548  0.0502  0.9677  3.6395
  974MOL0     H31435   8.073   1.837   1.612 -0.4533  0.7586 -0.2243
  974MOL0     H31436   8.234   1.877   1.680  1.3486 -0.7025 -0.7916
  974MOL0     H31437   8.282   2.052   1.525  1.3016 -0.4737 -2.2603
  974MOL0     H31438   8.163   1.992   1.411 -0.0875 -3.0823  0.5278
  974MOL0     H31439   8.081   2.129   1.669 -1.1874 -2.7655  1.1577
  974MOL0     H31440   7.976   2.047   1.559  1.5896 -2.4274 -0.7793
  974MOL0     H31441   8.177   2.361   1.599  1.0694 -3.4755 -0.1436
  974MOL0     H31442   8.251   2.533   1.266  0.3786  3.1634 -0.7746
  974MOL0     H31443   8.092   2.598   1.313 -0.4127 -1.2242  1.4556
  974MOL0     H31444   8.320   2.575   1.517  1.5192  4.3390  2.0396
  974MOL0     H31445   8.163   2.637   1.522 -0.3094 -0.9271 -0.6281
  974MOL0     H31446   8.246   2.825   1.386  0.5159 -0.5151 -0.6604
  974MOL0     H31447   8.372   2.726   1.320 -0.5499 -3.2599  0.2883
  974MOL0     H31448   8.449   2.730   1.583  1.6957 -1.2919 -2.2959
  974MOL0     H31449   8.331   2.871   1.566 -3.7697 -1.5236 -1.7946
  974MOL0     H31450   8.644   2.979   1.259 -0.7608 -0.2917 -0.6957
  974MOL0     H31451   8.678   3.115   1.101 -1.1435 -1.5113  0.4461
  974MOL0     H31452   8.581   3.255   1.072  0.1430 -1.6106 -0.4640
  974MOL0     H31453   8.730   3.277   1.175  0.2073  0.0252 -0.8985
  974MOL0     H31454   8.222   3.653   1.489  1.7932 -1.8516  0.7057
  974MOL0     H31455   8.166   3.893   1.433 -0.1557  0.9575 -1.1939
  974MOL0     H31456   8.082   4.012   1.171 -0.6445 -2.6444  1.9095
  974MOL0     H31457   8.076   4.054   1.342 -2.9250  2.4316 -0.6284
  974MOL0     H31458   8.025   4.259   1.279 -1.1792 -1.1177 -3.1233
  974MOL0     H31459   8.199   4.274   1.300 -2.0647  2.1850  2.2793
  974MOL0     H31460   8.053   4.211   1.035 -1.4107  0.9583  0.7267
  974MOL0     H31461   8.223   4.233   1.059  0.0364  0.3574 -1.4949
  974MOL0     H31462   8.213   4.464   1.089  0.3755 -3.4602  2.0014
  974MOL0     H31463   8.082   4.426   0.963 -2.3950 -2.0221  0.4053
  974MOL0     H31464   8.007   4.604   1.130 -2.3225 -0.5876 -0.9208
  974MOL0     H31465   8.017   4.476   1.247 -0.1798 -1.6845 -0.3635
  974MOL0     H31466   7.866   4.431   0.984 -0.1575 -2.7163 -0.0753
  974MOL0     H31467   7.848   4.358   1.134 -1.9246  1.2336 -0.2355
  974MOL0     H31468   7.789   4.657   1.118 -0.3449  0.2162  2.3774
  974MOL0     H31469   7.745   4.533   1.240 -1.6129 -0.2519 -0.1468
  974MOL0     H31470   7.605   4.427   1.050  0.7276 -0.4699 -1.2183
  974MOL0     H31471   7.655   4.533   0.936 -1.9964 -2.1566  0.1703
  974MOL0     H31472   8.370   3.860   1.073  0.0240  1.2237  0.5767
  974MOL0     H31473   8.435   3.618   1.127  4.4572  2.0460  1.2973
  974MOL0     H31474   8.308   3.277   1.457 -1.5189 -0.5992 -2.8821
  974MOL0     H31475   8.362   3.062   1.569 -2.1552 -1.9871 -2.0579
  974MOL0     H31476   8.540   1.588   1.206 -0.4682 -0.6408 -0.6513
  974MOL0     H31477   8.553   1.321   1.179  0.6776 -1.0284  0.8779
  974MOL0     H31478   8.830   1.012   1.406  0.0321 -1.1060  1.6460
  974MOL0     H31479   8.811   0.773   1.493  0.8810  2.3142 -0.9683
  974MOL0     H31480   8.573   0.669   1.583  1.4041 -0.6646  3.5925
  974MOL0     H31481   8.498   0.519   1.540 -0.2349  0.1326  3.3401
  974MOL0     H31482   8.660   0.478   1.730  0.4857 -2.8418 -0.8691
  974MOL0     H31483   8.768   0.591   1.652  1.7570 -0.3468  1.0710
  974MOL0     H31484   8.780   0.419   1.461 -1.9663 -1.4171 -0.3176
  974MOL0     H31485   8.719   0.298   1.571  0.4320 -1.0881  0.1334
  974MOL0     H31486   8.991   0.453   1.605  0.3235 -0.0917  2.7446
  974MOL0     H31487   8.966   0.289   1.558 -0.5383 -0.3161 -1.0501
  974MOL0     H31488   8.922   0.239   1.962 -1.4798 -0.8505 -1.4980
  974MOL0     H31489   8.566   0.664   1.172  0.8709 -1.2805  1.1604
  974MOL0     H31490   8.590   0.871   1.061 -3.0734 -3.4556  1.0912
  975MOL0     O31491   0.103   9.960   3.244  0.7334 -0.1827  0.5929
  975MOL0     C31492   0.150  10.037   3.154  0.7577  0.6887 -0.4234
  975MOL0     O31493   0.208   9.997   3.036  0.0111  0.0794 -0.9640
  975MOL0     C31494   0.248   9.865   3.044 -0.0288 -0.6966  0.3789
  975MOL0     C31495   0.189   9.759   2.974 -0.3650 -0.8194  0.1240
  975MOL0     C31496   0.233   9.622   2.989  0.0454 -0.6659 -0.5770
  975MOL0     C31497   0.314   9.593   3.097 -0.0868  0.2291 -0.6135
  975MOL0     O31498   0.342   9.460   3.126 -0.5034 -0.7296  0.7172
  975MOL0     C31499   0.477   9.421   3.126  0.8407 -0.1016  0.3586
  975MOL0     C31500   0.501   9.282   3.174  0.5331  0.2159 -1.1409
  975MOL0     C31501   0.649   9.261   3.192 -0.2706  0.4187 -1.5979
  975MOL0     C31502   0.713   9.348   3.297 -0.0290 -0.1925  0.0159
  975MOL0     C31503   0.861   9.315   3.329  0.0271 -0.5435  0.3718
  975MOL0     C31504   0.939   9.402   3.422  0.0356  0.3749  1.0645
  975MOL0     C31505   1.080   9.350   3.446  0.7536  0.0383 -0.0406
  975MOL0     C31506   1.150   9.413   3.563  0.6056 -0.0228 -0.4313
  975MOL0     N31507   1.286   9.374   3.589 -0.1331  0.5137  0.9483
  975MOL0     C31508   1.352   9.390   3.706 -0.5897  0.0166 -0.0107
  975MOL0     C31509   1.476   9.337   3.689 -0.3292  0.5930  0.8743
  975MOL0     C31510   1.586   9.343   3.785 -0.9938 -1.0047  1.0097
  975MOL0     C31511   1.576   9.247   3.902  0.4937 -0.3140  0.7136
  975MOL0     C31512   1.708   9.267   3.985 -0.8206 -0.3482  0.1342
  975MOL0     C31513   1.713   9.205   4.128  0.2227  0.6487  0.7820
  975MOL0     O31514   1.710   9.060   4.125 -0.4284  1.3365  0.0056
  975MOL0     C31515   1.679   9.001   4.246  0.7329 -0.0349  1.2344
  975MOL0     C31516   1.723   9.055   4.369 -0.2338  0.3899  0.7650
  975MOL0     C31517   1.724   8.977   4.486  0.9027  0.1210  0.0647
  975MOL0     C31518   1.792   9.049   4.605  0.0498  1.1771  0.2586
  975MOL0     C31519   1.657   8.854   4.497 -0.2097  0.1120  0.4718
  975MOL0     C31520   1.630   8.770   4.622 -0.1812 -1.1582 -0.2124
  975MOL0     O31521   1.561   8.651   4.610 -0.0548 -0.7489  0.4171
  975MOL0     C31522   1.470   8.603   4.705 -1.5514  0.2668 -0.8914
  975MOL0     C31523   1.425   8.680   4.816  0.3743  0.8931  1.2133
  975MOL0     C31524   1.344   8.628   4.909  0.0494  0.1166  0.0413
  975MOL0     C31525   1.296   8.502   4.894  0.0582  0.5482  0.4224
  975MOL0     O31526   1.216   8.444   4.980  0.1901  0.1626  0.1899
  975MOL0     C31527   1.259   8.326   5.051 -0.4893 -0.3860  0.0761
  975MOL0     C31528   1.213   8.324   5.188 -0.4769  0.4441 -1.0872
  975MOL0     C31529   1.203   8.190   5.264  0.7573  0.1311 -0.8235
  975MOL0     C31530   1.332   8.112   5.242  0.4200  0.2974  0.0963
  975MOL0     C31531   1.324   7.970   5.319 -0.2487 -0.1589  0.0012
  975MOL0     C31532   1.413   7.871   5.261 -0.5381 -0.1354  1.4240
  975MOL0     C31533   1.556   7.916   5.271 -0.2499  1.3167  0.3948
  975MOL0     C31534   1.662   7.805   5.231  0.8026 -0.3683 -0.5552
  975MOL0    Cl31535   1.625   7.646   5.293  0.2083  0.0599 -0.5406
  975MOL0     C31536   1.329   8.421   4.782 -0.4080  0.1031 -0.0427
  975MOL0     C31537   1.417   8.477   4.687  0.4885  0.0590  0.4745
  975MOL0     O31538   1.670   8.823   4.731 -0.0311 -0.2328  0.2545
  975MOL0     C31539   1.586   8.811   4.381 -0.0792 -0.6395  0.1483
  975MOL0     C31540   1.603   8.877   4.259 -0.4396  0.4507  0.7765
  975MOL0     N31541   1.479   9.285   3.559  0.2271  1.2814 -0.5149
  975MOL0     N31542   1.370   9.321   3.498 -0.1095  0.1537 -0.4160
  975MOL0     C31543   0.366   9.697   3.174 -1.6134  0.4016  0.4363
  975MOL0     C31544   0.337   9.829   3.153 -0.5863 -0.0812  1.4016
  975MOL0     C31545   0.164  10.176   3.193 -0.0983 -0.6913  0.2883
  975MOL0     C31546   0.088  10.213   3.304 -0.0656  0.7857 -0.5198
  975MOL0     C31547   0.068  10.353   3.336  0.8349 -0.3047  0.2794
  975MOL0     C31548   0.143  10.447   3.263 -0.4144 -0.0550 -0.5060
  975MOL0     O31549   0.149  10.576   3.310 -0.0376 -0.3400  0.7728
  975MOL0     C31550   0.282  10.620   3.335 -0.7384  0.9000 -0.9463
  975MOL0     C31551   0.304  10.589   3.487 -0.4292 -0.5271  0.1056
  975MOL0     C31552   0.190  10.649   3.583 -1.0136  0.1895  0.4165
  975MOL0     C31553   0.232  10.665   3.722 -0.0365  0.4483  0.5913
  975MOL0     C31554   0.128  10.691   3.823 -0.3188  0.5857  0.4608
  975MOL0     C31555   0.036  10.717   3.905  0.1111 -0.5958  0.4472
  975MOL0     C31556   0.214  10.413   3.150 -0.2805  0.0645  0.7688
  975MOL0     C31557   0.230  10.277   3.117  0.8300  0.6044 -0.7314
  975MOL0     H31558   0.119   9.778   2.894  0.6895 -2.1164 -1.1711
  975MOL0     H31559   0.183   9.542   2.935  1.1280 -0.7396 -1.5312
  975MOL0     H31560   0.524   9.430   3.028  2.1866 -2.3102  0.7102
  975MOL0     H31561   0.527   9.491   3.194 -1.1159 -0.4066  2.2195
  975MOL0     H31562   0.442   9.274   3.266  0.7978 -1.3180 -1.0645
  975MOL0     H31563   0.458   9.210   3.104 -1.1700 -0.6485  0.7120
  975MOL0     H31564   0.648   9.159   3.232  1.1680  2.1927  3.8561
  975MOL0     H31565   0.702   9.266   3.097  1.3022 -2.9104 -1.0591
  975MOL0     H31566   0.720   9.451   3.260 -0.9334  0.3516  1.2799
  975MOL0     H31567   0.652   9.347   3.388  1.3708  0.1224  0.9927
  975MOL0     H31568   0.862   9.216   3.376  1.6755  0.0273  1.6206
  975MOL0     H31569   0.918   9.307   3.236  1.3337 -1.8892  1.2402
  975MOL0     H31570   0.946   9.503   3.382  0.0373 -0.3653 -0.8985
  975MOL0     H31571   0.869   9.404   3.506 -2.2649  3.4272 -0.7257
  975MOL0     H31572   1.100   9.243   3.456  3.0713  0.5951  2.3932
  975MOL0     H31573   1.126   9.374   3.350 -0.1936 -0.1358 -0.5414
  975MOL0     H31574   1.097   9.408   3.658  1.4061  1.4056  0.1143
  975MOL0     H31575   1.152   9.521   3.546  0.4904 -0.5826 -5.8228
  975MOL0     H31576   1.322   9.438   3.799 -1.0115 -0.0003 -0.1368
  975MOL0     H31577   1.681   9.321   3.734 -1.5367  0.4775 -0.7259
  975MOL0     H31578   1.595   9.446   3.821 -3.5576 -1.3528  2.8680
  975MOL0     H31579   1.570   9.143   3.871  0.3308 -0.0143 -0.2711
  975MOL0     H31580   1.487   9.260   3.964  0.2092  1.7408 -0.0403
  975MOL0     H31581   1.718   9.376   3.987 -2.2615 -0.1800 -0.6801
  975MOL0     H31582   1.785   9.224   3.921 -0.3286  1.5913 -0.6711
  975MOL0     H31583   1.634   9.244   4.193 -0.7997 -1.4515  0.9003
  975MOL0     H31584   1.809   9.235   4.169  0.3366 -2.5674  3.3240
  975MOL0     H31585   1.772   9.152   4.379  1.9500 -0.3698 -1.4497
  975MOL0     H31586   1.720   9.066   4.686  2.9560  0.6782  3.1949
  975MOL0     H31587   1.875   8.990   4.645 -2.1919 -2.1399  0.4396
  975MOL0     H31588   1.836   9.147   4.586 -0.2227  1.2752  0.1238
  975MOL0     H31589   1.460   8.782   4.827  1.4504  1.2940 -3.7473
  975MOL0     H31590   1.306   8.687   4.991 -2.9853  0.6115 -1.5892
  975MOL0     H31591   1.230   8.240   4.990  1.4220 -1.1973  0.2334
  975MOL0     H31592   1.367   8.309   5.049 -0.7538 -2.2783 -0.5180
  975MOL0     H31593   1.286   8.389   5.238 -1.7986  2.5281 -1.7286
  975MOL0     H31594   1.118   8.376   5.202 -1.5430 -1.5017 -0.7886
  975MOL0     H31595   1.122   8.129   5.223  0.2569  0.1034  0.1758
  975MOL0     H31596   1.194   8.195   5.373  3.6136 -1.4897 -0.4219
  975MOL0     H31597   1.357   8.104   5.136  1.0780  0.9459  0.1926
  975MOL0     H31598   1.420   8.160   5.286 -0.9639 -0.5388  4.2898
  975MOL0     H31599   1.221   7.942   5.293 -0.1954 -2.0814  1.6512
  975MOL0     H31600   1.331   7.982   5.427 -0.2256  3.4548 -0.2664
  975MOL0     H31601   1.384   7.774   5.302  0.6541 -1.5368 -0.8491
  975MOL0     H31602   1.389   7.851   5.156 -0.5561  2.5750  0.8547
  975MOL0     H31603   1.564   7.948   5.375  0.1760 -1.0550  1.1330
  975MOL0     H31604   1.570   8.009   5.214 -0.1647 -0.1904 -2.1670
  975MOL0     H31605   1.759   7.842   5.266  0.0031  1.6057 -0.2789
  975MOL0     H31606   1.656   7.791   5.122 -1.0717  0.9608 -0.6767
  975MOL0     H31607   1.300   8.316   4.790  3.0427 -0.8271  4.7462
  975MOL0     H31608   1.438   8.416   4.600  3.3247  2.8558 -1.0205
  975MOL0     H31609   1.529   8.719   4.380  1.0770 -1.3723 -0.3094
  975MOL0     H31610   1.566   8.829   4.169 -0.1921  1.0253  0.3554
  975MOL0     H31611   0.417   9.670   3.265 -0.4492  1.2474  0.0685
  975MOL0     H31612   0.370   9.898   3.230  2.2323  0.0326  0.2349
  975MOL0     H31613   0.029  10.144   3.362  2.7581 -1.3647  0.0164
  975MOL0     H31614  -0.000  10.374   3.418  0.1166 -1.0912 -0.0901
  975MOL0     H31615   0.358  10.572   3.273 -0.6883 -2.5687  1.4889
  975MOL0     H31616   0.303  10.724   3.308  0.2159  0.5338 -1.6624
  975MOL0     H31617   0.402  10.631   3.510 -0.2255  0.5049 -2.3189
  975MOL0     H31618   0.304  10.484   3.520 -0.1040  0.0130  1.9354
  975MOL0     H31619   0.093  10.600   3.574 -1.2192  0.5096  0.8442
  975MOL0     H31620   0.175  10.748   3.537  1.2290 -1.5987 -5.0567
  975MOL0     H31621   0.314  10.736   3.722 -0.0706  0.4929  1.1546
  975MOL0     H31622   0.284  10.572   3.748  0.8675  0.3270 -1.3943
  975MOL0     H31623  -0.044  10.763   3.960  0.0509  1.1184 -0.9541
  975MOL0     H31624   0.272  10.481   3.090 -0.0543 -2.0889 -1.6263
  975MOL0     H31625   0.294  10.249   3.034  0.4866  1.4584 -1.3087
  976MOL0     O31626   8.854   4.051   0.565 -0.1500  0.3521  0.6759
  976MOL0     C31627   8.979   4.051   0.582 -0.7500  1.4112 -0.5985
  976MOL0     O31628   9.071   4.153   0.570  0.0520  0.4814  0.8098
  976MOL0     C31629   9.021   4.276   0.588  0.1447  0.2553  1.4086
  976MOL0     C31630   8.937   4.325   0.691 -0.1343 -0.0041 -0.8395
  976MOL0     C31631   8.893   4.456   0.687  0.8628 -0.3344  0.3574
  976MOL0     C31632   8.906   4.536   0.573 -0.4394 -1.4104 -1.3823
  976MOL0     O31633   8.847   4.658   0.595 -0.0282  0.3472  0.0661
  976MOL0     C31634   8.816   4.749   0.481  0.0453  0.1257  0.6800
  976MOL0     C31635   8.679   4.717   0.423 -0.9551  1.0120  0.4217
  976MOL0     C31636   8.617   4.829   0.350  0.5830 -0.2779  0.1008
  976MOL0     C31637   8.465   4.801   0.314 -0.6165 -0.3887  0.3535
  976MOL0     C31638   8.462   4.695   0.203  0.0461 -0.7225 -0.1863
  976MOL0     C31639   8.432   4.763   0.075 -0.0849 -0.9067 -0.4142
  976MOL0     C31640   8.421   4.661  -0.039 -0.2864  0.0522 -0.0869
  976MOL0     C31641   8.296   4.569  -0.010  0.1640  0.4718  0.2057
  976MOL0     N31642   8.264   4.504  -0.138 -0.1388 -0.2213  0.6836
  976MOL0     C31643   8.337   4.418  -0.208 -0.8089  0.1028 -0.1317
  976MOL0     C31644   8.265   4.400  -0.322  0.1427 -0.2617 -0.1488
  976MOL0     C31645   8.293   4.315  -0.441  0.2603  0.4096 -0.4556
  976MOL0     C31646   8.300   4.156  -0.406  0.7362  0.5241 -0.4129
  976MOL0     C31647   8.395   4.103  -0.298 -1.5102 -0.1159  0.4352
  976MOL0     C31648   8.532   4.146  -0.332 -0.7210 -0.4028 -0.4794
  976MOL0     O31649   8.625   4.136  -0.223  0.4774  0.4308 -0.0205
  976MOL0     C31650   8.700   4.241  -0.182  0.4076  0.1567 -0.7103
  976MOL0     C31651   8.702   4.262  -0.038 -0.3735  0.5186  1.2650
  976MOL0     C31652   8.773   4.365   0.020 -0.6884 -0.0490 -1.1130
  976MOL0     C31653   8.772   4.375   0.164  0.2138  1.4552 -0.0645
  976MOL0     C31654   8.844   4.460  -0.060 -0.6457 -0.1308 -0.2310
  976MOL0     C31655   8.913   4.573  -0.003  0.0685 -0.0199  1.0528
  976MOL0     O31656   9.027   4.605  -0.081  0.2677  0.7008 -0.4587
  976MOL0     C31657   9.111   4.700  -0.036  0.1867  0.1645  0.7614
  976MOL0     C31658   9.224   4.661   0.034 -0.3753 -0.5613  0.2416
  976MOL0     C31659   9.316   4.759   0.079  0.3915 -0.4487 -1.2012
  976MOL0     C31660   9.301   4.895   0.048 -0.7857 -0.7288 -0.6721
  976MOL0     O31661   9.391   4.985   0.109 -0.0371  0.5138 -0.4747
  976MOL0     C31662   9.400   5.119   0.064  0.6309  1.3447  0.0619
  976MOL0     C31663   9.536   5.175   0.097 -0.3484  0.4681  0.1825
  976MOL0     C31664   9.649   5.103   0.015  0.5763  0.3813 -0.3417
  976MOL0     C31665   9.782   5.147   0.068 -0.8336 -0.0569 -0.5119
  976MOL0     C31666   9.895   5.144  -0.038  0.9249  0.0633  0.2250
  976MOL0     C31667  10.042   5.205   0.003  0.9389 -0.2531 -0.6101
  976MOL0     C31668  10.142   5.198  -0.109  0.4789 -0.6499 -0.9892
  976MOL0     C31669  10.282   5.199  -0.052 -0.2789 -0.8094  0.2012
  976MOL0    Cl31670  10.313   5.359   0.014  0.4632 -0.1181 -0.1424
  976MOL0     C31671   9.184   4.928  -0.025 -0.3477  0.0830 -0.3888
  976MOL0     C31672   9.096   4.831  -0.067  0.4855  0.0504 -0.2293
  976MOL0     O31673   8.867   4.646   0.086  1.1016 -0.5688 -0.6512
  976MOL0     C31674   8.846   4.438  -0.199 -1.0997 -0.0522  0.5811
  976MOL0     C31675   8.775   4.329  -0.261 -0.6768 -0.2990 -0.5922
  976MOL0     N31676   8.144   4.466  -0.310  0.3077  0.3408 -0.1969
  976MOL0     N31677   8.146   4.530  -0.199  0.0204 -0.0895  0.3001
  976MOL0     C31678   8.995   4.492   0.470 -0.2289  0.6570  0.8905
  976MOL0     C31679   9.051   4.363   0.483  0.1574  0.1025  0.0776
  976MOL0     C31680   9.032   3.917   0.622 -0.7777 -0.9266  0.0702
  976MOL0     C31681   8.947   3.806   0.651  0.4174 -0.1495 -0.3416
  976MOL0     C31682   8.987   3.679   0.686  0.4476 -0.1468 -0.6561
  976MOL0     C31683   9.124   3.662   0.703 -0.5183  0.3325  0.6133
  976MOL0     O31684   9.202   3.547   0.725 -0.4058 -0.3876  0.0195
  976MOL0     C31685   9.140   3.419   0.698 -0.0505 -0.0467  0.2414
  976MOL0     C31686   9.255   3.339   0.646 -0.1472 -0.0811  0.7405
  976MOL0     C31687   9.202   3.284   0.524  0.0488 -0.0026 -0.3396
  976MOL0     C31688   9.300   3.189   0.443  0.3753  0.3198  0.2511
  976MOL0     C31689   9.407   3.268   0.390 -0.1759 -0.6553  0.2256
  976MOL0     C31690   9.499   3.326   0.345 -0.1354  0.9107  1.0378
  976MOL0     C31691   9.209   3.767   0.682  0.9447 -0.1498 -0.1994
  976MOL0     C31692   9.168   3.894   0.640 -0.3959  0.6024 -0.5015
  976MOL0     H31693   8.921   4.274   0.786 -2.7928 -0.7955 -1.6389
  976MOL0     H31694   8.850   4.495   0.779 -0.4668  1.3739 -0.9221
  976MOL0     H31695   8.815   4.850   0.523 -0.9134  1.5241 -2.3928
  976MOL0     H31696   8.901   4.754   0.412  0.3556  1.2028  1.1258
  976MOL0     H31697   8.692   4.634   0.352 -0.7190  0.8460  0.6568
  976MOL0     H31698   8.616   4.694   0.510 -0.6778  2.0460  0.9047
  976MOL0     H31699   8.628   4.914   0.418  0.9320 -0.9819  0.9478
  976MOL0     H31700   8.667   4.852   0.256  0.5872 -1.1676 -0.1249
  976MOL0     H31701   8.412   4.758   0.399  1.5310 -2.6766  0.6507
  976MOL0     H31702   8.415   4.897   0.297  0.9566  0.1814 -1.5027
  976MOL0     H31703   8.563   4.654   0.188  0.5797  0.9947 -1.5982
  976MOL0     H31704   8.396   4.612   0.230  0.8268 -1.2712  0.0879
  976MOL0     H31705   8.338   4.819   0.084 -0.1876 -0.7104 -2.3538
  976MOL0     H31706   8.515   4.833   0.066  0.5283 -1.2850  1.7701
  976MOL0     H31707   8.410   4.712  -0.135 -0.6410 -1.3103 -0.8031
  976MOL0     H31708   8.512   4.603  -0.054  0.5473  1.2946  0.0275
  976MOL0     H31709   8.209   4.632   0.010 -0.7272  0.0453 -2.0618
  976MOL0     H31710   8.313   4.496   0.070 -0.8580 -2.0942 -1.7830
  976MOL0     H31711   8.438   4.379  -0.201 -1.6363 -2.8867 -2.7062
  976MOL0     H31712   8.207   4.328  -0.507 -2.1966 -1.2269  2.1575
  976MOL0     H31713   8.386   4.346  -0.488  1.5036 -0.7232  1.1375
  976MOL0     H31714   8.316   4.110  -0.504  1.2869  2.3910 -1.2429
  976MOL0     H31715   8.200   4.133  -0.368  1.0767  0.7448  0.6588
  976MOL0     H31716   8.413   3.995  -0.304  0.0170  0.1563 -0.2298
  976MOL0     H31717   8.364   4.134  -0.197  0.4685  0.2407  0.9779
  976MOL0     H31718   8.530   4.250  -0.364  0.1312  0.4596  2.0554
  976MOL0     H31719   8.566   4.087  -0.418 -2.0623 -1.5574 -0.2582
  976MOL0     H31720   8.640   4.192   0.018 -1.0857 -1.4419 -1.7638
  976MOL0     H31721   8.781   4.283   0.222  0.0945  3.9135  4.3477
  976MOL0     H31722   8.833   4.455   0.208  1.3197  0.0019  1.1667
  976MOL0     H31723   8.670   4.389   0.200 -0.2740 -1.0696 -0.2887
  976MOL0     H31724   9.241   4.554   0.044 -1.0212 -0.8195 -1.2001
  976MOL0     H31725   9.406   4.732   0.132  1.9263  1.1053 -2.8838
  976MOL0     H31726   9.378   5.127  -0.043  1.5909 -4.2627 -0.9123
  976MOL0     H31727   9.325   5.178   0.118 -0.5436  0.3609 -0.4480
  976MOL0     H31728   9.539   5.282   0.074 -1.1135  0.0140 -2.2462
  976MOL0     H31729   9.563   5.175   0.204 -1.1893  0.8047  0.4015
  976MOL0     H31730   9.633   5.148  -0.084  1.2290  0.9325 -0.2080
  976MOL0     H31731   9.628   4.997   0.000 -1.7530  0.9810 -1.9235
  976MOL0     H31732   9.777   5.250   0.106  0.1782  0.3917 -1.5428
  976MOL0     H31733   9.810   5.085   0.153  0.3169 -0.5418 -1.2225
  976MOL0     H31734   9.867   5.201  -0.127  1.0974 -0.7619 -0.3743
  976MOL0     H31735   9.910   5.039  -0.067  0.3099  0.0960 -0.2347
  976MOL0     H31736  10.026   5.309   0.034 -2.1984 -0.8860  0.2158
  976MOL0     H31737  10.080   5.153   0.092 -0.8027  2.8529  2.2051
  976MOL0     H31738  10.129   5.279  -0.181  0.1134 -1.0000 -1.3236
  976MOL0     H31739  10.134   5.097  -0.152 -2.6287 -1.1146  0.4381
  976MOL0     H31740  10.346   5.183  -0.139  0.0647  2.2691 -0.2101
  976MOL0     H31741  10.311   5.121   0.019 -3.4312 -1.0719  1.3609
  976MOL0     H31742   9.148   5.028  -0.051  0.2774 -0.1078 -2.0923
  976MOL0     H31743   9.003   4.856  -0.118 -2.1402  0.3155  4.1409
  976MOL0     H31744   8.894   4.497  -0.276 -1.1346 -0.6937  0.0538
  976MOL0     H31745   8.768   4.331  -0.369 -1.5508 -0.0540 -0.5449
  976MOL0     H31746   9.005   4.546   0.376  1.1887 -1.7693 -0.4720
  976MOL0     H31747   9.115   4.333   0.401  1.5758 -4.6094  2.4977
  976MOL0     H31748   8.840   3.824   0.646  0.2017 -1.6304 -1.9058
  976MOL0     H31749   8.926   3.589   0.690  0.0715  0.1603  1.1053
  976MOL0     H31750   9.101   3.385   0.795 -2.0659  1.6066  0.0877
  976MOL0     H31751   9.056   3.425   0.629  0.7315  2.3057 -0.5932
  976MOL0     H31752   9.283   3.259   0.715 -0.8270 -0.3976  0.6531
  976MOL0     H31753   9.343   3.401   0.627 -0.8767  0.8857  0.4283
  976MOL0     H31754   9.170   3.363   0.455  0.5937  1.2347  0.7738
  976MOL0     H31755   9.113   3.225   0.546  0.6858 -1.2553 -0.9580
  976MOL0     H31756   9.261   3.143   0.352  0.1779 -0.3182  0.6523
  976MOL0     H31757   9.332   3.102   0.501 -0.1267 -0.6802 -0.9354
  976MOL0     H31758   9.585   3.373   0.302 -0.5931 -0.3669 -1.4705
  976MOL0     H31759   9.314   3.757   0.710  1.2415  0.4696 -1.0586
  976MOL0     H31760   9.243   3.971   0.633 -1.2783  1.5175 -0.2238
  977MOL0     O31761   7.635   2.991  10.362  0.6450 -0.0941 -0.6453
  977MOL0     C31762   7.729   2.960  10.296 -0.9328 -0.0786 -0.0044
  977MOL0     O31763   7.792   2.837  10.285 -0.2172  0.3870  0.6256
  977MOL0     C31764   7.761   2.754  10.385  0.3513  0.2375 -0.0429
  977MOL0     C31765   7.802   2.770  10.523  0.7737 -0.2827 -0.4204
  977MOL0     C31766   7.756   2.673  10.614  0.5488  0.0903 -0.2975
  977MOL0     C31767   7.683   2.557  10.573  0.1310  0.3918  0.1119
  977MOL0     O31768   7.629   2.483  10.681  0.2571 -0.4156 -0.4168
  977MOL0     C31769   7.554   2.364  10.657 -0.7389  0.1435  0.2222
  977MOL0     C31770   7.565   2.265  10.777 -0.5945 -0.2941 -0.7512
  977MOL0     C31771   7.711   2.213  10.803  0.2508 -0.0530  0.3954
  977MOL0     C31772   7.722   2.111  10.921  0.4089  0.3784 -0.0294
  977MOL0     C31773   7.858   2.053  10.928  0.0343 -0.6962  0.2027
  977MOL0     C31774   7.889   1.959  11.051  0.0745 -0.3275 -0.1835
  977MOL0     C31775   7.813   1.813  11.045 -0.3794 -1.0168 -0.3585
  977MOL0     C31776   7.820   1.726  11.175 -0.1360 -0.5317 -0.3974
  977MOL0     N31777   7.769   1.591  11.149  0.6207 -0.9589  0.0865
  977MOL0     C31778   7.664   1.538  11.219  0.1191  0.8827 -0.1736
  977MOL0     C31779   7.649   1.406  11.174  1.2754 -0.0459  0.4096
  977MOL0     C31780   7.551   1.300  11.228 -0.0651 -0.6057 -0.1213
  977MOL0     C31781   7.565   1.269  11.379  0.2195  1.0686  0.5839
  977MOL0     C31782   7.435   1.191  11.430 -1.2671 -0.3385 -0.6735
  977MOL0     C31783   7.452   1.040  11.408 -0.1601 -0.0532 -1.5031
  977MOL0     O31784   7.437   1.001  11.273 -0.7746  0.4987 -0.5387
  977MOL0     C31785   7.436   0.864  11.244  0.3768 -0.9115 -0.0303
  977MOL0     C31786   7.458   0.760  11.341  0.9691 -0.1648 -0.2740
  977MOL0     C31787   7.447   0.626  11.311 -0.5087  0.2892 -0.5179
  977MOL0     C31788   7.436   0.529  11.425 -0.4195 -0.4821 -0.1241
  977MOL0     C31789   7.414   0.587  11.171 -0.7137  1.0051  0.1057
  977MOL0     C31790   7.378   0.451  11.138  0.1452  1.2658 -0.6222
  977MOL0     O31791   7.457   0.347  11.194  1.2525 -0.5406  0.0532
  977MOL0     C31792   7.438   0.212  11.165 -0.0046 -0.4695 -0.4005
  977MOL0     C31793   7.559   0.143  11.183  0.3952  0.3771 -0.0655
  977MOL0     C31794   7.563   0.013  11.147 -1.0057  0.5824 -0.5846
  977MOL0     C31795   7.453  -0.063  11.125  0.3378  0.0026 -1.1907
  977MOL0     O31796   7.429  -0.194  11.114 -0.0049  0.2032 -0.1632
  977MOL0     C31797   7.530  -0.280  11.168 -0.7491  0.4610 -0.2656
  977MOL0     C31798   7.468  -0.416  11.183 -0.0647  0.1010  1.0879
  977MOL0     C31799   7.576  -0.517  11.197 -0.0351 -0.4931 -0.1617
  977MOL0     C31800   7.506  -0.646  11.249 -0.4235 -0.1689  0.7606
  977MOL0     C31801   7.603  -0.754  11.250 -0.1377  1.5959  0.4869
  977MOL0     C31802   7.539  -0.885  11.311 -0.0282 -1.2157 -0.3062
  977MOL0     C31803   7.624  -1.002  11.335  0.2169 -0.2942 -1.1002
  977MOL0     C31804   7.726  -1.040  11.223  0.3818 -0.2914  0.0988
  977MOL0    Cl31805   7.835  -1.165  11.285 -0.4602  0.2000  1.0319
  977MOL0     C31806   7.329   0.005  11.120 -0.2033  0.3623 -0.8869
  977MOL0     C31807   7.321   0.145  11.130 -0.6845 -0.2686 -0.1772
  977MOL0     O31808   7.286   0.434  11.063  0.0950  0.6455 -0.0826
  977MOL0     C31809   7.384   0.696  11.085 -0.5224 -0.0334  0.0766
  977MOL0     C31810   7.403   0.833  11.116  0.1187  0.4746  0.8499
  977MOL0     N31811   7.744   1.394  11.071 -0.4811  0.4732  1.0005
  977MOL0     N31812   7.810   1.507  11.061  0.5292  0.2891  0.1126
  977MOL0     C31813   7.654   2.533  10.434 -0.7113 -0.3702  0.2343
  977MOL0     C31814   7.684   2.638  10.349 -0.6713 -0.4469  0.9464
  977MOL0     C31815   7.791   3.073  10.217  0.1312  0.6267  0.1909
  977MOL0     C31816   7.722   3.194  10.219 -0.0285 -1.0856  0.9494
  977MOL0     C31817   7.787   3.300  10.153  0.1436 -0.2069  0.0095
  977MOL0     C31818   7.905   3.288  10.088  0.2816 -0.8734 -0.2266
  977MOL0     O31819   7.955   3.413  10.041 -0.1156  0.7911 -0.0345
  977MOL0     C31820   8.101   3.426  10.009 -0.3625  0.4368 -0.0228
  977MOL0     C31821   8.110   3.568   9.952 -0.5270 -0.6481 -0.2086
  977MOL0     C31822   8.067   3.563   9.806 -0.4933  0.3744  0.1099
  977MOL0     C31823   7.999   3.687   9.753 -0.0606  0.0780 -0.7253
  977MOL0     C31824   8.098   3.800   9.741  0.3846  0.6871 -0.5563
  977MOL0     C31825   8.175   3.894   9.745  0.1932 -0.2037 -0.3587
  977MOL0     C31826   7.971   3.171  10.079  0.1945  0.1736 -0.6129
  977MOL0     C31827   7.920   3.060  10.143  1.1891  0.1262  0.3178
  977MOL0     H31828   7.870   2.849  10.553 -0.2676  0.6197 -0.3834
  977MOL0     H31829   7.767   2.699  10.719  0.1432  1.0764 -0.4847
  977MOL0     H31830   7.448   2.387  10.639 -1.3891 -0.6596  2.6627
  977MOL0     H31831   7.587   2.315  10.565 -1.8498  1.8321 -1.1302
  977MOL0     H31832   7.546   2.323  10.868 -1.2550 -0.4918 -0.7635
  977MOL0     H31833   7.496   2.181  10.774 -1.1114 -0.3911  4.5123
  977MOL0     H31834   7.751   2.175  10.708 -3.9204  1.0045 -2.0298
  977MOL0     H31835   7.759   2.307  10.832  2.3186 -0.1272 -2.3572
  977MOL0     H31836   7.702   2.157  11.018  0.8073  0.1595  0.1613
  977MOL0     H31837   7.652   2.031  10.896  1.3816  0.3659 -3.1106
  977MOL0     H31838   7.873   1.990  10.839  0.6462  2.3607 -2.0469
  977MOL0     H31839   7.925   2.139  10.919  0.1054 -0.8875 -1.6371
  977MOL0     H31840   7.998   1.950  11.047 -0.1326 -3.7863 -1.8626
  977MOL0     H31841   7.872   2.016  11.143  2.2484  0.5555 -0.2834
  977MOL0     H31842   7.710   1.836  11.016 -0.2773  2.1151  1.3177
  977MOL0     H31843   7.865   1.765  10.962  0.1035 -1.8279  0.4032
  977MOL0     H31844   7.755   1.772  11.250  0.8697  0.8369 -0.3203
  977MOL0     H31845   7.918   1.712  11.222 -0.4411 -1.0425  0.0971
  977MOL0     H31846   7.596   1.580  11.292 -0.6800 -4.0577  2.3955
  977MOL0     H31847   7.447   1.332  11.215 -1.8502 -4.5457  2.5100
  977MOL0     H31848   7.568   1.211  11.168  2.7394 -0.8736  0.9239
  977MOL0     H31849   7.561   1.361  11.439  2.5572  0.5255  1.6955
  977MOL0     H31850   7.655   1.214  11.409  0.7661  2.0106  0.7450
  977MOL0     H31851   7.337   1.222  11.391 -1.4415  0.0930  0.0803
  977MOL0     H31852   7.426   1.222  11.535 -0.9253  2.0693 -1.2972
  977MOL0     H31853   7.367   0.994  11.460 -0.1188 -1.0031 -2.2564
  977MOL0     H31854   7.539   0.997  11.458 -1.0539  0.6192  0.7539
  977MOL0     H31855   7.479   0.775  11.447 -0.2467 -0.4861  0.0219
  977MOL0     H31856   7.431   0.570  11.526 -2.9950  2.5096 -1.3171
  977MOL0     H31857   7.347   0.466  11.412 -0.2618 -0.6930 -0.1993
  977MOL0     H31858   7.525   0.466  11.416  1.0804  1.3635  1.0123
  977MOL0     H31859   7.652   0.189  11.213  0.3927  1.9379 -2.2540
  977MOL0     H31860   7.663  -0.026  11.166 -2.6976 -3.5684  1.0437
  977MOL0     H31861   7.615  -0.279  11.099 -0.7758  0.1391 -0.3081
  977MOL0     H31862   7.569  -0.246  11.264 -2.6295 -0.5060  0.8918
  977MOL0     H31863   7.393  -0.411  11.262 -2.3829 -0.6781 -0.9246
  977MOL0     H31864   7.407  -0.434  11.094 -0.2440  2.5653  0.6582
  977MOL0     H31865   7.666  -0.500  11.256  0.5922 -0.1874 -1.1793
  977MOL0     H31866   7.614  -0.532  11.096 -1.4047  0.4762 -0.8534
  977MOL0     H31867   7.464  -0.622  11.347 -0.1048 -1.4744  1.2409
  977MOL0     H31868   7.425  -0.676  11.182  1.5128 -2.3074 -0.7891
  977MOL0     H31869   7.684  -0.724  11.316  0.3388  2.9508 -0.6689
  977MOL0     H31870   7.641  -0.775  11.150  1.0246 -2.2471  1.5644
  977MOL0     H31871   7.481  -0.855  11.400 -3.1141 -1.5279 -2.0656
  977MOL0     H31872   7.453  -0.907  11.247  0.4702 -2.6909 -0.5021
  977MOL0     H31873   7.558  -1.087  11.356 -0.4797  0.3526 -0.6489
  977MOL0     H31874   7.680  -0.987  11.428 -1.0384  0.1016 -0.3915
  977MOL0     H31875   7.778  -0.950  11.191 -1.0800  0.0730 -1.3708
  977MOL0     H31876   7.668  -1.085  11.142  2.4883 -1.3696 -0.8893
  977MOL0     H31877   7.246  -0.059  11.093  3.7504 -5.1591 -1.7041
  977MOL0     H31878   7.235   0.210  11.124  1.2070  2.3249 -1.3322
  977MOL0     H31879   7.355   0.671  10.983  0.7386 -1.1481 -0.0259
  977MOL0     H31880   7.396   0.907  11.037  0.2199 -1.6068 -1.2233
  977MOL0     H31881   7.587   2.460  10.391 -0.0804  0.0368 -1.5490
  977MOL0     H31882   7.647   2.618  10.249  2.2584  1.5464 -0.6785
  977MOL0     H31883   7.626   3.214  10.267  0.8366 -0.7616  2.6062
  977MOL0     H31884   7.747   3.401  10.158  0.5475  0.0567 -1.5012
  977MOL0     H31885   8.163   3.413  10.099 -2.0427  1.3919  1.3409
  977MOL0     H31886   8.133   3.359   9.930  1.8671  1.9055 -0.4634
  977MOL0     H31887   8.214   3.601   9.954 -1.5411  3.2277  3.6956
  977MOL0     H31888   8.045   3.633  10.011 -2.7841 -3.0092  0.0773
  977MOL0     H31889   7.999   3.479   9.790  0.7193 -0.5224 -0.5110
  977MOL0     H31890   8.153   3.536   9.744  0.1032  1.3369  0.4906
  977MOL0     H31891   7.921   3.701   9.828  0.5806 -0.1431 -0.0047
  977MOL0     H31892   7.949   3.659   9.660  1.3127 -0.0026 -1.4715
  977MOL0     H31893   8.228   3.987   9.752 -3.4900  2.2765 -2.2836
  977MOL0     H31894   8.059   3.145  10.021 -1.0929 -0.1422 -2.5346
  977MOL0     H31895   7.978   2.967  10.143 -0.4374 -1.0454 -2.8800
  978MOL0     O31896   0.687   1.534   8.687  0.7422  0.4892  0.5597
  978MOL0     C31897   0.809   1.546   8.713 -0.6089  0.5391  0.2981
  978MOL0     O31898   0.916   1.475   8.657  0.5578 -0.5706  0.0177
  978MOL0     C31899   0.899   1.367   8.575 -0.1926  0.2349  0.0341
  978MOL0     C31900   0.995   1.271   8.600  0.4102  0.3316  0.0287
  978MOL0     C31901   0.982   1.147   8.544 -0.3129  0.2211 -0.2892
  978MOL0     C31902   0.872   1.120   8.466 -0.3765  0.6918 -0.0427
  978MOL0     O31903   0.860   0.991   8.427 -0.2152  0.1979 -0.0053
  978MOL0     C31904   0.875   0.968   8.286  0.1181  0.8178  0.9418
  978MOL0     C31905   0.929   0.825   8.266 -0.2734 -0.4574  0.1650
  978MOL0     C31906   1.075   0.815   8.314  0.2942  0.5398  0.2608
  978MOL0     C31907   1.153   0.695   8.263  0.6414 -0.1378  0.7965
  978MOL0     C31908   1.304   0.717   8.302  0.3068 -0.7268 -0.0760
  978MOL0     C31909   1.386   0.623   8.204 -0.1112 -0.5829  0.3875
  978MOL0     C31910   1.539   0.640   8.227  0.3266  0.0275  0.0009
  978MOL0     C31911   1.632   0.578   8.131  0.1101  0.0657 -0.5175
  978MOL0     N31912   1.767   0.646   8.120  0.3965 -0.0273 -0.2473
  978MOL0     C31913   1.869   0.649   8.211  0.5861 -0.2110  0.5207
  978MOL0     C31914   1.984   0.692   8.157 -0.7470 -0.0973 -0.2322
  978MOL0     C31915   2.121   0.726   8.209 -0.6372 -0.3417  0.7995
  978MOL0     C31916   2.214   0.618   8.188 -0.0788  0.0202  0.0179
  978MOL0     C31917   2.345   0.652   8.265  0.6141  0.1290 -0.5225
  978MOL0     C31918   2.443   0.529   8.266 -0.1815  0.9295  0.1027
  978MOL0     O31919   2.381   0.420   8.341  0.7164  0.3316 -0.2830
  978MOL0     C31920   2.449   0.306   8.370  0.4421 -0.0232 -0.4195
  978MOL0     C31921   2.376   0.218   8.446 -0.1452  1.1507  0.6334
  978MOL0     C31922   2.438   0.100   8.490 -0.0440  0.7825 -0.2466
  978MOL0     C31923   2.357   0.017   8.585 -0.1721  0.1388 -0.3093
  978MOL0     C31924   2.579   0.072   8.457  1.0898  0.3180  0.4823
  978MOL0     C31925   2.669  -0.034   8.511  0.4061  0.3131 -0.0781
  978MOL0     O31926   2.778  -0.079   8.439  0.0337  0.6127 -0.0746
  978MOL0     C31927   2.876  -0.159   8.489  0.2883 -0.0893  0.1575
  978MOL0     C31928   3.006  -0.120   8.483  0.6664 -0.0375  0.0947
  978MOL0     C31929   3.101  -0.175   8.570 -0.5947 -0.7797 -0.4373
  978MOL0     C31930   3.076  -0.289   8.646 -0.4863 -0.6472 -1.0938
  978MOL0     O31931   3.167  -0.336   8.734  0.3845  0.4645  0.6259
  978MOL0     C31932   3.307  -0.327   8.712  0.0758 -0.4042  0.1330
  978MOL0     C31933   3.384  -0.440   8.771 -0.2528 -0.3451 -0.7198
  978MOL0     C31934   3.318  -0.575   8.728 -0.5896 -0.1936  0.0255
  978MOL0     C31935   3.392  -0.690   8.802  0.5489 -0.1185 -0.0638
  978MOL0     C31936   3.543  -0.708   8.746  0.2322 -0.0438  0.2892
  978MOL0     C31937   3.617  -0.829   8.823  0.3831 -0.1876  0.1483
  978MOL0     C31938   3.735  -0.906   8.745  0.2843 -1.3593  0.1063
  978MOL0     C31939   3.790  -1.014   8.841  1.0732  0.1737  0.5028
  978MOL0    Cl31940   3.902  -1.108   8.729 -0.0354  0.5527  0.1235
  978MOL0     C31941   2.946  -0.337   8.643 -0.4237 -0.1695  0.7361
  978MOL0     C31942   2.846  -0.279   8.550 -1.0238 -0.6885 -0.4730
  978MOL0     O31943   2.632  -0.086   8.616 -0.4459 -0.0101 -0.2547
  978MOL0     C31944   2.644   0.171   8.380 -0.4710 -0.4508  0.3793
  978MOL0     C31945   2.577   0.282   8.333  0.4053  0.1565  0.3192
  978MOL0     N31946   1.945   0.712   8.025  0.0795  0.9125 -0.6991
  978MOL0     N31947   1.815   0.684   7.998 -0.2085  0.5390  0.0238
  978MOL0     C31948   0.781   1.216   8.435 -0.2751  0.3809  0.2821
  978MOL0     C31949   0.791   1.340   8.492  0.3544 -0.7720  0.5883
  978MOL0     C31950   0.833   1.637   8.826  0.5909 -0.5944 -1.2850
  978MOL0     C31951   0.719   1.696   8.898 -0.6935  0.1123 -1.2983
  978MOL0     C31952   0.750   1.811   8.984 -0.6687  0.7333  0.0637
  978MOL0     C31953   0.875   1.850   9.019 -0.4767  0.1243  0.6771
  978MOL0     O31954   0.879   1.975   9.083 -0.1952  0.1073  0.7546
  978MOL0     C31955   1.004   2.037   9.126  0.1098  0.1677 -0.5896
  978MOL0     C31956   1.004   2.184   9.156 -0.4715  0.5132  0.0306
  978MOL0     C31957   1.017   2.272   9.018  0.8024  0.2113  0.2898
  978MOL0     C31958   1.138   2.270   8.943 -0.1218  0.1466 -0.6685
  978MOL0     C31959   1.256   2.309   9.023  0.2867 -0.0920  0.7304
  978MOL0     C31960   1.338   2.347   9.097 -0.3005  0.1835 -0.2052
  978MOL0     C31961   0.984   1.782   8.967 -0.1283  0.8845  0.8212
  978MOL0     C31962   0.965   1.678   8.871 -0.5064  0.2797 -1.0067
  978MOL0     H31963   1.059   1.286   8.686  0.8389 -5.8677  1.3027
  978MOL0     H31964   1.044   1.064   8.577  2.5424  1.8637 -1.1423
  978MOL0     H31965   0.782   0.972   8.228  1.3892 -0.8915 -1.3969
  978MOL0     H31966   0.944   1.034   8.231  0.3217 -1.1191 -1.3037
  978MOL0     H31967   0.886   0.736   8.314 -1.0042  0.2664  0.8639
  978MOL0     H31968   0.927   0.797   8.160  0.4044 -1.9711  0.5220
  978MOL0     H31969   1.126   0.907   8.285  0.1405 -0.2269 -2.8271
  978MOL0     H31970   1.068   0.797   8.421  1.0629 -2.0956 -0.0468
  978MOL0     H31971   1.115   0.601   8.304  0.9094 -2.1575 -3.1724
  978MOL0     H31972   1.137   0.698   8.155  1.0532  1.1988  0.7564
  978MOL0     H31973   1.334   0.820   8.281 -0.8599 -0.6608 -1.6123
  978MOL0     H31974   1.317   0.703   8.409  0.0341 -1.5597 -0.1430
  978MOL0     H31975   1.347   0.521   8.215 -4.9816  0.6713 -2.2201
  978MOL0     H31976   1.359   0.646   8.100  0.1392  0.0418  0.4551
  978MOL0     H31977   1.567   0.746   8.225 -0.0284  0.1188 -0.1812
  978MOL0     H31978   1.554   0.607   8.330 -2.0357  1.0583  0.7436
  978MOL0     H31979   1.588   0.584   8.031  1.1741 -2.3932 -1.2236
  978MOL0     H31980   1.648   0.474   8.160 -1.0733 -0.0016 -0.0187
  978MOL0     H31981   1.858   0.625   8.316 -0.9918 -1.1139  0.1881
  978MOL0     H31982   2.159   0.810   8.151 -1.3146  1.5255  2.9114
  978MOL0     H31983   2.127   0.762   8.312 -1.9386 -0.4964  0.9496
  978MOL0     H31984   2.228   0.596   8.082 -2.1515  0.1340 -0.3191
  978MOL0     H31985   2.156   0.538   8.235 -0.9478 -1.1117 -2.7716
  978MOL0     H31986   2.322   0.677   8.369  1.1871  0.6264 -0.5118
  978MOL0     H31987   2.400   0.727   8.208  0.6786 -1.3633 -2.5389
  978MOL0     H31988   2.536   0.552   8.318  0.7244 -0.6595 -0.7603
  978MOL0     H31989   2.469   0.492   8.167 -1.8899 -1.4490  0.4536
  978MOL0     H31990   2.271   0.236   8.464 -0.9477 -0.9627 -1.4222
  978MOL0     H31991   2.404  -0.076   8.617 -0.0529  1.3646  3.5210
  978MOL0     H31992   2.362   0.066   8.683 -4.0898  1.4856 -0.6142
  978MOL0     H31993   2.253  -0.005   8.558  0.2652 -0.5789 -1.4772
  978MOL0     H31994   3.044  -0.039   8.422 -1.5090  1.5198  0.6924
  978MOL0     H31995   3.205  -0.143   8.558  0.1770 -2.6936  0.7082
  978MOL0     H31996   3.312  -0.340   8.603 -2.4856  0.9907 -0.2370
  978MOL0     H31997   3.338  -0.233   8.758 -0.2663 -1.2028  2.1009
  978MOL0     H31998   3.489  -0.430   8.740 -0.0349  3.6346  0.6654
  978MOL0     H31999   3.392  -0.423   8.879  1.6976 -2.9886 -0.3494
  978MOL0     H32000   3.328  -0.590   8.620 -0.7262 -1.5318  0.1762
  978MOL0     H32001   3.210  -0.565   8.741 -0.6779  0.6510 -1.1974
  978MOL0     H32002   3.398  -0.670   8.909 -3.4570 -0.2456  0.3408
  978MOL0     H32003   3.340  -0.786   8.794 -3.0881  1.5196  1.7473
  978MOL0     H32004   3.600  -0.616   8.755  0.6105 -0.3782  1.4049
  978MOL0     H32005   3.528  -0.734   8.640  2.4531 -0.0981 -0.0682
  978MOL0     H32006   3.667  -0.790   8.912  1.5883 -2.1702  0.3986
  978MOL0     H32007   3.543  -0.907   8.846 -2.1876  1.5908 -1.5221
  978MOL0     H32008   3.819  -0.836   8.732 -0.7476  0.1225  1.0408
  978MOL0     H32009   3.714  -0.954   8.649 -1.5643 -3.0449  1.2978
  978MOL0     H32010   3.707  -1.077   8.874 -0.3114 -0.7543 -4.0335
  978MOL0     H32011   3.840  -0.968   8.927 -3.2270  2.2715  2.1611
  978MOL0     H32012   2.915  -0.422   8.704  0.1985 -0.1098  1.1332
  978MOL0     H32013   2.743  -0.314   8.550 -1.3054  0.1103 -0.5925
  978MOL0     H32014   2.744   0.149   8.344 -1.9279 -2.3794 -3.0151
  978MOL0     H32015   2.628   0.356   8.272 -0.0092  0.1763 -0.0033
  978MOL0     H32016   0.696   1.204   8.368 -1.5028  1.9687  1.4938
  978MOL0     H32017   0.725   1.418   8.455  1.5310 -0.0599 -0.0505
  978MOL0     H32018   0.613   1.672   8.900 -1.0379  1.5319  0.5757
  978MOL0     H32019   0.669   1.858   9.040 -2.4776 -1.1802 -0.8124
  978MOL0     H32020   1.036   1.997   9.223 -0.1765  1.0275 -0.1284
  978MOL0     H32021   1.086   2.009   9.060  0.3418 -2.6950  0.7632
  978MOL0     H32022   1.099   2.204   9.205  1.4325 -0.7621 -2.8623
  978MOL0     H32023   0.922   2.209   9.224  0.0361  0.1649  0.7819
  978MOL0     H32024   1.009   2.377   9.050  0.5463  0.3751 -0.2946
  978MOL0     H32025   0.930   2.262   8.952  0.3204 -0.9934  1.0789
  978MOL0     H32026   1.118   2.345   8.866 -0.9852 -0.1320 -0.7180
  978MOL0     H32027   1.160   2.178   8.888  0.2448  2.1147 -4.0866
  978MOL0     H32028   1.411   2.393   9.161  0.2056  0.9700 -1.3164
  978MOL0     H32029   1.089   1.801   8.988 -0.4310  0.9222  2.4256
  978MOL0     H32030   1.052   1.634   8.823 -0.0084 -0.5189  0.5627
  979MOL0     O32031   2.726   3.672   9.135 -0.6175 -0.0820 -0.3919
  979MOL0     C32032   2.687   3.771   9.194 -0.3814  0.4408 -0.3211
  979MOL0     O32033   2.590   3.777   9.292 -0.2591 -0.7169  0.5569
  979MOL0     C32034   2.546   3.663   9.361 -0.0341  1.1566  0.2767
  979MOL0     C32035   2.423   3.690   9.416  0.1557 -0.1563 -0.0067
  979MOL0     C32036   2.364   3.596   9.497  0.6025 -0.2351 -0.0581
  979MOL0     C32037   2.411   3.468   9.511  0.5912  0.8903  0.4077
  979MOL0     O32038   2.330   3.375   9.577 -0.4295 -0.2494  0.0470
  979MOL0     C32039   2.369   3.234   9.561 -0.1156  0.1717 -0.5295
  979MOL0     C32040   2.247   3.149   9.607 -0.1933  0.5073 -0.1687
  979MOL0     C32041   2.122   3.175   9.522 -0.8085  0.6544 -0.1210
  979MOL0     C32042   2.015   3.079   9.568 -0.2275  0.5635  0.0665
  979MOL0     C32043   1.898   3.063   9.481  0.4827 -0.2331  0.6697
  979MOL0     C32044   1.914   2.953   9.371 -0.2120  0.1218  0.2483
  979MOL0     C32045   1.790   2.975   9.272 -0.3563  0.9061 -0.0734
  979MOL0     C32046   1.816   3.078   9.161  0.7012  0.1635 -0.0824
  979MOL0     N32047   1.880   3.009   9.051 -0.3647 -0.8889  0.5029
  979MOL0     C32048   2.010   3.034   9.016 -0.2368  1.1390 -0.8726
  979MOL0     C32049   2.031   2.948   8.910 -0.2844 -0.1875  0.3531
  979MOL0     C32050   2.147   2.953   8.817 -0.8041 -0.4297 -0.7271
  979MOL0     C32051   2.262   2.853   8.857 -0.5583 -0.6182 -0.0744
  979MOL0     C32052   2.364   2.842   8.747 -0.1524  0.6639 -0.0394
  979MOL0     C32053   2.496   2.800   8.811  0.8052  0.5632  0.1567
  979MOL0     O32054   2.589   2.770   8.703 -0.3308 -0.0846 -0.5839
  979MOL0     C32055   2.720   2.743   8.743  0.6553  1.0750  0.0612
  979MOL0     C32056   2.813   2.705   8.646 -0.3068 -0.4866  0.2902
  979MOL0     C32057   2.947   2.673   8.673  0.0624  0.0782 -0.3488
  979MOL0     C32058   3.032   2.647   8.557  0.3585  0.0210 -0.5520
  979MOL0     C32059   2.987   2.670   8.807 -0.7220 -0.0629 -0.6340
  979MOL0     C32060   3.115   2.619   8.856  0.1990 -0.8847  1.0269
  979MOL0     O32061   3.180   2.705   8.928 -1.7741 -0.2221 -0.6756
  979MOL0     C32062   3.295   2.657   8.996  1.4281 -0.5211 -0.5168
  979MOL0     C32063   3.421   2.664   8.937  0.4075 -0.3103 -0.1848
  979MOL0     C32064   3.527   2.621   9.010 -0.0350  0.4593 -0.7550
  979MOL0     C32065   3.516   2.572   9.136 -0.1751 -0.5818 -0.5479
  979MOL0     O32066   3.631   2.524   9.194  0.0396 -0.8342 -0.7112
  979MOL0     C32067   3.644   2.542   9.334 -0.3756 -0.2064 -0.6851
  979MOL0     C32068   3.783   2.495   9.357 -0.8760  0.5538 -0.6814
  979MOL0     C32069   3.800   2.504   9.514 -0.2185  0.8230  0.2817
  979MOL0     C32070   3.914   2.436   9.576  0.6631  0.3152 -0.1885
  979MOL0     C32071   4.052   2.472   9.526  0.5911 -0.7777  1.2442
  979MOL0     C32072   4.161   2.378   9.575 -0.4363  0.7014  0.6766
  979MOL0     C32073   4.166   2.343   9.725 -0.6672  0.2286  0.6399
  979MOL0     C32074   4.296   2.261   9.754 -0.4561 -0.7290  0.2570
  979MOL0    Cl32075   4.340   2.138   9.635  0.5548 -0.2805 -0.2947
  979MOL0     C32076   3.381   2.561   9.192 -0.1571 -0.7014 -0.4194
  979MOL0     C32077   3.280   2.609   9.121 -0.6245  1.0628  0.8507
  979MOL0     O32078   3.154   2.512   8.819  0.0955  0.0602 -0.4589
  979MOL0     C32079   2.896   2.699   8.908  0.1436 -0.7041 -1.1104
  979MOL0     C32080   2.760   2.741   8.877 -0.0747 -0.3891  0.1491
  979MOL0     N32081   1.920   2.868   8.905  0.3302  0.3695  0.3461
  979MOL0     N32082   1.826   2.904   8.984  0.2689 -0.5972 -0.4505
  979MOL0     C32083   2.530   3.437   9.441 -0.0765  0.9473  0.0455
  979MOL0     C32084   2.598   3.530   9.362  0.2243 -0.2647 -0.2014
  979MOL0     C32085   2.748   3.901   9.161  0.3573 -0.3707  1.1711
  979MOL0     C32086   2.821   3.921   9.039  0.3266 -0.0068 -0.1652
  979MOL0     C32087   2.889   4.040   9.008  0.5092  0.8992 -1.2197
  979MOL0     C32088   2.889   4.143   9.099 -0.0402  0.4000 -0.1536
  979MOL0     O32089   2.952   4.257   9.052  0.2287 -0.1804  0.7160
  979MOL0     C32090   2.981   4.370   9.136 -0.4287  0.8449  0.0679
  979MOL0     C32091   3.042   4.455   9.038 -1.0769  0.5990  0.2272
  979MOL0     C32092   3.182   4.411   8.983 -0.5280  0.9543 -0.6664
  979MOL0     C32093   3.299   4.496   9.036  0.8647  0.5591  0.1892
  979MOL0     C32094   3.296   4.520   9.181 -0.2623  0.3463 -0.2900
  979MOL0     C32095   3.281   4.543   9.295  0.2253  0.3723 -0.2889
  979MOL0     C32096   2.803   4.136   9.216 -0.8471 -0.8058 -0.7104
  979MOL0     C32097   2.749   4.014   9.246 -0.2124  0.6182  0.3466
  979MOL0     H32098   2.373   3.785   9.400  0.2119  0.0142  0.7653
  979MOL0     H32099   2.274   3.637   9.541 -0.4881 -1.2803 -1.2377
  979MOL0     H32100   2.394   3.209   9.458 -1.4955  2.2243 -1.4219
  979MOL0     H32101   2.448   3.196   9.627 -1.7919 -2.7402 -0.0116
  979MOL0     H32102   2.288   3.048   9.599  0.1399  0.6373 -0.1086
  979MOL0     H32103   2.217   3.164   9.711 -1.3228  1.6980 -0.6425
  979MOL0     H32104   2.089   3.279   9.524 -0.4794  0.7990 -1.2422
  979MOL0     H32105   2.145   3.154   9.417 -0.9387 -0.5406  0.0672
  979MOL0     H32106   2.055   2.979   9.590 -0.8686  0.9281  3.5249
  979MOL0     H32107   1.973   3.110   9.664 -0.2713  3.1976 -0.7165
  979MOL0     H32108   1.809   3.037   9.539  0.3799 -0.2431  0.5073
  979MOL0     H32109   1.872   3.155   9.429 -1.1315 -0.5201  0.9230
  979MOL0     H32110   2.008   2.974   9.319  1.1445  0.4148  2.6612
  979MOL0     H32111   1.913   2.852   9.413  1.2791 -0.3466 -0.7622
  979MOL0     H32112   1.761   2.876   9.233 -1.0819  0.7642  0.7908
  979MOL0     H32113   1.701   3.015   9.322 -2.0071  1.3969 -3.1112
  979MOL0     H32114   1.874   3.163   9.199 -3.3547  4.2972 -2.0663
  979MOL0     H32115   1.723   3.123   9.125  0.1156 -1.1566 -0.2630
  979MOL0     H32116   2.089   3.099   9.050  1.0824 -0.1441 -1.3715
  979MOL0     H32117   2.115   2.922   8.717  0.8945 -0.1734 -1.3894
  979MOL0     H32118   2.191   3.053   8.807 -0.9227 -0.3677 -0.6418
  979MOL0     H32119   2.217   2.755   8.872 -1.5211 -1.3375 -5.7444
  979MOL0     H32120   2.299   2.898   8.950  0.7872  0.2138 -0.9828
  979MOL0     H32121   2.368   2.938   8.695  1.9926 -0.0264 -1.3140
  979MOL0     H32122   2.334   2.759   8.682 -0.9777  0.0483  1.0873
  979MOL0     H32123   2.472   2.712   8.871  0.6327 -0.4181 -1.2953
  979MOL0     H32124   2.532   2.881   8.875  0.1941  1.0205 -0.0638
  979MOL0     H32125   2.787   2.726   8.543 -0.7812 -1.0277  0.2968
  979MOL0     H32126   2.985   2.570   8.495  0.7455 -1.6944  1.1841
  979MOL0     H32127   3.042   2.739   8.498 -1.0219  0.9849  0.6455
  979MOL0     H32128   3.133   2.616   8.584 -0.0473 -1.1692 -0.3491
  979MOL0     H32129   3.422   2.706   8.837  2.2164 -1.8725 -0.8922
  979MOL0     H32130   3.628   2.608   8.973  0.1318 -0.8557  0.1175
  979MOL0     H32131   3.631   2.646   9.364 -1.5246 -0.9794  1.7434
  979MOL0     H32132   3.572   2.479   9.387 -0.8468 -1.0535 -2.2542
  979MOL0     H32133   3.790   2.390   9.327 -0.0137 -0.1359  1.6712
  979MOL0     H32134   3.853   2.559   9.303 -1.3747  0.2828 -1.6718
  979MOL0     H32135   3.709   2.466   9.562  0.4791 -0.3632  0.7301
  979MOL0     H32136   3.804   2.609   9.543  3.9622  0.7475  0.6176
  979MOL0     H32137   3.906   2.463   9.682  0.6268  0.1307 -0.1431
  979MOL0     H32138   3.904   2.327   9.566  0.6071  0.2736  0.2944
  979MOL0     H32139   4.081   2.575   9.546 -0.0121 -0.1328 -0.9122
  979MOL0     H32140   4.052   2.469   9.416  4.8805  0.8471  1.0091
  979MOL0     H32141   4.144   2.287   9.517 -0.4455  1.5183 -0.6468
  979MOL0     H32142   4.262   2.416   9.551 -1.1015  1.6629 -0.7873
  979MOL0     H32143   4.082   2.286   9.764  1.3110 -1.5050  2.6113
  979MOL0     H32144   4.158   2.426   9.796  0.3557  0.2050  0.8038
  979MOL0     H32145   4.281   2.212   9.850 -1.0825 -0.5834  0.2415
  979MOL0     H32146   4.382   2.328   9.750 -3.1318  3.0867 -3.5763
  979MOL0     H32147   3.349   2.532   9.292 -1.0054 -0.7883 -0.7117
  979MOL0     H32148   3.178   2.598   9.156 -0.1285  1.4999  2.5292
  979MOL0     H32149   2.934   2.692   9.010 -0.4672  0.4965 -0.7835
  979MOL0     H32150   2.679   2.742   8.950  0.0855 -2.8781  0.4672
  979MOL0     H32151   2.569   3.337   9.446 -2.1463  0.0671 -0.2138
  979MOL0     H32152   2.691   3.511   9.310  1.9348 -0.1378  2.6271
  979MOL0     H32153   2.835   3.833   8.976 -4.0875 -1.9299  1.1760
  979MOL0     H32154   2.954   4.023   8.923 -0.2098 -4.0799 -1.0731
  979MOL0     H32155   2.888   4.422   9.164  0.8499  3.5770 -0.4131
  979MOL0     H32156   3.032   4.337   9.227  1.8557  0.3770 -1.2986
  979MOL0     H32157   3.055   4.557   9.074 -0.9443  2.2141 -3.8531
  979MOL0     H32158   2.977   4.453   8.950  1.1624 -2.5659 -1.5932
  979MOL0     H32159   3.192   4.412   8.874  0.9682 -2.8931 -0.7495
  979MOL0     H32160   3.212   4.310   9.013 -1.7254  0.1515 -2.0334
  979MOL0     H32161   3.283   4.594   8.989  0.2857 -0.1051 -1.0647
  979MOL0     H32162   3.397   4.457   9.007 -0.3089 -3.7781  1.3377
  979MOL0     H32163   3.275   4.570   9.399  1.7314 -1.0036  0.2043
  979MOL0     H32164   2.797   4.206   9.299  1.1215 -2.9443  1.4109
  979MOL0     H32165   2.704   3.989   9.342  1.3679 -0.8821  0.7311
  980MOL0     O32166   9.240   2.839   4.738 -0.3608  0.2841  0.0683
  980MOL0     C32167   9.175   2.900   4.813 -0.6782 -0.8668  0.0432
  980MOL0     O32168   9.156   2.866   4.940  0.4808 -0.3328 -0.0263
  980MOL0     C32169   9.236   2.762   4.992  0.8478 -0.1224 -0.3868
  980MOL0     C32170   9.362   2.725   4.947  0.6260 -1.2174 -0.5835
  980MOL0     C32171   9.430   2.628   5.019  0.8562 -0.7182  0.1134
  980MOL0     C32172   9.375   2.554   5.125 -1.2898  0.0666  0.6873
  980MOL0     O32173   9.439   2.447   5.186 -0.6705  0.3245 -0.1493
  980MOL0     C32174   9.583   2.463   5.197  1.3512 -1.2521  0.7740
  980MOL0     C32175   9.642   2.332   5.247 -0.2991 -0.0456  0.0577
  980MOL0     C32176   9.604   2.279   5.388 -0.2223  0.1179  1.0269
  980MOL0     C32177   9.630   2.379   5.498 -1.0441 -0.2001  0.8057
  980MOL0     C32178   9.630   2.308   5.636  0.2676  0.7549  0.0189
  980MOL0     C32179   9.701   2.400   5.732  0.1241  0.6986  0.6264
  980MOL0     C32180   9.730   2.337   5.864 -0.9481 -1.0428 -0.2546
  980MOL0     C32181   9.768   2.451   5.968 -0.1168 -0.8252  0.1926
  980MOL0     N32182   9.817   2.398   6.093 -0.1704  0.8964 -0.9368
  980MOL0     C32183   9.740   2.333   6.186  0.2847 -0.3062  0.2766
  980MOL0     C32184   9.821   2.317   6.291 -0.1645 -0.7380 -0.1845
  980MOL0     C32185   9.790   2.218   6.400  0.0669 -0.0620 -0.4840
  980MOL0     C32186   9.817   2.079   6.346  0.8098  0.2290  0.0003
  980MOL0     C32187   9.804   1.974   6.452  0.5621  0.1049  0.0214
  980MOL0     C32188   9.665   1.968   6.525 -0.2481  0.6457  0.5268
  980MOL0     O32189   9.670   2.060   6.631  0.0853 -0.6797  0.4701
  980MOL0     C32190   9.731   2.021   6.749 -0.1470 -0.0243 -0.1754
  980MOL0     C32191   9.746   2.136   6.832 -0.7151 -0.0569  0.4083
  980MOL0     C32192   9.771   2.113   6.965 -0.2189  0.2384 -0.7110
  980MOL0     C32193   9.812   2.240   7.056  0.3296  0.3998  0.5945
  980MOL0     C32194   9.784   1.979   7.021  0.2402 -1.2995 -0.2406
  980MOL0     C32195   9.803   1.950   7.171 -0.3614 -0.6992 -0.4979
  980MOL0     O32196   9.871   1.836   7.213 -0.5994 -0.2161 -0.7592
  980MOL0     C32197   9.876   1.800   7.346  0.4386 -0.0232  0.2346
  980MOL0     C32198  10.001   1.753   7.389  0.5381 -0.0837 -0.5473
  980MOL0     C32199  10.022   1.695   7.514 -0.5922 -0.7546 -0.4230
  980MOL0     C32200   9.909   1.672   7.602  0.9371  0.2281 -0.7535
  980MOL0     O32201   9.924   1.619   7.724  0.4527  0.9076  0.3571
  980MOL0     C32202   9.817   1.623   7.822 -0.3007  0.0201 -0.0257
  980MOL0     C32203   9.864   1.537   7.941 -0.1619  0.4976  1.5362
  980MOL0     C32204   9.765   1.546   8.052 -0.7730 -0.1742 -0.4512
  980MOL0     C32205   9.723   1.408   8.103  0.4625 -0.6557  0.2943
  980MOL0     C32206   9.665   1.407   8.239  0.7230  0.1577 -1.0807
  980MOL0     C32207   9.759   1.358   8.353  1.3106  0.2497  0.7288
  980MOL0     C32208   9.686   1.390   8.489 -0.1398  0.1361  0.0903
  980MOL0     C32209   9.784   1.347   8.600 -0.2927  0.6137  0.9681
  980MOL0    Cl32210   9.719   1.361   8.767  0.1429 -0.4175 -0.4372
  980MOL0     C32211   9.783   1.728   7.565  0.0906 -0.1922 -1.3333
  980MOL0     C32212   9.760   1.782   7.435  0.8353 -0.8835 -0.7613
  980MOL0     O32213   9.755   2.031   7.259  0.2428 -0.2412 -0.1086
  980MOL0     C32214   9.790   1.874   6.936  0.5206 -0.0466  0.2015
  980MOL0     C32215   9.760   1.889   6.799  0.5603  0.3944  0.4659
  980MOL0     N32216   9.943   2.371   6.268  0.3241 -0.2371  1.1598
  980MOL0     N32217   9.944   2.417   6.149  0.2755 -0.8492  0.1960
  980MOL0     C32218   9.249   2.601   5.169  0.5278  0.7753 -1.0180
  980MOL0     C32219   9.175   2.700   5.098 -0.3630 -0.3028  0.4891
  980MOL0     C32220   9.132   3.036   4.780 -0.0008  0.1101  0.5408
  980MOL0     C32221   9.030   3.106   4.839  0.0229 -0.7883 -0.5396
  980MOL0     C32222   9.009   3.247   4.811 -0.0665  0.5094  0.1476
  980MOL0     C32223   9.095   3.322   4.719 -0.1148 -0.1310 -0.3481
  980MOL0     O32224   9.079   3.455   4.690 -0.2269 -0.2762  0.1322
  980MOL0     C32225   8.967   3.482   4.609 -0.3590 -0.9734  0.5722
  980MOL0     C32226   8.997   3.630   4.559  0.1342 -0.8012  0.9903
  980MOL0     C32227   9.086   3.605   4.435  0.2020 -0.4743 -0.6850
  980MOL0     C32228   9.153   3.747   4.414 -1.5054 -0.4821  0.5752
  980MOL0     C32229   9.070   3.826   4.320 -0.5838 -0.8146  0.1845
  980MOL0     C32230   9.005   3.873   4.227 -0.1170 -0.2355  0.1070
  980MOL0     C32231   9.188   3.245   4.646 -0.1961  0.8749 -0.4901
  980MOL0     C32232   9.208   3.102   4.678 -0.5477 -0.2163  0.5418
  980MOL0     H32233   9.422   2.777   4.872  1.4454 -1.7908 -0.3461
  980MOL0     H32234   9.529   2.607   4.979 -0.1466 -3.3970 -1.2323
  980MOL0     H32235   9.628   2.490   5.101  0.3286  0.0497  0.6331
  980MOL0     H32236   9.606   2.548   5.263  0.3053  0.3896 -0.8985
  980MOL0     H32237   9.611   2.255   5.175 -2.8993 -0.3124  1.3724
  980MOL0     H32238   9.752   2.334   5.240  0.1147 -4.9731  1.1946
  980MOL0     H32239   9.503   2.240   5.370  0.5200 -1.7689  0.6798
  980MOL0     H32240   9.666   2.192   5.413  1.5607  0.6162 -1.2713
  980MOL0     H32241   9.728   2.425   5.483 -1.4603  0.7765  0.9968
  980MOL0     H32242   9.563   2.466   5.494 -0.4261  0.2293 -1.1779
  980MOL0     H32243   9.528   2.288   5.671 -0.1769  2.3280 -0.3156
  980MOL0     H32244   9.686   2.214   5.634 -0.4741  0.3090 -0.6573
  980MOL0     H32245   9.788   2.439   5.678 -0.9615  0.9843 -0.9965
  980MOL0     H32246   9.647   2.494   5.747  2.3683  2.4756 -1.5465
  980MOL0     H32247   9.657   2.275   5.917 -0.7035 -0.4478  0.7985
  980MOL0     H32248   9.820   2.275   5.856 -0.4465 -0.9576  3.0644
  980MOL0     H32249   9.686   2.519   5.991  0.1276 -0.1968 -0.7406
  980MOL0     H32250   9.852   2.507   5.926  0.8651  0.5735  3.6407
  980MOL0     H32251   9.635   2.310   6.183 -0.2151  1.6726  0.8980
  980MOL0     H32252   9.850   2.243   6.487 -1.7016 -0.7552  1.0023
  980MOL0     H32253   9.684   2.230   6.426 -1.5679 -1.0182 -5.5531
  980MOL0     H32254   9.916   2.080   6.298  0.9515 -0.9008  0.2330
  980MOL0     H32255   9.746   2.054   6.266  0.5259 -0.2013  0.3832
  980MOL0     H32256   9.885   1.988   6.525  0.2124  0.7521  0.2915
  980MOL0     H32257   9.812   1.876   6.403  0.3120 -1.0640  2.1803
  980MOL0     H32258   9.641   1.863   6.543  1.0480  0.4676  1.3589
  980MOL0     H32259   9.586   2.012   6.463 -0.1867 -0.5377 -0.4208
  980MOL0     H32260   9.728   2.240   6.805 -0.9759 -0.7960 -2.6537
  980MOL0     H32261   9.834   2.335   7.008  1.0475  0.2305  0.5729
  980MOL0     H32262   9.724   2.258   7.118  0.0453 -0.1441  0.3632
  980MOL0     H32263   9.897   2.198   7.111  4.1806 -1.3495 -5.7027
  980MOL0     H32264  10.085   1.772   7.324 -0.9536 -1.8052 -3.1487
  980MOL0     H32265  10.123   1.684   7.554 -0.6434 -0.6658 -0.2706
  980MOL0     H32266   9.800   1.724   7.859  1.8128  0.4625 -0.1612
  980MOL0     H32267   9.732   1.571   7.776  1.4908 -3.1483 -0.0382
  980MOL0     H32268   9.875   1.434   7.904 -1.1820  0.8816  0.0892
  980MOL0     H32269   9.963   1.573   7.971 -0.2318  1.0528  1.1023
  980MOL0     H32270   9.679   1.603   8.016 -2.3266 -0.7467  2.1230
  980MOL0     H32271   9.806   1.609   8.133 -1.4627 -0.9007  0.4896
  980MOL0     H32272   9.656   1.361   8.031  0.0104 -0.4698  0.5885
  980MOL0     H32273   9.819   1.356   8.109  0.7720 -0.0336  0.9159
  980MOL0     H32274   9.585   1.332   8.243 -1.0370  1.9665  1.8169
  980MOL0     H32275   9.628   1.504   8.276 -2.1685 -1.0828 -0.4489
  980MOL0     H32276   9.783   1.253   8.339  1.8382  0.7332 -3.0756
  980MOL0     H32277   9.851   1.417   8.345 -0.7268  3.5267 -0.7656
  980MOL0     H32278   9.599   1.326   8.501 -0.9035  0.0448 -4.3027
  980MOL0     H32279   9.658   1.495   8.501 -2.3626 -0.6639  2.9390
  980MOL0     H32280   9.879   1.398   8.581 -0.1608 -0.1376 -0.4959
  980MOL0     H32281   9.802   1.239   8.593 -2.2236  0.3017 -0.0086
  980MOL0     H32282   9.694   1.711   7.625  0.1122 -0.4650 -1.3758
  980MOL0     H32283   9.661   1.825   7.419  0.2438 -1.3907  1.2659
  980MOL0     H32284   9.807   1.773   6.972  0.7290  0.2296  0.8859
  980MOL0     H32285   9.752   1.805   6.730 -0.2452  0.6804  0.1939
  980MOL0     H32286   9.201   2.543   5.247 -0.0804  3.7016  0.9188
  980MOL0     H32287   9.072   2.722   5.125  0.4879 -0.3190  4.1547
  980MOL0     H32288   8.970   3.059   4.917 -0.2778 -0.6798 -0.7015
  980MOL0     H32289   8.927   3.302   4.855 -1.1398  0.8129 -2.0951
  980MOL0     H32290   8.954   3.421   4.519 -0.4368  0.2026 -0.2353
  980MOL0     H32291   8.875   3.458   4.664  0.1932 -2.3098  0.9590
  980MOL0     H32292   9.051   3.688   4.633 -1.6516  1.5339  0.5710
  980MOL0     H32293   8.911   3.685   4.520  2.3427  0.3222 -2.7898
  980MOL0     H32294   9.028   3.569   4.349 -1.1491  0.6025 -0.2730
  980MOL0     H32295   9.166   3.532   4.450 -1.1356 -2.1004 -1.0747
  980MOL0     H32296   9.255   3.742   4.375 -1.7010  0.5048 -0.1219
  980MOL0     H32297   9.168   3.804   4.506  3.7991  4.3069 -2.5033
  980MOL0     H32298   8.941   3.927   4.161  1.6513  0.3358 -1.1965
  980MOL0     H32299   9.259   3.294   4.580 -0.8508  1.4962 -0.7383
  980MOL0     H32300   9.274   3.032   4.628 -1.3224 -1.8624  1.7432
  981MOL0     O32301  10.123   3.932   6.348 -0.2058  0.2354  0.0697
  981MOL0     C32302  10.032   3.991   6.287 -0.4366  0.7415  1.0382
  981MOL0     O32303   9.902   3.999   6.331  0.7522 -0.5269 -0.4064
  981MOL0     C32304   9.882   3.964   6.466  0.3774 -0.2828  0.7126
  981MOL0     C32305   9.875   4.067   6.561  0.1373 -0.1925 -0.5655
  981MOL0     C32306   9.865   4.036   6.695  0.5224  0.8749 -0.4104
  981MOL0     C32307   9.840   3.902   6.741  0.2775 -0.3075  0.0784
  981MOL0     O32308   9.842   3.877   6.871 -0.0662 -0.1353  0.3741
  981MOL0     C32309   9.720   3.911   6.944 -0.0549 -0.2393  0.7047
  981MOL0     C32310   9.743   3.899   7.093 -0.9447 -0.9446 -0.1227
  981MOL0     C32311   9.837   4.006   7.161  0.4404  0.7597  0.1696
  981MOL0     C32312   9.908   3.946   7.282 -0.0461  0.4114 -0.5210
  981MOL0     C32313   9.991   4.044   7.362 -0.5233  0.4212 -0.9130
  981MOL0     C32314  10.037   3.980   7.499  0.0188  0.6319 -0.5232
  981MOL0     C32315  10.084   4.100   7.593  0.6032  0.5001 -0.2496
  981MOL0     C32316  10.152   4.050   7.719 -0.7954 -1.1188  0.4537
  981MOL0     N32317  10.170   4.162   7.809  0.3794 -0.1169  0.5127
  981MOL0     C32318  10.073   4.200   7.905  0.0325  0.2649 -0.2801
  981MOL0     C32319  10.136   4.280   7.989  1.4574 -0.7634 -0.6151
  981MOL0     C32320  10.061   4.326   8.112 -0.3962  0.0976 -0.2013
  981MOL0     C32321  10.012   4.205   8.191 -0.1836 -0.4631 -0.1657
  981MOL0     C32322  10.130   4.129   8.254 -0.2506  0.1921  0.3335
  981MOL0     C32323  10.055   4.035   8.343  0.4733  0.3208  0.0711
  981MOL0     O32324   9.966   3.941   8.278 -0.1215 -0.7494 -0.0784
  981MOL0     C32325   9.835   3.921   8.314 -0.3911 -0.9350  0.7581
  981MOL0     C32326   9.742   3.908   8.212  0.6103 -0.0359  0.3400
  981MOL0     C32327   9.600   3.912   8.242  0.8265 -0.0155 -0.2039
  981MOL0     C32328   9.505   3.913   8.125 -0.1799 -0.0226  0.5799
  981MOL0     C32329   9.557   3.914   8.377 -0.3490 -1.1578 -0.5862
  981MOL0     C32330   9.419   3.885   8.441  0.0131 -0.4565 -0.7215
  981MOL0     O32331   9.416   3.857   8.574  1.0303  0.1038 -0.2261
  981MOL0     C32332   9.296   3.846   8.635  0.9956 -0.1927 -0.7542
  981MOL0     C32333   9.261   3.745   8.719  0.3091  0.4948 -0.0693
  981MOL0     C32334   9.148   3.739   8.800  0.3129  0.4347 -0.0884
  981MOL0     C32335   9.069   3.858   8.806  0.4368  0.1218  0.8923
  981MOL0     O32336   8.955   3.877   8.883  0.0618  0.4820  0.0613
  981MOL0     C32337   8.899   3.769   8.972  0.1702 -0.3389 -0.3133
  981MOL0     C32338   8.775   3.819   9.050  0.8921  1.0368 -0.3531
  981MOL0     C32339   8.652   3.813   8.959 -0.4507  0.4724  0.8234
  981MOL0     C32340   8.532   3.877   9.020 -0.1396  0.2896 -0.1355
  981MOL0     C32341   8.406   3.859   8.921  0.4868 -1.1079  0.7402
  981MOL0     C32342   8.281   3.936   8.976 -0.0352 -0.3098 -0.4615
  981MOL0     C32343   8.300   4.081   9.020 -0.8236 -0.2841  0.1124
  981MOL0     C32344   8.158   4.143   9.058  0.3111 -0.6319  0.6009
  981MOL0    Cl32345   8.048   4.161   8.920  0.6129  0.4959  0.1324
  981MOL0     C32346   9.097   3.965   8.720  0.4635  0.0854  0.5154
  981MOL0     C32347   9.214   3.961   8.641 -0.0065 -0.6496  1.2110
  981MOL0     O32348   9.319   3.895   8.369 -0.5344 -0.0114 -0.0946
  981MOL0     C32349   9.662   3.918   8.473 -0.1048  0.4969  0.5047
  981MOL0     C32350   9.795   3.923   8.444  0.8568 -0.7506  0.3653
  981MOL0     N32351  10.272   4.293   7.957  0.5676  0.2161  0.2569
  981MOL0     N32352  10.288   4.208   7.860  0.1993  0.0078 -0.2662
  981MOL0     C32353   9.843   3.800   6.647  0.3342  0.9261  0.1243
  981MOL0     C32354   9.869   3.831   6.513 -1.3468 -0.6429 -0.3393
  981MOL0     C32355  10.064   4.039   6.148  0.4652  0.3773  0.1651
  981MOL0     C32356  10.195   4.050   6.090 -0.1371  0.6691 -0.6063
  981MOL0     C32357  10.214   4.102   5.960  0.2506  0.5454 -0.7296
  981MOL0     C32358  10.101   4.140   5.890  0.1303 -0.3804  0.7739
  981MOL0     O32359  10.127   4.192   5.765  0.4859  0.0596 -0.0647
  981MOL0     C32360  10.034   4.280   5.693  0.5082  1.4184 -0.1120
  981MOL0     C32361   9.973   4.395   5.779  0.2707 -0.6813  0.0522
  981MOL0     C32362  10.075   4.501   5.833 -0.0024  1.3747 -0.2641
  981MOL0     C32363  10.049   4.529   5.983  0.2067 -0.0826  1.1044
  981MOL0     C32364   9.921   4.604   6.011  0.5790  0.5712 -0.5309
  981MOL0     C32365   9.816   4.660   6.058 -0.5815  1.1804 -0.0797
  981MOL0     C32366   9.973   4.127   5.944  0.3852  0.4959  0.1045
  981MOL0     C32367   9.951   4.084   6.075 -0.6331 -1.1180  0.3306
  981MOL0     H32368   9.881   4.174   6.546 -0.0159 -0.2937 -1.3944
  981MOL0     H32369   9.867   4.115   6.770 -0.9176 -0.8061  1.5323
  981MOL0     H32370   9.699   4.016   6.920  1.5079  0.2153  1.2006
  981MOL0     H32371   9.634   3.849   6.919 -0.1309  0.0881  0.1597
  981MOL0     H32372   9.646   3.904   7.143  0.2349 -0.1392  2.2311
  981MOL0     H32373   9.782   3.799   7.113  2.9243  0.1152 -1.2934
  981MOL0     H32374   9.908   4.049   7.091 -0.3927  1.2728 -0.3817
  981MOL0     H32375   9.767   4.086   7.189 -2.1804 -1.1196 -0.6178
  981MOL0     H32376   9.834   3.886   7.336 -0.7648 -1.6906 -3.5881
  981MOL0     H32377   9.982   3.881   7.233 -1.7769 -0.9034 -1.4963
  981MOL0     H32378  10.077   4.088   7.311 -0.0555  1.0956  0.4092
  981MOL0     H32379   9.923   4.124   7.395 -0.8350  0.0592 -0.6700
  981MOL0     H32380   9.960   3.919   7.547 -1.2866  1.6500 -1.2522
  981MOL0     H32381  10.122   3.917   7.474 -0.2416 -0.3433  0.9401
  981MOL0     H32382  10.149   4.163   7.531  1.0480 -0.4341 -0.7423
  981MOL0     H32383   9.999   4.162   7.625  1.4785 -0.4859  4.7390
  981MOL0     H32384  10.246   3.997   7.698 -1.2520 -1.7770  0.0572
  981MOL0     H32385  10.090   3.988   7.784 -0.7727 -1.0547  0.5367
  981MOL0     H32386   9.968   4.172   7.906 -0.1998  0.8768  2.9212
  981MOL0     H32387  10.139   4.381   8.166 -0.5434  1.0806 -0.9683
  981MOL0     H32388   9.986   4.405   8.101 -1.1434 -0.6897 -0.9229
  981MOL0     H32389   9.944   4.147   8.128 -2.0731 -0.7754  1.9946
  981MOL0     H32390   9.940   4.250   8.261 -0.8168 -1.4039 -0.1878
  981MOL0     H32391  10.209   4.180   8.309  1.1145 -1.3579 -0.1070
  981MOL0     H32392  10.173   4.072   8.171  2.0922  0.7070  1.1256
  981MOL0     H32393   9.993   4.087   8.418 -0.2239 -3.4739  2.3916
  981MOL0     H32394  10.126   3.983   8.407 -0.8296  1.2656  2.4557
  981MOL0     H32395   9.781   3.908   8.111 -3.7033  3.3457 -1.6768
  981MOL0     H32396   9.455   3.817   8.111 -1.6225  0.4741  2.0685
  981MOL0     H32397   9.427   3.990   8.133 -1.1854 -0.7915 -1.2148
  981MOL0     H32398   9.555   3.949   8.035 -2.6071  2.9182  0.2446
  981MOL0     H32399   9.340   3.671   8.711  0.9928  1.4249 -2.7525
  981MOL0     H32400   9.109   3.652   8.852  0.7693  0.1065 -0.2888
  981MOL0     H32401   8.876   3.676   8.919 -1.6500 -2.1106  3.2231
  981MOL0     H32402   8.968   3.754   9.055 -1.8087  0.4378  1.5935
  981MOL0     H32403   8.744   3.753   9.132 -1.0143  0.3259 -1.5818
  981MOL0     H32404   8.796   3.916   9.095  0.6255 -0.2061  2.6903
  981MOL0     H32405   8.629   3.708   8.940 -1.3034  0.7477  0.2583
  981MOL0     H32406   8.681   3.854   8.862  1.9071 -0.7709  0.9419
  981MOL0     H32407   8.504   3.825   9.112 -0.6447 -2.4139 -1.6950
  981MOL0     H32408   8.561   3.980   9.043 -0.9862  0.0814  2.0841
  981MOL0     H32409   8.379   3.756   8.898 -2.7816 -0.2503  0.2051
  981MOL0     H32410   8.430   3.899   8.823 -1.4470  0.1534  0.7243
  981MOL0     H32411   8.211   3.942   8.892 -2.7377  0.0485  1.6735
  981MOL0     H32412   8.234   3.879   9.057 -2.2916  1.0452 -0.7159
  981MOL0     H32413   8.366   4.139   8.956  1.3334 -2.9552 -0.2530
  981MOL0     H32414   8.350   4.072   9.117  1.8215 -0.3893 -1.1820
  981MOL0     H32415   8.163   4.237   9.114  0.3656 -1.1335  1.4509
  981MOL0     H32416   8.118   4.078   9.135 -1.8783  2.1874  2.0085
  981MOL0     H32417   9.025   4.042   8.693  0.4235 -0.6653 -1.7913
  981MOL0     H32418   9.233   4.045   8.575 -1.4997 -1.2933 -0.1064
  981MOL0     H32419   9.660   3.926   8.582 -0.2526 -0.6582  0.5931
  981MOL0     H32420   9.861   3.937   8.529 -0.7503  1.4421  1.3352
  981MOL0     H32421   9.829   3.697   6.677 -3.6079  1.3820  0.3349
  981MOL0     H32422   9.881   3.747   6.444  0.7964 -1.1436  0.5530
  981MOL0     H32423  10.288   4.023   6.139 -0.0567  1.8533 -0.0501
  981MOL0     H32424  10.312   4.109   5.915  0.5296  1.0366 -0.0586
  981MOL0     H32425  10.096   4.317   5.611  1.4901 -0.3470 -0.2240
  981MOL0     H32426   9.954   4.220   5.648  1.9272 -0.2560 -0.4839
  981MOL0     H32427   9.909   4.366   5.863 -1.1231  1.5913 -0.1595
  981MOL0     H32428   9.911   4.448   5.706  0.6459  0.4786  0.5591
  981MOL0     H32429  10.059   4.591   5.774 -0.1349  0.4109 -1.7402
  981MOL0     H32430  10.177   4.468   5.814 -0.1393  0.6240  0.2533
  981MOL0     H32431  10.127   4.597   6.019  0.0794  0.3197  0.6298
  981MOL0     H32432  10.049   4.432   6.033  3.0836 -0.1930  1.0653
  981MOL0     H32433   9.733   4.706   6.108 -1.0043  0.8484 -0.4634
  981MOL0     H32434   9.889   4.165   5.887 -1.8603 -1.4037  1.9889
  981MOL0     H32435   9.848   4.087   6.108 -0.8560 -0.8750 -0.3689
  982MOL0     O32436   8.998   5.765   1.589 -0.6273  0.1033  1.1321
  982MOL0     C32437   8.910   5.839   1.544  0.4210 -0.1789 -0.2609
  982MOL0     O32438   8.894   5.967   1.583 -0.4529  0.3347  0.1996
  982MOL0     C32439   8.989   6.014   1.671  0.8891  0.6374  1.0161
  982MOL0     C32440   9.122   6.029   1.628 -0.5402 -0.4820 -0.7326
  982MOL0     C32441   9.224   6.077   1.718  0.1188 -0.8103 -0.1600
  982MOL0     C32442   9.192   6.129   1.842  0.4128 -0.4060 -1.0916
  982MOL0     O32443   9.276   6.179   1.933 -0.1940 -0.3210 -1.0306
  982MOL0     C32444   9.419   6.142   1.927 -0.6776 -0.6346 -0.0513
  982MOL0     C32445   9.502   6.206   2.044 -0.1381  0.0010 -0.2621
  982MOL0     C32446   9.450   6.177   2.184  0.0762 -0.0048 -0.3339
  982MOL0     C32447   9.521   6.257   2.288  0.1196 -0.5050  0.7187
  982MOL0     C32448   9.455   6.246   2.426 -1.2333  0.3828  0.1632
  982MOL0     C32449   9.533   6.344   2.511 -0.1360  0.6001  0.3231
  982MOL0     C32450   9.501   6.329   2.658  1.0203 -0.0747  1.0033
  982MOL0     C32451   9.373   6.415   2.687 -0.5210  0.5725 -0.4184
  982MOL0     N32452   9.343   6.420   2.834 -0.2379 -0.1539  0.0232
  982MOL0     C32453   9.365   6.522   2.918 -0.1972  0.3348  0.7800
  982MOL0     C32454   9.335   6.480   3.042  0.0592 -0.3253 -0.0966
  982MOL0     C32455   9.332   6.552   3.171  0.1196 -0.6564  0.4391
  982MOL0     C32456   9.191   6.619   3.182  0.8218 -0.1740 -0.1240
  982MOL0     C32457   9.179   6.692   3.318  0.0212  0.6423 -0.5443
  982MOL0     C32458   9.063   6.797   3.330 -0.3581  0.7005 -0.5286
  982MOL0     O32459   9.103   6.931   3.273  0.4860  0.0848 -0.6033
  982MOL0     C32460   9.006   7.035   3.282 -0.4172  0.1951  0.0573
  982MOL0     C32461   9.027   7.156   3.199 -0.0026  0.7315  0.7031
  982MOL0     C32462   8.939   7.259   3.203  0.4250 -0.7031 -0.7271
  982MOL0     C32463   8.988   7.372   3.120  0.1269 -0.6729  0.5235
  982MOL0     C32464   8.826   7.251   3.285 -0.5457 -0.0999 -0.1787
  982MOL0     C32465   8.729   7.369   3.307  0.5728 -0.3525 -0.0198
  982MOL0     O32466   8.596   7.345   3.330  0.3916  0.4671 -0.6913
  982MOL0     C32467   8.537   7.418   3.435 -0.0848 -0.3501  0.6725
  982MOL0     C32468   8.601   7.458   3.544  0.0891 -0.4329 -0.2299
  982MOL0     C32469   8.537   7.523   3.652 -0.3614  0.4097  0.6937
  982MOL0     C32470   8.398   7.553   3.641  1.0892 -0.5103  0.7606
  982MOL0     O32471   8.335   7.624   3.738 -0.4946 -0.1405 -0.0928
  982MOL0     C32472   8.225   7.558   3.803  0.2521  0.3959  0.1875
  982MOL0     C32473   8.183   7.645   3.912 -0.6894  1.0250 -0.1348
  982MOL0     C32474   8.116   7.780   3.865  0.2677 -0.2726 -1.3882
  982MOL0     C32475   8.062   7.834   3.995  0.8308 -0.9379 -0.4087
  982MOL0     C32476   8.062   7.990   3.980  0.0522 -0.5134 -0.9830
  982MOL0     C32477   8.005   8.063   4.113  0.3387 -0.0965  1.0727
  982MOL0     C32478   7.991   8.217   4.073  0.0875 -0.6475  0.5065
  982MOL0     C32479   8.126   8.292   4.098  0.2187 -1.3112  0.2952
  982MOL0    Cl32480   8.100   8.457   4.145 -0.0286 -0.1693 -0.2890
  982MOL0     C32481   8.336   7.530   3.520  0.1961  0.2012  0.2202
  982MOL0     C32482   8.404   7.467   3.412  0.4715  0.9254  0.3032
  982MOL0     O32483   8.786   7.479   3.330 -0.1004  0.4598  0.0669
  982MOL0     C32484   8.806   7.138   3.364 -0.1319  0.0079  0.3311
  982MOL0     C32485   8.891   7.028   3.361 -0.3831  0.2065  0.3050
  982MOL0     N32486   9.308   6.346   3.031 -0.0589  0.3398  0.4473
  982MOL0     N32487   9.308   6.313   2.904  0.3022  0.4229 -0.3859
  982MOL0     C32488   9.064   6.107   1.883 -0.6879  0.5657 -0.9303
  982MOL0     C32489   8.964   6.038   1.802 -0.0131  0.2305 -0.4492
  982MOL0     C32490   8.801   5.794   1.455  0.3160 -0.5376  0.0085
  982MOL0     C32491   8.678   5.861   1.448 -0.0001  0.2071 -0.5868
  982MOL0     C32492   8.582   5.816   1.357  0.2865  0.7900  0.2374
  982MOL0     C32493   8.603   5.702   1.279  0.7009  0.1462 -0.7421
  982MOL0     O32494   8.508   5.650   1.191  0.0631 -0.0953  0.2951
  982MOL0     C32495   8.368   5.676   1.192 -0.1646  0.3657 -0.9554
  982MOL0     C32496   8.289   5.547   1.151 -0.0336  1.1589  0.2325
  982MOL0     C32497   8.302   5.516   1.001 -0.5247 -0.9181 -0.1550
  982MOL0     C32498   8.235   5.608   0.895  0.0473 -0.9424 -0.0393
  982MOL0     C32499   8.299   5.607   0.763  0.8260 -0.1992 -0.1967
  982MOL0     C32500   8.334   5.599   0.649  0.1651 -0.2849 -0.9204
  982MOL0     C32501   8.727   5.631   1.294 -1.2470 -0.4572 -0.2815
  982MOL0     C32502   8.827   5.678   1.386  0.6423  0.5937  1.4436
  982MOL0     H32503   9.152   5.988   1.532 -0.9042  2.7186 -2.3620
  982MOL0     H32504   9.329   6.063   1.692 -0.2415 -0.3005 -2.0325
  982MOL0     H32505   9.444   6.036   1.937  0.3085 -0.4815 -0.8111
  982MOL0     H32506   9.453   6.181   1.831 -5.1529  2.3763 -0.7216
  982MOL0     H32507   9.606   6.174   2.041  0.0159  0.4310  0.3234
  982MOL0     H32508   9.494   6.314   2.027  2.2317  0.5420  1.5232
  982MOL0     H32509   9.343   6.198   2.190  0.0742  0.4383 -1.6568
  982MOL0     H32510   9.469   6.071   2.206  1.7400  0.1998 -0.6637
  982MOL0     H32511   9.626   6.228   2.286  0.4126  0.2530  2.7658
  982MOL0     H32512   9.504   6.362   2.261  0.6034 -0.8562 -1.1037
  982MOL0     H32513   9.349   6.273   2.418 -1.4047 -0.4139 -0.3946
  982MOL0     H32514   9.457   6.144   2.465 -1.7865  0.6547  0.9187
  982MOL0     H32515   9.637   6.311   2.509 -0.4992 -0.5569 -0.7014
  982MOL0     H32516   9.534   6.448   2.475 -3.9478  0.7187  0.1293
  982MOL0     H32517   9.476   6.229   2.695 -1.2443 -0.4413 -1.2237
  982MOL0     H32518   9.590   6.358   2.714  1.2060 -1.1030  1.2588
  982MOL0     H32519   9.288   6.359   2.646 -0.2195 -0.7261  0.6873
  982MOL0     H32520   9.385   6.508   2.630  0.3372  0.1710 -0.9203
  982MOL0     H32521   9.380   6.624   2.885  0.5943 -0.5119 -1.7325
  982MOL0     H32522   9.339   6.468   3.240  1.6739 -2.8757 -2.1971
  982MOL0     H32523   9.406   6.632   3.181 -0.6021 -0.2354  3.4413
  982MOL0     H32524   9.119   6.541   3.157  1.5750  0.2253 -4.1858
  982MOL0     H32525   9.197   6.696   3.105 -0.7998 -2.7755 -3.0676
  982MOL0     H32526   9.270   6.750   3.338 -0.2846  0.1579  2.8790
  982MOL0     H32527   9.173   6.615   3.396  0.1826  0.8141 -0.3612
  982MOL0     H32528   9.042   6.815   3.436  1.4288  4.2058 -0.6213
  982MOL0     H32529   8.979   6.748   3.279  0.6306 -1.0360 -0.5535
  982MOL0     H32530   9.123   7.175   3.153 -0.4521  2.4777  0.4216
  982MOL0     H32531   8.919   7.457   3.117  1.6472  0.5801 -0.5745
  982MOL0     H32532   9.082   7.419   3.149  2.2545 -2.6204 -2.6393
  982MOL0     H32533   9.009   7.345   3.016  3.7884 -4.0315  1.8992
  982MOL0     H32534   8.706   7.435   3.556 -0.1533 -1.8793 -0.6826
  982MOL0     H32535   8.602   7.551   3.734 -1.9944  1.7179  1.6029
  982MOL0     H32536   8.139   7.542   3.738 -1.0032  1.7844  1.4184
  982MOL0     H32537   8.259   7.458   3.830 -5.0376 -1.3958  1.2858
  982MOL0     H32538   8.106   7.597   3.974 -1.8632  1.9716 -0.8247
  982MOL0     H32539   8.263   7.657   3.986 -2.2795  0.3205  1.7783
  982MOL0     H32540   8.030   7.769   3.798  0.1927  2.2892 -1.8276
  982MOL0     H32541   8.181   7.844   3.804  0.7764  0.8699  0.2982
  982MOL0     H32542   7.964   7.796   4.025 -1.4763  2.3546 -3.0912
  982MOL0     H32543   8.145   7.825   4.066  2.7764  1.7347 -2.1760
  982MOL0     H32544   7.998   8.022   3.897  1.7648  1.0231 -1.7798
  982MOL0     H32545   8.163   8.031   3.981 -0.2199  0.2226 -2.0170
  982MOL0     H32546   7.922   8.021   4.171 -2.4442  3.2049 -0.1600
  982MOL0     H32547   8.088   8.065   4.184 -0.5804  0.5791  2.1615
  982MOL0     H32548   7.908   8.262   4.128  2.3092  0.6316  3.0034
  982MOL0     H32549   7.964   8.229   3.967  1.3252 -1.0710  0.1234
  982MOL0     H32550   8.192   8.289   4.011 -1.8007 -1.2415 -1.2930
  982MOL0     H32551   8.179   8.242   4.179  2.0410  0.9553  0.6118
  982MOL0     H32552   8.234   7.563   3.507  0.6124  1.4357 -0.0324
  982MOL0     H32553   8.348   7.457   3.320 -1.0642 -0.1992  1.3011
  982MOL0     H32554   8.724   7.151   3.433  0.1823  0.7133  0.5840
  982MOL0     H32555   8.862   6.948   3.428  1.2015 -2.1268 -1.6184
  982MOL0     H32556   9.051   6.109   1.991  3.0891  0.8542 -0.3453
  982MOL0     H32557   8.864   6.011   1.836  0.7165 -3.2092 -0.7075
  982MOL0     H32558   8.672   5.934   1.529  1.2016 -1.1627  0.8113
  982MOL0     H32559   8.486   5.867   1.351 -0.3910 -0.3799  0.8362
  982MOL0     H32560   8.340   5.708   1.293 -2.6265 -3.0610 -0.3638
  982MOL0     H32561   8.351   5.759   1.123 -3.3866  0.8261  0.2355
  982MOL0     H32562   8.182   5.538   1.175  0.2487 -1.1483  0.8795
  982MOL0     H32563   8.335   5.470   1.214 -2.8974  0.0148  1.1324
  982MOL0     H32564   8.258   5.416   0.990  0.0782 -1.3746  1.3561
  982MOL0     H32565   8.407   5.493   0.979 -0.0765 -2.0184  2.6941
  982MOL0     H32566   8.232   5.706   0.944 -1.6906 -0.6802 -0.5925
  982MOL0     H32567   8.128   5.583   0.898 -0.9031  2.3395  3.9383
  982MOL0     H32568   8.368   5.592   0.547  0.8432 -0.7907 -0.6657
  982MOL0     H32569   8.750   5.546   1.230 -0.2700 -1.7666  1.7115
  982MOL0     H32570   8.908   5.605   1.385 -0.1968 -0.5323 -2.2667
  983MOL0     O32571   4.787   6.137   6.635  0.6487  0.2664 -0.3197
  983MOL0     C32572   4.825   6.244   6.676  0.7116 -1.2693 -0.8396
  983MOL0     O32573   4.935   6.282   6.743 -0.3207 -0.2483 -0.4766
  983MOL0     C32574   5.037   6.190   6.734 -0.1409 -0.5937  0.4730
  983MOL0     C32575   5.099   6.129   6.846  0.2674 -0.1776  0.1242
  983MOL0     C32576   5.200   6.027   6.834  0.4440  0.7477 -0.6747
  983MOL0     C32577   5.249   6.002   6.703  0.0820  0.4270  0.0352
  983MOL0     O32578   5.353   5.919   6.682  0.1821  0.5981 -0.6090
  983MOL0     C32579   5.463   5.939   6.771  0.1529 -0.6008  0.2919
  983MOL0     C32580   5.534   6.071   6.728  0.4246 -0.0994 -0.5672
  983MOL0     C32581   5.599   6.061   6.588  0.0617 -0.9254  1.2021
  983MOL0     C32582   5.653   6.198   6.527  0.4269 -0.1245 -0.0782
  983MOL0     C32583   5.654   6.197   6.376 -0.6267  0.2195 -0.6289
  983MOL0     C32584   5.505   6.209   6.323  0.3230  0.8035  0.5575
  983MOL0     C32585   5.495   6.136   6.190  0.1642 -0.8235 -0.1519
  983MOL0     C32586   5.387   6.196   6.111  0.0144 -0.6634  1.3654
  983MOL0     N32587   5.260   6.221   6.170  0.3125 -0.2388 -0.0061
  983MOL0     C32588   5.172   6.124   6.204 -0.4707  1.2481 -0.2863
  983MOL0     C32589   5.061   6.194   6.233  0.2649 -0.2800  0.3564
  983MOL0     C32590   4.930   6.128   6.272  0.9831  0.1408  0.8179
  983MOL0     C32591   4.822   6.111   6.160 -1.1819  1.1460 -0.5150
  983MOL0     C32592   4.709   6.018   6.193 -0.5811 -0.8129 -0.5466
  983MOL0     C32593   4.635   5.967   6.063  0.3065  0.2992  0.0711
  983MOL0     O32594   4.718   5.870   5.991  0.1509  0.2459  0.2226
  983MOL0     C32595   4.677   5.855   5.865  0.4916 -0.1079  0.0381
  983MOL0     C32596   4.770   5.852   5.764 -0.3089  0.7382  0.1651
  983MOL0     C32597   4.732   5.808   5.634 -0.5056 -1.0777 -0.2546
  983MOL0     C32598   4.846   5.804   5.542  0.1457  0.3663  0.4211
  983MOL0     C32599   4.590   5.785   5.598 -0.8675 -0.6645  0.0778
  983MOL0     C32600   4.539   5.773   5.463 -0.8242  0.2359  1.0064
  983MOL0     O32601   4.407   5.742   5.446 -0.7838  0.6220 -0.0420
  983MOL0     C32602   4.364   5.748   5.306  0.2682  0.6881  0.3424
  983MOL0     C32603   4.297   5.629   5.268  0.5908  0.0147 -0.5766
  983MOL0     C32604   4.237   5.623   5.141  0.3681  0.4743 -0.3430
  983MOL0     C32605   4.229   5.738   5.062 -0.3532  0.4915  0.1288
  983MOL0     O32606   4.156   5.723   4.942 -0.4214 -0.4203  0.1082
  983MOL0     C32607   4.017   5.745   4.960  0.4673 -0.9612 -0.6108
  983MOL0     C32608   3.938   5.700   4.839  0.3347  0.0521 -0.1654
  983MOL0     C32609   3.936   5.544   4.829  0.9060  0.2337  0.0209
  983MOL0     C32610   3.874   5.478   4.947  0.2547  0.4228 -1.1053
  983MOL0     C32611   3.864   5.328   4.914 -0.2425 -0.2395 -0.4148
  983MOL0     C32612   3.806   5.261   5.047  0.7028 -0.1035 -0.6380
  983MOL0     C32613   3.833   5.109   5.055  0.1281  0.3694  1.1955
  983MOL0     C32614   3.733   5.047   5.153  0.0055 -0.4774  0.3368
  983MOL0    Cl32615   3.555   5.055   5.093 -0.4864  0.0636 -0.3454
  983MOL0     C32616   4.291   5.854   5.094  0.2052  0.0017  0.1122
  983MOL0     C32617   4.358   5.860   5.219 -0.5174  0.6389 -0.4389
  983MOL0     O32618   4.618   5.779   5.364  0.2139 -0.0293 -0.7242
  983MOL0     C32619   4.497   5.793   5.711  0.1416  0.5558  0.2247
  983MOL0     C32620   4.545   5.821   5.836  0.6774  0.4668  0.3646
  983MOL0     N32621   5.083   6.328   6.203  1.1229 -0.1089  0.2540
  983MOL0     N32622   5.198   6.340   6.163 -0.3319 -0.3612 -0.7639
  983MOL0     C32623   5.182   6.046   6.591 -0.5748  0.3176  0.0283
  983MOL0     C32624   5.081   6.138   6.607 -0.4892 -0.6156 -0.8116
  983MOL0     C32625   4.732   6.345   6.640 -0.0639  0.0387 -0.6740
  983MOL0     C32626   4.723   6.465   6.722  0.3597  0.0441 -1.4425
  983MOL0     C32627   4.633   6.571   6.687  0.3529  0.5719 -0.2207
  983MOL0     C32628   4.531   6.538   6.591  0.5924  0.0030  0.1559
  983MOL0     O32629   4.415   6.612   6.568  0.9700  0.3328 -0.2279
  983MOL0     C32630   4.314   6.624   6.672  0.1550 -0.9194 -0.6215
  983MOL0     C32631   4.345   6.733   6.769 -0.6808  0.3497  0.3531
  983MOL0     C32632   4.367   6.870   6.700  1.0359 -0.4454  0.7742
  983MOL0     C32633   4.432   6.967   6.792 -0.8436  0.5129  0.0613
  983MOL0     C32634   4.363   7.022   6.912  0.8992 -1.0929  0.0786
  983MOL0     C32635   4.306   7.068   7.016  0.1829  0.4039 -0.6679
  983MOL0     C32636   4.547   6.429   6.514  0.2738  0.0228 -0.1809
  983MOL0     C32637   4.646   6.334   6.531 -0.2338  0.0626  1.2610
  983MOL0     H32638   5.067   6.159   6.945 -1.5380  1.1241 -0.7793
  983MOL0     H32639   5.227   5.964   6.918 -1.4022  1.3564  0.4311
  983MOL0     H32640   5.443   5.941   6.879 -0.5906  0.9696  0.1468
  983MOL0     H32641   5.526   5.851   6.761  0.1712 -0.3487 -2.9200
  983MOL0     H32642   5.470   6.160   6.737  2.4688  1.3425  0.5345
  983MOL0     H32643   5.611   6.090   6.802  0.9223 -2.9423 -0.2668
  983MOL0     H32644   5.687   5.997   6.595  0.3901 -0.7975 -1.1616
  983MOL0     H32645   5.548   6.013   6.505  1.0151 -0.8401  0.5605
  983MOL0     H32646   5.596   6.286   6.556 -0.7288 -1.1804  0.9807
  983MOL0     H32647   5.756   6.205   6.565  0.4176 -0.5230  0.0341
  983MOL0     H32648   5.716   6.279   6.339 -0.6928  0.5054 -0.1209
  983MOL0     H32649   5.688   6.099   6.341  0.9676  0.1834  0.8411
  983MOL0     H32650   5.424   6.163   6.381  0.8321 -2.4647 -1.0598
  983MOL0     H32651   5.478   6.314   6.305  0.4537  0.9054  0.9547
  983MOL0     H32652   5.585   6.148   6.129 -1.0146  1.4022 -1.5742
  983MOL0     H32653   5.492   6.028   6.206  1.0717 -1.6447 -4.2486
  983MOL0     H32654   5.359   6.140   6.022  2.2595  1.5218 -0.9038
  983MOL0     H32655   5.428   6.290   6.071 -5.8358  2.0090  0.6619
  983MOL0     H32656   5.183   6.017   6.216  0.9774  1.2240 -1.4338
  983MOL0     H32657   4.954   6.029   6.313 -2.3475 -0.2891  2.0689
  983MOL0     H32658   4.880   6.192   6.346  0.0623  1.5408 -0.9386
  983MOL0     H32659   4.866   6.070   6.069  0.0675 -0.3723  0.6919
  983MOL0     H32660   4.770   6.205   6.143 -0.2381  1.6050 -0.9433
  983MOL0     H32661   4.630   6.067   6.250  1.2528  0.4268  1.0773
  983MOL0     H32662   4.743   5.937   6.258 -1.3071 -2.2423 -1.8837
  983MOL0     H32663   4.623   6.054   5.998 -0.0078 -0.0149 -0.3004
  983MOL0     H32664   4.543   5.923   6.101  0.2685  0.3171 -0.0005
  983MOL0     H32665   4.876   5.870   5.779  0.0557 -0.6943 -0.5102
  983MOL0     H32666   4.826   5.716   5.479 -0.4254 -0.0674  1.1876
  983MOL0     H32667   4.862   5.888   5.474 -1.2916  0.2888 -0.0428
  983MOL0     H32668   4.935   5.772   5.598 -0.3484 -0.1908  0.9001
  983MOL0     H32669   4.301   5.553   5.346  0.5843 -0.2417 -0.8253
  983MOL0     H32670   4.194   5.531   5.101  1.0287 -0.3450  0.7849
  983MOL0     H32671   3.978   5.694   5.048 -0.3706  0.3111 -0.2072
  983MOL0     H32672   4.013   5.848   4.997  2.1636 -1.5372  1.3409
  983MOL0     H32673   3.834   5.735   4.844 -0.7154 -2.5811 -1.4950
  983MOL0     H32674   3.985   5.737   4.748  1.9818 -1.7789 -0.1230
  983MOL0     H32675   4.033   5.501   4.804 -0.5701 -3.5307  0.0080
  983MOL0     H32676   3.872   5.531   4.741  0.4623  1.7182  0.0994
  983MOL0     H32677   3.942   5.488   5.033  3.3064 -0.4232 -3.2592
  983MOL0     H32678   3.775   5.520   4.965 -0.9601 -2.3270 -0.7533
  983MOL0     H32679   3.963   5.283   4.901  0.1161  0.2331  0.5389
  983MOL0     H32680   3.792   5.327   4.832 -2.2449  0.7920  1.2276
  983MOL0     H32681   3.850   5.297   5.141 -1.3701 -3.4387  1.8578
  983MOL0     H32682   3.700   5.281   5.067  0.4535  0.7978 -2.6654
  983MOL0     H32683   3.937   5.097   5.088 -0.2951  0.5370  2.6318
  983MOL0     H32684   3.814   5.064   4.957  0.2579  2.0561  0.3529
  983MOL0     H32685   3.736   5.101   5.248  1.4059 -1.5840  0.9536
  983MOL0     H32686   3.759   4.942   5.169  3.6846  0.5162  2.2087
  983MOL0     H32687   4.283   5.941   5.029  1.4386 -0.1186 -0.2384
  983MOL0     H32688   4.422   5.937   5.261  1.5909 -2.2591  2.1783
  983MOL0     H32689   4.391   5.803   5.690  0.2599  1.1444 -0.1128
  983MOL0     H32690   4.481   5.804   5.922  0.6716 -0.4807  0.1838
  983MOL0     H32691   5.244   6.030   6.504  3.5096  4.8471  1.6566
  983MOL0     H32692   5.043   6.165   6.509 -0.2437 -2.4525 -1.4587
  983MOL0     H32693   4.793   6.469   6.805  0.7688  0.7159 -1.8086
  983MOL0     H32694   4.641   6.667   6.737 -3.4393  1.5154 -1.0668
  983MOL0     H32695   4.222   6.655   6.622  0.8929 -2.4046 -3.0944
  983MOL0     H32696   4.280   6.532   6.720 -4.6895  1.1525  0.5694
  983MOL0     H32697   4.439   6.705   6.818 -0.1661  0.3798 -0.5891
  983MOL0     H32698   4.261   6.741   6.839  0.3297  0.5217  1.5923
  983MOL0     H32699   4.272   6.915   6.671  1.2011  1.9510  3.4497
  983MOL0     H32700   4.437   6.867   6.616 -2.0802 -0.2160 -2.0070
  983MOL0     H32701   4.447   7.053   6.725 -2.8593 -0.3922 -1.6558
  983MOL0     H32702   4.533   6.936   6.821  0.0746  2.1619 -1.1561
  983MOL0     H32703   4.251   7.107   7.099  2.8617 -2.3846  2.7461
  983MOL0     H32704   4.473   6.428   6.435  1.7689 -0.7590 -1.6547
  983MOL0     H32705   4.652   6.262   6.451 -2.1333  1.6685 -0.4355
  984MOL0     O32706   0.493   1.219   6.623 -0.4136 -0.9039  0.4221
  984MOL0     C32707   0.599   1.276   6.628  0.2158 -1.5314 -0.8351
  984MOL0     O32708   0.689   1.282   6.529  0.2285  0.1728 -0.3076
  984MOL0     C32709   0.663   1.259   6.400 -0.1164  0.5758 -0.9176
  984MOL0     C32710   0.539   1.261   6.343  1.1294  0.6017  0.3739
  984MOL0     C32711   0.531   1.260   6.196 -0.8382  0.1019 -0.5482
  984MOL0     C32712   0.646   1.255   6.106  0.5564  0.1878  0.7348
  984MOL0     O32713   0.626   1.233   5.969 -0.3528 -0.4310  0.2828
  984MOL0     C32714   0.729   1.160   5.900 -0.6000 -0.6145 -0.4995
  984MOL0     C32715   0.756   1.219   5.760 -0.0289 -0.0263  0.2204
  984MOL0     C32716   0.812   1.111   5.665  0.5878  0.1882 -0.1801
  984MOL0     C32717   0.834   1.163   5.523 -0.5533  0.5917  0.6466
  984MOL0     C32718   0.914   1.064   5.439  0.0889 -0.7474 -0.7984
  984MOL0     C32719   1.057   1.117   5.408 -0.4650 -0.4227 -0.0976
  984MOL0     C32720   1.135   1.002   5.328 -0.4595  0.4097 -0.3441
  984MOL0     C32721   1.069   0.971   5.195 -0.2493  0.5756 -0.3630
  984MOL0     N32722   1.130   1.058   5.093  0.9706 -0.1341 -0.5284
  984MOL0     C32723   1.069   1.175   5.045  0.7181 -0.2504  0.7086
  984MOL0     C32724   1.113   1.190   4.919  0.2986 -0.2330  0.6006
  984MOL0     C32725   1.061   1.292   4.832  0.0458 -0.1017 -0.0317
  984MOL0     C32726   1.170   1.410   4.818 -0.5642  1.0690 -0.1585
  984MOL0     C32727   1.138   1.489   4.700 -0.2425 -0.0161 -0.1109
  984MOL0     C32728   1.237   1.598   4.669  0.1986 -0.6673  0.5143
  984MOL0     O32729   1.184   1.712   4.600  0.1553 -1.1286 -0.3476
  984MOL0     C32730   1.290   1.799   4.572  0.4753  1.5260  0.2121
  984MOL0     C32731   1.349   1.814   4.450 -0.4530 -0.0823 -1.1102
  984MOL0     C32732   1.444   1.917   4.428  0.6141  0.9214  0.4826
  984MOL0     C32733   1.506   1.911   4.289  0.7271 -0.4628  0.3181
  984MOL0     C32734   1.496   1.992   4.536  0.0509 -0.3291  0.8129
  984MOL0     C32735   1.618   2.082   4.522  1.3405  0.1625 -0.6002
  984MOL0     O32736   1.623   2.183   4.618 -0.3569  0.0606  0.0521
  984MOL0     C32737   1.722   2.283   4.625  1.0134 -0.1904  0.0246
  984MOL0     C32738   1.832   2.299   4.549 -0.1642 -0.5021 -0.3006
  984MOL0     C32739   1.913   2.410   4.567 -0.3125  0.3466 -0.4068
  984MOL0     C32740   1.875   2.517   4.650  0.0998  0.2364 -0.4084
  984MOL0     O32741   1.947   2.627   4.651 -0.2715  0.2296 -0.4158
  984MOL0     C32742   1.955   2.696   4.779 -1.1942 -0.2993  0.4549
  984MOL0     C32743   2.074   2.789   4.781  0.0887 -0.4301  0.0450
  984MOL0     C32744   2.109   2.823   4.919  0.2222 -0.0154  0.2690
  984MOL0     C32745   2.016   2.908   5.009 -0.8238  0.7762  1.1941
  984MOL0     C32746   2.085   2.940   5.145  0.4048  0.1592 -0.0869
  984MOL0     C32747   2.011   3.017   5.247 -0.1839  0.4582  0.2208
  984MOL0     C32748   2.010   3.174   5.228  0.5494 -0.3770  0.2493
  984MOL0     C32749   1.899   3.226   5.317 -0.1321 -0.8930 -0.6703
  984MOL0    Cl32750   1.936   3.187   5.493 -0.2389  0.0218  0.0366
  984MOL0     C32751   1.768   2.498   4.730  0.9728  0.7895  0.6967
  984MOL0     C32752   1.685   2.383   4.710  0.5845  0.0266  0.2053
  984MOL0     O32753   1.695   2.058   4.430 -0.4873  0.2671 -0.8777
  984MOL0     C32754   1.421   1.978   4.657 -0.4890 -0.7043  0.0349
  984MOL0     C32755   1.317   1.891   4.672 -0.1180  0.5326 -0.4693
  984MOL0     N32756   1.193   1.082   4.887  0.6521 -0.0947  0.4104
  984MOL0     N32757   1.199   1.002   4.987  0.1708 -0.6890  0.4822
  984MOL0     C32758   0.762   1.259   6.176 -0.3835  0.6614 -0.2557
  984MOL0     C32759   0.772   1.252   6.311  0.6599  0.4065 -2.2651
  984MOL0     C32760   0.640   1.318   6.761  0.2844  0.3318  0.0992
  984MOL0     C32761   0.569   1.301   6.882  1.1589  0.8989 -0.0041
  984MOL0     C32762   0.601   1.358   7.000  0.5507  0.1029 -0.3651
  984MOL0     C32763   0.729   1.416   7.018 -0.3153  1.2936  0.4592
  984MOL0     O32764   0.755   1.495   7.132 -0.7094  0.6320 -0.9296
  984MOL0     C32765   0.879   1.561   7.132  0.3767  0.3336  0.0457
  984MOL0     C32766   0.920   1.615   7.272 -0.1704 -0.8656 -0.0131
  984MOL0     C32767   1.008   1.744   7.249 -0.5237  0.0393  0.3790
  984MOL0     C32768   1.078   1.807   7.373  0.4499 -0.1887  0.1537
  984MOL0     C32769   1.160   1.927   7.336  0.3847  0.3132  0.8226
  984MOL0     C32770   1.230   2.026   7.318 -0.7011  0.3452  0.0761
  984MOL0     C32771   0.813   1.420   6.903  0.4316  0.7410  0.3044
  984MOL0     C32772   0.768   1.374   6.782  0.8979  0.3343  0.4461
  984MOL0     H32773   0.441   1.244   6.385  1.2337 -2.0995 -0.3141
  984MOL0     H32774   0.435   1.271   6.145 -0.1778 -2.7236 -2.6658
  984MOL0     H32775   0.822   1.164   5.958  0.0265 -3.7943 -1.0774
  984MOL0     H32776   0.709   1.052   5.894  1.0614 -1.1427  1.8475
  984MOL0     H32777   0.659   1.253   5.721 -0.7596  0.6516  2.4958
  984MOL0     H32778   0.828   1.300   5.769 -1.9725  1.7983  0.0836
  984MOL0     H32779   0.898   1.067   5.717 -0.4402 -2.3372 -0.4216
  984MOL0     H32780   0.736   1.032   5.658  1.2530 -0.3834 -1.0780
  984MOL0     H32781   0.743   1.190   5.469 -0.7946 -1.4451 -0.0344
  984MOL0     H32782   0.892   1.255   5.529 -0.0436  0.4875 -1.7743
  984MOL0     H32783   0.914   0.969   5.493 -1.9261  0.2155  1.0755
  984MOL0     H32784   0.866   1.055   5.342 -0.9659  0.9110 -0.4713
  984MOL0     H32785   1.048   1.204   5.343 -1.8189  0.4557  1.2162
  984MOL0     H32786   1.123   1.141   5.492  2.7523 -4.0676 -1.2590
  984MOL0     H32787   1.239   1.034   5.318 -0.2020 -0.3744 -0.2275
  984MOL0     H32788   1.140   0.907   5.382 -0.8684  1.2200  1.1901
  984MOL0     H32789   0.960   0.987   5.195 -0.1580  1.2471  0.1947
  984MOL0     H32790   1.089   0.867   5.168  2.8188  0.8831  0.3671
  984MOL0     H32791   1.002   1.247   5.089  0.7408  1.6098 -2.0878
  984MOL0     H32792   1.034   1.240   4.739 -2.0141 -0.0777  0.5047
  984MOL0     H32793   0.964   1.325   4.870 -0.3542 -1.4449  0.1423
  984MOL0     H32794   1.273   1.375   4.816 -0.9226 -0.0014 -1.4603
  984MOL0     H32795   1.150   1.476   4.903 -2.7337  2.9380 -1.9766
  984MOL0     H32796   1.050   1.539   4.742 -0.0853  0.5369 -0.4252
  984MOL0     H32797   1.107   1.435   4.610 -1.5023  0.6009 -0.0708
  984MOL0     H32798   1.322   1.552   4.617 -0.3609 -1.3335  0.1695
  984MOL0     H32799   1.283   1.633   4.762 -0.1896 -0.6538  0.7007
  984MOL0     H32800   1.331   1.738   4.375 -0.0028 -1.2954 -0.0229
  984MOL0     H32801   1.576   1.988   4.256  0.9702 -0.6995  0.2801
  984MOL0     H32802   1.565   1.820   4.276  1.5196  0.1880 -0.8675
  984MOL0     H32803   1.432   1.922   4.210  0.3341  0.1565  0.7608
  984MOL0     H32804   1.873   2.233   4.473  1.2331 -0.0277  0.0034
  984MOL0     H32805   2.004   2.425   4.510 -0.8234  1.7202 -0.9112
  984MOL0     H32806   1.857   2.742   4.795 -0.1953  1.4146  1.9235
  984MOL0     H32807   1.969   2.620   4.856 -1.3415 -1.7000 -0.8422
  984MOL0     H32808   2.158   2.728   4.747  1.6082  1.2275  0.6501
  984MOL0     H32809   2.061   2.881   4.724 -0.6048  0.1720  1.1217
  984MOL0     H32810   2.196   2.888   4.911 -1.0422  1.4849 -2.3765
  984MOL0     H32811   2.145   2.732   4.970 -0.0754 -0.0092  0.4902
  984MOL0     H32812   1.990   2.998   4.953  0.3976  0.0621 -0.6121
  984MOL0     H32813   1.921   2.854   5.020 -0.0175 -0.9586  0.1561
  984MOL0     H32814   2.181   2.986   5.118 -0.3821  2.1139  0.2126
  984MOL0     H32815   2.100   2.847   5.200  4.5837  0.6692 -0.0462
  984MOL0     H32816   1.916   2.963   5.240  0.9752 -1.5733 -0.9364
  984MOL0     H32817   2.053   2.991   5.345  1.1815 -2.3075 -0.9785
  984MOL0     H32818   1.976   3.174   5.124 -1.1596 -3.3275  0.6783
  984MOL0     H32819   2.104   3.224   5.252 -0.4350  0.0081  3.9370
  984MOL0     H32820   1.800   3.184   5.297 -1.4618  1.0235  1.4746
  984MOL0     H32821   1.904   3.335   5.309  0.0390 -0.3597  3.8714
  984MOL0     H32822   1.725   2.565   4.804 -3.1404  0.0373 -0.7370
  984MOL0     H32823   1.592   2.364   4.763  0.6326 -2.3013 -0.4532
  984MOL0     H32824   1.443   2.043   4.741 -0.2809 -1.6307  0.7158
  984MOL0     H32825   1.270   1.888   4.769  0.7561 -1.8909 -0.0639
  984MOL0     H32826   0.862   1.274   6.138  0.1924  1.3917  1.4233
  984MOL0     H32827   0.867   1.250   6.362  0.6694 -0.7758 -2.3059
  984MOL0     H32828   0.472   1.253   6.885  1.3480  0.4869 -0.4007
  984MOL0     H32829   0.528   1.361   7.080  1.3878  0.4360  0.4000
  984MOL0     H32830   0.970   1.502   7.122  0.3593  0.4935 -1.1315
  984MOL0     H32831   0.872   1.647   7.065 -0.7494  2.1206  2.2824
  984MOL0     H32832   0.979   1.538   7.324  0.3194  0.0648  0.8707
  984MOL0     H32833   0.838   1.644   7.339  2.0545 -0.6794  2.8598
  984MOL0     H32834   0.935   1.815   7.210  1.1548  1.0970 -0.9401
  984MOL0     H32835   1.085   1.708   7.180 -0.8017 -1.6958  0.9095
  984MOL0     H32836   1.141   1.732   7.422 -0.8451 -0.7201  1.0407
  984MOL0     H32837   1.003   1.821   7.451 -0.9445  1.9473 -1.4300
  984MOL0     H32838   1.292   2.113   7.311  2.3204 -1.7523 -1.2104
  984MOL0     H32839   0.915   1.451   6.920 -0.1528  1.6355  2.6317
  984MOL0     H32840   0.838   1.392   6.701  3.6546  1.1647  2.8369
  985MOL0     O32841   4.154   4.045   6.347  0.9719  0.6097  0.4173
  985MOL0     C32842   4.070   3.982   6.282  0.5984 -0.1199 -0.6469
  985MOL0     O32843   3.940   3.995   6.304  0.4318  0.0597 -0.2509
  985MOL0     C32844   3.890   4.052   6.421  0.5452 -0.4195  0.5020
  985MOL0     C32845   3.943   4.028   6.551  0.2711  0.7921 -0.1072
  985MOL0     C32846   3.888   4.111   6.654 -0.4667 -0.4204 -0.0509
  985MOL0     C32847   3.782   4.198   6.642  0.1781  0.3217 -0.3569
  985MOL0     O32848   3.717   4.248   6.756 -0.1323 -0.2547 -0.0156
  985MOL0     C32849   3.744   4.387   6.761  0.5102  0.2516  0.2981
  985MOL0     C32850   3.649   4.454   6.861  0.1780  0.0592 -0.8666
  985MOL0     C32851   3.527   4.354   6.899  0.1989 -0.3139 -0.0042
  985MOL0     C32852   3.436   4.430   6.993 -0.0383  0.8393 -0.1339
  985MOL0     C32853   3.311   4.342   7.013  0.4716 -0.1352 -0.9642
  985MOL0     C32854   3.187   4.412   7.076  0.2916  0.3789  0.1639
  985MOL0     C32855   3.133   4.525   6.991  0.3420 -0.3859 -0.7807
  985MOL0     C32856   3.019   4.606   7.056  0.7675 -0.7017  0.5680
  985MOL0     N32857   2.890   4.533   7.033  0.2445  0.9532  0.9279
  985MOL0     C32858   2.808   4.557   6.923  0.1109 -0.1976 -0.2887
  985MOL0     C32859   2.703   4.477   6.944  0.0308  0.1562  0.1018
  985MOL0     C32860   2.591   4.456   6.857  0.4801  0.0828 -0.0568
  985MOL0     C32861   2.505   4.578   6.823 -0.2271 -0.3397 -0.5810
  985MOL0     C32862   2.368   4.542   6.764 -0.7162 -0.4200  0.4742
  985MOL0     C32863   2.370   4.523   6.620 -0.1017  0.6661 -0.3371
  985MOL0     O32864   2.416   4.391   6.577  0.2288  0.1343 -0.4352
  985MOL0     C32865   2.450   4.377   6.441 -0.8090  0.3340 -0.3182
  985MOL0     C32866   2.512   4.257   6.415  0.6168  0.5950 -0.9299
  985MOL0     C32867   2.556   4.213   6.289 -0.0467  0.3645 -0.6912
  985MOL0     C32868   2.605   4.066   6.280  0.4985  0.3571  0.0345
  985MOL0     C32869   2.545   4.302   6.180  0.5429 -0.9025  0.3822
  985MOL0     C32870   2.595   4.283   6.044 -0.5552 -0.0434 -0.5472
  985MOL0     O32871   2.651   4.379   5.973 -0.1285 -0.3446 -0.1224
  985MOL0     C32872   2.746   4.467   6.013 -0.5549 -0.0709  0.2409
  985MOL0     C32873   2.830   4.448   6.124 -0.2892  0.7665  0.1122
  985MOL0     C32874   2.942   4.530   6.127  0.3556  0.2478  0.6152
  985MOL0     C32875   2.981   4.610   6.026 -0.6656  0.0257 -0.0836
  985MOL0     O32876   3.108   4.664   6.035  0.2515  0.3391 -0.5415
  985MOL0     C32877   3.124   4.805   6.028 -0.3189 -0.4130  0.3025
  985MOL0     C32878   3.068   4.886   6.152  0.4026 -0.0038 -0.0218
  985MOL0     C32879   3.094   5.035   6.125  0.9523  0.0999  0.0852
  985MOL0     C32880   3.007   5.115   6.222  0.3267 -0.0940 -0.5798
  985MOL0     C32881   3.079   5.245   6.242 -0.2564 -0.3598  0.1742
  985MOL0     C32882   2.973   5.350   6.277  0.8222  0.2412  0.0325
  985MOL0     C32883   3.039   5.478   6.306 -0.3532 -0.1156 -0.1920
  985MOL0     C32884   2.936   5.583   6.315  0.3880 -0.2894 -0.5970
  985MOL0    Cl32885   2.911   5.673   6.152 -0.3311  0.0076  0.0817
  985MOL0     C32886   2.893   4.636   5.919  0.3494  0.1020 -0.4963
  985MOL0     C32887   2.772   4.567   5.912  0.1556 -0.0767 -0.0106
  985MOL0     O32888   2.559   4.174   5.992 -0.8153 -0.9499  0.1106
  985MOL0     C32889   2.477   4.426   6.209 -0.2091  1.0155 -0.9753
  985MOL0     C32890   2.428   4.461   6.333  0.6253 -0.1398 -0.3317
  985MOL0     N32891   2.735   4.394   7.056 -0.8991 -0.2715  0.1009
  985MOL0     N32892   2.841   4.438   7.112  0.1251  0.6736 -0.1123
  985MOL0     C32893   3.721   4.202   6.517  0.4561 -1.3770 -0.3891
  985MOL0     C32894   3.777   4.132   6.409  0.0422  0.4074  0.3464
  985MOL0     C32895   4.109   3.894   6.172 -0.2333 -0.3831 -0.0130
  985MOL0     C32896   4.235   3.836   6.178 -0.0766 -0.0213 -0.3991
  985MOL0     C32897   4.274   3.752   6.070 -0.0408  0.2238 -0.6715
  985MOL0     C32898   4.203   3.735   5.951 -0.4262 -0.5255 -0.3278
  985MOL0     O32899   4.257   3.658   5.849  0.5503 -0.0638 -0.5133
  985MOL0     C32900   4.204   3.674   5.715 -0.2703 -1.3021 -0.2352
  985MOL0     C32901   4.292   3.614   5.606 -0.2609 -0.1179  0.8319
  985MOL0     C32902   4.269   3.464   5.598  0.0555  0.3291 -0.6373
  985MOL0     C32903   4.363   3.403   5.485  0.7175 -0.2809 -0.4022
  985MOL0     C32904   4.296   3.280   5.441 -0.1367  1.1608  0.5135
  985MOL0     C32905   4.261   3.166   5.413  0.5657  0.0170 -0.4308
  985MOL0     C32906   4.076   3.788   5.948  0.1915 -0.0552 -0.0985
  985MOL0     C32907   4.027   3.858   6.060 -0.5767 -0.4032  0.2945
  985MOL0     H32908   4.028   3.961   6.558 -0.6665 -0.2754  2.0019
  985MOL0     H32909   3.933   4.113   6.753 -0.1852  3.4051 -0.0914
  985MOL0     H32910   3.847   4.411   6.789  0.4557  1.9143 -0.7682
  985MOL0     H32911   3.736   4.433   6.662  4.5680  2.2505  0.6740
  985MOL0     H32912   3.697   4.492   6.951  0.9992  0.7550 -1.5847
  985MOL0     H32913   3.598   4.536   6.810  0.6127  0.3374 -0.8526
  985MOL0     H32914   3.473   4.334   6.806 -1.2537  0.5012  0.6395
  985MOL0     H32915   3.571   4.264   6.944  2.0990  0.8022  0.5059
  985MOL0     H32916   3.494   4.433   7.086 -0.6347  1.3999  0.2286
  985MOL0     H32917   3.395   4.529   6.972 -0.5898  0.6957  0.2562
  985MOL0     H32918   3.268   4.304   6.920 -0.1930 -4.0166  0.7360
  985MOL0     H32919   3.340   4.258   7.076 -1.7614 -0.3930 -0.1902
  985MOL0     H32920   3.110   4.336   7.090  0.8028 -0.1092  0.3916
  985MOL0     H32921   3.227   4.441   7.174 -0.3912 -0.2683  0.6377
  985MOL0     H32922   3.204   4.607   6.977  0.3068  0.0729  1.4398
  985MOL0     H32923   3.110   4.488   6.890 -1.0737 -0.7516 -0.3443
  985MOL0     H32924   3.005   4.708   7.019 -0.7225  0.4640  3.9210
  985MOL0     H32925   3.050   4.619   7.160 -1.1307  2.0765  0.8937
  985MOL0     H32926   2.828   4.630   6.846  0.2073  0.8639  0.7058
  985MOL0     H32927   2.630   4.415   6.763  0.8236 -1.3117  0.6617
  985MOL0     H32928   2.531   4.370   6.891  1.9988 -0.9358  0.1368
  985MOL0     H32929   2.554   4.653   6.760 -0.0973 -0.6280 -0.8249
  985MOL0     H32930   2.472   4.636   6.910 -1.4865 -2.0658  0.1466
  985MOL0     H32931   2.290   4.617   6.782 -0.0667  0.5795 -0.6767
  985MOL0     H32932   2.337   4.449   6.813 -1.0415  0.6009  2.3304
  985MOL0     H32933   2.417   4.610   6.574 -0.5920  1.7527  1.1712
  985MOL0     H32934   2.262   4.529   6.603 -0.1985 -1.3643 -0.7428
  985MOL0     H32935   2.522   4.192   6.502 -1.0653 -0.8737 -1.7665
  985MOL0     H32936   2.653   4.047   6.184  1.4063  3.3509 -0.1934
  985MOL0     H32937   2.680   4.045   6.357  0.7396 -2.3317 -0.8535
  985MOL0     H32938   2.525   3.992   6.290  1.6822 -0.8311  1.1351
  985MOL0     H32939   2.812   4.373   6.201 -0.5160 -0.4360 -1.0782
  985MOL0     H32940   3.010   4.531   6.212 -0.0090  2.9115  0.9479
  985MOL0     H32941   3.233   4.817   6.019  0.0920 -3.3846  0.4352
  985MOL0     H32942   3.080   4.851   5.939  1.0215  0.5485  0.1014
  985MOL0     H32943   2.960   4.869   6.155  0.0115  1.7819 -1.6887
  985MOL0     H32944   3.119   4.856   6.244  0.8778  1.0963  0.0838
  985MOL0     H32945   3.078   5.067   6.022 -2.5804 -2.0117 -0.1976
  985MOL0     H32946   3.198   5.055   6.153  1.4311 -0.2898 -1.3333
  985MOL0     H32947   2.905   5.138   6.191  0.2365 -0.0493 -0.2483
  985MOL0     H32948   2.990   5.063   6.317  2.3198  1.2297  0.5775
  985MOL0     H32949   3.131   5.271   6.149 -2.5375  1.5003 -0.6816
  985MOL0     H32950   3.146   5.231   6.327  1.4950 -3.0697 -1.4920
  985MOL0     H32951   2.903   5.356   6.193 -0.6633  1.8303  1.3254
  985MOL0     H32952   2.929   5.312   6.369 -1.1456  1.0160 -0.5350
  985MOL0     H32953   3.123   5.508   6.244 -1.7719 -0.2660 -2.2912
  985MOL0     H32954   3.084   5.463   6.405 -0.6106  0.0056 -0.0540
  985MOL0     H32955   2.974   5.667   6.374  1.1891 -0.9160 -0.1969
  985MOL0     H32956   2.845   5.536   6.354 -0.7011  0.1594 -2.5015
  985MOL0     H32957   2.929   4.710   5.848 -0.8819  1.1845 -0.0296
  985MOL0     H32958   2.705   4.568   5.826  0.8735 -2.8761 -0.6996
  985MOL0     H32959   2.472   4.497   6.128  1.8009  1.8323 -0.4304
  985MOL0     H32960   2.393   4.561   6.356 -2.2600 -1.3429  1.0459
  985MOL0     H32961   3.638   4.269   6.497  0.7393 -1.6755 -2.9809
  985MOL0     H32962   3.739   4.131   6.307  0.5482 -2.4613  0.0899
  985MOL0     H32963   4.296   3.852   6.266 -1.0503 -0.4022  0.3521
  985MOL0     H32964   4.379   3.723   6.065  0.0708  0.1443  1.2408
  985MOL0     H32965   4.108   3.627   5.695 -0.7682 -0.3882 -0.0429
  985MOL0     H32966   4.205   3.782   5.698  1.9385 -1.7905 -4.5032
  985MOL0     H32967   4.394   3.634   5.639 -0.5240  2.9155  0.0825
  985MOL0     H32968   4.274   3.657   5.507  0.1399 -1.0168  0.3613
  985MOL0     H32969   4.165   3.442   5.574 -0.1324 -1.6324  1.6198
  985MOL0     H32970   4.292   3.421   5.696 -2.8132  3.8748  1.8764
  985MOL0     H32971   4.463   3.395   5.528 -0.0733 -0.1523  1.5886
  985MOL0     H32972   4.370   3.477   5.405  1.3242  0.0302 -0.0637
  985MOL0     H32973   4.232   3.068   5.381 -3.4191  1.2993 -1.3677
  985MOL0     H32974   4.013   3.769   5.862 -1.5913 -0.2664  1.1924
  985MOL0     H32975   3.923   3.887   6.048 -0.0249  0.6756 -2.9947
  986MOL0     O32976   0.101   6.150   7.040  0.2600  0.6606 -0.3104
  986MOL0     C32977   0.211   6.161   6.991 -0.0802  0.7019 -0.7334
  986MOL0     O32978   0.326   6.186   7.056  0.2704 -0.7012 -0.4656
  986MOL0     C32979   0.336   6.213   7.188  0.3012 -1.0204  0.1165
  986MOL0     C32980   0.460   6.262   7.222 -0.5375 -0.0148  0.9445
  986MOL0     C32981   0.496   6.297   7.352  0.3336  0.8508 -0.6599
  986MOL0     C32982   0.407   6.258   7.460 -1.0067 -0.4864  1.6918
  986MOL0     O32983   0.449   6.301   7.576 -0.4556  0.0503 -0.5886
  986MOL0     C32984   0.361   6.282   7.684  1.0751 -0.6095  0.0973
  986MOL0     C32985   0.416   6.350   7.805 -0.3128  0.9205 -0.5166
  986MOL0     C32986   0.424   6.501   7.783 -0.0336 -0.9547 -1.0678
  986MOL0     C32987   0.501   6.572   7.898 -0.5682 -0.6463 -0.1184
  986MOL0     C32988   0.421   6.604   8.027 -0.3362 -0.9374 -0.3945
  986MOL0     C32989   0.486   6.717   8.107 -0.6850  0.3199 -0.1504
  986MOL0     C32990   0.408   6.764   8.230  0.5154  0.1285 -0.0464
  986MOL0     C32991   0.345   6.634   8.302  0.0661  0.3062  0.2539
  986MOL0     N32992   0.266   6.661   8.424 -0.1665 -0.3684  0.5315
  986MOL0     C32993   0.315   6.672   8.551  0.4570  0.4426 -0.5780
  986MOL0     C32994   0.208   6.690   8.631  0.5574 -0.0520  0.0003
  986MOL0     C32995   0.207   6.688   8.773  1.9583  1.1261  0.0388
  986MOL0     C32996   0.137   6.557   8.828 -0.8765 -0.1795 -0.3162
  986MOL0     C32997   0.203   6.504   8.962  0.0609 -0.6939 -0.3217
  986MOL0     C32998   0.169   6.603   9.083  0.7600  0.1187  0.1978
  986MOL0     O32999   0.253   6.720   9.070  0.1049 -0.6011  0.4541
  986MOL0     C33000   0.257   6.781   9.195 -0.0191 -0.3545  0.3139
  986MOL0     C33001   0.154   6.867   9.236  1.4043 -0.5400  0.1895
  986MOL0     C33002   0.127   6.889   9.372  0.3142 -0.0574  0.6904
  986MOL0     C33003  -0.007   6.945   9.401  0.0136  0.0710  0.0206
  986MOL0     C33004   0.235   6.863   9.468  0.0402 -0.1840  0.0989
  986MOL0     C33005   0.235   6.885   9.615  0.8028 -0.0384 -0.1930
  986MOL0     O33006   0.324   6.799   9.688 -0.7787 -0.7682  0.3949
  986MOL0     C33007   0.306   6.802   9.821  0.2103 -0.1787  0.0473
  986MOL0     C33008   0.300   6.909   9.910 -0.0923 -0.3612  0.2725
  986MOL0     C33009   0.279   6.902  10.046  1.0272  0.7153 -0.4191
  986MOL0     C33010   0.267   6.776  10.104 -0.4962 -0.1110 -0.9454
  986MOL0     O33011   0.238   6.779  10.238 -0.1773 -0.1187  0.1621
  986MOL0     C33012   0.164   6.673  10.282  0.3616 -0.1670  0.8086
  986MOL0     C33013   0.138   6.699  10.430 -0.0691 -1.0860 -0.9673
  986MOL0     C33014   0.051   6.608  10.517  0.4141  0.2695  0.0808
  986MOL0     C33015  -0.081   6.571  10.447  0.7156 -0.1835  1.1964
  986MOL0     C33016  -0.175   6.525  10.560 -0.7232  0.4307 -0.6419
  986MOL0     C33017  -0.285   6.639  10.587  0.6436  0.2051  0.5117
  986MOL0     C33018  -0.360   6.607  10.721  1.4132  0.1778  0.3686
  986MOL0     C33019  -0.462   6.709  10.756 -0.2004 -0.0547  0.5535
  986MOL0    Cl33020  -0.566   6.742  10.611  0.4855 -0.1207  0.2800
  986MOL0     C33021   0.259   6.666  10.017  0.1736  0.2183 -0.9819
  986MOL0     C33022   0.279   6.678   9.884  0.6023 -1.0679  0.3403
  986MOL0     O33023   0.151   6.965   9.659 -0.0657  0.4891 -0.3126
  986MOL0     C33024   0.348   6.798   9.422 -0.0598  0.9684  0.9255
  986MOL0     C33025   0.360   6.757   9.285 -0.5052  0.6146 -0.0748
  986MOL0     N33026   0.095   6.697   8.549 -0.8738  0.0040 -0.2058
  986MOL0     N33027   0.134   6.684   8.429 -0.0186 -0.0467  0.3667
  986MOL0     C33028   0.285   6.186   7.426  0.5315 -0.3372  0.8633
  986MOL0     C33029   0.255   6.168   7.293  0.1074  0.0100 -0.7619
  986MOL0     C33030   0.221   6.137   6.838  0.4715 -0.2848 -0.0730
  986MOL0     C33031   0.349   6.135   6.780 -0.3541  0.3009  0.2704
  986MOL0     C33032   0.367   6.118   6.643  0.1138 -0.1265 -0.0281
  986MOL0     C33033   0.251   6.082   6.566  0.4914 -0.2597 -0.7154
  986MOL0     O33034   0.253   6.051   6.434  0.4177 -0.3047 -0.1105
  986MOL0     C33035   0.375   6.017   6.364 -0.2948  0.6810  0.5146
  986MOL0     C33036   0.447   6.144   6.302 -0.6900 -0.3204 -0.4810
  986MOL0     C33037   0.481   6.127   6.154 -0.5559 -0.4974  0.4850
  986MOL0     C33038   0.578   6.010   6.130 -0.1002 -0.3635 -0.1108
  986MOL0     C33039   0.709   6.055   6.169  0.1417 -0.1602 -0.0516
  986MOL0     C33040   0.815   6.077   6.214 -0.5619 -0.1938  0.8665
  986MOL0     C33041   0.128   6.090   6.625 -0.2313  0.3113 -0.1953
  986MOL0     C33042   0.114   6.108   6.760  0.0917  0.0464  0.5050
  986MOL0     H33043   0.522   6.285   7.136 -2.2909  1.9498  0.0965
  986MOL0     H33044   0.589   6.350   7.369  0.8989  0.5193 -2.5193
  986MOL0     H33045   0.267   6.335   7.668  1.8191  0.0646 -2.5536
  986MOL0     H33046   0.335   6.178   7.708  0.2524 -0.0511  1.6941
  986MOL0     H33047   0.375   6.332   7.905  1.5925  1.5529  0.4250
  986MOL0     H33048   0.517   6.309   7.813 -0.6626 -0.3771 -2.2595
  986MOL0     H33049   0.483   6.515   7.691 -2.2617  0.9674 -2.3056
  986MOL0     H33050   0.326   6.548   7.777  0.1972  1.2924  5.3164
  986MOL0     H33051   0.590   6.516   7.927 -0.2111 -0.0371 -0.0297
  986MOL0     H33052   0.541   6.662   7.852 -1.2683 -1.4519 -2.4292
  986MOL0     H33053   0.328   6.647   7.987  0.8999 -2.4270 -5.5280
  986MOL0     H33054   0.386   6.512   8.075  0.8190 -1.2929 -0.2054
  986MOL0     H33055   0.587   6.688   8.138  0.4046  3.2741 -0.6581
  986MOL0     H33056   0.493   6.802   8.039 -0.4183  0.2339 -0.2318
  986MOL0     H33057   0.473   6.810   8.305 -0.8699 -0.5817  1.6743
  986MOL0     H33058   0.321   6.827   8.211  1.3937  0.9479 -1.6004
  986MOL0     H33059   0.425   6.568   8.337 -0.6565  0.1012  1.5686
  986MOL0     H33060   0.277   6.582   8.235  0.1209 -0.4408  0.7651
  986MOL0     H33061   0.419   6.664   8.582  0.2030  3.5414  1.5666
  986MOL0     H33062   0.314   6.691   8.798  2.4790  0.5737 -1.9134
  986MOL0     H33063   0.148   6.772   8.809 -2.5686 -1.9836  0.6895
  986MOL0     H33064   0.146   6.481   8.750 -3.2236 -0.1991 -0.6419
  986MOL0     H33065   0.032   6.574   8.853 -1.0244 -1.4211 -0.0266
  986MOL0     H33066   0.312   6.491   8.960  0.2342  0.5314  0.3236
  986MOL0     H33067   0.162   6.403   8.975 -1.4597 -0.9863 -5.1183
  986MOL0     H33068   0.179   6.553   9.180 -1.6848 -3.4590 -1.1951
  986MOL0     H33069   0.063   6.621   9.063  1.2746  1.4297 -1.6535
  986MOL0     H33070   0.081   6.889   9.158  2.5189 -0.7358 -0.9438
  986MOL0     H33071  -0.072   6.884   9.464 -0.6405  0.5535 -0.1701
  986MOL0     H33072  -0.007   7.043   9.451  0.6376 -0.3540  0.8862
  986MOL0     H33073  -0.068   6.959   9.311 -0.1995 -1.7855 -0.1525
  986MOL0     H33074   0.299   7.007   9.863  0.7792  0.5873  2.0960
  986MOL0     H33075   0.270   6.984  10.116  1.7266 -0.4850  1.1232
  986MOL0     H33076   0.074   6.673  10.220  1.1396  2.8625 -0.5218
  986MOL0     H33077   0.208   6.573  10.292  1.0592  0.2905  2.7675
  986MOL0     H33078   0.231   6.705  10.488 -0.3963 -0.3096 -0.5062
  986MOL0     H33079   0.104   6.802  10.447  3.3464 -0.0092  0.2727
  986MOL0     H33080   0.031   6.661  10.611  2.4288  1.8511 -0.3127
  986MOL0     H33081   0.110   6.518  10.535  4.1307  2.7913  1.7801
  986MOL0     H33082  -0.116   6.660  10.393  0.9288 -0.7455  0.1162
  986MOL0     H33083  -0.074   6.496  10.368  1.5045 -0.9071  1.9434
  986MOL0     H33084  -0.110   6.490  10.640 -2.5546 -3.6523 -0.7073
  986MOL0     H33085  -0.232   6.435  10.536 -2.9496  1.5186  0.2510
  986MOL0     H33086  -0.240   6.739  10.584 -0.2832  0.6145 -0.4574
  986MOL0     H33087  -0.356   6.639  10.504  1.5803 -0.5978 -0.3089
  986MOL0     H33088  -0.286   6.592  10.800 -0.9824 -1.2772  2.4738
  986MOL0     H33089  -0.419   6.515  10.715  0.5718  0.7113  0.2818
  986MOL0     H33090  -0.408   6.798  10.790 -1.6131  1.3248 -0.6055
  986MOL0     H33091  -0.525   6.668  10.835  1.1278 -1.6312  0.8320
  986MOL0     H33092   0.245   6.567  10.058 -3.2912  1.7119  1.9905
  986MOL0     H33093   0.278   6.579   9.840  3.4868 -1.4902  1.0415
  986MOL0     H33094   0.436   6.771   9.480  0.7997 -0.1964 -0.8011
  986MOL0     H33095   0.440   6.689   9.257 -1.3022  0.7891 -3.1168
  986MOL0     H33096   0.213   6.142   7.495  0.3666 -4.3040 -1.5503
  986MOL0     H33097   0.160   6.119   7.270 -0.0922  1.1548 -2.5602
  986MOL0     H33098   0.438   6.173   6.828  0.1890  0.5437 -0.8857
  986MOL0     H33099   0.469   6.128   6.609  0.2036  0.8270  0.4854
  986MOL0     H33100   0.441   5.972   6.439 -0.0301 -1.9302 -1.1761
  986MOL0     H33101   0.373   5.934   6.293 -1.1701  1.5242 -0.4899
  986MOL0     H33102   0.543   6.151   6.355 -1.6160 -1.0382  1.3871
  986MOL0     H33103   0.393   6.236   6.325  1.3485  0.6048  0.9401
  986MOL0     H33104   0.533   6.218   6.122  0.9855 -1.1720  0.9470
  986MOL0     H33105   0.396   6.114   6.087  1.1830 -1.6147 -1.6443
  986MOL0     H33106   0.564   5.980   6.026 -2.6826  1.2772 -0.3392
  986MOL0     H33107   0.548   5.926   6.194  1.7159  0.6742  2.2760
  986MOL0     H33108   0.909   6.112   6.253 -0.0213  0.0318 -0.5803
  986MOL0     H33109   0.035   6.075   6.571 -1.7532 -0.4243  2.4454
  986MOL0     H33110   0.013   6.096   6.799 -0.5024 -1.1840 -1.2708
  987MOL0     O33111   0.900   7.419   4.883  0.5338  0.2363 -0.2938
  987MOL0     C33112   0.961   7.407   4.781  0.0542 -1.2696  1.5827
  987MOL0     O33113   1.034   7.292   4.743  0.3002 -0.0262 -0.0759
  987MOL0     C33114   1.022   7.171   4.803 -0.7492 -0.9078 -0.8926
  987MOL0     C33115   1.142   7.099   4.801  0.7315  0.1910  1.1983
  987MOL0     C33116   1.146   6.967   4.854 -0.2781  1.0081  0.1069
  987MOL0     C33117   1.034   6.913   4.914 -0.3366  0.2815 -0.3044
  987MOL0     O33118   1.051   6.791   4.974  0.4058  0.1550 -0.8302
  987MOL0     C33119   1.022   6.695   4.872 -0.2869 -0.0697  0.0432
  987MOL0     C33120   1.061   6.557   4.920 -0.8076 -0.2518  0.9351
  987MOL0     C33121   1.060   6.454   4.800  0.5790 -1.0258  0.1479
  987MOL0     C33122   1.109   6.318   4.856  0.4541 -0.2610 -0.1147
  987MOL0     C33123   1.008   6.259   4.963 -0.4658 -0.4448 -0.4088
  987MOL0     C33124   0.862   6.275   4.918  0.5649  1.0034 -0.4028
  987MOL0     C33125   0.772   6.198   5.024  0.5792  0.7961 -0.2727
  987MOL0     C33126   0.626   6.232   4.999 -0.2690 -0.0385 -0.7295
  987MOL0     N33127   0.575   6.356   5.054 -0.2300 -0.2739  0.1841
  987MOL0     C33128   0.518   6.460   4.985  0.0260 -0.9971 -0.8652
  987MOL0     C33129   0.460   6.534   5.083 -0.0824 -0.3025  0.9657
  987MOL0     C33130   0.369   6.661   5.067 -0.3379  1.0570  0.2467
  987MOL0     C33131   0.389   6.749   4.940  0.3102  0.3451  1.1017
  987MOL0     C33132   0.538   6.799   4.923  0.9027 -0.2349  0.7904
  987MOL0     C33133   0.559   6.877   4.792  0.2861  1.2485 -1.0324
  987MOL0     O33134   0.498   7.008   4.811  0.3280 -1.1283  1.3023
  987MOL0     C33135   0.528   7.128   4.744 -0.7353  0.6370  0.7925
  987MOL0     C33136   0.616   7.135   4.636 -0.8512  0.1632 -0.4856
  987MOL0     C33137   0.627   7.249   4.556  0.4711  0.1298  0.6293
  987MOL0     C33138   0.689   7.227   4.418 -0.0706 -0.6740  0.0037
  987MOL0     C33139   0.555   7.371   4.590 -0.2635  0.4345 -0.0412
  987MOL0     C33140   0.552   7.498   4.503  0.2167 -0.7883 -0.1590
  987MOL0     O33141   0.455   7.589   4.529 -0.2674 -0.0771  0.2639
  987MOL0     C33142   0.454   7.714   4.476 -0.0266 -0.4908 -0.4653
  987MOL0     C33143   0.329   7.766   4.450  0.0387 -0.2240  0.3628
  987MOL0     C33144   0.313   7.895   4.397 -0.3398  1.0150 -0.3217
  987MOL0     C33145   0.428   7.968   4.386  0.2163 -0.2324  1.0877
  987MOL0     O33146   0.403   8.091   4.329  0.2581  0.3599 -0.6914
  987MOL0     C33147   0.499   8.206   4.351 -0.3141 -0.1583 -0.0747
  987MOL0     C33148   0.438   8.331   4.278 -0.3346 -0.6233  0.0241
  987MOL0     C33149   0.447   8.327   4.127 -0.8241 -0.3676  0.2054
  987MOL0     C33150   0.592   8.322   4.079  0.0566 -0.2094  0.9924
  987MOL0     C33151   0.612   8.349   3.927 -0.2769  0.3779 -0.5405
  987MOL0     C33152   0.613   8.225   3.847  0.3205 -0.7332  0.2977
  987MOL0     C33153   0.671   8.234   3.710  0.2759  0.5579  0.0255
  987MOL0     C33154   0.590   8.313   3.611  1.3533  0.4649  1.1112
  987MOL0    Cl33155   0.567   8.489   3.626  0.5165  0.2360  0.1040
  987MOL0     C33156   0.563   7.922   4.417  0.4661 -1.0375  0.0159
  987MOL0     C33157   0.570   7.795   4.456  1.0124  0.1400 -0.0510
  987MOL0     O33158   0.645   7.518   4.429  0.5438 -0.3431 -0.1074
  987MOL0     C33159   0.480   7.368   4.704 -0.1788  0.6406 -0.6621
  987MOL0     C33160   0.468   7.246   4.780 -0.6944 -0.4786  0.3374
  987MOL0     N33161   0.477   6.472   5.201 -0.3334 -0.3218  0.7894
  987MOL0     N33162   0.558   6.370   5.186  0.1929 -0.5116 -0.2968
  987MOL0     C33163   0.912   6.974   4.901 -0.1273 -0.1682  0.8643
  987MOL0     C33164   0.900   7.109   4.849  0.2538 -0.2471 -0.0218
  987MOL0     C33165   0.954   7.532   4.698  0.0506 -0.6103 -0.0476
  987MOL0     C33166   1.022   7.543   4.581 -0.5320  0.0332  0.8697
  987MOL0     C33167   1.016   7.665   4.505  0.1607  0.3313 -0.9751
  987MOL0     C33168   0.959   7.777   4.555 -0.3429 -0.1080 -0.0040
  987MOL0     O33169   0.959   7.895   4.486 -1.0846  0.0135  0.2910
  987MOL0     C33170   1.069   7.915   4.386  1.3173 -0.5926  0.1436
  987MOL0     C33171   1.066   8.060   4.341 -0.4800 -0.0183 -0.5594
  987MOL0     C33172   1.115   8.167   4.440 -0.6565 -0.1716 -0.5264
  987MOL0     C33173   1.259   8.160   4.502 -0.1715  0.6783 -0.1822
  987MOL0     C33174   1.275   8.057   4.613 -0.2130 -0.8133  0.7717
  987MOL0     C33175   1.279   7.977   4.704  0.0538  0.3574  0.5011
  987MOL0     C33176   0.891   7.773   4.672  1.1864 -0.5631  0.1923
  987MOL0     C33177   0.880   7.646   4.741  0.2439  0.0418 -0.0472
  987MOL0     H33178   1.222   7.154   4.753 -0.4807  1.2441  0.3025
  987MOL0     H33179   1.234   6.903   4.853 -1.6509 -1.2756  3.7771
  987MOL0     H33180   0.916   6.696   4.846 -0.2971 -0.4609  0.0552
  987MOL0     H33181   1.082   6.707   4.781  0.0154 -1.5958  0.0102
  987MOL0     H33182   1.162   6.567   4.961 -0.8893  0.3888  1.0034
  987MOL0     H33183   0.989   6.530   4.998 -1.4344 -0.1181  0.4112
  987MOL0     H33184   0.958   6.451   4.760  0.8784  1.0634 -0.9312
  987MOL0     H33185   1.134   6.489   4.727  0.6547  3.8405  2.1681
  987MOL0     H33186   1.119   6.243   4.777 -1.1517 -1.2296  0.5485
  987MOL0     H33187   1.211   6.327   4.892  1.1991 -0.3591 -2.0587
  987MOL0     H33188   1.040   6.155   4.977 -0.7253 -0.3053  1.4572
  987MOL0     H33189   1.023   6.316   5.055  1.4883  0.9042 -1.5169
  987MOL0     H33190   0.834   6.380   4.916 -2.5584  0.2462 -2.3804
  987MOL0     H33191   0.851   6.233   4.818 -0.4699 -0.7181  0.3756
  987MOL0     H33192   0.793   6.092   5.009 -1.8581  0.0623  0.9157
  987MOL0     H33193   0.799   6.211   5.129 -1.0267 -1.4820  0.5007
  987MOL0     H33194   0.565   6.156   5.048  3.1718 -1.7715  1.3135
  987MOL0     H33195   0.610   6.226   4.891  5.0130 -5.6271 -1.7864
  987MOL0     H33196   0.498   6.469   4.879 -3.1620  1.5949 -0.2157
  987MOL0     H33197   0.267   6.623   5.061 -0.0645  0.0158  1.6254
  987MOL0     H33198   0.379   6.721   5.158 -2.8816  0.7174  0.8395
  987MOL0     H33199   0.327   6.839   4.943  1.4193  1.2484 -0.7206
  987MOL0     H33200   0.358   6.686   4.856 -1.6634 -0.2275  2.1925
  987MOL0     H33201   0.603   6.711   4.922 -0.7993 -1.5750  2.1387
  987MOL0     H33202   0.567   6.854   5.012  1.0238  0.1906  0.4912
  987MOL0     H33203   0.507   6.824   4.712  1.4270  0.8526 -1.5369
  987MOL0     H33204   0.663   6.874   4.757  0.3789  1.2199 -0.7581
  987MOL0     H33205   0.629   7.039   4.587 -2.2479 -0.4715  0.3042
  987MOL0     H33206   0.609   7.246   4.346 -1.5138 -0.3625  1.6355
  987MOL0     H33207   0.774   7.296   4.417  0.8180 -1.6586  2.0625
  987MOL0     H33208   0.731   7.128   4.396 -2.4217 -2.6971  3.7316
  987MOL0     H33209   0.244   7.700   4.463  0.4335 -1.1788 -1.5726
  987MOL0     H33210   0.216   7.924   4.358 -0.3907  0.1111 -0.8821
  987MOL0     H33211   0.504   8.238   4.455 -2.7161 -0.4227  0.1653
  987MOL0     H33212   0.602   8.182   4.323  0.2703  0.1347  1.7051
  987MOL0     H33213   0.332   8.340   4.302 -0.2458  1.7756 -0.2623
  987MOL0     H33214   0.479   8.422   4.323 -0.5610 -0.6297  0.2412
  987MOL0     H33215   0.396   8.411   4.081 -2.1927 -0.7032  1.0453
  987MOL0     H33216   0.392   8.236   4.101 -1.9291  0.1839  0.5596
  987MOL0     H33217   0.659   8.388   4.134 -0.8035  1.7161 -0.1650
  987MOL0     H33218   0.633   8.225   4.110  3.3120  1.1749  1.4403
  987MOL0     H33219   0.710   8.398   3.920 -0.1974  0.2975 -0.0400
  987MOL0     H33220   0.546   8.425   3.884 -1.0435 -0.2422 -0.4622
  987MOL0     H33221   0.669   8.148   3.901 -1.7150 -3.1634 -0.8516
  987MOL0     H33222   0.510   8.189   3.842 -0.3946  0.9125  2.0015
  987MOL0     H33223   0.671   8.131   3.675 -0.4008  0.4666  0.2861
  987MOL0     H33224   0.771   8.278   3.716  0.4155  0.0428  2.4348
  987MOL0     H33225   0.489   8.273   3.602  2.1910 -1.6486  0.3556
  987MOL0     H33226   0.640   8.295   3.515  0.9025 -2.7408  1.3649
  987MOL0     H33227   0.655   7.978   4.412 -1.2059  1.9332  0.4443
  987MOL0     H33228   0.667   7.756   4.488  1.4971  0.1151 -1.5048
  987MOL0     H33229   0.414   7.449   4.733 -0.4551  0.8953 -1.9634
  987MOL0     H33230   0.403   7.252   4.867 -1.3445  0.9457 -0.2032
  987MOL0     H33231   0.832   6.910   4.935 -0.6469  0.2973  0.5463
  987MOL0     H33232   0.798   7.144   4.838  0.3215 -0.8361 -3.7293
  987MOL0     H33233   1.072   7.459   4.534 -2.9081 -0.4034 -1.0999
  987MOL0     H33234   1.070   7.644   4.413 -0.3733 -4.9277 -0.3746
  987MOL0     H33235   1.164   7.878   4.427  2.4409 -0.2545 -2.0251
  987MOL0     H33236   1.054   7.863   4.291  0.0981  1.4661 -0.8487
  987MOL0     H33237   0.963   8.076   4.310 -1.0829  1.1750  1.7779
  987MOL0     H33238   1.128   8.075   4.253 -0.6045 -2.3325 -1.0894
  987MOL0     H33239   1.041   8.165   4.520 -2.1968 -2.2758 -1.8975
  987MOL0     H33240   1.115   8.265   4.392 -1.5635 -0.9525 -2.2332
  987MOL0     H33241   1.300   8.253   4.544  1.8448 -1.6907  3.6525
  987MOL0     H33242   1.322   8.127   4.419 -0.1200 -2.1156  0.8650
  987MOL0     H33243   1.264   7.915   4.789 -1.6288  1.5056  1.0873
  987MOL0     H33244   0.853   7.866   4.712 -0.1568 -1.0084  0.0020
  987MOL0     H33245   0.842   7.648   4.843 -2.1213 -0.8200 -0.8414
  988MOL0     O33246   0.232   7.000   2.446 -0.8225  0.8203 -0.2604
  988MOL0     C33247   0.215   6.875   2.473  0.3856  0.2164  0.6034
  988MOL0     O33248   0.297   6.791   2.516 -0.5521 -0.4021 -0.1635
  988MOL0     C33249   0.427   6.826   2.527  0.2548 -0.5524  0.2497
  988MOL0     C33250   0.520   6.792   2.428 -0.6735  0.0202  0.3892
  988MOL0     C33251   0.653   6.834   2.438 -0.0169 -0.1003 -0.0192
  988MOL0     C33252   0.703   6.910   2.544  0.3409 -0.0205 -0.1720
  988MOL0     O33253   0.838   6.946   2.528 -0.7933 -0.4847 -0.1653
  988MOL0     C33254   0.858   7.074   2.595 -0.7208 -0.9087  0.2499
  988MOL0     C33255   0.998   7.131   2.569  0.0155 -0.0904  0.4992
  988MOL0     C33256   1.109   7.057   2.649  0.1278  0.2053 -0.0090
  988MOL0     C33257   1.245   7.095   2.588  0.5665  0.6218  0.1747
  988MOL0     C33258   1.374   7.038   2.661  0.0143 -0.2021  0.1399
  988MOL0     C33259   1.371   7.049   2.818  0.6313  0.9010  0.7214
  988MOL0     C33260   1.506   6.995   2.853 -0.0318 -0.2948 -0.5985
  988MOL0     C33261   1.508   6.974   3.005  0.3323 -0.1271 -0.7555
  988MOL0     N33262   1.557   7.090   3.083 -0.2683 -0.2462 -0.2209
  988MOL0     C33263   1.698   7.102   3.117 -0.2082  0.9393 -0.2306
  988MOL0     C33264   1.700   7.218   3.175 -0.1427 -0.3511 -0.9181
  988MOL0     C33265   1.818   7.283   3.229 -0.4911 -0.1450 -0.0779
  988MOL0     C33266   1.883   7.207   3.342  0.1543  0.0481  0.2132
  988MOL0     C33267   1.813   7.217   3.473 -0.6259  0.4114 -0.3042
  988MOL0     C33268   1.663   7.172   3.478 -0.7876  0.1853 -0.5625
  988MOL0     O33269   1.622   7.169   3.612  0.2621 -0.2057 -0.7998
  988MOL0     C33270   1.588   7.291   3.675  0.3283 -0.3508  0.6243
  988MOL0     C33271   1.471   7.361   3.644  0.2983 -0.7598  0.2399
  988MOL0     C33272   1.456   7.492   3.706 -0.3271  0.2562  1.1203
  988MOL0     C33273   1.335   7.574   3.668 -0.6084  0.2057 -0.7972
  988MOL0     C33274   1.551   7.538   3.802  0.6308 -0.0660 -0.3552
  988MOL0     C33275   1.549   7.670   3.869  0.2539 -0.0393  1.0576
  988MOL0     O33276   1.648   7.691   3.956  0.1245 -0.1213  0.4918
  988MOL0     C33277   1.702   7.815   3.958 -0.7711  0.0151 -0.8385
  988MOL0     C33278   1.700   7.907   3.847 -1.2278 -0.3866  0.5226
  988MOL0     C33279   1.776   8.021   3.844 -1.2755  0.8092 -0.6916
  988MOL0     C33280   1.855   8.054   3.959 -0.1029  0.5803  0.0871
  988MOL0     O33281   1.939   8.160   3.965 -0.2639 -0.4420  0.0909
  988MOL0     C33282   1.951   8.245   3.856  0.3639 -0.1566  0.1485
  988MOL0     C33283   2.052   8.347   3.895  0.1274 -0.0848 -0.0477
  988MOL0     C33284   2.180   8.294   3.957 -0.7967  0.1464  0.5958
  988MOL0     C33285   2.272   8.191   3.876 -0.0190 -0.8916 -0.6053
  988MOL0     C33286   2.304   8.224   3.727 -0.8364 -0.7678 -0.8507
  988MOL0     C33287   2.361   8.368   3.718  0.4532 -1.2361 -0.9120
  988MOL0     C33288   2.361   8.413   3.574  0.7310  0.0975  0.3843
  988MOL0     C33289   2.418   8.549   3.558 -0.9368  0.1176 -0.2060
  988MOL0    Cl33290   2.447   8.592   3.376 -0.1048 -0.5966  0.2092
  988MOL0     C33291   1.852   7.972   4.066 -0.5357 -0.5727 -0.2839
  988MOL0     C33292   1.773   7.858   4.074  0.8507  0.1850  0.6295
  988MOL0     O33293   1.461   7.748   3.844 -0.4846 -1.0869 -0.2805
  988MOL0     C33294   1.656   7.450   3.841 -0.5483 -0.7222  0.7220
  988MOL0     C33295   1.676   7.333   3.773  0.2680  0.4485  0.9963
  988MOL0     N33296   1.573   7.283   3.169  0.2142  0.7129  0.3936
  988MOL0     N33297   1.484   7.199   3.136 -0.7286  0.9874  0.5098
  988MOL0     C33298   0.609   6.942   2.642  0.5915 -0.6407  0.2762
  988MOL0     C33299   0.474   6.902   2.632 -0.4622  0.1881 -0.2494
  988MOL0     C33300   0.078   6.829   2.472  0.6946 -0.1800  0.3096
  988MOL0     C33301  -0.031   6.911   2.430  0.0803 -0.4549 -0.9574
  988MOL0     C33302  -0.167   6.878   2.440 -0.0474 -0.3219 -0.6229
  988MOL0     C33303  -0.201   6.749   2.462 -0.4522 -0.8294 -0.4016
  988MOL0     O33304  -0.335   6.716   2.460 -1.0165  0.1396 -0.1696
  988MOL0     C33305  -0.379   6.586   2.485  0.6884 -0.5448 -0.1247
  988MOL0     C33306  -0.385   6.566   2.641  0.2951 -1.1362  0.6552
  988MOL0     C33307  -0.437   6.423   2.678 -0.3531 -0.3941 -0.1121
  988MOL0     C33308  -0.366   6.384   2.809 -0.1043 -0.1206  0.2862
  988MOL0     C33309  -0.413   6.481   2.921 -0.7387  0.1951  0.8132
  988MOL0     C33310  -0.452   6.560   3.005 -1.0390  0.1713 -0.0123
  988MOL0     C33311  -0.102   6.663   2.515 -0.2942 -0.1885 -0.9104
  988MOL0     C33312   0.033   6.701   2.517  0.5254 -0.1073 -0.4449
  988MOL0     H33313   0.478   6.736   2.345  1.2124  1.0442 -1.3308
  988MOL0     H33314   0.719   6.795   2.360 -0.4833 -0.4288 -0.2575
  988MOL0     H33315   0.778   7.139   2.560  0.6956  1.2533  0.8703
  988MOL0     H33316   0.848   7.068   2.703  1.7022 -1.0343  0.5292
  988MOL0     H33317   1.022   7.132   2.462  1.5201 -3.3317  0.6733
  988MOL0     H33318   1.005   7.231   2.611 -0.0886  0.6034 -1.0611
  988MOL0     H33319   1.105   7.093   2.753 -1.7260 -0.1126  0.0655
  988MOL0     H33320   1.104   6.947   2.651 -2.0766  0.2253 -1.2304
  988MOL0     H33321   1.258   7.062   2.485  3.8933  1.7166  0.1154
  988MOL0     H33322   1.263   7.202   2.577  3.1691  0.2169 -0.1712
  988MOL0     H33323   1.403   6.941   2.620 -0.7075 -0.0591 -0.7463
  988MOL0     H33324   1.453   7.109   2.636 -0.0252  1.3277  3.6569
  988MOL0     H33325   1.371   7.155   2.844  0.0570  1.2560 -0.6175
  988MOL0     H33326   1.297   6.980   2.858  1.9139 -2.4352 -2.0744
  988MOL0     H33327   1.542   6.905   2.803  0.4809 -2.5391  3.4006
  988MOL0     H33328   1.577   7.076   2.834 -1.7021  0.9408 -1.8572
  988MOL0     H33329   1.588   6.900   3.017  1.1857  0.8509 -0.1625
  988MOL0     H33330   1.413   6.945   3.050 -0.5258  0.5846 -2.0418
  988MOL0     H33331   1.786   7.040   3.110 -1.8207 -1.5717  0.5581
  988MOL0     H33332   1.885   7.298   3.144 -2.0169  0.8357 -1.1410
  988MOL0     H33333   1.791   7.385   3.258 -3.7144 -1.6850  3.1468
  988MOL0     H33334   1.990   7.231   3.352  0.3032  1.8129 -3.6080
  988MOL0     H33335   1.891   7.100   3.318  0.8898 -0.4857  2.6061
  988MOL0     H33336   1.823   7.323   3.500 -1.7093  1.0085 -2.0857
  988MOL0     H33337   1.876   7.164   3.546 -1.2637  1.4229  1.0391
  988MOL0     H33338   1.658   7.070   3.440  2.5881  0.5069 -2.1830
  988MOL0     H33339   1.605   7.245   3.421 -0.8882 -0.9592 -1.9806
  988MOL0     H33340   1.394   7.315   3.582  0.9308  2.9814 -3.8620
  988MOL0     H33341   1.287   7.597   3.764  1.3625 -3.1211  1.1913
  988MOL0     H33342   1.366   7.672   3.630  2.0077  0.0063  0.5857
  988MOL0     H33343   1.256   7.531   3.606 -1.1868  0.8582 -0.5358
  988MOL0     H33344   1.638   7.882   3.762 -2.3257 -0.3115  1.2749
  988MOL0     H33345   1.770   8.084   3.756  0.5334 -1.1141 -2.3045
  988MOL0     H33346   1.969   8.195   3.761  0.8177  2.1260 -1.0277
  988MOL0     H33347   1.856   8.296   3.845  0.8789  1.6099  2.7818
  988MOL0     H33348   2.064   8.406   3.804  0.4071  0.5291  0.3826
  988MOL0     H33349   2.004   8.416   3.966 -0.6971 -1.7060  1.0395
  988MOL0     H33350   2.163   8.234   4.046  0.6591 -1.7962 -0.3512
  988MOL0     H33351   2.234   8.382   3.994  0.8661 -0.5036 -0.1658
  988MOL0     H33352   2.364   8.195   3.936 -0.3412  0.4746 -0.1775
  988MOL0     H33353   2.250   8.084   3.886  1.6283 -1.0429  2.9298
  988MOL0     H33354   2.217   8.211   3.662 -0.4415 -0.9062 -1.3510
  988MOL0     H33355   2.368   8.151   3.678 -1.6140  0.6731 -4.2868
  988MOL0     H33356   2.302   8.441   3.775 -1.1359 -1.8098 -1.7549
  988MOL0     H33357   2.461   8.354   3.760 -0.4533 -1.8110  1.2103
  988MOL0     H33358   2.259   8.418   3.535 -1.0605  2.9806  4.6741
  988MOL0     H33359   2.426   8.342   3.523  0.4178  1.3392 -1.8687
  988MOL0     H33360   2.512   8.561   3.612 -1.6599  0.6321  0.9902
  988MOL0     H33361   2.348   8.620   3.603  2.2159  2.7985  0.8940
  988MOL0     H33362   1.912   8.011   4.147  0.7881 -1.5875 -0.7403
  988MOL0     H33363   1.769   7.787   4.155  0.3793 -1.1524 -0.5341
  988MOL0     H33364   1.730   7.473   3.917  0.5373 -1.5239 -0.0693
  988MOL0     H33365   1.759   7.264   3.779 -2.3338 -2.9098  1.4767
  988MOL0     H33366   0.636   6.999   2.730 -1.5870 -0.6985  1.0396
  988MOL0     H33367   0.403   6.938   2.705 -1.6772  1.1086 -1.8466
  988MOL0     H33368  -0.015   7.008   2.383 -1.3475 -0.7085 -2.0232
  988MOL0     H33369  -0.243   6.949   2.409  0.0447 -0.0001 -0.1167
  988MOL0     H33370  -0.474   6.560   2.439 -0.8520  1.5766  1.6408
  988MOL0     H33371  -0.304   6.517   2.445  1.2866 -0.8346  1.4278
  988MOL0     H33372  -0.456   6.642   2.673 -1.6249 -2.3625 -0.4938
  988MOL0     H33373  -0.284   6.577   2.681  0.8003 -2.0219 -0.2984
  988MOL0     H33374  -0.417   6.346   2.603 -2.5692 -0.6015 -0.5300
  988MOL0     H33375  -0.546   6.423   2.683 -0.3130 -0.1522  1.2724
  988MOL0     H33376  -0.257   6.383   2.808 -0.0854  0.1624  1.1152
  988MOL0     H33377  -0.409   6.285   2.827 -1.0268  0.0415 -0.9255
  988MOL0     H33378  -0.469   6.622   3.090 -1.4042 -1.8903  1.5108
  988MOL0     H33379  -0.127   6.567   2.557  2.0897  0.7365  3.0898
  988MOL0     H33380   0.104   6.622   2.542  1.2752 -0.0402 -2.2212
  989MOL0     O33381   8.285   7.205  11.196  0.0668  0.3658  0.5688
  989MOL0     C33382   8.262   7.308  11.134  0.7492  0.5226  0.5690
  989MOL0     O33383   8.334   7.423  11.154  0.0902 -0.7915  0.6775
  989MOL0     C33384   8.419   7.424  11.262  0.3702  0.5240 -0.3538
  989MOL0     C33385   8.367   7.386  11.390  0.5144  0.8184 -1.8568
  989MOL0     C33386   8.457   7.367  11.502  0.2643 -0.3477  0.8242
  989MOL0     C33387   8.587   7.392  11.484 -0.4182 -0.1299 -0.6226
  989MOL0     O33388   8.671   7.389  11.588  0.1659 -0.1553 -0.1779
  989MOL0     C33389   8.772   7.291  11.588 -0.2512  0.0234 -0.4562
  989MOL0     C33390   8.865   7.318  11.701 -0.8300 -0.3696  0.2631
  989MOL0     C33391   8.996   7.248  11.703 -0.0015  0.9680 -0.1048
  989MOL0     C33392   9.065   7.265  11.570 -1.0450 -0.3665  0.3071
  989MOL0     C33393   9.215   7.204  11.593  0.6801  0.0810  0.0521
  989MOL0     C33394   9.214   7.056  11.624  0.9483  0.9435 -0.0497
  989MOL0     C33395   9.199   6.963  11.499  0.4696 -0.5569  0.9386
  989MOL0     C33396   9.174   6.817  11.555  0.1288 -0.0036 -0.1614
  989MOL0     N33397   9.162   6.707  11.461  0.2940  0.6456 -0.3039
  989MOL0     C33398   9.268   6.629  11.409  0.3034 -0.5945 -0.3781
  989MOL0     C33399   9.199   6.546  11.327  0.3345  0.7914 -0.3795
  989MOL0     C33400   9.263   6.440  11.239 -0.3284  0.0258  0.1034
  989MOL0     C33401   9.263   6.461  11.086  0.8624 -0.5635  0.1535
  989MOL0     C33402   9.383   6.375  11.034  0.6024 -1.1046 -0.1128
  989MOL0     C33403   9.404   6.365  10.886 -0.2394 -0.0188  1.4391
  989MOL0     O33404   9.297   6.315  10.805  0.4699 -0.3217  0.0605
  989MOL0     C33405   9.327   6.185  10.764  0.2758 -1.0813  0.3149
  989MOL0     C33406   9.280   6.082  10.846 -0.0893  1.3558  0.3123
  989MOL0     C33407   9.304   5.946  10.821  0.7117  0.3714  0.1631
  989MOL0     C33408   9.269   5.855  10.924  0.0796  0.0202 -0.6615
  989MOL0     C33409   9.360   5.907  10.699  0.4185 -0.9893 -0.2218
  989MOL0     C33410   9.400   5.769  10.674 -0.9671  0.2549  0.3589
  989MOL0     O33411   9.326   5.674  10.729  0.7395  0.3288 -0.2291
  989MOL0     C33412   9.379   5.546  10.742 -0.2742  0.1872  0.2048
  989MOL0     C33413   9.502   5.528  10.794 -0.4552 -1.1114  0.4992
  989MOL0     C33414   9.557   5.394  10.799 -0.8988 -0.1289 -1.0952
  989MOL0     C33415   9.491   5.284  10.763 -0.3050 -0.4223 -0.2077
  989MOL0     O33416   9.563   5.167  10.772 -0.0255 -0.4811 -0.0755
  989MOL0     C33417   9.500   5.040  10.744 -0.8037  0.4752  0.2705
  989MOL0     C33418   9.608   4.939  10.800  0.6236  0.0229  0.5527
  989MOL0     C33419   9.575   4.802  10.747  0.0192  1.5124 -0.3885
  989MOL0     C33420   9.652   4.694  10.827 -0.6319 -0.1440 -0.2199
  989MOL0     C33421   9.616   4.547  10.782  0.3802  1.0283 -0.1189
  989MOL0     C33422   9.509   4.480  10.874 -0.4497 -0.5291 -0.4247
  989MOL0     C33423   9.497   4.325  10.861  0.4275 -0.1448 -0.5541
  989MOL0     C33424   9.624   4.248  10.861 -0.6907  0.4743 -0.0060
  989MOL0    Cl33425   9.545   4.084  10.846  0.3331  0.1627 -0.3300
  989MOL0     C33426   9.366   5.303  10.700 -0.5398 -0.0773  0.4497
  989MOL0     C33427   9.310   5.436  10.690 -0.4294  0.0140  0.0258
  989MOL0     O33428   9.502   5.748  10.608  0.1413 -0.0509  0.2678
  989MOL0     C33429   9.398   6.013  10.610  0.1549 -0.8903 -0.3342
  989MOL0     C33430   9.375   6.146  10.644 -0.5010 -0.9058  0.2161
  989MOL0     N33431   9.065   6.571  11.333  0.9211 -0.0495  0.7873
  989MOL0     N33432   9.041   6.664  11.413 -0.0062  0.1409  0.2898
  989MOL0     C33433   8.635   7.435  11.362  0.1483  0.7178 -0.2621
  989MOL0     C33434   8.549   7.462  11.255  0.6590  0.6414 -0.4560
  989MOL0     C33435   8.181   7.311  11.009 -0.4913 -0.0938 -0.2545
  989MOL0     C33436   8.152   7.201  10.933  0.0214 -0.1276  0.3832
  989MOL0     C33437   8.077   7.200  10.819 -1.5384  0.2166  0.3162
  989MOL0     C33438   8.037   7.322  10.762  0.4108  0.2138 -0.1046
  989MOL0     O33439   7.974   7.346  10.642 -0.4643  0.2391  0.4491
  989MOL0     C33440   7.958   7.237  10.550  0.0230  0.5165  0.5612
  989MOL0     C33441   8.089   7.182  10.497  0.4926  0.7386 -0.8022
  989MOL0     C33442   8.056   7.045  10.426 -0.4291  0.0472  0.9035
  989MOL0     C33443   7.942   7.045  10.316  0.0382 -0.3111 -1.1332
  989MOL0     C33444   7.973   7.120  10.189 -0.2562  0.0752  0.6400
  989MOL0     C33445   8.008   7.173  10.090  0.4879  0.9628 -0.0494
  989MOL0     C33446   8.077   7.438  10.832 -0.2334  0.6162  0.2222
  989MOL0     C33447   8.144   7.434  10.959 -0.2296  0.5490  0.2380
  989MOL0     H33448   8.263   7.362  11.411  0.3505  2.2072 -1.0002
  989MOL0     H33449   8.425   7.344  11.603 -0.9621  2.4755  1.1644
  989MOL0     H33450   8.740   7.186  11.579  2.1688 -0.6904 -1.5813
  989MOL0     H33451   8.832   7.309  11.498  0.3688  0.1951 -0.0142
  989MOL0     H33452   8.897   7.422  11.701  1.1575 -0.9293 -0.4968
  989MOL0     H33453   8.824   7.302  11.801  2.1052 -5.0325  1.0707
  989MOL0     H33454   9.055   7.298  11.780 -0.5371  2.4805 -0.6316
  989MOL0     H33455   8.978   7.145  11.734 -0.4550  0.5087 -1.7783
  989MOL0     H33456   9.000   7.221  11.494  0.5646 -1.4135 -0.5345
  989MOL0     H33457   9.086   7.372  11.558  1.2003 -0.6521  1.1453
  989MOL0     H33458   9.282   7.225  11.508  1.5569  3.3148  1.3954
  989MOL0     H33459   9.250   7.268  11.674  0.2297 -2.1559  2.1070
  989MOL0     H33460   9.310   7.034  11.671  0.3382 -1.9215  0.0608
  989MOL0     H33461   9.133   7.023  11.690  0.2387 -1.7302 -2.0648
  989MOL0     H33462   9.121   7.003  11.434 -0.6725 -0.4085  2.3357
  989MOL0     H33463   9.288   6.955  11.435 -2.0700 -0.5723 -2.9122
  989MOL0     H33464   9.090   6.822  11.625 -0.1958 -1.3822 -0.4200
  989MOL0     H33465   9.257   6.790  11.622 -1.4080 -0.0034  1.8095
  989MOL0     H33466   9.374   6.623  11.428  0.5661 -0.8605 -1.8624
  989MOL0     H33467   9.367   6.434  11.272 -0.2836  0.8137  0.1142
  989MOL0     H33468   9.203   6.350  11.259  0.0618 -0.6323 -1.5176
  989MOL0     H33469   9.270   6.566  11.057  2.5740 -1.2665 -2.2938
  989MOL0     H33470   9.175   6.415  11.040  1.9414 -1.0668 -1.4945
  989MOL0     H33471   9.369   6.275  11.076 -0.1899 -1.3745 -0.9890
  989MOL0     H33472   9.472   6.417  11.083 -0.7942 -0.0455  1.6477
  989MOL0     H33473   9.493   6.303  10.876 -0.6623 -0.6174  1.3557
  989MOL0     H33474   9.429   6.465  10.847  0.6611 -0.8095 -0.1123
  989MOL0     H33475   9.225   6.116  10.933 -1.9745  0.1870 -0.3706
  989MOL0     H33476   9.338   5.773  10.944 -1.7756 -1.2206  1.0168
  989MOL0     H33477   9.257   5.907  11.019 -3.4209  1.9349 -1.9523
  989MOL0     H33478   9.171   5.809  10.906 -0.3647  0.8621 -0.4893
  989MOL0     H33479   9.562   5.607  10.838 -2.0130  0.4798 -0.1188
  989MOL0     H33480   9.651   5.393  10.853 -1.4951  2.9759  0.2853
  989MOL0     H33481   9.406   5.026  10.797 -0.5668  2.0263  1.1654
  989MOL0     H33482   9.500   5.021  10.637  3.8699  0.2375  0.1160
  989MOL0     H33483   9.708   4.974  10.771  0.6505  0.5094  1.2025
  989MOL0     H33484   9.602   4.943  10.909  1.3721  0.9128  0.5762
  989MOL0     H33485   9.614   4.802  10.644  2.5786  1.1276  0.5194
  989MOL0     H33486   9.470   4.771  10.747  1.6712 -6.5238 -3.0004
  989MOL0     H33487   9.759   4.703  10.803 -0.7624 -2.1516 -1.8261
  989MOL0     H33488   9.640   4.706  10.935  2.2791 -1.2310  0.3279
  989MOL0     H33489   9.711   4.494  10.778  0.6119  1.4915 -0.9544
  989MOL0     H33490   9.572   4.550  10.682  0.4505  0.0620 -0.1814
  989MOL0     H33491   9.523   4.512  10.978 -0.5942 -0.0158 -0.5614
  989MOL0     H33492   9.417   4.532  10.845  1.4454  1.2892 -3.8243
  989MOL0     H33493   9.430   4.298  10.779 -1.6855  0.2584  0.9709
  989MOL0     H33494   9.442   4.286  10.947  0.9485 -3.2624 -1.5030
  989MOL0     H33495   9.673   4.244  10.959 -2.3377 -0.8966  0.8074
  989MOL0     H33496   9.698   4.276  10.785  0.6942 -2.1644  0.2360
  989MOL0     H33497   9.319   5.213  10.662 -3.3507  2.1253 -1.7997
  989MOL0     H33498   9.211   5.448  10.649 -0.2612 -1.9340 -1.0967
  989MOL0     H33499   9.451   5.979  10.521 -0.1879  3.0256 -2.2254
  989MOL0     H33500   9.393   6.220  10.566 -0.7709 -2.2273 -1.1393
  989MOL0     H33501   8.741   7.459  11.357  1.0463 -2.8103 -1.2973
  989MOL0     H33502   8.577   7.516  11.165 -1.6203  0.2966 -1.4517
  989MOL0     H33503   8.174   7.098  10.961 -2.4127 -1.5157 -2.1689
  989MOL0     H33504   8.057   7.105  10.772  2.0709 -1.0312  0.9879
  989MOL0     H33505   7.900   7.166  10.609  1.3707 -1.3619 -0.2545
  989MOL0     H33506   7.890   7.270  10.471 -0.3746  2.0203  1.4964
  989MOL0     H33507   8.164   7.175  10.577 -0.7727  3.1710  0.7041
  989MOL0     H33508   8.129   7.249  10.421 -0.5004  3.1166  0.6525
  989MOL0     H33509   8.040   6.965  10.499  0.4803 -0.0259  1.0443
  989MOL0     H33510   8.149   7.026  10.371 -0.9565  0.9242 -0.3512
  989MOL0     H33511   7.867   7.086  10.384  1.9117 -1.6404  1.9416
  989MOL0     H33512   7.928   6.939  10.291  1.3239 -0.8931  0.4226
  989MOL0     H33513   8.019   7.224   9.997 -2.0718  1.2110 -0.3057
  989MOL0     H33514   8.047   7.530  10.782 -2.0707 -0.7085 -1.2563
  989MOL0     H33515   8.169   7.531  11.001  0.3560  0.7326 -0.5143
  990MOL0     O33516   8.719  10.125  11.260  0.8370 -0.5316 -0.3113
  990MOL0     C33517   8.660  10.211  11.323 -0.4561 -0.6253 -0.7765
  990MOL0     O33518   8.542  10.188  11.381  0.9329 -0.2064 -0.6320
  990MOL0     C33519   8.469  10.074  11.361 -0.2965  0.7514  0.7061
  990MOL0     C33520   8.526   9.940  11.364  0.6240 -1.0913 -0.5285
  990MOL0     C33521   8.439   9.828  11.345  0.3264  0.4452 -0.2102
  990MOL0     C33522   8.299   9.850  11.349  0.6422 -0.6700 -0.2791
  990MOL0     O33523   8.209   9.745  11.348  0.3723 -0.5130  0.1109
  990MOL0     C33524   8.170   9.708  11.478  0.7866 -0.1573  0.4304
  990MOL0     C33525   8.018   9.717  11.482 -1.0526  0.4346  0.1898
  990MOL0     C33526   7.964   9.667  11.613 -0.6499  0.6424  0.2057
  990MOL0     C33527   7.927   9.526  11.615 -0.5192 -0.5027  0.3888
  990MOL0     C33528   7.910   9.485  11.763 -0.7413 -0.9678 -0.3880
  990MOL0     C33529   7.836   9.349  11.775  0.1243 -0.2968  0.3889
  990MOL0     C33530   7.699   9.368  11.839 -0.5895  0.0403 -0.2420
  990MOL0     C33531   7.626   9.236  11.852  0.2037  0.4883 -0.5439
  990MOL0     N33532   7.516   9.237  11.944 -0.9993 -0.7420 -0.5102
  990MOL0     C33533   7.460   9.135  12.018  0.4649 -0.3398 -0.1845
  990MOL0     C33534   7.359   9.188  12.082  0.3941  0.4500 -0.1396
  990MOL0     C33535   7.272   9.109  12.179  0.4445  0.9658 -0.3893
  990MOL0     C33536   7.184   9.010  12.094  0.1800  0.7061  0.3924
  990MOL0     C33537   7.070   9.094  12.033  0.6695  0.1071 -0.3475
  990MOL0     C33538   7.093   9.219  11.961 -0.4677 -0.3974  0.4791
  990MOL0     O33539   6.979   9.262  11.880  0.6138  0.8449 -0.1130
  990MOL0     C33540   6.957   9.401  11.871 -0.5267 -0.9693  0.4256
  990MOL0     C33541   6.830   9.453  11.875  0.2949  0.1179  0.2450
  990MOL0     C33542   6.812   9.591  11.882 -0.4073 -0.4275 -0.0747
  990MOL0     C33543   6.674   9.638  11.922  0.0725  0.1929 -0.9804
  990MOL0     C33544   6.926   9.676  11.851 -0.4178  0.7018 -0.4434
  990MOL0     C33545   6.921   9.822  11.841  0.2111 -0.4116  0.7222
  990MOL0     O33546   7.022   9.910  11.849  0.0443  0.5235 -0.7772
  990MOL0     C33547   7.026  10.025  11.771  0.1497 -0.2014  0.5590
  990MOL0     C33548   6.956  10.046  11.647  0.2358 -0.2126 -0.5029
  990MOL0     C33549   6.982  10.157  11.567  0.4425 -0.2769 -0.8739
  990MOL0     C33550   7.072  10.255  11.601 -0.9643  1.2333 -0.5136
  990MOL0     O33551   7.084  10.348  11.504  0.3178 -0.0994 -0.0465
  990MOL0     C33552   7.151  10.471  11.544 -0.5708  0.6848 -0.3506
  990MOL0     C33553   7.069  10.590  11.491 -1.0062  0.2722  0.2849
  990MOL0     C33554   7.153  10.719  11.509  0.9776  0.4385 -0.4688
  990MOL0     C33555   7.082  10.816  11.417  0.3917 -0.1150 -0.2229
  990MOL0     C33556   7.132  10.957  11.415 -0.4292  0.2003  1.5432
  990MOL0     C33557   7.036  11.063  11.359 -0.5966  0.2022  0.2410
  990MOL0     C33558   7.067  11.207  11.396 -0.2699 -0.1006  0.0908
  990MOL0     C33559   7.030  11.303  11.275  0.8252 -0.4486 -0.4401
  990MOL0    Cl33560   6.851  11.353  11.278  0.2118  0.1105 -0.2523
  990MOL0     C33561   7.136  10.241  11.726 -0.4474  1.1468  0.4741
  990MOL0     C33562   7.113  10.131  11.808 -0.2459 -1.6146 -0.8247
  990MOL0     O33563   6.813   9.861  11.813  0.0757 -0.5299 -0.3253
  990MOL0     C33564   7.058   9.625  11.843  0.8337  0.1715 -0.4171
  990MOL0     C33565   7.077   9.487  11.851  0.1154  0.5734 -0.3663
  990MOL0     N33566   7.373   9.324  12.092 -0.5615 -0.5330 -0.6686
  990MOL0     N33567   7.468   9.350  12.009  1.4302  0.7419  0.5684
  990MOL0     C33568   8.249   9.984  11.351 -0.1771  1.0725  0.3124
  990MOL0     C33569   8.331  10.090  11.342  0.0824 -0.0319 -0.1308
  990MOL0     C33570   8.720  10.352  11.334  1.3649 -0.5300  0.4489
  990MOL0     C33571   8.836  10.392  11.262  0.3948 -0.4408 -0.8100
  990MOL0     C33572   8.876  10.523  11.268 -0.6893 -0.3967 -0.1927
  990MOL0     C33573   8.801  10.620  11.337  0.4443 -0.3944  0.2471
  990MOL0     O33574   8.842  10.745  11.338  0.6287  0.1322  0.3756
  990MOL0     C33575   8.972  10.765  11.399  0.9723 -0.6467 -0.5723
  990MOL0     C33576   9.049  10.874  11.316  0.1198  0.5370 -0.3273
  990MOL0     C33577   8.998  11.020  11.336 -0.3066 -0.2798  0.1970
  990MOL0     C33578   8.980  11.080  11.477  0.1866  0.7655 -0.0542
  990MOL0     C33579   9.086  11.029  11.558 -0.0675  0.0635  0.2432
  990MOL0     C33580   9.177  11.016  11.641  0.1233  0.7418  0.6624
  990MOL0     C33581   8.694  10.580  11.412 -0.6151 -0.0629 -0.4153
  990MOL0     C33582   8.655  10.443  11.412  0.1971 -0.4848  0.5164
  990MOL0     H33583   8.627   9.905  11.382  0.2867 -1.7576  0.1462
  990MOL0     H33584   8.465   9.722  11.340  0.4693  0.4238  0.7128
  990MOL0     H33585   8.196   9.605  11.500  0.7229 -0.6584 -1.6159
  990MOL0     H33586   8.214   9.774  11.553 -0.7514  1.9616 -0.4309
  990MOL0     H33587   7.985   9.820  11.464  0.4919  0.9846  0.3856
  990MOL0     H33588   7.988   9.648  11.403 -1.4244  1.1259 -0.2802
  990MOL0     H33589   8.039   9.697  11.686  0.3104  2.6995 -1.5120
  990MOL0     H33590   7.873   9.721  11.639 -1.8597  0.1836 -2.6253
  990MOL0     H33591   7.833   9.517  11.560  1.8306 -1.7149 -3.8942
  990MOL0     H33592   8.007   9.468  11.568 -0.0986  0.6198 -0.3353
  990MOL0     H33593   8.006   9.484  11.817 -1.6381  2.6139  1.6066
  990MOL0     H33594   7.855   9.567  11.810  0.4027  0.2873 -1.1585
  990MOL0     H33595   7.812   9.305  11.677  0.1442  1.0866 -0.2593
  990MOL0     H33596   7.903   9.280  11.826  0.8765 -1.3785 -1.9383
  990MOL0     H33597   7.716   9.428  11.929  1.5578  0.1987 -0.7136
  990MOL0     H33598   7.625   9.414  11.772 -1.8567 -2.3277 -0.5857
  990MOL0     H33599   7.699   9.168  11.897  0.7000  0.5264 -1.2678
  990MOL0     H33600   7.595   9.192  11.757  0.9725  0.0585 -0.6071
  990MOL0     H33601   7.487   9.031  12.004  1.6180 -0.1624  0.5742
  990MOL0     H33602   7.330   9.048  12.249  0.6094 -0.0642 -1.3891
  990MOL0     H33603   7.201   9.177  12.225 -2.8981 -0.8172 -2.5276
  990MOL0     H33604   7.140   8.924  12.147  0.9404  0.2445  0.2975
  990MOL0     H33605   7.233   8.952  12.015 -1.2700  0.3917 -0.3114
  990MOL0     H33606   6.997   9.117  12.111 -0.7689 -0.3061 -1.5239
  990MOL0     H33607   7.020   9.029  11.960 -1.2318 -0.7678  1.6051
  990MOL0     H33608   7.176   9.211  11.891 -1.0326  0.4315 -0.3082
  990MOL0     H33609   7.115   9.302  12.030  0.4920  0.7738 -1.1667
  990MOL0     H33610   6.741   9.398  11.902  0.0411  0.2593 -0.3034
  990MOL0     H33611   6.614   9.556  11.964 -0.6585  0.7270 -0.9656
  990MOL0     H33612   6.670   9.715  11.999 -1.0031  1.9459 -2.6931
  990MOL0     H33613   6.630   9.685  11.834 -0.5150  1.8030  0.1257
  990MOL0     H33614   6.882   9.976  11.609  1.1340 -1.2242 -0.4600
  990MOL0     H33615   6.930  10.154  11.472 -0.1752 -2.4564 -0.5185
  990MOL0     H33616   7.149  10.490  11.652  2.2013  0.0129 -0.0830
  990MOL0     H33617   7.253  10.469  11.504 -1.8802 -0.4990 -4.0476
  990MOL0     H33618   7.058  10.566  11.385  1.2578  0.0863  0.0321
  990MOL0     H33619   6.976  10.596  11.549 -1.1287 -2.3760  0.4996
  990MOL0     H33620   7.255  10.722  11.471  1.4309 -1.6041  0.4506
  990MOL0     H33621   7.151  10.758  11.611  1.8003  0.7429 -0.5630
  990MOL0     H33622   7.085  10.781  11.313 -0.5546 -3.6530  0.7801
  990MOL0     H33623   6.978  10.810  11.451  0.4004 -0.2622 -0.2223
  990MOL0     H33624   7.235  10.964  11.378  0.2081 -1.9847  2.7296
  990MOL0     H33625   7.134  10.988  11.520  0.2127  3.9439  0.5513
  990MOL0     H33626   7.043  11.047  11.251 -1.8210 -1.1345  0.3325
  990MOL0     H33627   6.937  11.034  11.395 -0.8817 -2.2893 -2.2129
  990MOL0     H33628   7.173  11.211  11.422 -0.8596  0.1633  2.8460
  990MOL0     H33629   7.007  11.229  11.485  0.7009 -0.0800  0.7475
  990MOL0     H33630   7.043  11.252  11.179  0.7364  1.0529 -1.2789
  990MOL0     H33631   7.098  11.388  11.281  0.4298 -0.1423 -0.2878
  990MOL0     H33632   7.217  10.309  11.751 -0.8820  2.4136 -1.4072
  990MOL0     H33633   7.172  10.124  11.898 -1.3147  0.3036  0.0930
  990MOL0     H33634   7.141   9.688  11.814  0.6694 -0.2160 -1.7790
  990MOL0     H33635   7.174   9.456  11.813  0.2452 -0.1580  0.5342
  990MOL0     H33636   8.142   9.998  11.361 -0.5627 -2.6754  3.7724
  990MOL0     H33637   8.294  10.192  11.349 -0.4567 -0.0331 -2.2043
  990MOL0     H33638   8.895  10.318  11.208  3.5657  1.7500 -0.6152
  990MOL0     H33639   8.974  10.546  11.229  0.0161  0.8937  2.1829
  990MOL0     H33640   8.964  10.793  11.504  4.5985 -0.9732 -0.1031
  990MOL0     H33641   9.027  10.671  11.410 -0.0957 -1.0185  2.7050
  990MOL0     H33642   9.049  10.838  11.213  0.9109 -0.0948 -0.1232
  990MOL0     H33643   9.156  10.866  11.339  0.7171 -1.7700 -3.3903
  990MOL0     H33644   8.903  11.023  11.282 -0.5292 -2.6243  0.3770
  990MOL0     H33645   9.074  11.081  11.286 -0.9816 -0.7216 -1.4468
  990MOL0     H33646   8.893  11.041  11.531  2.9646 -4.0793  1.4403
  990MOL0     H33647   8.970  11.189  11.470 -1.6814  0.5250 -3.6534
  990MOL0     H33648   9.249  11.006  11.720 -1.6880 -3.1017  2.0618
  990MOL0     H33649   8.659  10.658  11.478  0.2657 -0.5826  0.7044
  990MOL0     H33650   8.574  10.411  11.476 -0.9744 -0.9703 -1.1358
  991MOL0     O33651   4.618   0.024   0.449  0.0826 -0.0350  0.1541
  991MOL0     C33652   4.688   0.066   0.542 -0.6127  0.0575 -0.6381
  991MOL0     O33653   4.822   0.077   0.545 -0.5374  0.1110  0.2885
  991MOL0     C33654   4.889   0.074   0.427 -0.7747  0.2259  1.1162
  991MOL0     C33655   4.882  -0.036   0.340 -0.4801 -0.3836 -0.1151
  991MOL0     C33656   4.957  -0.044   0.221  0.4764  0.1496 -0.0744
  991MOL0     C33657   5.043   0.061   0.192 -0.8432 -0.3695 -0.0229
  991MOL0     O33658   5.131   0.071   0.077  0.0179  0.0804 -0.8464
  991MOL0     C33659   5.151  -0.049   0.007 -1.1385 -0.0375 -0.4605
  991MOL0     C33660   5.237  -0.036  -0.114  0.6295 -0.1450 -0.3103
  991MOL0     C33661   5.373   0.034  -0.099 -0.6291  0.1795 -0.7829
  991MOL0     C33662   5.449   0.055  -0.229  0.0018  0.4338 -0.0542
  991MOL0     C33663   5.406   0.186  -0.301 -0.5126  0.3419 -0.5485
  991MOL0     C33664   5.514   0.234  -0.394 -0.6780  0.5820  1.6547
  991MOL0     C33665   5.630   0.314  -0.325 -0.6681  0.2826 -0.1393
  991MOL0     C33666   5.670   0.445  -0.411  0.1632 -1.3610  0.2542
  991MOL0     N33667   5.727   0.431  -0.542  0.1859  0.5552 -0.4660
  991MOL0     C33668   5.856   0.471  -0.569  0.4000  0.2353 -0.1678
  991MOL0     C33669   5.854   0.491  -0.701  0.5051  0.0212  0.6778
  991MOL0     C33670   5.968   0.547  -0.780 -0.4362 -0.0850  0.2327
  991MOL0     C33671   5.927   0.663  -0.871  1.0672 -0.2584  0.9157
  991MOL0     C33672   5.997   0.662  -1.008 -0.1110  0.0646 -0.1256
  991MOL0     C33673   6.003   0.792  -1.087 -0.6944 -0.5264  0.2420
  991MOL0     O33674   6.085   0.898  -1.021  0.2610  0.3797 -0.7698
  991MOL0     C33675   6.158   0.977  -1.100  0.5789  0.3731 -0.9530
  991MOL0     C33676   6.246   0.927  -1.191  0.3912  0.0288  0.1475
  991MOL0     C33677   6.318   1.004  -1.285  0.5949 -0.0482  0.3109
  991MOL0     C33678   6.419   0.933  -1.373 -0.2652 -0.3314  0.4852
  991MOL0     C33679   6.292   1.141  -1.288  0.2812  0.0420  0.3373
  991MOL0     C33680   6.352   1.229  -1.396 -0.3506  0.1406  0.2003
  991MOL0     O33681   6.342   1.193  -1.530 -0.2986 -0.2543 -0.4890
  991MOL0     C33682   6.416   1.257  -1.635 -0.2033 -0.3491  0.2201
  991MOL0     C33683   6.521   1.361  -1.621  0.9914 -0.0182  0.2779
  991MOL0     C33684   6.608   1.387  -1.727  0.0301 -0.1828  0.7998
  991MOL0     C33685   6.598   1.329  -1.851 -1.1266  0.1147  0.0434
  991MOL0     O33686   6.695   1.345  -1.948  0.3663  0.1526 -0.2295
  991MOL0     C33687   6.808   1.261  -1.939  0.4306  0.2085 -0.0641
  991MOL0     C33688   6.920   1.332  -2.015 -0.4334  0.5555 -0.3646
  991MOL0     C33689   7.036   1.243  -2.036  1.1984  0.5908  0.2639
  991MOL0     C33690   7.005   1.164  -2.169  0.2067  0.2451 -0.2050
  991MOL0     C33691   7.139   1.174  -2.248  0.1417  0.5501  0.1216
  991MOL0     C33692   7.113   1.132  -2.397 -0.5863 -0.2835  0.7852
  991MOL0     C33693   7.243   1.139  -2.464 -0.1018  0.1341  0.7748
  991MOL0     C33694   7.248   1.086  -2.604 -0.8309  0.4313  0.0207
  991MOL0    Cl33695   7.144   1.168  -2.723  0.2077 -0.4619 -0.1409
  991MOL0     C33696   6.499   1.237  -1.871 -0.1102  1.2318  0.1247
  991MOL0     C33697   6.401   1.206  -1.767 -0.2267  0.4031 -0.2774
  991MOL0     O33698   6.400   1.337  -1.359 -0.8387  0.0724  0.2231
  991MOL0     C33699   6.210   1.190  -1.184  0.5436 -0.5805  0.8276
  991MOL0     C33700   6.151   1.112  -1.086 -0.2072 -0.0746  0.0773
  991MOL0     N33701   5.730   0.464  -0.751  0.2768  0.7651 -0.0614
  991MOL0     N33702   5.654   0.422  -0.652 -0.9146 -0.1215  0.7772
  991MOL0     C33703   5.059   0.164   0.283  0.2823  0.1610 -0.3640
  991MOL0     C33704   4.982   0.174   0.398 -0.5213  0.1778 -0.8167
  991MOL0     C33705   4.628   0.093   0.671 -0.0598 -0.7364  0.3117
  991MOL0     C33706   4.696   0.171   0.760  0.0314 -0.2394  0.7341
  991MOL0     C33707   4.645   0.197   0.885  0.3201  0.1050 -0.2113
  991MOL0     C33708   4.521   0.146   0.919 -0.3490  0.1045  0.2842
  991MOL0     O33709   4.482   0.164   1.044 -0.1255 -1.1208 -0.1682
  991MOL0     C33710   4.346   0.229   1.059 -0.3803 -0.2054  1.2700
  991MOL0     C33711   4.329   0.360   0.992 -0.4935 -0.5628  0.4602
  991MOL0     C33712   4.189   0.418   0.995 -0.6433 -0.4600 -0.4846
  991MOL0     C33713   4.091   0.315   0.937  0.0462  0.0033  1.0521
  991MOL0     C33714   3.970   0.394   0.894  1.2351 -0.8015 -0.1752
  991MOL0     C33715   3.856   0.437   0.869 -0.0372 -1.0452 -0.2623
  991MOL0     C33716   4.448   0.058   0.827  0.0529  0.4443  1.0489
  991MOL0     C33717   4.507   0.035   0.705 -0.1456  0.2768  0.4939
  991MOL0     H33718   4.820  -0.121   0.364 -0.8066 -1.5138 -4.2243
  991MOL0     H33719   4.946  -0.136   0.165  3.0002 -0.7976  0.8133
  991MOL0     H33720   5.196  -0.126   0.070 -0.3065  0.1443 -0.8260
  991MOL0     H33721   5.055  -0.092  -0.023 -1.8226  0.3373  1.0919
  991MOL0     H33722   5.247  -0.137  -0.154  3.6443 -0.4859  1.0243
  991MOL0     H33723   5.182   0.020  -0.191 -0.9648 -2.2805 -0.8043
  991MOL0     H33724   5.374   0.123  -0.035 -0.0287 -1.0850  1.0518
  991MOL0     H33725   5.433  -0.023  -0.028 -3.5044  1.8658  3.3867
  991MOL0     H33726   5.558   0.043  -0.227  0.0011  0.4902  0.3728
  991MOL0     H33727   5.409  -0.023  -0.295  0.3553  1.7371 -1.8623
  991MOL0     H33728   5.316   0.151  -0.353 -0.6892  0.3118 -0.2260
  991MOL0     H33729   5.373   0.267  -0.235  2.0119  1.5659 -0.6938
  991MOL0     H33730   5.563   0.148  -0.440 -2.3969 -0.5011  1.7873
  991MOL0     H33731   5.462   0.298  -0.466  0.5151  0.9418  1.0774
  991MOL0     H33732   5.612   0.337  -0.220 -2.8557 -3.4288  0.4709
  991MOL0     H33733   5.715   0.246  -0.324 -1.5206 -0.8435  2.0290
  991MOL0     H33734   5.744   0.494  -0.348  5.0800 -4.8374 -2.1673
  991MOL0     H33735   5.579   0.505  -0.425 -0.5483 -1.9990  1.8549
  991MOL0     H33736   5.933   0.512  -0.505  0.2888 -1.6881  1.2886
  991MOL0     H33737   6.025   0.590  -0.697  2.1648 -1.1304 -0.8957
  991MOL0     H33738   6.029   0.468  -0.824 -1.3504  0.8423 -2.9737
  991MOL0     H33739   5.951   0.756  -0.818 -0.0884 -2.0958  5.0712
  991MOL0     H33740   5.820   0.672  -0.893  1.1157 -0.8303  0.4449
  991MOL0     H33741   5.950   0.583  -1.067 -6.6311  2.1697  1.4256
  991MOL0     H33742   6.102   0.640  -0.986 -0.0010  1.8551  1.3649
  991MOL0     H33743   5.898   0.820  -1.082 -0.4788  0.9365 -1.9594
  991MOL0     H33744   6.036   0.777  -1.190  0.7269  1.8106  0.2889
  991MOL0     H33745   6.250   0.819  -1.191 -0.1639  0.0008 -0.6977
  991MOL0     H33746   6.509   0.995  -1.383  0.7338 -1.8634 -0.2278
  991MOL0     H33747   6.451   0.839  -1.327 -2.1258 -1.3042 -0.1054
  991MOL0     H33748   6.369   0.905  -1.466  0.1964 -0.1184  0.1639
  991MOL0     H33749   6.552   1.405  -1.527  3.6259 -0.5412 -0.2717
  991MOL0     H33750   6.697   1.448  -1.710  1.1651 -1.8568  1.0592
  991MOL0     H33751   6.842   1.237  -1.838 -1.5867  1.6444  1.0475
  991MOL0     H33752   6.777   1.171  -1.992 -1.5272  0.1745  1.0202
  991MOL0     H33753   6.885   1.367  -2.112 -3.7179  0.6684  0.7413
  991MOL0     H33754   6.948   1.410  -1.944  1.4431 -1.6128  1.4285
  991MOL0     H33755   7.036   1.171  -1.954  1.7073 -0.5357 -0.6896
  991MOL0     H33756   7.124   1.307  -2.035  2.0875 -0.2746 -3.7903
  991MOL0     H33757   6.982   1.058  -2.154 -2.6208  0.5106 -1.9280
  991MOL0     H33758   6.924   1.215  -2.222 -1.6699  0.9132  3.0624
  991MOL0     H33759   7.200   1.100  -2.195  0.6345  0.6474 -0.3010
  991MOL0     H33760   7.192   1.269  -2.240  1.1599 -0.1173  1.8520
  991MOL0     H33761   7.077   1.029  -2.403 -1.0857 -0.1222  1.0206
  991MOL0     H33762   7.040   1.200  -2.442  1.3480  3.1971  2.5208
  991MOL0     H33763   7.326   1.092  -2.411  3.3417  0.5783 -3.6542
  991MOL0     H33764   7.267   1.246  -2.469 -0.3954  0.1864  0.4964
  991MOL0     H33765   7.209   0.984  -2.595  3.4212 -1.2996  1.4770
  991MOL0     H33766   7.351   1.073  -2.638 -0.8166 -1.9925  0.8064
  991MOL0     H33767   6.485   1.176  -1.960 -2.5994  3.7458 -1.3674
  991MOL0     H33768   6.329   1.126  -1.778  0.9000 -0.8159  0.7951
  991MOL0     H33769   6.194   1.297  -1.178 -1.4922 -0.8392  0.6394
  991MOL0     H33770   6.095   1.149  -1.001 -0.5144  1.2107 -0.6613
  991MOL0     H33771   5.137   0.236   0.264  0.1918  0.9517  1.9839
  991MOL0     H33772   4.986   0.254   0.471  1.4826 -1.9225  1.5706
  991MOL0     H33773   4.793   0.213   0.736 -0.4821 -0.1808 -1.3627
  991MOL0     H33774   4.694   0.258   0.961  0.6381 -1.3633  0.8188
  991MOL0     H33775   4.283   0.148   1.020  2.3588 -1.2430 -1.3244
  991MOL0     H33776   4.322   0.242   1.165 -2.6799 -3.4784  1.3292
  991MOL0     H33777   4.360   0.353   0.888 -2.4744 -1.3553 -0.1314
  991MOL0     H33778   4.399   0.424   1.047 -1.0432 -2.1222  3.1789
  991MOL0     H33779   4.200   0.500   0.923 -1.1082 -1.7669 -2.1317
  991MOL0     H33780   4.150   0.453   1.091  0.1787 -3.3925  1.0209
  991MOL0     H33781   4.050   0.247   1.012  0.2413 -2.0537 -0.6195
  991MOL0     H33782   4.133   0.265   0.849 -0.3852  3.5781 -1.4130
  991MOL0     H33783   3.755   0.467   0.850  0.4085  1.4059  0.8363
  991MOL0     H33784   4.351   0.020   0.857 -1.6064  2.9797 -0.6384
  991MOL0     H33785   4.457  -0.023   0.628  2.5756 -1.6262  0.0099
  992MOL0     O33786   1.123   0.750   3.120 -0.3178  0.5555  1.4116
  992MOL0     C33787   1.232   0.768   3.063  1.0902  0.5221  0.1225
  992MOL0     O33788   1.354   0.749   3.122 -0.4670  0.2913 -0.0442
  992MOL0     C33789   1.358   0.686   3.237  0.6760  0.6382 -0.0776
  992MOL0     C33790   1.409   0.555   3.244 -0.4308  0.2608 -0.1886
  992MOL0     C33791   1.409   0.487   3.366 -1.1639  0.4701 -0.3585
  992MOL0     C33792   1.368   0.546   3.482 -0.9757 -0.2248  0.6540
  992MOL0     O33793   1.381   0.479   3.601  0.5928 -0.0653 -0.5344
  992MOL0     C33794   1.288   0.370   3.626 -0.0910  0.1035  0.3897
  992MOL0     C33795   1.146   0.388   3.588  1.2169 -0.4721 -0.6381
  992MOL0     C33796   1.087   0.497   3.679  0.3136 -0.2009  0.3496
  992MOL0     C33797   0.963   0.561   3.602  0.1432 -0.3151  0.3519
  992MOL0     C33798   0.868   0.635   3.695 -0.2358  1.2551  0.5114
  992MOL0     C33799   0.775   0.552   3.780 -0.1429  1.2197 -0.2695
  992MOL0     C33800   0.696   0.623   3.890 -0.2000 -0.5541  0.8077
  992MOL0     C33801   0.597   0.528   3.967 -0.0252  0.7088  0.6469
  992MOL0     N33802   0.678   0.438   4.053 -0.0527  1.3519  0.0533
  992MOL0     C33803   0.737   0.483   4.165  0.9937  0.7566 -1.0539
  992MOL0     C33804   0.808   0.379   4.217  0.2725  0.4891 -0.4475
  992MOL0     C33805   0.848   0.376   4.362 -0.0937  0.8573  0.6299
  992MOL0     C33806   0.725   0.355   4.448  0.3706 -0.8904 -0.4504
  992MOL0     C33807   0.679   0.209   4.461 -0.6119  0.1124 -0.3625
  992MOL0     C33808   0.541   0.192   4.531  0.5617  0.4132  0.5963
  992MOL0     O33809   0.505   0.051   4.517 -0.2921  0.4940  0.3711
  992MOL0     C33810   0.416   0.014   4.622  0.1195  0.0971  0.8302
  992MOL0     C33811   0.333   0.101   4.696  0.3598 -0.1728 -0.3784
  992MOL0     C33812   0.235   0.052   4.777 -0.2326 -0.9073  0.4704
  992MOL0     C33813   0.146   0.158   4.841 -0.0612 -0.0697  0.0416
  992MOL0     C33814   0.214  -0.087   4.792  0.5696  0.2631 -0.5515
  992MOL0     C33815   0.102  -0.145   4.875 -0.2149  0.0397 -0.2379
  992MOL0     O33816   0.099  -0.279   4.892 -0.6450 -0.3416 -0.1169
  992MOL0     C33817   0.010  -0.320   4.983 -0.5710  0.7631  0.5709
  992MOL0     C33818  -0.107  -0.384   4.942  0.0989  0.5174  0.4037
  992MOL0     C33819  -0.192  -0.433   5.040  0.8566  0.2085 -0.2713
  992MOL0     C33820  -0.178  -0.418   5.180  0.1186 -0.1491 -0.3281
  992MOL0     O33821  -0.271  -0.481   5.254 -0.6554  0.4917 -0.1287
  992MOL0     C33822  -0.266  -0.478   5.398 -0.0378 -0.3148 -0.2850
  992MOL0     C33823  -0.356  -0.587   5.458  0.1885 -0.1887  0.1080
  992MOL0     C33824  -0.374  -0.588   5.610 -0.9771 -0.0584  0.8054
  992MOL0     C33825  -0.504  -0.643   5.659  0.1602  0.3168 -0.6827
  992MOL0     C33826  -0.528  -0.629   5.811 -1.1450  0.0648 -0.7382
  992MOL0     C33827  -0.454  -0.742   5.895 -0.8641 -0.4558 -0.4956
  992MOL0     C33828  -0.474  -0.710   6.044  0.3780 -0.1164 -0.1689
  992MOL0     C33829  -0.397  -0.798   6.148  0.2372 -0.4061  0.4779
  992MOL0    Cl33830  -0.414  -0.969   6.082  0.2043 -0.0210  0.7674
  992MOL0     C33831  -0.067  -0.343   5.217  0.0111 -0.1319  0.0694
  992MOL0     C33832   0.017  -0.293   5.123  0.4977 -0.5277  1.4110
  992MOL0     O33833   0.018  -0.073   4.918  0.4625 -0.0466 -0.2818
  992MOL0     C33834   0.299  -0.179   4.720  0.6124 -0.8104  0.6646
  992MOL0     C33835   0.391  -0.125   4.635  0.0240 -0.6612  0.8083
  992MOL0     N33836   0.804   0.280   4.119  0.3664  0.5458  0.0787
  992MOL0     N33837   0.730   0.319   4.019  0.0402  0.6342  0.2534
  992MOL0     C33838   1.313   0.672   3.475 -0.3273  0.3375  0.2431
  992MOL0     C33839   1.307   0.736   3.352 -0.7790  0.3521 -0.8412
  992MOL0     C33840   1.214   0.839   2.936 -0.6051 -0.1159  0.5301
  992MOL0     C33841   1.321   0.839   2.844 -0.7396  0.3809 -0.2509
  992MOL0     C33842   1.303   0.886   2.714 -0.0059  0.8355  0.1456
  992MOL0     C33843   1.196   0.976   2.691 -0.2660 -0.5096 -0.6815
  992MOL0     O33844   1.172   1.045   2.576 -0.5456  0.1316 -0.4546
  992MOL0     C33845   1.243   1.031   2.452 -0.1259 -0.4625  0.9171
  992MOL0     C33846   1.207   1.134   2.341  0.6249  0.4030  0.7322
  992MOL0     C33847   1.059   1.144   2.308 -0.1768 -0.7444 -0.4629
  992MOL0     C33848   1.021   1.254   2.201 -0.3398  0.9341  0.6843
  992MOL0     C33849   1.003   1.390   2.265  0.3720 -0.2572 -0.0812
  992MOL0     C33850   0.989   1.499   2.311  0.8267  0.2247 -0.1259
  992MOL0     C33851   1.098   0.989   2.788  0.0080 -0.8688  1.0779
  992MOL0     C33852   1.099   0.918   2.911 -0.0917  0.7144 -0.5595
  992MOL0     H33853   1.446   0.506   3.155  2.2220  0.0795  0.9293
  992MOL0     H33854   1.442   0.385   3.349 -0.9676  0.3102  0.9343
  992MOL0     H33855   1.331   0.278   3.586 -0.6541 -0.3105  0.7336
  992MOL0     H33856   1.294   0.365   3.735  0.7433  5.2298  0.8467
  992MOL0     H33857   1.143   0.428   3.486 -0.4228  1.2802  0.0330
  992MOL0     H33858   1.088   0.296   3.595 -0.9087  0.8852  1.2211
  992MOL0     H33859   1.070   0.474   3.784 -1.6438  1.3294  0.4330
  992MOL0     H33860   1.165   0.573   3.689  0.7671 -0.8977  2.8554
  992MOL0     H33861   1.001   0.623   3.520  0.8327 -1.8197 -0.5184
  992MOL0     H33862   0.918   0.471   3.558 -0.2013 -0.6897  1.4489
  992MOL0     H33863   0.928   0.704   3.755  2.2968 -0.3967  0.0317
  992MOL0     H33864   0.795   0.691   3.635  0.2407 -0.5336 -1.8821
  992MOL0     H33865   0.713   0.490   3.714  0.2805  1.2559 -0.7089
  992MOL0     H33866   0.833   0.473   3.829  0.2821  0.3482 -2.1013
  992MOL0     H33867   0.764   0.685   3.950  1.5257 -1.6499  0.0453
  992MOL0     H33868   0.631   0.700   3.847 -0.0499 -0.2189  1.1752
  992MOL0     H33869   0.535   0.473   3.897 -0.1956  1.0635  0.5143
  992MOL0     H33870   0.528   0.590   4.025  0.5494  2.2950 -0.3053
  992MOL0     H33871   0.707   0.569   4.224  1.7438 -0.8440  1.8525
  992MOL0     H33872   0.912   0.289   4.381 -2.4725 -1.8175 -2.2933
  992MOL0     H33873   0.909   0.462   4.390  2.5056 -1.1497  1.5655
  992MOL0     H33874   0.640   0.403   4.399 -0.1811 -2.5457 -1.1711
  992MOL0     H33875   0.734   0.401   4.547 -0.5709 -0.7756 -0.4020
  992MOL0     H33876   0.745   0.154   4.529 -5.3499 -2.3606  2.7742
  992MOL0     H33877   0.683   0.159   4.363 -1.9553 -1.0527  0.1426
  992MOL0     H33878   0.474   0.255   4.474  0.6331  0.7773  0.9125
  992MOL0     H33879   0.551   0.228   4.634 -1.2843  0.9236  0.6327
  992MOL0     H33880   0.344   0.205   4.669 -2.6742  0.5916  0.9525
  992MOL0     H33881   0.048   0.162   4.793  1.1105  1.4585 -2.4539
  992MOL0     H33882   0.132   0.130   4.946 -4.3432 -0.8807 -0.5645
  992MOL0     H33883   0.181   0.262   4.841 -2.9018  0.9912  1.6808
  992MOL0     H33884  -0.136  -0.400   4.839  0.4461 -2.5257  0.6796
  992MOL0     H33885  -0.286  -0.475   5.006 -0.1028  0.4879  1.8617
  992MOL0     H33886  -0.168  -0.503   5.439 -1.1650 -0.0152  2.9114
  992MOL0     H33887  -0.291  -0.378   5.437 -1.0403 -0.7144  0.1421
  992MOL0     H33888  -0.457  -0.583   5.416 -0.4763 -4.5507  0.8305
  992MOL0     H33889  -0.309  -0.682   5.430 -0.0001 -0.6642  1.3498
  992MOL0     H33890  -0.379  -0.486   5.648 -2.1659  0.5667 -0.8839
  992MOL0     H33891  -0.293  -0.650   5.651 -2.6908 -3.6983 -0.8256
  992MOL0     H33892  -0.591  -0.596   5.613 -1.7087 -0.6220  1.7100
  992MOL0     H33893  -0.516  -0.749   5.636 -3.2108  0.0211  1.7232
  992MOL0     H33894  -0.636  -0.640   5.830 -1.4236 -2.1741 -3.0021
  992MOL0     H33895  -0.489  -0.534   5.848  2.4494 -2.1340  1.7187
  992MOL0     H33896  -0.494  -0.841   5.868 -0.5889 -0.5352 -0.6158
  992MOL0     H33897  -0.350  -0.748   5.861 -1.2167  2.3093 -2.3372
  992MOL0     H33898  -0.578  -0.706   6.079  1.7869  1.7211  4.5231
  992MOL0     H33899  -0.435  -0.608   6.048 -1.3357  0.8314 -3.4074
  992MOL0     H33900  -0.423  -0.780   6.253  0.4727 -0.8619  0.6151
  992MOL0     H33901  -0.291  -0.773   6.142 -0.0975  2.7685  4.2014
  992MOL0     H33902  -0.050  -0.340   5.324 -4.1015  0.9314  0.8771
  992MOL0     H33903   0.105  -0.238   5.157 -1.6163  3.9959  0.2818
  992MOL0     H33904   0.274  -0.284   4.727  0.3187 -0.8982 -1.3670
  992MOL0     H33905   0.447  -0.209   4.595 -2.9905 -1.6104 -1.8648
  992MOL0     H33906   1.294   0.719   3.571  1.7508  0.2639  0.7403
  992MOL0     H33907   1.269   0.837   3.341  0.8078  0.7877 -2.7717
  992MOL0     H33908   1.407   0.779   2.874 -1.7451 -1.1882 -0.3948
  992MOL0     H33909   1.376   0.871   2.635 -2.9121 -2.1104 -2.3046
  992MOL0     H33910   1.349   1.052   2.472 -0.9704  3.8311  1.6854
  992MOL0     H33911   1.221   0.934   2.407  0.2010 -0.2421  0.2626
  992MOL0     H33912   1.248   1.110   2.243 -0.4464  1.0216  0.1084
  992MOL0     H33913   1.262   1.223   2.372  1.2866 -0.0966  1.0126
  992MOL0     H33914   0.988   1.137   2.391  1.4873 -2.4048  0.9097
  992MOL0     H33915   1.043   1.049   2.255  0.6045 -1.0581 -0.1465
  992MOL0     H33916   0.923   1.229   2.158  0.7012  0.8070 -1.7951
  992MOL0     H33917   1.096   1.259   2.122 -1.9876  1.1509 -0.9514
  992MOL0     H33918   0.998   1.595   2.358  6.9552 -0.5204  1.1669
  992MOL0     H33919   1.011   1.053   2.777  0.5807 -0.2366  0.1223
  992MOL0     H33920   1.008   0.925   2.970 -1.7734 -0.5978 -2.8447
  993MOL0     O33921  10.500   3.453  10.549  0.1455 -0.0563  0.0024
  993MOL0     C33922  10.409   3.374  10.512  0.3255 -0.3971 -0.1812
  993MOL0     O33923  10.358   3.372  10.391  0.7548  0.7250  0.2688
  993MOL0     C33924  10.428   3.435  10.288 -0.0379 -0.2268 -0.7487
  993MOL0     C33925  10.356   3.510  10.192 -0.1363 -0.4704  1.7959
  993MOL0     C33926  10.417   3.560  10.072 -0.0378  0.1170 -0.7991
  993MOL0     C33927  10.561   3.557  10.058 -0.2168 -0.4950 -0.5407
  993MOL0     O33928  10.629   3.610   9.948  0.1633 -0.1349 -0.0929
  993MOL0     C33929  10.730   3.525   9.892  0.8949  0.4793 -0.5807
  993MOL0     C33930  10.730   3.519   9.730  0.3193  0.2451  0.0596
  993MOL0     C33931  10.601   3.456   9.659 -0.3289 -0.2117 -0.4311
  993MOL0     C33932  10.608   3.470   9.501  0.7943  0.2631 -0.6510
  993MOL0     C33933  10.493   3.423   9.424 -0.3772 -0.3585 -0.1119
  993MOL0     C33934  10.379   3.515   9.432  0.0495 -0.0386 -1.8552
  993MOL0     C33935  10.261   3.468   9.342 -0.8066  0.5700 -0.5545
  993MOL0     C33936  10.128   3.546   9.377 -0.1144  0.3519 -0.7854
  993MOL0     N33937  10.061   3.511   9.504  0.2125  0.1466  0.0770
  993MOL0     C33938   9.953   3.434   9.518  1.1216  0.1929  0.9230
  993MOL0     C33939   9.941   3.411   9.651 -0.0241  0.4410 -0.1500
  993MOL0     C33940   9.845   3.323   9.730 -0.3948 -0.0793  1.3804
  993MOL0     C33941   9.749   3.402   9.825  0.1313 -0.9827  0.0860
  993MOL0     C33942   9.671   3.512   9.754  0.3211 -0.0986 -0.3583
  993MOL0     C33943   9.556   3.442   9.674  0.2200 -0.1816 -0.1940
  993MOL0     O33944   9.462   3.536   9.616 -0.7092 -0.3762 -0.1846
  993MOL0     C33945   9.352   3.493   9.547  0.8165 -0.4145  0.7073
  993MOL0     C33946   9.332   3.365   9.491  0.1425 -0.3150  0.9420
  993MOL0     C33947   9.214   3.331   9.423  0.2842  0.0685  0.0835
  993MOL0     C33948   9.207   3.185   9.381 -0.1455 -0.0660  1.0860
  993MOL0     C33949   9.119   3.431   9.402  0.9857 -0.3612  0.0066
  993MOL0     C33950   9.006   3.406   9.309  0.0130  0.2479  0.3175
  993MOL0     O33951   9.025   3.315   9.208 -0.4193  0.0417  0.0773
  993MOL0     C33952   8.906   3.292   9.139  0.5199  0.6124  0.5474
  993MOL0     C33953   8.823   3.189   9.187  0.7530  0.5320 -0.0720
  993MOL0     C33954   8.700   3.158   9.131  1.0678 -0.1891  1.0890
  993MOL0     C33955   8.657   3.222   9.015 -0.0916 -0.3202 -0.8442
  993MOL0     O33956   8.539   3.189   8.954  0.5740 -0.0310  0.3780
  993MOL0     C33957   8.461   3.080   9.007  0.5728 -0.3175  0.3082
  993MOL0     C33958   8.376   3.106   9.134  0.9378 -0.6114 -0.5053
  993MOL0     C33959   8.330   2.969   9.191 -0.3062 -0.2398 -0.3415
  993MOL0     C33960   8.305   2.979   9.342  0.0650 -0.3952  0.1198
  993MOL0     C33961   8.229   2.864   9.411 -0.3793  0.8036  0.2926
  993MOL0     C33962   8.090   2.836   9.362 -1.2816  0.3770  0.4325
  993MOL0     C33963   8.024   2.729   9.455  0.2234  0.0301 -0.5500
  993MOL0     C33964   7.870   2.737   9.442 -0.5773  0.3764  0.0553
  993MOL0    Cl33965   7.779   2.602   9.521  0.2387 -0.4027  0.4299
  993MOL0     C33966   8.729   3.329   8.973 -0.6661  0.0838  0.0307
  993MOL0     C33967   8.859   3.365   9.029  0.3537 -0.5682 -0.1691
  993MOL0     O33968   8.905   3.473   9.335 -0.2815  0.3542  0.1139
  993MOL0     C33969   9.142   3.559   9.459  1.2225 -0.0802  0.1260
  993MOL0     C33970   9.257   3.594   9.525 -0.1616  0.2106  0.9964
  993MOL0     N33971  10.041   3.487   9.723  0.0321  0.1948  0.3239
  993MOL0     N33972  10.115   3.540   9.623 -0.5006  0.5373 -0.0456
  993MOL0     C33973  10.637   3.504  10.169  0.0482  0.5143 -0.1293
  993MOL0     C33974  10.571   3.443  10.280  0.0110 -0.4473  0.6559
  993MOL0     C33975  10.353   3.298  10.629  0.6301 -0.0994  0.0908
  993MOL0     C33976  10.285   3.175  10.621  0.1043  0.8304  0.8428
  993MOL0     C33977  10.192   3.119  10.711 -0.6727 -1.0829  0.3512
  993MOL0     C33978  10.187   3.170  10.837 -0.1103 -0.0110  0.8460
  993MOL0     O33979  10.110   3.101  10.915  0.0685 -0.3019 -0.0600
  993MOL0     C33980  10.130   3.107  11.063 -0.8401  0.5926  0.5528
  993MOL0     C33981  10.091   2.973  11.112  0.3269  0.7352  0.2264
  993MOL0     C33982  10.101   2.965  11.266 -0.1881  0.3017 -0.0345
  993MOL0     C33983  10.018   2.851  11.322  1.4697 -0.2614 -0.2460
  993MOL0     C33984  10.042   2.831  11.462 -0.2907 -0.5226  0.4074
  993MOL0     C33985  10.073   2.794  11.574 -0.4659 -0.7151 -0.0773
  993MOL0     C33986  10.265   3.283  10.862  0.7894 -1.0492  0.8598
  993MOL0     C33987  10.334   3.351  10.759 -0.3392  0.0222 -0.9283
  993MOL0     H33988  10.248   3.506  10.188 -0.2417  1.9658 -1.4293
  993MOL0     H33989  10.357   3.578   9.984 -0.4416 -0.9170 -0.7459
  993MOL0     H33990  10.826   3.566   9.925  0.6296  0.3403  0.3861
  993MOL0     H33991  10.732   3.420   9.922  2.1962  0.6324 -0.0711
  993MOL0     H33992  10.748   3.621   9.694  1.5338 -0.3284 -1.0675
  993MOL0     H33993  10.825   3.473   9.701  1.1085  0.2983  2.3289
  993MOL0     H33994  10.600   3.352   9.694 -1.9882  0.1931  0.8766
  993MOL0     H33995  10.512   3.505   9.700 -0.2497 -0.7723  0.4521
  993MOL0     H33996  10.635   3.574   9.483  0.6477  0.8516  2.0711
  993MOL0     H33997  10.688   3.405   9.465  1.1069  0.0842  0.3264
  993MOL0     H33998  10.521   3.416   9.319  1.5695 -1.4380  0.4234
  993MOL0     H33999  10.457   3.325   9.457 -0.5952 -0.1703  0.2203
  993MOL0     H34000  10.343   3.521   9.535 -1.3174 -0.2544 -2.3018
  993MOL0     H34001  10.421   3.615   9.419 -0.8093  0.9731  2.0945
  993MOL0     H34002  10.285   3.481   9.236  2.9102 -0.9737 -0.0575
  993MOL0     H34003  10.239   3.361   9.350 -0.1768  0.3423 -1.6428
  993MOL0     H34004  10.059   3.527   9.294 -1.9274  3.4511 -0.1245
  993MOL0     H34005  10.146   3.654   9.383 -0.1705  0.2790  1.7131
  993MOL0     H34006   9.884   3.396   9.443  0.5347  0.1791  1.4679
  993MOL0     H34007   9.784   3.278   9.651  1.9806  1.8692 -1.8332
  993MOL0     H34008   9.894   3.244   9.787 -0.7482 -0.5261  1.0733
  993MOL0     H34009   9.815   3.438   9.905 -2.4710  2.1683  1.0285
  993MOL0     H34010   9.685   3.332   9.879 -1.3540 -1.7722 -2.5529
  993MOL0     H34011   9.747   3.563   9.695  4.3668 -2.3569  2.4154
  993MOL0     H34012   9.636   3.577   9.836 -0.6407 -1.2992  0.2206
  993MOL0     H34013   9.503   3.364   9.729 -0.3121 -0.0379 -0.4953
  993MOL0     H34014   9.589   3.383   9.588 -2.6699 -0.7453 -1.0219
  993MOL0     H34015   9.404   3.285   9.502 -2.6266 -3.4648 -1.6938
  993MOL0     H34016   9.281   3.118   9.426 -0.6442 -2.0206 -0.8396
  993MOL0     H34017   9.108   3.138   9.390 -0.1919 -0.8360 -2.2281
  993MOL0     H34018   9.234   3.180   9.275 -3.2816  0.8888  0.1226
  993MOL0     H34019   8.833   3.134   9.280 -2.4748  3.0577  1.9890
  993MOL0     H34020   8.654   3.074   9.182 -3.6131  0.4232 -1.5756
  993MOL0     H34021   8.391   3.062   8.925 -1.2694 -0.4990  1.8381
  993MOL0     H34022   8.524   2.990   9.003  0.2265 -0.5198 -1.4448
  993MOL0     H34023   8.424   3.171   9.208 -3.1542  1.6439  0.4559
  993MOL0     H34024   8.294   3.166   9.094  0.8529 -1.0096 -0.9424
  993MOL0     H34025   8.394   2.883   9.170 -2.7980 -1.9713 -1.4165
  993MOL0     H34026   8.233   2.957   9.142  1.2957  0.2632 -3.9499
  993MOL0     H34027   8.408   2.999   9.374  0.9906  1.7699 -3.6514
  993MOL0     H34028   8.252   3.074   9.353 -0.9324 -0.6193 -2.1015
  993MOL0     H34029   8.224   2.882   9.519  0.9573 -2.7039  1.0763
  993MOL0     H34030   8.282   2.769   9.407 -1.3245  0.1117  2.5480
  993MOL0     H34031   8.034   2.927   9.341 -0.3674  0.6693 -0.8161
  993MOL0     H34032   8.097   2.782   9.267 -0.5791  2.0379 -0.5003
  993MOL0     H34033   8.035   2.749   9.562 -0.8444 -1.4003 -0.1598
  993MOL0     H34034   8.064   2.634   9.419 -2.7848 -1.9831  1.0765
  993MOL0     H34035   7.837   2.738   9.338 -3.3994  2.1459  0.8464
  993MOL0     H34036   7.828   2.831   9.480 -0.2408  0.2663  0.7216
  993MOL0     H34037   8.694   3.364   8.876  0.3850 -3.2452 -1.7325
  993MOL0     H34038   8.931   3.435   8.987  0.3136 -0.2849  0.2248
  993MOL0     H34039   9.066   3.635   9.444  0.6662 -0.6691 -0.0952
  993MOL0     H34040   9.270   3.691   9.572 -2.4793  1.9129 -1.6022
  993MOL0     H34041  10.744   3.514  10.154 -0.5590  4.4300 -3.7048
  993MOL0     H34042  10.639   3.405  10.356 -1.5068 -1.6491  1.4590
  993MOL0     H34043  10.298   3.131  10.523  0.0657  2.4269  0.0809
  993MOL0     H34044  10.134   3.032  10.682 -2.9419 -1.2286  4.5218
  993MOL0     H34045  10.236   3.124  11.087 -0.6456  1.9389 -1.0666
  993MOL0     H34046  10.067   3.187  11.103 -1.9514  0.1782 -0.3475
  993MOL0     H34047  10.146   2.893  11.062  0.3118  0.4259  0.6960
  993MOL0     H34048   9.986   2.955  11.088  0.3830 -2.7828  1.9964
  993MOL0     H34049  10.078   3.059  11.315  2.3932 -0.3216  2.6529
  993MOL0     H34050  10.206   2.938  11.281 -0.4771 -2.2125 -1.7472
  993MOL0     H34051  10.029   2.758  11.265 -3.9763 -1.6116  0.3047
  993MOL0     H34052   9.910   2.871  11.318  1.1200 -1.2774  2.0422
  993MOL0     H34053  10.094   2.768  11.676 -0.1918  0.2674  0.1288
  993MOL0     H34054  10.245   3.329  10.958 -0.7345  0.2754 -0.0531
  993MOL0     H34055  10.377   3.450  10.775  1.9124 -0.5363 -2.9424
  994MOL0     O34056   0.635   6.800   1.976 -0.5276  0.1230 -0.0743
  994MOL0     C34057   0.530   6.780   2.035  0.2371 -0.6034  0.3494
  994MOL0     O34058   0.501   6.669   2.102  0.2558 -0.0985 -0.5858
  994MOL0     C34059   0.602   6.572   2.098 -0.5147 -0.0098 -0.3048
  994MOL0     C34060   0.564   6.444   2.051 -0.3932 -0.4781 -1.1915
  994MOL0     C34061   0.649   6.331   2.065  0.2357  0.2421  1.3691
  994MOL0     C34062   0.778   6.348   2.114  0.9230  0.3870 -0.0908
  994MOL0     O34063   0.846   6.233   2.148 -0.0763  0.8019  0.5801
  994MOL0     C34064   0.954   6.213   2.055  0.3356  0.1599  0.0407
  994MOL0     C34065   1.017   6.073   2.058 -1.2079  0.6339  1.0244
  994MOL0     C34066   1.125   6.075   1.951 -0.1051  0.2404 -0.3943
  994MOL0     C34067   1.211   5.954   1.954 -0.6977  0.5583  0.7794
  994MOL0     C34068   1.345   5.970   1.886  0.3545  0.1897 -0.1666
  994MOL0     C34069   1.341   5.963   1.730  0.4233 -0.3824  0.1195
  994MOL0     C34070   1.479   5.983   1.667 -1.1818 -1.1886  0.2730
  994MOL0     C34071   1.469   6.025   1.512  0.0391  0.2886  0.4895
  994MOL0     N34072   1.407   5.922   1.418 -0.9080  0.2218 -0.7060
  994MOL0     C34073   1.427   5.786   1.430  0.7460  0.0850 -0.3105
  994MOL0     C34074   1.355   5.734   1.326  0.1382  0.0049 -0.6565
  994MOL0     C34075   1.306   5.594   1.295  0.8908 -0.1973  0.1831
  994MOL0     C34076   1.158   5.602   1.295 -0.5928  0.4928  0.3376
  994MOL0     C34077   1.100   5.473   1.347  0.3702  1.1465  0.0543
  994MOL0     C34078   0.947   5.448   1.320 -0.0070  0.0516  0.2559
  994MOL0     O34079   0.901   5.343   1.395  0.3102  0.1636 -0.1802
  994MOL0     C34080   0.765   5.346   1.411  0.5628  0.2743 -0.0183
  994MOL0     C34081   0.726   5.316   1.536 -0.1643  0.1824 -0.1559
  994MOL0     C34082   0.592   5.323   1.576  0.1342  0.2897 -0.8582
  994MOL0     C34083   0.565   5.315   1.724 -0.4733  0.8980  0.3247
  994MOL0     C34084   0.490   5.343   1.477  0.3428  1.0291 -0.2371
  994MOL0     C34085   0.341   5.345   1.503 -0.3886 -0.6543 -0.7131
  994MOL0     O34086   0.256   5.328   1.390  0.0946  0.3207 -0.7333
  994MOL0     C34087   0.117   5.333   1.406  0.1669  0.2889  0.0007
  994MOL0     C34088   0.046   5.218   1.430  0.4487  0.4481  0.2569
  994MOL0     C34089  -0.088   5.221   1.461  0.3283  0.0999  0.1061
  994MOL0     C34090  -0.159   5.338   1.450  0.0751 -0.0777  0.6306
  994MOL0     O34091  -0.301   5.353   1.456 -0.3593 -0.1586 -0.6840
  994MOL0     C34092  -0.375   5.237   1.453 -0.7933 -0.2244 -0.2764
  994MOL0     C34093  -0.417   5.204   1.603 -0.3450  0.1825  0.1217
  994MOL0     C34094  -0.492   5.068   1.631 -0.4352 -0.6065 -0.1105
  994MOL0     C34095  -0.631   5.071   1.556 -0.4513  0.0266  0.2978
  994MOL0     C34096  -0.726   4.971   1.618 -0.2280 -0.6489 -0.5466
  994MOL0     C34097  -0.872   4.977   1.552 -0.3394 -0.1997  0.7730
  994MOL0     C34098  -0.859   4.890   1.426 -0.2988 -0.2064  0.0016
  994MOL0     C34099  -0.863   4.743   1.452 -1.9076  0.0498  0.1172
  994MOL0    Cl34100  -0.960   4.679   1.590 -0.5257 -0.3171  0.3398
  994MOL0     C34101  -0.088   5.456   1.427 -0.6949 -0.2468  0.3710
  994MOL0     C34102   0.052   5.454   1.412  0.1738  0.6099 -0.4483
  994MOL0     O34103   0.307   5.382   1.613  0.2126  0.1694  0.1889
  994MOL0     C34104   0.532   5.362   1.345 -0.5856  0.5552 -0.3600
  994MOL0     C34105   0.673   5.371   1.313  1.1814 -0.1005  0.1779
  994MOL0     N34106   1.308   5.843   1.246  0.0030 -0.5062 -0.3220
  994MOL0     N34107   1.360   5.949   1.295  0.6234 -0.6185  0.6455
  994MOL0     C34108   0.824   6.478   2.145  0.4044  0.3088  0.1411
  994MOL0     C34109   0.738   6.586   2.145  0.4214  1.4296 -1.2262
  994MOL0     C34110   0.432   6.887   2.036 -0.9145 -0.4282  0.1146
  994MOL0     C34111   0.463   7.003   1.968  0.2944 -0.4292 -0.8873
  994MOL0     C34112   0.371   7.101   1.962  0.5489 -0.6904  0.1686
  994MOL0     C34113   0.248   7.100   2.025  1.5162  1.0991  0.8890
  994MOL0     O34114   0.165   7.213   2.037 -0.4834 -0.3685 -0.2204
  994MOL0     C34115   0.033   7.216   2.101 -0.3247 -0.0597  1.1335
  994MOL0     C34116  -0.067   7.126   2.018 -0.9794 -1.1001  1.0924
  994MOL0     C34117  -0.201   7.148   2.092 -0.3780  0.9229  0.0424
  994MOL0     C34118  -0.318   7.067   2.037 -0.4419 -0.5037  0.6679
  994MOL0     C34119  -0.354   7.115   1.900  0.3516 -0.6340  0.2590
  994MOL0     C34120  -0.381   7.137   1.783 -0.9403 -0.1932 -0.1695
  994MOL0     C34121   0.210   6.979   2.086  0.7053 -0.9076  0.2814
  994MOL0     C34122   0.310   6.879   2.103 -0.4578 -0.2060  1.3413
  994MOL0     H34123   0.466   6.441   2.006 -1.4473 -1.7675  1.0038
  994MOL0     H34124   0.603   6.237   2.035 -3.7827  2.3329  0.2217
  994MOL0     H34125   0.931   6.240   1.951 -0.6144  2.8465  0.8924
  994MOL0     H34126   1.032   6.277   2.096  2.9062 -3.1226  0.6923
  994MOL0     H34127   1.063   6.039   2.152  1.8992  0.0095 -0.5766
  994MOL0     H34128   0.941   6.002   2.025  0.9026 -1.3567  0.1775
  994MOL0     H34129   1.079   6.096   1.854 -0.3147  0.4370 -0.2544
  994MOL0     H34130   1.188   6.162   1.967 -2.1895  1.7722 -0.0831
  994MOL0     H34131   1.230   5.923   2.058 -1.1548 -0.7653  0.4847
  994MOL0     H34132   1.166   5.865   1.910  4.1349 -0.9941 -1.7304
  994MOL0     H34133   1.396   6.059   1.925 -0.7807  1.4910 -1.5618
  994MOL0     H34134   1.408   5.882   1.905  0.7044  1.1504  4.2873
  994MOL0     H34135   1.305   5.864   1.703 -2.5592  0.6127  0.1341
  994MOL0     H34136   1.278   6.042   1.689  0.5924 -2.0633 -3.8931
  994MOL0     H34137   1.534   6.057   1.726 -2.9328  1.3994 -1.1227
  994MOL0     H34138   1.532   5.888   1.671  1.9259  0.1901 -3.0968
  994MOL0     H34139   1.572   6.052   1.486  0.2666 -1.1296 -0.1621
  994MOL0     H34140   1.411   6.117   1.499 -2.1044 -0.8648  1.4158
  994MOL0     H34141   1.464   5.732   1.517  2.1488 -0.4827 -1.2145
  994MOL0     H34142   1.349   5.550   1.205  0.3479  0.6892 -0.5339
  994MOL0     H34143   1.339   5.546   1.387  3.2551 -0.9177 -0.9672
  994MOL0     H34144   1.133   5.630   1.192  0.3041 -0.4091 -0.1344
  994MOL0     H34145   1.111   5.685   1.350 -1.3490 -0.3709  1.0175
  994MOL0     H34146   1.122   5.465   1.454 -2.6240 -1.0283  0.6443
  994MOL0     H34147   1.146   5.384   1.303 -4.1758 -1.2799 -0.3959
  994MOL0     H34148   0.938   5.430   1.212  1.0954  2.7357 -0.3809
  994MOL0     H34149   0.888   5.537   1.345 -0.5947 -0.2396 -0.0734
  994MOL0     H34150   0.800   5.284   1.609 -0.7088  1.4000  0.9786
  994MOL0     H34151   0.595   5.409   1.772 -1.7543  1.0128  0.9291
  994MOL0     H34152   0.459   5.304   1.747 -0.9919 -0.0216 -2.2283
  994MOL0     H34153   0.621   5.233   1.771 -1.9819  0.1475  0.8848
  994MOL0     H34154   0.112   5.133   1.441 -0.7421 -0.5993 -0.4904
  994MOL0     H34155  -0.139   5.126   1.477 -2.1037  0.5167 -3.8684
  994MOL0     H34156  -0.468   5.251   1.398 -0.6410 -3.1308 -1.4449
  994MOL0     H34157  -0.326   5.146   1.417  0.6585 -1.3687  4.0785
  994MOL0     H34158  -0.325   5.190   1.660  0.7954  2.0870 -1.1323
  994MOL0     H34159  -0.475   5.291   1.633  0.0944  1.4353 -2.3669
  994MOL0     H34160  -0.514   5.058   1.738 -1.2027  0.2821 -0.1748
  994MOL0     H34161  -0.435   4.978   1.603  1.0274 -0.1099  1.0876
  994MOL0     H34162  -0.674   5.171   1.557 -1.1385 -0.2347  2.4131
  994MOL0     H34163  -0.609   5.046   1.452  2.1424  1.1142  0.4951
  994MOL0     H34164  -0.748   5.001   1.721 -0.7256  0.0879 -0.8618
  994MOL0     H34165  -0.680   4.873   1.632 -0.4091 -0.9131 -1.6992
  994MOL0     H34166  -0.948   4.948   1.625  0.3247 -2.5809  0.6023
  994MOL0     H34167  -0.896   5.083   1.541  1.4580  0.7220  4.3012
  994MOL0     H34168  -0.769   4.903   1.365 -0.2974 -0.3245 -0.0220
  994MOL0     H34169  -0.941   4.921   1.361  0.7971  0.3652 -1.1468
  994MOL0     H34170  -0.761   4.719   1.483 -1.4659  1.4265 -0.2047
  994MOL0     H34171  -0.890   4.688   1.362  0.1093  0.1622 -0.6112
  994MOL0     H34172  -0.146   5.548   1.431 -0.4326 -0.0129 -0.6545
  994MOL0     H34173   0.101   5.551   1.418  0.7337  0.2319  2.0507
  994MOL0     H34174   0.464   5.383   1.264 -0.7452 -6.4603 -2.7756
  994MOL0     H34175   0.699   5.401   1.212 -1.9437  0.5944 -0.5278
  994MOL0     H34176   0.925   6.474   2.185  0.6218 -5.5024 -0.1688
  994MOL0     H34177   0.773   6.677   2.194  0.7385  0.8143 -0.2854
  994MOL0     H34178   0.558   7.010   1.916  0.1482  1.1934 -1.0104
  994MOL0     H34179   0.393   7.197   1.917  2.3860 -0.6737  1.0372
  994MOL0     H34180   0.047   7.182   2.204  0.1681  1.0704  1.4549
  994MOL0     H34181  -0.001   7.320   2.095 -2.3395 -0.7836 -1.4535
  994MOL0     H34182  -0.035   7.022   2.005  1.9534  0.0188 -1.7692
  994MOL0     H34183  -0.074   7.162   1.915  1.8502 -0.8919  0.9046
  994MOL0     H34184  -0.238   7.251   2.096 -1.5044  0.5743 -1.0075
  994MOL0     H34185  -0.191   7.117   2.197  1.5778  0.2107 -0.3185
  994MOL0     H34186  -0.404   7.081   2.102 -0.8857 -0.9573  0.1867
  994MOL0     H34187  -0.298   6.960   2.044 -0.6497 -0.5335  0.8149
  994MOL0     H34188  -0.403   7.127   1.679 -6.0301 -1.0808  0.7263
  994MOL0     H34189   0.124   6.964   2.151  0.2855 -0.5435 -0.1785
  994MOL0     H34190   0.288   6.789   2.160  1.9195  0.1740  3.0165
  995MOL0     O34191   9.827   1.303   5.762 -1.0259  0.4401  0.0272
  995MOL0     C34192   9.889   1.369   5.843  0.4586 -0.2719 -0.3259
  995MOL0     O34193  10.007   1.425   5.823 -0.2268  0.1490 -0.6978
  995MOL0     C34194  10.084   1.386   5.712  1.7761  0.8275  0.5357
  995MOL0     C34195  10.202   1.308   5.719  0.8709 -0.1673 -0.1809
  995MOL0     C34196  10.269   1.281   5.603  0.0614 -0.1551 -0.7334
  995MOL0     C34197  10.220   1.331   5.482  0.4135 -0.0582  0.7825
  995MOL0     O34198  10.310   1.300   5.378 -0.1970 -0.1391 -0.1099
  995MOL0     C34199  10.281   1.356   5.250 -0.2132 -0.0940 -0.3572
  995MOL0     C34200  10.377   1.310   5.143 -0.2997 -0.0958 -0.4792
  995MOL0     C34201  10.506   1.387   5.141 -0.8269 -0.6889  0.7459
  995MOL0     C34202  10.579   1.382   5.003 -0.5756 -0.5658  0.1287
  995MOL0     C34203  10.700   1.481   4.983  0.4049 -0.2498 -0.2675
  995MOL0     C34204  10.726   1.476   4.832  0.8659 -0.0562  0.1945
  995MOL0     C34205  10.857   1.557   4.808  0.6844  0.3069 -0.3253
  995MOL0     C34206  10.872   1.571   4.662  0.5671 -0.6576  0.3784
  995MOL0     N34207  10.887   1.446   4.583  0.9363 -0.3370 -0.7086
  995MOL0     C34208  10.977   1.347   4.606 -0.6862 -0.4533 -0.3240
  995MOL0     C34209  10.930   1.242   4.530  0.4328  0.4059 -0.2268
  995MOL0     C34210  11.016   1.122   4.520 -0.2898  0.2049 -0.6909
  995MOL0     C34211  11.145   1.154   4.444 -0.2669  0.8247  0.3740
  995MOL0     C34212  11.218   1.018   4.409 -0.1202 -0.3967 -0.1450
  995MOL0     C34213  11.360   1.040   4.337 -0.1144  0.7311  0.3626
  995MOL0     O34214  11.348   1.090   4.202 -0.1125 -0.7321 -0.1389
  995MOL0     C34215  11.459   1.117   4.132  1.5440 -0.1777 -0.2965
  995MOL0     C34216  11.437   1.140   4.001 -0.0971  0.0561  0.0418
  995MOL0     C34217  11.536   1.157   3.901  0.5216 -0.4031  0.0072
  995MOL0     C34218  11.487   1.190   3.759 -1.2644  0.4857  0.8462
  995MOL0     C34219  11.665   1.134   3.940 -0.2244 -0.3253  0.1345
  995MOL0     C34220  11.787   1.142   3.855  0.4851  0.3087  0.1508
  995MOL0     O34221  11.919   1.163   3.909  0.3223 -0.5042  0.2060
  995MOL0     C34222  12.030   1.164   3.831  0.3463  0.9840 -0.5857
  995MOL0     C34223  12.063   1.044   3.762 -0.0633  0.1144  0.4436
  995MOL0     C34224  12.185   1.031   3.699 -0.0474  0.3916 -0.1695
  995MOL0     C34225  12.281   1.136   3.698 -0.4641  0.5015  0.7682
  995MOL0     O34226  12.415   1.128   3.649 -0.2710 -0.9913 -0.0649
  995MOL0     C34227  12.466   1.001   3.625 -0.0512 -0.7020  0.5330
  995MOL0     C34228  12.448   0.962   3.468 -0.8961 -0.9911 -0.0802
  995MOL0     C34229  12.495   1.080   3.379  0.5419 -0.2203  0.9823
  995MOL0     C34230  12.500   1.053   3.224  0.7924  0.5061  1.5575
  995MOL0     C34231  12.485   1.183   3.134 -0.3978 -0.1240 -0.0759
  995MOL0     C34232  12.622   1.245   3.134 -1.3174  0.1584  0.3084
  995MOL0     C34233  12.629   1.371   3.043 -0.1199 -0.4574 -0.4431
  995MOL0     C34234  12.772   1.417   3.005  0.1880 -0.4779 -0.4141
  995MOL0    Cl34235  12.748   1.558   2.913  0.1893 -0.1111  0.3183
  995MOL0     C34236  12.245   1.252   3.766  0.1191 -0.0172 -0.2668
  995MOL0     C34237  12.120   1.264   3.831 -0.9770  0.1782  0.4563
  995MOL0     O34238  11.765   1.119   3.737 -0.1925  1.0008  0.2631
  995MOL0     C34239  11.687   1.107   4.075  0.0636  0.0279  0.5353
  995MOL0     C34240  11.590   1.104   4.169  0.0245  0.1344  0.2273
  995MOL0     N34241  10.803   1.280   4.483 -0.2784 -0.2658  0.6887
  995MOL0     N34242  10.783   1.401   4.513 -0.5971 -1.0317  0.5003
  995MOL0     C34243  10.094   1.401   5.468 -0.0354  0.8530 -0.7215
  995MOL0     C34244  10.041   1.440   5.589 -0.9340  0.3264 -0.5095
  995MOL0     C34245   9.819   1.389   5.972 -0.3861 -1.1363  0.3852
  995MOL0     C34246   9.873   1.488   6.053 -1.2279  0.4752  0.1800
  995MOL0     C34247   9.832   1.510   6.187 -0.4500  0.0899  0.4444
  995MOL0     C34248   9.733   1.428   6.246  0.4229 -0.1657 -0.4489
  995MOL0     O34249   9.675   1.474   6.365  0.3727 -0.0962 -0.4249
  995MOL0     C34250   9.619   1.382   6.458 -0.0604 -1.0583 -0.7735
  995MOL0     C34251   9.463   1.372   6.426 -0.7328 -0.9928  0.0735
  995MOL0     C34252   9.396   1.513   6.407 -0.3633  1.1908 -0.0512
  995MOL0     C34253   9.391   1.596   6.538  0.9169 -0.6120  0.1908
  995MOL0     C34254   9.348   1.523   6.661 -0.0345  1.1541 -0.0163
  995MOL0     C34255   9.318   1.454   6.758 -0.0563  0.4429  0.5254
  995MOL0     C34256   9.672   1.336   6.158  0.1040  0.2699 -0.4277
  995MOL0     C34257   9.719   1.314   6.024  0.4737 -0.1867 -0.1580
  995MOL0     H34258  10.217   1.274   5.821  0.9752 -1.6757 -0.6651
  995MOL0     H34259  10.352   1.212   5.613  0.6151  0.7220  1.1778
  995MOL0     H34260  10.181   1.324   5.222  0.1953 -0.9033 -0.9296
  995MOL0     H34261  10.280   1.465   5.255  1.6522 -0.0483 -0.0397
  995MOL0     H34262  10.397   1.207   5.173 -0.1505 -0.1085 -0.6182
  995MOL0     H34263  10.319   1.313   5.050 -2.0509 -1.1686  0.5203
  995MOL0     H34264  10.485   1.493   5.161 -2.7677 -1.0710  0.9583
  995MOL0     H34265  10.562   1.372   5.234  1.6784 -0.5089 -0.6589
  995MOL0     H34266  10.628   1.285   4.991 -1.3293 -0.6005 -5.1818
  995MOL0     H34267  10.495   1.395   4.934 -0.0344  0.4659 -0.3568
  995MOL0     H34268  10.663   1.580   5.011 -0.3914 -0.8270  0.7792
  995MOL0     H34269  10.780   1.456   5.053 -2.2284  1.7542  3.8645
  995MOL0     H34270  10.734   1.373   4.798  0.4046  0.6668 -2.3392
  995MOL0     H34271  10.646   1.524   4.774  1.3585 -3.0008 -3.3142
  995MOL0     H34272  10.870   1.657   4.852 -0.5822  0.5283 -0.4264
  995MOL0     H34273  10.941   1.499   4.848  0.9993  0.1505 -1.1950
  995MOL0     H34274  10.951   1.643   4.642  0.2770 -0.7860 -1.4311
  995MOL0     H34275  10.785   1.621   4.619  1.8391  0.9848 -0.3676
  995MOL0     H34276  11.072   1.340   4.659 -1.3958 -3.3881  0.7698
  995MOL0     H34277  11.044   1.099   4.623  1.4469  0.0144 -1.1575
  995MOL0     H34278  10.959   1.040   4.475 -0.5114  0.3199 -0.6205
  995MOL0     H34279  11.215   1.220   4.496 -0.7196  0.4748  1.4548
  995MOL0     H34280  11.123   1.202   4.348 -1.3564  4.3578  2.2544
  995MOL0     H34281  11.155   0.960   4.341  0.6480 -0.0632 -1.1736
  995MOL0     H34282  11.219   0.962   4.503 -2.8572 -0.3531 -0.0004
  995MOL0     H34283  11.408   0.942   4.331  2.3630  1.7488  1.8997
  995MOL0     H34284  11.427   1.096   4.403  2.4285 -3.0749  1.3375
  995MOL0     H34285  11.334   1.149   3.968 -0.1891 -2.7315 -0.6773
  995MOL0     H34286  11.545   1.281   3.740 -1.2609  0.8228  2.3754
  995MOL0     H34287  11.487   1.107   3.688 -0.9773  0.1648  1.2197
  995MOL0     H34288  11.382   1.220   3.766 -1.6014  0.1474 -1.7964
  995MOL0     H34289  11.988   0.965   3.767 -0.2932  0.2779 -0.3760
  995MOL0     H34290  12.208   0.942   3.641  1.3084 -0.0951  1.0692
  995MOL0     H34291  12.574   1.006   3.641  0.2820 -1.2832 -1.3465
  995MOL0     H34292  12.415   0.933   3.694 -0.3806  0.1406  1.1368
  995MOL0     H34293  12.512   0.878   3.442 -0.7903 -1.3806  1.3759
  995MOL0     H34294  12.341   0.945   3.454 -0.8714 -1.9752  0.7922
  995MOL0     H34295  12.591   1.130   3.396 -0.4248  2.5007 -0.9191
  995MOL0     H34296  12.416   1.155   3.387  1.3633  0.8433 -0.5359
  995MOL0     H34297  12.589   0.994   3.199  0.0274 -0.1865  0.3963
  995MOL0     H34298  12.422   0.988   3.185 -0.3020  2.1592  0.8790
  995MOL0     H34299  12.409   1.255   3.164 -2.2167 -1.0727 -2.1486
  995MOL0     H34300  12.467   1.158   3.029  3.4284  1.0497 -1.1660
  995MOL0     H34301  12.658   1.275   3.233  0.8394 -0.2970 -0.2849
  995MOL0     H34302  12.690   1.165   3.105 -0.9565  1.0774 -1.5052
  995MOL0     H34303  12.559   1.452   3.066  0.5835 -0.2934  1.2436
  995MOL0     H34304  12.595   1.346   2.942  1.8223  0.6005 -1.4110
  995MOL0     H34305  12.815   1.337   2.944 -1.7686 -0.7513 -1.5140
  995MOL0     H34306  12.836   1.431   3.093  1.2501 -2.4432 -0.8089
  995MOL0     H34307  12.312   1.337   3.758  0.4005 -0.3177 -1.2330
  995MOL0     H34308  12.089   1.350   3.889 -0.9573 -0.3965  1.3359
  995MOL0     H34309  11.789   1.092   4.109  0.3861  2.0501  0.5763
  995MOL0     H34310  11.622   1.089   4.272 -4.3003  0.7798  1.8581
  995MOL0     H34311  10.047   1.453   5.386 -0.0285 -0.5146 -1.6256
  995MOL0     H34312   9.954   1.504   5.584  0.2911  1.9676 -1.7726
  995MOL0     H34313   9.946   1.563   6.023 -2.3359  1.9393  0.9588
  995MOL0     H34314   9.882   1.584   6.248 -0.9068 -1.3940  2.7293
  995MOL0     H34315   9.658   1.281   6.439  0.9747 -0.7771 -0.2397
  995MOL0     H34316   9.627   1.413   6.563 -1.5817  2.4794 -1.5690
  995MOL0     H34317   9.414   1.330   6.514  2.0516  1.5026  3.0843
  995MOL0     H34318   9.452   1.306   6.339  0.0417 -0.0897 -0.7366
  995MOL0     H34319   9.292   1.491   6.378  0.3966 -4.1083  0.1810
  995MOL0     H34320   9.443   1.570   6.326  0.2952  0.3307 -0.2904
  995MOL0     H34321   9.328   1.685   6.528 -0.2906 -1.6002 -1.6135
  995MOL0     H34322   9.489   1.641   6.553 -0.9628  3.5629  1.4365
  995MOL0     H34323   9.288   1.382   6.832  2.4203 -0.1073  1.0817
  995MOL0     H34324   9.590   1.273   6.192 -0.1555 -0.1192 -1.7023
  995MOL0     H34325   9.676   1.236   5.962 -0.2741  0.1711 -0.0933
  996MOL0     O34326   0.114   7.883   8.436  0.1640 -0.8191 -0.5730
  996MOL0     C34327   0.108   7.781   8.371  0.0538  0.7699 -0.3671
  996MOL0     O34328   0.210   7.725   8.299  0.6346  0.5009  0.4098
  996MOL0     C34329   0.344   7.762   8.316  0.3477  0.1894  0.6069
  996MOL0     C34330   0.427   7.773   8.204  0.1968 -0.1768  0.4347
  996MOL0     C34331   0.562   7.823   8.213 -0.4119  0.4198 -0.4160
  996MOL0     C34332   0.622   7.853   8.336  0.8394 -0.1142  0.3554
  996MOL0     O34333   0.746   7.899   8.359  0.3566  0.1057 -0.2636
  996MOL0     C34334   0.829   7.961   8.256  0.0358  0.8658 -0.6552
  996MOL0     C34335   0.928   8.065   8.309  0.3932  0.0344 -0.8381
  996MOL0     C34336   0.926   8.200   8.247  0.4328 -0.6661 -1.4823
  996MOL0     C34337   1.013   8.201   8.124  0.4533  0.6531 -0.6573
  996MOL0     C34338   1.162   8.223   8.161 -0.6367 -0.0361  0.2673
  996MOL0     C34339   1.252   8.245   8.034 -0.1345 -0.0659 -0.3616
  996MOL0     C34340   1.397   8.268   8.067 -0.2722 -0.7785 -0.5779
  996MOL0     C34341   1.477   8.308   7.934  0.1934 -0.2568  0.0966
  996MOL0     N34342   1.622   8.334   7.957  0.0741 -1.0136 -0.4231
  996MOL0     C34343   1.687   8.451   7.978 -0.7428 -1.0046  0.2675
  996MOL0     C34344   1.811   8.419   8.008  0.2801  0.2223 -0.5624
  996MOL0     C34345   1.908   8.531   8.045 -0.6434 -0.0526  0.4031
  996MOL0     C34346   2.063   8.502   8.032  0.5887 -0.8940  0.5441
  996MOL0     C34347   2.101   8.412   8.143 -0.3738  0.0033 -0.3735
  996MOL0     C34348   2.248   8.375   8.132 -0.5646  0.6508  0.0583
  996MOL0     O34349   2.339   8.482   8.152  0.0995 -0.6926  0.0090
  996MOL0     C34350   2.475   8.457   8.175 -0.0148  0.1141  0.0171
  996MOL0     C34351   2.539   8.335   8.190  0.5338 -0.2641 -0.1693
  996MOL0     C34352   2.671   8.324   8.221  0.2690  0.4689 -0.3370
  996MOL0     C34353   2.726   8.186   8.224  0.4031  0.2234  0.3178
  996MOL0     C34354   2.746   8.448   8.261  0.1492  0.4433 -0.0755
  996MOL0     C34355   2.881   8.454   8.318 -0.1875  0.1848  0.2428
  996MOL0     O34356   2.899   8.545   8.416 -0.2438 -0.0196  0.0208
  996MOL0     C34357   3.017   8.581   8.466 -0.8090  0.6626 -0.5276
  996MOL0     C34358   3.080   8.486   8.545  0.5629 -0.3358 -0.4593
  996MOL0     C34359   3.195   8.518   8.615  1.2657  0.5779  0.1842
  996MOL0     C34360   3.256   8.645   8.603 -0.1207 -0.7527  0.0730
  996MOL0     O34361   3.379   8.671   8.654 -0.8008  1.0851  0.2880
  996MOL0     C34362   3.486   8.602   8.580  1.4744  0.8140 -0.0431
  996MOL0     C34363   3.549   8.708   8.492 -0.0781 -0.6654 -0.0428
  996MOL0     C34364   3.661   8.657   8.407 -0.3036 -0.2417  0.6174
  996MOL0     C34365   3.618   8.579   8.280  0.6518 -0.0412 -0.2877
  996MOL0     C34366   3.580   8.675   8.157 -0.5587 -0.4109  0.4148
  996MOL0     C34367   3.516   8.604   8.038 -0.2390  0.5632 -0.1725
  996MOL0     C34368   3.596   8.501   7.967 -0.6784 -0.6205  0.7039
  996MOL0     C34369   3.532   8.435   7.836 -0.3768 -0.6026 -0.6214
  996MOL0    Cl34370   3.558   8.531   7.683 -0.3769 -0.6474 -0.0816
  996MOL0     C34371   3.187   8.730   8.522 -0.1883  0.8712 -0.7463
  996MOL0     C34372   3.069   8.703   8.458 -0.2111  0.1546  0.3501
  996MOL0     O34373   2.966   8.378   8.272  0.5259  0.8900 -0.2342
  996MOL0     C34374   2.680   8.570   8.241 -0.5159  0.3400 -0.3216
  996MOL0     C34375   2.551   8.577   8.199 -0.6617 -0.1459  1.2519
  996MOL0     N34376   1.824   8.281   7.993 -0.2022  0.1447 -0.2594
  996MOL0     N34377   1.712   8.232   7.960  1.1255 -0.1434  0.2567
  996MOL0     C34378   0.535   7.829   8.449  1.0580 -0.0265  0.2443
  996MOL0     C34379   0.406   7.785   8.441  0.0568  0.0642 -0.1052
  996MOL0     C34380  -0.022   7.701   8.361  0.5893  0.0447 -0.1884
  996MOL0     C34381  -0.125   7.709   8.453  0.4179  0.8588 -0.0221
  996MOL0     C34382  -0.240   7.627   8.442 -0.4888 -0.5122 -0.5479
  996MOL0     C34383  -0.249   7.537   8.329  0.7060  0.6513  0.1082
  996MOL0     O34384  -0.341   7.435   8.310 -0.1234  0.3398  0.0909
  996MOL0     C34385  -0.462   7.437   8.386  0.4951 -0.8110  0.2981
  996MOL0     C34386  -0.564   7.546   8.330 -0.4229  0.0909  0.5246
  996MOL0     C34387  -0.586   7.529   8.172  0.4364 -1.0782 -0.3200
  996MOL0     C34388  -0.685   7.416   8.135  0.3403  0.5096 -0.3752
  996MOL0     C34389  -0.721   7.419   7.996  0.2903 -0.2898  0.6124
  996MOL0     C34390  -0.776   7.414   7.885  0.6684 -0.2897  0.0784
  996MOL0     C34391  -0.142   7.519   8.243 -0.2428  0.4037 -1.0823
  996MOL0     C34392  -0.031   7.599   8.263  0.2963  0.2605 -0.3911
  996MOL0     H34393   0.380   7.745   8.111 -0.0147  0.6098  0.3009
  996MOL0     H34394   0.614   7.832   8.118 -2.3975 -2.5410 -1.9197
  996MOL0     H34395   0.884   7.885   8.200  0.7475 -2.2767  3.7867
  996MOL0     H34396   0.763   8.014   8.186 -0.3516  0.0989 -0.8788
  996MOL0     H34397   0.910   8.075   8.417  0.2059  0.2135 -0.8866
  996MOL0     H34398   1.025   8.014   8.308  0.5534  0.3437 -0.8887
  996MOL0     H34399   0.828   8.233   8.212  0.4795  2.7109  1.1566
  996MOL0     H34400   0.961   8.276   8.317  3.3623 -4.9663  2.3216
  996MOL0     H34401   0.986   8.116   8.060 -1.6284 -0.9279  2.0888
  996MOL0     H34402   0.986   8.285   8.060  2.2407  0.0251 -2.3261
  996MOL0     H34403   1.164   8.316   8.220 -0.3814 -0.1696  0.4708
  996MOL0     H34404   1.202   8.139   8.218 -1.3202 -0.3234  0.3286
  996MOL0     H34405   1.245   8.168   7.957 -3.0153  1.1252 -1.4344
  996MOL0     H34406   1.226   8.332   7.974  4.3575  0.4830 -1.9086
  996MOL0     H34407   1.415   8.349   8.138 -1.8354 -0.1380 -0.8586
  996MOL0     H34408   1.445   8.177   8.103 -2.6688 -1.2321  1.8110
  996MOL0     H34409   1.440   8.407   7.903 -0.8002 -0.8740 -0.7437
  996MOL0     H34410   1.455   8.233   7.858  1.7556  0.3882 -1.0731
  996MOL0     H34411   1.648   8.552   7.967  0.1686 -0.8156 -1.6796
  996MOL0     H34412   1.877   8.614   7.981 -3.0472 -1.5941 -0.5908
  996MOL0     H34413   1.903   8.560   8.150 -0.9171 -1.8512  0.9210
  996MOL0     H34414   2.110   8.601   8.037  2.9569 -1.8636 -0.8539
  996MOL0     H34415   2.072   8.453   7.935 -2.2694  2.5648 -1.7211
  996MOL0     H34416   2.046   8.319   8.131  0.6440 -0.4691 -1.5000
  996MOL0     H34417   2.082   8.456   8.242 -0.7475 -0.5543 -0.1926
  996MOL0     H34418   2.274   8.327   8.037 -0.2005  0.6810  0.1403
  996MOL0     H34419   2.269   8.299   8.208 -0.3486  1.6116  0.9810
  996MOL0     H34420   2.477   8.248   8.172 -0.7890  0.1731  2.0097
  996MOL0     H34421   2.652   8.106   8.222 -1.5089  1.9114  0.7802
  996MOL0     H34422   2.797   8.177   8.141  0.7287 -1.7896  0.7646
  996MOL0     H34423   2.778   8.173   8.320  1.6642  0.8262 -0.2517
  996MOL0     H34424   3.028   8.390   8.548  0.7422 -0.4492 -0.9315
  996MOL0     H34425   3.227   8.439   8.683 -1.2375 -0.2981  0.4491
  996MOL0     H34426   3.564   8.568   8.649  2.7628  1.6600 -1.0367
  996MOL0     H34427   3.449   8.518   8.522  1.7536 -0.2424  1.2522
  996MOL0     H34428   3.472   8.744   8.423 -0.4728  2.2234  1.7238
  996MOL0     H34429   3.590   8.784   8.560 -0.5154 -0.6487  0.2046
  996MOL0     H34430   3.742   8.599   8.452  0.8839 -1.0003 -2.2641
  996MOL0     H34431   3.703   8.748   8.363 -1.0581 -0.6694 -1.0519
  996MOL0     H34432   3.706   8.520   8.252  2.4401  3.2590 -2.3104
  996MOL0     H34433   3.533   8.515   8.303 -0.3484  1.2323 -0.3513
  996MOL0     H34434   3.676   8.713   8.122 -0.5762 -1.4081 -0.7480
  996MOL0     H34435   3.539   8.772   8.189  3.8634  1.6912  0.5090
  996MOL0     H34436   3.425   8.550   8.066  0.8062 -0.2846  1.8292
  996MOL0     H34437   3.496   8.680   7.962  0.0780  0.7089 -0.1143
  996MOL0     H34438   3.611   8.419   8.038 -1.4957 -2.1654 -0.8127
  996MOL0     H34439   3.692   8.545   7.937 -0.4305 -1.0715  0.8228
  996MOL0     H34440   3.425   8.423   7.856 -0.4344  0.5997 -0.1340
  996MOL0     H34441   3.591   8.343   7.831 -0.0391 -0.4408  0.1762
  996MOL0     H34442   3.240   8.823   8.505 -0.4950  1.4766  1.3377
  996MOL0     H34443   3.024   8.790   8.410 -2.0304 -0.4922  0.8124
  996MOL0     H34444   2.739   8.655   8.274  1.7032 -2.2629  3.2191
  996MOL0     H34445   2.509   8.675   8.179  0.1130  0.5876  2.9788
  996MOL0     H34446   0.588   7.861   8.538  4.0666 -1.5411 -0.8275
  996MOL0     H34447   0.347   7.780   8.532 -1.5910  0.2781 -1.1337
  996MOL0     H34448  -0.122   7.778   8.537 -3.0167 -2.1049  2.9227
  996MOL0     H34449  -0.302   7.633   8.531  0.3070 -0.0980 -0.0005
  996MOL0     H34450  -0.515   7.341   8.383 -1.6017  0.2981 -0.7204
  996MOL0     H34451  -0.442   7.458   8.491  0.2055  1.1800  0.0015
  996MOL0     H34452  -0.519   7.641   8.360 -0.9517 -0.5992  3.8470
  996MOL0     H34453  -0.657   7.534   8.386  0.3623 -0.2594  1.7946
  996MOL0     H34454  -0.490   7.521   8.120  0.2242 -3.8191 -0.3973
  996MOL0     H34455  -0.631   7.621   8.133 -0.8816 -0.9096  1.4674
  996MOL0     H34456  -0.776   7.442   8.188 -1.2402  1.4826 -3.3452
  996MOL0     H34457  -0.646   7.316   8.157 -1.0472  0.1796  0.6798
  996MOL0     H34458  -0.838   7.405   7.798  0.6330 -4.2455  0.3117
  996MOL0     H34459  -0.129   7.451   8.159 -0.4144 -1.1184  0.0650
  996MOL0     H34460   0.059   7.588   8.204  0.6655  2.2461 -0.2860
  997MOL0     O34461   3.378   6.512   7.871  0.3676 -0.3436 -0.2086
  997MOL0     C34462   3.406   6.498   7.991 -0.9338 -0.4344  0.2811
  997MOL0     O34463   3.318   6.468   8.090 -0.4158 -0.3529 -0.1332
  997MOL0     C34464   3.196   6.436   8.057 -0.4343  0.7901 -0.1859
  997MOL0     C34465   3.142   6.327   8.120  0.6564 -0.6138 -0.6217
  997MOL0     C34466   3.021   6.271   8.082  0.5189  0.0009 -0.3342
  997MOL0     C34467   2.936   6.337   7.983  0.4410 -0.0202 -0.8820
  997MOL0     O34468   2.815   6.282   7.962  0.3067  0.2571  0.1631
  997MOL0     C34469   2.719   6.336   7.869  0.4206 -0.4064 -0.8533
  997MOL0     C34470   2.578   6.324   7.924 -0.5129 -0.3507  0.6340
  997MOL0     C34471   2.483   6.351   7.812  0.2732 -0.3353 -0.5860
  997MOL0     C34472   2.330   6.320   7.842  0.4055  0.2039  0.1225
  997MOL0     C34473   2.245   6.364   7.717  0.6873  0.0540 -0.2568
  997MOL0     C34474   2.111   6.287   7.706  0.4398 -0.0154  0.3744
  997MOL0     C34475   2.022   6.309   7.828 -0.6746 -0.3785 -0.3246
  997MOL0     C34476   1.957   6.175   7.873  0.8936 -0.7058 -0.2184
  997MOL0     N34477   1.858   6.185   7.983 -0.1390  0.2108  0.5523
  997MOL0     C34478   1.738   6.250   7.981 -0.2061  0.0016  0.6492
  997MOL0     C34479   1.689   6.236   8.102 -0.5774 -0.2495  0.0385
  997MOL0     C34480   1.557   6.296   8.149 -0.4401  0.5085 -0.2519
  997MOL0     C34481   1.463   6.187   8.201 -0.5187 -0.2521 -0.4150
  997MOL0     C34482   1.316   6.222   8.178  0.6357 -0.5495  0.4160
  997MOL0     C34483   1.269   6.208   8.026 -1.3998  0.1453  0.5113
  997MOL0     O34484   1.131   6.215   8.009  1.1821  0.4378  0.6252
  997MOL0     C34485   1.084   6.240   7.879 -1.0762  0.0092 -0.1593
  997MOL0     C34486   0.966   6.294   7.859  0.6888  0.7209 -0.5493
  997MOL0     C34487   0.917   6.322   7.726 -0.3667 -1.1038 -0.4039
  997MOL0     C34488   0.779   6.375   7.719 -0.3265  0.1424  0.9064
  997MOL0     C34489   1.001   6.285   7.617 -0.5054 -0.0093  0.0224
  997MOL0     C34490   0.966   6.287   7.469  0.2436 -0.6365  0.4158
  997MOL0     O34491   1.049   6.222   7.383 -0.2683  0.0819  0.1551
  997MOL0     C34492   1.000   6.225   7.252 -1.0046  0.8187 -0.8655
  997MOL0     C34493   1.098   6.263   7.163 -0.1334  0.2569  0.2873
  997MOL0     C34494   1.080   6.255   7.029  0.4492  0.0196  0.3065
  997MOL0     C34495   0.958   6.189   6.974  0.2617 -0.4070 -0.2587
  997MOL0     O34496   0.926   6.181   6.845 -0.0157  0.9250  0.8719
  997MOL0     C34497   1.024   6.218   6.742 -0.2521 -0.6150 -0.1937
  997MOL0     C34498   0.963   6.249   6.601  0.4736 -0.1315 -0.0334
  997MOL0     C34499   0.851   6.350   6.603 -0.5449 -0.7044 -0.0567
  997MOL0     C34500   0.896   6.496   6.627 -0.0133  0.6794 -1.1240
  997MOL0     C34501   0.773   6.566   6.701 -0.3420 -0.4397  0.0416
  997MOL0     C34502   0.813   6.715   6.683 -0.2029 -0.4609 -0.1505
  997MOL0     C34503   0.710   6.807   6.735 -1.2058  0.5519  0.9471
  997MOL0     C34504   0.571   6.791   6.677  0.9432  0.1547  0.3990
  997MOL0    Cl34505   0.447   6.905   6.763 -0.6938 -0.0012  0.0918
  997MOL0     C34506   0.865   6.139   7.064 -0.0193  0.2075  1.0748
  997MOL0     C34507   0.891   6.155   7.200  0.6555 -0.0023  0.2660
  997MOL0     O34508   0.872   6.365   7.434  0.5989 -1.1315  0.1870
  997MOL0     C34509   1.128   6.227   7.642 -0.2008  0.5201  0.3228
  997MOL0     C34510   1.160   6.200   7.767 -0.5633 -0.6994 -0.4244
  997MOL0     N34511   1.781   6.166   8.178 -0.1424  0.3897 -0.0911
  997MOL0     N34512   1.877   6.129   8.104 -1.0490  0.5055  0.6616
  997MOL0     C34513   2.991   6.451   7.925 -0.4023 -0.7722  0.1326
  997MOL0     C34514   3.111   6.509   7.964  0.2978  0.2981  0.3722
  997MOL0     C34515   3.545   6.498   8.031  0.6137 -1.2005 -0.5311
  997MOL0     C34516   3.592   6.466   8.159  0.1395  0.4917  0.1562
  997MOL0     C34517   3.734   6.468   8.178 -0.3556  0.3084  0.1838
  997MOL0     C34518   3.836   6.506   8.084  0.1080 -0.3051 -0.1386
  997MOL0     O34519   3.965   6.501   8.117 -0.1405 -0.0125 -0.0388
  997MOL0     C34520   4.066   6.555   8.029  0.0820  0.3112  0.3858
  997MOL0     C34521   4.205   6.506   8.061  0.5026  0.0482  0.7069
  997MOL0     C34522   4.250   6.523   8.209 -0.1352  0.1213 -0.3475
  997MOL0     C34523   4.192   6.422   8.313  0.5319  0.3685 -0.9924
  997MOL0     C34524   4.123   6.503   8.421 -0.2517  0.6250  1.0595
  997MOL0     C34525   4.068   6.546   8.518  0.5975 -0.1970  0.6221
  997MOL0     C34526   3.781   6.544   7.965  0.3438 -0.3851 -0.8523
  997MOL0     C34527   3.637   6.537   7.934  0.2763 -0.3050 -0.2166
  997MOL0     H34528   3.191   6.283   8.206  3.0999  0.3235 -1.4649
  997MOL0     H34529   2.983   6.177   8.122 -0.7227  0.3274 -0.7013
  997MOL0     H34530   2.730   6.444   7.863  2.2372 -0.3684  1.5815
  997MOL0     H34531   2.726   6.293   7.769 -1.5779  0.2110 -1.3044
  997MOL0     H34532   2.575   6.221   7.962  1.8415 -1.3676 -1.6184
  997MOL0     H34533   2.561   6.389   8.010 -4.4720 -2.7090  1.8930
  997MOL0     H34534   2.486   6.452   7.769  0.2269 -0.3649 -0.6590
  997MOL0     H34535   2.492   6.283   7.727  1.3831 -0.3226 -0.4971
  997MOL0     H34536   2.320   6.215   7.869  0.0339  1.3731  5.5497
  997MOL0     H34537   2.310   6.370   7.937  1.3380 -0.9295  0.9354
  997MOL0     H34538   2.231   6.472   7.721  1.3263  0.2562 -2.4290
  997MOL0     H34539   2.300   6.345   7.625  0.0109  1.0240 -0.8795
  997MOL0     H34540   2.061   6.302   7.609 -1.5811 -1.0257  1.1962
  997MOL0     H34541   2.138   6.181   7.707  1.7656  0.2905 -0.7506
  997MOL0     H34542   2.083   6.346   7.911  1.5985 -0.7956 -1.7434
  997MOL0     H34543   1.943   6.383   7.811 -1.4660  0.1241  4.1664
  997MOL0     H34544   2.036   6.102   7.896  0.3997 -1.6915 -1.4737
  997MOL0     H34545   1.914   6.131   7.782  0.4992  1.7552 -1.3136
  997MOL0     H34546   1.698   6.312   7.901  2.1760  1.0722  0.1989
  997MOL0     H34547   1.556   6.375   8.224 -0.4712 -0.6396  0.9960
  997MOL0     H34548   1.512   6.336   8.058  1.6641  0.4382 -1.3868
  997MOL0     H34549   1.480   6.175   8.308 -0.2040 -0.8698 -0.5263
  997MOL0     H34550   1.485   6.090   8.154 -3.1601  0.0049 -2.3480
  997MOL0     H34551   1.313   6.330   8.199  1.8978 -0.1745 -1.1022
  997MOL0     H34552   1.252   6.152   8.232 -2.7186  1.8596 -0.1115
  997MOL0     H34553   1.305   6.112   7.988  1.2308  0.5623  1.7810
  997MOL0     H34554   1.315   6.293   7.975 -1.9890 -1.0588 -2.2046
  997MOL0     H34555   0.913   6.323   7.949  2.7473  0.5030  0.7742
  997MOL0     H34556   0.725   6.295   7.772 -1.9456 -0.6009 -1.6762
  997MOL0     H34557   0.768   6.473   7.766  0.9722 -0.1051  1.8017
  997MOL0     H34558   0.735   6.381   7.619 -2.4583 -3.7536  1.3906
  997MOL0     H34559   1.182   6.312   7.211 -0.6715  2.0071 -0.4766
  997MOL0     H34560   1.162   6.295   6.971  0.0927  0.7619  0.2993
  997MOL0     H34561   1.062   6.316   6.773 -2.7651 -0.6594  3.5987
  997MOL0     H34562   1.110   6.153   6.721  0.3940 -0.5849  2.1066
  997MOL0     H34563   1.038   6.276   6.527  1.0809 -0.2044  0.5524
  997MOL0     H34564   0.916   6.156   6.566  0.8042 -0.5556  0.6391
  997MOL0     H34565   0.771   6.326   6.674  1.5370  0.7892  2.9918
  997MOL0     H34566   0.811   6.346   6.501  1.1722 -1.2344 -0.7424
  997MOL0     H34567   0.978   6.509   6.698 -2.5768  0.2896  2.1656
  997MOL0     H34568   0.915   6.535   6.527  0.8635 -2.0866 -2.1338
  997MOL0     H34569   0.775   6.520   6.801 -1.5899 -1.1301 -0.2302
  997MOL0     H34570   0.680   6.554   6.645 -0.7480  4.5901 -0.7660
  997MOL0     H34571   0.904   6.728   6.743  0.6483  2.6630 -1.9073
  997MOL0     H34572   0.831   6.734   6.577  0.6225 -3.6765 -0.6894
  997MOL0     H34573   0.723   6.907   6.692  0.0697 -0.4596 -1.1955
  997MOL0     H34574   0.694   6.808   6.843  2.6540 -1.6593  1.7092
  997MOL0     H34575   0.538   6.688   6.696  1.4830 -0.0620  0.1847
  997MOL0     H34576   0.581   6.818   6.572 -2.1314 -1.3091 -0.3650
  997MOL0     H34577   0.782   6.081   7.025  1.7379 -3.2459  2.0197
  997MOL0     H34578   0.804   6.134   7.262  0.0077  2.5374  0.3675
  997MOL0     H34579   1.190   6.180   7.566 -0.3322 -1.6945  1.5035
  997MOL0     H34580   1.254   6.153   7.794  0.0620  0.6355 -0.1813
  997MOL0     H34581   2.940   6.505   7.846 -1.0722  1.4447  1.9599
  997MOL0     H34582   3.134   6.602   7.914  0.5965 -1.7262 -3.6663
  997MOL0     H34583   3.519   6.425   8.227 -0.6740 -0.8165 -1.4414
  997MOL0     H34584   3.760   6.427   8.276  0.7989 -2.5430 -1.2058
  997MOL0     H34585   4.039   6.519   7.930  1.2665 -1.3839  0.6223
  997MOL0     H34586   4.053   6.663   8.031 -2.5506  0.1116 -1.6267
  997MOL0     H34587   4.262   6.560   7.985 -1.9725 -0.7914 -1.9395
  997MOL0     H34588   4.214   6.399   8.039 -2.1657  0.3142 -2.4505
  997MOL0     H34589   4.228   6.623   8.246  0.9450  1.3319 -2.7611
  997MOL0     H34590   4.358   6.511   8.205 -0.0520  1.1337 -1.5744
  997MOL0     H34591   4.270   6.375   8.374  0.2434  0.5547 -0.4698
  997MOL0     H34592   4.128   6.343   8.274  1.5171  0.0716 -2.0615
  997MOL0     H34593   4.018   6.589   8.602  1.9287  1.2795  0.6912
  997MOL0     H34594   3.856   6.578   7.894  2.2082  2.8151  2.3133
  997MOL0     H34595   3.607   6.583   7.841  0.3634 -0.3483 -0.2656
  998MOL0     O34596   5.102   4.620  10.853  0.1750  0.3497 -0.1383
  998MOL0     C34597   5.136   4.562  10.956  1.2115 -0.5087 -0.2099
  998MOL0     O34598   5.166   4.616  11.074  0.4567  0.1247 -0.4778
  998MOL0     C34599   5.191   4.751  11.084  0.7057 -0.7068  0.3254
  998MOL0     C34600   5.119   4.829  11.175 -0.2057  0.5582 -0.6189
  998MOL0     C34601   5.137   4.965  11.194  0.6453  0.8343  0.0355
  998MOL0     C34602   5.213   5.036  11.095 -0.5401  0.6552 -0.4542
  998MOL0     O34603   5.234   5.164  11.123 -0.2641 -0.9992 -0.1751
  998MOL0     C34604   5.123   5.253  11.115  1.3143 -0.3931 -0.0272
  998MOL0     C34605   5.096   5.302  10.971 -0.4653 -0.1932  0.3770
  998MOL0     C34606   5.196   5.397  10.912 -0.7696  0.2512  0.2120
  998MOL0     C34607   5.285   5.490  11.007 -0.5501  0.3916 -0.4372
  998MOL0     C34608   5.396   5.561  10.941 -0.1427  0.2961 -0.1472
  998MOL0     C34609   5.486   5.640  11.035  0.2306 -0.0082 -0.6621
  998MOL0     C34610   5.582   5.713  10.953 -0.1007 -0.0396 -0.3896
  998MOL0     C34611   5.542   5.856  10.919  0.0420 -0.1112 -0.1827
  998MOL0     N34612   5.568   5.949  11.029  0.1194  0.1259 -0.1954
  998MOL0     C34613   5.696   6.002  11.058  0.1950  0.5834 -0.4649
  998MOL0     C34614   5.670   6.124  11.109 -0.4503 -0.2691 -0.6819
  998MOL0     C34615   5.768   6.216  11.163 -0.3230 -1.2407 -0.2093
  998MOL0     C34616   5.723   6.337  11.256 -0.9414 -0.0729  0.7449
  998MOL0     C34617   5.832   6.391  11.347  1.1608 -0.2962 -0.2517
  998MOL0     C34618   5.919   6.500  11.280  0.4322 -0.1322  0.7102
  998MOL0     O34619   5.946   6.475  11.136 -0.1241  1.1646 -0.4030
  998MOL0     C34620   6.072   6.518  11.099  0.2482  0.8860  0.2318
  998MOL0     C34621   6.153   6.433  11.011  0.2079  0.8201  0.5433
  998MOL0     C34622   6.285   6.474  10.975  0.0573  0.2378 -0.2071
  998MOL0     C34623   6.360   6.378  10.878 -0.3190  0.3800  0.0017
  998MOL0     C34624   6.336   6.599  11.018  0.2944 -0.5775 -0.6963
  998MOL0     C34625   6.473   6.650  10.999  0.7523 -0.1938  0.6181
  998MOL0     O34626   6.552   6.555  10.935  0.1424  0.3658  0.1967
  998MOL0     C34627   6.678   6.589  10.878 -0.5317  0.0682  0.1996
  998MOL0     C34628   6.730   6.722  10.857 -0.2259 -0.2082 -0.7147
  998MOL0     C34629   6.859   6.732  10.800  0.0420 -0.0333 -0.7137
  998MOL0     C34630   6.938   6.622  10.766 -0.1499  1.1299  0.1235
  998MOL0     O34631   7.056   6.646  10.691  0.2311  0.8383 -0.4704
  998MOL0     C34632   7.164   6.678  10.780  0.8417 -0.2215 -1.0438
  998MOL0     C34633   7.305   6.691  10.714  0.5029 -0.5915  0.4899
  998MOL0     C34634   7.436   6.693  10.795  0.7724 -0.5651 -0.2960
  998MOL0     C34635   7.477   6.560  10.854 -0.6913 -0.7032 -0.0189
  998MOL0     C34636   7.625   6.554  10.895  0.3698 -0.8957 -0.9426
  998MOL0     C34637   7.661   6.427  10.966 -0.1896  0.3790 -0.5073
  998MOL0     C34638   7.814   6.423  10.972  0.3100  0.9437 -0.6971
  998MOL0     C34639   7.869   6.299  11.038 -0.3536  0.2617 -0.1119
  998MOL0    Cl34640   7.780   6.150  11.005  0.1474 -0.0807 -0.1787
  998MOL0     C34641   6.886   6.492  10.795  0.4017  0.3119 -0.5469
  998MOL0     C34642   6.762   6.482  10.863 -1.4116 -0.4070  0.1389
  998MOL0     O34643   6.507   6.762  11.045 -0.5856 -0.6162 -0.6877
  998MOL0     C34644   6.241   6.682  11.086 -0.1740 -0.4682  0.9458
  998MOL0     C34645   6.112   6.648  11.128 -1.4055 -0.4555 -0.3032
  998MOL0     N34646   5.531   6.139  11.117  0.4029 -1.2188 -0.4019
  998MOL0     N34647   5.473   6.043  11.059  0.1838 -0.4023 -0.5055
  998MOL0     C34648   5.285   4.970  10.999  0.8089 -0.6422 -0.6207
  998MOL0     C34649   5.286   4.825  11.006  0.5160  1.0131 -0.5815
  998MOL0     C34650   5.112   4.420  10.948  0.5420 -0.9437  0.2743
  998MOL0     C34651   5.039   4.357  10.836 -0.0663  0.2872  0.6470
  998MOL0     C34652   5.003   4.217  10.840 -0.0612  0.0851 -0.2469
  998MOL0     C34653   5.043   4.131  10.951  0.4366  0.2208  0.2697
  998MOL0     O34654   5.006   3.996  10.942 -0.1024  0.0411  0.6116
  998MOL0     C34655   5.031   3.914  11.054 -0.2207  0.3817 -0.3974
  998MOL0     C34656   4.916   3.912  11.152  0.0363 -1.2071 -0.5145
  998MOL0     C34657   4.930   3.802  11.259 -0.3786 -0.2638 -0.0463
  998MOL0     C34658   4.831   3.813  11.370  0.2923  0.7683 -0.3904
  998MOL0     C34659   4.823   3.686  11.444 -0.1243  0.7750 -0.1583
  998MOL0     C34660   4.815   3.583  11.515  1.1194  0.4126  0.6103
  998MOL0     C34661   5.117   4.195  11.054 -0.6775  0.2795  1.4535
  998MOL0     C34662   5.144   4.338  11.061 -0.1879 -0.7623 -0.2255
  998MOL0     H34663   5.046   4.775  11.235  1.0893  1.2164  1.6635
  998MOL0     H34664   5.085   5.012  11.277  0.4121  0.3297  0.1769
  998MOL0     H34665   5.033   5.198  11.144  0.2108  1.4628  0.2139
  998MOL0     H34666   5.139   5.330  11.192  0.8582 -2.6046  2.4204
  998MOL0     H34667   5.079   5.216  10.906 -0.8734  0.5089 -0.4698
  998MOL0     H34668   5.001   5.356  10.969  0.0192  1.0963  4.0731
  998MOL0     H34669   5.253   5.328  10.848 -1.9348  0.0164 -0.6078
  998MOL0     H34670   5.153   5.466  10.839 -1.5871 -1.8400 -1.3809
  998MOL0     H34671   5.217   5.563  11.052 -4.5551 -1.7370 -2.4318
  998MOL0     H34672   5.324   5.430  11.090 -2.1242 -1.0235 -0.6438
  998MOL0     H34673   5.459   5.487  10.890 -0.4811 -2.0393  2.5304
  998MOL0     H34674   5.344   5.623  10.867  1.8548 -1.9244 -3.6903
  998MOL0     H34675   5.426   5.703  11.101 -0.2990  0.5575 -1.6616
  998MOL0     H34676   5.546   5.567  11.091 -0.3659 -0.4237 -0.5593
  998MOL0     H34677   5.678   5.709  11.006 -0.1943 -3.1947 -0.2378
  998MOL0     H34678   5.591   5.667  10.855  0.7201 -2.8126  0.8871
  998MOL0     H34679   5.434   5.845  10.908  0.1997 -2.6003  0.3321
  998MOL0     H34680   5.581   5.889  10.823  2.4970 -4.2297 -0.8348
  998MOL0     H34681   5.797   5.965  11.048  0.5006  0.5630  2.0609
  998MOL0     H34682   5.816   6.152  11.238  1.9409  1.8816  1.2596
  998MOL0     H34683   5.842   6.257  11.093  2.3037  3.6173  4.6001
  998MOL0     H34684   5.650   6.302  11.330 -2.6757 -1.2262 -1.4141
  998MOL0     H34685   5.667   6.408  11.196  0.9270 -1.1462 -2.4943
  998MOL0     H34686   5.889   6.308  11.390 -1.4110 -2.4369 -0.7153
  998MOL0     H34687   5.785   6.433  11.436 -2.8562 -0.0708 -2.2480
  998MOL0     H34688   6.009   6.498  11.341 -0.0081 -1.2711  1.3593
  998MOL0     H34689   5.865   6.595  11.287  0.4065 -0.2164  1.9057
  998MOL0     H34690   6.119   6.335  10.978 -1.1716  1.3006  0.5091
  998MOL0     H34691   6.305   6.288  10.849 -0.2400  1.3098 -3.4227
  998MOL0     H34692   6.391   6.430  10.787  0.1478  0.0112 -0.0575
  998MOL0     H34693   6.446   6.326  10.922 -0.6716  0.4189  0.7634
  998MOL0     H34694   6.680   6.818  10.865  4.1363  2.1567  1.5109
  998MOL0     H34695   6.897   6.831  10.778 -1.2889  0.6951  0.1203
  998MOL0     H34696   7.131   6.768  10.832 -1.4883 -2.7662  2.3542
  998MOL0     H34697   7.177   6.605  10.861  2.3727  2.3670  1.2053
  998MOL0     H34698   7.311   6.623  10.628  0.1966  0.6288 -0.5283
  998MOL0     H34699   7.301   6.785  10.659  0.1127 -1.2167 -0.5852
  998MOL0     H34700   7.426   6.759  10.881 -1.8053 -1.3667  0.0728
  998MOL0     H34701   7.511   6.725  10.721 -0.5614  2.4049 -0.5142
  998MOL0     H34702   7.421   6.553  10.948  1.2293 -1.7121  1.1127
  998MOL0     H34703   7.451   6.479  10.785 -0.7142 -1.3842  0.7720
  998MOL0     H34704   7.636   6.635  10.968  0.0144 -1.9290  0.2971
  998MOL0     H34705   7.684   6.567  10.804 -0.4861 -0.0992 -1.3829
  998MOL0     H34706   7.614   6.396  11.059  0.8935 -3.7419 -1.1190
  998MOL0     H34707   7.633   6.350  10.892  1.6906 -1.0572  0.1932
  998MOL0     H34708   7.855   6.513  11.018  0.8301  0.8269 -0.9291
  998MOL0     H34709   7.850   6.427  10.869  3.4513 -0.1551  0.2553
  998MOL0     H34710   7.865   6.307  11.147 -2.4394  2.4267 -0.2580
  998MOL0     H34711   7.975   6.302  11.009  0.5864  2.8194  3.0246
  998MOL0     H34712   6.936   6.398  10.773 -0.3102  0.1811 -1.6461
  998MOL0     H34713   6.729   6.388  10.906  0.6301 -1.5736 -0.7030
  998MOL0     H34714   6.267   6.786  11.101  1.0428 -0.9276  2.3717
  998MOL0     H34715   6.061   6.726  11.184 -0.0691  2.2353 -2.5693
  998MOL0     H34716   5.348   5.017  10.924  1.2150  0.6599  0.5082
  998MOL0     H34717   5.347   4.767  10.937  0.7449 -0.3049  0.6905
  998MOL0     H34718   5.010   4.416  10.750 -2.3034 -2.6690 -0.8354
  998MOL0     H34719   4.956   4.174  10.752  2.2739 -3.4725  0.0544
  998MOL0     H34720   5.035   3.809  11.024  1.1599 -0.1181  1.3277
  998MOL0     H34721   5.123   3.949  11.103 -0.7066  1.3088 -0.1305
  998MOL0     H34722   4.825   3.895  11.093 -0.7978 -0.6968  0.5651
  998MOL0     H34723   4.921   4.008  11.205  7.4741 -2.0951  1.4498
  998MOL0     H34724   5.026   3.825  11.307 -0.3500  0.7314 -0.5558
  998MOL0     H34725   4.931   3.704  11.209  2.4609 -1.0857  1.3714
  998MOL0     H34726   4.733   3.849  11.335  0.4527  0.8229 -0.7911
  998MOL0     H34727   4.860   3.892  11.438 -0.5659  0.2817  0.5758
  998MOL0     H34728   4.829   3.494  11.573  0.1368  0.0169  0.2615
  998MOL0     H34729   5.157   4.138  11.138 -0.9550 -0.5577  1.0327
  998MOL0     H34730   5.180   4.386  11.152 -3.8485  3.0582 -0.4769
  999MOL0     O34731   6.670   6.310   9.574 -0.0472  0.2503  0.0111
  999MOL0     C34732   6.704   6.295   9.689  0.6740  0.8872 -0.4744
  999MOL0     O34733   6.784   6.371   9.764  0.0168 -0.2657 -0.5555
  999MOL0     C34734   6.851   6.484   9.738 -0.3652  0.0479 -0.1947
  999MOL0     C34735   6.864   6.538   9.608  0.0890 -0.6074  0.6623
  999MOL0     C34736   6.934   6.658   9.584  0.3506 -0.4142  0.0224
  999MOL0     C34737   6.994   6.719   9.691  0.0220  0.2728 -0.7011
  999MOL0     O34738   7.075   6.825   9.676 -0.6247 -0.4184  0.5035
  999MOL0     C34739   7.037   6.928   9.592 -0.0823  1.0697  0.8534
  999MOL0     C34740   7.154   7.024   9.565  0.5675 -0.6209 -0.1367
  999MOL0     C34741   7.264   6.947   9.486  0.2121 -0.3469 -0.8221
  999MOL0     C34742   7.217   6.883   9.354 -0.2277 -0.2093 -0.7839
  999MOL0     C34743   7.322   6.820   9.258 -0.1792  0.4969 -0.2631
  999MOL0     C34744   7.241   6.780   9.136  0.8491 -1.2002 -0.4449
  999MOL0     C34745   7.310   6.689   9.034 -0.8026 -0.3169  0.0042
  999MOL0     C34746   7.237   6.643   8.910 -0.3194  0.8026  0.8181
  999MOL0     N34747   7.134   6.738   8.868  0.0440 -0.0874  1.2325
  999MOL0     C34748   7.001   6.733   8.880  0.6458 -0.2053 -0.5081
  999MOL0     C34749   6.948   6.855   8.831 -0.2112 -0.3751 -0.0692
  999MOL0     C34750   6.810   6.900   8.839 -0.1901 -0.1185  0.2746
  999MOL0     C34751   6.733   6.878   8.703  0.1551 -0.4653  0.6115
  999MOL0     C34752   6.776   6.957   8.574 -0.8712  0.3524 -0.9936
  999MOL0     C34753   6.704   6.899   8.455  0.4810 -0.4059  0.9747
  999MOL0     O34754   6.756   6.777   8.425 -0.2851 -0.0778  0.0917
  999MOL0     C34755   6.701   6.711   8.316 -0.1877  1.0899 -0.3388
  999MOL0     C34756   6.780   6.614   8.246  1.0362 -0.5454 -0.7026
  999MOL0     C34757   6.748   6.536   8.128  0.3230  0.0560  0.0222
  999MOL0     C34758   6.868   6.473   8.064  0.1654 -0.1209 -0.6043
  999MOL0     C34759   6.615   6.546   8.082  0.7303 -0.3134 -1.0679
  999MOL0     C34760   6.564   6.465   7.969  0.8559  0.1312  0.2590
  999MOL0     O34761   6.439   6.488   7.917  0.1424  0.3905  0.2336
  999MOL0     C34762   6.377   6.415   7.822  0.5787 -0.0499  0.5451
  999MOL0     C34763   6.366   6.272   7.813 -0.5682 -0.1370  0.2290
  999MOL0     C34764   6.300   6.216   7.705  1.5494  1.0840 -0.0004
  999MOL0     C34765   6.220   6.296   7.614 -0.2772  0.7547 -0.6063
  999MOL0     O34766   6.147   6.240   7.517 -0.0905  0.3759  0.5105
  999MOL0     C34767   6.034   6.180   7.572  0.0015  0.4352  0.4089
  999MOL0     C34768   5.953   6.116   7.457 -0.3827  1.0368  0.2564
  999MOL0     C34769   5.915   6.233   7.363  0.4829 -0.2358 -0.8785
  999MOL0     C34770   5.787   6.204   7.291  0.2346  0.3584  0.0368
  999MOL0     C34771   5.765   6.312   7.183 -0.4058  0.4103 -0.4699
  999MOL0     C34772   5.647   6.285   7.100 -0.0215  0.0491  0.6547
  999MOL0     C34773   5.509   6.303   7.174 -0.2823  0.3058  0.2570
  999MOL0     C34774   5.399   6.334   7.066  0.3467  0.2317  0.2264
  999MOL0    Cl34775   5.260   6.394   7.155  0.1342  0.1566  0.5209
  999MOL0     C34776   6.231   6.436   7.626 -0.0632 -0.4407 -0.7066
  999MOL0     C34777   6.300   6.498   7.731  0.8257 -0.4230 -0.3874
  999MOL0     O34778   6.639   6.378   7.918 -0.2025 -0.1253  0.1888
  999MOL0     C34779   6.528   6.641   8.150 -0.6801  0.3440  0.5408
  999MOL0     C34780   6.569   6.714   8.270  0.5448 -0.0659  0.3664
  999MOL0     N34781   7.049   6.928   8.776 -0.5032  0.6056 -0.5445
  999MOL0     N34782   7.157   6.856   8.792  0.2467  0.7816 -0.3207
  999MOL0     C34783   6.986   6.671   9.822  0.1451 -0.1767  0.4617
  999MOL0     C34784   6.915   6.547   9.841  0.3397 -0.4614  0.2004
  999MOL0     C34785   6.637   6.189   9.768  0.3047  0.7598  0.8520
  999MOL0     C34786   6.510   6.145   9.731  0.5389 -0.0190  0.3206
  999MOL0     C34787   6.444   6.046   9.809  0.1616 -0.9923  0.6398
  999MOL0     C34788   6.496   6.003   9.926 -0.2095  0.4999 -0.2759
  999MOL0     O34789   6.422   5.904   9.992  0.4039  0.5135 -0.1459
  999MOL0     C34790   6.479   5.824  10.096 -0.7099 -0.4208  0.2903
  999MOL0     C34791   6.373   5.742  10.173 -0.6433 -1.4190 -0.4570
  999MOL0     C34792   6.303   5.830  10.277 -0.5616 -0.8989  0.2303
  999MOL0     C34793   6.213   5.757  10.370  0.3616 -0.6734  0.4890
  999MOL0     C34794   6.186   5.804  10.508 -0.4039 -0.2811 -0.0273
  999MOL0     C34795   6.158   5.852  10.616 -0.7457  0.2141 -0.3228
  999MOL0     C34796   6.625   6.041   9.959  1.3040  0.0622 -0.5271
  999MOL0     C34797   6.698   6.126   9.877  1.7812  0.3257 -0.1227
  999MOL0     H34798   6.812   6.482   9.531 -4.1216  2.1045  1.1858
  999MOL0     H34799   6.945   6.694   9.482 -2.6850 -3.5509 -1.5947
  999MOL0     H34800   6.994   6.896   9.497 -0.4730  0.9581  1.0647
  999MOL0     H34801   6.967   6.990   9.649 -0.3408  3.1091 -1.5377
  999MOL0     H34802   7.109   7.106   9.509 -1.9124  0.5658  3.2635
  999MOL0     H34803   7.181   7.067   9.662  1.2036  0.2634 -0.6981
  999MOL0     H34804   7.346   7.016   9.466  0.9221 -0.4259  1.5940
  999MOL0     H34805   7.299   6.865   9.549  1.5332 -0.5144 -1.7130
  999MOL0     H34806   7.143   6.802   9.361  0.1747 -0.7681 -2.4387
  999MOL0     H34807   7.162   6.972   9.322  1.3723  2.6392  3.4568
  999MOL0     H34808   7.403   6.887   9.225  0.7149 -0.7556 -0.7125
  999MOL0     H34809   7.368   6.732   9.303  0.7895  0.8413 -0.5375
  999MOL0     H34810   7.148   6.731   9.165 -1.0329  0.8361 -2.6953
  999MOL0     H34811   7.219   6.876   9.089 -1.1869 -2.2417 -1.7799
  999MOL0     H34812   7.402   6.742   9.010 -1.0336  1.1832  2.1758
  999MOL0     H34813   7.344   6.597   9.084  1.2535 -0.0422 -0.7770
  999MOL0     H34814   7.181   6.550   8.922 -0.2939  0.9454  2.2647
  999MOL0     H34815   7.305   6.622   8.828  0.2323 -0.7227  1.6370
  999MOL0     H34816   6.948   6.662   8.942  0.0215  1.1729  0.5915
  999MOL0     H34817   6.763   6.852   8.925 -2.5630 -1.7357 -1.7717
  999MOL0     H34818   6.807   7.008   8.856  0.5423 -0.1019  0.3070
  999MOL0     H34819   6.634   6.924   8.707  1.7816  3.5531 -0.1435
  999MOL0     H34820   6.731   6.770   8.689  1.6570 -0.5024  0.4300
  999MOL0     H34821   6.886   6.959   8.568 -0.4143 -3.0110  2.4562
  999MOL0     H34822   6.744   7.061   8.579  0.4027  0.7162  0.1576
  999MOL0     H34823   6.707   6.969   8.371 -3.3886 -1.5389 -0.3200
  999MOL0     H34824   6.596   6.894   8.475 -0.3265 -1.6485 -2.9539
  999MOL0     H34825   6.873   6.584   8.292 -0.5546 -1.1139  2.3903
  999MOL0     H34826   6.856   6.429   7.964  1.9880 -1.9036 -0.0987
  999MOL0     H34827   6.942   6.553   8.059  0.3163 -0.3144 -1.7553
  999MOL0     H34828   6.897   6.392   8.132  0.2121  0.9584  0.7008
  999MOL0     H34829   6.432   6.219   7.882 -0.3649  0.9627  0.8957
  999MOL0     H34830   6.307   6.112   7.675  1.2720  1.8333 -2.9757
  999MOL0     H34831   6.070   6.108   7.647  3.8532  1.3219 -0.3738
  999MOL0     H34832   5.975   6.260   7.618  3.2504  2.1675  1.9317
  999MOL0     H34833   6.022   6.044   7.412 -0.5321 -0.8132  2.7703
  999MOL0     H34834   5.864   6.064   7.493  0.8301 -2.0084 -0.7968
  999MOL0     H34835   6.004   6.267   7.309 -0.3762  1.6268 -1.1844
  999MOL0     H34836   5.894   6.323   7.421  1.7696 -0.7032  0.3972
  999MOL0     H34837   5.785   6.107   7.241  0.2916  1.7357 -2.7823
  999MOL0     H34838   5.708   6.196   7.367  2.3640 -3.8865  2.2017
  999MOL0     H34839   5.855   6.308   7.120 -0.4510 -2.3013 -0.4802
  999MOL0     H34840   5.755   6.403   7.243  2.2570 -0.4557  1.5135
  999MOL0     H34841   5.652   6.353   7.014  0.4275 -0.6139  0.1496
  999MOL0     H34842   5.650   6.189   7.048  1.0966  0.4212 -0.0138
  999MOL0     H34843   5.521   6.374   7.256  1.8143 -1.0346  1.2138
  999MOL0     H34844   5.480   6.211   7.225 -2.0293  1.8411  2.1785
  999MOL0     H34845   5.378   6.240   7.015  1.6086 -0.3593  0.7356
  999MOL0     H34846   5.418   6.407   6.987 -1.7185 -0.5326 -1.0567
  999MOL0     H34847   6.168   6.491   7.557  0.2976 -0.2672 -0.9035
  999MOL0     H34848   6.307   6.605   7.746  2.9371 -0.4650 -0.8210
  999MOL0     H34849   6.426   6.652   8.113  0.0368 -0.5052 -1.9047
  999MOL0     H34850   6.500   6.773   8.330  0.9320 -0.1918  0.9516
  999MOL0     H34851   7.042   6.721   9.901  2.0041 -1.8981  0.3085
  999MOL0     H34852   6.896   6.520   9.944 -0.4637 -0.7285 -0.0166
  999MOL0     H34853   6.459   6.180   9.642 -0.2505  0.9654  1.1349
  999MOL0     H34854   6.349   6.009   9.770  1.9417 -2.2747 -2.9324
  999MOL0     H34855   6.550   5.753  10.054 -1.9194 -0.3680 -1.9653
  999MOL0     H34856   6.542   5.888  10.160  1.4525 -1.1981 -0.9488
  999MOL0     H34857   6.434   5.663  10.218 -0.2667 -0.1474  1.3960
  999MOL0     H34858   6.297   5.703  10.105  1.6057 -3.7304 -1.8356
  999MOL0     H34859   6.244   5.910  10.233  0.8003  1.1569  1.9390
  999MOL0     H34860   6.372   5.898  10.328 -2.9175  3.7472 -2.1288
  999MOL0     H34861   6.251   5.654  10.369 -0.1890 -0.9077  1.5253
  999MOL0     H34862   6.114   5.739  10.328 -0.2285 -3.0964  2.6066
  999MOL0     H34863   6.139   5.890  10.715  0.5520  1.0578 -0.3675
  999MOL0     H34864   6.674   6.004  10.048 -4.1918  0.2700  3.0121
  999MOL0     H34865   6.800   6.145   9.906  1.4866  1.5811  0.1723
 1000MOL0     O34866   5.923   3.745   1.206 -0.3160  0.1142  0.2078
 1000MOL0     C34867   5.897   3.866   1.217 -0.1949 -0.5643  0.2405
 1000MOL0     O34868   5.934   3.964   1.128  0.3585 -0.0497  0.4172
 1000MOL0     C34869   6.020   3.925   1.028 -0.8873  0.4813 -0.0216
 1000MOL0     C34870   5.975   3.898   0.895 -0.1437  0.3062  0.0574
 1000MOL0     C34871   6.063   3.873   0.790  0.4240  0.8350  0.6864
 1000MOL0     C34872   6.192   3.837   0.833  0.2370  0.7833 -0.1428
 1000MOL0     O34873   6.281   3.791   0.732  0.3971 -0.0645  1.0394
 1000MOL0     C34874   6.235   3.701   0.624 -0.4822 -0.7079  0.1076
 1000MOL0     C34875   6.173   3.576   0.682  0.3443 -0.3399 -0.2595
 1000MOL0     C34876   6.146   3.477   0.577 -0.1362  0.1557  0.6284
 1000MOL0     C34877   6.039   3.505   0.476 -0.9723 -0.8424  0.7170
 1000MOL0     C34878   6.007   3.391   0.372  0.0590  0.9381 -0.0190
 1000MOL0     C34879   5.987   3.250   0.444 -0.5879  0.0427 -0.3615
 1000MOL0     C34880   5.909   3.150   0.360 -0.5561  0.6900  0.7390
 1000MOL0     C34881   5.940   3.125   0.212  0.8734 -0.5026 -0.0139
 1000MOL0     N34882   5.855   3.017   0.148 -1.2624  0.5828 -0.3817
 1000MOL0     C34883   5.786   2.909   0.204 -0.3953  0.7605  0.6859
 1000MOL0     C34884   5.687   2.874   0.116  0.3773 -0.1544 -0.9330
 1000MOL0     C34885   5.582   2.766   0.125 -0.6147  0.5271 -0.1435
 1000MOL0     C34886   5.642   2.621   0.113 -0.3496 -0.8673  0.4966
 1000MOL0     C34887   5.702   2.570   0.243 -0.2405 -0.3436  0.1779
 1000MOL0     C34888   5.715   2.419   0.250  0.4566  0.7676  0.3724
 1000MOL0     O34889   5.790   2.364   0.146  0.3407 -0.4926 -1.0192
 1000MOL0     C34890   5.785   2.228   0.144  0.2688  0.0556  0.5291
 1000MOL0     C34891   5.752   2.176   0.019  0.0803  0.4235 -0.2848
 1000MOL0     C34892   5.742   2.037  -0.003 -0.5431 -0.8559 -0.4332
 1000MOL0     C34893   5.696   1.995  -0.139  0.9057  0.0459  0.7028
 1000MOL0     C34894   5.774   1.951   0.107 -1.4928  0.4779 -0.8388
 1000MOL0     C34895   5.765   1.801   0.114  0.0272 -0.2828 -1.0743
 1000MOL0     O34896   5.748   1.739   0.237  0.4842  0.3331 -0.2358
 1000MOL0     C34897   5.728   1.603   0.235  0.2233  1.1524 -1.1799
 1000MOL0     C34898   5.625   1.539   0.159  0.3171  0.2968 -0.5431
 1000MOL0     C34899   5.620   1.401   0.164  0.1529  0.4606 -0.0168
 1000MOL0     C34900   5.695   1.325   0.256  0.6280  0.6816  0.2929
 1000MOL0     O34901   5.665   1.185   0.248  0.2386  0.0461 -0.0927
 1000MOL0     C34902   5.755   1.093   0.317  0.5197  0.1286  0.7220
 1000MOL0     C34903   5.683   0.966   0.345  0.0069  0.2755  0.1960
 1000MOL0     C34904   5.794   0.864   0.389 -0.4380  0.3517  0.0222
 1000MOL0     C34905   5.752   0.735   0.461  0.3201 -0.1039 -0.0771
 1000MOL0     C34906   5.712   0.628   0.355  0.9683  0.1447 -0.4915
 1000MOL0     C34907   5.621   0.519   0.425 -1.1547 -0.2133 -0.3203
 1000MOL0     C34908   5.719   0.416   0.489  0.2233 -0.0768 -0.3284
 1000MOL0     C34909   5.731   0.427   0.641  0.1955 -0.1947  0.1520
 1000MOL0    Cl34910   5.595   0.372   0.730 -0.0735 -0.0534  0.2983
 1000MOL0     C34911   5.780   1.392   0.334 -0.2992  0.4847  0.3612
 1000MOL0     C34912   5.805   1.525   0.323  0.4913 -0.0873  0.2802
 1000MOL0     O34913   5.807   1.750   0.011 -0.1852 -0.4367 -0.2999
 1000MOL0     C34914   5.793   2.007   0.229  0.0195  0.6481 -0.2415
 1000MOL0     C34915   5.809   2.141   0.254 -0.2602 -1.1249  1.0189
 1000MOL0     N34916   5.709   2.944  -0.003  0.1357  0.0158 -0.5075
 1000MOL0     N34917   5.808   3.022   0.019 -0.6003 -0.7220 -0.2604
 1000MOL0     C34918   6.238   3.862   0.960 -0.7846 -0.3280 -0.6602
 1000MOL0     C34919   6.160   3.909   1.065  0.6489  0.5972 -0.2930
 1000MOL0     C34920   5.832   3.902   1.342  0.7746  0.0227 -0.0853
 1000MOL0     C34921   5.773   4.038   1.355 -0.2397  0.6110 -0.2482
 1000MOL0     C34922   5.710   4.085   1.464  0.4614  0.4247  0.0491
 1000MOL0     C34923   5.685   3.998   1.573 -0.2602 -0.0910  0.5929
 1000MOL0     O34924   5.604   4.044   1.672 -0.4967 -0.7284  0.1600
 1000MOL0     C34925   5.576   3.963   1.783  0.6720  0.5240  1.0220
 1000MOL0     C34926   5.477   4.041   1.868 -0.1633 -0.6376  0.6561
 1000MOL0     C34927   5.375   3.955   1.943 -0.6383  0.5478 -0.1175
 1000MOL0     C34928   5.285   3.873   1.844 -0.0979  0.5121 -0.1885
 1000MOL0     C34929   5.170   3.838   1.933  0.1252  0.4764 -0.3818
 1000MOL0     C34930   5.073   3.804   2.007 -0.2963  0.1672  0.8100
 1000MOL0     C34931   5.755   3.873   1.571  0.9186  0.7216  0.5845
 1000MOL0     C34932   5.819   3.821   1.457 -0.2717  0.5938  0.7378
 1000MOL0     H34933   5.868   3.910   0.879 -0.3439 -0.5388  0.6660
 1000MOL0     H34934   6.027   3.868   0.688 -0.7729 -0.5091  1.1463
 1000MOL0     H34935   6.162   3.749   0.558 -0.6026 -1.4652 -0.3317
 1000MOL0     H34936   6.315   3.672   0.555  0.5345 -2.3108  1.8426
 1000MOL0     H34937   6.239   3.534   0.758 -0.0520 -0.2564  0.1345
 1000MOL0     H34938   6.083   3.585   0.743  0.8204 -0.2640  0.4413
 1000MOL0     H34939   6.246   3.449   0.541  1.2014  3.2052  1.5787
 1000MOL0     H34940   6.111   3.388   0.631 -1.4885  1.2554  1.6413
 1000MOL0     H34941   5.960   3.553   0.534  1.4429  0.6281  3.0058
 1000MOL0     H34942   6.077   3.590   0.418  0.0633 -1.6975  0.1038
 1000MOL0     H34943   5.917   3.402   0.310  1.6130 -1.1060 -2.8550
 1000MOL0     H34944   6.091   3.396   0.303 -0.5743  1.3062 -0.7809
 1000MOL0     H34945   6.082   3.209   0.478 -1.1040 -0.8067  0.0940
 1000MOL0     H34946   5.927   3.273   0.533 -0.3930 -2.9230  0.6408
 1000MOL0     H34947   5.913   3.058   0.420 -0.7884  1.2434  1.6317
 1000MOL0     H34948   5.813   3.201   0.371 -1.0758 -0.1404  0.1894
 1000MOL0     H34949   6.044   3.093   0.209  0.5660 -2.1512  3.2179
 1000MOL0     H34950   5.918   3.214   0.151 -2.8463 -1.1865  0.1131
 1000MOL0     H34951   5.809   2.851   0.293 -0.6976 -1.6027 -0.6916
 1000MOL0     H34952   5.516   2.765   0.212 -1.8190 -1.4657 -1.0043
 1000MOL0     H34953   5.511   2.774   0.042 -3.8029 -1.7471  2.1029
 1000MOL0     H34954   5.722   2.616   0.038  1.3766  2.7732  1.8519
 1000MOL0     H34955   5.561   2.555   0.082 -0.1858 -0.8867  0.1081
 1000MOL0     H34956   5.649   2.604   0.333  2.3970 -0.3378  1.8539
 1000MOL0     H34957   5.800   2.616   0.255  0.1107 -0.9725 -0.2083
 1000MOL0     H34958   5.617   2.372   0.243  1.8375 -2.5627  1.1423
 1000MOL0     H34959   5.744   2.384   0.350  0.3994 -1.6532 -0.3819
 1000MOL0     H34960   5.733   2.246  -0.061 -2.9544  0.1847  0.0920
 1000MOL0     H34961   5.766   2.034  -0.213  0.8127 -1.1351 -0.0287
 1000MOL0     H34962   5.704   1.887  -0.151  2.8230  0.4623 -3.5202
 1000MOL0     H34963   5.592   2.021  -0.162  1.4098  1.4488 -0.1402
 1000MOL0     H34964   5.573   1.598   0.084 -0.2435  2.3948  1.3793
 1000MOL0     H34965   5.555   1.344   0.098  4.6825 -1.8612 -2.9638
 1000MOL0     H34966   5.833   1.073   0.243  2.8239  0.2108  3.0255
 1000MOL0     H34967   5.789   1.139   0.410  1.0468  1.1167  0.0561
 1000MOL0     H34968   5.607   0.989   0.420  0.7210 -0.4249  1.1683
 1000MOL0     H34969   5.631   0.936   0.254 -0.4974 -0.0004  0.5673
 1000MOL0     H34970   5.847   0.916   0.469  2.5645  0.7134 -2.0414
 1000MOL0     H34971   5.877   0.847   0.319  1.0048  1.7709  1.3259
 1000MOL0     H34972   5.825   0.694   0.531 -1.1441 -2.7841  0.0349
 1000MOL0     H34973   5.669   0.761   0.528 -0.2027  1.1659 -1.1694
 1000MOL0     H34974   5.784   0.582   0.286 -0.1050 -2.1222 -0.2239
 1000MOL0     H34975   5.640   0.687   0.297  0.6814 -0.9864 -1.3274
 1000MOL0     H34976   5.545   0.553   0.496 -0.9256  1.9484 -1.0166
 1000MOL0     H34977   5.550   0.475   0.355 -1.3965  1.6358 -1.3118
 1000MOL0     H34978   5.815   0.405   0.438 -0.5905  0.7172 -2.1295
 1000MOL0     H34979   5.669   0.322   0.465 -0.6408  0.7428 -1.8963
 1000MOL0     H34980   5.735   0.531   0.677 -0.7930 -1.0613  3.0922
 1000MOL0     H34981   5.820   0.370   0.671  0.5472 -0.1136 -0.7118
 1000MOL0     H34982   5.842   1.347   0.411  0.3732 -0.1199 -0.5206
 1000MOL0     H34983   5.882   1.569   0.385  0.9623 -1.6117  0.8154
 1000MOL0     H34984   5.808   1.942   0.314  1.0914  1.7014  0.4040
 1000MOL0     H34985   5.829   2.183   0.351  1.4067  1.8089 -0.4673
 1000MOL0     H34986   6.344   3.852   0.982 -0.9228  1.4835  1.1059
 1000MOL0     H34987   6.196   3.932   1.165 -0.6102  0.8194  0.1301
 1000MOL0     H34988   5.780   4.099   1.266  1.8625 -0.7610 -1.1284
 1000MOL0     H34989   5.676   4.188   1.466 -0.4962  0.1180  0.2013
 1000MOL0     H34990   5.531   3.867   1.757 -0.0382  0.9004  0.8315
 1000MOL0     H34991   5.663   3.936   1.843  0.7337 -1.4116  0.1361
 1000MOL0     H34992   5.415   4.108   1.807  0.9310 -0.4206 -0.2572
 1000MOL0     H34993   5.525   4.109   1.939 -0.1520  1.5843 -1.3569
 1000MOL0     H34994   5.313   4.024   2.001  0.2890  2.3969 -1.2413
 1000MOL0     H34995   5.438   3.900   2.014  1.2864  1.1502 -1.2720
 1000MOL0     H34996   5.341   3.790   1.801 -0.0679  0.4652 -0.0614
 1000MOL0     H34997   5.257   3.944   1.765 -0.5755 -1.8666 -2.2607
 1000MOL0     H34998   4.978   3.783   2.052 -1.1796 -1.9514 -1.7915
 1000MOL0     H34999   5.747   3.819   1.666 -1.0561  2.8619  1.7464
 1000MOL0     H35000   5.871   3.725   1.454 -1.0935  0.1685 -1.6972
 1001MOL0     O35001  11.162   7.142  11.017 -0.5730 -0.3773 -0.8663
 1001MOL0     C35002  11.073   7.217  11.065  0.6739  0.7367  0.6371
 1001MOL0     O35003  10.967   7.175  11.137 -0.3117  0.1213 -0.8251
 1001MOL0     C35004  10.945   7.041  11.133  0.3260  1.0320 -0.6042
 1001MOL0     C35005  10.831   6.991  11.060 -0.9128 -0.5107 -0.1477
 1001MOL0     C35006  10.802   6.861  11.044  0.6752 -0.4587 -1.1633
 1001MOL0     C35007  10.884   6.764  11.096  0.1420  0.5643 -0.0781
 1001MOL0     O35008  10.854   6.637  11.060  1.1071 -0.5706 -0.0706
 1001MOL0     C35009  10.895   6.537  11.155  0.0711 -0.3827 -0.0904
 1001MOL0     C35010  10.846   6.402  11.112  0.0044 -0.7483  0.5968
 1001MOL0     C35011  10.889   6.282  11.196  0.0269  0.0359  0.0276
 1001MOL0     C35012  10.769   6.189  11.228 -0.8152 -0.9184  0.0671
 1001MOL0     C35013  10.825   6.074  11.306 -0.0751  0.5012  1.3145
 1001MOL0     C35014  10.720   5.974  11.314  0.1061  0.6525  0.1800
 1001MOL0     C35015  10.766   5.843  11.381  0.3612  0.6049 -0.3365
 1001MOL0     C35016  10.640   5.741  11.375 -1.4272 -0.5160  0.5260
 1001MOL0     N35017  10.567   5.767  11.505  0.4783 -0.2030 -0.7326
 1001MOL0     C35018  10.605   5.717  11.620  0.2205 -0.3619 -0.3983
 1001MOL0     C35019  10.517   5.768  11.717 -1.3945  0.4465  0.9346
 1001MOL0     C35020  10.509   5.728  11.868  0.1086  0.4543 -0.4143
 1001MOL0     C35021  10.552   5.857  11.950  0.3602 -0.1223  0.8012
 1001MOL0     C35022  10.497   5.850  12.095  0.0615 -0.0203 -0.4374
 1001MOL0     C35023  10.529   5.975  12.180 -0.1578  0.7366  0.1469
 1001MOL0     O35024  10.590   5.944  12.309 -0.2443 -0.0083  0.2605
 1001MOL0     C35025  10.732   5.946  12.309 -0.2709  0.0694 -0.5970
 1001MOL0     C35026  10.781   5.983  12.440 -1.1057  0.2472  0.2634
 1001MOL0     C35027  10.922   6.004  12.457 -0.6568  0.5028 -0.0956
 1001MOL0     C35028  10.965   6.076  12.585 -0.1777 -0.6326  0.9867
 1001MOL0     C35029  11.013   5.967  12.351  0.3473 -0.4111  0.7724
 1001MOL0     C35030  11.153   6.011  12.355  0.2269 -0.6562  0.1689
 1001MOL0     O35031  11.172   6.147  12.397 -0.3564  0.2760  0.0748
 1001MOL0     C35032  11.302   6.177  12.430 -0.0233 -0.2776  0.0463
 1001MOL0     C35033  11.379   6.271  12.359  0.4095 -0.0190  0.5366
 1001MOL0     C35034  11.504   6.315  12.400  0.1714  0.2438 -0.4324
 1001MOL0     C35035  11.567   6.258  12.513 -0.1387  0.0050 -0.0419
 1001MOL0     O35036  11.695   6.282  12.545  0.3692 -0.5601 -0.2553
 1001MOL0     C35037  11.794   6.337  12.466 -0.2668  0.3235 -0.0854
 1001MOL0     C35038  11.824   6.246  12.356 -0.2054  0.0679 -0.9477
 1001MOL0     C35039  11.946   6.282  12.280  0.1765  0.0321 -0.2039
 1001MOL0     C35040  11.996   6.173  12.189  0.1139  0.3531  0.6648
 1001MOL0     C35041  12.141   6.201  12.142  0.1530  1.3085  0.4560
 1001MOL0     C35042  12.181   6.132  12.010 -0.0543  0.3718  0.7576
 1001MOL0     C35043  12.211   5.985  12.026  0.5037  0.8498 -0.6463
 1001MOL0     C35044  12.091   5.879  12.023 -0.5668 -0.6978 -0.4111
 1001MOL0    Cl35045  12.007   5.881  11.869  0.2507 -0.1688  0.6935
 1001MOL0     C35046  11.486   6.179  12.596 -0.3269 -0.0585  0.2360
 1001MOL0     C35047  11.354   6.148  12.561  0.4901 -0.5061 -0.6137
 1001MOL0     O35048  11.245   5.930  12.343  0.9204  0.4583 -0.5664
 1001MOL0     C35049  10.966   5.919  12.228  0.1372  0.4284  0.3057
 1001MOL0     C35050  10.825   5.904  12.212 -0.0902 -0.4940 -0.0529
 1001MOL0     N35051  10.433   5.851  11.661 -0.3492  0.9136 -0.3806
 1001MOL0     N35052  10.473   5.857  11.533  0.2071 -0.7406 -0.4501
 1001MOL0     C35053  11.005   6.801  11.159  0.0758 -0.0723 -0.5426
 1001MOL0     C35054  11.030   6.937  11.185 -0.1948 -0.3546  1.1744
 1001MOL0     C35055  11.077   7.363  11.028 -0.3225 -0.3154  0.2444
 1001MOL0     C35056  11.172   7.412  10.932  0.3455 -0.8621  0.2080
 1001MOL0     C35057  11.168   7.546  10.910  0.4598 -0.3344  1.0720
 1001MOL0     C35058  11.074   7.640  10.967 -0.5751  0.3325  0.6916
 1001MOL0     O35059  11.075   7.776  10.924  0.4652 -0.2057  0.2249
 1001MOL0     C35060  10.951   7.847  10.912 -0.4292  1.1265  0.4430
 1001MOL0     C35061  10.996   7.982  10.853  0.3070  0.0289  0.6796
 1001MOL0     C35062  11.061   8.064  10.965 -0.2434 -0.1521  0.8145
 1001MOL0     C35063  11.111   8.204  10.911 -0.4453 -0.2066  0.4078
 1001MOL0     C35064  11.224   8.253  10.985 -0.9823  1.0876 -0.1131
 1001MOL0     C35065  11.320   8.290  11.043 -0.4249  0.5107  0.1978
 1001MOL0     C35066  10.985   7.585  11.055  0.0650 -0.2948  0.7721
 1001MOL0     C35067  10.992   7.455  11.092 -0.7989  0.3248  0.5495
 1001MOL0     H35068  10.777   7.078  11.022  0.8976  0.5729 -0.3813
 1001MOL0     H35069  10.713   6.826  10.993  0.3138 -1.2970  0.0144
 1001MOL0     H35070  11.003   6.522  11.146  0.1485 -1.9234  2.4467
 1001MOL0     H35071  10.871   6.561  11.259  1.5689 -0.8534  0.3914
 1001MOL0     H35072  10.737   6.412  11.109  0.1747  1.9020 -3.0815
 1001MOL0     H35073  10.888   6.386  11.012  2.1426  0.3197  1.2562
 1001MOL0     H35074  10.964   6.226  11.139  0.9759 -0.0660  1.3459
 1001MOL0     H35075  10.942   6.319  11.284 -0.9440 -1.1798  1.1595
 1001MOL0     H35076  10.697   6.237  11.294  0.6964  0.5660  0.7097
 1001MOL0     H35077  10.715   6.168  11.135  0.5297  2.4591 -1.6293
 1001MOL0     H35078  10.908   6.033  11.248 -0.3065 -1.5464  2.3484
 1001MOL0     H35079  10.862   6.092  11.408  2.4202 -3.1127  1.2279
 1001MOL0     H35080  10.627   6.007  11.362 -3.9200 -3.9482 -3.3413
 1001MOL0     H35081  10.682   5.945  11.216  0.3492  0.4969  0.1292
 1001MOL0     H35082  10.847   5.795  11.325  3.1285 -0.1892  3.8634
 1001MOL0     H35083  10.798   5.875  11.481 -4.1405  0.5889  1.3333
 1001MOL0     H35084  10.683   5.640  11.373 -0.0692 -0.1115  3.5160
 1001MOL0     H35085  10.574   5.777  11.296  0.5277 -1.6891 -1.7774
 1001MOL0     H35086  10.686   5.646  11.634  0.4842 -0.4630 -2.2092
 1001MOL0     H35087  10.403   5.701  11.880 -0.3424  1.9594 -0.8095
 1001MOL0     H35088  10.578   5.647  11.894 -2.6614 -2.4515 -1.4677
 1001MOL0     H35089  10.520   5.949  11.902  1.9242  0.9979  1.7733
 1001MOL0     H35090  10.661   5.854  11.938 -0.0023 -0.7763 -3.8986
 1001MOL0     H35091  10.552   5.766  12.138  1.3229  1.3957  0.8528
 1001MOL0     H35092  10.389   5.834  12.086 -0.4185  3.0715 -1.4696
 1001MOL0     H35093  10.435   6.026  12.201  2.1038  6.3260 -1.4879
 1001MOL0     H35094  10.585   6.044  12.116 -2.2989  2.2113 -0.2277
 1001MOL0     H35095  10.703   5.992  12.515  0.7932 -1.4022  2.6002
 1001MOL0     H35096  11.070   6.055  12.606 -0.5083 -0.7135  2.7104
 1001MOL0     H35097  10.944   6.182  12.564 -3.3167 -1.8296 -3.2956
 1001MOL0     H35098  10.898   6.053  12.668 -0.0531  3.5159  2.4821
 1001MOL0     H35099  11.334   6.305  12.266  1.0854 -3.2774 -1.1261
 1001MOL0     H35100  11.557   6.391  12.344  0.1010  2.3672  2.1861
 1001MOL0     H35101  11.761   6.433  12.425  0.1236  0.0134 -1.1503
 1001MOL0     H35102  11.883   6.364  12.523  0.2072  3.6664 -2.1441
 1001MOL0     H35103  11.843   6.146  12.398  3.3839 -0.0774 -2.5453
 1001MOL0     H35104  11.742   6.246  12.284  1.0473 -1.6042 -2.4559
 1001MOL0     H35105  12.025   6.300  12.353 -1.5255  1.1748  1.4209
 1001MOL0     H35106  11.935   6.364  12.208  1.7444 -2.5417 -3.7040
 1001MOL0     H35107  11.990   6.073  12.232 -1.2078 -0.1974 -0.7327
 1001MOL0     H35108  11.912   6.165  12.120  0.1102 -1.0009  0.8061
 1001MOL0     H35109  12.222   6.171  12.209 -1.3769 -0.7315  1.4990
 1001MOL0     H35110  12.150   6.309  12.126  2.1780  1.5506  2.6703
 1001MOL0     H35111  12.098   6.143  11.940  1.4705 -1.8254 -1.6021
 1001MOL0     H35112  12.269   6.175  11.961 -0.2826  0.8896  0.8067
 1001MOL0     H35113  12.268   5.969  12.118  0.0861 -0.4770 -0.5845
 1001MOL0     H35114  12.286   5.953  11.954  3.1609  2.7718  1.1020
 1001MOL0     H35115  12.025   5.903  12.106  0.2768  2.2244 -0.4798
 1001MOL0     H35116  12.125   5.779  12.051 -2.0408 -0.5954  1.9989
 1001MOL0     H35117  11.513   6.124  12.685 -1.6938 -2.2765 -0.6359
 1001MOL0     H35118  11.299   6.087  12.632  0.4176 -0.4692 -0.6389
 1001MOL0     H35119  11.034   5.912  12.144  1.8077 -0.0199  1.6589
 1001MOL0     H35120  10.787   5.876  12.115  1.4017 -0.1508 -0.7637
 1001MOL0     H35121  11.074   6.727  11.199 -1.0131 -0.6369  0.3435
 1001MOL0     H35122  11.124   6.965  11.232 -0.3306  3.0125 -0.2354
 1001MOL0     H35123  11.244   7.354  10.874 -0.6014 -0.8152 -1.0676
 1001MOL0     H35124  11.243   7.603  10.856 -0.7021  3.1360  2.8214
 1001MOL0     H35125  10.896   7.786  10.840 -3.6416  2.2622  1.7570
 1001MOL0     H35126  10.895   7.847  11.006 -2.9856  2.3297 -0.9886
 1001MOL0     H35127  10.910   8.037  10.814  2.0489  1.7061 -1.0341
 1001MOL0     H35128  11.057   7.976  10.763  0.9117  2.5888  0.8407
 1001MOL0     H35129  11.140   8.008  11.016  0.8985  1.5038  0.9248
 1001MOL0     H35130  10.980   8.083  11.036 -0.7569  1.7528 -0.2178
 1001MOL0     H35131  11.029   8.276  10.917  1.2310  1.7198  1.4967
 1001MOL0     H35132  11.137   8.205  10.804 -3.8439  0.7756 -0.5343
 1001MOL0     H35133  11.406   8.329  11.093 -0.1493  1.3088 -0.8723
 1001MOL0     H35134  10.913   7.645  11.110  0.4097 -0.3036  1.2435
 1001MOL0     H35135  10.924   7.434  11.175  0.7498  1.4503  2.1962
 1002MOL0     O35136   2.614  10.044   8.589  0.3141  0.3260 -0.0651
 1002MOL0     C35137   2.494  10.086   8.583 -0.0795  0.8916  0.4861
 1002MOL0     O35138   2.407  10.085   8.472 -0.4017 -0.3832  0.1642
 1002MOL0     C35139   2.430  10.009   8.357  1.1711  1.3633  0.4372
 1002MOL0     C35140   2.374  10.055   8.239  0.6177  0.1870 -0.4162
 1002MOL0     C35141   2.399   9.970   8.126  1.1874  0.1852 -0.2017
 1002MOL0     C35142   2.467   9.848   8.137 -0.9429  0.2292 -0.5270
 1002MOL0     O35143   2.499   9.778   8.023  1.0289 -0.0578 -0.2152
 1002MOL0     C35144   2.390   9.759   7.934  0.3273  0.7040  0.2034
 1002MOL0     C35145   2.429   9.678   7.815 -0.1596  0.3611 -0.9808
 1002MOL0     C35146   2.448   9.530   7.863 -0.2846 -0.2886 -0.9580
 1002MOL0     C35147   2.481   9.438   7.749  0.9995 -0.5684  0.4945
 1002MOL0     C35148   2.552   9.319   7.796 -0.1896 -0.2591  0.0189
 1002MOL0     C35149   2.591   9.227   7.681 -0.1476 -0.0894  0.4275
 1002MOL0     C35150   2.479   9.170   7.592 -0.2159 -0.3927 -0.0268
 1002MOL0     C35151   2.439   9.264   7.466  0.1510  0.4180  0.1077
 1002MOL0     N35152   2.484   9.197   7.341 -0.7862  0.4777 -0.7012
 1002MOL0     C35153   2.611   9.154   7.310 -0.1675 -0.2253 -0.2147
 1002MOL0     C35154   2.610   9.126   7.173  0.8389 -0.6676 -0.0636
 1002MOL0     C35155   2.734   9.094   7.098  0.7944  0.0759 -0.1245
 1002MOL0     C35156   2.726   8.948   7.067 -0.1145 -0.0948  0.2809
 1002MOL0     C35157   2.730   8.858   7.187  0.9198 -0.8117 -0.1603
 1002MOL0     C35158   2.731   8.713   7.146  0.7340 -0.5657 -0.0844
 1002MOL0     O35159   2.784   8.675   7.278 -0.2025 -0.7038  0.0692
 1002MOL0     C35160   2.889   8.588   7.291  0.2327  0.0634 -0.0632
 1002MOL0     C35161   2.992   8.631   7.369 -0.2026 -0.3253 -0.4895
 1002MOL0     C35162   3.116   8.557   7.386  0.6355 -0.5133  0.5466
 1002MOL0     C35163   3.218   8.614   7.480  0.2834  0.4608  0.9590
 1002MOL0     C35164   3.122   8.432   7.317  0.2992  0.6277 -0.2981
 1002MOL0     C35165   3.250   8.366   7.330 -0.7251  0.2502  0.0536
 1002MOL0     O35166   3.291   8.326   7.452 -1.0252  0.1346  0.0801
 1002MOL0     C35167   3.420   8.266   7.469 -0.2282  0.1611 -0.2290
 1002MOL0     C35168   3.529   8.304   7.392  0.8283 -0.0035  0.7095
 1002MOL0     C35169   3.656   8.233   7.405 -0.1123  0.4588  1.1942
 1002MOL0     C35170   3.671   8.145   7.507  0.5878  0.6035 -0.0767
 1002MOL0     O35171   3.787   8.074   7.539 -0.0301  0.3271  0.0841
 1002MOL0     C35172   3.880   8.057   7.432  0.1883 -0.3752  0.4619
 1002MOL0     C35173   3.968   7.925   7.449 -0.2433  1.2249  0.0400
 1002MOL0     C35174   4.108   7.953   7.468 -0.1271 -0.4269  0.1102
 1002MOL0     C35175   4.180   7.820   7.514  0.6177 -0.5287  0.6211
 1002MOL0     C35176   4.302   7.801   7.427 -0.2880  0.2912  0.6847
 1002MOL0     C35177   4.406   7.686   7.450  0.6479  0.1960 -0.0093
 1002MOL0     C35178   4.509   7.706   7.556 -0.6364  0.7923 -0.4544
 1002MOL0     C35179   4.599   7.827   7.536  0.2401  0.0873 -0.0259
 1002MOL0    Cl35180   4.721   7.827   7.679  0.1679 -0.2423 -0.3384
 1002MOL0     C35181   3.560   8.116   7.593  0.5074  0.5381 -1.0323
 1002MOL0     C35182   3.436   8.173   7.573  0.5731  0.0598  0.3235
 1002MOL0     O35183   3.310   8.351   7.225  0.0809  0.5172 -0.2544
 1002MOL0     C35184   3.014   8.386   7.243 -0.5240 -0.1755  0.2788
 1002MOL0     C35185   2.897   8.464   7.230 -0.4361  0.6630 -0.3141
 1002MOL0     N35186   2.474   9.154   7.131 -0.5443 -0.6237 -0.5560
 1002MOL0     N35187   2.399   9.197   7.232  0.1322 -0.1296  0.5034
 1002MOL0     C35188   2.518   9.806   8.256  0.9435  0.6367 -0.1301
 1002MOL0     C35189   2.501   9.889   8.362  1.5135  1.0904 -0.3910
 1002MOL0     C35190   2.440  10.158   8.697 -0.2617  0.7259  0.2480
 1002MOL0     C35191   2.499  10.148   8.819 -0.4976 -0.0678  0.0005
 1002MOL0     C35192   2.437  10.200   8.928  0.6398 -0.4480 -0.1836
 1002MOL0     C35193   2.311  10.271   8.916 -0.0722 -1.8754  0.3346
 1002MOL0     O35194   2.278  10.340   9.028 -0.7175  0.4988 -0.0928
 1002MOL0     C35195   2.144  10.317   9.062  0.5433  0.1261 -0.3898
 1002MOL0     C35196   2.080  10.430   9.139 -0.7623  0.5959  0.0989
 1002MOL0     C35197   1.932  10.384   9.180 -0.3547 -0.0010  0.3961
 1002MOL0     C35198   1.865  10.486   9.275  0.3047  0.4431 -0.0289
 1002MOL0     C35199   1.800  10.414   9.385 -0.3625  0.9947 -0.4971
 1002MOL0     C35200   1.740  10.356   9.473  0.5920 -0.2256 -0.0188
 1002MOL0     C35201   2.251  10.287   8.789 -0.6385  0.5991 -0.6400
 1002MOL0     C35202   2.314  10.223   8.681 -0.0215  0.1326 -0.5921
 1002MOL0     H35203   2.330  10.154   8.239  4.2677  1.9917 -0.2793
 1002MOL0     H35204   2.365  10.010   8.031 -1.3611 -2.9550 -0.7931
 1002MOL0     H35205   2.307   9.722   7.995  2.7550 -1.7576  2.3221
 1002MOL0     H35206   2.359   9.852   7.887 -1.1400 -0.8786 -2.1327
 1002MOL0     H35207   2.347   9.675   7.743 -0.3024  0.5136 -0.8224
 1002MOL0     H35208   2.524   9.710   7.769  0.3879  0.0625 -0.0713
 1002MOL0     H35209   2.528   9.536   7.938 -2.2895  0.2023  1.2633
 1002MOL0     H35210   2.359   9.498   7.917 -0.1338  1.2002  0.2464
 1002MOL0     H35211   2.383   9.411   7.709  1.4050  1.1453 -1.8327
 1002MOL0     H35212   2.535   9.488   7.669  0.1093 -0.3249  0.0268
 1002MOL0     H35213   2.646   9.352   7.841 -1.2229  2.4764  0.3343
 1002MOL0     H35214   2.503   9.269   7.880  1.1490 -1.6790 -0.0005
 1002MOL0     H35215   2.669   9.270   7.617  1.2548 -1.3119  1.2776
 1002MOL0     H35216   2.645   9.150   7.736  0.8868 -0.7211 -1.3813
 1002MOL0     H35217   2.495   9.067   7.560 -5.1394 -0.4884 -3.4387
 1002MOL0     H35218   2.387   9.172   7.651 -1.2973  0.3921 -1.6340
 1002MOL0     H35219   2.488   9.362   7.463  3.2577 -1.0281 -0.5507
 1002MOL0     H35220   2.331   9.279   7.478  0.2794 -0.1427  2.4434
 1002MOL0     H35221   2.700   9.145   7.372  0.2215 -1.1980 -0.8901
 1002MOL0     H35222   2.740   9.150   7.004  0.5831 -0.2273 -0.3209
 1002MOL0     H35223   2.819   9.114   7.164 -1.9598 -0.7233  4.0399
 1002MOL0     H35224   2.810   8.933   6.999 -2.8847  1.7057 -3.9797
 1002MOL0     H35225   2.644   8.928   6.998 -0.3776  1.9542 -0.0557
 1002MOL0     H35226   2.650   8.874   7.259  2.4741 -0.8456  1.6507
 1002MOL0     H35227   2.818   8.887   7.245  0.3262 -1.7265  1.2387
 1002MOL0     H35228   2.789   8.703   7.054 -1.5515  1.3209 -1.8244
 1002MOL0     H35229   2.631   8.669   7.137 -0.6692  2.2289  0.8903
 1002MOL0     H35230   2.985   8.731   7.412 -3.7100 -0.2787 -0.8662
 1002MOL0     H35231   3.216   8.566   7.579  1.8751  0.0684  0.8346
 1002MOL0     H35232   3.316   8.636   7.435 -1.0475  3.8608 -0.6275
 1002MOL0     H35233   3.178   8.715   7.498  0.9351  0.4255  2.8369
 1002MOL0     H35234   3.535   8.393   7.331  2.0304 -0.0952  0.6663
 1002MOL0     H35235   3.735   8.272   7.342 -2.8376  1.3911 -1.9372
 1002MOL0     H35236   3.820   8.050   7.341 -0.6833  4.4022  0.4191
 1002MOL0     H35237   3.937   8.149   7.417 -2.7847  1.9660  2.4744
 1002MOL0     H35238   3.921   7.855   7.519 -2.0038  0.2387 -2.0294
 1002MOL0     H35239   3.963   7.869   7.355  0.5463  0.3176  0.5158
 1002MOL0     H35240   4.131   8.039   7.530 -1.8760  0.6865 -0.7121
 1002MOL0     H35241   4.155   7.984   7.375  1.5897  1.9787  1.6699
 1002MOL0     H35242   4.198   7.831   7.622 -0.7278 -0.5465  0.8635
 1002MOL0     H35243   4.119   7.730   7.506 -1.5205  0.6347  2.4024
 1002MOL0     H35244   4.356   7.896   7.430 -1.4668  1.0532 -0.8876
 1002MOL0     H35245   4.281   7.792   7.321 -2.0573  0.9301  0.9499
 1002MOL0     H35246   4.351   7.593   7.462  0.0446  0.2920 -1.7448
 1002MOL0     H35247   4.456   7.665   7.355  1.3719 -1.2578  0.6501
 1002MOL0     H35248   4.577   7.621   7.548 -1.7369  0.1067 -3.6941
 1002MOL0     H35249   4.468   7.708   7.658  1.9853 -0.6262  0.7226
 1002MOL0     H35250   4.542   7.919   7.547 -2.7296 -1.6692  0.3081
 1002MOL0     H35251   4.660   7.822   7.445 -1.5392 -0.6939 -1.2444
 1002MOL0     H35252   3.575   8.052   7.680  5.5055  1.7460 -0.6512
 1002MOL0     H35253   3.348   8.158   7.634  1.1039 -1.0850  0.8337
 1002MOL0     H35254   3.021   8.284   7.208 -1.6953 -1.2669  2.9338
 1002MOL0     H35255   2.809   8.431   7.177 -0.0306  1.5403 -1.6005
 1002MOL0     H35256   2.578   9.716   8.263  0.5994  0.5176  2.3554
 1002MOL0     H35257   2.551   9.861   8.454 -0.2759  4.1528  1.6851
 1002MOL0     H35258   2.598  10.105   8.834 -0.3247  0.3762  0.1571
 1002MOL0     H35259   2.472  10.188   9.030  1.4146  0.0261 -0.3865
 1002MOL0     H35260   2.072  10.298   8.982 -0.5623 -2.4202  1.1008
 1002MOL0     H35261   2.145  10.233   9.132 -0.6151  2.6111  2.8533
 1002MOL0     H35262   2.097  10.527   9.091  3.7004  0.5470  1.1337
 1002MOL0     H35263   2.143  10.440   9.228 -1.3902 -0.4835  0.6784
 1002MOL0     H35264   1.935  10.284   9.225  0.1529  0.8013  2.2658
 1002MOL0     H35265   1.884  10.397   9.083  2.8959  5.5409 -0.9250
 1002MOL0     H35266   1.804  10.561   9.224  2.1264  3.3205  1.7129
 1002MOL0     H35267   1.946  10.551   9.310 -1.3229  3.3198 -1.2767
 1002MOL0     H35268   1.682  10.310   9.551  0.7082 -0.3616 -0.0121
 1002MOL0     H35269   2.150  10.325   8.778 -1.9478 -2.6145 -0.8333
 1002MOL0     H35270   2.261  10.246   8.589  2.5552  4.9818 -1.2060
 1003MOL0     O35271   1.024   8.146  10.904  0.1348  0.1739  0.3212
 1003MOL0     C35272   1.082   8.082  10.992 -0.1556 -1.3596  0.5063
 1003MOL0     O35273   1.215   8.102  11.034  0.3905 -0.0333  0.6015
 1003MOL0     C35274   1.291   8.190  10.966 -0.2144 -0.3343  0.2220
 1003MOL0     C35275   1.363   8.272  11.057 -1.1117 -0.1711 -0.0008
 1003MOL0     C35276   1.447   8.377  11.026  0.2764 -0.3299  0.3222
 1003MOL0     C35277   1.470   8.401  10.888 -0.0660  1.1948  0.3254
 1003MOL0     O35278   1.545   8.497  10.832  0.5111  0.3465 -0.2124
 1003MOL0     C35279   1.631   8.572  10.918 -0.1780 -0.5625 -0.1008
 1003MOL0     C35280   1.691   8.682  10.827  0.4102 -0.5052  0.3916
 1003MOL0     C35281   1.588   8.809  10.794 -0.1087  0.0829  0.2562
 1003MOL0     C35282   1.456   8.786  10.713 -0.4430  0.0614  0.2414
 1003MOL0     C35283   1.372   8.919  10.690  0.5966  0.8021  1.6186
 1003MOL0     C35284   1.447   9.023  10.611 -0.1495  0.1019  0.7364
 1003MOL0     C35285   1.486   8.969  10.474 -0.0644 -0.3455  0.5375
 1003MOL0     C35286   1.530   9.081  10.374  0.2831 -0.0127  0.0313
 1003MOL0     N35287   1.573   9.012  10.250 -0.1846  0.4263  0.5341
 1003MOL0     C35288   1.488   8.963  10.152  0.1034 -0.5937 -0.8166
 1003MOL0     C35289   1.566   8.890  10.076 -0.7350 -0.4237  0.0472
 1003MOL0     C35290   1.523   8.825   9.948 -0.1028  0.3779 -0.4326
 1003MOL0     C35291   1.535   8.925   9.831  0.2885  0.1259 -0.1294
 1003MOL0     C35292   1.665   8.996   9.820  1.0724  0.5429  0.1592
 1003MOL0     C35293   1.667   9.072   9.693 -0.2812 -0.8232 -0.3273
 1003MOL0     O35294   1.661   8.989   9.578  0.1341 -1.0492 -0.4306
 1003MOL0     C35295   1.699   9.045   9.458  0.7676  1.1986 -0.4256
 1003MOL0     C35296   1.754   8.952   9.368 -0.3538 -0.3270 -0.9756
 1003MOL0     C35297   1.799   8.990   9.244 -0.1087 -0.5625  0.0803
 1003MOL0     C35298   1.883   8.896   9.152  0.4204 -0.0847  0.4321
 1003MOL0     C35299   1.774   9.130   9.204  0.4492  0.0773  0.4803
 1003MOL0     C35300   1.808   9.179   9.053 -0.2121 -0.8311 -0.0426
 1003MOL0     O35301   1.704   9.171   8.961  0.3129 -0.5202 -0.5613
 1003MOL0     C35302   1.732   9.224   8.831  0.6773 -0.6047  0.3633
 1003MOL0     C35303   1.690   9.347   8.780  0.5836 -0.4782 -0.5380
 1003MOL0     C35304   1.714   9.400   8.657  0.9610 -0.5050  0.0963
 1003MOL0     C35305   1.775   9.321   8.561 -0.3873 -0.0410  0.2278
 1003MOL0     O35306   1.799   9.374   8.438 -0.3590 -0.2451  0.5994
 1003MOL0     C35307   1.933   9.353   8.390 -0.2179  0.5140  0.3370
 1003MOL0     C35308   1.969   9.449   8.285  0.4285 -0.8079  0.2165
 1003MOL0     C35309   1.875   9.425   8.167  0.4131 -0.9631  0.0782
 1003MOL0     C35310   1.959   9.448   8.039  0.0024 -0.0614 -0.3629
 1003MOL0     C35311   1.866   9.516   7.941  1.0579  0.0921  0.7278
 1003MOL0     C35312   1.916   9.503   7.801 -0.2789 -0.5127 -0.1868
 1003MOL0     C35313   1.811   9.560   7.694 -0.2551 -0.6035  0.2027
 1003MOL0     C35314   1.898   9.570   7.565  0.3573 -0.7715  0.2205
 1003MOL0    Cl35315   1.991   9.728   7.585 -0.1687  0.1008 -0.0399
 1003MOL0     C35316   1.819   9.197   8.602  0.0619  0.3404 -0.2403
 1003MOL0     C35317   1.810   9.154   8.737  0.4480 -1.9664 -1.5185
 1003MOL0     O35318   1.927   9.216   9.025 -0.4640 -0.0893  0.0624
 1003MOL0     C35319   1.717   9.221   9.292  0.0374  0.4424 -1.0363
 1003MOL0     C35320   1.679   9.170   9.414  1.5063  1.1131 -0.2193
 1003MOL0     N35321   1.695   8.895  10.122  0.2542 -0.0283 -0.2408
 1003MOL0     N35322   1.698   8.948  10.234  0.2477 -0.5617  0.0330
 1003MOL0     C35323   1.406   8.315  10.797  0.4513 -0.3857  0.8024
 1003MOL0     C35324   1.307   8.220  10.829 -0.9475 -1.4390  0.6782
 1003MOL0     C35325   1.002   7.986  11.064  0.4835 -0.1532  0.8914
 1003MOL0     C35326   1.061   7.857  11.081  0.2624 -1.2572  0.5182
 1003MOL0     C35327   0.980   7.754  11.134  0.4619  0.0933 -0.0999
 1003MOL0     C35328   0.860   7.782  11.193  0.1474 -0.8473  0.9792
 1003MOL0     O35329   0.794   7.675  11.242  0.5516  0.0965  0.7540
 1003MOL0     C35330   0.653   7.689  11.284 -0.4503  0.1873  0.0529
 1003MOL0     C35331   0.604   7.559  11.333 -0.3491 -0.4530 -0.1457
 1003MOL0     C35332   0.662   7.499  11.461 -0.3122 -0.1234 -0.4365
 1003MOL0     C35333   0.600   7.523  11.592  0.8033 -0.1148  0.2278
 1003MOL0     C35334   0.675   7.440  11.693  0.8586 -0.0016  0.2425
 1003MOL0     C35335   0.739   7.386  11.775  0.6245 -0.0579 -2.3986
 1003MOL0     C35336   0.805   7.908  11.183  0.0842  0.9725  0.1363
 1003MOL0     C35337   0.870   8.004  11.114 -0.7419 -0.3687  0.5366
 1003MOL0     H35338   1.345   8.254  11.162  1.4168  0.6912  0.6652
 1003MOL0     H35339   1.508   8.418  11.106 -0.1714 -2.5475  1.8969
 1003MOL0     H35340   1.572   8.614  11.000  0.6313  0.1902  0.1079
 1003MOL0     H35341   1.707   8.500  10.950 -1.9679 -3.6827 -2.2948
 1003MOL0     H35342   1.779   8.724  10.876  0.7750 -1.5536  0.6660
 1003MOL0     H35343   1.718   8.637  10.730  2.4555  1.7709 -0.2170
 1003MOL0     H35344   1.553   8.848  10.891  1.3340 -1.6274  1.5285
 1003MOL0     H35345   1.653   8.879  10.741 -0.5217  2.0339  2.1629
 1003MOL0     H35346   1.480   8.758  10.611  0.4325  0.6778  0.2685
 1003MOL0     H35347   1.384   8.714  10.754 -0.1799 -0.6427 -0.5253
 1003MOL0     H35348   1.282   8.893  10.633 -0.7195 -0.7102  4.1945
 1003MOL0     H35349   1.332   8.967  10.780 -2.6364  0.4620  0.5134
 1003MOL0     H35350   1.392   9.117  10.597  0.0686  0.1313  0.0224
 1003MOL0     H35351   1.533   9.050  10.673 -0.1466 -1.4088  1.4158
 1003MOL0     H35352   1.572   8.902  10.486 -0.0255 -0.0691  2.0635
 1003MOL0     H35353   1.397   8.923  10.430 -1.0864  3.0113 -1.2109
 1003MOL0     H35354   1.619   9.129  10.417  0.5516  0.7044 -1.2862
 1003MOL0     H35355   1.450   9.153  10.358  0.8312  1.2250  2.4413
 1003MOL0     H35356   1.379   8.969  10.153 -0.2718 -1.3319  5.6054
 1003MOL0     H35357   1.596   8.748   9.922 -4.5422 -5.1613  1.6364
 1003MOL0     H35358   1.425   8.779   9.961 -1.0054  1.8929 -1.4919
 1003MOL0     H35359   1.454   8.998   9.833 -0.8767 -1.1414  1.9383
 1003MOL0     H35360   1.517   8.871   9.738  0.6191  1.1615 -0.8151
 1003MOL0     H35361   1.742   8.918   9.821 -2.0424 -2.8243 -0.6341
 1003MOL0     H35362   1.677   9.063   9.905  3.1160  0.9089 -0.3597
 1003MOL0     H35363   1.764   9.122   9.690 -0.9503  0.8435  2.2868
 1003MOL0     H35364   1.598   9.154   9.671  0.7198 -0.2382 -1.4433
 1003MOL0     H35365   1.751   8.846   9.394 -2.2619 -0.6174 -2.1620
 1003MOL0     H35366   1.963   8.851   9.212  0.1680 -1.1714 -0.0222
 1003MOL0     H35367   1.816   8.819   9.113 -2.3088  2.7895 -1.0048
 1003MOL0     H35368   1.928   8.941   9.063 -4.9008  1.2397 -2.0063
 1003MOL0     H35369   1.636   9.408   8.852 -2.5425 -1.3607 -1.9667
 1003MOL0     H35370   1.680   9.500   8.633 -0.0816 -0.6811  0.7679
 1003MOL0     H35371   1.987   9.376   8.482  0.0930  2.0266 -0.1952
 1003MOL0     H35372   1.949   9.249   8.360 -0.7221  0.4167  0.3952
 1003MOL0     H35373   1.954   9.550   8.324 -2.0005 -1.3374  0.8428
 1003MOL0     H35374   2.075   9.440   8.263  0.2659  2.4610 -2.7596
 1003MOL0     H35375   1.790   9.493   8.178  0.4899 -0.9862  0.9044
 1003MOL0     H35376   1.833   9.324   8.176  0.0306 -0.7301  0.9548
 1003MOL0     H35377   2.046   9.513   8.057  0.5726 -1.1893  1.0675
 1003MOL0     H35378   1.996   9.353   8.001  2.9391 -0.1024  2.2183
 1003MOL0     H35379   1.854   9.623   7.961  0.0157  0.4445 -1.4470
 1003MOL0     H35380   1.768   9.467   7.938  1.7269 -1.3372  1.0318
 1003MOL0     H35381   2.006   9.565   7.802  0.2068 -1.1969 -0.5978
 1003MOL0     H35382   1.934   9.396   7.789  1.7924 -0.1519 -0.6798
 1003MOL0     H35383   1.777   9.661   7.720  0.0991  0.2780 -2.4369
 1003MOL0     H35384   1.732   9.487   7.681 -1.3133  0.2660  1.4683
 1003MOL0     H35385   1.833   9.577   7.477 -2.8351 -1.0117  2.3938
 1003MOL0     H35386   1.970   9.488   7.551  0.3535 -0.8091  0.4184
 1003MOL0     H35387   1.881   9.140   8.534 -1.8784  2.2370 -3.9557
 1003MOL0     H35388   1.864   9.069   8.777  1.5333 -0.3290  0.7247
 1003MOL0     H35389   1.689   9.323   9.269 -3.4036 -0.5265 -1.6707
 1003MOL0     H35390   1.634   9.238   9.485  1.1389 -2.0118  2.8184
 1003MOL0     H35391   1.420   8.344  10.693  5.0597 -1.2438  0.9755
 1003MOL0     H35392   1.254   8.164  10.753 -0.6302 -1.1120  0.2116
 1003MOL0     H35393   1.155   7.836  11.033  1.7613  1.2422  2.1299
 1003MOL0     H35394   1.026   7.656  11.129 -0.3468 -0.2606 -1.0303
 1003MOL0     H35395   0.639   7.768  11.358  0.3832 -1.6947  2.3485
 1003MOL0     H35396   0.591   7.711  11.197  0.8322  2.0054 -0.4470
 1003MOL0     H35397   0.621   7.494  11.246  0.3431  0.1028 -0.4334
 1003MOL0     H35398   0.498   7.568  11.357  0.1796 -0.1450  2.2495
 1003MOL0     H35399   0.768   7.522  11.462 -1.2579  5.8099 -0.9182
 1003MOL0     H35400   0.647   7.391  11.453  0.4066 -0.2658  0.0739
 1003MOL0     H35401   0.496   7.487  11.592  1.0762 -1.8179 -4.9222
 1003MOL0     H35402   0.604   7.626  11.626  5.2700 -0.2981  0.8898
 1003MOL0     H35403   0.795   7.319  11.837  0.1668 -2.1888 -4.1607
 1003MOL0     H35404   0.708   7.930  11.227  0.8293  2.3384  1.1696
 1003MOL0     H35405   0.835   8.106  11.104 -0.6937 -0.2094  1.8596
 1004MOL0     O35406   9.090   4.725   8.666 -0.7627  0.3377 -0.0831
 1004MOL0     C35407   9.140   4.761   8.563  0.7757 -0.3235 -0.2738
 1004MOL0     O35408   9.264   4.815   8.545  0.0408  0.1857 -0.1042
 1004MOL0     C35409   9.354   4.826   8.646  0.1164 -0.3148  0.7178
 1004MOL0     C35410   9.413   4.950   8.680  0.3484 -0.8970 -0.7269
 1004MOL0     C35411   9.503   4.957   8.780  0.3537 -0.5229  0.0102
 1004MOL0     C35412   9.539   4.858   8.863  0.1315  1.1487  1.1653
 1004MOL0     O35413   9.621   4.879   8.963 -0.4713 -0.1419 -0.3960
 1004MOL0     C35414   9.643   4.780   9.062 -0.3877 -0.1243 -0.2541
 1004MOL0     C35415   9.749   4.820   9.163 -0.1654  0.2933  0.4917
 1004MOL0     C35416   9.718   4.753   9.303 -0.2023  0.3028 -0.3697
 1004MOL0     C35417   9.688   4.599   9.298  0.5447 -1.2816 -0.6902
 1004MOL0     C35418   9.578   4.557   9.393  0.4566 -0.2801  0.2817
 1004MOL0     C35419   9.433   4.609   9.364  0.2576 -0.0001 -0.0281
 1004MOL0     C35420   9.317   4.541   9.453 -0.6489  0.0828 -0.8219
 1004MOL0     C35421   9.286   4.399   9.415 -1.0052  0.2014 -0.2296
 1004MOL0     N35422   9.165   4.346   9.484 -0.6140  0.4052  0.0701
 1004MOL0     C35423   9.156   4.315   9.613 -0.2077 -0.8414 -0.4132
 1004MOL0     C35424   9.028   4.276   9.630 -0.6225 -0.0739  0.5858
 1004MOL0     C35425   8.982   4.215   9.758  0.1616  0.2008 -0.8383
 1004MOL0     C35426   8.887   4.301   9.848  1.0037 -0.4643  0.1192
 1004MOL0     C35427   8.956   4.430   9.885 -0.2774  1.5990  0.1878
 1004MOL0     C35428   8.870   4.536   9.941  0.6125  0.7902  0.8381
 1004MOL0     O35429   8.939   4.639  10.003  0.3738  0.2760  0.4334
 1004MOL0     C35430   8.873   4.759  10.021 -0.3309  0.3792  0.2238
 1004MOL0     C35431   8.822   4.831   9.915 -0.2323 -1.4211  1.4084
 1004MOL0     C35432   8.750   4.947   9.925  0.3176  0.4039  0.0882
 1004MOL0     C35433   8.687   5.008   9.808 -0.0394 -0.1177 -0.3331
 1004MOL0     C35434   8.742   5.007  10.048 -0.3318  0.1676  0.6984
 1004MOL0     C35435   8.683   5.146  10.077 -0.6326 -0.0675  0.0760
 1004MOL0     O35436   8.667   5.174  10.204  0.7229 -0.2188 -0.5963
 1004MOL0     C35437   8.641   5.304  10.246  0.1135 -0.1668 -0.0818
 1004MOL0     C35438   8.543   5.390  10.181 -0.3352  0.6878 -0.4143
 1004MOL0     C35439   8.512   5.511  10.247 -0.2789 -0.1054 -0.0781
 1004MOL0     C35440   8.592   5.560  10.364 -0.0880 -0.2490 -0.2884
 1004MOL0     O35441   8.576   5.686  10.420  0.1183 -0.2038  0.7832
 1004MOL0     C35442   8.442   5.744  10.404 -0.1981 -0.7100  0.8277
 1004MOL0     C35443   8.437   5.858  10.509 -0.4005  0.1366 -0.2049
 1004MOL0     C35444   8.486   5.991  10.455  0.2534 -0.5737 -0.3200
 1004MOL0     C35445   8.468   6.113  10.554  0.7189 -0.1269  0.6405
 1004MOL0     C35446   8.334   6.183  10.570 -0.1202 -0.0650 -0.3168
 1004MOL0     C35447   8.296   6.266  10.450 -0.0851  0.5153  0.2299
 1004MOL0     C35448   8.151   6.288  10.474 -0.7176 -0.1254 -0.6464
 1004MOL0     C35449   8.116   6.369  10.601  0.4490  0.8419  1.8030
 1004MOL0    Cl35450   8.057   6.286  10.747  0.0357  0.3124 -0.1213
 1004MOL0     C35451   8.698   5.476  10.409  0.9862 -0.5243 -0.3134
 1004MOL0     C35452   8.710   5.349  10.356 -0.1215 -0.1052  1.1518
 1004MOL0     O35453   8.659   5.230   9.985 -0.5797  1.0062 -0.4100
 1004MOL0     C35454   8.814   4.947  10.160  0.1156 -0.2893 -0.2162
 1004MOL0     C35455   8.872   4.824  10.148  0.4882  0.1277  0.6184
 1004MOL0     N35456   8.967   4.285   9.506  0.3434 -0.1421  0.2502
 1004MOL0     N35457   9.048   4.338   9.423  0.2614  0.2466  0.6844
 1004MOL0     C35458   9.471   4.739   8.834  0.2730 -0.5349  0.1495
 1004MOL0     C35459   9.375   4.722   8.740  0.3610 -0.3558 -0.0233
 1004MOL0     C35460   9.052   4.754   8.428 -0.8561  0.8732  0.3088
 1004MOL0     C35461   9.114   4.785   8.310  0.4070 -0.3522 -0.4606
 1004MOL0     C35462   9.036   4.778   8.193  0.0030 -0.0779 -0.9523
 1004MOL0     C35463   8.895   4.762   8.208 -0.1394  0.9196  0.4364
 1004MOL0     O35464   8.832   4.761   8.091  0.4667 -0.5581 -0.7673
 1004MOL0     C35465   8.694   4.734   8.097  0.3476  0.3723  0.6413
 1004MOL0     C35466   8.621   4.756   7.961 -0.7407  0.2665  0.4441
 1004MOL0     C35467   8.475   4.718   7.967  0.9206 -0.1657  0.0739
 1004MOL0     C35468   8.442   4.567   7.970 -0.4711  0.6004 -0.1606
 1004MOL0     C35469   8.451   4.491   7.846 -0.1011 -0.0475 -0.5841
 1004MOL0     C35470   8.454   4.430   7.745 -0.2788  0.4753 -0.6354
 1004MOL0     C35471   8.845   4.733   8.333  0.4160 -0.1987  0.0720
 1004MOL0     C35472   8.918   4.727   8.439 -0.4159  0.5658 -0.7006
 1004MOL0     H35473   9.382   5.035   8.621 -2.1220  0.5730  2.4409
 1004MOL0     H35474   9.546   5.053   8.807 -0.2728  0.4193 -2.1213
 1004MOL0     H35475   9.554   4.771   9.125  1.4026  3.2705  3.1418
 1004MOL0     H35476   9.674   4.682   9.023 -0.6424  0.3922 -1.8314
 1004MOL0     H35477   9.852   4.811   9.128  0.6192  2.5683  2.0039
 1004MOL0     H35478   9.752   4.928   9.180  2.5681  0.5172 -0.8475
 1004MOL0     H35479   9.807   4.763   9.367  0.5420  2.3576 -1.6383
 1004MOL0     H35480   9.642   4.812   9.356 -0.4083 -1.3802  1.3418
 1004MOL0     H35481   9.651   4.564   9.201 -3.5018  1.0747 -0.2389
 1004MOL0     H35482   9.786   4.553   9.316  2.6470  2.8251 -0.5094
 1004MOL0     H35483   9.561   4.449   9.382 -4.8132  0.4726 -1.5195
 1004MOL0     H35484   9.601   4.578   9.498 -1.2988 -0.4873  0.7358
 1004MOL0     H35485   9.442   4.715   9.388  1.2453 -0.2876  0.9728
 1004MOL0     H35486   9.415   4.591   9.257  2.0422  1.8504 -0.6920
 1004MOL0     H35487   9.343   4.550   9.559 -1.7296  2.1895 -0.6738
 1004MOL0     H35488   9.223   4.596   9.444  0.5615  2.4769  0.1490
 1004MOL0     H35489   9.375   4.337   9.430 -2.0938 -0.7802  2.8057
 1004MOL0     H35490   9.266   4.407   9.308 -1.4371  0.4679 -0.1322
 1004MOL0     H35491   9.240   4.340   9.676  0.7431  0.9688 -2.2925
 1004MOL0     H35492   8.936   4.118   9.735  1.6622 -0.9828  0.8730
 1004MOL0     H35493   9.062   4.172   9.817  1.9022  0.1794 -3.0710
 1004MOL0     H35494   8.867   4.241   9.936  0.6734  0.8591  0.9822
 1004MOL0     H35495   8.798   4.317   9.786  2.1203 -1.0881 -1.7351
 1004MOL0     H35496   8.992   4.470   9.790 -0.7178  0.9921 -0.2387
 1004MOL0     H35497   9.040   4.413   9.952 -0.4751  4.0819  1.1779
 1004MOL0     H35498   8.819   4.492  10.027  2.4857  0.2984  1.7330
 1004MOL0     H35499   8.798   4.571   9.866  0.2051 -2.0693 -0.2403
 1004MOL0     H35500   8.849   4.784   9.821 -2.0364 -2.1186  1.2160
 1004MOL0     H35501   8.678   4.940   9.722  1.8505  0.1564 -0.7780
 1004MOL0     H35502   8.585   5.030   9.841 -0.0830 -1.2478  0.3405
 1004MOL0     H35503   8.747   5.096   9.785  3.2312 -2.1406 -0.2316
 1004MOL0     H35504   8.480   5.356  10.099 -0.6238  0.8980 -0.2790
 1004MOL0     H35505   8.440   5.573  10.193 -0.3544 -0.0504  0.0870
 1004MOL0     H35506   8.424   5.794  10.309  0.3738 -1.1746  0.4710
 1004MOL0     H35507   8.364   5.670  10.427 -3.0003  2.1023  1.0076
 1004MOL0     H35508   8.329   5.878  10.514 -0.8230 -1.4147 -2.1294
 1004MOL0     H35509   8.489   5.833  10.602  1.9131  1.5944 -1.0116
 1004MOL0     H35510   8.419   6.015  10.372 -1.6771 -0.9138  1.0534
 1004MOL0     H35511   8.592   5.986  10.432  0.0395  0.2402 -1.5725
 1004MOL0     H35512   8.509   6.091  10.653  0.9581 -2.5995  0.0693
 1004MOL0     H35513   8.546   6.184  10.526 -0.2218  1.5130  2.0035
 1004MOL0     H35514   8.334   6.246  10.659 -5.2460  0.5847 -0.4900
 1004MOL0     H35515   8.262   6.104  10.596  1.6485 -1.5072  0.4313
 1004MOL0     H35516   8.350   6.360  10.439 -0.2931  0.5508 -0.4998
 1004MOL0     H35517   8.297   6.218  10.352 -0.3189  1.6436 -0.3358
 1004MOL0     H35518   8.091   6.197  10.461 -1.9985  0.4104  1.1628
 1004MOL0     H35519   8.128   6.359  10.394  1.5513 -1.7423 -2.9097
 1004MOL0     H35520   8.034   6.438  10.582 -2.2722 -2.7444 -1.1852
 1004MOL0     H35521   8.201   6.429  10.634  1.0057  0.0427  1.8510
 1004MOL0     H35522   8.760   5.506  10.492  4.0452  0.3063 -2.6967
 1004MOL0     H35523   8.782   5.279  10.397 -2.8048 -1.8866  3.2120
 1004MOL0     H35524   8.816   4.988  10.260  1.9046 -2.1799  0.5776
 1004MOL0     H35525   8.918   4.788  10.239 -1.4924 -1.3983  1.0940
 1004MOL0     H35526   9.492   4.660   8.906 -1.0799 -0.5973  0.4978
 1004MOL0     H35527   9.326   4.625   8.735 -0.2397 -0.0163 -0.7813
 1004MOL0     H35528   9.221   4.800   8.306  0.4792  0.7776  2.8322
 1004MOL0     H35529   9.074   4.811   8.097  0.3931  2.0998 -0.1282
 1004MOL0     H35530   8.671   4.630   8.123 -2.9500  1.1151  1.1215
 1004MOL0     H35531   8.640   4.799   8.166  1.3394  0.9933  0.8528
 1004MOL0     H35532   8.671   4.703   7.880  4.2149  3.6942  0.8004
 1004MOL0     H35533   8.636   4.863   7.942  3.4387  0.3955  3.0563
 1004MOL0     H35534   8.413   4.763   7.889 -1.5811 -3.0869  0.1583
 1004MOL0     H35535   8.431   4.759   8.058 -2.0780 -1.0045 -0.8794
 1004MOL0     H35536   8.336   4.556   7.995 -0.0958 -0.7123  0.9693
 1004MOL0     H35537   8.493   4.519   8.054 -0.7871  1.7896  0.7435
 1004MOL0     H35538   8.456   4.381   7.650 -6.0399 -0.1169 -0.8089
 1004MOL0     H35539   8.739   4.712   8.343  0.3954  0.4853  1.5270
 1004MOL0     H35540   8.870   4.711   8.535  0.9471 -0.4751 -0.1621
 1005MOL0     O35541  11.491  10.784   1.858 -1.0064 -0.7177 -0.6127
 1005MOL0     C35542  11.383  10.767   1.805 -0.1084  0.2423 -0.3427
 1005MOL0     O35543  11.282  10.859   1.792 -0.7239  0.4243  0.1645
 1005MOL0     C35544  11.289  10.978   1.863 -0.1990  0.7234 -1.0274
 1005MOL0     C35545  11.361  11.006   1.984  0.9917  0.8468 -0.2684
 1005MOL0     C35546  11.317  11.106   2.075  0.8955 -0.1788 -0.2508
 1005MOL0     C35547  11.213  11.189   2.043  0.0489  0.3956  0.4096
 1005MOL0     O35548  11.165  11.282   2.127 -0.0592  0.1107  0.2344
 1005MOL0     C35549  11.204  11.301   2.264 -0.0653  0.4350  0.1750
 1005MOL0     C35550  11.106  11.386   2.344  0.8387  0.4871 -0.8093
 1005MOL0     C35551  11.146  11.532   2.327 -0.1623  0.0507 -0.4424
 1005MOL0     C35552  11.050  11.622   2.409 -0.0393 -0.5875  0.4993
 1005MOL0     C35553  11.123  11.746   2.467 -0.1608  0.0622 -0.0866
 1005MOL0     C35554  11.028  11.820   2.565  0.2724 -0.0997 -0.5960
 1005MOL0     C35555  11.073  11.959   2.610 -0.1281 -0.9687  0.2995
 1005MOL0     C35556  11.193  11.965   2.710 -0.7855  0.6823 -0.0919
 1005MOL0     N35557  11.200  12.094   2.776  0.7780 -0.2278  0.6119
 1005MOL0     C35558  11.287  12.190   2.743  1.3878 -0.3810 -0.7895
 1005MOL0     C35559  11.262  12.283   2.833  0.4058 -0.6275 -0.6207
 1005MOL0     C35560  11.323  12.417   2.855  0.2303 -0.2076  0.4239
 1005MOL0     C35561  11.344  12.444   3.000 -0.1987  0.1400 -0.2771
 1005MOL0     C35562  11.453  12.544   3.034  0.6748 -0.7098 -0.3808
 1005MOL0     C35563  11.424  12.678   2.968  0.6983 -1.1054  1.0756
 1005MOL0     O35564  11.501  12.792   3.004 -0.4637  0.6716  0.1228
 1005MOL0     C35565  11.475  12.853   3.123 -0.9922  0.8762 -0.4793
 1005MOL0     C35566  11.575  12.848   3.227 -0.3143  0.0123 -0.1730
 1005MOL0     C35567  11.580  12.922   3.344 -0.6434  0.9237  0.3380
 1005MOL0     C35568  11.693  12.898   3.448  0.0333  0.2129 -0.4520
 1005MOL0     C35569  11.471  13.016   3.355  0.1169  0.9860 -0.3761
 1005MOL0     C35570  11.483  13.115   3.452 -0.0313 -0.7144  0.5375
 1005MOL0     O35571  11.590  13.199   3.453 -0.6663 -0.5338 -0.3505
 1005MOL0     C35572  11.592  13.308   3.537 -0.4651 -0.4433  0.6001
 1005MOL0     C35573  11.588  13.430   3.467 -1.0851  0.0735  0.6593
 1005MOL0     C35574  11.603  13.552   3.528  0.4526  0.0093 -0.5047
 1005MOL0     C35575  11.629  13.559   3.669 -0.1494 -0.3312  0.6132
 1005MOL0     O35576  11.630  13.669   3.748 -0.1180  0.6561 -0.0614
 1005MOL0     C35577  11.605  13.798   3.697  0.0131  0.9964 -0.6486
 1005MOL0     C35578  11.491  13.842   3.775  0.3898  0.4844 -0.4447
 1005MOL0     C35579  11.526  13.945   3.874  0.3230 -0.3946  1.0018
 1005MOL0     C35580  11.433  13.942   3.993  0.0941  0.3327  0.1007
 1005MOL0     C35581  11.454  14.032   4.112  0.2099 -0.1287  0.2193
 1005MOL0     C35582  11.312  14.055   4.162  0.3519  0.2675 -0.3070
 1005MOL0     C35583  11.320  14.120   4.288 -0.4475 -0.3325 -0.8785
 1005MOL0     C35584  11.179  14.191   4.330 -0.5039  0.4414 -0.0832
 1005MOL0    Cl35585  11.134  14.323   4.222 -0.3574 -0.0282  0.1749
 1005MOL0     C35586  11.627  13.433   3.740  0.6617 -1.2177 -0.0160
 1005MOL0     C35587  11.617  13.311   3.675 -0.3174 -0.2319 -0.1398
 1005MOL0     O35588  11.387  13.114   3.524 -0.0283 -0.0718  0.2137
 1005MOL0     C35589  11.364  13.020   3.267  0.6119 -0.7141 -0.1988
 1005MOL0     C35590  11.372  12.938   3.148  0.0662 -0.8602 -0.7443
 1005MOL0     N35591  11.153  12.257   2.911 -0.0925  0.6231 -0.3521
 1005MOL0     N35592  11.115  12.138   2.873  0.7358 -0.3177  0.4986
 1005MOL0     C35593  11.154  11.172   1.915  0.6799  0.0726 -1.1774
 1005MOL0     C35594  11.187  11.064   1.831 -0.1945 -0.6389 -0.5405
 1005MOL0     C35595  11.377  10.655   1.715 -0.0531  0.2240  0.4317
 1005MOL0     C35596  11.462  10.543   1.737 -0.3513 -0.5185  0.8641
 1005MOL0     C35597  11.456  10.428   1.660  0.1971 -0.6720  0.5567
 1005MOL0     C35598  11.368  10.412   1.546  0.1316 -1.8704 -0.5057
 1005MOL0     O35599  11.367  10.296   1.477  1.1166  0.4009  0.6846
 1005MOL0     C35600  11.258  10.261   1.383  0.1165 -0.0241 -0.6315
 1005MOL0     C35601  11.267  10.118   1.340  0.6454 -0.0171 -0.1759
 1005MOL0     C35602  11.229  10.011   1.444  0.8870 -1.1193  0.1134
 1005MOL0     C35603  11.242   9.868   1.400  0.0881  0.0297 -0.0196
 1005MOL0     C35604  11.242   9.778   1.515  0.9862  0.3149  0.6984
 1005MOL0     C35605  11.252   9.726   1.629  0.6146  0.9321 -0.4643
 1005MOL0     C35606  11.297  10.534   1.516  0.6733  0.2079 -0.4046
 1005MOL0     C35607  11.295  10.654   1.602 -0.0194 -0.2986  0.3872
 1005MOL0     H35608  11.441  10.938   2.011  0.9594  0.9812  0.1713
 1005MOL0     H35609  11.374  11.124   2.166  0.0269  0.0936  0.2557
 1005MOL0     H35610  11.212  11.204   2.314  0.5215 -0.5499 -1.7161
 1005MOL0     H35611  11.304  11.345   2.264 -0.6110  1.7445  1.7922
 1005MOL0     H35612  11.003  11.359   2.321  0.9040 -1.6699  1.0572
 1005MOL0     H35613  11.122  11.354   2.448 -2.0819  1.1242 -0.0780
 1005MOL0     H35614  11.249  11.546   2.360 -0.1496  0.0573 -0.4861
 1005MOL0     H35615  11.144  11.573   2.225 -1.6207  0.4261 -0.2846
 1005MOL0     H35616  10.971  11.663   2.344  0.9021 -1.6898 -1.4256
 1005MOL0     H35617  11.002  11.572   2.493  2.9263 -1.5668  1.7367
 1005MOL0     H35618  11.210  11.731   2.532 -0.0249  3.6380  0.7492
 1005MOL0     H35619  11.159  11.812   2.388  2.8996  1.5041  2.3071
 1005MOL0     H35620  10.932  11.832   2.514 -2.4011 -3.2798  3.1077
 1005MOL0     H35621  11.002  11.758   2.651  2.0405  0.5293  0.4352
 1005MOL0     H35622  11.093  12.012   2.516 -3.6945  1.3586  0.6823
 1005MOL0     H35623  10.988  12.000   2.665  1.2803 -0.2593  2.0529
 1005MOL0     H35624  11.282  11.934   2.654 -1.4185  0.6141 -1.0773
 1005MOL0     H35625  11.173  11.902   2.797 -0.4613  2.4238  1.3005
 1005MOL0     H35626  11.371  12.179   2.675  0.5269 -0.9172 -1.7933
 1005MOL0     H35627  11.415  12.421   2.796  1.0580  3.9033  1.6860
 1005MOL0     H35628  11.258  12.496   2.817 -0.9202 -0.4516  1.7979
 1005MOL0     H35629  11.379  12.350   3.043  2.2859  0.0024 -2.3580
 1005MOL0     H35630  11.247  12.467   3.044 -0.8985 -0.9900 -1.1862
 1005MOL0     H35631  11.544  12.491   3.008 -1.8331 -4.0857 -3.2615
 1005MOL0     H35632  11.457  12.559   3.143 -3.6372 -3.5374  0.4107
 1005MOL0     H35633  11.320  12.703   2.989  0.7648 -0.7568  0.9975
 1005MOL0     H35634  11.436  12.668   2.860 -1.3658 -1.7653  0.8624
 1005MOL0     H35635  11.653  12.781   3.192 -2.4988 -2.5594 -0.5015
 1005MOL0     H35636  11.679  12.835   3.536  3.0967  1.7634  1.3128
 1005MOL0     H35637  11.772  12.837   3.401 -1.4152 -3.5978  1.6324
 1005MOL0     H35638  11.731  12.992   3.488 -1.2834  0.7487 -0.4123
 1005MOL0     H35639  11.564  13.420   3.362 -4.2552 -1.3736  1.4019
 1005MOL0     H35640  11.597  13.639   3.462 -0.5376  3.7650  3.9629
 1005MOL0     H35641  11.689  13.867   3.706 -0.3330  1.5684 -1.6483
 1005MOL0     H35642  11.580  13.801   3.590 -0.2277  0.0915 -0.6298
 1005MOL0     H35643  11.413  13.880   3.708 -0.9736  0.4244  1.0455
 1005MOL0     H35644  11.439  13.759   3.822 -1.0069  0.0885 -2.5593
 1005MOL0     H35645  11.514  14.043   3.827  0.2015 -0.9549 -0.1911
 1005MOL0     H35646  11.620  13.929   3.926  0.6306 -2.0048  0.0384
 1005MOL0     H35647  11.335  13.968   3.952  0.5005 -1.9967 -2.6518
 1005MOL0     H35648  11.440  13.841   4.033 -1.0881  1.7009  4.2441
 1005MOL0     H35649  11.516  14.118   4.086 -1.5557  2.1593  2.9502
 1005MOL0     H35650  11.503  13.976   4.193 -1.0627 -1.2891  0.2088
 1005MOL0     H35651  11.262  14.117   4.086 -1.1251 -2.1134 -1.4122
 1005MOL0     H35652  11.257  13.961   4.174  0.1313  0.6018  1.4984
 1005MOL0     H35653  11.388  14.205   4.293 -1.1232  0.4838 -3.8355
 1005MOL0     H35654  11.349  14.049   4.367 -2.9644  1.7195  2.1201
 1005MOL0     H35655  11.198  14.230   4.431 -3.5529  1.3470  0.2362
 1005MOL0     H35656  11.099  14.117   4.342  1.0299 -1.0365  1.7603
 1005MOL0     H35657  11.616  13.434   3.848 -1.8353 -2.2273 -0.2014
 1005MOL0     H35658  11.629  13.213   3.720  1.8540 -1.4072 -2.9352
 1005MOL0     H35659  11.291  13.100   3.270  0.6861 -0.5542 -2.0587
 1005MOL0     H35660  11.317  12.966   3.059  1.0130  0.2533 -1.0041
 1005MOL0     H35661  11.066  11.225   1.882 -1.2508 -2.7788 -0.9217
 1005MOL0     H35662  11.127  11.046   1.742 -0.9386  1.9511 -0.6457
 1005MOL0     H35663  11.529  10.538   1.823  0.6478 -0.3362  0.1154
 1005MOL0     H35664  11.518  10.347   1.698 -2.5699 -2.8835  0.6663
 1005MOL0     H35665  11.154  10.268   1.418  0.4446 -0.9819  0.6007
 1005MOL0     H35666  11.268  10.327   1.296 -0.4490  1.8094  0.6412
 1005MOL0     H35667  11.372  10.109   1.308  0.6322 -0.3677 -0.1288
 1005MOL0     H35668  11.203  10.115   1.251 -1.2206  2.4764  0.9699
 1005MOL0     H35669  11.128  10.039   1.477  0.8802 -0.0554 -0.7301
 1005MOL0     H35670  11.293  10.033   1.529  2.1902 -0.4574 -1.0108
 1005MOL0     H35671  11.338   9.852   1.351 -0.9694  1.8871 -2.9020
 1005MOL0     H35672  11.162   9.834   1.333  0.1578  1.1492 -0.6793
 1005MOL0     H35673  11.245   9.687   1.729  1.5608  0.0970 -0.7220
 1005MOL0     H35674  11.237  10.533   1.425 -0.2264 -2.9456  0.1101
 1005MOL0     H35675  11.233  10.741   1.584 -1.3696 -1.4826 -1.0273
 1006MOL0     O35676   7.552   3.148   3.351  0.3107 -0.6304 -0.1270
 1006MOL0     C35677   7.462   3.142   3.428  0.0787  0.1452 -0.5642
 1006MOL0     O35678   7.442   3.230   3.530 -0.6707 -0.9651 -0.2641
 1006MOL0     C35679   7.501   3.354   3.534  0.5874 -1.0790  0.5086
 1006MOL0     C35680   7.411   3.467   3.541  0.0379  0.5099  0.1906
 1006MOL0     C35681   7.453   3.595   3.554  0.0374  0.0315  0.0322
 1006MOL0     C35682   7.594   3.620   3.542 -0.0768 -0.4122  0.1425
 1006MOL0     O35683   7.665   3.736   3.542  0.3054  0.3548 -0.3964
 1006MOL0     C35684   7.589   3.866   3.522 -0.2029 -0.2814 -0.9782
 1006MOL0     C35685   7.687   3.988   3.509  0.3138 -1.1532  0.3821
 1006MOL0     C35686   7.772   3.991   3.382  0.5563  0.0760 -0.6976
 1006MOL0     C35687   7.701   3.940   3.259  0.7429 -0.0383 -1.0909
 1006MOL0     C35688   7.793   3.960   3.134  0.2335  0.0673  0.0971
 1006MOL0     C35689   7.940   3.930   3.164 -1.2742  0.0806 -0.3623
 1006MOL0     C35690   8.012   3.915   3.029 -0.3375  0.0340 -0.1266
 1006MOL0     C35691   8.162   3.876   3.051 -0.3355 -0.6532  0.3952
 1006MOL0     N35692   8.248   3.991   3.094 -0.0244 -0.5847 -0.6059
 1006MOL0     C35693   8.289   4.077   2.994 -0.2295  0.4244  0.5533
 1006MOL0     C35694   8.344   4.177   3.067  0.1253  0.3380 -1.6662
 1006MOL0     C35695   8.419   4.291   3.012  0.0479 -0.5800 -1.1480
 1006MOL0     C35696   8.329   4.411   2.974 -0.2435  1.1332 -0.0836
 1006MOL0     C35697   8.252   4.364   2.847  0.1810  0.5935  0.6746
 1006MOL0     C35698   8.180   4.490   2.787 -0.0337 -0.8194 -0.2110
 1006MOL0     O35699   8.277   4.586   2.735 -0.3490  0.5137 -0.3462
 1006MOL0     C35700   8.229   4.678   2.647  0.0643 -0.0437 -1.5708
 1006MOL0     C35701   8.278   4.687   2.515 -0.1394  0.2179  0.4204
 1006MOL0     C35702   8.246   4.793   2.436  0.6593 -0.6136  0.6454
 1006MOL0     C35703   8.318   4.795   2.302  0.2048 -0.4883 -0.1988
 1006MOL0     C35704   8.146   4.888   2.473  0.5529  0.4270  0.2624
 1006MOL0     C35705   8.103   5.003   2.385 -0.3114  0.1103 -0.7573
 1006MOL0     O35706   7.970   5.021   2.367 -0.3359 -0.2138  0.5137
 1006MOL0     C35707   7.925   5.137   2.312  1.0959 -0.6095 -0.4800
 1006MOL0     C35708   7.973   5.265   2.338  0.3913  0.9581  0.4027
 1006MOL0     C35709   7.913   5.376   2.296 -0.7565 -0.7036 -0.1501
 1006MOL0     C35710   7.803   5.373   2.212 -0.6050  0.1717 -0.0153
 1006MOL0     O35711   7.761   5.496   2.164  0.4547  0.6033 -0.2867
 1006MOL0     C35712   7.661   5.508   2.071  0.2617 -0.1245  1.0073
 1006MOL0     C35713   7.515   5.512   2.121  0.1606 -0.6481 -0.7641
 1006MOL0     C35714   7.402   5.522   2.016  1.0888 -0.0787  0.0637
 1006MOL0     C35715   7.369   5.666   1.982 -1.3126  0.2671 -0.3223
 1006MOL0     C35716   7.224   5.680   1.947 -0.2589 -0.4909  0.3500
 1006MOL0     C35717   7.196   5.826   1.903  0.3530  0.4297 -0.1914
 1006MOL0     C35718   7.049   5.843   1.886  1.0741  0.1668  0.6552
 1006MOL0     C35719   6.999   5.849   1.738  0.1771 -0.6156 -0.7120
 1006MOL0    Cl35720   7.054   6.002   1.660  0.0366  0.1089 -0.2343
 1006MOL0     C35721   7.760   5.245   2.162 -0.6827 -0.9611 -1.3436
 1006MOL0     C35722   7.819   5.135   2.219 -0.1322 -0.6702  0.7051
 1006MOL0     O35723   8.193   5.075   2.345 -0.8335  0.2170 -0.3523
 1006MOL0     C35724   8.087   4.866   2.595 -0.9367 -0.5588 -0.9204
 1006MOL0     C35725   8.132   4.765   2.688  0.1362  0.0334  0.9424
 1006MOL0     N35726   8.333   4.149   3.205  1.1523 -0.0766 -0.5927
 1006MOL0     N35727   8.286   4.037   3.223  0.4860  0.1894 -0.1635
 1006MOL0     C35728   7.683   3.510   3.535  0.5447 -0.3042  0.5642
 1006MOL0     C35729   7.639   3.374   3.528  0.0176 -0.1021  0.4712
 1006MOL0     C35730   7.381   3.014   3.434 -0.7069  0.5257 -0.0615
 1006MOL0     C35731   7.290   3.006   3.543  0.1441  0.4263  0.3997
 1006MOL0     C35732   7.211   2.884   3.552  0.4621 -0.3314  0.8842
 1006MOL0     C35733   7.216   2.793   3.446  0.4506 -1.0480 -0.1994
 1006MOL0     O35734   7.123   2.690   3.457  0.2948 -0.2257 -0.3619
 1006MOL0     C35735   7.158   2.567   3.396  0.4134 -0.2289 -0.9001
 1006MOL0     C35736   7.096   2.460   3.491  0.3241 -0.8601  0.7322
 1006MOL0     C35737   7.142   2.321   3.435 -0.0552  0.2197  0.1815
 1006MOL0     C35738   7.057   2.209   3.495 -0.2889 -0.2638  1.0197
 1006MOL0     C35739   7.078   2.216   3.640 -0.8342 -0.0672  0.3467
 1006MOL0     C35740   7.100   2.239   3.760 -0.4795 -0.8849 -0.7758
 1006MOL0     C35741   7.296   2.804   3.341 -0.5080 -0.0915 -0.2777
 1006MOL0     C35742   7.368   2.918   3.335  0.7155 -0.4470  0.4274
 1006MOL0     H35743   7.303   3.458   3.531 -0.0940  2.7366 -0.9925
 1006MOL0     H35744   7.386   3.679   3.539  0.9810  0.7746 -0.1647
 1006MOL0     H35745   7.513   3.859   3.443 -1.5166  1.8967  0.0207
 1006MOL0     H35746   7.536   3.876   3.616  0.1833 -0.8521 -0.6935
 1006MOL0     H35747   7.627   4.079   3.515  2.3329  0.1347  3.0936
 1006MOL0     H35748   7.751   4.001   3.596 -4.4155 -0.5170  4.2045
 1006MOL0     H35749   7.808   4.093   3.368 -0.6817  0.6699  0.2084
 1006MOL0     H35750   7.854   3.927   3.415  1.2357  1.8765  1.2960
 1006MOL0     H35751   7.674   3.837   3.283  1.1489  0.6289  2.8185
 1006MOL0     H35752   7.609   4.000   3.254 -0.6753 -2.1021 -0.8659
 1006MOL0     H35753   7.763   3.896   3.050  2.5819  1.8102 -2.2474
 1006MOL0     H35754   7.770   4.061   3.098  0.1650 -0.2803 -0.8649
 1006MOL0     H35755   7.977   4.018   3.218  0.3675 -1.2117  0.7273
 1006MOL0     H35756   7.958   3.835   3.216 -1.9800 -0.9967 -2.0130
 1006MOL0     H35757   7.965   3.832   2.976  2.6212 -0.9851 -1.3612
 1006MOL0     H35758   8.012   4.007   2.969 -1.5450 -1.0796 -1.9373
 1006MOL0     H35759   8.196   3.849   2.951  2.7249  1.7668  0.6292
 1006MOL0     H35760   8.169   3.798   3.127 -0.5638 -1.6083 -0.5464
 1006MOL0     H35761   8.275   4.063   2.887 -2.9093 -1.2814  1.0349
 1006MOL0     H35762   8.491   4.334   3.083 -2.6897  0.1547  1.4069
 1006MOL0     H35763   8.466   4.257   2.919  0.6435 -2.1776 -0.2999
 1006MOL0     H35764   8.391   4.493   2.936 -1.4999  1.5824 -1.2604
 1006MOL0     H35765   8.261   4.446   3.052  0.1222  2.9780 -0.5479
 1006MOL0     H35766   8.184   4.284   2.878  0.8013 -0.6431 -0.9691
 1006MOL0     H35767   8.333   4.338   2.778  2.4335  2.5080  2.4168
 1006MOL0     H35768   8.110   4.536   2.858 -1.2235  0.1794 -1.9572
 1006MOL0     H35769   8.121   4.450   2.705  0.2352 -2.0204  0.1666
 1006MOL0     H35770   8.349   4.613   2.477 -1.7625 -0.7090 -0.9689
 1006MOL0     H35771   8.349   4.894   2.267  0.5499 -0.0139  1.3691
 1006MOL0     H35772   8.409   4.735   2.315  0.4570  0.1583  1.1285
 1006MOL0     H35773   8.259   4.745   2.224  0.5456 -0.3753 -0.5345
 1006MOL0     H35774   8.064   5.271   2.395 -0.1525 -1.2983  1.5908
 1006MOL0     H35775   7.966   5.466   2.326 -0.0967 -0.7704 -1.0891
 1006MOL0     H35776   7.674   5.611   2.036 -0.9988 -0.0333  0.7510
 1006MOL0     H35777   7.674   5.433   1.992  1.7036 -1.0294  2.0454
 1006MOL0     H35778   7.493   5.417   2.171  1.4923  1.4694  4.4413
 1006MOL0     H35779   7.503   5.591   2.195 -3.6969 -2.7401  1.1413
 1006MOL0     H35780   7.318   5.473   2.065  1.4662 -2.2650 -1.3286
 1006MOL0     H35781   7.425   5.464   1.927 -1.0857  0.8677 -1.1771
 1006MOL0     H35782   7.386   5.719   2.077  2.3121  0.6582 -1.0621
 1006MOL0     H35783   7.427   5.703   1.897 -2.5418  1.5781 -0.6211
 1006MOL0     H35784   7.160   5.657   2.033 -0.8328 -0.0720  0.0412
 1006MOL0     H35785   7.198   5.618   1.861  0.9691  0.8200 -1.0368
 1006MOL0     H35786   7.236   5.901   1.972 -0.2702  0.3534  0.2633
 1006MOL0     H35787   7.251   5.839   1.809  4.3207 -5.1565  0.8706
 1006MOL0     H35788   7.024   5.932   1.945  2.5717 -0.8836  3.0259
 1006MOL0     H35789   6.987   5.771   1.940 -0.2174 -1.3897 -2.6337
 1006MOL0     H35790   6.892   5.829   1.727  0.3553 -1.5390 -0.8192
 1006MOL0     H35791   7.048   5.783   1.667 -1.7343 -0.2984 -2.4208
 1006MOL0     H35792   7.673   5.222   2.102  0.2979 -1.1060 -2.7604
 1006MOL0     H35793   7.787   5.033   2.202 -2.4987  0.0526  0.4083
 1006MOL0     H35794   8.012   4.935   2.631 -0.1418 -1.1459  2.1300
 1006MOL0     H35795   8.084   4.760   2.785 -1.0560 -0.4863  0.3533
 1006MOL0     H35796   7.787   3.539   3.520  0.2638 -0.4265 -1.8771
 1006MOL0     H35797   7.710   3.293   3.540 -0.7119 -0.4240  3.2444
 1006MOL0     H35798   7.291   3.070   3.631  1.0395 -2.4990  2.7185
 1006MOL0     H35799   7.146   2.870   3.638  0.9870 -0.2447  1.3020
 1006MOL0     H35800   7.126   2.556   3.292  0.0958  0.8899 -0.9288
 1006MOL0     H35801   7.266   2.553   3.401  0.1902 -2.9936 -1.9106
 1006MOL0     H35802   6.986   2.463   3.497 -0.2458  2.3086 -4.6929
 1006MOL0     H35803   7.146   2.474   3.587  1.0834 -0.1697  0.2431
 1006MOL0     H35804   7.248   2.304   3.459 -0.1343  1.7767  1.9196
 1006MOL0     H35805   7.120   2.326   3.328 -0.4622 -2.1961  0.1046
 1006MOL0     H35806   7.100   2.110   3.478  2.1550  0.8455  0.1858
 1006MOL0     H35807   6.949   2.217   3.483 -0.1606  0.4793  0.2989
 1006MOL0     H35808   7.108   2.245   3.867 -2.4230  0.0198 -0.6388
 1006MOL0     H35809   7.309   2.733   3.260 -0.1211  1.6142 -1.7777
 1006MOL0     H35810   7.421   2.936   3.242  0.9941 -0.0506  0.6602
 1007MOL0     O35811   4.451  10.443   9.965 -0.2104  0.0298  0.2356
 1007MOL0     C35812   4.575  10.452   9.979 -0.7436  0.7069  0.5667
 1007MOL0     O35813   4.663  10.370  10.047  0.6636  0.7230  0.5305
 1007MOL0     C35814   4.618  10.257  10.099 -0.0451 -0.3805  0.0282
 1007MOL0     C35815   4.494  10.245  10.172 -1.1868  0.6358 -0.5364
 1007MOL0     C35816   4.457  10.126  10.233 -0.2125  0.7854 -0.9471
 1007MOL0     C35817   4.542  10.016  10.220 -0.3898 -0.3819  0.2342
 1007MOL0     O35818   4.497   9.891  10.253 -1.0788 -0.1221  0.3478
 1007MOL0     C35819   4.485   9.875  10.391  0.2682 -0.9089 -0.4444
 1007MOL0     C35820   4.380   9.789  10.438 -0.1829  0.4206  0.0025
 1007MOL0     C35821   4.245   9.859  10.460  0.1429  0.1217 -0.2584
 1007MOL0     C35822   4.159   9.778  10.554  0.1529 -0.3999  0.3177
 1007MOL0     C35823   4.005   9.827  10.555 -0.0313 -0.8719 -0.5142
 1007MOL0     C35824   3.996   9.946  10.654 -0.5033 -0.4305 -0.9876
 1007MOL0     C35825   3.859  10.001  10.658  0.0249  0.0952 -0.1961
 1007MOL0     C35826   3.824  10.142  10.705 -0.0339  0.8908 -0.4157
 1007MOL0     N35827   3.851  10.181  10.848  0.9124 -0.6287  0.7498
 1007MOL0     C35828   3.969  10.188  10.905 -0.3179  0.3412 -0.3833
 1007MOL0     C35829   3.952  10.267  11.004  0.0113 -1.0042 -0.6339
 1007MOL0     C35830   4.049  10.327  11.101 -0.7088 -0.3446  0.6321
 1007MOL0     C35831   4.092  10.239  11.224 -0.0466 -0.8783 -0.0151
 1007MOL0     C35832   4.154  10.104  11.187 -0.0504  0.1455 -0.5535
 1007MOL0     C35833   4.229  10.052  11.313 -0.0084 -0.4574  0.3262
 1007MOL0     O35834   4.125   9.975  11.374 -0.0688 -0.1685  0.4158
 1007MOL0     C35835   4.167   9.922  11.498  0.2660  0.7273 -0.9235
 1007MOL0     C35836   4.274   9.957  11.581 -0.4781 -0.5597  1.7488
 1007MOL0     C35837   4.313   9.895  11.698  0.5319 -0.9321  0.0216
 1007MOL0     C35838   4.449   9.931  11.752 -0.2158  0.1897  0.1708
 1007MOL0     C35839   4.210   9.809  11.749  0.1194  0.5872  0.8013
 1007MOL0     C35840   4.224   9.730  11.870  0.1936  0.2044  0.4056
 1007MOL0     O35841   4.111   9.696  11.930  0.3415 -0.2252  0.8670
 1007MOL0     C35842   4.115   9.636  12.054  0.2369  0.1580 -1.1079
 1007MOL0     C35843   4.187   9.518  12.080 -1.2574 -0.1466 -0.2537
 1007MOL0     C35844   4.201   9.473  12.210 -0.5453 -0.4524 -0.0944
 1007MOL0     C35845   4.165   9.559  12.320  0.6532  0.3367 -0.0774
 1007MOL0     O35846   4.173   9.530  12.452 -0.5864 -0.2993  0.2130
 1007MOL0     C35847   4.193   9.396  12.475  0.7271  0.0021 -0.1537
 1007MOL0     C35848   4.341   9.357  12.486 -0.8848 -0.7937 -0.7593
 1007MOL0     C35849   4.405   9.408  12.618 -0.1104 -0.4839 -0.0392
 1007MOL0     C35850   4.461   9.555  12.591 -0.2836  0.0989 -0.4720
 1007MOL0     C35851   4.526   9.613  12.717  0.6712  0.7512  0.4542
 1007MOL0     C35852   4.421   9.626  12.827 -0.4202  0.1787 -0.3936
 1007MOL0     C35853   4.462   9.720  12.945 -0.6666  0.3005  0.2744
 1007MOL0     C35854   4.587   9.662  13.016  1.1566  0.8286 -0.1865
 1007MOL0    Cl35855   4.541   9.508  13.079 -0.1936 -0.2444 -0.2659
 1007MOL0     C35856   4.084   9.671  12.290 -0.7606 -0.5100 -0.6866
 1007MOL0     C35857   4.066   9.711  12.165 -0.1632  0.2588  0.2454
 1007MOL0     O35858   4.338   9.696  11.904  0.2544  0.2463  0.8682
 1007MOL0     C35859   4.092   9.784  11.678 -0.2380  0.8061  0.1181
 1007MOL0     C35860   4.070   9.831  11.553  0.4541 -0.6385  0.0525
 1007MOL0     N35861   3.823  10.304  11.022  0.6529  0.0565  0.3170
 1007MOL0     N35862   3.768  10.247  10.923 -0.5456 -1.1173  0.2073
 1007MOL0     C35863   4.663  10.023  10.157  0.2105  0.0268  0.0645
 1007MOL0     C35864   4.698  10.141  10.094 -0.2605 -0.4959 -1.1805
 1007MOL0     C35865   4.639  10.581   9.931  0.5454  0.4273 -0.6329
 1007MOL0     C35866   4.574  10.667   9.833  0.2648 -0.0945 -0.6318
 1007MOL0     C35867   4.637  10.794   9.790  1.6135  1.2609 -1.0181
 1007MOL0     C35868   4.751  10.832   9.848  0.0744 -0.2710 -0.4733
 1007MOL0     O35869   4.801  10.954   9.805 -0.3744  0.0607 -0.0708
 1007MOL0     C35870   4.937  10.950   9.792 -0.2294  0.3243 -0.1251
 1007MOL0     C35871   4.985  11.078   9.727 -0.7651 -0.1171 -0.4367
 1007MOL0     C35872   4.986  11.185   9.830  0.5917  0.1863  0.2034
 1007MOL0     C35873   5.023  11.325   9.793 -1.4335 -0.4698  0.4326
 1007MOL0     C35874   4.978  11.418   9.898 -0.0589 -0.1937 -0.4548
 1007MOL0     C35875   4.935  11.471   9.997  0.2390  0.0349  0.4928
 1007MOL0     C35876   4.821  10.751   9.941 -0.0390 -0.0751 -0.2566
 1007MOL0     C35877   4.760  10.628   9.984  0.5037 -1.4500 -0.3917
 1007MOL0     H35878   4.421  10.325  10.178  0.4902  2.2493 -0.6112
 1007MOL0     H35879   4.364  10.122  10.289  0.7409  0.9687  0.7270
 1007MOL0     H35880   4.580   9.830  10.425  0.6533 -0.5637 -1.0549
 1007MOL0     H35881   4.481   9.968  10.448 -0.3916 -0.5788 -1.0250
 1007MOL0     H35882   4.379   9.701  10.373  0.1484  0.6621 -0.3312
 1007MOL0     H35883   4.419   9.752  10.533 -0.0246  1.2036  0.2507
 1007MOL0     H35884   4.257   9.961  10.497 -1.2380  0.7075 -1.3277
 1007MOL0     H35885   4.193   9.865  10.363  0.0360  1.4322 -0.1347
 1007MOL0     H35886   4.157   9.673  10.521  1.8396  0.6695 -3.9001
 1007MOL0     H35887   4.195   9.793  10.656  1.2236  0.3360 -0.1526
 1007MOL0     H35888   3.979   9.851  10.451  2.3576  0.1105 -0.9533
 1007MOL0     H35889   3.940   9.746  10.589 -1.7167  1.0899  1.1837
 1007MOL0     H35890   4.012   9.912  10.757 -4.3257  3.2952  1.1531
 1007MOL0     H35891   4.072  10.021  10.628 -1.2378 -0.1808 -2.5142
 1007MOL0     H35892   3.804   9.993  10.564 -1.9850 -1.1448  1.0070
 1007MOL0     H35893   3.804   9.927  10.717  1.2367 -3.5367 -3.2463
 1007MOL0     H35894   3.717  10.146  10.681 -0.3573 -0.3004  0.7124
 1007MOL0     H35895   3.870  10.221  10.645  0.2889  0.6021 -0.5504
 1007MOL0     H35896   4.061  10.164  10.853 -0.1929  0.4850 -0.2314
 1007MOL0     H35897   4.134  10.368  11.047  0.2646 -2.4629  0.4859
 1007MOL0     H35898   4.000  10.416  11.143 -0.9119 -0.6263  1.0009
 1007MOL0     H35899   4.010  10.225  11.295  3.2539  0.8503  4.6829
 1007MOL0     H35900   4.167  10.296  11.279  2.4287 -2.4349 -1.5844
 1007MOL0     H35901   4.223  10.116  11.103 -3.8155 -0.6035 -4.0706
 1007MOL0     H35902   4.078  10.034  11.153 -0.0487 -0.1123 -0.0249
 1007MOL0     H35903   4.276  10.139  11.360  1.6017 -0.4287 -1.2378
 1007MOL0     H35904   4.305   9.978  11.289  1.1926  0.4729  1.1690
 1007MOL0     H35905   4.347  10.022  11.535  0.5975 -3.8710 -1.7846
 1007MOL0     H35906   4.491  10.032  11.742 -1.4140  0.8526  1.4659
 1007MOL0     H35907   4.461   9.900  11.856 -0.1315 -0.8180 -0.1274
 1007MOL0     H35908   4.517   9.874  11.688  0.1190  0.5588  0.1905
 1007MOL0     H35909   4.231   9.458  12.001  2.4524  1.0276  0.7413
 1007MOL0     H35910   4.245   9.375  12.228 -2.4449 -1.1459  1.0403
 1007MOL0     H35911   4.164   9.365  12.576  3.2559 -1.9029  0.0929
 1007MOL0     H35912   4.141   9.333  12.401 -1.5731  0.3977  1.0222
 1007MOL0     H35913   4.346   9.248  12.486 -1.2482 -1.1351  4.9861
 1007MOL0     H35914   4.394   9.400  12.400 -2.1369  0.8426 -0.7750
 1007MOL0     H35915   4.488   9.344  12.649 -0.5271 -1.8784 -1.6465
 1007MOL0     H35916   4.331   9.420  12.697 -3.0768 -0.8283 -2.5795
 1007MOL0     H35917   4.530   9.556  12.507  0.9317  2.3370  0.4611
 1007MOL0     H35918   4.386   9.628  12.560 -0.3863 -0.1780 -0.8821
 1007MOL0     H35919   4.576   9.706  12.691 -1.0698  1.0475 -2.2350
 1007MOL0     H35920   4.600   9.541  12.753 -0.9929 -0.5392  1.5084
 1007MOL0     H35921   4.333   9.681  12.789 -0.3956  1.6145  1.4883
 1007MOL0     H35922   4.396   9.525  12.860  0.7316 -0.6641 -1.9797
 1007MOL0     H35923   4.375   9.732  13.010 -3.6070 -0.8992 -3.0895
 1007MOL0     H35924   4.480   9.816  12.896  0.7842 -1.3252 -2.6433
 1007MOL0     H35925   4.604   9.720  13.107 -0.9209  1.0003  0.1346
 1007MOL0     H35926   4.680   9.662  12.958  1.9254  1.5287  0.9865
 1007MOL0     H35927   4.063   9.744  12.367 -0.3086  0.3450 -1.3575
 1007MOL0     H35928   4.013   9.803  12.146  1.3828  0.8759 -1.2471
 1007MOL0     H35929   4.014   9.714  11.706 -1.8637  2.4153 -0.1891
 1007MOL0     H35930   3.982   9.799  11.498  0.8525 -1.3710 -0.1811
 1007MOL0     H35931   4.728   9.937  10.147 -0.9620 -0.6924 -1.9875
 1007MOL0     H35932   4.801  10.145  10.059  0.9922 -1.1667  2.1371
 1007MOL0     H35933   4.488  10.630   9.777  0.1841 -0.7464 -0.0945
 1007MOL0     H35934   4.597  10.866   9.719  1.8636  1.2522 -1.1704
 1007MOL0     H35935   4.997  10.937   9.883  0.4021 -2.2761 -0.8226
 1007MOL0     H35936   4.961  10.866   9.726 -1.1690  1.9199 -2.6553
 1007MOL0     H35937   4.922  11.115   9.646  0.6176  2.4346 -0.4308
 1007MOL0     H35938   5.085  11.059   9.686 -0.7520 -1.9602  0.3654
 1007MOL0     H35939   5.054  11.162   9.913  0.8165  0.3667  0.0704
 1007MOL0     H35940   4.889  11.174   9.879  0.5992 -1.4879 -0.0974
 1007MOL0     H35941   4.960  11.347   9.706  0.2206 -3.3051 -1.6692
 1007MOL0     H35942   5.130  11.333   9.769 -1.6820 -0.0261 -0.6022
 1007MOL0     H35943   4.880  11.519  10.075 -0.5824  1.1189 -0.7159
 1007MOL0     H35944   4.919  10.771   9.985  0.1439 -2.1464  0.4043
 1007MOL0     H35945   4.800  10.574  10.069  1.3714 -0.8895 -0.4377
 1008MOL0     O35946   8.709   1.874   6.009  0.1430 -0.1294  0.4911
 1008MOL0     C35947   8.634   1.975   6.016 -0.9270 -0.0238 -0.1355
 1008MOL0     O35948   8.543   2.015   6.113 -0.4071  0.3876  0.6822
 1008MOL0     C35949   8.520   1.963   6.243  0.3756  0.0525  0.4530
 1008MOL0     C35950   8.585   1.848   6.294 -0.5622  0.5044 -0.8290
 1008MOL0     C35951   8.556   1.792   6.421  0.8357 -0.7418  0.7497
 1008MOL0     C35952   8.456   1.847   6.497 -0.0534  0.0173  0.1387
 1008MOL0     O35953   8.413   1.807   6.618  0.2139 -0.2432 -0.7382
 1008MOL0     C35954   8.392   1.668   6.622 -0.6872 -0.2639  0.4836
 1008MOL0     C35955   8.290   1.618   6.726 -0.0592  1.4006 -0.0752
 1008MOL0     C35956   8.340   1.598   6.873 -0.1480 -0.3974 -0.5628
 1008MOL0     C35957   8.394   1.456   6.919 -0.2637  0.1140 -0.0754
 1008MOL0     C35958   8.423   1.444   7.065 -0.4347  0.0939 -0.4536
 1008MOL0     C35959   8.565   1.477   7.109 -0.8894  0.6859  0.1028
 1008MOL0     C35960   8.675   1.379   7.066 -0.3525  0.3643 -0.1702
 1008MOL0     C35961   8.816   1.411   7.115 -0.7642  0.2724  0.9172
 1008MOL0     N35962   8.917   1.316   7.056  0.5737  0.1335  0.5048
 1008MOL0     C35963   8.917   1.177   7.080  0.0183  0.5903  0.0779
 1008MOL0     C35964   9.017   1.135   6.999  0.0809  0.4769  0.2297
 1008MOL0     C35965   9.061   0.991   6.972  0.1479 -0.7423 -0.1835
 1008MOL0     C35966   9.136   0.938   7.087  0.6298  1.3900 -0.7901
 1008MOL0     C35967   9.032   0.901   7.202  0.5298  0.4114  0.4901
 1008MOL0     C35968   9.095   0.805   7.313  0.5192 -0.1545  0.4243
 1008MOL0     O35969   9.233   0.828   7.329 -0.6571  0.3910 -0.0212
 1008MOL0     C35970   9.296   0.765   7.438 -0.2722  0.5081  0.5777
 1008MOL0     C35971   9.254   0.639   7.486  0.4836  1.5260 -0.0719
 1008MOL0     C35972   9.303   0.574   7.604  0.0199  0.3466  0.6976
 1008MOL0     C35973   9.251   0.437   7.641 -0.3688  0.9155  0.1437
 1008MOL0     C35974   9.413   0.639   7.670 -0.6205 -0.4872 -0.1883
 1008MOL0     C35975   9.476   0.586   7.797 -0.3998 -0.2838  0.1327
 1008MOL0     O35976   9.465   0.452   7.838 -0.0957 -0.3147 -0.2095
 1008MOL0     C35977   9.514   0.420   7.964 -1.0318  0.0794 -0.1993
 1008MOL0     C35978   9.432   0.409   8.077 -0.1854  0.6587 -1.3358
 1008MOL0     C35979   9.481   0.348   8.193 -0.7124  0.6075  0.2896
 1008MOL0     C35980   9.616   0.327   8.219 -0.2773  0.3740 -0.4401
 1008MOL0     O35981   9.670   0.303   8.348 -0.4288  0.9211  0.6214
 1008MOL0     C35982   9.584   0.313   8.456 -0.2755 -0.0265 -0.1788
 1008MOL0     C35983   9.659   0.316   8.600  0.1874  0.9972  0.8137
 1008MOL0     C35984   9.572   0.354   8.731  0.0183 -0.1691 -0.4324
 1008MOL0     C35985   9.587   0.256   8.844 -0.0015 -0.1758 -0.9564
 1008MOL0     C35986   9.476   0.298   8.946 -0.4109 -0.5974 -1.0518
 1008MOL0     C35987   9.444   0.173   9.018  0.5487 -0.0971  0.0393
 1008MOL0     C35988   9.351   0.191   9.134 -0.3357 -0.3343 -0.9697
 1008MOL0     C35989   9.319   0.049   9.190 -0.2823 -0.6137 -0.6377
 1008MOL0    Cl35990   9.222   0.049   9.345  0.3137 -0.1816  0.4999
 1008MOL0     C35991   9.697   0.337   8.104  0.4693 -0.2178 -0.3716
 1008MOL0     C35992   9.645   0.378   7.984 -0.0312 -0.4420  0.6213
 1008MOL0     O35993   9.544   0.666   7.856 -0.1032  0.1718 -0.2333
 1008MOL0     C35994   9.457   0.760   7.617  0.0036 -0.6965  0.8323
 1008MOL0     C35995   9.403   0.822   7.498 -0.0600 -0.7178 -0.2299
 1008MOL0     N35996   9.074   1.248   6.939  0.2977  0.2708  0.2742
 1008MOL0     N35997   9.017   1.351   6.973 -0.5932 -0.1054 -0.1598
 1008MOL0     C35998   8.388   1.959   6.450 -0.1659  0.9848  0.3353
 1008MOL0     C35999   8.414   2.019   6.322  0.1523 -0.0244 -0.5383
 1008MOL0     C36000   8.659   2.067   5.896  0.0659 -0.0191 -0.6011
 1008MOL0     C36001   8.619   2.206   5.898 -0.9572 -0.0880  0.0419
 1008MOL0     C36002   8.641   2.287   5.780 -0.8279  0.5629 -0.2833
 1008MOL0     C36003   8.716   2.225   5.676  0.7778 -0.4152 -0.2956
 1008MOL0     O36004   8.733   2.299   5.565 -0.0625 -0.4432  0.2420
 1008MOL0     C36005   8.871   2.346   5.549  0.4938  0.7897 -0.3155
 1008MOL0     C36006   8.878   2.357   5.397 -0.7408  0.3488  0.5063
 1008MOL0     C36007   8.901   2.216   5.333 -0.3183  0.0554  0.1596
 1008MOL0     C36008   8.866   2.220   5.187  1.1531 -0.0571  0.2224
 1008MOL0     C36009   8.971   2.294   5.120  0.5980 -0.4450 -0.1535
 1008MOL0     C36010   9.053   2.366   5.057  0.5921 -0.6991 -0.1708
 1008MOL0     C36011   8.748   2.091   5.675 -0.6487 -0.0455 -0.1360
 1008MOL0     C36012   8.709   2.009   5.778  0.4133  0.2233 -0.3474
 1008MOL0     H36013   8.667   1.805   6.238 -0.0808  1.2856 -0.7359
 1008MOL0     H36014   8.619   1.711   6.457  1.0887 -0.2183  1.5194
 1008MOL0     H36015   8.360   1.631   6.524  0.8079  4.4523 -2.1233
 1008MOL0     H36016   8.486   1.617   6.642  1.8980  4.2255  1.2743
 1008MOL0     H36017   8.197   1.676   6.725 -1.4395 -0.6721 -2.4775
 1008MOL0     H36018   8.253   1.521   6.693  1.6430  1.1040 -1.2286
 1008MOL0     H36019   8.419   1.671   6.892 -1.6446  1.2724 -0.5300
 1008MOL0     H36020   8.253   1.617   6.935 -0.7489 -3.2748 -0.3689
 1008MOL0     H36021   8.319   1.379   6.902 -0.6259  0.3614  0.3707
 1008MOL0     H36022   8.485   1.418   6.872 -1.6308 -0.6830 -2.1922
 1008MOL0     H36023   8.341   1.489   7.120 -2.2730 -0.8870 -2.2611
 1008MOL0     H36024   8.423   1.337   7.087  0.3805 -0.4276 -2.7145
 1008MOL0     H36025   8.583   1.579   7.073 -0.8243  0.0959 -1.6199
 1008MOL0     H36026   8.562   1.480   7.218 -0.8968 -1.5740  0.2035
 1008MOL0     H36027   8.645   1.277   7.095 -2.1250  0.3456 -1.8596
 1008MOL0     H36028   8.679   1.387   6.957 -1.1710 -2.9450 -0.5575
 1008MOL0     H36029   8.820   1.420   7.224  0.1880  0.5646  0.8722
 1008MOL0     H36030   8.840   1.508   7.068  2.4237 -0.5556  0.5869
 1008MOL0     H36031   8.847   1.112   7.130  0.0738  0.5593  0.1154
 1008MOL0     H36032   8.977   0.923   6.956  0.1776 -0.9186  0.3795
 1008MOL0     H36033   9.110   0.981   6.874 -0.0980 -2.0055 -0.1976
 1008MOL0     H36034   9.213   1.009   7.119  1.0159  1.0919 -1.0565
 1008MOL0     H36035   9.186   0.845   7.059 -0.0088  0.1400  1.8943
 1008MOL0     H36036   8.940   0.850   7.172  0.1391  2.9488 -3.3079
 1008MOL0     H36037   8.993   0.990   7.252 -2.8754 -0.3420 -0.5754
 1008MOL0     H36038   9.084   0.707   7.263 -0.5622  1.8425 -3.7440
 1008MOL0     H36039   9.047   0.822   7.410  1.3808 -0.2175  0.8650
 1008MOL0     H36040   9.180   0.584   7.428  1.3211  1.3073 -0.9666
 1008MOL0     H36041   9.329   0.364   7.663 -0.7109  0.1711 -1.0017
 1008MOL0     H36042   9.176   0.435   7.721 -3.0747 -1.3904 -2.2273
 1008MOL0     H36043   9.196   0.394   7.556  0.7300 -0.8000  0.2523
 1008MOL0     H36044   9.326   0.432   8.063 -0.8591 -0.7557  0.9494
 1008MOL0     H36045   9.404   0.340   8.269  0.8885 -0.6121  1.8671
 1008MOL0     H36046   9.529   0.407   8.445  1.7632  1.0603 -1.7177
 1008MOL0     H36047   9.516   0.227   8.456  0.9644 -1.0384  0.7927
 1008MOL0     H36048   9.709   0.219   8.610 -0.1211  0.8288  0.7165
 1008MOL0     H36049   9.732   0.397   8.586  0.2284  0.8556  0.1939
 1008MOL0     H36050   9.466   0.355   8.704  0.4726  0.1214 -2.3710
 1008MOL0     H36051   9.608   0.444   8.782  2.9230 -1.2881 -0.2947
 1008MOL0     H36052   9.567   0.152   8.815 -1.6859 -0.7582  1.8067
 1008MOL0     H36053   9.686   0.258   8.889  0.0879  2.2066 -1.1209
 1008MOL0     H36054   9.388   0.341   8.898  0.0091  1.3888 -0.1754
 1008MOL0     H36055   9.521   0.372   9.013  2.3980 -1.1570 -2.1868
 1008MOL0     H36056   9.382   0.105   8.959 -1.7704  1.3546  0.6633
 1008MOL0     H36057   9.533   0.116   9.046  1.6419  0.1869 -2.5845
 1008MOL0     H36058   9.264   0.244   9.095 -0.8795 -3.0060 -3.8026
 1008MOL0     H36059   9.406   0.248   9.209 -1.1155 -0.5300 -0.2337
 1008MOL0     H36060   9.415  -0.001   9.204  0.6003 -0.4739 -4.8565
 1008MOL0     H36061   9.264  -0.009   9.116 -1.2593  0.6452 -0.9146
 1008MOL0     H36062   9.795   0.297   8.129  1.2796 -0.0320 -2.9439
 1008MOL0     H36063   9.711   0.363   7.900  2.5111  1.3107  2.1609
 1008MOL0     H36064   9.530   0.823   7.667 -0.3792 -0.6370  1.3174
 1008MOL0     H36065   9.433   0.914   7.449  2.6353 -1.5474 -0.3087
 1008MOL0     H36066   8.313   2.004   6.514 -1.5150  2.3854 -2.0765
 1008MOL0     H36067   8.361   2.112   6.301 -1.8711 -1.0779 -0.3909
 1008MOL0     H36068   8.571   2.228   5.992  0.1385  0.1122  0.5658
 1008MOL0     H36069   8.624   2.394   5.783 -2.8528  0.3808 -2.3635
 1008MOL0     H36070   8.903   2.442   5.591  0.6145 -0.6206  3.1315
 1008MOL0     H36071   8.941   2.274   5.594  0.5679  1.8820  1.4066
 1008MOL0     H36072   8.941   2.435   5.353 -0.5712 -0.2632 -0.3647
 1008MOL0     H36073   8.776   2.390   5.371 -0.7313  0.1446  0.2025
 1008MOL0     H36074   8.823   2.146   5.365 -1.7188  1.3020 -0.3979
 1008MOL0     H36075   8.997   2.165   5.345 -0.6797 -0.0164  3.7350
 1008MOL0     H36076   8.766   2.261   5.169  1.8480  0.3652 -3.4215
 1008MOL0     H36077   8.853   2.114   5.162  0.6171 -0.3184  1.5313
 1008MOL0     H36078   9.139   2.414   5.015 -0.4260 -0.1161 -1.6971
 1008MOL0     H36079   8.818   2.059   5.598 -1.2025  0.3309 -0.8142
 1008MOL0     H36080   8.725   1.902   5.768 -1.3104 -0.0112 -0.8326
 1009MOL0     O36081   5.232   4.799   5.541  0.7968  0.6884 -0.0560
 1009MOL0     C36082   5.312   4.715   5.504 -0.2795  0.1972  0.1581
 1009MOL0     O36083   5.446   4.718   5.531 -0.1438 -0.4402  0.1367
 1009MOL0     C36084   5.483   4.839   5.583  0.5087 -0.2485  0.6616
 1009MOL0     C36085   5.514   4.840   5.718  0.1810 -1.2272  0.7826
 1009MOL0     C36086   5.563   4.954   5.780 -0.1226 -1.1709 -0.6415
 1009MOL0     C36087   5.577   5.075   5.704 -0.7080 -0.5719  0.2788
 1009MOL0     O36088   5.608   5.196   5.772  0.1052  1.1250  0.4346
 1009MOL0     C36089   5.690   5.290   5.713 -0.1000 -0.9106 -0.2226
 1009MOL0     C36090   5.800   5.323   5.807 -0.4968 -0.4146  1.1737
 1009MOL0     C36091   5.879   5.202   5.826  0.4212  0.1740  0.0853
 1009MOL0     C36092   5.990   5.231   5.924  0.2308  0.9418 -0.3237
 1009MOL0     C36093   6.039   5.097   5.990 -0.1004  0.1856  0.1482
 1009MOL0     C36094   6.021   5.067   6.138 -0.6172 -0.2411  0.2938
 1009MOL0     C36095   5.868   5.068   6.174 -0.3548  0.8620 -0.3727
 1009MOL0     C36096   5.777   4.961   6.109 -0.5603 -0.2716  0.3206
 1009MOL0     N36097   5.632   5.001   6.132 -0.0908 -0.5907 -0.2486
 1009MOL0     C36098   5.573   5.126   6.125 -0.4919 -0.1514  0.0873
 1009MOL0     C36099   5.446   5.097   6.160  0.4291  0.4008 -0.1700
 1009MOL0     C36100   5.323   5.184   6.153 -0.2262 -0.2607  0.2522
 1009MOL0     C36101   5.292   5.225   6.011 -0.0291  0.2575  0.1062
 1009MOL0     C36102   5.245   5.109   5.915  0.3139  0.4132  0.9079
 1009MOL0     C36103   5.226   5.164   5.772  0.0932 -0.4002 -0.1594
 1009MOL0     O36104   5.147   5.281   5.755 -0.1635 -0.0840 -0.7599
 1009MOL0     C36105   5.006   5.285   5.773 -0.1682  0.2614 -0.0820
 1009MOL0     C36106   4.924   5.177   5.801  0.5573 -0.6751 -0.1203
 1009MOL0     C36107   4.784   5.195   5.833  0.2023  0.1580  0.4545
 1009MOL0     C36108   4.688   5.078   5.858  0.3064 -0.0270  0.6794
 1009MOL0     C36109   4.730   5.328   5.831  0.6746  0.8010  0.1387
 1009MOL0     C36110   4.590   5.364   5.869  0.5735 -0.2456  0.2548
 1009MOL0     O36111   4.567   5.474   5.952 -0.9895  0.1032  0.1983
 1009MOL0     C36112   4.439   5.511   5.992  0.9091 -0.2300  0.5776
 1009MOL0     C36113   4.422   5.586   6.115  0.4248  0.5621  0.3683
 1009MOL0     C36114   4.295   5.632   6.163 -0.6274  0.6104  0.1377
 1009MOL0     C36115   4.175   5.606   6.094 -0.8737 -0.3500  0.1931
 1009MOL0     O36116   4.065   5.646   6.159  0.5162 -0.2217  1.0061
 1009MOL0     C36117   3.949   5.654   6.081 -0.3553 -0.1117  0.4297
 1009MOL0     C36118   3.836   5.698   6.180  0.6531 -0.0913  0.3490
 1009MOL0     C36119   3.712   5.746   6.110  1.0535 -0.8460  0.0537
 1009MOL0     C36120   3.613   5.827   6.191  0.2433  0.4899 -0.2085
 1009MOL0     C36121   3.496   5.864   6.098  0.0524  0.0379  0.3184
 1009MOL0     C36122   3.370   5.778   6.120  0.3312 -0.1447 -0.0971
 1009MOL0     C36123   3.291   5.805   6.247  0.3929  0.1685  0.6513
 1009MOL0     C36124   3.202   5.932   6.228 -0.2937 -1.3640 -0.4144
 1009MOL0    Cl36125   3.166   6.005   6.380  0.2969  0.0981 -0.1921
 1009MOL0     C36126   4.192   5.547   5.965 -0.1756 -0.0278  0.7737
 1009MOL0     C36127   4.319   5.498   5.925 -0.5347  0.0903  1.0655
 1009MOL0     O36128   4.511   5.299   5.807  0.2527 -0.1881 -0.4422
 1009MOL0     C36129   4.811   5.436   5.795 -0.3244 -0.4106  0.2227
 1009MOL0     C36130   4.950   5.413   5.767  0.4850 -0.1841  0.6281
 1009MOL0     N36131   5.430   4.960   6.190  1.0574 -0.3286  0.2295
 1009MOL0     N36132   5.539   4.903   6.155 -0.0899 -0.4542  0.4849
 1009MOL0     C36133   5.541   5.072   5.571 -0.0143  0.4171 -0.0121
 1009MOL0     C36134   5.489   4.957   5.511  0.5569 -0.4667  0.5663
 1009MOL0     C36135   5.260   4.597   5.429  0.2752 -0.7020  0.4410
 1009MOL0     C36136   5.342   4.489   5.396 -0.1759  0.8175  0.5816
 1009MOL0     C36137   5.296   4.376   5.315  0.2663  0.4428 -0.3048
 1009MOL0     C36138   5.168   4.372   5.260 -0.4693 -0.0320 -1.2122
 1009MOL0     O36139   5.145   4.259   5.192 -0.1945 -0.0038 -0.4322
 1009MOL0     C36140   5.020   4.218   5.139  0.2830 -0.9255 -1.1964
 1009MOL0     C36141   5.025   4.177   4.986 -0.2063  0.8091  1.3527
 1009MOL0     C36142   4.904   4.081   4.946  0.2647  0.0623  0.9724
 1009MOL0     C36143   4.836   4.133   4.802 -1.2453 -0.0395 -0.2972
 1009MOL0     C36144   4.730   4.050   4.750  0.3543 -0.2509 -0.3141
 1009MOL0     C36145   4.635   3.980   4.713 -0.4223  0.6534  0.4563
 1009MOL0     C36146   5.083   4.480   5.285 -0.1347 -0.1804  1.0739
 1009MOL0     C36147   5.119   4.590   5.367 -0.4839 -0.5547  0.4395
 1009MOL0     H36148   5.494   4.747   5.771 -0.5925 -1.0002  0.8957
 1009MOL0     H36149   5.570   4.970   5.887  0.5155 -0.4578 -0.7853
 1009MOL0     H36150   5.730   5.258   5.617  1.0131 -1.0679  0.2802
 1009MOL0     H36151   5.628   5.379   5.697  1.6874  0.2861 -0.7622
 1009MOL0     H36152   5.857   5.399   5.753 -0.5809 -1.0413  0.1880
 1009MOL0     H36153   5.764   5.371   5.899 -1.2424 -0.6245  1.0026
 1009MOL0     H36154   5.818   5.119   5.865  0.5207 -0.8108 -1.7330
 1009MOL0     H36155   5.917   5.179   5.726  1.6109  0.9899  0.3297
 1009MOL0     H36156   6.068   5.286   5.870  1.4901  0.3413  0.7906
 1009MOL0     H36157   5.965   5.289   6.013 -2.5603  1.1534 -1.1799
 1009MOL0     H36158   6.014   5.007   5.933  4.0983 -0.5136 -0.9321
 1009MOL0     H36159   6.148   5.102   5.994 -0.1697  1.0886  3.3663
 1009MOL0     H36160   6.052   4.967   6.170 -3.4195 -0.7475  1.6858
 1009MOL0     H36161   6.068   5.140   6.205 -1.6885 -1.9117  3.0415
 1009MOL0     H36162   5.874   5.046   6.281  0.9083 -3.6147 -1.1742
 1009MOL0     H36163   5.816   5.164   6.166 -2.2965 -0.2066 -1.2841
 1009MOL0     H36164   5.796   4.857   6.137 -1.8716 -0.5411  0.2717
 1009MOL0     H36165   5.797   4.960   6.001  1.1184 -0.1091  0.6071
 1009MOL0     H36166   5.621   5.220   6.100 -1.9864  1.4000  2.5580
 1009MOL0     H36167   5.236   5.138   6.201 -0.0787  1.6524  2.5099
 1009MOL0     H36168   5.352   5.275   6.206  0.0111 -0.6062  0.7198
 1009MOL0     H36169   5.375   5.277   5.963  1.0885 -0.9681  0.6701
 1009MOL0     H36170   5.204   5.291   6.017 -0.1154  0.0925  0.6601
 1009MOL0     H36171   5.149   5.070   5.949 -0.0323  2.0020  1.8835
 1009MOL0     H36172   5.321   5.030   5.916 -1.4909 -1.4075  1.7871
 1009MOL0     H36173   5.180   5.089   5.707  1.2855 -0.7427 -0.6419
 1009MOL0     H36174   5.321   5.182   5.719  0.8671  1.8265  1.8273
 1009MOL0     H36175   4.960   5.075   5.797 -1.7212 -1.5481 -0.2882
 1009MOL0     H36176   4.632   5.044   5.771  2.9622 -3.0132 -0.0181
 1009MOL0     H36177   4.757   4.998   5.885  2.9553  1.7229 -0.5520
 1009MOL0     H36178   4.624   5.082   5.947 -1.6839 -0.5460 -0.6757
 1009MOL0     H36179   4.515   5.604   6.169  3.5961 -1.5687 -3.7856
 1009MOL0     H36180   4.292   5.684   6.258  2.6170  0.2167  0.5501
 1009MOL0     H36181   3.968   5.723   5.998 -0.2667 -1.4077 -0.6642
 1009MOL0     H36182   3.920   5.560   6.034 -1.3996  1.5444 -2.4612
 1009MOL0     H36183   3.811   5.623   6.255  0.0348  0.1454  0.3860
 1009MOL0     H36184   3.871   5.779   6.245  2.8938  0.7006 -1.6806
 1009MOL0     H36185   3.676   5.654   6.063  0.6293 -1.1056  0.8641
 1009MOL0     H36186   3.744   5.820   6.036  0.0745  0.0327  0.4887
 1009MOL0     H36187   3.579   5.775   6.281  1.4074  0.6401  0.3438
 1009MOL0     H36188   3.659   5.918   6.230 -4.3526  1.3987  4.1319
 1009MOL0     H36189   3.524   5.855   5.992 -1.2485  1.7957 -0.2341
 1009MOL0     H36190   3.479   5.966   6.135  0.7191  0.1070  0.4331
 1009MOL0     H36191   3.306   5.803   6.035  0.9883 -0.7367 -0.7809
 1009MOL0     H36192   3.401   5.673   6.129 -1.4918 -0.5243  3.2897
 1009MOL0     H36193   3.357   5.814   6.334 -0.1089  1.3609  0.9267
 1009MOL0     H36194   3.226   5.721   6.271 -1.4272  1.3551  0.0900
 1009MOL0     H36195   3.107   5.918   6.175 -0.6537 -1.1731  0.1755
 1009MOL0     H36196   3.262   6.000   6.167  1.5557 -0.0579  2.6276
 1009MOL0     H36197   4.116   5.524   5.892  3.0925 -2.1272 -2.2845
 1009MOL0     H36198   4.319   5.444   5.831  5.3913  1.6430 -0.2809
 1009MOL0     H36199   4.768   5.535   5.786 -0.4404 -0.5068 -0.2916
 1009MOL0     H36200   5.018   5.492   5.739  1.9122 -1.9605 -1.2743
 1009MOL0     H36201   5.534   5.168   5.521 -0.7768  0.4087  0.0638
 1009MOL0     H36202   5.462   4.962   5.407  0.2811 -0.4275  0.6395
 1009MOL0     H36203   5.443   4.484   5.437 -0.6078  2.6662  2.0467
 1009MOL0     H36204   5.355   4.285   5.309  3.5391  2.3578  0.2584
 1009MOL0     H36205   4.999   4.128   5.197  1.5989 -1.1510 -1.0531
 1009MOL0     H36206   4.944   4.294   5.161  1.4143  1.3580 -4.3788
 1009MOL0     H36207   5.117   4.123   4.964 -0.1143  0.2629  2.9793
 1009MOL0     H36208   5.034   4.269   4.928 -3.0852 -0.0263 -0.6261
 1009MOL0     H36209   4.840   4.076   5.034 -1.2591  0.0975 -0.0863
 1009MOL0     H36210   4.940   3.979   4.932  2.3795  1.1276 -2.8852
 1009MOL0     H36211   4.915   4.145   4.727  2.6420  0.3133  3.3935
 1009MOL0     H36212   4.796   4.233   4.822 -3.4984 -0.1923 -3.3788
 1009MOL0     H36213   4.542   3.930   4.693 -0.1075 -0.8678  2.4834
 1009MOL0     H36214   4.986   4.490   5.237 -0.6453  2.5513  2.5013
 1009MOL0     H36215   5.053   4.676   5.376  0.4947  0.3375 -0.7279
 1010MOL0     O36216   7.580   0.610   3.370  0.1245 -0.6880 -0.3449
 1010MOL0     C36217   7.473   0.551   3.344  0.7159 -0.2103 -0.9412
 1010MOL0     O36218   7.463   0.433   3.274 -0.3292 -0.0951  0.6424
 1010MOL0     C36219   7.581   0.376   3.237  0.3178 -0.6732  0.4674
 1010MOL0     C36220   7.604   0.336   3.103  0.1131 -0.3998 -0.2988
 1010MOL0     C36221   7.725   0.289   3.060  0.7469 -0.8185  0.7589
 1010MOL0     C36222   7.832   0.278   3.146  0.1059  0.2273  0.0510
 1010MOL0     O36223   7.956   0.248   3.107  0.2201  0.7852  0.0445
 1010MOL0     C36224   8.005   0.325   2.994  0.0337 -0.1582 -1.1066
 1010MOL0     C36225   8.139   0.268   2.937  0.6713  0.2925 -0.5518
 1010MOL0     C36226   8.255   0.288   3.035  0.1181  0.6119  0.3794
 1010MOL0     C36227   8.381   0.215   2.994 -0.9028  0.7607  0.2569
 1010MOL0     C36228   8.417   0.240   2.846 -0.3894  0.2108  0.4324
 1010MOL0     C36229   8.562   0.192   2.813  0.3031 -0.2784  1.0163
 1010MOL0     C36230   8.602   0.218   2.665 -0.1588 -0.3131 -0.0276
 1010MOL0     C36231   8.563   0.101   2.579 -0.1737  0.1405 -0.3468
 1010MOL0     N36232   8.628   0.130   2.454  0.5373  0.6095  0.5051
 1010MOL0     C36233   8.632   0.250   2.385 -0.3733  0.6057 -0.4725
 1010MOL0     C36234   8.729   0.230   2.294  0.1762 -0.3296 -0.3243
 1010MOL0     C36235   8.766   0.331   2.193 -0.4826  0.5747 -0.3131
 1010MOL0     C36236   8.697   0.463   2.188  0.3003 -0.3983 -0.0010
 1010MOL0     C36237   8.786   0.574   2.136 -0.1172  0.2390  0.8159
 1010MOL0     C36238   8.720   0.705   2.153  0.5949  0.2823  0.2814
 1010MOL0     O36239   8.799   0.809   2.112  0.1748 -0.5005 -0.5133
 1010MOL0     C36240   8.735   0.931   2.108 -0.2844  0.1109 -0.4061
 1010MOL0     C36241   8.618   0.959   2.170  0.0662 -0.6361  0.8449
 1010MOL0     C36242   8.552   1.080   2.151  0.9633 -0.5397 -0.1545
 1010MOL0     C36243   8.418   1.116   2.219 -0.0918 -0.2804 -0.6675
 1010MOL0     C36244   8.609   1.179   2.065  0.6472  0.2597 -0.4780
 1010MOL0     C36245   8.561   1.312   2.048 -0.7928  0.4295 -0.2920
 1010MOL0     O36246   8.463   1.337   1.961 -0.0598  0.1648  0.5969
 1010MOL0     C36247   8.407   1.464   1.952  0.5916 -0.4260  0.3314
 1010MOL0     C36248   8.469   1.588   1.943 -0.9077 -0.1587 -0.4616
 1010MOL0     C36249   8.413   1.709   1.948  0.9239  0.5522  0.2916
 1010MOL0     C36250   8.267   1.712   1.964 -0.9736 -0.5819 -0.0270
 1010MOL0     O36251   8.182   1.820   1.957 -0.3334  0.2524 -0.1901
 1010MOL0     C36252   8.242   1.950   1.961 -0.1844 -0.2149 -0.0292
 1010MOL0     C36253   8.119   2.051   1.943 -0.2783 -0.3625 -0.0986
 1010MOL0     C36254   8.174   2.192   1.943  0.3216  0.1963 -0.5630
 1010MOL0     C36255   8.069   2.305   1.959 -0.2209 -0.4996 -0.3304
 1010MOL0     C36256   8.112   2.452   1.939 -0.2226  0.4932  0.0635
 1010MOL0     C36257   8.003   2.543   2.004  0.4169  0.6606  0.1535
 1010MOL0     C36258   8.008   2.688   1.947 -0.0779  0.1609  0.3264
 1010MOL0     C36259   8.134   2.777   1.983  0.0796 -0.2773 -0.4973
 1010MOL0    Cl36260   8.131   2.902   1.863  0.1940 -0.1698 -0.1831
 1010MOL0     C36261   8.202   1.587   1.972  0.8326  0.3503  1.1544
 1010MOL0     C36262   8.265   1.465   1.972 -0.1691  1.1036  0.7138
 1010MOL0     O36263   8.622   1.395   2.121 -0.1081 -0.0796  0.2849
 1010MOL0     C36264   8.727   1.156   2.004  0.2819  0.6514 -0.1916
 1010MOL0     C36265   8.789   1.030   2.020 -0.6386  0.7711  0.1037
 1010MOL0     N36266   8.792   0.110   2.316 -0.7481 -0.5718  0.8173
 1010MOL0     N36267   8.734   0.050   2.415  0.9149 -0.0475  0.4961
 1010MOL0     C36268   7.814   0.318   3.276  0.1441  1.0518 -0.0891
 1010MOL0     C36269   7.692   0.360   3.318  0.7939 -0.4867 -0.2821
 1010MOL0     C36270   7.350   0.602   3.420 -0.0237 -1.1508  1.2640
 1010MOL0     C36271   7.241   0.520   3.440  0.0387 -0.3472 -0.7447
 1010MOL0     C36272   7.134   0.574   3.513  0.1859  0.4586  0.5669
 1010MOL0     C36273   7.119   0.707   3.545 -1.2113 -0.5593  0.6748
 1010MOL0     O36274   7.006   0.761   3.600  0.2480 -0.4761 -0.3399
 1010MOL0     C36275   6.878   0.691   3.620 -0.3355  0.2376  0.2184
 1010MOL0     C36276   6.823   0.712   3.751 -0.1502  0.7029 -0.4554
 1010MOL0     C36277   6.686   0.646   3.749  0.1828  1.0227  0.4490
 1010MOL0     C36278   6.612   0.688   3.870 -0.5081  1.3998  0.2502
 1010MOL0     C36279   6.492   0.605   3.858 -0.1546 -0.7659  0.4141
 1010MOL0     C36280   6.388   0.536   3.855 -0.3354 -0.0020  0.4274
 1010MOL0     C36281   7.226   0.792   3.518 -0.8931  0.5712 -0.9037
 1010MOL0     C36282   7.347   0.740   3.460 -0.6761  0.8072  0.0830
 1010MOL0     H36283   7.528   0.357   3.029 -1.2517  0.3103  1.2337
 1010MOL0     H36284   7.743   0.280   2.953 -0.7186  0.8438  0.3299
 1010MOL0     H36285   7.933   0.328   2.911  0.8644  0.7101 -1.8215
 1010MOL0     H36286   8.022   0.427   3.030  4.6911 -0.8489 -0.7094
 1010MOL0     H36287   8.125   0.161   2.926  1.5903  0.1805 -0.7527
 1010MOL0     H36288   8.163   0.314   2.841  3.2138 -0.7817 -0.5055
 1010MOL0     H36289   8.294   0.390   3.042  3.5489 -0.6739  1.8733
 1010MOL0     H36290   8.219   0.237   3.125 -0.4799 -2.0090 -1.2335
 1010MOL0     H36291   8.465   0.253   3.054 -1.3558  0.1330  1.3241
 1010MOL0     H36292   8.371   0.109   3.020  0.1375  0.8474  1.0813
 1010MOL0     H36293   8.358   0.184   2.773 -1.4293  1.3767  0.3402
 1010MOL0     H36294   8.391   0.342   2.819 -4.1104 -1.2685 -2.5341
 1010MOL0     H36295   8.636   0.243   2.876 -0.7707  1.9499  0.5569
 1010MOL0     H36296   8.567   0.084   2.832  0.0733  0.3057  5.5181
 1010MOL0     H36297   8.551   0.309   2.632  1.1526 -0.6116 -3.2153
 1010MOL0     H36298   8.710   0.236   2.668 -0.2421  0.0902  1.7667
 1010MOL0     H36299   8.454   0.104   2.575 -0.2151  1.3663  0.8106
 1010MOL0     H36300   8.607   0.015   2.630  5.1425  4.8216  4.3363
 1010MOL0     H36301   8.565   0.336   2.386  0.0579  0.9444 -0.3619
 1010MOL0     H36302   8.873   0.345   2.212 -0.0745 -1.5105 -0.7946
 1010MOL0     H36303   8.759   0.277   2.098 -0.3383 -2.1124  1.0899
 1010MOL0     H36304   8.670   0.485   2.292  0.4252  2.4978 -0.5228
 1010MOL0     H36305   8.605   0.462   2.129 -0.7020  0.2141  1.4777
 1010MOL0     H36306   8.815   0.559   2.032  0.7209 -0.1341  1.0978
 1010MOL0     H36307   8.883   0.582   2.186  1.0111 -2.3346 -0.7561
 1010MOL0     H36308   8.702   0.703   2.261 -1.9729  0.2168 -0.0740
 1010MOL0     H36309   8.620   0.708   2.108  0.0309 -1.4064  1.3070
 1010MOL0     H36310   8.580   0.888   2.243  2.0522 -2.2379  0.4059
 1010MOL0     H36311   8.439   1.203   2.282 -0.8982 -0.9167  0.5134
 1010MOL0     H36312   8.344   1.141   2.143 -1.7133  0.4204  1.0750
 1010MOL0     H36313   8.378   1.036   2.282 -1.6392  2.8448  2.6455
 1010MOL0     H36314   8.576   1.598   1.927 -0.3856 -0.8811  2.0495
 1010MOL0     H36315   8.477   1.796   1.940  3.2155 -0.9142  1.5897
 1010MOL0     H36316   8.290   1.963   2.058 -0.6428  0.8768  0.0629
 1010MOL0     H36317   8.314   1.960   1.879 -0.2151 -5.7595 -1.1101
 1010MOL0     H36318   8.070   2.040   1.846  0.5125 -2.6774 -0.3138
 1010MOL0     H36319   8.044   2.057   2.021 -0.8712 -0.3230 -0.6633
 1010MOL0     H36320   8.227   2.212   1.849  2.0017 -0.1509  0.2878
 1010MOL0     H36321   8.249   2.193   2.022  1.1385 -2.3509 -1.2001
 1010MOL0     H36322   7.987   2.301   1.886 -0.6838  0.9548  0.0938
 1010MOL0     H36323   8.031   2.291   2.060 -1.3527 -2.1799 -0.9455
 1010MOL0     H36324   8.133   2.464   1.832  1.0162  0.1737  0.2582
 1010MOL0     H36325   8.213   2.473   1.973  0.4355 -0.3004 -1.3270
 1010MOL0     H36326   7.903   2.501   1.997  0.0792  1.2284  1.2505
 1010MOL0     H36327   8.034   2.553   2.109  6.1539 -1.5702 -0.9620
 1010MOL0     H36328   7.920   2.743   1.983  0.9331  1.2038  1.3162
 1010MOL0     H36329   7.993   2.686   1.839  0.3009  1.2214  0.2374
 1010MOL0     H36330   8.219   2.709   1.980 -1.4040 -2.3136  0.8959
 1010MOL0     H36331   8.138   2.814   2.086 -0.3782 -1.8484  0.1094
 1010MOL0     H36332   8.094   1.581   1.988  0.6302  2.6668  0.8640
 1010MOL0     H36333   8.201   1.378   1.982  0.6611  0.2051 -1.1969
 1010MOL0     H36334   8.760   1.233   1.936  0.1447  1.8780  1.0977
 1010MOL0     H36335   8.884   1.015   1.968 -1.4291  0.4595 -1.3007
 1010MOL0     H36336   7.897   0.315   3.346 -1.2875 -0.2619  1.6260
 1010MOL0     H36337   7.687   0.387   3.423  2.8203  0.8066 -0.4560
 1010MOL0     H36338   7.232   0.421   3.397 -1.6605 -0.1713 -0.8465
 1010MOL0     H36339   7.054   0.502   3.530  0.5752  0.5338  3.0003
 1010MOL0     H36340   6.810   0.695   3.535 -1.4864 -3.5072  0.7665
 1010MOL0     H36341   6.899   0.583   3.623  2.1107  0.5823 -1.3511
 1010MOL0     H36342   6.814   0.819   3.775 -0.3110  0.2985  1.4386
 1010MOL0     H36343   6.881   0.668   3.832 -1.9494 -0.8063  0.0770
 1010MOL0     H36344   6.705   0.539   3.744  3.5171  1.5597 -1.2842
 1010MOL0     H36345   6.627   0.659   3.657 -4.2244 -5.3948  1.7336
 1010MOL0     H36346   6.594   0.795   3.877  0.6211  1.7495 -1.6506
 1010MOL0     H36347   6.660   0.643   3.958 -0.2041 -0.1723 -0.6746
 1010MOL0     H36348   6.306   0.467   3.848  1.4069 -2.0138 -4.5944
 1010MOL0     H36349   7.233   0.897   3.547 -3.3245  0.3975  0.5747
 1010MOL0     H36350   7.435   0.802   3.446  2.1666 -2.4731  1.8469
 1011MOL0     O36351   8.861   2.017  10.978  0.1450  0.5844  0.0136
 1011MOL0     C36352   8.908   1.944  11.067 -0.3425  0.1264  0.9329
 1011MOL0     O36353   8.896   1.810  11.084  0.4582  0.1363 -0.1832
 1011MOL0     C36354   8.826   1.745  10.987  0.1594  0.2106 -0.4547
 1011MOL0     C36355   8.877   1.725  10.864 -0.5352 -0.1202 -0.0203
 1011MOL0     C36356   8.804   1.649  10.772  0.5933  1.0399 -0.5602
 1011MOL0     C36357   8.685   1.588  10.802  0.3869  0.4948 -0.3768
 1011MOL0     O36358   8.619   1.517  10.702  0.3883  0.4906 -0.4276
 1011MOL0     C36359   8.554   1.389  10.741 -1.4844  0.1188  0.1891
 1011MOL0     C36360   8.411   1.396  10.717  0.6762  0.0326  0.2013
 1011MOL0     C36361   8.384   1.392  10.569 -0.1758 -0.5439 -0.1439
 1011MOL0     C36362   8.240   1.375  10.516 -0.3635  0.4744  0.7529
 1011MOL0     C36363   8.233   1.451  10.383  0.4404 -0.0490 -0.3831
 1011MOL0     C36364   8.105   1.422  10.297  0.0416 -0.9825 -0.6137
 1011MOL0     C36365   8.113   1.452  10.157 -0.3401  0.4205 -0.5530
 1011MOL0     C36366   8.151   1.601  10.117 -0.6037  0.1388  0.0896
 1011MOL0     N36367   8.161   1.609   9.967 -0.0014  0.7514 -0.0796
 1011MOL0     C36368   8.277   1.572   9.901  0.4755  1.1178 -0.6496
 1011MOL0     C36369   8.251   1.608   9.777 -0.2018 -1.3339  0.3428
 1011MOL0     C36370   8.356   1.617   9.671 -0.3613  0.3064 -0.5372
 1011MOL0     C36371   8.363   1.511   9.557  0.1502  0.3631  0.6022
 1011MOL0     C36372   8.258   1.549   9.453 -0.2688  0.6614 -0.2451
 1011MOL0     C36373   8.266   1.442   9.354  1.3942  0.5091  0.4137
 1011MOL0     O36374   8.174   1.460   9.244 -0.0182 -0.1068  0.1582
 1011MOL0     C36375   8.229   1.498   9.123  0.5321 -0.2126  0.7590
 1011MOL0     C36376   8.322   1.594   9.108 -0.2406  0.2803 -0.7920
 1011MOL0     C36377   8.394   1.620   9.001 -0.4656  0.5470  0.5376
 1011MOL0     C36378   8.531   1.684   9.016  0.2936 -0.0736 -0.4979
 1011MOL0     C36379   8.344   1.574   8.877 -0.5220 -0.5525 -0.2029
 1011MOL0     C36380   8.397   1.621   8.737  0.4282 -0.2323  0.5687
 1011MOL0     O36381   8.464   1.740   8.738 -0.0377  0.2546 -0.7452
 1011MOL0     C36382   8.532   1.801   8.632 -0.3862  1.0050 -0.5449
 1011MOL0     C36383   8.631   1.888   8.675 -0.7489 -0.0184  0.4437
 1011MOL0     C36384   8.713   1.937   8.571 -0.3063  0.2236  0.3331
 1011MOL0     C36385   8.704   1.918   8.428 -0.7943  0.6072  0.0384
 1011MOL0     O36386   8.776   1.994   8.335 -0.6042  0.6470  0.0793
 1011MOL0     C36387   8.721   2.027   8.212 -0.5825 -0.0898  0.8471
 1011MOL0     C36388   8.818   2.126   8.152  0.1732 -0.0387  0.1867
 1011MOL0     C36389   8.768   2.206   8.030  0.3374 -0.0705  0.7135
 1011MOL0     C36390   8.850   2.334   7.994  0.4035 -0.0467  0.5408
 1011MOL0     C36391   8.778   2.402   7.875 -0.5329 -0.4735 -0.8564
 1011MOL0     C36392   8.666   2.490   7.923  0.2488 -1.1526 -0.5786
 1011MOL0     C36393   8.703   2.630   7.983  0.2562  0.6036  0.2266
 1011MOL0     C36394   8.809   2.713   7.897  1.3539  1.5639  0.2967
 1011MOL0    Cl36395   8.774   2.724   7.719  0.0173 -0.0370 -0.3103
 1011MOL0     C36396   8.602   1.825   8.397 -0.2456 -0.6818  1.1348
 1011MOL0     C36397   8.519   1.771   8.497 -0.5124  0.4263 -1.0708
 1011MOL0     O36398   8.365   1.557   8.637 -0.1182 -0.8168 -0.2735
 1011MOL0     C36399   8.243   1.473   8.893 -0.6178 -1.0099  0.1922
 1011MOL0     C36400   8.192   1.430   9.015 -0.2962 -0.7000 -0.0790
 1011MOL0     N36401   8.121   1.657   9.764 -0.1467 -0.3005 -0.3103
 1011MOL0     N36402   8.071   1.672   9.890  0.9601  0.7314  0.6611
 1011MOL0     C36403   8.627   1.631  10.922 -0.4981  0.2605  0.0575
 1011MOL0     C36404   8.697   1.701  11.022  0.4755 -0.3686  0.4916
 1011MOL0     C36405   8.996   2.017  11.166  0.0053 -0.1589  0.1998
 1011MOL0     C36406   9.094   1.945  11.239 -0.5370 -0.2320 -0.5901
 1011MOL0     C36407   9.175   2.000  11.329 -0.1040 -0.4357 -0.2997
 1011MOL0     C36408   9.172   2.136  11.350  0.3571 -0.2689 -1.2366
 1011MOL0     O36409   9.249   2.172  11.461  0.0926 -0.3810  0.1304
 1011MOL0     C36410   9.243   2.308  11.503  0.8163  0.0163  0.1096
 1011MOL0     C36411   9.332   2.327  11.623  0.0321  0.5765  0.1527
 1011MOL0     C36412   9.283   2.453  11.692  0.7953 -0.7525 -0.3264
 1011MOL0     C36413   9.371   2.493  11.806 -0.3161  0.0520 -0.8283
 1011MOL0     C36414   9.341   2.638  11.839 -0.0094 -0.0426  0.0955
 1011MOL0     C36415   9.347   2.764  11.843  0.3295  0.9261 -0.6223
 1011MOL0     C36416   9.076   2.221  11.283  0.0662  0.8178  0.2511
 1011MOL0     C36417   8.988   2.159  11.196 -0.1981 -0.1722  0.1192
 1011MOL0     H36418   8.969   1.778  10.842 -0.5520 -0.5511 -1.1888
 1011MOL0     H36419   8.841   1.638  10.671  1.1163  2.4940 -0.5479
 1011MOL0     H36420   8.597   1.303  10.688 -0.1951 -0.6992  2.4096
 1011MOL0     H36421   8.572   1.374  10.848  0.1354  1.2079  0.1049
 1011MOL0     H36422   8.374   1.306  10.767 -0.6232  0.1986 -0.4200
 1011MOL0     H36423   8.360   1.475  10.773  1.0291  0.6050 -0.2725
 1011MOL0     H36424   8.424   1.483  10.524  1.9601 -1.4011 -0.0942
 1011MOL0     H36425   8.442   1.309  10.528  1.3060  0.4264 -0.0711
 1011MOL0     H36426   8.241   1.267  10.502 -0.4755  0.4682  0.7899
 1011MOL0     H36427   8.170   1.406  10.595  0.5757  1.4396  1.2287
 1011MOL0     H36428   8.229   1.559  10.397  2.0641  0.2418 -1.7755
 1011MOL0     H36429   8.319   1.423  10.321 -0.6213  0.5255 -2.2189
 1011MOL0     H36430   8.078   1.316  10.309 -1.6283 -0.6492 -1.2114
 1011MOL0     H36431   8.021   1.486  10.326 -0.0107 -0.4464 -1.8979
 1011MOL0     H36432   8.182   1.386  10.104 -0.3222  0.3233 -0.4104
 1011MOL0     H36433   8.017   1.427  10.111 -0.3023  1.5765 -1.3033
 1011MOL0     H36434   8.247   1.633  10.159 -0.6440  1.2407 -0.6427
 1011MOL0     H36435   8.076   1.669  10.158 -0.0271  1.3562 -0.8155
 1011MOL0     H36436   8.371   1.529   9.934 -0.4475  0.0276  0.6537
 1011MOL0     H36437   8.352   1.719   9.632 -0.2166  0.6479  0.3189
 1011MOL0     H36438   8.447   1.590   9.725 -0.7721  0.0283  0.0228
 1011MOL0     H36439   8.335   1.415   9.601 -0.1633  1.5343  3.1612
 1011MOL0     H36440   8.458   1.489   9.508 -0.0574 -4.4943  1.9084
 1011MOL0     H36441   8.271   1.647   9.405 -1.9490  0.2481 -1.6590
 1011MOL0     H36442   8.160   1.538   9.499  0.0629 -0.1068  0.2985
 1011MOL0     H36443   8.239   1.341   9.386  0.2488 -0.3601 -2.8661
 1011MOL0     H36444   8.364   1.431   9.306  0.6107 -1.0582 -0.9555
 1011MOL0     H36445   8.365   1.639   9.197 -1.2756 -1.6173  0.7305
 1011MOL0     H36446   8.525   1.787   9.051 -0.1052  1.7674 -5.1723
 1011MOL0     H36447   8.586   1.626   9.090 -1.8282 -0.7407  0.6319
 1011MOL0     H36448   8.580   1.694   8.919 -4.1997 -0.3363 -3.0804
 1011MOL0     H36449   8.651   1.892   8.781 -0.8478 -3.2585  0.6762
 1011MOL0     H36450   8.803   1.990   8.599 -0.3324  0.9628 -0.9322
 1011MOL0     H36451   8.717   1.938   8.148 -1.4436 -0.3330  1.2249
 1011MOL0     H36452   8.619   2.064   8.215  0.3952  3.0834 -0.8150
 1011MOL0     H36453   8.837   2.192   8.236  4.6186  0.7094 -1.1570
 1011MOL0     H36454   8.916   2.093   8.117 -0.0745  0.6538 -1.2328
 1011MOL0     H36455   8.665   2.235   8.053  0.2176  0.4855 -0.4587
 1011MOL0     H36456   8.773   2.136   7.947 -3.9439 -0.5345  0.6576
 1011MOL0     H36457   8.865   2.404   8.077  1.1995  1.9163 -1.1445
 1011MOL0     H36458   8.951   2.302   7.964  0.3077 -0.9249  1.1170
 1011MOL0     H36459   8.743   2.325   7.806  0.8228 -1.3819 -0.5712
 1011MOL0     H36460   8.851   2.470   7.830  1.1885 -0.7163  1.4074
 1011MOL0     H36461   8.597   2.507   7.839 -2.1271  0.1837  1.5114
 1011MOL0     H36462   8.599   2.441   7.994 -0.8189 -0.3121 -0.9742
 1011MOL0     H36463   8.744   2.616   8.083 -2.4757  0.1930  1.3813
 1011MOL0     H36464   8.602   2.673   7.992  0.1528 -0.0224  2.7244
 1011MOL0     H36465   8.899   2.653   7.914  0.8483  1.2596  2.1392
 1011MOL0     H36466   8.817   2.813   7.942 -1.5444  3.4181 -2.7833
 1011MOL0     H36467   8.576   1.794   8.296 -0.8371 -3.7648  2.1247
 1011MOL0     H36468   8.436   1.723   8.447 -0.8911  4.3178 -4.8096
 1011MOL0     H36469   8.203   1.438   8.798 -0.8949 -0.6003  0.1556
 1011MOL0     H36470   8.120   1.349   9.016 -1.9351  0.6935 -0.6856
 1011MOL0     H36471   8.526   1.592  10.928 -0.7825  0.1767 -3.2720
 1011MOL0     H36472   8.654   1.740  11.114  2.8664  0.2566  1.3981
 1011MOL0     H36473   9.112   1.838  11.232 -2.7781 -0.7003 -0.0516
 1011MOL0     H36474   9.245   1.941  11.386 -0.0457 -0.8869 -0.8242
 1011MOL0     H36475   9.278   2.377  11.426  0.9467  2.5128  2.2736
 1011MOL0     H36476   9.138   2.330  11.525  1.3261  1.4716  1.2058
 1011MOL0     H36477   9.435   2.320  11.587 -0.6040 -1.6398 -1.4763
 1011MOL0     H36478   9.303   2.241  11.684 -0.6386 -0.4600 -1.5634
 1011MOL0     H36479   9.185   2.433  11.737  1.4635  1.9966  2.7633
 1011MOL0     H36480   9.281   2.532  11.616 -0.8644 -2.6299 -2.3803
 1011MOL0     H36481   9.477   2.476  11.784  0.0694 -0.1713  1.0352
 1011MOL0     H36482   9.345   2.422  11.885  0.6481 -0.9504 -1.3697
 1011MOL0     H36483   9.366   2.869  11.834 -0.7839  0.9570 -3.5791
 1011MOL0     H36484   9.056   2.328  11.283 -0.2318  0.7789 -0.7361
 1011MOL0     H36485   8.911   2.228  11.162 -0.4141  0.0705  1.0790
 1012MOL0     O36486   1.706   6.354   8.949  0.4087  1.0149 -0.1776
 1012MOL0     C36487   1.674   6.239   8.980  0.1922  0.1590 -0.4273
 1012MOL0     O36488   1.573   6.166   8.920 -0.3082 -1.0904 -0.2092
 1012MOL0     C36489   1.493   6.240   8.830  1.1876  0.4685 -0.1242
 1012MOL0     C36490   1.476   6.199   8.696  0.1277 -0.0343  0.4520
 1012MOL0     C36491   1.413   6.285   8.605  0.8121  0.6567  1.1053
 1012MOL0     C36492   1.371   6.415   8.641 -0.1217 -1.1887 -0.3587
 1012MOL0     O36493   1.323   6.508   8.545  0.5001  0.8396 -0.5264
 1012MOL0     C36494   1.295   6.647   8.582  0.2649  0.1702  0.2424
 1012MOL0     C36495   1.421   6.721   8.610 -0.2436 -0.2757  0.4541
 1012MOL0     C36496   1.405   6.866   8.577  0.8991  0.2937 -0.1694
 1012MOL0     C36497   1.332   6.961   8.679 -0.0295 -0.5512 -0.2935
 1012MOL0     C36498   1.380   7.111   8.653  0.1931 -0.6728 -1.1381
 1012MOL0     C36499   1.288   7.200   8.743 -0.6938 -1.0856  0.5272
 1012MOL0     C36500   1.337   7.217   8.887  0.8138  0.1711  1.1281
 1012MOL0     C36501   1.244   7.312   8.959 -0.5040 -0.6349 -0.5896
 1012MOL0     N36502   1.122   7.255   9.010  0.2980 -0.1536 -0.7761
 1012MOL0     C36503   1.003   7.262   8.949  1.1528 -0.2162 -0.3671
 1012MOL0     C36504   0.916   7.255   9.049  0.0466  0.2390  0.7972
 1012MOL0     C36505   0.768   7.279   9.048 -0.1696  0.4852  0.8228
 1012MOL0     C36506   0.714   7.356   9.171  0.2709 -0.2988 -0.1514
 1012MOL0     C36507   0.752   7.503   9.156 -0.1982  0.2271  0.1881
 1012MOL0     C36508   0.718   7.587   9.283  0.2047  0.6124 -0.1885
 1012MOL0     O36509   0.575   7.593   9.308  0.2686 -1.0414 -0.4497
 1012MOL0     C36510   0.532   7.636   9.436  0.6076  0.0376  0.0152
 1012MOL0     C36511   0.609   7.714   9.528  0.5459  0.4047 -0.2481
 1012MOL0     C36512   0.548   7.756   9.649  0.6599  0.3060 -0.6406
 1012MOL0     C36513   0.635   7.843   9.743 -0.1049 -0.5502  0.6333
 1012MOL0     C36514   0.422   7.714   9.678  0.1841 -0.9420 -0.0955
 1012MOL0     C36515   0.349   7.751   9.802  0.2832  0.1759  0.1783
 1012MOL0     O36516   0.420   7.753   9.922 -1.2659 -0.5601  0.4691
 1012MOL0     C36517   0.353   7.813  10.023 -0.1717 -0.6473  0.0823
 1012MOL0     C36518   0.315   7.948  10.015 -0.4331  0.0134 -0.4530
 1012MOL0     C36519   0.240   7.999  10.129 -0.4869  0.4560 -0.4631
 1012MOL0     C36520   0.206   7.921  10.246  0.1998 -0.2574 -0.6707
 1012MOL0     O36521   0.138   7.966  10.356 -0.0662  0.0240  0.2275
 1012MOL0     C36522   0.114   8.107  10.359 -0.0260  0.3171 -0.4368
 1012MOL0     C36523   0.250   8.172  10.405 -0.5653 -0.3535 -0.2668
 1012MOL0     C36524   0.254   8.320  10.408 -0.4545 -0.7231  0.4508
 1012MOL0     C36525   0.244   8.377  10.270  0.0262  0.7376 -0.0977
 1012MOL0     C36526   0.236   8.533  10.282 -0.1059  0.2986  1.1837
 1012MOL0     C36527   0.254   8.585  10.139 -0.0130 -1.5620  0.9802
 1012MOL0     C36528   0.268   8.739  10.138 -0.5540  0.2627 -0.2658
 1012MOL0     C36529   0.319   8.778  10.003 -0.1229 -0.3899  0.2675
 1012MOL0    Cl36530   0.203   8.753   9.848 -0.4367 -0.0397 -0.1191
 1012MOL0     C36531   0.255   7.788  10.248  0.0274 -0.3366  0.0174
 1012MOL0     C36532   0.323   7.740  10.143  0.3862 -0.0295  1.0931
 1012MOL0     O36533   0.235   7.804   9.777  0.6291 -0.2661  0.0255
 1012MOL0     C36534   0.355   7.618   9.605 -0.3369  0.0398  0.2685
 1012MOL0     C36535   0.410   7.586   9.487  0.2213 -0.1330  1.7238
 1012MOL0     N36536   0.980   7.230   9.163 -0.8359 -1.2635 -0.0087
 1012MOL0     N36537   1.105   7.224   9.136  0.5551 -0.5750 -0.4213
 1012MOL0     C36538   1.381   6.448   8.779 -0.2814 -0.3185  0.3032
 1012MOL0     C36539   1.442   6.365   8.871  0.6771 -1.6987  0.4370
 1012MOL0     C36540   1.774   6.154   9.050  0.0828 -1.4712  0.2711
 1012MOL0     C36541   1.742   6.032   9.103 -0.2162 -0.1134  0.8222
 1012MOL0     C36542   1.834   5.967   9.178  0.2534 -0.2067 -0.1986
 1012MOL0     C36543   1.961   6.019   9.203  0.2732  0.4794  0.1062
 1012MOL0     O36544   2.051   5.955   9.287  0.7515  0.1821  0.3375
 1012MOL0     C36545   2.178   6.012   9.312  0.5631  0.4821  0.1426
 1012MOL0     C36546   2.263   5.923   9.414  0.1717  0.4330  0.3062
 1012MOL0     C36547   2.272   5.773   9.389 -1.0521  0.6662  0.6682
 1012MOL0     C36548   2.364   5.690   9.477  0.0945 -0.8807  0.0636
 1012MOL0     C36549   2.498   5.745   9.487 -0.4206 -0.0397 -0.1296
 1012MOL0     C36550   2.609   5.777   9.482 -0.1592 -0.6658 -0.9730
 1012MOL0     C36551   1.992   6.144   9.152  0.2302  0.3980  0.2740
 1012MOL0     C36552   1.900   6.212   9.077  0.6098  0.3752 -0.0064
 1012MOL0     H36553   1.519   6.104   8.666  1.5097  0.7542 -0.1208
 1012MOL0     H36554   1.394   6.241   8.508 -3.6060 -1.5263  2.7055
 1012MOL0     H36555   1.237   6.700   8.505 -1.6281 -3.5444 -1.1292
 1012MOL0     H36556   1.245   6.652   8.680 -0.3432 -1.1271  0.0225
 1012MOL0     H36557   1.461   6.707   8.711  2.2117 -3.8217 -0.7874
 1012MOL0     H36558   1.489   6.690   8.530  0.7546 -1.5679  1.7455
 1012MOL0     H36559   1.508   6.903   8.586  0.6261  1.1953 -0.6630
 1012MOL0     H36560   1.377   6.874   8.472  3.3534 -1.0195 -1.0164
 1012MOL0     H36561   1.228   6.954   8.645 -0.6577  3.2100  0.3907
 1012MOL0     H36562   1.333   6.920   8.780  3.4641  2.2721  1.0142
 1012MOL0     H36563   1.488   7.119   8.666  0.3468 -3.9804  0.8758
 1012MOL0     H36564   1.351   7.136   8.551  0.8076  2.4819 -0.6438
 1012MOL0     H36565   1.289   7.301   8.701 -0.7346  0.2446  3.4652
 1012MOL0     H36566   1.184   7.168   8.734 -0.5521 -1.7161  1.0858
 1012MOL0     H36567   1.347   7.118   8.933  0.4525  0.5516  2.0357
 1012MOL0     H36568   1.441   7.251   8.889  1.5685 -1.7992 -0.5131
 1012MOL0     H36569   1.219   7.391   8.888  0.1865  2.4309  2.3151
 1012MOL0     H36570   1.288   7.368   9.042  0.9285 -1.9109 -0.4397
 1012MOL0     H36571   0.981   7.291   8.847 -1.0306 -3.7175 -1.0797
 1012MOL0     H36572   0.739   7.333   8.957  0.2101 -0.0644  0.3732
 1012MOL0     H36573   0.711   7.187   9.039  0.1912  0.3561 -0.3045
 1012MOL0     H36574   0.750   7.311   9.264 -0.0655 -0.7331 -0.2314
 1012MOL0     H36575   0.606   7.373   9.170  0.2504  0.2809  2.9161
 1012MOL0     H36576   0.705   7.549   9.069  1.2307 -2.2745 -2.0867
 1012MOL0     H36577   0.860   7.518   9.139 -0.3758  2.0531  0.4352
 1012MOL0     H36578   0.757   7.687   9.264 -2.6065  1.5785 -1.4731
 1012MOL0     H36579   0.769   7.542   9.369 -1.7970  0.7338  1.1206
 1012MOL0     H36580   0.706   7.752   9.494  0.0839  0.7754 -1.1923
 1012MOL0     H36581   0.733   7.873   9.704 -0.1743  2.6989  2.5765
 1012MOL0     H36582   0.597   7.942   9.771 -0.5180 -0.9583  1.5718
 1012MOL0     H36583   0.659   7.786   9.834  0.0121 -1.9474 -0.2425
 1012MOL0     H36584   0.331   8.006   9.924 -2.5058  0.2552 -0.7244
 1012MOL0     H36585   0.196   8.097  10.112  0.6245  1.2064  0.7191
 1012MOL0     H36586   0.069   8.138  10.265 -1.3245 -0.4677 -0.0960
 1012MOL0     H36587   0.041   8.138  10.434  0.6833  2.3863 -0.5560
 1012MOL0     H36588   0.271   8.134  10.506  0.4173  1.1498  0.1280
 1012MOL0     H36589   0.324   8.146  10.328 -0.8599  0.4681 -0.8379
 1012MOL0     H36590   0.353   8.354  10.439  1.0373 -3.1740 -1.2213
 1012MOL0     H36591   0.175   8.354  10.476  1.9027  0.9598  2.5422
 1012MOL0     H36592   0.326   8.337  10.209 -0.4465 -1.0095  0.3739
 1012MOL0     H36593   0.158   8.338  10.213  1.8328  2.3524 -4.3989
 1012MOL0     H36594   0.308   8.578  10.351  0.1064  4.0395 -1.1869
 1012MOL0     H36595   0.135   8.560  10.315  0.6088  0.1981  3.6781
 1012MOL0     H36596   0.335   8.532  10.086 -2.3509 -1.7374 -2.7883
 1012MOL0     H36597   0.172   8.571  10.068  1.9119  0.4488 -1.8797
 1012MOL0     H36598   0.334   8.774  10.217 -0.8791 -1.0613  0.6302
 1012MOL0     H36599   0.176   8.797  10.148 -0.2111  0.8872 -0.6599
 1012MOL0     H36600   0.410   8.718  10.002  2.6918  3.4648 -0.1465
 1012MOL0     H36601   0.348   8.884   9.994 -0.5864 -0.2364  0.5368
 1012MOL0     H36602   0.263   7.724  10.335  2.0267  0.4232  0.4377
 1012MOL0     H36603   0.350   7.635  10.143 -0.3459 -0.2516 -0.2720
 1012MOL0     H36604   0.260   7.569   9.621  0.1453 -1.2587 -0.7439
 1012MOL0     H36605   0.363   7.514   9.421 -0.0792  0.1734  1.5977
 1012MOL0     H36606   1.352   6.537   8.834  0.2326 -1.3476  2.3229
 1012MOL0     H36607   1.462   6.396   8.973  1.8100  0.4317 -0.3694
 1012MOL0     H36608   1.652   5.977   9.078  0.7099 -1.0376 -0.6882
 1012MOL0     H36609   1.812   5.870   9.222 -1.3359 -0.2682 -1.0475
 1012MOL0     H36610   2.239   6.019   9.221  1.2626 -2.5412  0.2800
 1012MOL0     H36611   2.171   6.109   9.362  1.7567  0.0893  1.1238
 1012MOL0     H36612   2.226   5.942   9.515  2.1424 -1.2922  1.4559
 1012MOL0     H36613   2.360   5.972   9.418  0.2044  0.4311 -0.4208
 1012MOL0     H36614   2.313   5.763   9.288 -1.5978 -0.1576  0.5184
 1012MOL0     H36615   2.173   5.728   9.399 -0.1143 -1.6991  0.0481
 1012MOL0     H36616   2.381   5.591   9.432  0.8289 -0.9060  0.3733
 1012MOL0     H36617   2.318   5.677   9.576  0.9334  0.9770  0.7372
 1012MOL0     H36618   2.711   5.810   9.469 -0.6016  0.4293 -1.8749
 1012MOL0     H36619   2.088   6.190   9.172  0.5449 -0.8834  1.8468
 1012MOL0     H36620   1.916   6.319   9.069  0.8859  0.8734  4.6336
 1013MOL0     O36621   2.623   8.942  10.881 -0.4385 -0.0619  0.1618
 1013MOL0     C36622   2.722   9.009  10.907  0.6169  0.5303  0.7713
 1013MOL0     O36623   2.728   9.113  11.004 -0.6428  0.6490  0.0556
 1013MOL0     C36624   2.613   9.129  11.085 -0.6325  0.3279 -0.2920
 1013MOL0     C36625   2.502   9.201  11.044 -1.0226  0.2667  0.8988
 1013MOL0     C36626   2.409   9.234  11.139  0.0736 -0.7454 -0.2830
 1013MOL0     C36627   2.444   9.213  11.279  0.1033  0.5883  0.0847
 1013MOL0     O36628   2.363   9.248  11.379  0.2546  0.3212  0.2507
 1013MOL0     C36629   2.418   9.279  11.500  0.5884  0.0683  0.7585
 1013MOL0     C36630   2.305   9.336  11.589 -0.2023 -0.0201 -0.0060
 1013MOL0     C36631   2.336   9.420  11.707  0.3107  0.0371  0.6850
 1013MOL0     C36632   2.419   9.355  11.820  0.0789 -0.1889  0.8112
 1013MOL0     C36633   2.434   9.444  11.943 -0.0072  0.6665 -0.0782
 1013MOL0     C36634   2.533   9.380  12.043  0.4881  0.0826 -0.4353
 1013MOL0     C36635   2.681   9.413  12.007 -0.2627 -0.3933 -0.7401
 1013MOL0     C36636   2.789   9.438  12.126  0.7879  0.2932  0.2783
 1013MOL0     N36637   2.921   9.438  12.061  0.2245 -0.5284 -0.8847
 1013MOL0     C36638   3.009   9.541  12.048 -0.2961  0.2357  0.2587
 1013MOL0     C36639   3.109   9.484  11.970 -0.0378  0.2453  0.1353
 1013MOL0     C36640   3.221   9.575  11.932 -1.2020 -0.2836  1.1287
 1013MOL0     C36641   3.175   9.667  11.816 -0.3541 -0.3177  0.5722
 1013MOL0     C36642   3.290   9.731  11.730 -0.7582 -0.0460 -0.4914
 1013MOL0     C36643   3.363   9.830  11.825 -1.0108 -0.5197 -0.3076
 1013MOL0     O36644   3.264   9.935  11.850 -0.2650  0.5039 -0.1486
 1013MOL0     C36645   3.238   9.972  11.972  0.5585  0.3532  0.8290
 1013MOL0     C36646   3.329   9.969  12.073  0.1401  0.0552 -0.7423
 1013MOL0     C36647   3.309  10.031  12.190 -0.0992  0.5304 -0.2108
 1013MOL0     C36648   3.424  10.029  12.297  0.1875  1.2163 -0.7012
 1013MOL0     C36649   3.181  10.083  12.222  0.3285  0.1766 -0.3118
 1013MOL0     C36650   3.140  10.128  12.361  0.1683 -0.1259 -0.0290
 1013MOL0     O36651   3.029  10.212  12.375  0.6561 -0.0970  0.2274
 1013MOL0     C36652   3.007  10.251  12.504 -0.2154 -0.6227 -0.4531
 1013MOL0     C36653   3.064  10.370  12.561 -0.9489 -1.0649 -0.1294
 1013MOL0     C36654   3.047  10.414  12.694 -0.0154  0.8719  1.0177
 1013MOL0     C36655   2.970  10.342  12.776  0.7283 -0.2927  0.4067
 1013MOL0     O36656   2.970  10.376  12.905  0.1009 -0.0913 -0.6109
 1013MOL0     C36657   2.853  10.366  12.972  1.1584 -0.3382 -0.0881
 1013MOL0     C36658   2.875  10.431  13.111 -0.0150  0.5260 -0.6157
 1013MOL0     C36659   2.878  10.584  13.104 -0.3692 -0.7843  0.4302
 1013MOL0     C36660   2.876  10.660  13.240 -0.1994  0.5304 -0.0897
 1013MOL0     C36661   2.878  10.812  13.225  0.5276 -0.7109  0.4713
 1013MOL0     C36662   2.856  10.871  13.355 -0.7149  0.3746  0.0929
 1013MOL0     C36663   2.989  10.868  13.441  0.6810  0.5356 -0.1326
 1013MOL0     C36664   2.972  10.871  13.596 -0.3389 -0.1348  0.1360
 1013MOL0    Cl36665   2.931  10.707  13.648 -0.2636 -0.7522  0.0648
 1013MOL0     C36666   2.918  10.221  12.733 -0.2801 -0.2371 -1.2927
 1013MOL0     C36667   2.936  10.178  12.596  0.2520  0.0053 -0.9120
 1013MOL0     O36668   3.196  10.074  12.454 -0.1546  0.4813 -0.5960
 1013MOL0     C36669   3.075  10.072  12.121  0.4338 -0.0306  1.1274
 1013MOL0     C36670   3.112  10.028  11.990  0.9785 -0.1084  1.0574
 1013MOL0     N36671   3.086   9.360  11.941  0.3131 -0.2345  0.2011
 1013MOL0     N36672   2.973   9.331  11.996 -0.0458  0.7342 -0.4773
 1013MOL0     C36673   2.553   9.129  11.315  0.1512  0.1564  0.4855
 1013MOL0     C36674   2.634   9.091  11.214  0.2717  1.1556 -0.0814
 1013MOL0     C36675   2.839   8.966  10.835  0.0240  0.1603  0.3332
 1013MOL0     C36676   2.949   9.046  10.802  0.1512  0.1069 -0.2738
 1013MOL0     C36677   3.048   9.007  10.715  0.5103 -0.3228 -0.5402
 1013MOL0     C36678   3.043   8.882  10.654 -0.6220  1.3230 -0.9543
 1013MOL0     O36679   3.124   8.844  10.553  0.5726  0.5768  0.3805
 1013MOL0     C36680   3.084   8.728  10.471  0.1909  0.1115 -1.1694
 1013MOL0     C36681   3.184   8.702  10.352  0.1208 -0.1534  0.1054
 1013MOL0     C36682   3.138   8.591  10.254  0.5930 -0.5849 -1.6366
 1013MOL0     C36683   3.233   8.485  10.219  0.1177 -0.4574  0.4689
 1013MOL0     C36684   3.165   8.392  10.124  0.5473  0.5768  0.9216
 1013MOL0     C36685   3.103   8.325  10.048 -0.1342 -0.0226 -0.1878
 1013MOL0     C36686   2.941   8.794  10.703 -0.6071 -0.2202 -0.2314
 1013MOL0     C36687   2.843   8.836  10.787  0.4667  0.0337 -0.5691
 1013MOL0     H36688   2.500   9.245  10.945  1.0971  3.7322  2.2141
 1013MOL0     H36689   2.325   9.301  11.127 -0.0933 -0.6775  1.0857
 1013MOL0     H36690   2.441   9.179  11.539  2.4943  0.3509  0.4605
 1013MOL0     H36691   2.508   9.340  11.488  1.5163 -0.7699  2.9355
 1013MOL0     H36692   2.248   9.397  11.520  1.4788  0.1668 -1.3009
 1013MOL0     H36693   2.251   9.244  11.612  1.3822 -1.1321 -0.5107
 1013MOL0     H36694   2.390   9.507  11.668 -0.3296 -0.3316 -1.1355
 1013MOL0     H36695   2.247   9.462  11.755 -0.4538  1.0748 -1.4943
 1013MOL0     H36696   2.379   9.258  11.851  0.7866  0.1453  2.9812
 1013MOL0     H36697   2.519   9.327  11.785  0.0308  0.1679  0.3785
 1013MOL0     H36698   2.474   9.538  11.904  1.4680  1.1032  2.3211
 1013MOL0     H36699   2.337   9.450  11.991 -0.9030 -0.4063 -1.6678
 1013MOL0     H36700   2.510   9.423  12.141  1.0911 -0.8316  0.1263
 1013MOL0     H36701   2.530   9.271  12.050  0.1052  0.1394  0.3447
 1013MOL0     H36702   2.717   9.326  11.952 -0.0996 -2.2355  2.0817
 1013MOL0     H36703   2.694   9.501  11.942 -1.5161  0.5503  0.2458
 1013MOL0     H36704   2.788   9.364  12.206 -2.4825  1.1538  1.1989
 1013MOL0     H36705   2.764   9.531  12.178 -3.4130  0.4971 -1.6938
 1013MOL0     H36706   2.993   9.645  12.076  0.3627 -0.0962  1.9896
 1013MOL0     H36707   3.252   9.624  12.025 -1.3091  3.4838 -0.6547
 1013MOL0     H36708   3.312   9.524  11.898 -1.4624  0.7812 -1.3370
 1013MOL0     H36709   3.113   9.751  11.848  1.9325  1.2733  1.0780
 1013MOL0     H36710   3.122   9.603  11.746  2.2696 -0.0317 -1.8539
 1013MOL0     H36711   3.262   9.783  11.638  1.2635  1.7253 -0.1962
 1013MOL0     H36712   3.354   9.646  11.706  0.6100  0.7752  0.1541
 1013MOL0     H36713   3.456   9.877  11.793 -1.4521 -0.1255 -1.0563
 1013MOL0     H36714   3.402   9.771  11.908 -0.2618  0.1997 -0.1355
 1013MOL0     H36715   3.429   9.931  12.056  1.5740  1.0507  3.9556
 1013MOL0     H36716   3.416  10.116  12.361 -3.0886  1.2736 -0.9959
 1013MOL0     H36717   3.409   9.933  12.348 -1.1847  1.4601 -0.5948
 1013MOL0     H36718   3.521  10.030  12.247  0.2143  0.6989 -0.6702
 1013MOL0     H36719   3.124  10.431  12.495 -1.3257 -1.5121 -0.9077
 1013MOL0     H36720   3.088  10.510  12.725  0.9786  0.3253  1.4203
 1013MOL0     H36721   2.774  10.419  12.918 -0.3382 -2.8694 -0.5331
 1013MOL0     H36722   2.815  10.264  12.976 -0.5040  0.2559  0.1882
 1013MOL0     H36723   2.794  10.397  13.176  0.8445 -1.6584 -0.5808
 1013MOL0     H36724   2.966  10.381  13.148 -1.1348 -2.9094 -2.0353
 1013MOL0     H36725   2.790  10.615  13.048  1.3958  1.3967 -1.3378
 1013MOL0     H36726   2.964  10.613  13.043 -1.6155  0.1917 -0.9421
 1013MOL0     H36727   2.794  10.623  13.303  3.1141 -3.9778  2.2246
 1013MOL0     H36728   2.966  10.631  13.296 -0.5187  0.5166  0.4155
 1013MOL0     H36729   2.794  10.843  13.162  2.0132  1.3308 -0.6402
 1013MOL0     H36730   2.972  10.850  13.183  0.1859  1.9861  1.9068
 1013MOL0     H36731   2.822  10.974  13.339 -0.9541  0.4712  1.1624
 1013MOL0     H36732   2.774  10.826  13.411 -1.3640  0.6580 -0.6115
 1013MOL0     H36733   3.057  10.951  13.418  2.0579 -0.5397 -0.0937
 1013MOL0     H36734   3.056  10.790  13.403 -0.8623 -0.3227 -1.2028
 1013MOL0     H36735   2.899  10.949  13.620 -0.6474  0.1465 -1.5919
 1013MOL0     H36736   3.063  10.906  13.646  1.4474  1.3622 -3.7584
 1013MOL0     H36737   2.864  10.161  12.805 -1.4084  1.4937 -0.6286
 1013MOL0     H36738   2.901  10.083  12.557  0.8201 -0.3861 -0.4914
 1013MOL0     H36739   2.978  10.117  12.142 -0.0065  0.3691 -1.3971
 1013MOL0     H36740   3.031  10.015  11.919  1.1332 -0.6558  0.9735
 1013MOL0     H36741   2.566   9.079  11.410  2.7077 -0.9480 -0.3578
 1013MOL0     H36742   2.713   9.023  11.244 -1.8120 -1.6348 -0.5997
 1013MOL0     H36743   2.949   9.141  10.855 -0.1999 -0.5611  0.9759
 1013MOL0     H36744   3.128   9.076  10.690 -0.8326  0.7104 -2.1162
 1013MOL0     H36745   3.067   8.636  10.528 -1.8863  1.0987 -0.0898
 1013MOL0     H36746   2.986   8.755  10.432 -0.8037 -1.2122  0.2892
 1013MOL0     H36747   3.285   8.672  10.382  0.3125  1.3085  1.0497
 1013MOL0     H36748   3.184   8.798  10.300 -2.6692  0.2294  0.6793
 1013MOL0     H36749   3.115   8.642  10.160  0.2203  0.6018 -0.9376
 1013MOL0     H36750   3.038   8.567  10.291 -0.7018  3.6198 -1.8687
 1013MOL0     H36751   3.243   8.424  10.309 -1.9777 -1.2927  0.2003
 1013MOL0     H36752   3.330   8.512  10.177  0.6425 -1.8606  0.7128
 1013MOL0     H36753   3.052   8.266   9.976  0.8217  0.5006 -1.3357
 1013MOL0     H36754   2.947   8.688  10.678 -0.5603  0.1663 -1.9918
 1013MOL0     H36755   2.763   8.767  10.810 -1.1431  2.5263  1.8806
 1014MOL0     O36756   4.120   8.823   9.042  0.9094  0.2051 -0.3818
 1014MOL0     C36757   4.080   8.855   8.931 -0.2375 -0.5089 -0.4808
 1014MOL0     O36758   4.148   8.821   8.819 -0.1086  0.5812  0.3345
 1014MOL0     C36759   4.243   8.718   8.830 -0.2783 -0.7927 -0.6823
 1014MOL0     C36760   4.240   8.605   8.918  0.3179  0.3226 -0.1033
 1014MOL0     C36761   4.342   8.510   8.920 -0.1167 -0.3910  0.7688
 1014MOL0     C36762   4.454   8.530   8.839 -0.0716  0.3103 -0.5883
 1014MOL0     O36763   4.554   8.445   8.857 -0.1631  0.1377 -0.5098
 1014MOL0     C36764   4.680   8.494   8.896  0.1248  0.0780 -0.0578
 1014MOL0     C36765   4.768   8.382   8.946  0.6783  0.3427  0.8903
 1014MOL0     C36766   4.832   8.312   8.825  0.2486 -1.4260 -1.1372
 1014MOL0     C36767   4.920   8.200   8.863  0.1017  0.0412 -0.6635
 1014MOL0     C36768   4.995   8.136   8.739  0.5996 -0.0171 -1.0980
 1014MOL0     C36769   4.918   8.130   8.609  0.1404 -0.2379 -0.6710
 1014MOL0     C36770   4.809   8.028   8.613 -0.0102 -0.4317 -0.6071
 1014MOL0     C36771   4.806   7.940   8.490  0.0708  0.6339  0.4410
 1014MOL0     N36772   4.698   7.844   8.511  0.4941  0.4823  0.4046
 1014MOL0     C36773   4.566   7.887   8.493  0.5111  0.0248  0.8317
 1014MOL0     C36774   4.498   7.771   8.508  0.1416  0.3330 -0.3069
 1014MOL0     C36775   4.346   7.780   8.524 -1.1201 -0.7023 -0.1885
 1014MOL0     C36776   4.252   7.669   8.469 -0.0465  0.0425 -0.3293
 1014MOL0     C36777   4.286   7.635   8.327  0.3369  0.5281 -0.2445
 1014MOL0     C36778   4.237   7.744   8.229 -0.0719  0.7445 -0.0863
 1014MOL0     O36779   4.356   7.825   8.222  0.0994  0.5196 -0.2502
 1014MOL0     C36780   4.396   7.895   8.113  0.7553  0.2873  1.1062
 1014MOL0     C36781   4.521   7.945   8.118  0.0024 -0.9711  0.5228
 1014MOL0     C36782   4.568   8.037   8.017 -0.1591  0.6641  0.7521
 1014MOL0     C36783   4.716   8.058   8.017 -0.3755  0.1116  0.5633
 1014MOL0     C36784   4.481   8.073   7.912  0.3592 -0.3018 -0.1070
 1014MOL0     C36785   4.519   8.179   7.806 -0.2086  1.3019 -0.9292
 1014MOL0     O36786   4.436   8.168   7.694 -0.1403  0.3314 -0.6005
 1014MOL0     C36787   4.415   8.270   7.606  0.2065 -0.1500  0.8813
 1014MOL0     C36788   4.371   8.233   7.481  0.3600  0.4999  0.1277
 1014MOL0     C36789   4.352   8.336   7.384  0.7566  0.6011 -0.9551
 1014MOL0     C36790   4.380   8.468   7.416 -0.2522  0.0434 -1.2695
 1014MOL0     O36791   4.349   8.554   7.321  0.8766 -0.4012 -0.1410
 1014MOL0     C36792   4.386   8.690   7.335 -0.6835 -0.2426  0.3350
 1014MOL0     C36793   4.336   8.768   7.212 -1.6966  0.4506  0.5159
 1014MOL0     C36794   4.431   8.726   7.090  0.0315 -0.2566 -0.2841
 1014MOL0     C36795   4.415   8.812   6.962 -0.0135 -0.1580  0.5913
 1014MOL0     C36796   4.269   8.828   6.929 -0.5084 -0.4126  0.0218
 1014MOL0     C36797   4.257   8.880   6.790 -1.0340  0.2611 -0.1764
 1014MOL0     C36798   4.108   8.922   6.752  0.7970  0.0693  0.6878
 1014MOL0     C36799   4.105   9.033   6.643 -0.3716  0.5496  0.3183
 1014MOL0    Cl36800   3.928   9.083   6.632  0.1117  0.4322 -0.5637
 1014MOL0     C36801   4.424   8.508   7.546  0.7721  0.7182 -0.4563
 1014MOL0     C36802   4.440   8.406   7.640  0.0882  0.0586 -0.6175
 1014MOL0     O36803   4.618   8.250   7.815 -0.4996  0.1513  0.1342
 1014MOL0     C36804   4.356   8.019   7.911 -0.2513 -0.9519  0.2292
 1014MOL0     C36805   4.313   7.928   8.009  0.0288 -0.0143 -1.1859
 1014MOL0     N36806   4.589   7.668   8.531  0.3217  0.8748 -0.6450
 1014MOL0     N36807   4.707   7.710   8.535  1.2650  0.5136  0.1835
 1014MOL0     C36808   4.464   8.640   8.756 -0.2879  0.6388 -0.1539
 1014MOL0     C36809   4.361   8.738   8.754  1.2872  0.5060  0.0718
 1014MOL0     C36810   3.958   8.936   8.920  0.2693  0.6657 -0.2872
 1014MOL0     C36811   3.873   8.958   9.035 -0.6053  1.3500  0.5000
 1014MOL0     C36812   3.745   8.998   9.019  0.5041 -0.2280  0.6430
 1014MOL0     C36813   3.691   9.027   8.888  0.3624 -0.5293  1.4804
 1014MOL0     O36814   3.571   9.076   8.855 -0.2398 -0.4088 -0.1644
 1014MOL0     C36815   3.452   9.028   8.913  0.1637  0.5796 -0.4201
 1014MOL0     C36816   3.343   9.005   8.808 -0.5179 -0.3872  0.0531
 1014MOL0     C36817   3.271   9.131   8.747  0.3793  0.8428  0.4607
 1014MOL0     C36818   3.192   9.109   8.620 -0.3591 -0.1080 -0.1897
 1014MOL0     C36819   3.157   9.238   8.557 -0.2582  0.6180 -0.2754
 1014MOL0     C36820   3.147   9.353   8.517  0.1225 -0.7274 -0.0277
 1014MOL0     C36821   3.773   9.004   8.775  0.5006  0.7223 -0.1220
 1014MOL0     C36822   3.908   8.964   8.795 -0.7903 -0.2129 -0.2514
 1014MOL0     H36823   4.151   8.581   8.975  1.6497 -1.2086  1.4194
 1014MOL0     H36824   4.321   8.426   8.985 -3.8718 -1.6288 -1.7051
 1014MOL0     H36825   4.726   8.559   8.821  0.4124 -0.2798 -0.1932
 1014MOL0     H36826   4.669   8.554   8.987 -1.5942  1.0568 -0.8509
 1014MOL0     H36827   4.843   8.426   9.011  0.5495  1.3175  0.3935
 1014MOL0     H36828   4.716   8.299   8.995  3.5485 -0.6898  2.4087
 1014MOL0     H36829   4.751   8.263   8.769 -1.4632 -2.2772  1.8069
 1014MOL0     H36830   4.887   8.379   8.759  0.9499 -0.5999  0.2516
 1014MOL0     H36831   5.001   8.240   8.924 -1.4251  0.4044  1.2025
 1014MOL0     H36832   4.867   8.121   8.916 -0.1190  3.1165  4.2498
 1014MOL0     H36833   5.086   8.196   8.727 -0.2334  1.2216 -1.2772
 1014MOL0     H36834   5.014   8.034   8.776 -1.4164  0.2353  0.8214
 1014MOL0     H36835   4.874   8.223   8.573 -0.2941 -0.7904 -1.6142
 1014MOL0     H36836   4.996   8.100   8.539  2.7300 -2.6903  2.8677
 1014MOL0     H36837   4.821   7.958   8.696 -2.7480 -0.8829 -0.4989
 1014MOL0     H36838   4.709   8.066   8.638 -0.9733 -3.4234  0.5797
 1014MOL0     H36839   4.900   7.884   8.489  1.0392  2.0738  2.6121
 1014MOL0     H36840   4.799   8.005   8.402  2.2773 -1.1114 -1.1436
 1014MOL0     H36841   4.532   7.986   8.464 -0.7964 -0.5760  0.2838
 1014MOL0     H36842   4.330   7.797   8.631  3.0118  6.2442 -0.0219
 1014MOL0     H36843   4.321   7.880   8.485 -0.4686  0.5126  2.2945
 1014MOL0     H36844   4.153   7.715   8.480  0.1824  1.4976 -3.2527
 1014MOL0     H36845   4.247   7.577   8.527 -2.1106  0.4746  0.2545
 1014MOL0     H36846   4.240   7.541   8.296 -2.5381  1.0844  1.8516
 1014MOL0     H36847   4.391   7.611   8.313 -0.1752 -1.1519 -1.4167
 1014MOL0     H36848   4.147   7.802   8.252  0.2741  2.5900 -2.9411
 1014MOL0     H36849   4.228   7.697   8.131  2.3506 -2.6934  1.1169
 1014MOL0     H36850   4.599   7.908   8.183  1.3375 -0.8221 -0.9486
 1014MOL0     H36851   4.755   7.964   8.055 -1.3897 -0.8930 -0.7555
 1014MOL0     H36852   4.748   8.076   7.914  3.3454  1.8562  1.8425
 1014MOL0     H36853   4.739   8.143   8.081  0.4579  0.6320 -0.3977
 1014MOL0     H36854   4.366   8.126   7.466  0.4387 -0.2181  4.0605
 1014MOL0     H36855   4.299   8.319   7.290 -1.9389 -0.8034  0.6762
 1014MOL0     H36856   4.324   8.737   7.412 -1.8863 -2.3326  0.7271
 1014MOL0     H36857   4.492   8.711   7.352 -0.8225 -0.2102  1.1929
 1014MOL0     H36858   4.232   8.740   7.193 -1.3412 -1.8437  1.6228
 1014MOL0     H36859   4.342   8.875   7.235 -1.5191  0.6552 -0.4220
 1014MOL0     H36860   4.417   8.619   7.072  1.2877 -0.7760  1.5663
 1014MOL0     H36861   4.535   8.728   7.124 -0.3094 -3.0208  1.2362
 1014MOL0     H36862   4.476   8.902   6.974  0.4545 -0.2746 -0.7014
 1014MOL0     H36863   4.467   8.769   6.875  1.5156  1.2419  0.7668
 1014MOL0     H36864   4.231   8.891   7.010  3.2522 -1.0428  2.5217
 1014MOL0     H36865   4.216   8.733   6.924  0.6838 -1.0415 -2.4313
 1014MOL0     H36866   4.319   8.969   6.774 -1.2068  0.6089  0.9843
 1014MOL0     H36867   4.286   8.798   6.724 -0.0255  1.0797 -0.7754
 1014MOL0     H36868   4.066   8.977   6.838  0.7284  4.4205 -1.8354
 1014MOL0     H36869   4.038   8.841   6.730 -2.1785  3.2415 -2.8379
 1014MOL0     H36870   4.143   9.001   6.546  0.1108  2.5334 -0.2022
 1014MOL0     H36871   4.175   9.112   6.671  2.1101 -0.1529 -3.2123
 1014MOL0     H36872   4.427   8.614   7.569 -0.8608  0.8949 -0.9226
 1014MOL0     H36873   4.461   8.434   7.743 -0.8914  0.2496 -0.4551
 1014MOL0     H36874   4.280   8.052   7.841  0.2022  0.9620  0.5768
 1014MOL0     H36875   4.211   7.890   8.011  0.4541 -1.1737  0.7219
 1014MOL0     H36876   4.554   8.660   8.700  0.3614 -1.8659 -0.1516
 1014MOL0     H36877   4.367   8.825   8.689  0.1698 -1.0118 -2.1491
 1014MOL0     H36878   3.898   8.919   9.133  2.6580  0.3320 -0.5985
 1014MOL0     H36879   3.684   9.017   9.107  2.0025  0.6922  1.5290
 1014MOL0     H36880   3.478   8.935   8.964 -2.0500 -0.6083 -1.3294
 1014MOL0     H36881   3.416   9.089   8.997  4.6613 -1.2826  3.3279
 1014MOL0     H36882   3.270   8.933   8.848  0.6745 -2.0626 -0.6871
 1014MOL0     H36883   3.391   8.946   8.730  0.9499  1.3845 -0.4582
 1014MOL0     H36884   3.355   9.198   8.727  1.0417  0.0713  0.5718
 1014MOL0     H36885   3.190   9.168   8.811 -0.9441  2.4887 -2.0024
 1014MOL0     H36886   3.102   9.052   8.647 -0.0938 -0.0563  0.8427
 1014MOL0     H36887   3.257   9.050   8.555 -1.5329 -0.3225 -1.2114
 1014MOL0     H36888   3.161   9.450   8.474  0.1139  0.0626  1.6565
 1014MOL0     H36889   3.736   9.018   8.674 -1.2221 -2.6839 -0.1224
 1014MOL0     H36890   3.967   8.940   8.707 -0.6661  1.0025 -0.5057
 1015MOL0     O36891  10.165   4.802   6.283 -0.1507 -0.0350  0.8976
 1015MOL0     C36892  10.206   4.844   6.384 -0.5712 -0.3562  0.1308
 1015MOL0     O36893  10.337   4.877   6.414  0.1728  0.2597  0.7575
 1015MOL0     C36894  10.417   4.892   6.306  1.1589  0.0683 -0.5553
 1015MOL0     C36895  10.518   4.800   6.288 -0.3478 -0.6565  0.6174
 1015MOL0     C36896  10.607   4.819   6.182  0.8005 -0.8800  0.1935
 1015MOL0     C36897  10.596   4.927   6.093 -0.0578 -0.2359 -0.0315
 1015MOL0     O36898  10.695   4.937   5.993  0.4214 -0.8338 -0.0650
 1015MOL0     C36899  10.674   5.034   5.889 -0.4367 -0.6327  0.0072
 1015MOL0     C36900  10.784   5.034   5.778 -0.0728  0.1870 -0.3473
 1015MOL0     C36901  10.918   5.061   5.848 -0.7441 -0.6757 -0.5824
 1015MOL0     C36902  11.035   5.076   5.746  0.0031  0.4260 -0.0246
 1015MOL0     C36903  11.155   5.135   5.821  0.2777  0.0677 -0.0819
 1015MOL0     C36904  11.285   5.100   5.746  0.1980  0.1994 -1.3204
 1015MOL0     C36905  11.406   5.111   5.844 -0.3803  0.3346 -0.1137
 1015MOL0     C36906  11.541   5.092   5.776  0.7285 -0.2255  0.0429
 1015MOL0     N36907  11.652   5.118   5.864  0.8498 -0.7397 -0.3242
 1015MOL0     C36908  11.764   5.047   5.860 -0.4274 -0.1074 -0.0454
 1015MOL0     C36909  11.860   5.135   5.908  0.5757  0.2831  1.3138
 1015MOL0     C36910  12.007   5.105   5.918  0.1851 -0.0294  0.0248
 1015MOL0     C36911  12.101   5.124   5.799 -0.3067  1.2214 -0.2064
 1015MOL0     C36912  12.128   5.271   5.779  0.5435 -0.6730 -0.4654
 1015MOL0     C36913  12.228   5.286   5.666 -0.3655 -0.6499 -0.2842
 1015MOL0     O36914  12.161   5.256   5.541 -0.4933 -0.3587 -0.5989
 1015MOL0     C36915  12.181   5.359   5.457  0.4151  0.3135  0.5230
 1015MOL0     C36916  12.263   5.333   5.342  0.6848 -0.1710  0.0452
 1015MOL0     C36917  12.281   5.433   5.241  0.8495 -0.2204 -0.2038
 1015MOL0     C36918  12.361   5.415   5.119  0.2885  0.4633  0.6432
 1015MOL0     C36919  12.206   5.554   5.269  0.8753 -0.6377  0.2534
 1015MOL0     C36920  12.240   5.666   5.181  0.7231  0.5088 -0.1259
 1015MOL0     O36921  12.210   5.655   5.047 -0.1813 -0.4917 -0.4757
 1015MOL0     C36922  12.266   5.741   4.959 -0.2835 -0.2582  0.7914
 1015MOL0     C36923  12.190   5.807   4.872 -0.1181 -0.6950  0.5472
 1015MOL0     C36924  12.246   5.869   4.766  0.1375 -0.9266 -0.4847
 1015MOL0     C36925  12.388   5.876   4.746  0.2062  0.3732  0.0063
 1015MOL0     O36926  12.430   5.931   4.625  0.1960  0.6033 -0.4835
 1015MOL0     C36927  12.552   5.888   4.583  0.7129  0.2917  0.4954
 1015MOL0     C36928  12.597   5.962   4.459  0.1376 -0.6506 -0.3076
 1015MOL0     C36929  12.615   6.118   4.467  0.5807 -0.7462  0.8798
 1015MOL0     C36930  12.463   6.178   4.454 -0.9505  0.0095  0.4202
 1015MOL0     C36931  12.489   6.334   4.441  0.8198 -0.6130 -0.4397
 1015MOL0     C36932  12.365   6.420   4.445  0.3138  0.4426  0.8729
 1015MOL0     C36933  12.392   6.567   4.433  0.6142 -0.4206 -0.9217
 1015MOL0     C36934  12.259   6.638   4.451  0.3595 -0.0841 -0.6333
 1015MOL0    Cl36935  12.178   6.597   4.607 -0.0460  0.0718 -0.2578
 1015MOL0     C36936  12.472   5.806   4.840 -0.1178  0.6665  0.2012
 1015MOL0     C36937  12.408   5.740   4.948  1.0918 -0.6742  0.1351
 1015MOL0     O36938  12.273   5.772   5.235  0.3858  0.0079  0.0828
 1015MOL0     C36939  12.130   5.576   5.379 -0.2698  0.5643 -0.6067
 1015MOL0     C36940  12.111   5.475   5.471  0.3499  0.7925  0.4038
 1015MOL0     N36941  11.803   5.255   5.934  0.2279  0.3401  0.1864
 1015MOL0     N36942  11.679   5.243   5.903  0.7036 -0.2905 -1.6012
 1015MOL0     C36943  10.502   5.022   6.124 -0.2851  0.3673  0.2990
 1015MOL0     C36944  10.412   5.003   6.226  0.4756  0.6736  0.2055
 1015MOL0     C36945  10.102   4.862   6.481 -0.1463  0.8978 -0.2210
 1015MOL0     C36946  10.142   4.856   6.618  0.1542 -0.4195 -0.1879
 1015MOL0     C36947  10.044   4.870   6.714  0.5951  0.1409 -0.7373
 1015MOL0     C36948   9.911   4.892   6.672  0.2324  1.4040 -1.4611
 1015MOL0     O36949   9.816   4.917   6.765  0.0742  0.0474  0.2421
 1015MOL0     C36950   9.698   4.838   6.747  0.2893  0.7051  0.6068
 1015MOL0     C36951   9.653   4.798   6.884  1.1137 -1.2186  0.2796
 1015MOL0     C36952   9.753   4.723   6.970 -0.6478  0.3216  0.4244
 1015MOL0     C36953   9.828   4.806   7.072  0.0030  0.2666 -0.6777
 1015MOL0     C36954   9.936   4.727   7.123  0.5469  0.5495  0.3500
 1015MOL0     C36955  10.024   4.677   7.192  1.0536 -0.1674  0.6488
 1015MOL0     C36956   9.875   4.908   6.540 -0.5309 -0.2111  0.0760
 1015MOL0     C36957   9.967   4.886   6.436 -0.0457 -1.0295 -0.1451
 1015MOL0     H36958  10.517   4.710   6.348 -0.0431 -0.6289  0.6652
 1015MOL0     H36959  10.678   4.739   6.164  0.4477 -0.8482 -1.4448
 1015MOL0     H36960  10.581   4.999   5.843 -0.3242 -2.3562  0.9990
 1015MOL0     H36961  10.662   5.138   5.919  0.7882 -0.7650  1.0538
 1015MOL0     H36962  10.776   4.944   5.716 -1.7915 -1.3992  1.9895
 1015MOL0     H36963  10.756   5.119   5.715 -0.2513  0.3854 -0.0022
 1015MOL0     H36964  10.897   5.140   5.920 -1.2525 -2.7349  1.6809
 1015MOL0     H36965  10.953   4.978   5.911  1.8094  2.6998  2.8974
 1015MOL0     H36966  11.056   4.977   5.705 -2.1147 -1.2572  2.6179
 1015MOL0     H36967  11.015   5.143   5.662 -3.4514 -2.2547 -1.5873
 1015MOL0     H36968  11.150   5.242   5.843  4.0289  0.0651  1.6156
 1015MOL0     H36969  11.156   5.090   5.921  1.3209  0.6880  0.2083
 1015MOL0     H36970  11.288   4.994   5.718  2.9704 -0.5022  1.1072
 1015MOL0     H36971  11.294   5.164   5.658  0.0029  0.8086 -0.9031
 1015MOL0     H36972  11.398   5.209   5.891 -3.7996  0.7492 -1.2473
 1015MOL0     H36973  11.402   5.029   5.916  1.8917 -1.3966 -1.7908
 1015MOL0     H36974  11.539   5.163   5.693  0.4594 -1.1602 -0.7626
 1015MOL0     H36975  11.548   4.993   5.731 -0.9212  1.6046 -4.8755
 1015MOL0     H36976  11.775   4.944   5.827  1.5437 -0.9538  2.9072
 1015MOL0     H36977  12.048   5.161   6.003  2.3524  1.3923 -1.8382
 1015MOL0     H36978  12.018   5.000   5.944  0.4216 -0.3883 -1.4688
 1015MOL0     H36979  12.060   5.076   5.709  0.1649  1.9435 -0.8168
 1015MOL0     H36980  12.196   5.071   5.805 -1.2188 -0.8531 -2.3121
 1015MOL0     H36981  12.182   5.317   5.863  0.9542 -0.6495 -0.7381
 1015MOL0     H36982  12.038   5.329   5.759 -0.2620 -1.5919  0.4050
 1015MOL0     H36983  12.315   5.221   5.675 -0.5266 -0.9536 -0.8422
 1015MOL0     H36984  12.263   5.389   5.678 -0.8645 -0.5168  0.0367
 1015MOL0     H36985  12.311   5.236   5.335 -2.6990 -2.3360  3.0745
 1015MOL0     H36986  12.445   5.486   5.114 -0.6421  1.5003 -2.1772
 1015MOL0     H36987  12.402   5.314   5.125 -2.0328 -0.7100 -1.7050
 1015MOL0     H36988  12.302   5.424   5.028 -0.1051  0.7081  0.9177
 1015MOL0     H36989  12.082   5.802   4.881 -0.1372 -1.1361  0.1304
 1015MOL0     H36990  12.188   5.929   4.697 -0.1546  0.1666  0.6617
 1015MOL0     H36991  12.625   5.916   4.659  1.2650 -1.7312  0.7724
 1015MOL0     H36992  12.558   5.781   4.560  0.6965  0.2331  0.7576
 1015MOL0     H36993  12.692   5.918   4.425  1.2929  0.1694  1.6702
 1015MOL0     H36994  12.522   5.943   4.382 -0.3049 -1.6379  0.3393
 1015MOL0     H36995  12.679   6.154   4.386 -0.2372  0.8178  0.8983
 1015MOL0     H36996  12.652   6.148   4.565 -0.5565 -0.5252  1.2482
 1015MOL0     H36997  12.408   6.137   4.369  0.4667 -0.7109 -0.1952
 1015MOL0     H36998  12.407   6.145   4.541 -0.5507 -1.2948  0.2018
 1015MOL0     H36999  12.555   6.346   4.355  3.0439  1.6533  1.4339
 1015MOL0     H37000  12.549   6.369   4.525  1.2948  0.0006 -1.0325
 1015MOL0     H37001  12.305   6.382   4.361  1.8116 -0.7616  0.2976
 1015MOL0     H37002  12.326   6.385   4.540 -2.0827 -0.6969 -0.4425
 1015MOL0     H37003  12.443   6.604   4.344  1.5523 -0.6059 -0.4777
 1015MOL0     H37004  12.445   6.609   4.519 -2.0956  1.4679 -0.0656
 1015MOL0     H37005  12.193   6.618   4.366 -0.6524 -0.4058  0.1970
 1015MOL0     H37006  12.279   6.746   4.448 -0.9192  0.2944  1.9374
 1015MOL0     H37007  12.577   5.790   4.818 -1.2294 -1.6167 -4.7759
 1015MOL0     H37008  12.473   5.685   5.015  0.1357  0.1910  1.8274
 1015MOL0     H37009  12.085   5.670   5.409  2.6468  2.2223 -1.0061
 1015MOL0     H37010  12.050   5.495   5.558  0.2934  0.5854  0.4122
 1015MOL0     H37011  10.505   5.115   6.067  1.3773 -0.7313 -1.5611
 1015MOL0     H37012  10.335   5.076   6.250  0.5948 -0.4745  5.1386
 1015MOL0     H37013  10.248   4.857   6.639 -0.1636  0.2726  1.6775
 1015MOL0     H37014  10.062   4.868   6.821 -3.0523 -0.3244 -0.0107
 1015MOL0     H37015   9.621   4.891   6.692  2.2738  2.7149 -0.3700
 1015MOL0     H37016   9.727   4.744   6.698  0.4232  0.8744  0.3607
 1015MOL0     H37017   9.551   4.759   6.879 -1.8157  5.0523  2.0194
 1015MOL0     H37018   9.634   4.896   6.927 -3.6181 -0.8170 -2.0552
 1015MOL0     H37019   9.828   4.667   6.914 -0.4552  1.0672 -0.0723
 1015MOL0     H37020   9.695   4.656   7.034 -0.9906  0.9012  0.7366
 1015MOL0     H37021   9.767   4.837   7.157 -3.4851 -3.7166 -1.3804
 1015MOL0     H37022   9.863   4.896   7.021  3.3717 -0.7160 -0.3288
 1015MOL0     H37023  10.102   4.616   7.232  0.0991 -1.3316  0.7968
 1015MOL0     H37024   9.780   4.945   6.503  0.0728  2.0606  0.6671
 1015MOL0     H37025   9.942   4.910   6.333 -0.4402 -1.2113 -0.0912
 1016MOL0     O37026   1.658   1.792   6.058  0.1705 -1.0308 -0.5390
 1016MOL0     C37027   1.579   1.752   6.146 -0.2690  0.4013  0.7341
 1016MOL0     O37028   1.483   1.825   6.203 -0.0278 -0.3440  0.3620
 1016MOL0     C37029   1.472   1.966   6.175  0.6457  0.2758 -0.5953
 1016MOL0     C37030   1.576   2.050   6.173 -0.4269  0.6615 -0.0345
 1016MOL0     C37031   1.577   2.180   6.124  0.6691 -0.1852  0.3372
 1016MOL0     C37032   1.454   2.239   6.082  0.7789  0.2405  0.2478
 1016MOL0     O37033   1.443   2.367   6.036 -1.4811 -0.2837 -0.4320
 1016MOL0     C37034   1.559   2.452   6.016  0.9574  0.7746 -0.0513
 1016MOL0     C37035   1.648   2.421   5.894  0.6357 -0.0129 -0.3159
 1016MOL0     C37036   1.576   2.436   5.763  0.3650  0.1799  0.6406
 1016MOL0     C37037   1.515   2.572   5.732 -0.2360 -1.0143  0.0491
 1016MOL0     C37038   1.469   2.587   5.585 -0.5604  0.4279 -0.8174
 1016MOL0     C37039   1.415   2.729   5.546 -1.8868  0.3939 -0.6144
 1016MOL0     C37040   1.350   2.738   5.408  0.1394  0.2296 -0.9800
 1016MOL0     C37041   1.423   2.657   5.299 -0.4752 -0.0227 -0.0583
 1016MOL0     N37042   1.381   2.522   5.290 -0.0599  0.7174  0.4615
 1016MOL0     C37043   1.255   2.482   5.261  0.7332  0.9329  0.5538
 1016MOL0     C37044   1.260   2.340   5.255 -1.5780 -0.1189  0.1654
 1016MOL0     C37045   1.151   2.255   5.226 -0.3663  0.6514  0.3358
 1016MOL0     C37046   1.171   2.205   5.072  0.4309  0.5145  0.0405
 1016MOL0     C37047   1.300   2.133   5.036 -1.1048  0.2971  0.1621
 1016MOL0     C37048   1.329   2.028   5.137  0.7052  0.0699 -1.0407
 1016MOL0     O37049   1.437   1.937   5.095  0.1626  0.1761  0.3427
 1016MOL0     C37050   1.560   1.987   5.058  0.3186 -0.4248  0.1076
 1016MOL0     C37051   1.638   2.055   5.149 -0.7128  0.1295  0.2634
 1016MOL0     C37052   1.770   2.092   5.125  0.6331 -0.1667  0.4373
 1016MOL0     C37053   1.853   2.152   5.232  0.5792 -0.5972 -0.4109
 1016MOL0     C37054   1.840   2.057   5.009 -0.0669 -0.1618  0.1907
 1016MOL0     C37055   1.981   2.085   4.972 -0.0524  0.6832  0.3485
 1016MOL0     O37056   2.003   2.076   4.837 -0.8960  0.0731 -0.0647
 1016MOL0     C37057   2.132   2.089   4.788 -0.2075  0.9287  0.0221
 1016MOL0     C37058   2.211   2.209   4.775 -0.6282 -0.2601 -0.0868
 1016MOL0     C37059   2.344   2.208   4.730 -0.3700 -0.0341 -0.2205
 1016MOL0     C37060   2.404   2.088   4.705  0.8551  0.3108 -0.1724
 1016MOL0     O37061   2.536   2.092   4.664  0.2724 -0.1175  0.0496
 1016MOL0     C37062   2.610   1.970   4.677  1.1286 -0.2246 -0.3466
 1016MOL0     C37063   2.753   2.017   4.673 -0.2288  0.8648 -1.1077
 1016MOL0     C37064   2.862   1.907   4.662  0.6663 -0.0536  0.1415
 1016MOL0     C37065   2.855   1.814   4.780  1.2562  0.4003  0.0840
 1016MOL0     C37066   2.991   1.781   4.835  0.2554  0.3755  0.0032
 1016MOL0     C37067   2.991   1.717   4.988  0.4866  1.0159  0.2681
 1016MOL0     C37068   3.128   1.662   5.032  0.1208 -0.8533  0.3989
 1016MOL0     C37069   3.239   1.769   5.018 -0.6837 -0.6612  0.0850
 1016MOL0    Cl37070   3.403   1.706   5.043  0.0863  0.0888  1.0143
 1016MOL0     C37071   2.323   1.968   4.702  0.7205  0.2014  0.3652
 1016MOL0     C37072   2.190   1.968   4.737 -0.6185 -0.6853  0.0679
 1016MOL0     O37073   2.064   2.107   5.057  0.1613  0.3574 -0.0299
 1016MOL0     C37074   1.757   1.987   4.914  0.2477  0.1406  0.2225
 1016MOL0     C37075   1.624   1.943   4.941 -0.5255  0.1675 -0.1586
 1016MOL0     N37076   1.397   2.310   5.279 -0.2599  0.7832 -0.1052
 1016MOL0     N37077   1.466   2.420   5.305  0.6860  0.1359  0.1854
 1016MOL0     C37078   1.339   2.159   6.088 -0.6852  0.3874 -0.5862
 1016MOL0     C37079   1.351   2.023   6.134  0.5194 -1.3713  0.3457
 1016MOL0     C37080   1.573   1.615   6.192  0.4428  0.2019 -0.4291
 1016MOL0     C37081   1.685   1.528   6.161  0.3123  0.4373 -0.3079
 1016MOL0     C37082   1.684   1.397   6.218  0.4172  0.5432  0.5060
 1016MOL0     C37083   1.587   1.352   6.307 -0.6812  0.1032 -0.4408
 1016MOL0     O37084   1.582   1.237   6.385  0.2219 -0.2181 -0.0564
 1016MOL0     C37085   1.702   1.151   6.387 -0.9108  0.0915 -0.0942
 1016MOL0     C37086   1.691   1.031   6.299 -0.4039  0.0343  0.4149
 1016MOL0     C37087   1.642   0.913   6.380 -0.4495 -0.5774 -0.6365
 1016MOL0     C37088   1.581   0.806   6.282  0.5019  0.4969  0.2699
 1016MOL0     C37089   1.679   0.725   6.203 -0.8115  1.1959 -0.2318
 1016MOL0     C37090   1.777   0.674   6.139  0.0573  0.7566 -0.8655
 1016MOL0     C37091   1.492   1.442   6.337 -0.5919  0.1524 -0.9897
 1016MOL0     C37092   1.473   1.567   6.284 -0.9566 -1.0325  0.4020
 1016MOL0     H37093   1.663   1.993   6.205 -1.0927 -1.8496 -2.2538
 1016MOL0     H37094   1.670   2.234   6.139  0.0436  0.3125  2.9701
 1016MOL0     H37095   1.517   2.553   6.024 -3.5759 -1.0651  4.5262
 1016MOL0     H37096   1.629   2.446   6.100 -0.5794 -0.8943  1.1707
 1016MOL0     H37097   1.730   2.493   5.898  0.6606 -0.0690  0.3458
 1016MOL0     H37098   1.683   2.318   5.900 -0.1208 -0.2550  0.1194
 1016MOL0     H37099   1.642   2.403   5.682 -1.5141 -0.4319 -0.6930
 1016MOL0     H37100   1.493   2.365   5.759 -2.9473  3.7518  0.0087
 1016MOL0     H37101   1.428   2.600   5.793  1.4084 -0.0957  2.0924
 1016MOL0     H37102   1.581   2.656   5.755 -0.5246 -0.9720  0.7630
 1016MOL0     H37103   1.562   2.571   5.529  0.9530 -0.2319  1.7007
 1016MOL0     H37104   1.386   2.517   5.573  0.1072 -1.2582  2.9138
 1016MOL0     H37105   1.347   2.768   5.623 -2.0163  1.2062 -1.1226
 1016MOL0     H37106   1.505   2.790   5.535 -2.4759  1.6886  1.1987
 1016MOL0     H37107   1.241   2.724   5.413 -0.8090  4.7600 -3.6866
 1016MOL0     H37108   1.349   2.845   5.387 -1.1275  0.5805  0.6351
 1016MOL0     H37109   1.529   2.675   5.313 -1.1416  3.4222  1.4210
 1016MOL0     H37110   1.408   2.706   5.202  6.7567  2.0149 -0.7391
 1016MOL0     H37111   1.165   2.542   5.254  0.4056  0.2434 -2.3880
 1016MOL0     H37112   1.145   2.165   5.288 -2.5516 -1.3256 -2.4702
 1016MOL0     H37113   1.056   2.309   5.233 -1.1344 -0.1182 -2.6317
 1016MOL0     H37114   1.170   2.293   5.007  2.4438 -1.8764 -3.6049
 1016MOL0     H37115   1.088   2.139   5.047  1.0123 -0.3441  0.3107
 1016MOL0     H37116   1.387   2.199   5.039 -0.8774 -0.0188  0.9145
 1016MOL0     H37117   1.292   2.078   4.942  1.3781 -1.0770  0.6794
 1016MOL0     H37118   1.243   1.965   5.160  2.2003 -1.8007 -0.2593
 1016MOL0     H37119   1.355   2.070   5.235  1.1790 -3.1667  0.3782
 1016MOL0     H37120   1.574   2.083   5.232  0.2714  1.8503  0.4824
 1016MOL0     H37121   1.920   2.076   5.274 -1.1627 -2.6998 -1.2246
 1016MOL0     H37122   1.895   2.248   5.201 -0.7413 -0.4282 -1.7983
 1016MOL0     H37123   1.798   2.182   5.321  0.9846 -0.8890 -0.0592
 1016MOL0     H37124   2.161   2.299   4.808 -0.9699 -0.7230  0.6983
 1016MOL0     H37125   2.385   2.308   4.733 -1.1625  0.3547 -1.5159
 1016MOL0     H37126   2.604   1.917   4.772  1.4064  1.6355  0.7550
 1016MOL0     H37127   2.588   1.911   4.587  0.0004  1.5141 -1.2704
 1016MOL0     H37128   2.780   2.076   4.585  2.5460 -0.0592 -0.9646
 1016MOL0     H37129   2.779   2.068   4.766 -0.3646 -1.0019  0.0267
 1016MOL0     H37130   2.958   1.956   4.651  0.0688  1.0660 -0.2528
 1016MOL0     H37131   2.836   1.858   4.568 -2.0046  1.5599 -0.0681
 1016MOL0     H37132   2.813   1.874   4.862  2.0930  0.7817  0.2548
 1016MOL0     H37133   2.805   1.720   4.757  1.9497  0.3194 -1.1786
 1016MOL0     H37134   3.056   1.869   4.833  0.7471  0.0188 -1.3468
 1016MOL0     H37135   3.037   1.699   4.778 -1.4658  0.5793 -1.7867
 1016MOL0     H37136   2.964   1.806   5.046  4.4489  1.1705  2.1816
 1016MOL0     H37137   2.905   1.650   5.002  0.4955  1.2866  1.8895
 1016MOL0     H37138   3.153   1.571   4.977  0.0313 -0.9114  0.4529
 1016MOL0     H37139   3.113   1.638   5.138 -4.1054  1.2441  0.4900
 1016MOL0     H37140   3.209   1.846   5.090 -0.4840  1.0568 -1.5904
 1016MOL0     H37141   3.235   1.819   4.920  0.5799 -2.9960 -1.2515
 1016MOL0     H37142   2.362   1.877   4.658 -1.0129  0.2649 -1.4134
 1016MOL0     H37143   2.124   1.885   4.759 -0.3333 -0.7345  0.7369
 1016MOL0     H37144   1.782   1.957   4.813  2.1619  1.1126  0.3622
 1016MOL0     H37145   1.566   1.873   4.883  0.4159 -1.1218  0.4141
 1016MOL0     H37146   1.237   2.193   6.070 -1.7879 -1.2225  1.9368
 1016MOL0     H37147   1.261   1.963   6.142 -0.9063  0.5946  0.0495
 1016MOL0     H37148   1.761   1.546   6.085 -2.6836  1.5445 -3.3266
 1016MOL0     H37149   1.763   1.335   6.178  0.6305  0.7908  0.5441
 1016MOL0     H37150   1.786   1.217   6.360  0.3743 -1.3583  0.1959
 1016MOL0     H37151   1.729   1.120   6.488 -1.9475 -0.4835  0.0124
 1016MOL0     H37152   1.788   1.004   6.257  0.9920  3.5686  0.9544
 1016MOL0     H37153   1.623   1.038   6.214  0.9938 -3.6839 -1.1904
 1016MOL0     H37154   1.560   0.933   6.449 -2.1750 -2.0113 -2.1526
 1016MOL0     H37155   1.730   0.875   6.433 -1.6388 -2.3051  0.1839
 1016MOL0     H37156   1.503   0.848   6.218 -2.6766 -2.7527  1.6566
 1016MOL0     H37157   1.530   0.743   6.355  1.3937 -2.1231 -1.2274
 1016MOL0     H37158   1.867   0.630   6.102 -0.2239  0.5724 -1.3374
 1016MOL0     H37159   1.425   1.424   6.421  1.1515 -0.0310  0.4305
 1016MOL0     H37160   1.395   1.634   6.318 -0.0413  0.2706  0.0117
 1017MOL0     O37161   1.973   4.140   7.563  0.7178  0.0881  0.3078
 1017MOL0     C37162   1.916   4.228   7.487 -0.1627  0.3578 -0.4240
 1017MOL0     O37163   1.963   4.266   7.367 -0.8897 -0.0904  0.5504
 1017MOL0     C37164   2.069   4.195   7.303  1.4998 -0.3613 -0.4951
 1017MOL0     C37165   2.178   4.267   7.264 -0.5541 -0.0167  0.7790
 1017MOL0     C37166   2.285   4.196   7.219 -0.1600 -0.0578 -0.2401
 1017MOL0     C37167   2.276   4.058   7.201  1.4995  0.4868  0.8342
 1017MOL0     O37168   2.381   3.979   7.152 -0.6383 -0.8718 -0.6738
 1017MOL0     C37169   2.516   4.034   7.152 -0.0369  0.4901  0.0295
 1017MOL0     C37170   2.571   4.039   7.294 -0.0330 -0.3536 -0.2134
 1017MOL0     C37171   2.589   3.897   7.352  0.4587 -0.1222  0.5949
 1017MOL0     C37172   2.612   3.907   7.495  0.4901  0.3023  0.2166
 1017MOL0     C37173   2.652   3.770   7.560 -0.5127  0.1371 -0.3102
 1017MOL0     C37174   2.733   3.794   7.682 -1.2377 -0.6854 -1.3662
 1017MOL0     C37175   2.778   3.668   7.757 -0.7226  0.4494  0.0430
 1017MOL0     C37176   2.777   3.698   7.905  0.2101  0.7760 -0.1598
 1017MOL0     N37177   2.888   3.796   7.932 -0.7073 -0.4171 -0.5206
 1017MOL0     C37178   2.881   3.941   7.930 -0.4442  0.1695 -0.0212
 1017MOL0     C37179   3.008   3.979   7.952  0.3992  1.0702  0.0028
 1017MOL0     C37180   3.039   4.123   7.917 -0.0618 -0.3062  0.6199
 1017MOL0     C37181   3.035   4.185   8.048  0.7795  0.3016 -0.8907
 1017MOL0     C37182   3.111   4.320   8.062 -0.8396  0.0545  0.7036
 1017MOL0     C37183   3.093   4.421   7.954 -0.0352  0.3503  0.7241
 1017MOL0     O37184   2.959   4.476   7.951  0.5403 -0.6376 -0.5474
 1017MOL0     C37185   2.930   4.562   7.843  0.8535  0.3285 -0.3812
 1017MOL0     C37186   2.794   4.598   7.843 -0.6610  0.2590 -0.7739
 1017MOL0     C37187   2.748   4.694   7.749 -0.3934  0.6889  0.1374
 1017MOL0     C37188   2.600   4.723   7.748 -0.7311  0.1708  0.4443
 1017MOL0     C37189   2.838   4.754   7.663  0.2568  0.5002  0.3594
 1017MOL0     C37190   2.792   4.849   7.560 -1.0020  0.2556  0.1754
 1017MOL0     O37191   2.831   4.833   7.428  0.4955  1.3828  0.0775
 1017MOL0     C37192   2.788   4.905   7.327 -0.8406 -0.0248  0.0554
 1017MOL0     C37193   2.777   4.840   7.206 -0.1472  0.1448  0.7325
 1017MOL0     C37194   2.735   4.908   7.093 -0.6354  0.2914  0.2142
 1017MOL0     C37195   2.716   5.049   7.089 -0.5283  0.1463 -0.0362
 1017MOL0     O37196   2.698   5.108   6.970  0.2354 -0.8522 -0.1267
 1017MOL0     C37197   2.682   5.248   6.963 -0.1720 -1.4214 -0.3454
 1017MOL0     C37198   2.697   5.286   6.824 -0.4594 -0.9115 -0.3377
 1017MOL0     C37199   2.571   5.224   6.749  0.5237 -0.0189  0.3428
 1017MOL0     C37200   2.561   5.284   6.609 -0.3073  1.0158 -0.2327
 1017MOL0     C37201   2.454   5.210   6.525  0.0649 -0.1011  0.3204
 1017MOL0     C37202   2.435   5.238   6.375  0.7869 -0.3936 -0.1976
 1017MOL0     C37203   2.376   5.374   6.350 -0.0857  0.2528 -0.0946
 1017MOL0     C37204   2.411   5.439   6.217 -0.9503  0.7776  0.1145
 1017MOL0    Cl37205   2.292   5.565   6.178 -0.2759  0.0477  0.5397
 1017MOL0     C37206   2.711   5.116   7.215  0.3837  0.4572 -0.5589
 1017MOL0     C37207   2.741   5.037   7.323  0.9798  0.3671  0.9312
 1017MOL0     O37208   2.724   4.940   7.605 -0.4134  0.0012 -0.0463
 1017MOL0     C37209   2.973   4.715   7.666  0.3716 -0.1932 -0.1119
 1017MOL0     C37210   3.019   4.620   7.759 -1.2350  0.1110 -0.2531
 1017MOL0     N37211   3.088   3.866   7.959 -0.8227 -0.0124  0.7625
 1017MOL0     N37212   3.013   3.757   7.948 -0.5112  0.4186 -1.2204
 1017MOL0     C37213   2.164   3.991   7.224  0.4085 -0.0113 -0.0624
 1017MOL0     C37214   2.052   4.059   7.282 -0.3974  0.6517 -0.0660
 1017MOL0     C37215   1.813   4.304   7.547 -0.2063  0.3950  1.1984
 1017MOL0     C37216   1.727   4.370   7.451 -0.4081 -0.1547  0.5528
 1017MOL0     C37217   1.632   4.465   7.503 -0.2129 -0.3894  0.0570
 1017MOL0     C37218   1.627   4.493   7.640  0.7742  0.5316  0.6148
 1017MOL0     O37219   1.531   4.584   7.682  0.0560 -0.0896  0.5250
 1017MOL0     C37220   1.562   4.718   7.656  0.3956 -0.8553 -0.6808
 1017MOL0     C37221   1.460   4.834   7.686  0.3260 -0.4723 -0.7932
 1017MOL0     C37222   1.380   4.833   7.824 -0.3444 -0.2259  0.4391
 1017MOL0     C37223   1.314   4.966   7.855  0.2835  0.0650 -1.4033
 1017MOL0     C37224   1.418   5.064   7.879 -0.0018 -0.7750  0.2763
 1017MOL0     C37225   1.522   5.121   7.894  0.3116  1.2750 -0.6178
 1017MOL0     C37226   1.706   4.419   7.725  0.6536  0.8530 -0.5796
 1017MOL0     C37227   1.794   4.319   7.675 -0.2569 -0.5523 -1.0259
 1017MOL0     H37228   2.173   4.374   7.284  1.5135 -0.0101  1.4223
 1017MOL0     H37229   2.372   4.252   7.187 -1.2937 -0.5794 -5.2180
 1017MOL0     H37230   2.585   3.970   7.097  1.4287  1.6313  0.4785
 1017MOL0     H37231   2.510   4.131   7.102 -0.1525 -0.0157 -0.9503
 1017MOL0     H37232   2.670   4.077   7.267  0.1355 -0.4560  0.2556
 1017MOL0     H37233   2.523   4.096   7.373 -1.1930 -2.8948  1.0467
 1017MOL0     H37234   2.496   3.839   7.350  1.1192 -1.2970  1.7307
 1017MOL0     H37235   2.668   3.840   7.302 -0.7929  0.3450 -2.0989
 1017MOL0     H37236   2.680   3.991   7.513  0.8574 -0.4239  2.6995
 1017MOL0     H37237   2.524   3.939   7.552  2.1014  3.0845  1.3238
 1017MOL0     H37238   2.564   3.706   7.570  0.7361 -1.8157 -1.3990
 1017MOL0     H37239   2.721   3.723   7.490  0.0892 -0.2577  0.5394
 1017MOL0     H37240   2.820   3.850   7.648  0.0310 -0.4392  1.8981
 1017MOL0     H37241   2.685   3.863   7.751  2.9606  0.6663  0.5146
 1017MOL0     H37242   2.702   3.589   7.754 -1.4431  1.1592 -2.0861
 1017MOL0     H37243   2.877   3.632   7.731 -0.1427  0.8118  1.6186
 1017MOL0     H37244   2.798   3.608   7.962  0.7092  1.7981  1.3300
 1017MOL0     H37245   2.679   3.735   7.938  0.6439  3.8747 -1.9244
 1017MOL0     H37246   2.798   4.002   7.896  0.8155  1.9302 -0.0881
 1017MOL0     H37247   3.138   4.133   7.872 -0.0364  1.8138  1.0697
 1017MOL0     H37248   2.961   4.171   7.857 -1.4130  0.3526  2.7852
 1017MOL0     H37249   3.072   4.124   8.132 -0.2819  0.3970 -0.3351
 1017MOL0     H37250   2.933   4.213   8.075  0.5657  0.1670 -1.5366
 1017MOL0     H37251   3.217   4.305   8.083 -0.8425 -0.5818  0.2860
 1017MOL0     H37252   3.075   4.366   8.154  3.1877  0.1674  2.4092
 1017MOL0     H37253   3.118   4.394   7.851 -2.3351  1.7831 -0.2996
 1017MOL0     H37254   3.154   4.503   7.992  2.8910 -1.8569  1.0863
 1017MOL0     H37255   2.719   4.562   7.912 -0.3328 -2.5201 -1.7626
 1017MOL0     H37256   2.555   4.686   7.841 -2.1204 -5.1217 -1.9740
 1017MOL0     H37257   2.588   4.832   7.753  2.9159  0.7321 -0.6363
 1017MOL0     H37258   2.547   4.680   7.663 -2.0168  0.7280  0.9281
 1017MOL0     H37259   2.823   4.742   7.202  0.7964  0.5617  1.1183
 1017MOL0     H37260   2.733   4.854   6.998 -2.1318 -1.7680  1.3418
 1017MOL0     H37261   2.585   5.273   7.007  1.2148 -2.5983  3.9146
 1017MOL0     H37262   2.763   5.295   7.019  1.0947 -2.0205 -1.6132
 1017MOL0     H37263   2.702   5.395   6.817 -2.0889 -0.9288 -3.9015
 1017MOL0     H37264   2.785   5.250   6.771 -0.2980  0.9218 -1.3967
 1017MOL0     H37265   2.481   5.246   6.807  0.3423 -0.2322  0.1436
 1017MOL0     H37266   2.583   5.117   6.729  0.7956  0.3712 -1.9121
 1017MOL0     H37267   2.540   5.386   6.642  0.3884  0.7035  1.2436
 1017MOL0     H37268   2.656   5.293   6.555  1.1547  1.4012  2.2753
 1017MOL0     H37269   2.356   5.235   6.566  0.0597 -3.2318  2.5281
 1017MOL0     H37270   2.461   5.102   6.541 -0.6509  0.0400  1.7160
 1017MOL0     H37271   2.527   5.218   6.319  0.3332 -0.3178 -0.9854
 1017MOL0     H37272   2.351   5.173   6.352  1.5571 -1.1761 -0.9142
 1017MOL0     H37273   2.396   5.440   6.434 -0.7765  0.1285  0.1750
 1017MOL0     H37274   2.267   5.375   6.351 -0.0908 -0.2994  1.3898
 1017MOL0     H37275   2.407   5.369   6.133  0.4133  1.4852 -0.5617
 1017MOL0     H37276   2.514   5.473   6.213 -0.2429 -1.3383 -1.7174
 1017MOL0     H37277   2.705   5.224   7.226 -1.8492  0.5151 -1.7930
 1017MOL0     H37278   2.755   5.082   7.421  0.7212  2.9732 -0.1536
 1017MOL0     H37279   3.049   4.760   7.603 -0.2753 -1.3262 -1.7611
 1017MOL0     H37280   3.127   4.606   7.750 -0.3215  4.2580  1.7385
 1017MOL0     H37281   2.149   3.883   7.221 -0.1745 -0.1070  2.8426
 1017MOL0     H37282   1.974   3.990   7.314 -0.0319 -0.1701 -0.8768
 1017MOL0     H37283   1.721   4.350   7.344 -0.9164 -1.5369  0.8094
 1017MOL0     H37284   1.571   4.520   7.433  1.6801  2.0470  0.2025
 1017MOL0     H37285   1.658   4.747   7.700 -1.5271  0.4813  3.1339
 1017MOL0     H37286   1.564   4.715   7.547  1.4332 -2.5211 -0.6575
 1017MOL0     H37287   1.382   4.841   7.609 -0.4178  0.1112 -0.0049
 1017MOL0     H37288   1.518   4.925   7.668  2.5375 -1.8727 -1.1192
 1017MOL0     H37289   1.449   4.799   7.902  0.5133  0.9857  0.2406
 1017MOL0     H37290   1.297   4.766   7.800  0.5623 -0.8630 -1.0605
 1017MOL0     H37291   1.253   4.949   7.944 -0.1890 -2.5169 -2.1349
 1017MOL0     H37292   1.251   5.007   7.775 -1.5018 -0.0515 -0.1001
 1017MOL0     H37293   1.618   5.170   7.898 -0.5847  3.0789  0.6937
 1017MOL0     H37294   1.705   4.431   7.833 -0.5352  3.7912 -0.8352
 1017MOL0     H37295   1.854   4.271   7.752 -2.5982 -2.4689 -0.2646
 1018MOL0     O37296   8.092  10.318   7.693 -0.0633  0.0476 -0.6638
 1018MOL0     C37297   8.125  10.277   7.802 -0.0040 -0.6313  0.9327
 1018MOL0     O37298   8.238  10.313   7.869  0.4448 -0.0268 -1.2195
 1018MOL0     C37299   8.325  10.399   7.819 -0.2883 -0.6401 -0.4212
 1018MOL0     C37300   8.461  10.367   7.808  0.7344  0.3954  0.0403
 1018MOL0     C37301   8.558  10.460   7.762  1.2357  0.0130  0.9636
 1018MOL0     C37302   8.514  10.590   7.735  0.5256  0.2577 -0.1494
 1018MOL0     O37303   8.614  10.688   7.704 -0.0720  0.5437 -0.4216
 1018MOL0     C37304   8.598  10.821   7.760 -0.3915 -0.3343  0.5810
 1018MOL0     C37305   8.730  10.867   7.801  0.3124 -0.7363 -0.9717
 1018MOL0     C37306   8.838  10.860   7.689  0.2653  0.2659  0.1462
 1018MOL0     C37307   8.824  10.973   7.590 -0.3421  1.0044  0.2257
 1018MOL0     C37308   8.921  10.950   7.469  0.2947  0.1330  0.1082
 1018MOL0     C37309   8.854  10.890   7.348 -0.6203  0.1524 -0.5483
 1018MOL0     C37310   8.757  10.775   7.378 -0.1553 -0.1432  1.3620
 1018MOL0     C37311   8.694  10.733   7.248  0.3921 -0.3795 -0.2235
 1018MOL0     N37312   8.568  10.656   7.284 -0.7075 -0.0537 -0.6948
 1018MOL0     C37313   8.563  10.520   7.331  0.3204 -0.3950 -0.8407
 1018MOL0     C37314   8.436  10.506   7.360  0.7464 -0.0853  0.2054
 1018MOL0     C37315   8.378  10.378   7.414  0.4746  0.4589  0.7285
 1018MOL0     C37316   8.260  10.325   7.316 -0.9245  1.1328 -1.0899
 1018MOL0     C37317   8.279  10.339   7.171  0.5022  0.6797  0.0027
 1018MOL0     C37318   8.409  10.254   7.128 -0.2681  0.1920  0.5593
 1018MOL0     O37319   8.412  10.257   6.982  0.6463  0.7022 -0.4634
 1018MOL0     C37320   8.454  10.352   6.902 -1.3751 -1.5209 -0.2000
 1018MOL0     C37321   8.492  10.481   6.950  0.0697 -0.5074  0.1365
 1018MOL0     C37322   8.559  10.582   6.872 -0.4578 -0.2213 -0.1537
 1018MOL0     C37323   8.592  10.713   6.929  0.2011 -0.5195 -0.2423
 1018MOL0     C37324   8.583  10.551   6.738 -0.5161 -0.4751 -0.1421
 1018MOL0     C37325   8.641  10.648   6.651  0.4255 -0.3474  0.1279
 1018MOL0     O37326   8.755  10.714   6.701  0.1199 -0.7992 -0.8637
 1018MOL0     C37327   8.791  10.831   6.626 -0.5471  0.8161 -0.4401
 1018MOL0     C37328   8.878  10.815   6.519 -0.5180 -0.1319  0.0938
 1018MOL0     C37329   8.912  10.928   6.441  0.1208 -0.3784  0.0441
 1018MOL0     C37330   8.856  11.055   6.473 -0.1380  0.6149 -0.3340
 1018MOL0     O37331   8.890  11.172   6.421 -0.1336  0.2694 -0.2363
 1018MOL0     C37332   9.011  11.174   6.341  1.1712  0.1893  0.3794
 1018MOL0     C37333   9.073  11.322   6.332  0.3961  1.4740 -0.0059
 1018MOL0     C37334   9.151  11.369   6.457 -0.5663 -0.3300  0.0653
 1018MOL0     C37335   9.206  11.511   6.464 -0.7050 -0.4464  0.6089
 1018MOL0     C37336   9.330  11.531   6.371  0.2190  0.1560 -1.0218
 1018MOL0     C37337   9.368  11.679   6.372 -0.1023  0.1130  0.0551
 1018MOL0     C37338   9.375  11.743   6.511  0.3107  0.6674 -0.7330
 1018MOL0     C37339   9.441  11.881   6.486 -0.2695 -0.0033 -0.3324
 1018MOL0    Cl37340   9.464  11.958   6.648  0.0347  0.2480 -0.3455
 1018MOL0     C37341   8.769  11.061   6.584 -0.1763 -0.2225 -0.1130
 1018MOL0     C37342   8.739  10.952   6.661 -1.0763  0.0288  0.5001
 1018MOL0     O37343   8.599  10.662   6.536  0.7430  0.6476 -0.8540
 1018MOL0     C37344   8.541  10.424   6.687  0.1657 -0.8136 -0.3128
 1018MOL0     C37345   8.468  10.336   6.760 -0.3675  0.6024 -1.0718
 1018MOL0     N37346   8.373  10.627   7.335  0.3625 -0.0971  0.7536
 1018MOL0     N37347   8.452  10.725   7.284  0.7338  1.2501 -0.7690
 1018MOL0     C37348   8.373  10.617   7.741  0.0546 -0.0954 -0.6239
 1018MOL0     C37349   8.286  10.523   7.790 -0.0557 -0.1052 -1.2298
 1018MOL0     C37350   8.038  10.179   7.864  1.1223  0.0230  0.0385
 1018MOL0     C37351   8.061  10.148   7.998 -0.3020  0.1186  0.4150
 1018MOL0     C37352   7.973  10.070   8.075 -1.1136  0.5240  0.3183
 1018MOL0     C37353   7.871  10.002   8.008 -0.3761 -0.1014 -0.1756
 1018MOL0     O37354   7.780   9.923   8.070  0.0931  0.1890  0.5127
 1018MOL0     C37355   7.827   9.841   8.174 -0.3441 -0.1464 -0.8643
 1018MOL0     C37356   7.773   9.695   8.161  0.1848  0.7183 -0.1265
 1018MOL0     C37357   7.622   9.694   8.194 -0.4800 -0.4922  0.0922
 1018MOL0     C37358   7.569   9.548   8.200  0.2487 -0.1814 -0.3771
 1018MOL0     C37359   7.427   9.548   8.249 -1.2289 -0.2321 -0.3428
 1018MOL0     C37360   7.320   9.538   8.306 -0.9502  0.0482 -0.1520
 1018MOL0     C37361   7.855  10.017   7.871 -0.5334  0.3085  0.1842
 1018MOL0     C37362   7.934  10.112   7.802  0.6011 -1.0181  0.2374
 1018MOL0     H37363   8.479  10.262   7.829  1.5598  0.2250 -1.3605
 1018MOL0     H37364   8.661  10.426   7.758  1.0240 -0.4941 -0.7203
 1018MOL0     H37365   8.553  10.892   7.691  1.4844 -1.0187 -1.4710
 1018MOL0     H37366   8.524  10.808   7.839 -1.0157 -1.3866 -0.1477
 1018MOL0     H37367   8.717  10.969   7.838 -0.3572 -0.5563 -1.6712
 1018MOL0     H37368   8.757  10.802   7.885 -0.2353  0.3906  0.1031
 1018MOL0     H37369   8.938  10.860   7.735  1.2885  0.7388 -1.9782
 1018MOL0     H37370   8.831  10.767   7.632  0.3170 -0.2312  0.9241
 1018MOL0     H37371   8.724  10.987   7.546  0.6787  2.5725 -1.7935
 1018MOL0     H37372   8.863  11.063   7.638  0.7150  1.0770 -0.7139
 1018MOL0     H37373   8.971  11.047   7.455 -2.2451  1.6163  0.5741
 1018MOL0     H37374   8.999  10.879   7.495  1.3533  1.0589 -0.4207
 1018MOL0     H37375   8.797  10.968   7.295 -0.6568  1.0358  0.7354
 1018MOL0     H37376   8.935  10.861   7.281  2.4519  2.6640  1.8069
 1018MOL0     H37377   8.818  10.697   7.423  0.1848 -0.8966 -0.3601
 1018MOL0     H37378   8.688  10.811   7.456  0.8947  2.4469  1.2166
 1018MOL0     H37379   8.758  10.656   7.203 -1.7607 -2.7264  0.4525
 1018MOL0     H37380   8.689  10.825   7.189  1.8186  0.7408  1.3172
 1018MOL0     H37381   8.643  10.449   7.347  2.6502  1.7490 -2.1071
 1018MOL0     H37382   8.457  10.304   7.428 -0.2078 -0.4674 -0.1257
 1018MOL0     H37383   8.341  10.419   7.508  1.7650  0.9737  1.0297
 1018MOL0     H37384   8.173  10.380   7.353  0.2972  1.3634  1.6809
 1018MOL0     H37385   8.239  10.220   7.335  2.5353  0.6709  1.0819
 1018MOL0     H37386   8.294  10.441   7.132 -0.4552 -0.0854 -2.5415
 1018MOL0     H37387   8.195  10.293   7.119 -1.5741  2.1737  1.8651
 1018MOL0     H37388   8.383  10.155   7.165 -0.2904  0.2309  0.6481
 1018MOL0     H37389   8.499  10.287   7.182  0.1964  0.3154 -0.2697
 1018MOL0     H37390   8.480  10.503   7.055 -0.1423  0.1103 -0.0097
 1018MOL0     H37391   8.526  10.721   7.017 -3.0748 -4.5907 -1.9888
 1018MOL0     H37392   8.698  10.724   6.952  0.4171 -0.5686 -1.2169
 1018MOL0     H37393   8.568  10.790   6.855  0.1473 -0.4541 -0.1567
 1018MOL0     H37394   8.920  10.716   6.506 -0.4076  0.0383 -0.9959
 1018MOL0     H37395   8.986  10.913   6.364 -1.6455 -1.6284 -1.5070
 1018MOL0     H37396   9.085  11.095   6.356 -0.7446 -1.2330  3.3671
 1018MOL0     H37397   8.974  11.150   6.241 -1.7435 -3.4385  2.0621
 1018MOL0     H37398   9.144  11.332   6.249  2.1628  0.4573  1.3007
 1018MOL0     H37399   8.992  11.392   6.309 -1.6742 -0.9793 -0.5511
 1018MOL0     H37400   9.233  11.299   6.469  0.8446  1.3098  0.4460
 1018MOL0     H37401   9.083  11.364   6.542 -1.5602 -0.0540 -0.6826
 1018MOL0     H37402   9.124  11.581   6.446 -0.2469  0.3856  1.6013
 1018MOL0     H37403   9.250  11.526   6.564  0.1028 -0.0040  0.1976
 1018MOL0     H37404   9.316  11.494   6.269  2.4632 -2.7796 -0.4175
 1018MOL0     H37405   9.409  11.470   6.416  0.3199  0.1933 -1.1491
 1018MOL0     H37406   9.462  11.680   6.316 -1.4456  1.8831 -2.3207
 1018MOL0     H37407   9.299  11.745   6.319  1.2137  1.6792  0.2122
 1018MOL0     H37408   9.433  11.687   6.585 -0.1024  1.4033  0.1722
 1018MOL0     H37409   9.280  11.759   6.563  0.5050  0.1319 -0.2020
 1018MOL0     H37410   9.374  11.936   6.419  1.2229 -1.6092 -3.3221
 1018MOL0     H37411   9.536  11.869   6.435 -1.1345  1.6218 -2.4744
 1018MOL0     H37412   8.725  11.155   6.616 -1.9583 -0.8915 -0.4610
 1018MOL0     H37413   8.672  10.973   6.744  0.0585 -2.3446  2.1518
 1018MOL0     H37414   8.563  10.415   6.581  0.6895  1.2694 -0.4253
 1018MOL0     H37415   8.425  10.247   6.714 -2.7206  1.9089 -1.5409
 1018MOL0     H37416   8.341  10.714   7.704  0.6562 -0.5111 -2.3372
 1018MOL0     H37417   8.178  10.534   7.794 -0.0632 -0.2199 -1.1046
 1018MOL0     H37418   8.142  10.191   8.057  0.5534 -2.0753  0.9310
 1018MOL0     H37419   7.993  10.054   8.181  2.4903 -0.8170 -0.4292
 1018MOL0     H37420   7.936   9.841   8.183 -0.3518 -1.4481 -0.5234
 1018MOL0     H37421   7.785   9.890   8.262 -1.4991 -1.1515 -0.8226
 1018MOL0     H37422   7.830   9.627   8.225 -1.8157 -1.1128 -0.1393
 1018MOL0     H37423   7.794   9.651   8.063  1.3245 -2.1976  1.2875
 1018MOL0     H37424   7.572   9.750   8.115 -1.5761  0.9319  1.7271
 1018MOL0     H37425   7.598   9.753   8.283 -0.5284  0.7417 -0.7204
 1018MOL0     H37426   7.628   9.496   8.276  1.2578  2.1995  0.5952
 1018MOL0     H37427   7.579   9.502   8.101 -0.0937  0.1812 -0.5855
 1018MOL0     H37428   7.221   9.528   8.345  0.0619  1.0036  2.9402
 1018MOL0     H37429   7.780   9.962   7.815 -0.1211 -0.0588 -0.0137
 1018MOL0     H37430   7.922  10.118   7.694  5.5815 -0.7361 -0.5362
 1019MOL0     O37431   8.270   3.152   4.909  0.6991  0.5878 -0.1507
 1019MOL0     C37432   8.273   3.272   4.916  0.5897  0.4863 -0.3398
 1019MOL0     O37433   8.332   3.353   4.830 -0.2191  0.4268  0.1854
 1019MOL0     C37434   8.419   3.293   4.739 -1.0065 -0.6191 -0.4672
 1019MOL0     C37435   8.377   3.220   4.630 -0.4267  0.2534  0.9464
 1019MOL0     C37436   8.473   3.147   4.548 -0.4996 -1.1285  0.7570
 1019MOL0     C37437   8.612   3.155   4.573  0.1487 -0.2034  0.4662
 1019MOL0     O37438   8.701   3.091   4.490 -0.1536 -0.2300  0.6552
 1019MOL0     C37439   8.660   3.027   4.368  0.6678 -0.0294  0.2723
 1019MOL0     C37440   8.623   2.886   4.382  0.2961 -0.7016 -0.2862
 1019MOL0     C37441   8.584   2.833   4.243  0.5656 -0.3341  0.1612
 1019MOL0     C37442   8.563   2.687   4.244 -0.6920  0.3571  0.3076
 1019MOL0     C37443   8.685   2.607   4.225 -0.3141  0.3000  0.0839
 1019MOL0     C37444   8.759   2.653   4.093 -0.6802  0.5022  0.7647
 1019MOL0     C37445   8.861   2.550   4.068  0.0118 -0.1812  0.5172
 1019MOL0     C37446   8.891   2.555   3.919 -0.0314 -0.5087 -0.0660
 1019MOL0     N37447   9.032   2.528   3.909 -0.0534  0.4567  0.1806
 1019MOL0     C37448   9.093   2.414   3.945 -1.0569 -0.4309  0.2582
 1019MOL0     C37449   9.218   2.422   3.889 -0.0076 -0.3368 -0.2867
 1019MOL0     C37450   9.311   2.311   3.879 -0.0624 -0.4352  0.4724
 1019MOL0     C37451   9.383   2.309   4.010  0.2181 -0.1803  0.5592
 1019MOL0     C37452   9.483   2.183   4.017  0.3447  0.5146 -0.1877
 1019MOL0     C37453   9.584   2.169   3.909 -0.8798  0.1686 -0.4647
 1019MOL0     O37454   9.658   2.068   3.971  0.5423  1.0767 -0.6334
 1019MOL0     C37455   9.770   2.024   3.924 -0.2254 -0.9870  0.2782
 1019MOL0     C37456   9.843   1.916   3.988  0.1557  0.8141 -0.4895
 1019MOL0     C37457   9.974   1.875   3.934  0.4606  0.5101 -0.4064
 1019MOL0     C37458  10.032   1.747   3.983  0.1395  0.4320 -0.3008
 1019MOL0     C37459  10.024   1.929   3.817 -0.2028 -0.0313 -0.9111
 1019MOL0     C37460  10.156   1.888   3.758 -1.0481  0.1463 -0.5230
 1019MOL0     O37461  10.268   1.865   3.841  0.1838 -0.1851  0.3368
 1019MOL0     C37462  10.397   1.846   3.802 -0.1701  0.0781  0.5292
 1019MOL0     C37463  10.453   1.863   3.678 -0.1815 -0.3024 -0.1924
 1019MOL0     C37464  10.587   1.833   3.655 -0.3291  0.6918 -0.0090
 1019MOL0     C37465  10.662   1.779   3.757 -0.2744  0.3210 -0.2309
 1019MOL0     O37466  10.786   1.731   3.738  0.5112  0.2414  0.3003
 1019MOL0     C37467  10.879   1.712   3.854 -0.7207  0.3768  0.8370
 1019MOL0     C37468  11.000   1.642   3.788 -0.5192  0.1697 -0.0779
 1019MOL0     C37469  10.986   1.492   3.773  0.2169  0.1192  0.0693
 1019MOL0     C37470  11.097   1.448   3.684  0.3280 -0.5476  0.1180
 1019MOL0     C37471  11.104   1.300   3.672  0.4862  0.1266  0.3210
 1019MOL0     C37472  11.184   1.246   3.554 -0.6776  0.7852  0.4900
 1019MOL0     C37473  11.193   1.089   3.566  0.4551  1.2028 -0.1591
 1019MOL0     C37474  11.068   1.011   3.569 -0.2030  0.8229  0.2372
 1019MOL0    Cl37475  11.098   0.842   3.517 -0.0418 -0.2115  0.2366
 1019MOL0     C37476  10.608   1.770   3.878  0.1213  0.1824  0.3016
 1019MOL0     C37477  10.476   1.791   3.904  0.1948 -0.3195 -0.3967
 1019MOL0     O37478  10.162   1.872   3.636  1.1370  0.2518  1.2338
 1019MOL0     C37479   9.960   2.032   3.766  0.0359 -0.4893 -0.7715
 1019MOL0     C37480   9.835   2.078   3.809 -0.2134 -0.4966 -0.6258
 1019MOL0     N37481   9.239   2.548   3.845  0.2984 -0.4062 -0.5947
 1019MOL0     N37482   9.121   2.614   3.860  0.6057 -0.6142 -0.2230
 1019MOL0     C37483   8.653   3.229   4.685 -0.1329 -0.1179 -1.3032
 1019MOL0     C37484   8.557   3.288   4.777  0.3917 -1.6039  0.6710
 1019MOL0     C37485   8.191   3.333   5.014 -0.6384 -0.2197  0.1692
 1019MOL0     C37486   8.182   3.478   5.022  0.7880  0.8355  0.6057
 1019MOL0     C37487   8.110   3.532   5.125  0.5037 -0.6921  0.0436
 1019MOL0     C37488   8.046   3.455   5.225 -0.2917 -0.6113 -0.5896
 1019MOL0     O37489   8.000   3.515   5.340 -0.7454 -0.1498 -0.4282
 1019MOL0     C37490   7.875   3.579   5.319  0.1685 -0.3910  0.0278
 1019MOL0     C37491   7.827   3.639   5.451  0.2487 -1.0608 -0.2127
 1019MOL0     C37492   7.786   3.535   5.559  0.7201 -0.3938  0.6495
 1019MOL0     C37493   7.760   3.599   5.690 -0.4104  0.1823  0.2721
 1019MOL0     C37494   7.726   3.498   5.789  0.8823  0.5638  0.1607
 1019MOL0     C37495   7.724   3.400   5.860 -0.0949 -1.1390 -0.0391
 1019MOL0     C37496   8.055   3.319   5.218  0.4705 -0.2388  0.5294
 1019MOL0     C37497   8.123   3.255   5.114  0.3243 -0.6174 -0.0180
 1019MOL0     H37498   8.273   3.204   4.603  0.8809 -2.8724 -3.4573
 1019MOL0     H37499   8.442   3.094   4.458 -2.3024  4.3046 -2.3160
 1019MOL0     H37500   8.585   3.089   4.318  1.1481  0.5521  0.2558
 1019MOL0     H37501   8.745   3.032   4.299 -1.0890 -1.5939 -2.1606
 1019MOL0     H37502   8.707   2.832   4.427  0.0120  0.6455  2.0632
 1019MOL0     H37503   8.547   2.876   4.460  0.5747  1.4854  0.3375
 1019MOL0     H37504   8.496   2.881   4.199  1.9974  3.7052  1.2709
 1019MOL0     H37505   8.666   2.861   4.176  2.2535  1.0961  2.6833
 1019MOL0     H37506   8.506   2.653   4.331 -2.2529  0.3203 -0.7017
 1019MOL0     H37507   8.495   2.658   4.164 -0.3201  1.5887 -0.4757
 1019MOL0     H37508   8.755   2.625   4.307  1.3119  0.5805 -1.3163
 1019MOL0     H37509   8.665   2.501   4.210 -1.4944  0.2981  1.4411
 1019MOL0     H37510   8.682   2.669   4.016 -0.1928  1.1292  0.3999
 1019MOL0     H37511   8.818   2.744   4.104 -0.2504  0.0981  1.8781
 1019MOL0     H37512   8.951   2.554   4.130 -1.0200 -2.5024  2.3501
 1019MOL0     H37513   8.834   2.451   4.108 -1.8820  0.7851  1.7949
 1019MOL0     H37514   8.886   2.655   3.873  4.5394 -1.5975 -3.7756
 1019MOL0     H37515   8.821   2.492   3.863  1.1124  0.5329 -2.8445
 1019MOL0     H37516   9.040   2.333   3.994 -4.1884 -0.3451 -2.5840
 1019MOL0     H37517   9.255   2.224   3.844 -1.5628  0.8249 -0.4109
 1019MOL0     H37518   9.381   2.324   3.796 -0.6992 -5.2658 -1.1634
 1019MOL0     H37519   9.309   2.309   4.090 -0.8906 -2.1806 -0.3868
 1019MOL0     H37520   9.441   2.402   4.016  2.8779 -1.6529 -0.4331
 1019MOL0     H37521   9.418   2.095   4.017  0.4346  0.4248 -1.2807
 1019MOL0     H37522   9.539   2.206   4.108  2.8942  0.6136 -1.6508
 1019MOL0     H37523   9.646   2.255   3.880 -1.0034  0.6245  0.5515
 1019MOL0     H37524   9.527   2.128   3.825 -3.7889  2.6793  0.0818
 1019MOL0     H37525   9.806   1.874   4.081  3.1244  1.8171  1.3061
 1019MOL0     H37526  10.036   1.663   3.913 -1.2564 -2.0307  2.4034
 1019MOL0     H37527  10.139   1.755   4.005  0.1287  1.8339 -0.6803
 1019MOL0     H37528   9.985   1.722   4.078  0.9241 -1.7314 -0.4299
 1019MOL0     H37529  10.400   1.896   3.589  0.2359  0.0254 -0.3209
 1019MOL0     H37530  10.636   1.837   3.558  1.2881  0.7333  0.7661
 1019MOL0     H37531  10.915   1.810   3.889  1.4826 -0.6115  1.5598
 1019MOL0     H37532  10.834   1.652   3.934  0.8210 -0.6826  0.9515
 1019MOL0     H37533  11.028   1.687   3.692  0.5614  0.6475  0.4401
 1019MOL0     H37534  11.090   1.662   3.847  0.6428  1.6754 -2.2188
 1019MOL0     H37535  10.895   1.454   3.726  0.8966 -1.2555 -0.1676
 1019MOL0     H37536  10.989   1.440   3.869  0.4899 -1.7060 -0.8990
 1019MOL0     H37537  11.086   1.494   3.586 -1.9068 -0.7088  0.2357
 1019MOL0     H37538  11.195   1.465   3.729 -0.1369  0.3838  0.8463
 1019MOL0     H37539  10.999   1.270   3.676 -0.6468  3.5490 -0.0016
 1019MOL0     H37540  11.142   1.256   3.764 -2.7494 -0.4281  1.5213
 1019MOL0     H37541  11.146   1.271   3.455  1.2157  0.2664 -0.4296
 1019MOL0     H37542  11.289   1.279   3.552 -0.3041 -0.4041 -1.3779
 1019MOL0     H37543  11.241   1.062   3.661  1.1328  1.2043 -0.4947
 1019MOL0     H37544  11.262   1.055   3.488  0.9903 -0.4119  0.9468
 1019MOL0     H37545  11.004   1.054   3.492  1.1999  3.6173  0.5063
 1019MOL0     H37546  11.017   1.000   3.665 -1.2186 -1.2306 -0.4804
 1019MOL0     H37547  10.654   1.734   3.969  0.3628  0.0517  0.1307
 1019MOL0     H37548  10.429   1.766   3.998  2.2738  0.9641  1.0872
 1019MOL0     H37549   9.994   2.088   3.680  3.6785  3.0481  2.4997
 1019MOL0     H37550   9.788   2.159   3.755 -0.1050  1.0502  1.4626
 1019MOL0     H37551   8.754   3.208   4.718 -1.1361  0.8835  2.9607
 1019MOL0     H37552   8.583   3.308   4.880 -3.5768 -0.0265  1.5180
 1019MOL0     H37553   8.220   3.550   4.950  2.1109 -0.7277 -0.3370
 1019MOL0     H37554   8.108   3.639   5.139  1.8861 -0.3241 -2.1460
 1019MOL0     H37555   7.877   3.666   5.253 -1.7482  0.0170  0.4541
 1019MOL0     H37556   7.791   3.512   5.299  0.9505 -1.8531  1.4384
 1019MOL0     H37557   7.743   3.700   5.416 -1.1134 -3.1723 -0.8388
 1019MOL0     H37558   7.914   3.697   5.481  0.7287 -2.1249  0.5255
 1019MOL0     H37559   7.852   3.449   5.560 -2.6469 -3.3031 -1.2156
 1019MOL0     H37560   7.692   3.490   5.524 -0.9726  3.4398 -0.3688
 1019MOL0     H37561   7.692   3.684   5.679  0.1648  0.3006 -3.6784
 1019MOL0     H37562   7.857   3.639   5.720 -0.7307  1.3285 -0.1532
 1019MOL0     H37563   7.736   3.314   5.924  1.8946 -0.0099  1.2061
 1019MOL0     H37564   8.019   3.266   5.306 -2.1367  1.6586  0.7122
 1019MOL0     H37565   8.135   3.147   5.118  1.4862 -0.8650 -4.5503
 1020MOL0     O37566   7.414  10.586   4.828  0.1034  0.6688 -1.1169
 1020MOL0     C37567   7.304  10.597   4.775  0.1687  0.3275 -0.3271
 1020MOL0     O37568   7.186  10.593   4.840 -0.3408 -0.3967 -0.4167
 1020MOL0     C37569   7.173  10.564   4.973 -0.5612  0.1232 -0.6825
 1020MOL0     C37570   7.081  10.644   5.045  0.1337 -0.0215 -0.4619
 1020MOL0     C37571   7.070  10.626   5.193 -0.4439  0.1404 -0.4846
 1020MOL0     C37572   7.132  10.513   5.248  0.9299 -0.4362 -0.0506
 1020MOL0     O37573   7.118  10.481   5.383 -0.7145 -1.0364  0.0224
 1020MOL0     C37574   6.987  10.500   5.429 -0.6098  0.6460 -0.3482
 1020MOL0     C37575   6.966  10.425   5.567 -0.6615 -0.4971 -0.6375
 1020MOL0     C37576   7.002  10.283   5.547  0.7835 -0.6532 -1.0539
 1020MOL0     C37577   6.958  10.213   5.681  0.0475  0.1168  0.0595
 1020MOL0     C37578   6.981  10.062   5.670  0.5137 -0.3744 -0.5416
 1020MOL0     C37579   6.924   9.992   5.790  0.1550  0.0411 -0.4122
 1020MOL0     C37580   6.969  10.055   5.931  0.0424 -0.1444 -0.2333
 1020MOL0     C37581   6.920   9.963   6.045  1.0909 -0.3405  1.1322
 1020MOL0     N37582   6.943  10.036   6.171  0.1604 -0.0925 -0.9175
 1020MOL0     C37583   6.845  10.091   6.247  0.1715 -0.5375 -1.1280
 1020MOL0     C37584   6.905  10.127   6.362 -0.4168  0.2111  0.5794
 1020MOL0     C37585   6.835  10.190   6.474 -0.2164 -0.1873 -0.1247
 1020MOL0     C37586   6.865  10.125   6.607 -0.2870  0.1085 -0.1082
 1020MOL0     C37587   6.998  10.176   6.661  0.3284  0.0145  0.1503
 1020MOL0     C37588   7.052  10.106   6.786 -0.0370  0.3445  0.9061
 1020MOL0     O37589   6.991  10.152   6.907  0.3546  0.4575  0.4896
 1020MOL0     C37590   7.016  10.072   7.015 -0.3246  0.0651  0.4417
 1020MOL0     C37591   7.135   9.993   7.020  0.6112  0.5040  0.0811
 1020MOL0     C37592   7.153   9.917   7.139  1.0401 -0.1168 -0.3606
 1020MOL0     C37593   7.278   9.827   7.139 -0.6170 -0.3347  0.0021
 1020MOL0     C37594   7.055   9.914   7.243  0.9501 -0.5191  0.9282
 1020MOL0     C37595   7.065   9.852   7.376  0.4097  0.7512 -0.0386
 1020MOL0     O37596   6.962   9.881   7.461  0.9467 -0.6125 -0.8025
 1020MOL0     C37597   6.964   9.843   7.592 -0.9554 -0.3417 -0.0091
 1020MOL0     C37598   6.935   9.712   7.638 -0.1135  0.2046  0.1086
 1020MOL0     C37599   6.920   9.690   7.779 -0.9159 -0.1392 -0.3970
 1020MOL0     C37600   6.949   9.796   7.872  0.3206  0.8864  1.0206
 1020MOL0     O37601   6.942   9.769   8.004 -0.0981 -0.1173 -0.2538
 1020MOL0     C37602   6.958   9.872   8.100 -0.0310  0.0161 -0.5558
 1020MOL0     C37603   6.939   9.823   8.239  0.0495  0.6273  0.3593
 1020MOL0     C37604   6.793   9.782   8.272  1.1326 -0.2687 -0.0446
 1020MOL0     C37605   6.768   9.709   8.403 -0.0862 -0.3697 -0.2679
 1020MOL0     C37606   6.630   9.735   8.469 -0.9221  0.2003  0.2675
 1020MOL0     C37607   6.627   9.874   8.535 -0.1087  0.2816 -0.1212
 1020MOL0     C37608   6.509   9.881   8.631  1.0271 -0.9304  0.1072
 1020MOL0     C37609   6.519  10.024   8.685 -0.3169  0.0718  0.6584
 1020MOL0    Cl37610   6.450  10.146   8.564 -0.0839  0.4436 -0.0334
 1020MOL0     C37611   6.988   9.918   7.819 -0.5835 -0.9649 -0.2618
 1020MOL0     C37612   6.999   9.943   7.684  0.2652  0.4707  0.8987
 1020MOL0     O37613   7.149   9.766   7.398 -0.1702  0.0359 -0.7768
 1020MOL0     C37614   6.941  10.000   7.229  0.7125 -0.2024  0.4847
 1020MOL0     C37615   6.929  10.079   7.119  0.3197  0.6538 -0.6153
 1020MOL0     N37616   7.035  10.069   6.357  0.9060 -0.0991 -0.3062
 1020MOL0     N37617   7.059  10.025   6.239 -0.3539 -0.9080 -0.1816
 1020MOL0     C37618   7.213  10.429   5.172 -0.1897 -0.0977  0.0666
 1020MOL0     C37619   7.240  10.461   5.039 -0.9744  0.2992 -0.1234
 1020MOL0     C37620   7.297  10.634   4.627 -0.4841 -0.0672  0.1800
 1020MOL0     C37621   7.406  10.611   4.550  0.0280  0.2240  0.1298
 1020MOL0     C37622   7.406  10.651   4.410  0.0991 -0.1808  0.0412
 1020MOL0     C37623   7.300  10.725   4.356  1.6142  0.3352  0.4232
 1020MOL0     O37624   7.300  10.786   4.231  0.0569  0.2286 -0.2286
 1020MOL0     C37625   7.384  10.897   4.213 -0.0991 -0.5911 -0.3360
 1020MOL0     C37626   7.392  10.919   4.063  0.2008 -0.7518  1.0500
 1020MOL0     C37627   7.493  10.824   3.988 -0.1893  0.5851 -0.1331
 1020MOL0     C37628   7.625  10.817   4.052 -0.5676 -0.1002 -0.7183
 1020MOL0     C37629   7.689  10.951   4.038  0.0374 -0.1762  0.0946
 1020MOL0     C37630   7.731  11.055   3.990 -0.3558 -0.9582 -0.4590
 1020MOL0     C37631   7.193  10.752   4.442 -0.0364 -0.1171 -0.0928
 1020MOL0     C37632   7.183  10.714   4.577  0.2006 -0.5203  0.0751
 1020MOL0     H37633   7.034  10.729   4.997  0.0066 -0.2397 -0.7294
 1020MOL0     H37634   7.023  10.697   5.260  0.1318 -0.6210  0.7664
 1020MOL0     H37635   6.970  10.607   5.443  1.4996  0.8417  1.1565
 1020MOL0     H37636   6.923  10.461   5.349 -0.9503 -0.9471  0.6614
 1020MOL0     H37637   7.008  10.464   5.660  0.5388 -4.7133  0.8389
 1020MOL0     H37638   6.859  10.428   5.592 -0.2607 -2.0535  1.5449
 1020MOL0     H37639   6.956  10.245   5.456 -1.0238  1.5391 -1.1330
 1020MOL0     H37640   7.110  10.288   5.531  0.5404 -1.5714 -3.2900
 1020MOL0     H37641   7.010  10.253   5.769  0.8183  0.9486 -0.7487
 1020MOL0     H37642   6.853  10.229   5.705  0.0236  1.8430 -1.0265
 1020MOL0     H37643   6.937  10.033   5.575  1.7838  1.6047 -1.8037
 1020MOL0     H37644   7.086  10.031   5.678  0.8368  0.7876 -0.0797
 1020MOL0     H37645   6.815   9.990   5.778 -0.2400  1.2675  2.2373
 1020MOL0     H37646   6.954   9.886   5.789 -2.6262 -0.9423  2.5302
 1020MOL0     H37647   7.074  10.085   5.937 -0.7013  3.0240 -1.1056
 1020MOL0     H37648   6.918  10.151   5.940  1.7395  0.6851  1.1097
 1020MOL0     H37649   6.986   9.876   6.042  1.7261  0.1551 -1.1362
 1020MOL0     H37650   6.817   9.937   6.017  1.6517 -0.6992 -0.7319
 1020MOL0     H37651   6.748  10.137   6.227  1.1944  3.1681  1.2345
 1020MOL0     H37652   6.846  10.299   6.479 -0.9023 -0.1825  2.8972
 1020MOL0     H37653   6.732  10.152   6.470  0.4593 -2.1471  0.3932
 1020MOL0     H37654   6.851  10.018   6.628  2.3386  0.2939  3.6494
 1020MOL0     H37655   6.790  10.157   6.681  0.2180 -0.2604  0.5762
 1020MOL0     H37656   6.996  10.282   6.687 -0.0258  0.8500 -2.8452
 1020MOL0     H37657   7.074  10.169   6.582  0.3719  1.3281  0.0580
 1020MOL0     H37658   7.160  10.115   6.797 -0.0537  0.4427  0.9958
 1020MOL0     H37659   7.025  10.001   6.775 -4.0748  1.0436  2.4188
 1020MOL0     H37660   7.223   9.999   6.956  1.4161  0.4159  1.1498
 1020MOL0     H37661   7.314   9.834   7.036 -1.4112 -1.7099 -0.3941
 1020MOL0     H37662   7.356   9.856   7.209 -0.4552 -0.3653 -0.1657
 1020MOL0     H37663   7.257   9.721   7.157  3.2415 -1.3297 -0.5411
 1020MOL0     H37664   6.938   9.629   7.569 -1.1003 -1.6666  2.1828
 1020MOL0     H37665   6.882   9.604   7.833 -1.5978  1.1902  1.3009
 1020MOL0     H37666   7.065   9.898   8.095  0.3736 -1.1616  1.0829
 1020MOL0     H37667   6.905   9.965   8.082  2.7332  2.6969  3.4611
 1020MOL0     H37668   6.993   9.729   8.255  0.2419  0.8664  1.1339
 1020MOL0     H37669   6.982   9.898   8.306  2.4975  2.1379 -2.6644
 1020MOL0     H37670   6.763   9.711   8.195  2.5450 -2.2460  1.1255
 1020MOL0     H37671   6.731   9.869   8.253 -1.8789 -2.0277  1.0874
 1020MOL0     H37672   6.782   9.603   8.381 -0.1316 -0.0712 -1.8047
 1020MOL0     H37673   6.850   9.742   8.468  2.4122  2.1510 -4.2955
 1020MOL0     H37674   6.593   9.659   8.538  0.8785  0.7208  1.9140
 1020MOL0     H37675   6.559   9.748   8.387 -2.4121  2.9926  1.8640
 1020MOL0     H37676   6.710   9.887   8.605 -1.2568 -0.8884  1.5603
 1020MOL0     H37677   6.627   9.952   8.458 -2.0851  2.2052  1.6685
 1020MOL0     H37678   6.509   9.801   8.705  0.2160  1.1261  2.4571
 1020MOL0     H37679   6.414   9.870   8.578 -0.4196  1.9209  1.8734
 1020MOL0     H37680   6.618  10.048   8.725 -0.3380  1.3293  0.0220
 1020MOL0     H37681   6.458  10.032   8.775  0.8123 -1.9145  1.6701
 1020MOL0     H37682   7.008   9.995   7.891 -0.8809 -0.3745 -0.8024
 1020MOL0     H37683   7.031  10.044   7.660 -1.0447  0.0812 -3.1463
 1020MOL0     H37684   6.870  10.027   7.306  0.6776 -0.0212  0.3918
 1020MOL0     H37685   6.850  10.154   7.119  1.1871  1.6011 -1.8348
 1020MOL0     H37686   7.264  10.343   5.213 -0.7382 -0.7968 -0.6813
 1020MOL0     H37687   7.295  10.391   4.978 -2.6283 -0.5584 -0.6992
 1020MOL0     H37688   7.498  10.558   4.571  1.0375  0.0250 -3.8404
 1020MOL0     H37689   7.492  10.629   4.348 -0.1222  0.2532 -0.4331
 1020MOL0     H37690   7.322  10.978   4.254  1.2613  0.4078 -0.1897
 1020MOL0     H37691   7.479  10.893   4.267 -0.0655  0.0969 -0.3319
 1020MOL0     H37692   7.403  11.023   4.032 -1.0406 -0.5180  1.3372
 1020MOL0     H37693   7.295  10.890   4.021 -0.4973 -1.3685  2.9429
 1020MOL0     H37694   7.495  10.845   3.881  0.0840 -0.1082 -0.2695
 1020MOL0     H37695   7.445  10.726   3.987 -0.6418  0.7981  0.4353
 1020MOL0     H37696   7.682  10.737   4.005 -0.9499 -0.1001 -1.1989
 1020MOL0     H37697   7.628  10.794   4.159  0.1954 -0.2530 -0.7691
 1020MOL0     H37698   7.755  11.139   3.929 -0.7048 -0.8240 -0.4152
 1020MOL0     H37699   7.113  10.811   4.398  0.0957  0.7700  0.8099
 1020MOL0     H37700   7.090  10.743   4.626  1.4725  2.7124  0.7977
 1021MOL0     O37701  11.420   0.757   7.015  0.2300 -0.4117 -0.0670
 1021MOL0     C37702  11.364   0.800   7.119  0.2270 -0.0066  0.3210
 1021MOL0     O37703  11.263   0.891   7.126 -0.5488  0.4977  0.0062
 1021MOL0     C37704  11.187   0.907   7.010 -0.3421  1.4432  0.2478
 1021MOL0     C37705  11.220   0.987   6.903  0.3983  0.7096 -0.0393
 1021MOL0     C37706  11.135   0.997   6.801 -0.0270  0.3378  0.2932
 1021MOL0     C37707  11.010   0.934   6.805  0.6675 -0.0943 -0.0263
 1021MOL0     O37708  10.926   0.913   6.693 -0.0138  0.0375 -0.1223
 1021MOL0     C37709  10.988   0.940   6.563  0.2258 -0.0182 -0.6625
 1021MOL0     C37710  10.896   0.888   6.456  1.2414 -0.2725  0.3820
 1021MOL0     C37711  10.876   0.734   6.456 -0.3464  0.1313 -0.4551
 1021MOL0     C37712  11.012   0.647   6.445  1.1650 -0.0570 -0.7821
 1021MOL0     C37713  10.980   0.503   6.402  0.1635  0.6069  0.1246
 1021MOL0     C37714  10.913   0.415   6.513  0.2951 -0.2728 -0.3341
 1021MOL0     C37715  10.940   0.268   6.485  0.2686 -0.2585  0.3286
 1021MOL0     C37716  10.841   0.207   6.381  0.7540 -0.3029  0.4255
 1021MOL0     N37717  10.709   0.176   6.436 -0.4649 -0.5534  0.1195
 1021MOL0     C37718  10.690   0.087   6.533  0.6273  0.1395  0.2695
 1021MOL0     C37719  10.564   0.112   6.570  1.1519 -0.1123 -0.2289
 1021MOL0     C37720  10.482   0.028   6.666 -0.7837 -1.0991 -0.3210
 1021MOL0     C37721  10.455   0.083   6.808 -0.9272  0.6258  0.1739
 1021MOL0     C37722  10.353   0.006   6.900  0.2895  0.0293 -0.4003
 1021MOL0     C37723  10.411  -0.125   6.965 -0.6216  0.5679 -0.3539
 1021MOL0     O37724  10.315  -0.193   7.052  0.0485 -0.5781  0.2228
 1021MOL0     C37725  10.373  -0.260   7.157 -0.1634 -0.2796 -0.4514
 1021MOL0     C37726  10.446  -0.374   7.131 -1.2866 -0.3833 -0.1978
 1021MOL0     C37727  10.497  -0.452   7.241  0.2310  0.4910  0.1160
 1021MOL0     C37728  10.598  -0.556   7.197 -0.0582 -0.2014  0.3605
 1021MOL0     C37729  10.453  -0.430   7.374  0.0079  0.1889  0.2794
 1021MOL0     C37730  10.500  -0.517   7.487  0.7118  0.7119  0.1611
 1021MOL0     O37731  10.489  -0.464   7.604 -0.5687  0.3226 -0.9103
 1021MOL0     C37732  10.541  -0.510   7.716 -0.1486 -0.5767 -0.4457
 1021MOL0     C37733  10.508  -0.632   7.773 -0.4205 -0.9246 -0.8766
 1021MOL0     C37734  10.573  -0.670   7.896  0.0977  1.5488  0.2546
 1021MOL0     C37735  10.679  -0.593   7.949 -0.1105 -0.4029  0.3052
 1021MOL0     O37736  10.742  -0.616   8.067 -0.2543  0.6509  0.3693
 1021MOL0     C37737  10.873  -0.685   8.052 -0.3576 -0.4107 -0.5820
 1021MOL0     C37738  11.001  -0.594   8.056 -0.0081 -0.1212 -0.6513
 1021MOL0     C37739  11.030  -0.558   8.207  0.0908  0.0245 -0.2429
 1021MOL0     C37740  11.140  -0.453   8.221 -0.1682  1.3110  0.0940
 1021MOL0     C37741  11.126  -0.386   8.359 -0.3858  0.0542  0.4566
 1021MOL0     C37742  11.141  -0.470   8.476  0.4696  0.6324 -0.8783
 1021MOL0     C37743  11.161  -0.385   8.607 -0.4609  0.5969 -0.1008
 1021MOL0     C37744  11.111  -0.460   8.726 -0.3944  1.0117  0.1666
 1021MOL0    Cl37745  11.209  -0.593   8.789 -0.0627 -0.1923  0.2550
 1021MOL0     C37746  10.713  -0.475   7.871 -0.0993  0.9814 -0.3614
 1021MOL0     C37747  10.634  -0.430   7.772 -0.8572 -0.4446  0.0019
 1021MOL0     O37748  10.545  -0.630   7.469 -0.0638  0.8403  0.0699
 1021MOL0     C37749  10.346  -0.339   7.397  0.0920  0.1828  0.5908
 1021MOL0     C37750  10.311  -0.250   7.287 -0.6479  0.0530  0.2924
 1021MOL0     N37751  10.513   0.202   6.477 -0.0050 -0.6607 -0.5524
 1021MOL0     N37752  10.600   0.238   6.390  0.2397 -0.1422 -0.1183
 1021MOL0     C37753  10.974   0.855   6.914  0.3481  0.4634 -0.0322
 1021MOL0     C37754  11.070   0.835   7.019  0.2120 -0.4603 -0.0909
 1021MOL0     C37755  11.406   0.749   7.258 -0.0830  1.4026  0.5208
 1021MOL0     C37756  11.517   0.669   7.260  0.4819 -0.4839 -0.7913
 1021MOL0     C37757  11.570   0.624   7.382 -0.1252 -0.7434 -0.7113
 1021MOL0     C37758  11.509   0.657   7.506 -0.2276  1.0779  0.5256
 1021MOL0     O37759  11.571   0.626   7.622 -0.7395  0.1227  0.0234
 1021MOL0     C37760  11.495   0.603   7.738  0.6213  0.3105 -0.0163
 1021MOL0     C37761  11.561   0.498   7.833  0.6156 -0.8599 -0.2435
 1021MOL0     C37762  11.554   0.355   7.764 -0.2098 -0.0095 -0.4402
 1021MOL0     C37763  11.665   0.320   7.664 -0.1892  0.0838  0.0430
 1021MOL0     C37764  11.793   0.322   7.728 -0.5079 -0.0888  0.1105
 1021MOL0     C37765  11.899   0.324   7.792 -0.3965 -0.3882  0.0195
 1021MOL0     C37766  11.390   0.732   7.504 -0.6155  0.0098 -0.2910
 1021MOL0     C37767  11.340   0.781   7.380 -0.0981 -0.8933 -0.3234
 1021MOL0     H37768  11.322   1.024   6.908  1.1996 -0.4976 -3.9360
 1021MOL0     H37769  11.166   1.049   6.711 -0.8199  2.0310  0.9332
 1021MOL0     H37770  11.013   1.046   6.559  1.2445 -0.1534  1.0900
 1021MOL0     H37771  11.085   0.888   6.562  2.2038  3.3442  0.3222
 1021MOL0     H37772  10.802   0.933   6.488 -0.4576 -4.0251  1.2234
 1021MOL0     H37773  10.915   0.926   6.355 -0.1183  0.2924  0.3123
 1021MOL0     H37774  10.828   0.707   6.551  1.7437  0.4177  0.7686
 1021MOL0     H37775  10.804   0.709   6.378  1.5538 -1.9397 -1.6766
 1021MOL0     H37776  11.065   0.694   6.362  0.3811 -1.3371 -2.0512
 1021MOL0     H37777  11.080   0.654   6.530  2.1260 -1.2259 -1.4210
 1021MOL0     H37778  10.923   0.496   6.309  0.1294 -1.2682  0.2542
 1021MOL0     H37779  11.072   0.458   6.362 -2.2162 -1.5109 -3.5064
 1021MOL0     H37780  10.963   0.436   6.608  0.2838  2.7725 -0.8825
 1021MOL0     H37781  10.808   0.443   6.523  0.0019 -1.0002 -1.2122
 1021MOL0     H37782  11.048   0.258   6.470  0.8987 -0.1545  3.8659
 1021MOL0     H37783  10.927   0.217   6.581  0.8936  0.2439  0.6897
 1021MOL0     H37784  10.886   0.111   6.355 -1.2377 -1.9806  2.6631
 1021MOL0     H37785  10.831   0.262   6.287  0.0282 -3.8446 -1.8010
 1021MOL0     H37786  10.754   0.013   6.583 -1.7253 -1.1676  1.5267
 1021MOL0     H37787  10.387   0.016   6.612 -1.1903  3.3060 -0.9704
 1021MOL0     H37788  10.543  -0.062   6.663 -2.7267 -2.4259 -2.1578
 1021MOL0     H37789  10.435   0.191   6.810  0.2195  0.8599  2.5435
 1021MOL0     H37790  10.549   0.060   6.859 -1.0891 -2.0769 -0.6158
 1021MOL0     H37791  10.260  -0.032   6.856  0.9258  0.1229 -1.8534
 1021MOL0     H37792  10.335   0.080   6.978  2.0357  2.4582 -2.1516
 1021MOL0     H37793  10.502  -0.115   7.024 -1.6943  0.6749  1.3613
 1021MOL0     H37794  10.435  -0.189   6.880 -1.5068 -0.7289  0.3311
 1021MOL0     H37795  10.465  -0.396   7.026 -0.4499  1.4110 -0.4689
 1021MOL0     H37796  10.688  -0.530   7.252 -1.2955  1.8955  1.5211
 1021MOL0     H37797  10.566  -0.660   7.208 -0.3359 -0.3622 -1.6264
 1021MOL0     H37798  10.638  -0.526   7.100  1.1980  0.0978  0.9503
 1021MOL0     H37799  10.434  -0.692   7.721 -0.8223  0.5156 -2.0329
 1021MOL0     H37800  10.531  -0.749   7.957  0.2307 -1.5025 -3.3225
 1021MOL0     H37801  10.877  -0.754   8.137  0.2333  0.6141  0.2455
 1021MOL0     H37802  10.861  -0.747   7.963 -4.6566 -2.1402  0.9436
 1021MOL0     H37803  11.080  -0.660   8.019  0.0750  1.4997 -3.6923
 1021MOL0     H37804  10.994  -0.506   7.991  1.7911  1.4600  1.1727
 1021MOL0     H37805  11.063  -0.639   8.272  0.9186  0.2838 -0.3245
 1021MOL0     H37806  10.936  -0.508   8.231 -1.4276 -3.0514  0.6939
 1021MOL0     H37807  11.237  -0.501   8.206 -0.9254  0.0055 -0.9663
 1021MOL0     H37808  11.140  -0.370   8.150  0.1464  3.4459  2.4497
 1021MOL0     H37809  11.029  -0.337   8.375  0.2807  1.3747  0.6249
 1021MOL0     H37810  11.208  -0.314   8.358  0.8134 -1.2441  1.0331
 1021MOL0     H37811  11.052  -0.531   8.492  0.5843  0.8493  0.7258
 1021MOL0     H37812  11.223  -0.541   8.455  1.5437  0.6112  2.6957
 1021MOL0     H37813  11.119  -0.284   8.604  1.5048  1.4239 -1.0013
 1021MOL0     H37814  11.269  -0.366   8.609  0.5969 -4.1603  1.1672
 1021MOL0     H37815  11.012  -0.496   8.696  1.5535 -2.3492 -3.1928
 1021MOL0     H37816  11.110  -0.388   8.808 -1.6672  1.7900 -0.5041
 1021MOL0     H37817  10.801  -0.416   7.896  0.4620 -0.0430  0.1372
 1021MOL0     H37818  10.650  -0.335   7.723  2.4199 -1.4163 -1.0924
 1021MOL0     H37819  10.296  -0.316   7.491  0.6287  1.2542  0.6337
 1021MOL0     H37820  10.231  -0.177   7.284  0.7090  1.6290  0.7822
 1021MOL0     H37821  10.880   0.801   6.906  0.8277 -0.4711  0.4865
 1021MOL0     H37822  11.030   0.779   7.103 -1.4739  0.7369 -0.0466
 1021MOL0     H37823  11.557   0.646   7.162 -1.1307 -3.4573 -0.8696
 1021MOL0     H37824  11.668   0.576   7.378  0.9812  1.1541  1.3621
 1021MOL0     H37825  11.490   0.701   7.787 -0.9033  1.7745 -2.8945
 1021MOL0     H37826  11.391   0.574   7.723  0.1732  2.1065 -0.6192
 1021MOL0     H37827  11.501   0.499   7.924 -0.9351 -0.2120 -1.2127
 1021MOL0     H37828  11.664   0.524   7.859  0.8603  0.5204 -2.2662
 1021MOL0     H37829  11.461   0.340   7.709  0.6426 -0.3549 -1.8243
 1021MOL0     H37830  11.565   0.278   7.842 -2.3708  1.4309  1.4096
 1021MOL0     H37831  11.674   0.398   7.588  2.3152  1.4553  1.5993
 1021MOL0     H37832  11.648   0.221   7.619 -0.5576  1.2543 -2.5366
 1021MOL0     H37833  11.998   0.324   7.835 -0.0365  0.5449 -0.7700
 1021MOL0     H37834  11.324   0.761   7.585  1.9684 -0.6203  2.1910
 1021MOL0     H37835  11.248   0.837   7.378  0.7647  0.7032  1.3365
 1022MOL0     O37836  10.563   2.365   0.133 -0.6580  0.2774 -0.1301
 1022MOL0     C37837  10.670   2.416   0.185  0.9145  0.6748  0.5496
 1022MOL0     O37838  10.701   2.422   0.321  0.6748 -0.6981 -0.4070
 1022MOL0     C37839  10.620   2.365   0.416 -0.3922 -0.1240 -0.0873
 1022MOL0     C37840  10.690   2.323   0.524 -0.4082 -0.3313  0.0163
 1022MOL0     C37841  10.631   2.273   0.640 -0.1784 -0.0520  0.3877
 1022MOL0     C37842  10.488   2.259   0.650  0.2767 -0.0093  0.2601
 1022MOL0     O37843  10.411   2.222   0.767 -0.8075  0.1016  0.9223
 1022MOL0     C37844  10.493   2.173   0.878  0.0759 -0.1238  0.0571
 1022MOL0     C37845  10.403   2.146   0.994 -0.3994  0.3392  0.2125
 1022MOL0     C37846  10.483   2.094   1.117  1.0574 -0.4462  0.3024
 1022MOL0     C37847  10.469   1.943   1.133  0.0286  0.7598 -1.0773
 1022MOL0     C37848  10.565   1.877   1.228  0.3996  0.7483 -0.7462
 1022MOL0     C37849  10.569   1.947   1.370  0.1938  0.3255  0.7369
 1022MOL0     C37850  10.435   1.932   1.453 -0.6046 -0.1350 -0.3449
 1022MOL0     C37851  10.371   1.790   1.477 -0.2029  0.1739 -0.2372
 1022MOL0     N37852  10.245   1.801   1.556  0.8595 -0.1984 -0.7720
 1022MOL0     C37853  10.231   1.847   1.694  0.2767  0.5534  0.6527
 1022MOL0     C37854  10.109   1.807   1.733  0.3750  0.2551  0.3988
 1022MOL0     C37855  10.038   1.833   1.858  1.6389  0.8021  0.5432
 1022MOL0     C37856   9.972   1.708   1.906  0.7126 -0.2070  0.7334
 1022MOL0     C37857   9.943   1.710   2.053 -0.0243  0.9665 -0.1757
 1022MOL0     C37858   9.828   1.615   2.080 -0.3747  0.1272  0.7239
 1022MOL0     O37859   9.791   1.672   2.211 -0.2306 -0.3125  0.2650
 1022MOL0     C37860   9.687   1.638   2.290 -0.7826 -0.0347 -0.8262
 1022MOL0     C37861   9.618   1.521   2.292 -0.3251  0.7759  0.0378
 1022MOL0     C37862   9.505   1.498   2.364 -0.7816 -0.3249 -0.2795
 1022MOL0     C37863   9.433   1.367   2.354 -0.5519  0.4333 -0.8798
 1022MOL0     C37864   9.473   1.594   2.462 -0.1603 -0.8412 -0.4574
 1022MOL0     C37865   9.350   1.587   2.547 -1.1273  0.6013  0.2362
 1022MOL0     O37866   9.355   1.640   2.672  0.9058  0.2720 -0.6067
 1022MOL0     C37867   9.244   1.655   2.758 -0.1086  1.0291 -0.1465
 1022MOL0     C37868   9.119   1.594   2.740 -0.2647 -0.5963  0.3495
 1022MOL0     C37869   9.031   1.594   2.846  0.8836  0.2813  0.1643
 1022MOL0     C37870   9.061   1.667   2.970 -0.9618  0.3597  0.3737
 1022MOL0     O37871   8.990   1.651   3.087  0.1021  0.7343  0.3104
 1022MOL0     C37872   8.852   1.650   3.074  0.5112 -1.7907 -0.3079
 1022MOL0     C37873   8.793   1.673   3.206  0.3641 -0.2100 -0.1107
 1022MOL0     C37874   8.644   1.671   3.186  1.1249  0.6907 -0.7284
 1022MOL0     C37875   8.567   1.688   3.303 -0.5538  0.0199 -0.6805
 1022MOL0     C37876   8.419   1.690   3.279  0.1321 -0.2406  0.1478
 1022MOL0     C37877   8.336   1.636   3.396 -0.1917 -0.0852  0.4066
 1022MOL0     C37878   8.194   1.685   3.369 -0.2745 -0.3535  0.1030
 1022MOL0     C37879   8.088   1.627   3.471  0.2785 -0.1292 -0.8852
 1022MOL0    Cl37880   7.908   1.652   3.431  0.0349  0.1879 -0.1329
 1022MOL0     C37881   9.184   1.732   2.982 -0.7561 -0.9683 -0.0726
 1022MOL0     C37882   9.279   1.721   2.880  0.6949 -0.2272 -0.0765
 1022MOL0     O37883   9.253   1.538   2.487  0.8462  0.2372  0.2046
 1022MOL0     C37884   9.544   1.712   2.474 -0.7684 -0.1147  0.7573
 1022MOL0     C37885   9.649   1.734   2.386  0.7730  0.6306  0.2894
 1022MOL0     N37886  10.049   1.749   1.617  0.0659 -0.2131  0.2604
 1022MOL0     N37887  10.129   1.741   1.516  0.7022  1.0028 -0.3687
 1022MOL0     C37888  10.414   2.299   0.538  0.1935  0.3132  1.0534
 1022MOL0     C37889  10.479   2.342   0.418  0.5025  0.0958  0.7178
 1022MOL0     C37890  10.759   2.459   0.073 -0.3814 -0.3666 -0.5074
 1022MOL0     C37891  10.859   2.557   0.101 -0.6596  0.5404  0.1521
 1022MOL0     C37892  10.938   2.610  -0.007  1.1104 -0.5706 -0.2677
 1022MOL0     C37893  10.935   2.542  -0.128 -0.1501 -0.3770  0.0974
 1022MOL0     O37894  11.021   2.584  -0.221  0.0097 -0.1355 -1.0188
 1022MOL0     C37895  11.055   2.534  -0.341 -0.2038  0.3890  0.2627
 1022MOL0     C37896  10.997   2.612  -0.462  0.3044 -0.5123  0.6835
 1022MOL0     C37897  10.845   2.592  -0.480  0.7449 -0.4090  0.6411
 1022MOL0     C37898  10.800   2.467  -0.563  0.7354 -0.1587 -0.4927
 1022MOL0     C37899  10.839   2.330  -0.519  0.0867  0.0146 -0.0456
 1022MOL0     C37900  10.872   2.217  -0.484  0.4212 -0.4848  0.3936
 1022MOL0     C37901  10.852   2.435  -0.143 -0.2797  0.1148 -0.6034
 1022MOL0     C37902  10.766   2.394  -0.050 -0.6494 -0.1377 -1.3396
 1022MOL0     H37903  10.796   2.344   0.521 -0.2297 -1.2550 -1.8710
 1022MOL0     H37904  10.700   2.250   0.720 -0.0354  0.8636  0.5413
 1022MOL0     H37905  10.560   2.089   0.860 -1.7377 -1.6234 -0.0172
 1022MOL0     H37906  10.550   2.260   0.913 -0.9282  0.9521 -0.8962
 1022MOL0     H37907  10.334   2.228   1.015 -2.1643 -0.3459 -2.4976
 1022MOL0     H37908  10.333   2.068   0.964  0.5991 -0.2598 -0.6298
 1022MOL0     H37909  10.589   2.102   1.092  0.4946  0.0012 -2.2593
 1022MOL0     H37910  10.454   2.158   1.201  0.8287  0.8017 -0.6967
 1022MOL0     H37911  10.364   1.922   1.155  0.4699 -1.4308 -0.8435
 1022MOL0     H37912  10.481   1.890   1.038  1.1249  0.1022 -0.5884
 1022MOL0     H37913  10.531   1.775   1.247 -3.4944  2.1376  0.8181
 1022MOL0     H37914  10.667   1.875   1.189  0.8027 -0.9460  0.3046
 1022MOL0     H37915  10.652   1.909   1.429  1.3998  1.7250  0.0031
 1022MOL0     H37916  10.593   2.052   1.352  0.0910  0.2034 -0.1491
 1022MOL0     H37917  10.439   1.974   1.554 -1.8076 -2.6506  0.8441
 1022MOL0     H37918  10.349   1.979   1.403 -0.8670 -0.3133 -0.0628
 1022MOL0     H37919  10.444   1.738   1.539 -0.1434 -0.3150 -0.7122
 1022MOL0     H37920  10.353   1.741   1.381  2.5319  1.2029 -1.3747
 1022MOL0     H37921  10.313   1.902   1.738  2.1079 -1.4591 -0.0878
 1022MOL0     H37922  10.106   1.862   1.939  2.8524 -0.4381  0.0184
 1022MOL0     H37923   9.957   1.906   1.851  0.8625  0.1142  1.8738
 1022MOL0     H37924  10.022   1.613   1.882 -0.5970 -0.9003  0.6596
 1022MOL0     H37925   9.877   1.706   1.853  1.8392 -0.9099 -1.3941
 1022MOL0     H37926   9.927   1.818   2.067 -1.7132  1.0867 -2.4427
 1022MOL0     H37927  10.020   1.668   2.118 -1.6466  1.5106  2.2261
 1022MOL0     H37928   9.866   1.513   2.083  0.5890  0.4242 -0.6609
 1022MOL0     H37929   9.742   1.621   2.013 -0.5909  0.4828  1.0265
 1022MOL0     H37930   9.640   1.452   2.211 -0.0583  2.2179 -1.1682
 1022MOL0     H37931   9.483   1.297   2.287  0.0731 -1.1233  1.1017
 1022MOL0     H37932   9.431   1.312   2.448 -1.5434 -0.9835 -1.6878
 1022MOL0     H37933   9.329   1.371   2.319 -0.8710 -0.2783 -0.0641
 1022MOL0     H37934   9.103   1.532   2.652 -2.7054 -1.6230  1.4488
 1022MOL0     H37935   8.938   1.540   2.833  1.2297 -0.1096 -0.7421
 1022MOL0     H37936   8.823   1.723   2.997 -0.2212  0.2044  1.7524
 1022MOL0     H37937   8.830   1.550   3.035 -0.2654 -1.7571  0.0335
 1022MOL0     H37938   8.828   1.591   3.270 -0.4189 -0.7547 -0.3731
 1022MOL0     H37939   8.825   1.774   3.235  1.7931 -0.2900 -1.3132
 1022MOL0     H37940   8.627   1.573   3.138  0.7566  0.6767 -0.5715
 1022MOL0     H37941   8.616   1.749   3.115 -1.6316 -0.8787 -1.5486
 1022MOL0     H37942   8.606   1.612   3.371 -0.7913  0.7850  0.3352
 1022MOL0     H37943   8.588   1.787   3.345 -3.6278  1.6507 -2.5909
 1022MOL0     H37944   8.397   1.620   3.197 -0.6991  1.0937 -0.8013
 1022MOL0     H37945   8.386   1.788   3.243 -1.8189  0.3807  3.2406
 1022MOL0     H37946   8.348   1.527   3.407 -3.4304 -0.4712  1.1166
 1022MOL0     H37947   8.378   1.678   3.487  3.0838  0.1491 -1.0665
 1022MOL0     H37948   8.170   1.659   3.266  1.0198  3.6521 -1.3967
 1022MOL0     H37949   8.195   1.793   3.386 -2.6757 -0.7261  3.7107
 1022MOL0     H37950   8.101   1.672   3.569 -0.8207  0.7525 -1.1194
 1022MOL0     H37951   8.104   1.519   3.470 -0.4293 -0.2409 -0.9912
 1022MOL0     H37952   9.211   1.796   3.066  3.0596 -0.2284 -1.6620
 1022MOL0     H37953   9.373   1.774   2.890 -0.0695  1.2099 -0.1938
 1022MOL0     H37954   9.518   1.783   2.551 -1.1728 -1.0273  1.4756
 1022MOL0     H37955   9.703   1.828   2.381 -0.8272  1.5839  0.2281
 1022MOL0     H37956  10.305   2.305   0.536  0.0806 -1.3541  1.1216
 1022MOL0     H37957  10.424   2.366   0.328  0.7889  0.7269  0.7051
 1022MOL0     H37958  10.868   2.584   0.206 -1.7974 -1.7501  0.8990
 1022MOL0     H37959  11.015   2.685   0.011 -1.1827  1.7303  0.4780
 1022MOL0     H37960  11.163   2.548  -0.336  0.4238 -2.9769 -1.1900
 1022MOL0     H37961  11.039   2.426  -0.345  1.8712 -0.0331  1.8114
 1022MOL0     H37962  11.049   2.591  -0.556 -0.3370 -1.9693  0.6274
 1022MOL0     H37963  11.023   2.716  -0.445  2.3982 -0.9881  0.7112
 1022MOL0     H37964  10.799   2.682  -0.523 -0.2278 -0.7737  0.8877
 1022MOL0     H37965  10.809   2.569  -0.380  2.4935 -1.4116  1.0829
 1022MOL0     H37966  10.810   2.470  -0.672 -1.1723  0.7660 -0.6790
 1022MOL0     H37967  10.691   2.476  -0.568  0.5876 -0.6204  1.3233
 1022MOL0     H37968  10.889   2.114  -0.458 -1.8224 -0.4662  2.2312
 1022MOL0     H37969  10.843   2.379  -0.236 -2.9166 -0.6900  0.0616
 1022MOL0     H37970  10.715   2.299  -0.062 -0.1666 -0.5846 -0.0539
 1023MOL0     O37971  10.293   3.387   5.138 -0.2718  0.1163  0.0044
 1023MOL0     C37972  10.383   3.338   5.080 -0.5942  0.3401  0.1894
 1023MOL0     O37973  10.520   3.382   5.096 -0.1777 -0.3675  0.8782
 1023MOL0     C37974  10.545   3.476   5.190 -0.4109  0.0648  0.0969
 1023MOL0     C37975  10.619   3.593   5.153 -0.4514  0.8216  1.0183
 1023MOL0     C37976  10.656   3.682   5.251  0.2737  0.1645 -1.1949
 1023MOL0     C37977  10.615   3.677   5.383 -0.5322  0.8693  0.2039
 1023MOL0     O37978  10.664   3.776   5.469  0.3188  0.5524 -0.4703
 1023MOL0     C37979  10.548   3.828   5.545  0.0598 -0.3345 -0.1234
 1023MOL0     C37980  10.575   3.931   5.657 -0.3093  0.4215  0.1529
 1023MOL0     C37981  10.656   3.878   5.771 -0.6902 -0.3254 -0.3677
 1023MOL0     C37982  10.600   3.755   5.854 -0.5498 -1.0368  0.1991
 1023MOL0     C37983  10.674   3.620   5.822  0.1310  1.0427  0.2795
 1023MOL0     C37984  10.648   3.518   5.930  0.3510  0.0142 -0.4498
 1023MOL0     C37985  10.507   3.467   5.935  0.6474  0.4582  0.1255
 1023MOL0     C37986  10.490   3.361   6.050 -1.1884 -0.6225 -0.1893
 1023MOL0     N37987  10.397   3.258   6.037  0.2339 -0.1889  0.1354
 1023MOL0     C37988  10.259   3.269   6.054 -0.3736 -0.0226 -0.0876
 1023MOL0     C37989  10.204   3.163   5.994 -1.6324 -0.6292  0.3038
 1023MOL0     C37990  10.056   3.133   5.998 -0.1354 -0.4116 -0.3617
 1023MOL0     C37991   9.997   3.132   6.149 -0.0942  0.8721 -0.0014
 1023MOL0     C37992  10.064   3.028   6.246 -0.4849  0.4575 -0.6725
 1023MOL0     C37993   9.984   3.026   6.376  0.8138  0.5078 -0.4894
 1023MOL0     O37994  10.055   2.939   6.463  0.7696  0.1629  0.1650
 1023MOL0     C37995  10.028   2.955   6.598  0.4321  0.6766 -0.1997
 1023MOL0     C37996   9.896   2.934   6.656 -0.0595  0.1850 -0.3072
 1023MOL0     C37997   9.883   2.950   6.799  0.0326  0.3702 -0.2169
 1023MOL0     C37998   9.738   2.943   6.855  1.0746 -0.5146  0.7426
 1023MOL0     C37999   9.996   3.002   6.875 -0.1702  0.6130  0.8538
 1023MOL0     C38000   9.989   3.021   7.015 -0.2705  0.0556 -0.9854
 1023MOL0     O38001  10.105   3.009   7.093 -0.4966 -0.0406 -0.5020
 1023MOL0     C38002  10.101   3.026   7.234 -0.2270  0.6535  0.5249
 1023MOL0     C38003   9.993   2.983   7.320  0.3085 -0.2109  0.1806
 1023MOL0     C38004  10.001   3.026   7.451 -0.2509 -0.1499  0.9136
 1023MOL0     C38005  10.109   3.108   7.494  0.6393  0.3048 -0.3188
 1023MOL0     O38006  10.105   3.166   7.616  0.4337 -0.4999 -0.2225
 1023MOL0     C38007   9.993   3.257   7.632 -0.5984  0.5614 -0.5162
 1023MOL0     C38008  10.034   3.393   7.598 -1.6216 -0.7487 -0.1175
 1023MOL0     C38009  10.157   3.440   7.693  0.7242  0.4338 -0.4780
 1023MOL0     C38010  10.152   3.589   7.706 -0.0672  0.3555  0.0998
 1023MOL0     C38011  10.258   3.636   7.795  0.2931 -0.7114 -0.3662
 1023MOL0     C38012  10.223   3.644   7.943  1.1600  0.5087  0.1961
 1023MOL0     C38013  10.175   3.514   8.010 -0.5941 -0.3511  0.8709
 1023MOL0     C38014  10.139   3.517   8.153 -0.6695 -0.6992 -1.4513
 1023MOL0    Cl38015  10.017   3.396   8.200  0.1536  0.4787  0.1541
 1023MOL0     C38016  10.206   3.150   7.405  0.0432  0.0683  1.0183
 1023MOL0     C38017  10.203   3.113   7.272  0.1503  0.2295 -0.0844
 1023MOL0     O38018   9.883   3.048   7.063 -0.7921 -1.2848  0.2006
 1023MOL0     C38019  10.123   3.008   6.810 -0.4738  0.1694  0.8570
 1023MOL0     C38020  10.134   2.983   6.673 -0.2837 -0.4383  0.5249
 1023MOL0     N38021  10.309   3.085   5.946  0.3231 -0.2760 -0.2001
 1023MOL0     N38022  10.421   3.145   5.962 -0.1195 -0.1783  0.4044
 1023MOL0     C38023  10.537   3.573   5.418 -0.1878 -0.0664  0.5198
 1023MOL0     C38024  10.506   3.467   5.322 -0.5358 -0.6395 -0.6010
 1023MOL0     C38025  10.352   3.242   4.971  0.8572  0.0193 -0.5536
 1023MOL0     C38026  10.246   3.144   4.983 -0.3796  0.8717  0.1073
 1023MOL0     C38027  10.238   3.045   4.883 -0.2665 -0.5130 -0.7026
 1023MOL0     C38028  10.318   3.048   4.772 -1.0888  0.4699  0.7455
 1023MOL0     O38029  10.318   2.960   4.661 -0.6755 -0.5923 -0.2286
 1023MOL0     C38030  10.198   2.894   4.625 -0.4642 -0.3364 -1.0068
 1023MOL0     C38031  10.194   2.761   4.702  0.4042  0.8227 -0.3909
 1023MOL0     C38032  10.069   2.674   4.673  0.2054  0.8924  0.6413
 1023MOL0     C38033  10.101   2.527   4.716  0.6136  0.5433  0.9234
 1023MOL0     C38034   9.978   2.448   4.727 -0.0639  0.2225 -0.3227
 1023MOL0     C38035   9.871   2.401   4.754 -0.1334  0.4212 -0.7529
 1023MOL0     C38036  10.417   3.145   4.759  0.3520  0.5147 -0.2606
 1023MOL0     C38037  10.436   3.235   4.860  0.0249 -0.9493 -0.5899
 1023MOL0     H38038  10.643   3.621   5.051 -0.1337  4.6971  1.9894
 1023MOL0     H38039  10.728   3.757   5.218  0.4953  0.3258 -0.3494
 1023MOL0     H38040  10.480   3.863   5.467  1.7646 -3.3970 -3.3306
 1023MOL0     H38041  10.497   3.750   5.602 -0.7400  1.7370  2.1225
 1023MOL0     H38042  10.625   4.013   5.605  0.5936 -0.6472 -0.6925
 1023MOL0     H38043  10.477   3.965   5.694 -0.6854  2.6737 -2.5881
 1023MOL0     H38044  10.754   3.857   5.726 -2.3889 -1.3752 -3.8508
 1023MOL0     H38045  10.668   3.966   5.835 -2.5128  0.0218 -0.4442
 1023MOL0     H38046  10.613   3.775   5.961  1.7863  0.3776 -0.2973
 1023MOL0     H38047  10.491   3.745   5.843 -0.4946 -0.2171 -1.2684
 1023MOL0     H38048  10.666   3.587   5.718  1.5349 -0.9209  0.7235
 1023MOL0     H38049  10.781   3.646   5.825  0.0147  2.0489 -2.1733
 1023MOL0     H38050  10.718   3.436   5.949  0.1726 -0.0234  0.0630
 1023MOL0     H38051  10.663   3.575   6.022 -1.7891  0.7542 -0.5029
 1023MOL0     H38052  10.435   3.549   5.946 -0.4319 -0.3202 -0.9932
 1023MOL0     H38053  10.484   3.415   5.842 -3.0984 -0.6279  1.5038
 1023MOL0     H38054  10.458   3.422   6.135  2.8246  1.3450  0.1533
 1023MOL0     H38055  10.592   3.328   6.075 -0.8023 -1.8870 -3.0035
 1023MOL0     H38056  10.203   3.345   6.108  0.9213  1.3306 -0.5784
 1023MOL0     H38057  10.019   3.225   5.953  3.6092  1.6097  0.3041
 1023MOL0     H38058  10.024   3.040   5.951 -0.2886  0.6290 -2.4303
 1023MOL0     H38059   9.894   3.104   6.129  0.5941 -2.7261  0.7384
 1023MOL0     H38060  10.006   3.228   6.199  0.5939  0.6979  0.2271
 1023MOL0     H38061  10.167   3.058   6.269  0.5250 -1.8196 -1.9685
 1023MOL0     H38062  10.077   2.930   6.200  2.7293 -0.6273  2.1131
 1023MOL0     H38063   9.882   2.989   6.360  0.7039  0.8946 -0.6853
 1023MOL0     H38064   9.975   3.128   6.413  1.2695  0.2946  0.2280
 1023MOL0     H38065   9.808   2.913   6.596  0.6214  1.0578 -1.6508
 1023MOL0     H38066   9.720   2.861   6.925  2.6882 -0.2066  1.5676
 1023MOL0     H38067   9.707   3.036   6.904 -2.0409 -0.0118 -1.8170
 1023MOL0     H38068   9.662   2.926   6.778  1.8109 -1.7916  0.2661
 1023MOL0     H38069   9.908   2.920   7.297  0.2198  0.6955 -2.2462
 1023MOL0     H38070   9.933   2.998   7.530 -0.0819 -0.7603  0.8441
 1023MOL0     H38071   9.905   3.230   7.574 -0.4095 -1.2799 -0.0344
 1023MOL0     H38072   9.972   3.254   7.740  1.8096  3.2154  0.1475
 1023MOL0     H38073  10.066   3.395   7.493 -1.6985 -1.7343 -0.1725
 1023MOL0     H38074   9.952   3.464   7.609 -2.2409 -0.8658 -3.0695
 1023MOL0     H38075  10.253   3.409   7.651  1.5049  2.8793 -0.6629
 1023MOL0     H38076  10.146   3.391   7.790 -0.4304  4.7347  1.8117
 1023MOL0     H38077  10.145   3.621   7.602  0.0637  1.1537  0.3272
 1023MOL0     H38078  10.060   3.632   7.749 -0.5296  0.6613 -1.1556
 1023MOL0     H38079  10.290   3.736   7.766 -1.1607  0.4724  1.8405
 1023MOL0     H38080  10.338   3.562   7.793 -0.8701 -2.1276  1.5127
 1023MOL0     H38081  10.304   3.687   8.002  0.0508  0.5907  1.6995
 1023MOL0     H38082  10.140   3.715   7.947 -1.8883 -2.3556 -3.5916
 1023MOL0     H38083  10.248   3.436   7.985 -1.7861 -0.5694 -2.4616
 1023MOL0     H38084  10.085   3.483   7.956 -0.7705  0.2186  0.8273
 1023MOL0     H38085  10.085   3.607   8.183 -2.2318 -2.5388  1.9862
 1023MOL0     H38086  10.228   3.510   8.216 -1.5524  1.7330  0.2360
 1023MOL0     H38087  10.280   3.227   7.425 -0.0280 -0.2230  2.4929
 1023MOL0     H38088  10.276   3.148   7.200  1.6962 -2.1011  0.2120
 1023MOL0     H38089  10.217   3.028   6.860 -0.2794  0.9738  0.1948
 1023MOL0     H38090  10.231   2.994   6.627 -0.4717 -1.3074 -0.1004
 1023MOL0     H38091  10.507   3.551   5.519 -1.1203  2.4147  0.8561
 1023MOL0     H38092  10.441   3.387   5.358 -1.1761 -0.1013 -0.5264
 1023MOL0     H38093  10.183   3.123   5.069  0.3048 -3.5544 -0.2088
 1023MOL0     H38094  10.157   2.972   4.876  0.4279 -1.1315 -5.3243
 1023MOL0     H38095  10.117   2.959   4.660 -1.6895 -1.2867 -2.0015
 1023MOL0     H38096  10.195   2.879   4.517  0.7381 -1.9319 -0.8416
 1023MOL0     H38097  10.207   2.775   4.810 -0.9168 -2.3011  0.3110
 1023MOL0     H38098  10.283   2.708   4.668  0.2319  1.0464 -1.1913
 1023MOL0     H38099  10.051   2.673   4.565  1.0552  3.0754  0.4259
 1023MOL0     H38100   9.986   2.714   4.731 -2.5600 -1.7105 -1.2391
 1023MOL0     H38101  10.167   2.528   4.804  0.6771 -2.0064  0.9787
 1023MOL0     H38102  10.149   2.474   4.633 -1.9607  0.7437 -0.7977
 1023MOL0     H38103   9.767   2.392   4.780  0.1864  0.2561  0.4957
 1023MOL0     H38104  10.469   3.151   4.664 -0.1851  1.0319 -0.5266
 1023MOL0     H38105  10.511   3.312   4.856 -0.5566 -0.3946 -1.1776
 1024MOL0     O38106   3.036   1.045   3.058 -0.4857 -0.9350 -0.6790
 1024MOL0     C38107   3.078   1.032   2.944  0.4355 -0.5766 -0.0876
 1024MOL0     O38108   3.056   0.919   2.867 -0.4419  0.1760 -0.0284
 1024MOL0     C38109   3.011   0.797   2.911  0.6900  0.1337  0.0627
 1024MOL0     C38110   2.968   0.765   3.041 -0.1745 -0.1139 -0.5934
 1024MOL0     C38111   2.942   0.625   3.069 -0.5894 -0.5220  0.0935
 1024MOL0     C38112   2.941   0.520   2.975 -0.5556  0.2571 -0.6839
 1024MOL0     O38113   2.929   0.384   2.997 -0.2451  0.0502  0.0148
 1024MOL0     C38114   2.806   0.332   2.941 -0.1359 -1.1681  0.0834
 1024MOL0     C38115   2.796   0.177   2.984  0.1260  0.3281 -0.4081
 1024MOL0     C38116   2.757   0.171   3.130 -0.7062 -0.7665 -0.5724
 1024MOL0     C38117   2.749   0.022   3.185  0.6369 -1.1290 -0.6471
 1024MOL0     C38118   2.735   0.009   3.335  0.7690  0.6085 -0.1594
 1024MOL0     C38119   2.757  -0.127   3.395 -0.2363  0.4727  0.1769
 1024MOL0     C38120   2.735  -0.132   3.543  0.0675  0.1602  0.0098
 1024MOL0     C38121   2.732  -0.277   3.592 -0.3251 -0.6076  0.1144
 1024MOL0     N38122   2.761  -0.266   3.740 -1.2293 -0.2828  0.2521
 1024MOL0     C38123   2.889  -0.284   3.790 -0.1251 -1.1530  0.2477
 1024MOL0     C38124   2.892  -0.235   3.913 -0.3825  0.7254 -0.0708
 1024MOL0     C38125   3.014  -0.217   3.999  0.1247  0.7100  0.3116
 1024MOL0     C38126   2.989  -0.091   4.063 -0.5637  0.3324  0.1637
 1024MOL0     C38127   3.105  -0.050   4.145  0.1598 -0.6110 -0.9900
 1024MOL0     C38128   3.082   0.093   4.218 -0.0279 -0.2849  0.1892
 1024MOL0     O38129   3.175   0.118   4.325  0.0149 -0.3067 -0.4764
 1024MOL0     C38130   3.164   0.238   4.383 -0.3462  0.0510 -0.3912
 1024MOL0     C38131   3.060   0.333   4.346 -0.8718  0.0945  1.2115
 1024MOL0     C38132   3.070   0.464   4.398 -0.1188  0.4454 -0.4623
 1024MOL0     C38133   2.982   0.575   4.334 -0.8585  0.5786 -1.0222
 1024MOL0     C38134   3.167   0.498   4.489  0.2090  0.8271 -0.4934
 1024MOL0     C38135   3.163   0.630   4.564  1.8921 -0.6583  0.8604
 1024MOL0     O38136   3.255   0.726   4.536  0.0809  0.0838  0.1233
 1024MOL0     C38137   3.245   0.853   4.585  0.3458  0.8452  0.3733
 1024MOL0     C38138   3.133   0.939   4.570  0.0260  0.7726  1.5236
 1024MOL0     C38139   3.134   1.063   4.632 -0.3054 -0.3576  0.6592
 1024MOL0     C38140   3.247   1.101   4.715  0.4058 -0.7783 -0.6998
 1024MOL0     O38141   3.237   1.219   4.778  1.0161  0.1474  0.1427
 1024MOL0     C38142   3.318   1.262   4.883  0.1484 -0.0364  0.6528
 1024MOL0     C38143   3.459   1.324   4.843 -0.5468 -0.6002  1.1298
 1024MOL0     C38144   3.462   1.402   4.713 -0.3901 -0.0954 -0.7395
 1024MOL0     C38145   3.618   1.433   4.678  0.2355  0.7194  0.0485
 1024MOL0     C38146   3.654   1.568   4.709 -0.0939 -0.4086  0.3102
 1024MOL0     C38147   3.797   1.595   4.683 -0.4486  0.8272  0.3384
 1024MOL0     C38148   3.819   1.744   4.712  0.1940  1.1461  0.2096
 1024MOL0     C38149   3.970   1.776   4.726  0.7824 -0.3595  0.8269
 1024MOL0    Cl38150   4.048   1.699   4.866 -0.3245  0.2865  0.0474
 1024MOL0     C38151   3.356   1.020   4.730  0.7184 -0.9411  1.0363
 1024MOL0     C38152   3.359   0.907   4.653 -0.3799 -0.6571 -0.3581
 1024MOL0     O38153   3.064   0.639   4.641 -0.4985 -0.2882  0.0529
 1024MOL0     C38154   3.263   0.406   4.528 -0.2387  0.3628 -0.0757
 1024MOL0     C38155   3.270   0.280   4.470  0.6661 -0.8630 -0.1714
 1024MOL0     N38156   2.752  -0.195   3.941 -0.6040 -0.4911 -0.4749
 1024MOL0     N38157   2.679  -0.214   3.839 -0.1548  0.0103 -1.2676
 1024MOL0     C38158   2.979   0.559   2.848 -0.1417 -0.5617  0.1660
 1024MOL0     C38159   3.009   0.697   2.816 -1.0823 -0.2309 -0.0917
 1024MOL0     C38160   3.112   1.158   2.861 -0.2393 -0.3588 -1.0999
 1024MOL0     C38161   3.197   1.244   2.929 -0.5177 -0.4185  0.1604
 1024MOL0     C38162   3.236   1.363   2.874 -0.3408 -0.8804 -0.3774
 1024MOL0     C38163   3.192   1.396   2.739  1.3873  0.1065 -0.5875
 1024MOL0     O38164   3.221   1.504   2.668  0.1920  0.3105  0.3899
 1024MOL0     C38165   3.286   1.606   2.738 -0.2578 -0.2449 -0.2532
 1024MOL0     C38166   3.288   1.734   2.652  0.0717  0.5264 -0.4941
 1024MOL0     C38167   3.159   1.760   2.582 -0.0562 -0.2383  0.2284
 1024MOL0     C38168   3.128   1.907   2.528  0.0303  0.3349 -0.2070
 1024MOL0     C38169   3.161   2.010   2.624  0.1687 -0.4519 -0.3515
 1024MOL0     C38170   3.176   2.089   2.715  0.0168 -0.9122 -0.0368
 1024MOL0     C38171   3.110   1.305   2.679 -0.1630 -0.5206  0.2011
 1024MOL0     C38172   3.078   1.184   2.734 -0.1655  0.4304 -0.2816
 1024MOL0     H38173   2.981   0.833   3.125  1.6802 -1.2656  0.1178
 1024MOL0     H38174   2.911   0.587   3.166  2.2096  1.6099  2.0091
 1024MOL0     H38175   2.722   0.381   2.991  3.3656 -0.2241  5.8826
 1024MOL0     H38176   2.797   0.344   2.832 -2.6908  1.1115  0.4277
 1024MOL0     H38177   2.722   0.138   2.913  1.0876  0.5349 -1.5652
 1024MOL0     H38178   2.893   0.130   2.970 -0.1464  0.0028 -1.2946
 1024MOL0     H38179   2.834   0.219   3.191 -1.6695 -0.0918  0.1295
 1024MOL0     H38180   2.657   0.214   3.128  0.2241  1.5417 -0.8691
 1024MOL0     H38181   2.673  -0.026   3.123 -0.2982 -0.7885  0.2112
 1024MOL0     H38182   2.844  -0.030   3.167  0.2343 -1.4429 -1.9692
 1024MOL0     H38183   2.806   0.081   3.379  0.4684  0.6675  0.2385
 1024MOL0     H38184   2.644   0.057   3.370  1.5747  0.8244  1.7888
 1024MOL0     H38185   2.676  -0.185   3.351 -0.9539  0.8791  0.9353
 1024MOL0     H38186   2.859  -0.162   3.379 -0.4152 -0.2982  0.6979
 1024MOL0     H38187   2.809  -0.076   3.601 -0.0871  0.0656  0.3028
 1024MOL0     H38188   2.636  -0.088   3.559  0.6940  1.6574 -0.1181
 1024MOL0     H38189   2.818  -0.328   3.546  0.3092  0.4696  0.0745
 1024MOL0     H38190   2.636  -0.318   3.559 -0.4970  0.3965 -0.6632
 1024MOL0     H38191   2.976  -0.317   3.735 -0.4347 -2.0335  0.2614
 1024MOL0     H38192   3.018  -0.301   4.068 -1.5878 -0.1011 -0.5097
 1024MOL0     H38193   3.100  -0.224   3.933 -1.2921 -0.6388 -1.4769
 1024MOL0     H38194   2.903  -0.099   4.129  0.2203 -0.1868  1.1555
 1024MOL0     H38195   2.973  -0.013   3.988  1.9583 -0.2668 -1.1113
 1024MOL0     H38196   3.202  -0.047   4.096 -0.1179  1.3356 -1.5129
 1024MOL0     H38197   3.108  -0.124   4.225 -0.4530 -0.4574 -0.8171
 1024MOL0     H38198   2.979   0.084   4.255 -1.4143 -1.1837 -3.4653
 1024MOL0     H38199   3.082   0.176   4.147 -2.4255 -1.2593 -1.0902
 1024MOL0     H38200   2.980   0.313   4.276 -1.2371 -1.8713  2.1456
 1024MOL0     H38201   2.880   0.542   4.310 -2.2449  1.6218  2.7141
 1024MOL0     H38202   2.966   0.665   4.394  0.3372  2.2697 -3.0966
 1024MOL0     H38203   3.036   0.615   4.248  2.4874  0.4535  0.8410
 1024MOL0     H38204   3.050   0.916   4.503  1.2997  3.0438 -1.0253
 1024MOL0     H38205   3.052   1.133   4.626  0.3023  0.2542 -1.3831
 1024MOL0     H38206   3.263   1.342   4.934  0.5199 -0.0829  1.1341
 1024MOL0     H38207   3.336   1.174   4.945 -0.6188 -1.3438 -0.9067
 1024MOL0     H38208   3.502   1.391   4.918 -0.7869 -0.3371  1.0340
 1024MOL0     H38209   3.525   1.237   4.840 -0.5431 -0.5574 -0.7723
 1024MOL0     H38210   3.398   1.489   4.731 -2.5162 -1.8110  0.4281
 1024MOL0     H38211   3.414   1.340   4.637  1.0590 -2.2193 -0.0189
 1024MOL0     H38212   3.686   1.369   4.735 -0.4798 -1.2481 -1.2039
 1024MOL0     H38213   3.637   1.429   4.570  2.2028  3.5359  0.1790
 1024MOL0     H38214   3.624   1.585   4.813 -0.0544 -0.0377  0.2596
 1024MOL0     H38215   3.594   1.630   4.643 -2.6121 -0.7590  2.1333
 1024MOL0     H38216   3.871   1.546   4.748 -0.5947  2.1079  1.5109
 1024MOL0     H38217   3.824   1.581   4.578  1.0542 -1.1548  0.9213
 1024MOL0     H38218   3.774   1.767   4.809  0.2586 -1.2765  0.8679
 1024MOL0     H38219   3.763   1.801   4.637  2.3101  1.3971 -1.2590
 1024MOL0     H38220   3.970   1.885   4.735  2.1619 -0.1593 -0.9998
 1024MOL0     H38221   4.018   1.763   4.629 -0.3385 -0.3894  0.2589
 1024MOL0     H38222   3.443   1.053   4.787 -1.4069  3.0930  2.3366
 1024MOL0     H38223   3.444   0.845   4.677 -0.3793  0.0090  1.5701
 1024MOL0     H38224   3.343   0.423   4.600 -0.0272 -0.5140 -0.0870
 1024MOL0     H38225   3.351   0.210   4.484  0.4983 -1.0079  0.0783
 1024MOL0     H38226   2.965   0.498   2.759 -4.3672  2.6409 -1.7470
 1024MOL0     H38227   3.052   0.716   2.718  2.1207  0.0536  1.2488
 1024MOL0     H38228   3.224   1.210   3.028 -0.3454 -1.5656 -0.2611
 1024MOL0     H38229   3.302   1.427   2.930  1.7135 -2.7993 -0.4838
 1024MOL0     H38230   3.237   1.633   2.832  1.8723  2.0814  0.2709
 1024MOL0     H38231   3.389   1.580   2.764 -0.5497 -1.6839 -0.4631
 1024MOL0     H38232   3.370   1.706   2.585  0.4995 -2.4959  1.0918
 1024MOL0     H38233   3.317   1.824   2.707  1.0546  1.1895 -2.0462
 1024MOL0     H38234   3.085   1.721   2.652 -1.5139  0.7041 -0.7284
 1024MOL0     H38235   3.143   1.697   2.494 -0.1097  2.7058 -2.0133
 1024MOL0     H38236   3.020   1.914   2.511 -0.1585  3.1686  1.5374
 1024MOL0     H38237   3.189   1.913   2.438  1.8210 -3.4111  0.5416
 1024MOL0     H38238   3.199   2.161   2.792  4.9059  0.1693 -2.1190
 1024MOL0     H38239   3.079   1.327   2.578 -0.3575 -6.4588 -1.3484
 1024MOL0     H38240   3.019   1.115   2.676  1.8142 -1.6438  0.0230
  11.50127  11.50127  11.50127
